FOO
138240
    1MOL0     O    1  10.541   2.001   6.165  0.6939 -0.3183  0.9653
    1MOL0     C    2  10.491   2.107   6.208  0.6685  0.0991  0.0184
    1MOL0     O    3  10.558   2.203   6.269 -0.9516 -0.2136 -0.1190
    1MOL0     C    4  10.681   2.177   6.329 -0.4192  1.4080  0.1265
    1MOL0     C    5  10.789   2.116   6.262  0.2839  0.0525 -0.7958
    1MOL0     C    6  10.903   2.091   6.336 -0.6469  0.1099  0.3260
    1MOL0     C    7  10.912   2.118   6.474  0.5710 -0.5167  0.0620
    1MOL0     O    8  11.019   2.087   6.559  0.7306  0.1410  0.1604
    1MOL0     C    9  11.137   2.021   6.513  0.5698  0.3150 -0.6841
    1MOL0     C   10  11.226   1.980   6.635  0.2767 -0.5750  0.7020
    1MOL0     C   11  11.350   1.908   6.568  0.3865 -1.2076 -0.1371
    1MOL0     C   12  11.440   2.009   6.487  0.3140  0.4699  0.1941
    1MOL0     C   13  11.587   1.963   6.484 -0.6725 -0.6783  0.0810
    1MOL0     C   14  11.676   2.043   6.389 -0.5348 -0.2651 -0.9080
    1MOL0     C   15  11.822   2.006   6.414 -0.1746  0.5900  0.3333
    1MOL0     C   16  11.899   2.117   6.482  0.0346  0.3130 -0.3927
    1MOL0     N   17  11.843   2.160   6.607 -0.0690 -0.0773 -0.6301
    1MOL0     C   18  11.828   2.087   6.721  0.4723  0.3650  0.4867
    1MOL0     C   19  11.811   2.181   6.814  0.4612  0.2438 -0.1316
    1MOL0     C   20  11.798   2.145   6.967 -0.5316 -0.3563  0.3087
    1MOL0     C   21  11.650   2.098   6.987  0.2768 -0.2193  0.0785
    1MOL0     C   22  11.604   2.121   7.137 -0.8189  1.1544  0.5499
    1MOL0     C   23  11.674   2.010   7.223  0.5571 -0.9242 -0.2716
    1MOL0     O   24  11.611   2.000   7.353 -0.6571 -0.2149 -0.8028
    1MOL0     C   25  11.688   2.063   7.457 -0.5256 -0.1201  0.5587
    1MOL0     C   26  11.807   2.016   7.508 -0.3609 -0.7388  0.6634
    1MOL0     C   27  11.877   2.098   7.601  0.0610  1.0204 -0.1297
    1MOL0     C   28  11.819   2.215   7.652  0.6217  0.0526  0.1356
    1MOL0     C   29  11.900   2.300   7.744  0.1451  0.0170  0.3126
    1MOL0     O   30  12.036   2.289   7.740 -0.2948  0.2840 -0.4620
    1MOL0     C   31  12.126   2.354   7.831 -0.2986 -0.1092  0.5236
    1MOL0     C   32  12.111   2.486   7.876 -0.0785 -0.1222 -0.4667
    1MOL0     C   33  12.205   2.541   7.964 -0.9129 -0.6265  0.1181
    1MOL0     C   34  12.310   2.466   8.012  0.4325  0.4159  0.1120
    1MOL0     O   35  12.406   2.524   8.093  0.0028 -0.1524  0.6473
    1MOL0     C   36  12.488   2.626   8.041  0.1488 -0.2420  0.6924
    1MOL0     C   37  12.610   2.579   7.962  0.1442 -0.4423  0.0664
    1MOL0     C   38  12.677   2.694   7.884  0.6389 -0.3865 -0.0834
    1MOL0     C   39  12.682   2.839   7.947 -0.0799 -0.4277  0.6445
    1MOL0     C   40  12.820   2.902   7.912  0.2799  0.1918 -0.2237
    1MOL0     C   41  12.820   2.957   7.766  0.4179 -0.7365  0.8800
    1MOL0     C   42  12.966   2.989   7.719  0.1251  0.7253 -0.1054
    1MOL0     C   43  13.010   3.124   7.785 -0.0286  0.8884  0.8625
    1MOL0    Cl   44  13.187   3.127   7.752  0.3626  0.4715  0.2659
    1MOL0     C   45  12.318   2.333   7.962  0.3091  1.2421  0.4480
    1MOL0     C   46  12.231   2.280   7.867 -0.7653 -0.0106 -0.1125
    1MOL0     O   47  11.838   2.382   7.804 -1.0345  1.3427 -0.2840
    1MOL0     C   48  11.681   2.241   7.620  0.6001 -0.0894  0.0039
    1MOL0     C   49  11.622   2.173   7.512 -0.4099 -0.0182 -0.3231
    1MOL0     N   50  11.791   2.305   6.759  0.2656  0.6837 -0.1811
    1MOL0     N   51  11.810   2.287   6.630 -0.6483 -0.4566  0.7110
    1MOL0     C   52  10.801   2.192   6.530 -0.2896  0.1553  0.2903
    1MOL0     C   53  10.691   2.220   6.460 -0.3395  0.0383 -0.3707
    1MOL0     C   54  10.346   2.128   6.185  0.8326 -0.7970  0.1244
    1MOL0     C   55  10.299   2.256   6.204  0.1126 -0.4174  0.1531
    1MOL0     C   56  10.169   2.290   6.188  0.6670  0.5345 -0.3943
    1MOL0     C   57  10.069   2.198   6.149  0.0339  0.6616 -0.3538
    1MOL0     O   58   9.943   2.250   6.141  0.0125 -0.5729  0.0344
    1MOL0     C   59   9.844   2.167   6.077  1.4131 -1.3616 -0.0223
    1MOL0     C   60   9.708   2.244   6.090  0.2275  0.6951 -0.4646
    1MOL0     C   61   9.599   2.153   6.033 -0.5770  0.1043  0.4711
    1MOL0     C   62   9.468   2.179   6.109  0.4989 -0.9664  0.0831
    1MOL0     C   63   9.475   2.108   6.239  0.1955 -1.0790 -0.1003
    1MOL0     C   64   9.507   2.049   6.336 -0.0386 -0.2122 -0.3420
    1MOL0     C   65  10.117   2.062   6.120  1.3098 -0.3122 -0.8538
    1MOL0     C   66  10.249   2.029   6.146  0.3178  0.3743  0.6583
    1MOL0     C   67  10.289   1.881   6.120  0.2492  0.2790  0.5694
    1MOL0     H   68  10.774   2.109   6.155 -1.7428  0.4892 -0.5951
    1MOL0     H   69  10.984   2.033   6.293 -0.7230  0.5612 -0.4573
    1MOL0     H   70  11.114   1.932   6.453 -2.4573  1.6840 -1.7355
    1MOL0     H   71  11.191   2.098   6.457  1.7990  3.6039  4.3206
    1MOL0     H   72  11.169   1.901   6.686 -0.2848 -0.7335 -0.1589
    1MOL0     H   73  11.250   2.063   6.702 -0.6764  0.3611 -0.0758
    1MOL0     H   74  11.321   1.826   6.502 -1.1261  2.0913 -4.0059
    1MOL0     H   75  11.417   1.871   6.646 -0.0891 -3.0741 -0.5885
    1MOL0     H   76  11.398   2.005   6.386 -0.4475  3.3100  0.3189
    1MOL0     H   77  11.431   2.108   6.532 -1.2007  0.3600  0.1866
    1MOL0     H   78  11.608   1.972   6.591 -2.1435 -0.2061  0.3487
    1MOL0     H   79  11.601   1.858   6.454  0.0597 -0.3605 -0.7378
    1MOL0     H   80  11.643   2.027   6.286 -1.6247 -2.3764 -0.2827
    1MOL0     H   81  11.671   2.148   6.416  3.8658  0.0532 -0.5303
    1MOL0     H   82  11.872   1.976   6.321 -1.3276 -1.1721  0.2333
    1MOL0     H   83  11.827   1.915   6.475  2.3864 -0.0164 -0.6441
    1MOL0     H   84  12.000   2.077   6.498  0.3715  0.5034 -1.8821
    1MOL0     H   85  11.911   2.201   6.413 -0.4930  1.0612  0.3972
    1MOL0     H   86  11.841   1.980   6.734 -1.7903  0.1275  1.3075
    1MOL0     H   87  11.877   2.071   6.986  1.0278  0.7095 -1.6328
    1MOL0     H   88  11.821   2.235   7.024 -3.2279  0.8649 -0.3936
    1MOL0     H   89  11.576   2.135   6.916  0.8643  0.3601 -0.2437
    1MOL0     H   90  11.650   1.992   6.960  0.0512  0.1515 -1.4406
    1MOL0     H   91  11.497   2.105   7.150 -0.4889 -2.9977 -0.3815
    1MOL0     H   92  11.630   2.223   7.165 -2.5719  0.9910  3.0091
    1MOL0     H   93  11.783   2.017   7.224  0.4564  1.7728  0.3634
    1MOL0     H   94  11.653   1.913   7.178  0.5187  0.6273 -3.8937
    1MOL0     H   95  11.859   1.926   7.477  2.4446  0.3779  1.8046
    1MOL0     H   96  11.979   2.069   7.625 -0.2705 -1.4710 -1.4501
    1MOL0     H   97  12.028   2.549   7.845  1.6281  1.9480 -1.0563
    1MOL0     H   98  12.200   2.644   7.997  2.1608 -1.1256  2.7436
    1MOL0     H   99  12.437   2.681   7.961  2.4006 -1.3678 -1.6680
    1MOL0     H  100  12.514   2.701   8.116  1.3011  1.7454 -1.5583
    1MOL0     H  101  12.688   2.547   8.032 -0.6948 -1.8424  0.4006
    1MOL0     H  102  12.585   2.492   7.901  0.5054  0.2168 -1.0434
    1MOL0     H  103  12.777   2.669   7.846  2.2713  4.0755  0.7000
    1MOL0     H  104  12.610   2.701   7.798 -0.3572 -0.5432  0.6572
    1MOL0     H  105  12.660   2.828   8.053 -3.8688 -0.2006  0.0476
    1MOL0     H  106  12.606   2.910   7.911 -0.9618 -0.6409  2.0146
    1MOL0     H  107  12.897   2.827   7.930  1.5080  1.8437  1.7996
    1MOL0     H  108  12.831   2.987   7.981  1.5490  1.0094 -1.3707
    1MOL0     H  109  12.764   2.885   7.706 -2.5940  0.1992  2.3776
    1MOL0     H  110  12.773   3.056   7.762  0.1056 -0.8969  0.5442
    1MOL0     H  111  12.979   2.997   7.611  2.4855  0.3921  0.1023
    1MOL0     H  112  13.037   2.911   7.748  0.6562  1.0282 -0.5723
    1MOL0     H  113  12.959   3.209   7.737 -2.0347 -0.3556  0.6548
    1MOL0     H  114  12.981   3.120   7.890 -1.9977 -2.8101  0.3349
    1MOL0     H  115  12.405   2.275   7.990  2.3855  2.4127 -2.9577
    1MOL0     H  116  12.248   2.184   7.818 -0.3432 -0.6159  1.1904
    1MOL0     H  117  11.626   2.321   7.669 -1.3931 -0.3222 -1.7076
    1MOL0     H  118  11.518   2.183   7.482 -0.3639 -0.1446 -0.5282
    1MOL0     H  119  10.803   2.217   6.636  2.1278 -1.2390  0.6417
    1MOL0     H  120  10.610   2.263   6.518  0.7263 -0.9038  1.9581
    1MOL0     H  121  10.360   2.338   6.241 -2.3661  1.2809  0.6877
    1MOL0     H  122  10.128   2.388   6.213 -1.2725 -1.1931  4.3823
    1MOL0     H  123   9.851   2.070   6.128  2.4446  0.0283  2.6864
    1MOL0     H  124   9.851   2.139   5.972  1.5682  0.2906 -0.4825
    1MOL0     H  125   9.696   2.339   6.036 -1.9640 -1.0599 -3.3708
    1MOL0     H  126   9.705   2.268   6.197  4.5615  5.4990 -0.9872
    1MOL0     H  127   9.631   2.049   6.024 -0.9181  0.1826 -2.7417
    1MOL0     H  128   9.573   2.179   5.930  1.2415 -0.2556 -0.1179
    1MOL0     H  129   9.439   2.284   6.120 -1.6536 -1.4038 -0.9379
    1MOL0     H  130   9.380   2.134   6.063 -0.8546  0.0325  1.6125
    1MOL0     H  131   9.532   1.996   6.426 -2.1435 -0.6352  0.0686
    1MOL0     H  132  10.047   1.995   6.070  1.3198 -1.1652  0.2553
    1MOL0     H  133  10.335   1.838   6.210  2.7877 -0.0730 -0.7995
    1MOL0     H  134  10.204   1.816   6.096  0.5822  0.5633 -1.5274
    1MOL0     H  135  10.360   1.880   6.038 -1.4631 -0.1203 -0.9705
    2MOL0     O  136   0.509  11.270   8.908 -0.3105 -1.0290 -1.0152
    2MOL0     C  137   0.541  11.196   9.001 -0.0906 -0.5666  0.0619
    2MOL0     O  138   0.459  11.097   9.052  0.4256 -0.4708  1.3351
    2MOL0     C  139   0.344  11.049   8.991  0.1343 -0.1743  0.1685
    2MOL0     C  140   0.341  11.023   8.851  0.7075  0.9981  0.0776
    2MOL0     C  141   0.246  10.937   8.799 -0.4397 -0.3613  0.3504
    2MOL0     C  142   0.133  10.909   8.873  0.3598 -0.2684  0.7078
    2MOL0     O  143   0.020  10.837   8.819 -0.4412  0.3559 -0.1920
    2MOL0     C  144  -0.108  10.834   8.880 -0.6239 -0.3016  0.1327
    2MOL0     C  145  -0.209  10.767   8.791  0.2409 -0.1319 -0.4042
    2MOL0     C  146  -0.354  10.762   8.856  0.3055 -0.8344  0.1599
    2MOL0     C  147  -0.383  10.647   8.948 -0.0066  0.4712 -0.9666
    2MOL0     C  148  -0.534  10.672   8.982 -0.9532  0.4835  0.0011
    2MOL0     C  149  -0.587  10.575   9.086 -0.1978  0.1437  0.2547
    2MOL0     C  150  -0.731  10.631   9.118 -1.3701 -0.6047  0.7877
    2MOL0     C  151  -0.797  10.550   9.229  0.5696  0.0414  0.5497
    2MOL0     N  152  -0.924  10.598   9.261 -0.0509  0.5205  0.5791
    2MOL0     C  153  -0.977  10.614   9.386 -1.0667  1.3577  0.2336
    2MOL0     C  154  -1.107  10.639   9.371 -0.0267 -1.3456  0.9405
    2MOL0     C  155  -1.212  10.674   9.464  1.2209 -0.8917  0.4365
    2MOL0     C  156  -1.342  10.574   9.452 -0.9828 -0.1505 -0.2444
    2MOL0     C  157  -1.442  10.592   9.568  0.3162 -0.5253 -0.5204
    2MOL0     C  158  -1.571  10.530   9.537  0.3700 -1.1271  0.0652
    2MOL0     O  159  -1.650  10.538   9.656  0.9532  0.2418  0.0301
    2MOL0     C  160  -1.754  10.450   9.665 -0.3378 -0.1595  0.2727
    2MOL0     C  161  -1.799  10.370   9.560  1.3859  0.3920 -0.0823
    2MOL0     C  162  -1.899  10.272   9.578 -0.1240  0.0157 -0.0025
    2MOL0     C  163  -1.949  10.238   9.710 -0.1203 -1.1899  0.3311
    2MOL0     C  164  -2.052  10.130   9.725 -1.1957 -0.5553 -0.0252
    2MOL0     O  165  -2.112  10.126   9.844 -0.8478 -0.2586  0.7411
    2MOL0     C  166  -2.200  10.025   9.877  1.4833  0.2421  1.1401
    2MOL0     C  167  -2.284  10.045   9.988  0.5280  0.2146 -0.3873
    2MOL0     C  168  -2.372   9.942  10.029 -0.4054 -0.6406 -0.3063
    2MOL0     C  169  -2.378   9.818   9.960  0.7085 -1.1367  0.5537
    2MOL0     O  170  -2.466   9.724   9.987 -0.0602  0.0331  0.5033
    2MOL0     C  171  -2.559   9.749  10.096 -0.2335  0.1178 -0.1363
    2MOL0     C  172  -2.637   9.621  10.130  0.7460  0.9620  0.7697
    2MOL0     C  173  -2.737   9.639  10.251 -0.2052  0.0679 -0.1538
    2MOL0     C  174  -2.880   9.671  10.199  0.1717 -0.5827  1.6986
    2MOL0     C  175  -2.988   9.649  10.303  0.7188  0.7838  0.0410
    2MOL0     C  176  -3.131   9.615  10.255 -0.3182  0.1248  0.6520
    2MOL0     C  177  -3.201   9.736  10.185  0.1634 -0.6097 -1.4640
    2MOL0     C  178  -3.350   9.712  10.144 -0.0175  0.1531  0.0507
    2MOL0    Cl  179  -3.353   9.559  10.043  0.2923  0.0497 -0.3410
    2MOL0     C  180  -2.290   9.797   9.851 -0.1205  0.2491 -0.1909
    2MOL0     C  181  -2.200   9.893   9.821 -0.1628  0.8879  0.3397
    2MOL0     O  182  -2.070  10.066   9.623 -0.0265  0.6155  0.0046
    2MOL0     C  183  -1.903  10.327   9.809  0.3772  0.1702  0.3365
    2MOL0     C  184  -1.815  10.427   9.785 -0.9198 -0.1422 -0.3803
    2MOL0     N  185  -1.122  10.659   9.237  0.4938 -0.3863 -0.5304
    2MOL0     N  186  -1.015  10.636   9.170  0.2190 -0.3901  1.0726
    2MOL0     C  187   0.130  10.943   9.011  0.5714  0.5877 -0.8956
    2MOL0     C  188   0.238  11.008   9.071 -0.5368  0.0986  0.6647
    2MOL0     C  189   0.654  11.252   9.086 -1.0208 -0.1354  0.3989
    2MOL0     C  190   0.723  11.367   9.033 -0.5654 -0.0955 -0.4723
    2MOL0     C  191   0.823  11.434   9.099  0.5750  0.1207 -0.0142
    2MOL0     C  192   0.866  11.389   9.226 -0.8489  0.4766 -0.3212
    2MOL0     O  193   0.966  11.470   9.283 -0.3701  0.0453  0.0329
    2MOL0     C  194   1.030  11.427   9.407  0.6425  0.0537 -0.3079
    2MOL0     C  195   1.167  11.497   9.421  0.3737 -0.8707 -0.0190
    2MOL0     C  196   1.120  11.639   9.469  0.2684  0.1939  0.3413
    2MOL0     C  197   1.243  11.719   9.511 -0.1789  0.2573  0.0259
    2MOL0     C  198   1.194  11.848   9.566 -0.6912  0.7079  0.6933
    2MOL0     C  199   1.171  11.959   9.597 -0.5063 -0.4716  0.9430
    2MOL0     C  200   0.806  11.265   9.277 -0.2084  0.5183 -0.6203
    2MOL0     C  201   0.693  11.206   9.216  0.5546 -0.3929  0.3609
    2MOL0     C  202   0.613  11.104   9.290 -0.2008  0.0377 -0.1456
    2MOL0     H  203   0.425  11.053   8.788 -0.4283  1.1262 -1.4256
    2MOL0     H  204   0.240  10.920   8.692 -2.9472  0.8076  0.2214
    2MOL0     H  205  -0.108  10.790   8.980 -1.2845  1.1259  0.7895
    2MOL0     H  206  -0.142  10.938   8.875 -4.4466 -1.4413 -0.9629
    2MOL0     H  207  -0.165  10.667   8.780 -0.2784 -0.5566  1.1006
    2MOL0     H  208  -0.213  10.814   8.693  1.8027  3.1375  0.9524
    2MOL0     H  209  -0.434  10.766   8.781  0.5043 -1.9168 -0.1139
    2MOL0     H  210  -0.373  10.861   8.900  0.1993 -1.6762  2.1229
    2MOL0     H  211  -0.375  10.555   8.889 -0.1252 -2.7918  3.5712
    2MOL0     H  212  -0.312  10.639   9.031  0.2956 -2.0046 -1.3594
    2MOL0     H  213  -0.534  10.774   9.021  2.5826  0.5978  0.0299
    2MOL0     H  214  -0.599  10.663   8.894 -0.1167 -1.9349 -0.4369
    2MOL0     H  215  -0.594  10.472   9.051 -1.7451  0.2251  0.2697
    2MOL0     H  216  -0.526  10.583   9.177  1.8452 -0.3654 -1.0096
    2MOL0     H  217  -0.783  10.646   9.023  3.1906  0.3299 -1.8597
    2MOL0     H  218  -0.716  10.727   9.168  0.6093 -0.2503 -0.3544
    2MOL0     H  219  -0.815  10.447   9.197 -0.6496  0.1758  0.7564
    2MOL0     H  220  -0.734  10.539   9.317  0.1289 -2.5977  0.5961
    2MOL0     H  221  -0.921  10.616   9.479 -2.5771 -2.3355  1.3916
    2MOL0     H  222  -1.170  10.669   9.565  3.0901 -0.2776 -0.2741
    2MOL0     H  223  -1.243  10.778   9.448 -2.5253 -2.0236 -0.5988
    2MOL0     H  224  -1.389  10.576   9.353 -1.1715  2.1084 -0.1636
    2MOL0     H  225  -1.305  10.471   9.446 -1.7230 -0.3805 -1.0810
    2MOL0     H  226  -1.456  10.700   9.578 -2.8448 -0.7414 -1.6083
    2MOL0     H  227  -1.405  10.560   9.666 -2.8913  0.6209  1.1761
    2MOL0     H  228  -1.558  10.428   9.501  0.7457 -1.1917  0.3807
    2MOL0     H  229  -1.624  10.576   9.453  2.3298  2.4127  0.5339
    2MOL0     H  230  -1.766  10.368   9.457 -1.5399  3.4976 -1.2418
    2MOL0     H  231  -1.947  10.215   9.498  3.6206 -0.6401 -1.9979
    2MOL0     H  232  -2.298  10.137  10.044 -3.0368  0.0713 -0.8378
    2MOL0     H  233  -2.436   9.978  10.109  2.6635  2.3976  1.0524
    2MOL0     H  234  -2.513   9.783  10.189 -1.9610 -3.4188  2.2354
    2MOL0     H  235  -2.631   9.828  10.073  0.6498  1.0308  0.1843
    2MOL0     H  236  -2.687   9.603  10.034  4.6149  1.9272 -1.6894
    2MOL0     H  237  -2.555   9.554  10.158  0.1328  0.2441  0.8788
    2MOL0     H  238  -2.734   9.547  10.310  1.2605 -2.0822 -3.2987
    2MOL0     H  239  -2.707   9.723  10.313 -1.7248  0.1299  0.5437
    2MOL0     H  240  -2.901   9.603  10.116 -1.0185  0.1816  1.3385
    2MOL0     H  241  -2.884   9.777  10.171 -1.3179 -0.7168  1.3028
    2MOL0     H  242  -2.996   9.726  10.380 -2.6060 -2.6148  3.4872
    2MOL0     H  243  -2.952   9.555  10.344  0.2701 -1.6642 -4.5158
    2MOL0     H  244  -3.133   9.532  10.184 -0.5389  0.8649 -0.2339
    2MOL0     H  245  -3.192   9.594  10.343  0.5493  1.4610  1.6070
    2MOL0     H  246  -3.148   9.745  10.090  1.1576  2.0681 -0.7427
    2MOL0     H  247  -3.190   9.832  10.236 -0.5758 -1.7379  0.9990
    2MOL0     H  248  -3.421   9.713  10.227 -1.5738 -1.5876 -1.1638
    2MOL0     H  249  -3.378   9.794  10.076 -1.4784 -1.9277 -2.0330
    2MOL0     H  250  -2.300   9.703   9.797 -0.8574  0.9649 -1.3356
    2MOL0     H  251  -2.133   9.855   9.745 -0.9615  0.3740 -0.1211
    2MOL0     H  252  -1.944  10.311   9.908 -1.6442 -0.0212 -0.4690
    2MOL0     H  253  -1.784  10.478   9.876 -0.2758 -1.3137  0.0887
    2MOL0     H  254   0.044  10.920   9.074  0.9494  0.7919 -0.2938
    2MOL0     H  255   0.228  11.012   9.179 -1.1978  0.1119  0.6110
    2MOL0     H  256   0.691  11.404   8.936 -0.1289 -1.3425 -1.1024
    2MOL0     H  257   0.885  11.513   9.059  3.0037 -0.5847  2.1118
    2MOL0     H  258   1.046  11.319   9.396 -0.7938 -0.5424  2.5573
    2MOL0     H  259   0.965  11.448   9.493 -0.9822  3.8021 -2.2185
    2MOL0     H  260   1.230  11.482   9.333 -1.8026  0.9607 -2.0046
    2MOL0     H  261   1.237  11.452   9.493 -0.2089 -0.4189  0.8487
    2MOL0     H  262   1.044  11.635   9.547 -2.3745 -0.9288 -2.0987
    2MOL0     H  263   1.079  11.702   9.389  0.1002  2.2526  1.9755
    2MOL0     H  264   1.299  11.658   9.582 -1.1479  0.0443  0.6355
    2MOL0     H  265   1.310  11.742   9.427  0.1874 -1.6899 -0.2653
    2MOL0     H  266   1.147  12.061   9.619 -1.9569 -0.1683 -1.6987
    2MOL0     H  267   0.848  11.237   9.374 -2.5338 -0.6980  0.1118
    2MOL0     H  268   0.508  11.130   9.305  0.1182  0.6389  1.2549
    2MOL0     H  269   0.607  11.010   9.236 -3.8620  1.0432 -1.7392
    2MOL0     H  270   0.656  11.102   9.391  0.3715  0.2055 -0.3851
    3MOL0     O  271  10.858   6.141   5.687 -0.3766  0.1545  0.0972
    3MOL0     C  272  10.930   6.242   5.688  0.0544  0.4464 -0.6992
    3MOL0     O  273  10.915   6.354   5.610  0.0359  0.6117 -0.7008
    3MOL0     C  274  10.808   6.350   5.527  0.4988 -1.6491 -0.2413
    3MOL0     C  275  10.800   6.286   5.402 -0.6541 -0.2633 -0.9232
    3MOL0     C  276  10.681   6.294   5.324  0.6876  0.5270  0.5514
    3MOL0     C  277  10.566   6.378   5.366 -1.5554  0.5371 -0.0864
    3MOL0     O  278  10.451   6.400   5.298  0.2734 -0.6339 -0.2226
    3MOL0     C  279  10.436   6.341   5.171 -0.5312 -0.3248  0.1916
    3MOL0     C  280  10.295   6.355   5.113 -0.4727  0.4693 -1.0626
    3MOL0     C  281  10.239   6.498   5.115 -0.0316  0.8055  0.4726
    3MOL0     C  282  10.096   6.503   5.056  0.3308  0.2756 -1.0466
    3MOL0     C  283  10.054   6.657   5.028  0.3966 -0.6804 -0.0811
    3MOL0     C  284  10.136   6.739   4.920 -0.1143 -0.2619  0.1541
    3MOL0     C  285  10.084   6.877   4.924  0.0363  0.1236 -0.6683
    3MOL0     C  286  10.131   6.952   4.804 -0.0629 -0.0565  0.5654
    3MOL0     N  287  10.275   6.967   4.807 -0.2012  0.7011  0.2917
    3MOL0     C  288  10.367   6.883   4.743 -0.1966  0.3041  0.2554
    3MOL0     C  289  10.490   6.925   4.785 -0.6140  0.1073  0.2089
    3MOL0     C  290  10.628   6.871   4.752 -0.5398 -0.6317  0.1264
    3MOL0     C  291  10.689   6.817   4.884  0.3097  0.7900 -0.1229
    3MOL0     C  292  10.810   6.718   4.848  0.7809 -0.3688  0.6170
    3MOL0     C  293  10.875   6.653   4.973  0.5839 -0.0450  0.4447
    3MOL0     O  294  11.018   6.636   4.950 -0.0845 -0.0011 -0.5708
    3MOL0     C  295  11.082   6.549   5.042 -0.2601  0.2408  0.5523
    3MOL0     C  296  11.018   6.454   5.121  0.5188 -0.4897  0.2941
    3MOL0     C  297  11.086   6.382   5.218 -0.3046 -0.4113 -0.2693
    3MOL0     C  298  11.217   6.408   5.263  0.7442 -0.3032 -0.1862
    3MOL0     C  299  11.283   6.341   5.379  0.0021 -0.0877 -0.6134
    3MOL0     O  300  11.421   6.355   5.382 -0.0997  1.1448  0.4022
    3MOL0     C  301  11.504   6.319   5.486  0.4206  0.3940  1.3182
    3MOL0     C  302  11.470   6.245   5.602  0.2989  0.5221 -0.0101
    3MOL0     C  303  11.570   6.202   5.681 -0.0322 -0.3717 -0.4890
    3MOL0     C  304  11.699   6.236   5.662  0.1698 -0.3674  0.1753
    3MOL0     O  305  11.799   6.205   5.754  0.1763  0.4108 -0.0431
    3MOL0     C  306  11.784   6.091   5.849 -0.6886  0.8673  0.0815
    3MOL0     C  307  11.737   6.144   5.977 -0.0158 -0.1232  0.2532
    3MOL0     C  308  11.674   6.030   6.069 -0.8733 -0.1427  0.0980
    3MOL0     C  309  11.777   5.964   6.166 -0.7530  0.1926 -0.0224
    3MOL0     C  310  11.840   6.073   6.259  0.4133  0.2603  0.5878
    3MOL0     C  311  11.909   6.010   6.372 -0.8414  1.0014 -0.3924
    3MOL0     C  312  11.930   6.107   6.489  0.0155  0.9792 -0.3790
    3MOL0     C  313  12.000   6.017   6.598  0.4820  0.9045  0.0252
    3MOL0    Cl  314  12.187   6.032   6.586  0.1482  0.5060  0.6494
    3MOL0     C  315  11.736   6.310   5.549  1.5368 -0.1909  0.0937
    3MOL0     C  316  11.631   6.349   5.460  0.0768  0.9017  0.7503
    3MOL0     O  317  11.211   6.295   5.471  0.3522  0.1249  0.1769
    3MOL0     C  318  11.282   6.508   5.185  0.6995  0.0826  0.1655
    3MOL0     C  319  11.223   6.570   5.077 -0.6305  0.9759 -0.8137
    3MOL0     N  320  10.460   7.024   4.879  0.2312 -0.1077 -0.0092
    3MOL0     N  321  10.335   7.057   4.888 -0.3838  0.0639  1.5798
    3MOL0     C  322  10.582   6.441   5.492  0.1215 -0.2606  0.3964
    3MOL0     C  323  10.698   6.428   5.559  0.0314 -0.3517 -0.3775
    3MOL0     C  324  11.045   6.228   5.778  0.2858 -0.5675  1.1339
    3MOL0     C  325  11.141   6.329   5.775 -0.8463  1.5025 -0.1698
    3MOL0     C  326  11.249   6.329   5.866 -0.1899  0.4724 -0.1508
    3MOL0     C  327  11.276   6.220   5.954 -0.6726 -0.2556  0.1541
    3MOL0     O  328  11.385   6.212   6.041 -0.1543  0.3359  0.3762
    3MOL0     C  329  11.454   6.337   6.066  0.1266  0.2773  0.5873
    3MOL0     C  330  11.366   6.419   6.164  0.1129 -0.8141 -0.2079
    3MOL0     C  331  11.317   6.344   6.283 -0.0700 -0.0551  0.2807
    3MOL0     C  332  11.165   6.321   6.277  0.0464 -1.1289  0.0408
    3MOL0     C  333  11.122   6.253   6.402  0.0147  0.6204  0.0034
    3MOL0     C  334  11.100   6.197   6.506 -0.4132  0.6647 -0.6877
    3MOL0     C  335  11.192   6.106   5.945  0.0510 -0.1416  0.9075
    3MOL0     C  336  11.068   6.117   5.866  0.2155  0.0139  0.1930
    3MOL0     C  337  10.974   5.988   5.892  0.1647 -0.5406  0.2659
    3MOL0     H  338  10.880   6.215   5.383 -1.2108 -2.1562  2.9972
    3MOL0     H  339  10.688   6.243   5.229  0.8504 -1.7318  1.6865
    3MOL0     H  340  10.504   6.398   5.107 -0.3829  4.0368  3.7888
    3MOL0     H  341  10.459   6.234   5.176 -1.7629 -0.5453  3.9244
    3MOL0     H  342  10.237   6.278   5.164  3.2482 -1.5210  0.5417
    3MOL0     H  343  10.292   6.316   5.010 -4.7989  0.6177 -1.1774
    3MOL0     H  344  10.308   6.568   5.068  0.2829  0.2402  0.0720
    3MOL0     H  345  10.238   6.529   5.220 -2.5533 -0.3143  0.8648
    3MOL0     H  346  10.082   6.448   4.962  0.7049  0.3150 -1.1293
    3MOL0     H  347  10.027   6.465   5.132 -0.7481 -0.8113 -2.5172
    3MOL0     H  348   9.947   6.659   5.006 -0.8273  0.3703  4.7496
    3MOL0     H  349  10.069   6.709   5.123  0.9583  0.7871 -0.9442
    3MOL0     H  350  10.244   6.736   4.931  0.0775  1.7531 -0.7619
    3MOL0     H  351  10.126   6.697   4.820  3.4286 -0.9992 -0.0147
    3MOL0     H  352  10.112   6.921   5.020 -0.9926 -1.3398  0.3505
    3MOL0     H  353   9.976   6.892   4.917 -0.1653  0.2342  1.8938
    3MOL0     H  354  10.105   6.905   4.708 -1.4215  2.5823 -0.4769
    3MOL0     H  355  10.087   7.050   4.784  2.5287  1.0098 -0.3736
    3MOL0     H  356  10.330   6.803   4.679  0.0624 -0.5803  1.1790
    3MOL0     H  357  10.626   6.800   4.669  1.7104 -1.7684  0.9755
    3MOL0     H  358  10.692   6.958   4.734  0.3627 -0.5963  3.0049
    3MOL0     H  359  10.707   6.901   4.952 -3.3804  0.1825  1.8857
    3MOL0     H  360  10.611   6.757   4.933 -1.4545  1.7686 -1.6039
    3MOL0     H  361  10.887   6.772   4.792  0.2436 -1.6821 -1.4902
    3MOL0     H  362  10.773   6.644   4.776  3.5705 -0.2011 -1.1257
    3MOL0     H  363  10.816   6.564   4.997 -1.4954  1.3110  0.6295
    3MOL0     H  364  10.855   6.728   5.050 -2.7372 -1.2452  0.9195
    3MOL0     H  365  10.917   6.434   5.087 -0.0320  2.5859 -0.1649
    3MOL0     H  366  11.041   6.294   5.263  0.7793 -1.9005 -1.9745
    3MOL0     H  367  11.370   6.229   5.641  0.1981 -0.1432 -0.5226
    3MOL0     H  368  11.543   6.133   5.760 -1.8522  2.4122  1.5004
    3MOL0     H  369  11.716   6.009   5.824  3.1331 -3.2875  1.8776
    3MOL0     H  370  11.883   6.044   5.852 -1.7513 -1.5888 -1.3306
    3MOL0     H  371  11.817   6.197   6.030 -0.6188 -0.0980  1.1670
    3MOL0     H  372  11.658   6.216   5.954 -1.9436 -2.5324 -1.1618
    3MOL0     H  373  11.597   6.082   6.127 -0.1954  0.6309  0.3294
    3MOL0     H  374  11.622   5.952   6.012  2.1640 -0.6101 -2.3225
    3MOL0     H  375  11.872   5.923   6.132  0.2597  1.8390  0.6740
    3MOL0     H  376  11.717   5.898   6.229  0.6695 -2.0395 -0.9049
    3MOL0     H  377  11.760   6.138   6.293 -2.2214 -1.8552 -1.1120
    3MOL0     H  378  11.918   6.133   6.212  1.8148  1.4273  4.1066
    3MOL0     H  379  11.861   5.915   6.396 -2.6478  1.0656 -3.2443
    3MOL0     H  380  12.008   5.984   6.334 -0.9181  0.0759  0.0058
    3MOL0     H  381  11.828   6.136   6.517  0.2783  0.6638  0.9753
    3MOL0     H  382  11.994   6.193   6.467  1.9473 -0.3266 -0.1058
    3MOL0     H  383  11.971   6.069   6.690  0.9233  5.6219 -2.1914
    3MOL0     H  384  11.958   5.916   6.600  1.2073  0.5491  3.6821
    3MOL0     H  385  11.836   6.334   5.517  0.8591  0.4912 -1.6348
    3MOL0     H  386  11.659   6.402   5.369 -2.5308  3.2427  1.1870
    3MOL0     H  387  11.385   6.540   5.191  0.0299  2.1201  2.0279
    3MOL0     H  388  11.280   6.649   5.030 -0.5404  1.5012  0.1723
    3MOL0     H  389  10.503   6.501   5.537 -1.6683 -0.4622 -2.2006
    3MOL0     H  390  10.703   6.481   5.653  0.0506 -0.5569 -0.2617
    3MOL0     H  391  11.136   6.423   5.722 -2.1569  1.5240 -0.0412
    3MOL0     H  392  11.314   6.416   5.854  0.8635 -0.0474  1.4964
    3MOL0     H  393  11.472   6.390   5.972  1.3814 -2.9104 -1.1113
    3MOL0     H  394  11.557   6.315   6.095  0.8240  1.7458 -0.6842
    3MOL0     H  395  11.278   6.455   6.110  1.6248  1.7009 -1.1731
    3MOL0     H  396  11.400   6.519   6.189  0.0460 -0.6598 -0.7291
    3MOL0     H  397  11.337   6.408   6.369 -1.9805  1.6376 -0.4298
    3MOL0     H  398  11.363   6.245   6.288 -0.9158 -0.7410 -2.9419
    3MOL0     H  399  11.116   6.419   6.277  0.4541 -0.7721 -3.8042
    3MOL0     H  400  11.123   6.263   6.195 -1.4708  0.2481 -0.2188
    3MOL0     H  401  11.059   6.153   6.594 -0.5524 -0.0107 -1.0830
    3MOL0     H  402  11.213   6.007   5.985  1.7002 -1.0175 -1.8557
    3MOL0     H  403  11.005   5.927   5.978  1.6108 -0.9519 -0.5219
    3MOL0     H  404  10.871   6.022   5.907  0.1765  0.0098 -0.8103
    3MOL0     H  405  10.988   5.926   5.803  1.2067 -2.0070  1.3838
    4MOL0     O  406   1.766   0.134  10.587 -0.0318  0.4924  0.2356
    4MOL0     C  407   1.720   0.238  10.645  0.1114 -0.4861  0.3632
    4MOL0     O  408   1.750   0.373  10.621 -0.3774  0.1323 -0.1440
    4MOL0     C  409   1.871   0.391  10.555  0.6040  0.7823  0.3532
    4MOL0     C  410   1.865   0.464  10.436  0.3333  0.6986  0.1895
    4MOL0     C  411   1.984   0.482  10.362  0.4978  0.0054  0.6122
    4MOL0     C  412   2.102   0.424  10.398  1.0008 -0.2528 -0.2772
    4MOL0     O  413   2.209   0.438  10.311  0.0667  0.4573  0.4119
    4MOL0     C  414   2.324   0.375  10.343  0.1710  0.7941 -0.4981
    4MOL0     C  415   2.421   0.391  10.216  0.8340  0.5308  0.1757
    4MOL0     C  416   2.490   0.522  10.184  0.2237 -0.1356 -1.0451
    4MOL0     C  417   2.551   0.590  10.307 -0.1374  0.4522 -0.5034
    4MOL0     C  418   2.626   0.715  10.266 -0.2910  0.3328 -2.3777
    4MOL0     C  419   2.686   0.781  10.391  0.0136  0.6134 -0.1188
    4MOL0     C  420   2.788   0.903  10.374  0.0733 -1.1334 -0.2619
    4MOL0     C  421   2.925   0.864  10.311 -0.1501 -0.3184 -0.5931
    4MOL0     N  422   3.003   0.786  10.413  0.9340 -0.4348  0.3734
    4MOL0     C  423   3.008   0.650  10.430  0.2238  1.0644  1.1705
    4MOL0     C  424   3.101   0.633  10.531  0.1777 -0.6476  0.2987
    4MOL0     C  425   3.132   0.513  10.607 -0.4697 -0.8755  1.4101
    4MOL0     C  426   3.010   0.455  10.686 -0.6374 -0.6958  0.8720
    4MOL0     C  427   3.055   0.330  10.758 -0.3514  0.5580 -0.3808
    4MOL0     C  428   2.931   0.251  10.787 -0.0393  0.6765  0.6643
    4MOL0     O  429   2.964   0.127  10.854  0.4319  0.1273 -0.0264
    4MOL0     C  430   2.867   0.070  10.930  0.1596 -0.4224 -1.0214
    4MOL0     C  431   2.730   0.098  10.917  0.6900  0.7771  0.0020
    4MOL0     C  432   2.636   0.049  11.009 -0.8483 -0.2109 -0.5436
    4MOL0     C  433   2.672  -0.039  11.117 -0.0421 -0.0868 -0.2496
    4MOL0     C  434   2.571  -0.106  11.208 -1.1808 -0.4678 -0.1144
    4MOL0     O  435   2.433  -0.102  11.182  0.6242  0.0222  0.3565
    4MOL0     C  436   2.355  -0.172  11.276 -0.1815 -1.2175  0.0397
    4MOL0     C  437   2.272  -0.096  11.357 -0.0230 -0.0238  0.4117
    4MOL0     C  438   2.198  -0.161  11.449 -0.8250  0.2961 -0.1262
    4MOL0     C  439   2.186  -0.299  11.453 -0.1772  0.7674 -0.9868
    4MOL0     O  440   2.084  -0.364  11.516  0.0990  0.1762  0.2880
    4MOL0     C  441   1.961  -0.292  11.517  0.9389 -0.1060 -0.5900
    4MOL0     C  442   1.839  -0.372  11.561  0.4374 -0.5840 -0.3035
    4MOL0     C  443   1.808  -0.472  11.447  0.6994  0.3355 -0.2161
    4MOL0     C  444   1.683  -0.563  11.475 -0.0715  0.4532  0.1324
    4MOL0     C  445   1.651  -0.643  11.356 -0.3494  0.0751  0.5229
    4MOL0     C  446   1.539  -0.742  11.406 -0.0906 -0.4865 -0.5861
    4MOL0     C  447   1.512  -0.832  11.283  0.4694  1.3580  0.0904
    4MOL0     C  448   1.396  -0.933  11.306 -0.5887 -0.2050  0.2600
    4MOL0    Cl  449   1.254  -0.828  11.306  0.1166 -0.1344 -0.2501
    4MOL0     C  450   2.268  -0.377  11.376 -0.8023 -0.3414 -0.9023
    4MOL0     C  451   2.359  -0.310  11.290  0.0855 -0.3587  0.3363
    4MOL0     O  452   2.622  -0.147  11.311 -0.4160  0.4610  0.9943
    4MOL0     C  453   2.807  -0.071  11.128 -0.9941 -0.4877  0.0709
    4MOL0     C  454   2.902  -0.005  11.046  0.0396 -0.0634  0.0197
    4MOL0     N  455   3.143   0.759  10.565  0.0188 -0.0143  0.0744
    4MOL0     N  456   3.087   0.847  10.493  0.8606  1.1655  0.3571
    4MOL0     C  457   2.114   0.360  10.523  0.4077  0.1482  0.5044
    4MOL0     C  458   1.994   0.345  10.603 -0.4016  0.8546 -0.5811
    4MOL0     C  459   1.613   0.220  10.744 -0.0821  0.8364  0.2020
    4MOL0     C  460   1.512   0.308  10.730 -0.0430 -0.2105  0.3125
    4MOL0     C  461   1.392   0.298  10.799 -1.3050 -0.8419  0.3318
    4MOL0     C  462   1.361   0.191  10.872  0.7495  0.0756  0.2360
    4MOL0     O  463   1.244   0.189  10.940 -0.5776  0.6821 -0.3401
    4MOL0     C  464   1.239   0.096  11.050 -1.1570  1.0323 -0.7989
    4MOL0     C  465   1.097   0.095  11.109 -0.0253 -0.8397 -0.2555
    4MOL0     C  466   1.065   0.237  11.159  0.0138 -0.8059 -0.4066
    4MOL0     C  467   0.926   0.216  11.225 -0.1780 -0.1968  0.0755
    4MOL0     C  468   0.897   0.339  11.293  0.7349  0.1767  0.7744
    4MOL0     C  469   0.874   0.443  11.345 -0.2283 -0.1198 -0.4322
    4MOL0     C  470   1.468   0.105  10.909  0.7561 -0.6354 -0.1461
    4MOL0     C  471   1.588   0.112  10.843 -0.4163 -0.5384  0.1581
    4MOL0     C  472   1.700   0.011  10.869 -0.3571  0.3963 -0.1653
    4MOL0     H  473   1.772   0.508  10.401 -1.8087 -1.3018  2.8752
    4MOL0     H  474   1.983   0.550  10.277  0.1411 -1.3310 -0.4905
    4MOL0     H  475   2.373   0.418  10.430 -0.9888  2.8624 -0.8049
    4MOL0     H  476   2.299   0.272  10.373  1.8280  1.0833  2.1644
    4MOL0     H  477   2.365   0.370  10.124  2.3540  0.7636 -0.8291
    4MOL0     H  478   2.487   0.303  10.214 -1.9793 -1.7384 -0.1503
    4MOL0     H  479   2.428   0.595  10.130 -0.6755 -1.6700 -2.1827
    4MOL0     H  480   2.574   0.510  10.115  0.4227  0.9437 -1.0158
    4MOL0     H  481   2.471   0.631  10.368 -0.4816  1.3675 -1.5288
    4MOL0     H  482   2.602   0.515  10.368 -0.5792  1.3813  1.0654
    4MOL0     H  483   2.701   0.680  10.195 -0.3078 -0.6014 -1.9487
    4MOL0     H  484   2.560   0.787  10.217  1.3541  2.2958 -1.8468
    4MOL0     H  485   2.598   0.812  10.448 -1.0725 -3.1343  0.4629
    4MOL0     H  486   2.725   0.699  10.452 -3.1300 -0.7453  0.2383
    4MOL0     H  487   2.801   0.943  10.475  1.0552 -3.3709  0.5428
    4MOL0     H  488   2.741   0.972  10.302  0.7807 -2.7261 -2.3424
    4MOL0     H  489   2.911   0.806  10.220  0.5072 -0.6518 -0.4864
    4MOL0     H  490   2.969   0.961  10.283 -1.2963 -0.1319 -1.8223
    4MOL0     H  491   2.941   0.575  10.390 -0.0099  1.0925  1.5065
    4MOL0     H  492   3.163   0.439  10.533  0.1740  0.7789 -0.0419
    4MOL0     H  493   3.216   0.532  10.674 -0.2959  1.3393  0.6750
    4MOL0     H  494   2.996   0.536  10.758  0.5729 -0.3641  0.7641
    4MOL0     H  495   2.919   0.444  10.626 -2.2306  1.8405  2.5917
    4MOL0     H  496   3.117   0.350  10.846  1.1834 -2.1096 -0.7182
    4MOL0     H  497   3.123   0.268  10.698 -0.2638  0.7150 -0.4445
    4MOL0     H  498   2.883   0.223  10.693  1.2518  1.5954 -0.2918
    4MOL0     H  499   2.876   0.312  10.860 -0.0481 -2.5715  3.6197
    4MOL0     H  500   2.679   0.145  10.833  0.9605 -0.9126 -1.1417
    4MOL0     H  501   2.531   0.071  10.992 -0.3620  2.8298 -0.1092
    4MOL0     H  502   2.275   0.012  11.344 -2.4040 -0.2681 -3.9095
    4MOL0     H  503   2.139  -0.088  11.503  2.1405  3.0811 -0.3226
    4MOL0     H  504   1.974  -0.214  11.593  0.3778  1.9582 -2.4984
    4MOL0     H  505   1.937  -0.250  11.419 -4.3043  3.8389  1.8967
    4MOL0     H  506   1.856  -0.426  11.655 -1.7750 -0.7286  0.0617
    4MOL0     H  507   1.753  -0.306  11.573  0.2660 -0.7078 -0.8449
    4MOL0     H  508   1.798  -0.406  11.360  0.1843  0.2623 -0.2160
    4MOL0     H  509   1.888  -0.546  11.443  0.3146 -0.0431 -1.8878
    4MOL0     H  510   1.591  -0.506  11.489  0.7982  1.7566  0.7311
    4MOL0     H  511   1.706  -0.627  11.561  1.4271  1.2302  0.3506
    4MOL0     H  512   1.730  -0.716  11.336 -0.0228  0.1326  1.5000
    4MOL0     H  513   1.631  -0.579  11.270  1.6634 -0.0022 -0.0661
    4MOL0     H  514   1.562  -0.788  11.503 -0.1259 -1.6334 -1.1046
    4MOL0     H  515   1.448  -0.683  11.417 -0.4208 -1.1945  0.7175
    4MOL0     H  516   1.603  -0.884  11.252 -0.7652 -1.0821  0.3356
    4MOL0     H  517   1.482  -0.773  11.196 -0.7808 -1.2559 -1.3546
    4MOL0     H  518   1.405  -0.994  11.215  0.0017 -1.9800  1.4551
    4MOL0     H  519   1.407  -0.992  11.398  4.0511  0.1088  0.1290
    4MOL0     H  520   2.249  -0.484  11.379  2.0612 -0.9300 -0.4384
    4MOL0     H  521   2.424  -0.360  11.219 -0.5329 -1.0238  0.2213
    4MOL0     H  522   2.855  -0.137  11.199  1.3403 -1.6965 -2.4507
    4MOL0     H  523   3.008  -0.019  11.062 -0.0998  0.8534  2.0006
    4MOL0     H  524   2.202   0.323  10.575 -0.0119  0.1008  1.1912
    4MOL0     H  525   2.005   0.302  10.702 -1.3865  2.5592  0.3119
    4MOL0     H  526   1.524   0.397  10.669 -0.8860 -0.3575 -0.0774
    4MOL0     H  527   1.315   0.375  10.799 -1.0858 -0.4632  3.8613
    4MOL0     H  528   1.311   0.121  11.129 -0.3558 -3.1739  0.0754
    4MOL0     H  529   1.269  -0.005  11.019 -0.3575  0.2618  2.1144
    4MOL0     H  530   1.095   0.026  11.194 -0.4707  0.6796  1.0147
    4MOL0     H  531   1.014   0.062  11.046 -1.8683  0.5088  1.3432
    4MOL0     H  532   1.074   0.311  11.079 -0.8849  1.0302  1.1221
    4MOL0     H  533   1.135   0.267  11.238 -0.8777 -3.3207  1.4751
    4MOL0     H  534   0.845   0.184  11.159  0.2453 -0.7806 -0.1642
    4MOL0     H  535   0.941   0.138  11.299  0.0691  1.4650  1.8699
    4MOL0     H  536   0.852   0.538  11.389  1.1157  1.3140 -2.6720
    4MOL0     H  537   1.464   0.027  10.984  0.5748 -0.9082 -0.4406
    4MOL0     H  538   1.692  -0.075  10.802 -1.2670  0.6968 -0.4614
    4MOL0     H  539   1.797   0.062  10.865 -0.2136  0.5337  2.8831
    4MOL0     H  540   1.679  -0.035  10.966 -1.2171 -0.5210 -0.7597
    5MOL0     O  541  11.335  11.132   3.512  0.1855 -0.2700  0.4128
    5MOL0     C  542  11.328  11.063   3.613 -0.0594  0.6541  0.4424
    5MOL0     O  543  11.392  11.087   3.731 -0.9463  0.3484  0.4464
    5MOL0     C  544  11.480  11.191   3.745  0.4253  0.8015 -0.2109
    5MOL0     C  545  11.433  11.293   3.828  0.6713  0.1077  0.0575
    5MOL0     C  546  11.515  11.409   3.843  0.2260  0.2659 -0.1233
    5MOL0     C  547  11.645  11.417   3.772  0.0139  0.9553 -0.6943
    5MOL0     O  548  11.728  11.521   3.773 -0.5333 -0.0471 -0.1681
    5MOL0     C  549  11.685  11.649   3.814  0.4208 -0.0457  0.1704
    5MOL0     C  550  11.710  11.644   3.971  0.5541 -0.3715 -0.2575
    5MOL0     C  551  11.859  11.631   4.003  0.1489  0.2397  0.0133
    5MOL0     C  552  11.878  11.648   4.159  0.3855 -0.5266  0.0341
    5MOL0     C  553  12.021  11.608   4.188 -0.5904 -0.1891  0.0232
    5MOL0     C  554  12.017  11.465   4.241 -0.6411 -0.2810  0.2149
    5MOL0     C  555  12.157  11.411   4.242 -0.1138  0.1050 -0.0796
    5MOL0     C  556  12.156  11.268   4.306 -0.0286 -0.1297  0.6760
    5MOL0     N  557  12.286  11.212   4.294  0.8828  0.1838  0.4307
    5MOL0     C  558  12.348  11.136   4.197  0.4185 -0.1183 -0.6950
    5MOL0     C  559  12.477  11.116   4.247  0.0266 -0.3131 -0.2947
    5MOL0     C  560  12.593  11.038   4.194 -0.4809 -0.1406  0.2652
    5MOL0     C  561  12.555  10.890   4.184  0.6631 -0.5531 -0.0471
    5MOL0     C  562  12.512  10.838   4.315 -0.3723 -1.0326 -0.7989
    5MOL0     C  563  12.629  10.839   4.423  0.9538  0.5256 -0.3904
    5MOL0     O  564  12.754  10.833   4.361 -0.4590 -0.3990  0.1136
    5MOL0     C  565  12.867  10.857   4.439  0.0641  0.1212 -1.4962
    5MOL0     C  566  12.864  10.886   4.572 -0.5459 -1.3362 -0.2956
    5MOL0     C  567  12.973  10.887   4.654 -0.8989  0.9894 -0.0354
    5MOL0     C  568  13.099  10.875   4.602  0.2862  1.1304 -0.2962
    5MOL0     C  569  13.219  10.866   4.691 -0.6537  1.1645 -0.1111
    5MOL0     O  570  13.199  10.850   4.823  0.5757  0.0959 -0.1047
    5MOL0     C  571  13.304  10.825   4.906  0.3550  0.1055 -1.0219
    5MOL0     C  572  13.432  10.779   4.881  0.4346 -0.7122 -0.2661
    5MOL0     C  573  13.511  10.761   4.994 -0.4040 -0.6194  0.3117
    5MOL0     C  574  13.469  10.791   5.124 -0.5112 -0.7372  0.0678
    5MOL0     O  575  13.547  10.759   5.232  0.1515  0.4462  0.0572
    5MOL0     C  576  13.690  10.790   5.208 -1.0074 -0.5955 -0.7823
    5MOL0     C  577  13.759  10.749   5.340 -0.5352  0.3305 -0.3106
    5MOL0     C  578  13.911  10.759   5.345  0.7379 -0.5298 -0.6008
    5MOL0     C  579  13.952  10.911   5.348  0.2047 -0.3858  0.0797
    5MOL0     C  580  13.933  10.961   5.491  0.6476  0.2176 -0.4522
    5MOL0     C  581  13.968  11.114   5.499  0.8340 -0.1170  0.6810
    5MOL0     C  582  13.978  11.182   5.646 -0.8392 -0.2931 -0.0846
    5MOL0     C  583  14.095  11.120   5.730 -0.7082 -0.7530  1.0998
    5MOL0    Cl  584  14.172  11.245   5.838  0.9130  0.0596  0.0804
    5MOL0     C  585  13.341  10.828   5.156  1.1912  0.5256 -0.5942
    5MOL0     C  586  13.259  10.840   5.038  0.5566 -0.8629 -0.3192
    5MOL0     O  587  13.325  10.863   4.628 -0.1762 -0.3703 -0.0274
    5MOL0     C  588  13.101  10.847   4.464 -0.3087 -0.3337  0.3569
    5MOL0     C  589  12.982  10.840   4.382 -0.4867  0.5694 -0.2675
    5MOL0     N  590  12.488  11.179   4.368 -0.4900 -0.5832 -0.0527
    5MOL0     N  591  12.376  11.231   4.392  0.1392 -0.3548  0.4140
    5MOL0     C  592  11.694  11.302   3.702  0.2215 -0.1088  0.1279
    5MOL0     C  593  11.614  11.191   3.683  0.1913 -0.2098 -0.9402
    5MOL0     C  594  11.246  10.943   3.617  0.7218  0.0198  0.4363
    5MOL0     C  595  11.281  10.842   3.711 -0.4767 -0.6806 -0.2138
    5MOL0     C  596  11.204  10.736   3.740  0.2218 -0.1996  0.7475
    5MOL0     C  597  11.090  10.707   3.663  0.2826 -0.8090 -0.0613
    5MOL0     O  598  11.012  10.604   3.712 -0.0888 -0.0551 -0.8570
    5MOL0     C  599  10.908  10.638   3.806 -0.2934 -0.0671 -0.5137
    5MOL0     C  600  10.779  10.705   3.748  0.6996 -0.2272 -0.0676
    5MOL0     C  601  10.714  10.620   3.638 -0.7232  0.6953 -0.5449
    5MOL0     C  602  10.596  10.686   3.566  0.1952 -0.2741 -0.3549
    5MOL0     C  603  10.655  10.791   3.483  0.0126  0.2145  0.3141
    5MOL0     C  604  10.681  10.881   3.401  0.3737  0.1139 -0.4871
    5MOL0     C  605  11.053  10.801   3.563 -0.7749  0.2934 -0.0274
    5MOL0     C  606  11.130  10.915   3.538  0.0743 -0.1014 -0.4963
    5MOL0     C  607  11.084  10.997   3.419 -0.2831  0.6158  0.3817
    5MOL0     H  608  11.340  11.273   3.880  1.5266  0.6880  1.9199
    5MOL0     H  609  11.477  11.494   3.899 -0.2911  1.0054 -1.5342
    5MOL0     H  610  11.740  11.725   3.758  3.7509 -1.1146  1.7510
    5MOL0     H  611  11.580  11.672   3.791  1.1006  3.2906 -0.0813
    5MOL0     H  612  11.656  11.565   4.022 -0.1036 -0.2661 -0.7728
    5MOL0     H  613  11.663  11.733   4.015 -1.3584 -2.2982  1.7930
    5MOL0     H  614  11.911  11.710   3.949 -0.8151  0.4831 -0.5939
    5MOL0     H  615  11.890  11.534   3.961  1.2538  0.6865 -0.2388
    5MOL0     H  616  11.858  11.753   4.182 -0.9690 -0.7844  0.1128
    5MOL0     H  617  11.814  11.582   4.218  0.7643  1.7663  3.2684
    5MOL0     H  618  12.069  11.625   4.092 -0.4399  0.3046  0.1854
    5MOL0     H  619  12.077  11.668   4.261  0.1766 -0.0635 -0.6571
    5MOL0     H  620  11.985  11.455   4.346 -0.6497 -0.7237  0.1720
    5MOL0     H  621  11.949  11.409   4.177 -0.2637  0.7156 -1.0963
    5MOL0     H  622  12.220  11.472   4.307  0.9132 -2.9714  2.0336
    5MOL0     H  623  12.193  11.410   4.139 -2.7753  1.6771 -1.1382
    5MOL0     H  624  12.139  11.283   4.413  2.0006  1.9339  0.7935
    5MOL0     H  625  12.093  11.199   4.250 -0.2945 -2.8167  4.0345
    5MOL0     H  626  12.295  11.093   4.113 -0.0877 -2.3570  0.6884
    5MOL0     H  627  12.614  11.069   4.092 -1.3413  1.9466  0.6676
    5MOL0     H  628  12.684  11.056   4.252  0.2064 -0.0526 -0.8152
    5MOL0     H  629  12.470  10.876   4.117 -0.5201 -0.6850  1.4067
    5MOL0     H  630  12.636  10.831   4.140  0.3533 -0.7373 -0.3673
    5MOL0     H  631  12.487  10.733   4.295 -0.1336 -0.9792 -1.3847
    5MOL0     H  632  12.423  10.897   4.341  0.8430  0.6340 -0.3077
    5MOL0     H  633  12.601  10.753   4.484 -2.1900  1.9293  0.3593
    5MOL0     H  634  12.623  10.928   4.485  0.1274 -1.3853  2.4617
    5MOL0     H  635  12.774  10.918   4.625  1.6911  3.3130  1.2664
    5MOL0     H  636  12.954  10.896   4.760 -1.9322  2.2553 -0.3058
    5MOL0     H  637  13.480  10.769   4.785 -0.6910  2.9772 -1.3922
    5MOL0     H  638  13.603  10.705   4.980  0.1902 -0.2331  2.4095
    5MOL0     H  639  13.746  10.723   5.143  2.8820  1.6949 -0.1105
    5MOL0     H  640  13.710  10.897   5.195  1.3612 -0.8141  0.5856
    5MOL0     H  641  13.703  10.801   5.418 -0.6646  1.1608 -0.9404
    5MOL0     H  642  13.732  10.644   5.356 -1.8218 -0.2477 -4.8593
    5MOL0     H  643  13.936  10.705   5.437 -1.2763 -0.2333  0.1676
    5MOL0     H  644  13.958  10.703   5.264  2.2162 -1.8951  1.1070
    5MOL0     H  645  13.893  10.974   5.281  2.2005 -0.6895 -2.1106
    5MOL0     H  646  14.055  10.939   5.324  0.6688  0.5217  2.7100
    5MOL0     H  647  13.983  10.893   5.562  0.3480 -1.0510 -1.4255
    5MOL0     H  648  13.826  10.963   5.510  0.4121 -0.5711 -1.6222
    5MOL0     H  649  14.064  11.120   5.447  1.5748  0.1086  2.0523
    5MOL0     H  650  13.898  11.177   5.443  0.2305 -0.5687  0.9169
    5MOL0     H  651  13.886  11.171   5.704 -0.4785  0.9120  0.7533
    5MOL0     H  652  14.003  11.288   5.640  1.7825 -0.8829 -1.2458
    5MOL0     H  653  14.052  11.035   5.784 -1.3901 -1.1605 -0.0555
    5MOL0     H  654  14.171  11.089   5.658 -1.9212 -0.5162 -0.3130
    5MOL0     H  655  13.306  10.853   5.255 -1.9336  0.1235 -1.4723
    5MOL0     H  656  13.153  10.860   5.047 -0.0521 -3.6458 -0.4376
    5MOL0     H  657  13.191  10.831   4.405  0.2576 -0.5524  1.2546
    5MOL0     H  658  12.998  10.834   4.275 -1.6114  3.4654 -0.6930
    5MOL0     H  659  11.794  11.295   3.661  0.1437 -0.9186  0.0553
    5MOL0     H  660  11.649  11.106   3.625 -1.5369 -2.5264  1.1714
    5MOL0     H  661  11.377  10.859   3.759  0.0229 -1.2332 -0.9952
    5MOL0     H  662  11.229  10.660   3.813 -3.2974 -1.4791  0.8063
    5MOL0     H  663  10.938  10.701   3.890 -4.2051 -2.3722  2.9902
    5MOL0     H  664  10.882  10.538   3.843 -0.5362  0.5757  1.1539
    5MOL0     H  665  10.812  10.800   3.705 -1.1668 -1.4134 -4.6648
    5MOL0     H  666  10.697  10.717   3.820 -0.3116  0.0965 -1.2378
    5MOL0     H  667  10.678  10.525   3.677 -1.0132  1.5507  1.4384
    5MOL0     H  668  10.789  10.599   3.561 -1.1942 -1.0609 -0.5485
    5MOL0     H  669  10.551  10.616   3.495  0.1628 -0.9961  0.3611
    5MOL0     H  670  10.527  10.721   3.643 -0.0183 -1.8381  0.1976
    5MOL0     H  671  10.697  10.952   3.322 -0.8743  2.3450  1.1507
    5MOL0     H  672  10.965  10.780   3.503  0.1216 -1.2629 -0.8507
    5MOL0     H  673  10.976  10.984   3.409 -1.0640  2.5529  4.2251
    5MOL0     H  674  11.103  11.102   3.444  0.4170  0.3783  0.8842
    5MOL0     H  675  11.150  10.964   3.338 -3.8719  0.7653 -2.8911
    6MOL0     O  676   3.997   7.380   8.322  0.1064  0.1407  0.1620
    6MOL0     C  677   3.968   7.275   8.276  0.8127 -0.6615 -0.1430
    6MOL0     O  678   4.034   7.162   8.302 -0.5522  0.3091  0.7180
    6MOL0     C  679   4.164   7.163   8.352  0.3108  0.1168 -0.3201
    6MOL0     C  680   4.264   7.231   8.287 -0.5696 -0.4417  0.1180
    6MOL0     C  681   4.389   7.227   8.347 -0.1198  0.0481 -0.2767
    6MOL0     C  682   4.410   7.157   8.462 -0.4178 -0.3293  0.3786
    6MOL0     O  683   4.530   7.143   8.524 -0.1626  0.2690  0.0999
    6MOL0     C  684   4.648   7.204   8.477 -0.3900  0.0761  0.2079
    6MOL0     C  685   4.750   7.192   8.577  0.6317  0.5984  0.1594
    6MOL0     C  686   4.864   7.281   8.535  0.6846  1.0547  0.0099
    6MOL0     C  687   4.989   7.244   8.616  0.6679 -0.7471  0.0090
    6MOL0     C  688   5.102   7.322   8.536  0.0419 -0.1231 -0.3203
    6MOL0     C  689   5.241   7.314   8.614  0.0160  0.2035  0.2781
    6MOL0     C  690   5.339   7.422   8.572  1.3022  0.6165 -0.1378
    6MOL0     C  691   5.458   7.464   8.663 -0.0543 -0.4251  1.0438
    6MOL0     N  692   5.547   7.554   8.592 -0.4046 -1.0176 -0.1329
    6MOL0     C  693   5.516   7.673   8.532  0.1205  0.4752  0.6974
    6MOL0     C  694   5.627   7.711   8.463  0.8664 -0.9971 -0.2971
    6MOL0     C  695   5.650   7.845   8.394  0.4601  1.1144  0.2896
    6MOL0     C  696   5.637   7.954   8.508  0.6155  0.7006 -0.1622
    6MOL0     C  697   5.676   8.085   8.445 -0.5192 -0.6774 -0.5296
    6MOL0     C  698   5.688   8.190   8.566  0.1733 -0.0154 -0.1839
    6MOL0     O  699   5.724   8.312   8.514 -0.5192 -0.6008 -0.3492
    6MOL0     C  700   5.722   8.416   8.600  0.5397 -0.0135  0.0266
    6MOL0     C  701   5.672   8.421   8.732 -0.6830  1.0775 -0.4480
    6MOL0     C  702   5.697   8.534   8.812 -0.2120  0.3614 -0.9071
    6MOL0     C  703   5.755   8.651   8.762 -0.5249  0.5954  0.7689
    6MOL0     C  704   5.773   8.779   8.848  0.8522  0.2300  0.3434
    6MOL0     O  705   5.773   8.893   8.765  0.5214 -0.3204 -1.0450
    6MOL0     C  706   5.795   9.024   8.811  1.2377 -0.4835  0.5575
    6MOL0     C  707   5.725   9.077   8.926  0.5582  0.0339  0.1158
    6MOL0     C  708   5.756   9.198   8.983 -0.2949 -0.6936  0.1937
    6MOL0     C  709   5.854   9.279   8.924  1.0729 -0.0492  0.0598
    6MOL0     O  710   5.891   9.401   8.979 -0.6809  0.0434 -0.4508
    6MOL0     C  711   5.915   9.409   9.115  0.0331  0.1358  0.2874
    6MOL0     C  712   6.071   9.387   9.129 -0.6038 -0.0392  1.0319
    6MOL0     C  713   6.119   9.407   9.275 -0.4527  0.3793  0.0965
    6MOL0     C  714   6.264   9.370   9.286  0.2448  0.8138  0.4543
    6MOL0     C  715   6.319   9.361   9.427 -1.5780  0.4042 -0.1269
    6MOL0     C  716   6.467   9.309   9.404 -0.4898  0.0215 -0.7600
    6MOL0     C  717   6.556   9.357   9.518 -0.5563  0.5025  0.1263
    6MOL0     C  718   6.699   9.335   9.480 -0.7568  0.0146  0.4919
    6MOL0    Cl  719   6.799   9.411   9.589  0.3531  0.4931 -0.3285
    6MOL0     C  720   5.901   9.235   8.800  0.0459 -0.4550 -0.4007
    6MOL0     C  721   5.878   9.108   8.748 -0.3435 -0.6255  0.5061
    6MOL0     O  722   5.796   8.778   8.972 -0.3385  0.1342 -0.2024
    6MOL0     C  723   5.791   8.645   8.624  0.4858  1.0001  0.5472
    6MOL0     C  724   5.773   8.530   8.545  0.6464 -0.3155 -1.3538
    6MOL0     N  725   5.721   7.605   8.476  0.3677 -0.6495 -0.7146
    6MOL0     N  726   5.666   7.508   8.544 -0.4552  0.2774 -0.6270
    6MOL0     C  727   4.317   7.073   8.511 -1.0436 -0.2026 -0.2720
    6MOL0     C  728   4.187   7.077   8.460 -0.5676 -1.0126 -0.0790
    6MOL0     C  729   3.829   7.283   8.208  0.1739 -0.2976  1.0462
    6MOL0     C  730   3.773   7.410   8.198 -0.0857 -0.0716 -0.4858
    6MOL0     C  731   3.650   7.425   8.148  0.0400 -0.4533  0.4614
    6MOL0     C  732   3.569   7.328   8.102 -0.1790 -0.5114 -0.4883
    6MOL0     O  733   3.438   7.368   8.070  0.5407  0.0848  0.1216
    6MOL0     C  734   3.339   7.273   8.021 -0.2144  0.6498  0.2594
    6MOL0     C  735   3.282   7.321   7.885 -0.9294  0.5038  0.3274
    6MOL0     C  736   3.202   7.229   7.795 -0.0371 -0.4115  0.9519
    6MOL0     C  737   3.265   7.092   7.742 -0.1273  0.4465  0.3876
    6MOL0     C  738   3.366   7.118   7.641 -0.3609  0.3663 -0.7424
    6MOL0     C  739   3.454   7.152   7.560 -0.1314  0.2544  0.0146
    6MOL0     C  740   3.626   7.199   8.107  0.2869  0.1237  0.1412
    6MOL0     C  741   3.752   7.172   8.156 -0.7265 -0.8924  0.4816
    6MOL0     C  742   3.803   7.034   8.148  0.3814 -0.9588  0.0003
    6MOL0     H  743   4.240   7.289   8.199  0.8979 -0.5492 -0.3807
    6MOL0     H  744   4.474   7.280   8.305  1.3018 -0.8998  1.3034
    6MOL0     H  745   4.667   7.157   8.380  0.3234  1.4863 -0.3763
    6MOL0     H  746   4.624   7.307   8.449 -2.5659 -0.8076 -1.4376
    6MOL0     H  747   4.775   7.086   8.570 -0.9914  0.3061 -3.9507
    6MOL0     H  748   4.720   7.229   8.676  3.8817  1.7341  0.8528
    6MOL0     H  749   4.837   7.387   8.543 -0.6851  0.7131  0.1391
    6MOL0     H  750   4.874   7.246   8.432  0.3812 -2.0948  0.9441
    6MOL0     H  751   4.979   7.291   8.713 -0.4040  0.7335 -0.7770
    6MOL0     H  752   5.005   7.136   8.611 -2.3946 -1.3930  1.5757
    6MOL0     H  753   5.119   7.276   8.439 -2.0157  1.8567 -1.7171
    6MOL0     H  754   5.074   7.428   8.530  1.6693  0.4378  1.0013
    6MOL0     H  755   5.216   7.329   8.719  3.3245  1.1635  1.0377
    6MOL0     H  756   5.273   7.210   8.605  0.8524  0.6029 -2.1074
    6MOL0     H  757   5.282   7.514   8.554  0.8754  0.6562  1.3354
    6MOL0     H  758   5.368   7.391   8.471 -0.2378 -0.3430 -0.3156
    6MOL0     H  759   5.430   7.519   8.753  1.2357  0.7884  0.7374
    6MOL0     H  760   5.516   7.374   8.682  2.3130  0.1631 -2.4152
    6MOL0     H  761   5.426   7.734   8.530 -0.2639 -0.0644 -1.6810
    6MOL0     H  762   5.750   7.842   8.350  0.6762 -1.5819  0.7802
    6MOL0     H  763   5.572   7.860   8.318  0.6619 -1.3872 -0.5186
    6MOL0     H  764   5.537   7.953   8.551  0.6774  2.4530  0.1206
    6MOL0     H  765   5.712   7.924   8.582 -1.0695 -1.5054  0.7597
    6MOL0     H  766   5.604   8.132   8.378  1.5844  1.9267 -1.1410
    6MOL0     H  767   5.769   8.079   8.387  1.1188 -1.0819  1.9776
    6MOL0     H  768   5.772   8.156   8.627 -1.1290 -0.7487  1.2731
    6MOL0     H  769   5.594   8.178   8.622  1.8653 -1.5996  2.5467
    6MOL0     H  770   5.621   8.336   8.776 -0.9995  1.8573  0.7520
    6MOL0     H  771   5.681   8.532   8.920 -0.6207  1.2672 -0.9392
    6MOL0     H  772   5.655   9.020   8.986  2.4870 -0.4935  1.9952
    6MOL0     H  773   5.708   9.231   9.074  1.2160 -1.3242  1.2545
    6MOL0     H  774   5.896   9.513   9.142 -1.6249 -0.5433  2.0344
    6MOL0     H  775   5.848   9.349   9.177 -2.4693  1.7734 -0.6784
    6MOL0     H  776   6.085   9.284   9.096 -0.3758  0.9269 -2.3716
    6MOL0     H  777   6.130   9.447   9.059  1.0515 -2.7933 -0.0736
    6MOL0     H  778   6.112   9.511   9.308  1.7319  0.6283 -0.0705
    6MOL0     H  779   6.054   9.346   9.338  0.4546 -0.8248 -0.0859
    6MOL0     H  780   6.328   9.433   9.225  2.2161 -2.5965 -1.3201
    6MOL0     H  781   6.271   9.278   9.226 -3.7053  2.2207 -2.5869
    6MOL0     H  782   6.272   9.280   9.483 -2.1526 -0.7043 -2.0845
    6MOL0     H  783   6.318   9.458   9.477  1.5480  0.8233 -0.6538
    6MOL0     H  784   6.471   9.200   9.402  0.4383  0.0505 -2.6320
    6MOL0     H  785   6.508   9.345   9.309 -0.7577  1.6387 -0.2876
    6MOL0     H  786   6.531   9.296   9.605 -1.5117 -2.9886 -2.3391
    6MOL0     H  787   6.533   9.462   9.539  1.3184  0.7325  1.1871
    6MOL0     H  788   6.729   9.230   9.489  1.7345  0.6252 -0.0493
    6MOL0     H  789   6.720   9.381   9.384  1.3907  1.4008  1.5492
    6MOL0     H  790   5.963   9.316   8.763  0.1595  0.9039  2.4708
    6MOL0     H  791   5.925   9.068   8.659 -0.2748 -0.5357  0.5022
    6MOL0     H  792   5.849   8.727   8.583 -0.2542  0.7393 -1.0816
    6MOL0     H  793   5.798   8.531   8.440  1.7057 -1.2938 -1.1379
    6MOL0     H  794   4.339   7.020   8.604  0.7493  2.5574  0.9960
    6MOL0     H  795   4.099   7.023   8.493 -3.3230  3.1561  0.1903
    6MOL0     H  796   3.823   7.500   8.234 -1.1415  0.2474  0.2647
    6MOL0     H  797   3.600   7.521   8.152 -3.0550 -1.8483 -1.1632
    6MOL0     H  798   3.263   7.264   8.098  0.1516  1.1447  0.6847
    6MOL0     H  799   3.395   7.182   7.998  1.1687  1.6862 -0.6345
    6MOL0     H  800   3.357   7.370   7.822 -1.8220  0.1728 -1.0354
    6MOL0     H  801   3.217   7.408   7.895 -0.4331  0.9313 -0.0784
    6MOL0     H  802   3.168   7.286   7.708  0.3486  2.3905  2.5310
    6MOL0     H  803   3.115   7.199   7.855 -1.0636 -1.2273 -0.8604
    6MOL0     H  804   3.300   7.042   7.833 -3.6944  0.7308  2.0656
    6MOL0     H  805   3.189   7.028   7.697  2.1746 -0.3807 -2.7400
    6MOL0     H  806   3.530   7.176   7.489  1.7468 -3.6292  0.4681
    6MOL0     H  807   3.564   7.115   8.080 -0.5093  0.4579  0.8830
    6MOL0     H  808   3.727   6.970   8.103  0.8034 -0.8577 -0.8755
    6MOL0     H  809   3.900   7.029   8.096  2.8176 -1.3901  4.1117
    6MOL0     H  810   3.813   6.995   8.250 -3.8150 -0.3026  0.8260
    7MOL0     O  811   1.671   4.461   3.984 -0.0409  0.1077  0.2187
    7MOL0     C  812   1.610   4.353   3.996 -0.3035 -0.4279  0.8570
    7MOL0     O  813   1.610   4.279   4.108 -0.3070  0.2839 -0.4162
    7MOL0     C  814   1.664   4.322   4.229 -0.9961 -0.1931  0.4254
    7MOL0     C  815   1.593   4.329   4.341 -0.0103 -0.6564 -0.6839
    7MOL0     C  816   1.657   4.380   4.457  0.0691 -0.0386 -0.1386
    7MOL0     C  817   1.795   4.415   4.453  0.3922  0.2364 -0.0811
    7MOL0     O  818   1.856   4.440   4.578 -0.0533  0.1925  0.1200
    7MOL0     C  819   1.943   4.554   4.582  0.7445  0.2813  0.1693
    7MOL0     C  820   1.991   4.570   4.719  0.2388 -0.6659  0.3654
    7MOL0     C  821   2.092   4.689   4.719  0.4001  0.8818 -0.1788
    7MOL0     C  822   2.149   4.705   4.856  0.4503  0.1293  0.3056
    7MOL0     C  823   2.230   4.841   4.849 -0.1934  0.4117  0.3980
    7MOL0     C  824   2.323   4.843   4.975  0.2198  0.7996  0.5103
    7MOL0     C  825   2.467   4.808   4.932 -0.1284 -0.6615  0.5900
    7MOL0     C  826   2.569   4.793   5.051 -0.3193  0.7301  0.2074
    7MOL0     N  827   2.694   4.723   5.007  0.0557 -0.0988  0.2764
    7MOL0     C  828   2.815   4.783   5.012  0.0868  0.0755  0.9927
    7MOL0     C  829   2.897   4.707   4.942 -0.1100  1.1455 -0.7264
    7MOL0     C  830   3.033   4.744   4.929 -1.1836  0.5980 -0.3556
    7MOL0     C  831   3.129   4.632   4.956 -0.7097 -0.7763  0.0223
    7MOL0     C  832   3.279   4.671   4.920 -0.2154 -0.3673  0.3318
    7MOL0     C  833   3.353   4.716   5.038 -0.2042 -0.4433 -0.4099
    7MOL0     O  834   3.460   4.788   4.997  0.4681  0.0529  0.0823
    7MOL0     C  835   3.577   4.715   4.957  0.0969 -0.0780  0.5111
    7MOL0     C  836   3.632   4.608   5.031  0.2936 -0.7290  0.1131
    7MOL0     C  837   3.742   4.545   4.999 -0.0741  0.4837 -1.3378
    7MOL0     C  838   3.813   4.583   4.883  0.1469 -0.1041  0.3890
    7MOL0     C  839   3.933   4.508   4.843  0.8138  0.2138  0.3858
    7MOL0     O  840   3.976   4.420   4.938 -0.4775 -0.1927  0.1358
    7MOL0     C  841   4.096   4.366   4.917  0.0366  0.2507  0.8375
    7MOL0     C  842   4.121   4.241   4.880  0.2004  0.1315  0.5985
    7MOL0     C  843   4.251   4.184   4.872  0.2605  0.3248 -0.6856
    7MOL0     C  844   4.366   4.258   4.892  0.4665 -0.4498  0.2210
    7MOL0     O  845   4.493   4.206   4.904 -0.0739  0.8116 -0.2458
    7MOL0     C  846   4.503   4.064   4.927  0.3241 -0.1789  0.1799
    7MOL0     C  847   4.483   4.017   5.070  0.0756  0.3532 -0.8405
    7MOL0     C  848   4.605   4.043   5.156  0.3693 -1.0230 -0.8493
    7MOL0     C  849   4.593   3.999   5.298 -0.4341  0.2060 -0.7761
    7MOL0     C  850   4.719   4.044   5.375 -0.5428  0.3373 -0.6956
    7MOL0     C  851   4.851   3.972   5.352  0.3023  0.2319 -0.0519
    7MOL0     C  852   4.952   3.988   5.465 -0.3119 -0.3744 -0.6004
    7MOL0     C  853   5.091   3.928   5.435 -0.7042  0.0805 -0.1954
    7MOL0    Cl  854   5.189   4.026   5.311 -0.1483 -0.0117 -0.2387
    7MOL0     C  855   4.342   4.389   4.934 -0.1183  1.0716 -0.3476
    7MOL0     C  856   4.210   4.445   4.947  0.9227  0.6085 -0.9831
    7MOL0     O  857   3.978   4.529   4.733  0.2738  0.5349  0.3700
    7MOL0     C  858   3.754   4.689   4.807 -0.2192  0.8111  0.2549
    7MOL0     C  859   3.639   4.754   4.840 -0.2017  0.4197  0.1745
    7MOL0     N  860   2.826   4.600   4.893  0.6586 -0.4125  0.6131
    7MOL0     N  861   2.704   4.614   4.934  0.9798  0.8289 -0.1176
    7MOL0     C  862   1.867   4.400   4.330 -0.4859 -0.1006 -0.0293
    7MOL0     C  863   1.802   4.347   4.219  0.4020 -0.0886 -0.3624
    7MOL0     C  864   1.553   4.289   3.877  0.4712  0.4676  0.5719
    7MOL0     C  865   1.445   4.206   3.892  0.2576  0.6615  0.8388
    7MOL0     C  866   1.388   4.146   3.785  0.5720 -0.7022  0.7753
    7MOL0     C  867   1.431   4.168   3.648 -0.7218 -0.3402  0.5724
    7MOL0     O  868   1.381   4.109   3.539  0.9694  0.4877  0.7866
    7MOL0     C  869   1.275   4.013   3.549 -0.1250  0.2526 -0.5121
    7MOL0     C  870   1.333   3.873   3.583 -0.4580 -0.7364  0.2880
    7MOL0     C  871   1.229   3.782   3.643  0.1444 -0.0773 -0.5119
    7MOL0     C  872   1.122   3.735   3.540 -0.0334  0.2590 -0.1198
    7MOL0     C  873   1.192   3.644   3.442  0.2341 -0.4357 -0.4359
    7MOL0     C  874   1.229   3.554   3.365  0.1158 -0.4076  0.6325
    7MOL0     C  875   1.541   4.245   3.635 -0.2558  0.4694  0.2993
    7MOL0     C  876   1.601   4.312   3.745 -0.1147 -1.1430  0.0435
    7MOL0     C  877   1.729   4.395   3.707  0.4029 -0.1552 -0.3966
    7MOL0     H  878   1.492   4.290   4.353 -1.5564  2.5485 -2.1367
    7MOL0     H  879   1.606   4.369   4.552  1.4566  0.3507  0.6897
    7MOL0     H  880   2.025   4.533   4.513  0.5845 -2.5607  0.7342
    7MOL0     H  881   1.897   4.650   4.556  3.1918  0.5173 -4.2906
    7MOL0     H  882   2.054   4.483   4.741  0.2082 -0.8578 -0.2984
    7MOL0     H  883   1.909   4.584   4.790  1.3655  0.9947  1.4210
    7MOL0     H  884   2.034   4.776   4.686  0.5655  1.9414  2.1023
    7MOL0     H  885   2.180   4.680   4.655  0.8672 -1.1912  0.6874
    7MOL0     H  886   2.073   4.704   4.935  0.2113  0.2758  0.0762
    7MOL0     H  887   2.223   4.630   4.887  0.3311  1.1680  3.5133
    7MOL0     H  888   2.296   4.841   4.762  0.9354  1.1629  1.2276
    7MOL0     H  889   2.161   4.925   4.842  0.8966  1.2547 -0.6234
    7MOL0     H  890   2.314   4.938   5.028  1.6213  0.6585  1.0383
    7MOL0     H  891   2.290   4.767   5.046  1.4400 -3.1077 -2.6955
    7MOL0     H  892   2.492   4.888   4.862 -1.7878 -0.7636 -0.1445
    7MOL0     H  893   2.482   4.719   4.870 -1.3516 -3.1842  3.6646
    7MOL0     H  894   2.597   4.889   5.095  2.8019 -0.9883  2.4256
    7MOL0     H  895   2.529   4.727   5.129 -2.2233  1.9290  0.2988
    7MOL0     H  896   2.837   4.880   5.057 -0.9850  1.0578 -0.4832
    7MOL0     H  897   3.045   4.773   4.824 -0.6012  1.1490 -0.1399
    7MOL0     H  898   3.052   4.829   4.995  1.9258  1.7004 -2.4430
    7MOL0     H  899   3.124   4.598   5.059  0.8051  0.4800  0.5357
    7MOL0     H  900   3.100   4.548   4.891 -1.9679  0.6080 -1.2935
    7MOL0     H  901   3.269   4.757   4.852  0.4053 -0.8244 -0.3510
    7MOL0     H  902   3.336   4.587   4.880  0.1369  0.9017 -2.0388
    7MOL0     H  903   3.367   4.639   5.115 -1.7042 -1.9719 -1.5757
    7MOL0     H  904   3.285   4.789   5.082  1.2291  1.4157 -1.1734
    7MOL0     H  905   3.578   4.576   5.119 -0.7951 -3.5336 -1.4175
    7MOL0     H  906   3.765   4.460   5.062  0.5311  0.9925 -0.8575
    7MOL0     H  907   4.035   4.178   4.858  1.9168 -2.0797 -0.2091
    7MOL0     H  908   4.251   4.079   4.842  3.5512 -0.2178  0.7665
    7MOL0     H  909   4.442   4.003   4.860 -1.9038 -0.2993  2.1992
    7MOL0     H  910   4.603   4.034   4.893  0.0001 -1.1359  0.0595
    7MOL0     H  911   4.390   4.059   5.108 -1.1407  0.0675 -3.2798
    7MOL0     H  912   4.462   3.910   5.060 -0.2886  0.3340  0.0800
    7MOL0     H  913   4.693   4.007   5.102  0.9412 -1.2743  0.2360
    7MOL0     H  914   4.615   4.151   5.165  1.8201 -0.8792 -3.2264
    7MOL0     H  915   4.586   3.891   5.306 -1.9863 -0.0073 -3.6559
    7MOL0     H  916   4.505   4.049   5.340  0.1196  1.9275 -1.5636
    7MOL0     H  917   4.699   4.033   5.482 -2.6503 -1.6699 -1.2208
    7MOL0     H  918   4.726   4.152   5.361 -3.4176  0.7615  0.4464
    7MOL0     H  919   4.843   3.864   5.334 -0.3687  0.3663 -0.5636
    7MOL0     H  920   4.905   4.003   5.263  1.2868 -1.0637  0.0601
    7MOL0     H  921   4.923   3.945   5.560  3.1498  1.4267  1.4864
    7MOL0     H  922   4.968   4.095   5.484 -1.0202 -0.3056 -0.3608
    7MOL0     H  923   5.149   3.927   5.528 -1.0719  0.9369  0.0482
    7MOL0     H  924   5.076   3.826   5.397 -1.9839 -0.7384  2.2651
    7MOL0     H  925   4.429   4.449   4.959  0.1534 -0.3143  2.4162
    7MOL0     H  926   4.203   4.547   4.983 -1.9684 -1.0570  4.2817
    7MOL0     H  927   3.803   4.732   4.720  0.7941 -0.0077  0.4019
    7MOL0     H  928   3.610   4.844   4.786  3.0442  0.9728 -0.8782
    7MOL0     H  929   1.971   4.432   4.323 -0.3096 -0.5613  0.4020
    7MOL0     H  930   1.853   4.318   4.128 -2.0164 -3.4770 -0.8429
    7MOL0     H  931   1.388   4.188   3.983 -0.2514 -1.0259  0.2262
    7MOL0     H  932   1.303   4.081   3.802 -2.7840  2.2500 -2.8588
    7MOL0     H  933   1.213   4.010   3.459 -0.7697  2.7471 -0.2194
    7MOL0     H  934   1.195   4.040   3.619  2.2748 -0.0827  2.5510
    7MOL0     H  935   1.412   3.891   3.656  0.6217 -1.1903 -0.7390
    7MOL0     H  936   1.386   3.823   3.501  0.1505  0.5927 -0.1603
    7MOL0     H  937   1.169   3.844   3.711  3.4048  2.3380  0.4418
    7MOL0     H  938   1.281   3.695   3.685 -3.3715 -2.9634 -1.6621
    7MOL0     H  939   1.046   3.673   3.587  1.3067  1.0955  3.4583
    7MOL0     H  940   1.069   3.813   3.486 -1.9876 -1.4345 -0.7875
    7MOL0     H  941   1.260   3.463   3.316 -2.5112  0.2349 -2.5349
    7MOL0     H  942   1.593   4.267   3.542  0.2506  0.0277  0.4642
    7MOL0     H  943   1.720   4.501   3.732  3.1480  0.2424 -0.7355
    7MOL0     H  944   1.814   4.366   3.770 -1.1615 -0.1258  1.8815
    7MOL0     H  945   1.759   4.391   3.602  0.8282  0.4464 -0.3050
    8MOL0     O  946   0.253   8.253   1.832 -1.1100 -0.0830  0.2707
    8MOL0     C  947   0.257   8.323   1.732 -0.8390  0.3490 -0.1134
    8MOL0     O  948   0.367   8.364   1.653  0.6040  0.5019 -0.3563
    8MOL0     C  949   0.493   8.356   1.716  0.0519 -0.1450  0.8779
    8MOL0     C  950   0.533   8.414   1.837  1.0557 -0.2482 -0.4749
    8MOL0     C  951   0.663   8.394   1.874 -1.5287 -0.9177  0.0201
    8MOL0     C  952   0.757   8.321   1.806  0.0426 -0.4866  0.3723
    8MOL0     O  953   0.896   8.300   1.849  0.7159 -0.3721  0.2727
    8MOL0     C  954   0.941   8.381   1.957 -0.2180  0.2842 -0.3251
    8MOL0     C  955   1.078   8.324   1.985 -0.3718  0.1691 -0.4160
    8MOL0     C  956   1.147   8.406   2.092  0.5757 -0.1980  0.7591
    8MOL0     C  957   1.243   8.323   2.176  0.0730 -0.5633  0.4579
    8MOL0     C  958   1.335   8.245   2.085 -0.2822 -0.2089 -0.0204
    8MOL0     C  959   1.444   8.169   2.166 -1.2029  0.5328  0.6128
    8MOL0     C  960   1.539   8.109   2.071  0.2719  0.0774  0.0776
    8MOL0     C  961   1.485   8.014   1.959  0.8037  0.6764  0.4080
    8MOL0     N  962   1.562   7.885   1.945 -0.4745 -0.2772  0.5159
    8MOL0     C  963   1.607   7.834   1.823 -0.3473 -0.8293  0.0957
    8MOL0     C  964   1.660   7.711   1.845  0.2885  0.7793 -0.7360
    8MOL0     C  965   1.691   7.611   1.740  0.1434  0.3145  0.5568
    8MOL0     C  966   1.762   7.489   1.794  0.4036 -0.8649 -0.2420
    8MOL0     C  967   1.814   7.408   1.681  0.4101 -1.1774  0.3865
    8MOL0     C  968   1.950   7.458   1.626  0.5843  0.1007 -0.5526
    8MOL0     O  969   1.974   7.379   1.509  0.2537  0.5546 -0.1235
    8MOL0     C  970   2.090   7.394   1.432 -0.3049 -0.3026 -0.7716
    8MOL0     C  971   2.209   7.446   1.486 -0.3815  0.3571 -0.4235
    8MOL0     C  972   2.325   7.466   1.415  0.4015 -0.3641 -0.4405
    8MOL0     C  973   2.333   7.421   1.286 -0.1405  0.5677 -0.4049
    8MOL0     C  974   2.454   7.441   1.210 -0.8403  0.6088  0.5786
    8MOL0     O  975   2.537   7.533   1.266  0.5062 -0.1532 -0.3196
    8MOL0     C  976   2.661   7.565   1.216 -0.5519 -0.3069  0.2648
    8MOL0     C  977   2.707   7.551   1.087 -0.3680 -1.1296  1.0109
    8MOL0     C  978   2.837   7.593   1.044 -0.6023  0.1204 -0.3113
    8MOL0     C  979   2.931   7.643   1.132  0.8057  0.3058 -0.1301
    8MOL0     O  980   3.059   7.675   1.092 -1.2085 -0.4381 -0.2475
    8MOL0     C  981   3.119   7.800   1.135 -0.1513 -0.7596 -0.2128
    8MOL0     C  982   3.196   7.803   1.267  0.1546  0.4286  0.2176
    8MOL0     C  983   3.177   7.923   1.352  0.0319 -0.0316 -0.0198
    8MOL0     C  984   3.271   8.034   1.321 -0.1236 -0.6161  0.0896
    8MOL0     C  985   3.253   8.167   1.406  0.2081 -0.5120  0.8571
    8MOL0     C  986   3.306   8.137   1.553 -0.6923  0.1190 -0.0437
    8MOL0     C  987   3.313   8.261   1.643  0.3440  0.1639 -0.7689
    8MOL0     C  988   3.345   8.216   1.784  0.0815  0.0652  0.4196
    8MOL0    Cl  989   3.350   8.364   1.885 -0.0076  0.5506  0.0902
    8MOL0     C  990   2.881   7.660   1.268  0.2949 -0.2260  0.4438
    8MOL0     C  991   2.752   7.626   1.309 -0.2151 -0.0731  1.0472
    8MOL0     O  992   2.471   7.368   1.108 -0.5884 -0.2260 -0.0646
    8MOL0     C  993   2.216   7.364   1.230 -0.7006 -0.5601 -0.0227
    8MOL0     C  994   2.100   7.352   1.296  0.0118  0.0788 -0.9117
    8MOL0     N  995   1.648   7.686   1.982  0.0610 -0.2245 -0.1137
    8MOL0     N  996   1.593   7.794   2.031 -0.1312  0.0054  1.3634
    8MOL0     C  997   0.709   8.259   1.687 -0.3310 -0.8820 -0.6685
    8MOL0     C  998   0.583   8.283   1.642  0.1992 -0.2646 -0.1934
    8MOL0     C  999   0.125   8.346   1.667 -0.0385  0.5218 -0.0945
    8MOL0     C 1000   0.112   8.297   1.538 -0.5558 -0.6842  0.5150
    8MOL0     C 1001   0.017   8.357   1.454 -0.3304 -0.4358  0.8539
    8MOL0     C 1002  -0.097   8.413   1.513  0.2969 -0.6780 -0.6155
    8MOL0     O 1003  -0.210   8.441   1.447  0.3111  0.2137 -0.3085
    8MOL0     C 1004  -0.320   8.348   1.469 -0.2044 -0.9946  0.0308
    8MOL0     C 1005  -0.451   8.386   1.402  0.5956 -0.3131  0.3808
    8MOL0     C 1006  -0.501   8.515   1.471  0.4704 -0.0371  0.0702
    8MOL0     C 1007  -0.567   8.497   1.611  0.4100 -0.0197  0.0962
    8MOL0     C 1008  -0.579   8.620   1.691  0.5227 -0.1917 -1.0091
    8MOL0     C 1009  -0.577   8.726   1.755  0.2322 -0.4688 -0.4309
    8MOL0     C 1010  -0.099   8.435   1.659 -1.1214  0.8206 -0.1887
    8MOL0     C 1011   0.010   8.397   1.740 -0.7574 -0.3102  0.3595
    8MOL0     C 1012   0.025   8.443   1.879 -0.3611 -0.2166 -0.3267
    8MOL0     H 1013   0.467   8.469   1.903 -0.7613 -0.8464 -1.7137
    8MOL0     H 1014   0.675   8.446   1.968 -2.5935 -0.5205 -0.0560
    8MOL0     H 1015   0.965   8.484   1.927  4.1778 -0.0566  1.2138
    8MOL0     H 1016   0.881   8.379   2.048  0.5072 -0.3678  0.1488
    8MOL0     H 1017   1.124   8.326   1.886  1.3162  0.8718  0.3363
    8MOL0     H 1018   1.062   8.217   2.005 -2.0288 -0.3973 -4.0309
    8MOL0     H 1019   1.072   8.442   2.163  0.4344 -1.5996  1.3641
    8MOL0     H 1020   1.208   8.480   2.039  2.2953 -3.3435 -2.0751
    8MOL0     H 1021   1.287   8.394   2.246 -0.6680 -0.3067  0.6728
    8MOL0     H 1022   1.191   8.251   2.240 -0.0351 -2.0615 -1.2088
    8MOL0     H 1023   1.283   8.176   2.019  0.5500 -1.4577  0.5782
    8MOL0     H 1024   1.379   8.326   2.025  1.6713  1.9740  3.9447
    8MOL0     H 1025   1.491   8.242   2.233 -3.1738  1.1405  1.3986
    8MOL0     H 1026   1.387   8.096   2.223 -3.6289 -1.3582 -3.8018
    8MOL0     H 1027   1.622   8.057   2.122 -0.7243 -2.2278 -0.5218
    8MOL0     H 1028   1.599   8.184   2.019 -1.1574 -0.0633 -1.8889
    8MOL0     H 1029   1.386   7.979   1.990 -0.6235  1.6269 -2.7326
    8MOL0     H 1030   1.471   8.074   1.869 -0.6847  0.7673  0.6759
    8MOL0     H 1031   1.583   7.881   1.728 -0.4364  1.9080  1.3717
    8MOL0     H 1032   1.599   7.583   1.689 -0.1183 -2.0014  2.1744
    8MOL0     H 1033   1.756   7.652   1.662 -0.0826 -1.0401 -0.3775
    8MOL0     H 1034   1.847   7.519   1.857  2.1393 -4.1199 -0.8066
    8MOL0     H 1035   1.696   7.428   1.856 -0.0744 -1.3627 -1.2346
    8MOL0     H 1036   1.747   7.419   1.596  0.0254  1.9879  0.9638
    8MOL0     H 1037   1.827   7.306   1.717 -0.0594 -2.4931 -2.8800
    8MOL0     H 1038   2.027   7.418   1.694 -0.8247 -1.5360  0.1450
    8MOL0     H 1039   1.958   7.566   1.611 -1.0325  0.1643 -1.1087
    8MOL0     H 1040   2.216   7.492   1.584  2.7456 -1.2253  0.2094
    8MOL0     H 1041   2.398   7.515   1.478 -1.7984 -0.8446  2.7556
    8MOL0     H 1042   2.647   7.497   1.016 -0.0650 -0.2189  0.0380
    8MOL0     H 1043   2.863   7.579   0.939  2.5615 -2.3089  0.6252
    8MOL0     H 1044   3.181   7.833   1.051  0.1069 -1.5184 -0.3313
    8MOL0     H 1045   3.039   7.874   1.135 -1.6434 -2.2146 -2.6832
    8MOL0     H 1046   3.165   7.708   1.312  1.7098 -0.5338 -0.6306
    8MOL0     H 1047   3.303   7.790   1.245  0.6875  2.2798  1.4290
    8MOL0     H 1048   3.071   7.949   1.346 -0.0028  0.2199  1.3434
    8MOL0     H 1049   3.184   7.898   1.458 -2.6967 -0.3208  0.1682
    8MOL0     H 1050   3.266   8.060   1.215 -0.5813  0.9313  0.4542
    8MOL0     H 1051   3.372   7.995   1.337 -0.4812 -2.0102 -0.9147
    8MOL0     H 1052   3.147   8.192   1.408  0.0012 -1.2656  0.0828
    8MOL0     H 1053   3.302   8.248   1.351 -3.2191  0.1027 -1.6191
    8MOL0     H 1054   3.242   8.060   1.598  0.0886 -0.2498  0.4595
    8MOL0     H 1055   3.407   8.098   1.543  0.5765  2.9501  0.9134
    8MOL0     H 1056   3.215   8.310   1.646  0.1755 -0.1530 -0.9938
    8MOL0     H 1057   3.377   8.335   1.594  0.9272  0.1503 -0.0241
    8MOL0     H 1058   3.272   8.144   1.822  0.5382 -1.6238 -1.6654
    8MOL0     H 1059   3.447   8.179   1.779  1.4391  3.3564  1.4072
    8MOL0     H 1060   2.959   7.687   1.339 -2.0756  2.0511  2.4175
    8MOL0     H 1061   2.708   7.665   1.401 -1.3479 -0.6306  0.7686
    8MOL0     H 1062   2.215   7.328   1.127  3.6909  1.9300 -1.2175
    8MOL0     H 1063   2.016   7.300   1.252 -0.4733 -0.0473  0.1322
    8MOL0     H 1064   0.787   8.198   1.642  0.3614  0.2664 -1.0728
    8MOL0     H 1065   0.559   8.241   1.544  3.4606 -0.7735 -0.8759
    8MOL0     H 1066   0.200   8.248   1.498 -0.4076 -0.9796  1.1763
    8MOL0     H 1067   0.005   8.339   1.348  0.8184  0.8652  0.4759
    8MOL0     H 1068  -0.335   8.336   1.577 -2.0910  1.2383  0.0988
    8MOL0     H 1069  -0.292   8.256   1.417 -0.8702  0.0643 -2.3401
    8MOL0     H 1070  -0.523   8.305   1.409  2.8152 -2.9003 -3.1818
    8MOL0     H 1071  -0.433   8.406   1.296 -2.1594  2.6074  0.3220
    8MOL0     H 1072  -0.568   8.575   1.409 -0.9084 -0.2530  1.2858
    8MOL0     H 1073  -0.411   8.575   1.488  0.0818  0.8127 -0.7852
    8MOL0     H 1074  -0.660   8.439   1.610  0.9103 -0.8480 -1.7383
    8MOL0     H 1075  -0.502   8.438   1.677 -0.8303 -1.1943  0.3175
    8MOL0     H 1076  -0.572   8.817   1.812  3.7373 -0.9123  0.1933
    8MOL0     H 1077  -0.190   8.465   1.710  0.2217 -1.2163  3.8874
    8MOL0     H 1078  -0.072   8.491   1.895  0.7565  1.2806  2.6972
    8MOL0     H 1079   0.034   8.360   1.950 -0.3659 -1.5628 -1.8168
    8MOL0     H 1080   0.102   8.519   1.895  0.1230 -0.9055  0.7624
    9MOL0     O 1081   7.909   8.383  10.529 -0.2787 -0.7450 -0.4942
    9MOL0     C 1082   7.871   8.335  10.635 -0.2472 -0.0006 -0.0086
    9MOL0     O 1083   7.943   8.322  10.749  0.1757  0.7011 -0.2467
    9MOL0     C 1084   8.077   8.308  10.746  0.1264 -0.7843 -0.7398
    9MOL0     C 1085   8.142   8.337  10.870 -0.4847  0.7281 -0.3801
    9MOL0     C 1086   8.283   8.312  10.889  0.5994 -1.0176 -0.4470
    9MOL0     C 1087   8.374   8.292  10.783  0.0095  0.2120 -0.0135
    9MOL0     O 1088   8.509   8.297  10.783 -0.0093  1.1344  0.3631
    9MOL0     C 1089   8.561   8.355  10.902 -0.0309  0.4406  0.3293
    9MOL0     C 1090   8.697   8.411  10.861 -0.2842 -0.0330  0.0792
    9MOL0     C 1091   8.760   8.520  10.958  0.3789 -0.1735 -0.3580
    9MOL0     C 1092   8.883   8.561  10.884  0.6700  0.1933 -0.1968
    9MOL0     C 1093   8.956   8.674  10.963 -0.4141  0.2713 -0.2004
    9MOL0     C 1094   9.090   8.721  10.902 -0.3236 -1.1553 -0.8690
    9MOL0     C 1095   9.161   8.810  11.004  0.2169 -0.1894 -0.6084
    9MOL0     C 1096   9.309   8.834  10.976 -0.0468  0.4780  0.8767
    9MOL0     N 1097   9.397   8.710  10.992 -0.1779  0.5675 -0.4877
    9MOL0     C 1098   9.539   8.717  10.998 -0.2050 -0.6191  0.3714
    9MOL0     C 1099   9.575   8.594  11.048  0.4175 -1.2238  0.5725
    9MOL0     C 1100   9.712   8.554  11.084  0.0996  0.0764  0.0544
    9MOL0     C 1101   9.736   8.408  11.047  0.6017  0.4532 -0.2791
    9MOL0     C 1102   9.875   8.362  11.092 -0.4144 -0.2320  0.6597
    9MOL0     C 1103   9.993   8.425  11.016  0.2749 -0.1542  0.1227
    9MOL0     O 1104  10.114   8.360  11.052  0.3359 -0.6117  0.2061
    9MOL0     C 1105  10.238   8.403  11.007 -0.0611  0.6605  0.6532
    9MOL0     C 1106  10.353   8.374  11.078  0.6438 -0.4275  0.5590
    9MOL0     C 1107  10.476   8.413  11.032 -1.0628  0.5390 -0.4010
    9MOL0     C 1108  10.484   8.490  10.919 -0.0016  0.7361  0.8485
    9MOL0     C 1109  10.612   8.517  10.853  0.2922  0.5947 -0.4046
    9MOL0     O 1110  10.723   8.457  10.904  0.4051  0.0292  0.3378
    9MOL0     C 1111  10.843   8.522  10.878 -0.2172  0.2682 -0.0097
    9MOL0     C 1112  10.884   8.646  10.914 -0.3733  0.0411  0.1842
    9MOL0     C 1113  11.014   8.690  10.905 -0.7870  0.1187  0.0197
    9MOL0     C 1114  11.116   8.612  10.846  0.2033  0.4918  0.5338
    9MOL0     O 1115  11.237   8.667  10.832 -0.6042 -0.7290 -0.7407
    9MOL0     C 1116  11.343   8.573  10.818 -0.1329  0.5677 -0.2140
    9MOL0     C 1117  11.372   8.534  10.669  0.6310 -0.5088 -0.4876
    9MOL0     C 1118  11.458   8.643  10.605  0.1029  0.7010  0.6288
    9MOL0     C 1119  11.509   8.589  10.465  0.9086  0.3163  0.1394
    9MOL0     C 1120  11.573   8.700  10.376  0.9300  0.6827  0.3729
    9MOL0     C 1121  11.586   8.653  10.232  0.1319  0.3710 -0.2051
    9MOL0     C 1122  11.649   8.759  10.139  0.0085 -0.4293  0.4115
    9MOL0     C 1123  11.647   8.731   9.989  0.5114  0.8180 -0.6100
    9MOL0    Cl 1124  11.735   8.870   9.909 -0.0228  0.4029 -0.4280
    9MOL0     C 1125  11.073   8.487  10.799  0.1896  1.3758 -0.0085
    9MOL0     C 1126  10.941   8.441  10.818 -0.0857 -0.0527 -0.8978
    9MOL0     O 1127  10.617   8.588  10.750  0.2346  0.7685 -0.0255
    9MOL0     C 1128  10.363   8.519  10.848  0.0462 -0.5074  0.0108
    9MOL0     C 1129  10.249   8.469  10.888  0.1451  1.0225  0.4951
    9MOL0     N 1130   9.460   8.518  11.048 -0.4301  0.2057  0.3808
    9MOL0     N 1131   9.356   8.581  11.006  0.1167  0.3697  0.6173
    9MOL0     C 1132   8.312   8.285  10.659  1.1703 -0.3003 -0.2080
    9MOL0     C 1133   8.171   8.284  10.643 -0.4409  0.2043  0.8349
    9MOL0     C 1134   7.730   8.286  10.649  0.3239  0.8643 -0.2339
    9MOL0     C 1135   7.638   8.328  10.555  0.0223  0.2056 -0.1713
    9MOL0     C 1136   7.498   8.303  10.569 -0.3103  1.3783  0.0883
    9MOL0     C 1137   7.453   8.222  10.675 -0.6725  0.7763  0.3945
    9MOL0     O 1138   7.321   8.202  10.708  0.1826  0.0368  0.2900
    9MOL0     C 1139   7.231   8.202  10.605 -0.0467 -0.0457 -0.0347
    9MOL0     C 1140   7.242   8.079  10.511  0.2189  0.6027  1.0019
    9MOL0     C 1141   7.128   8.085  10.401 -0.2604 -0.1289  0.0801
    9MOL0     C 1142   7.146   7.986  10.295  1.4079  0.3036 -0.2077
    9MOL0     C 1143   7.101   7.850  10.337  0.0708  0.1447  0.5566
    9MOL0     C 1144   7.048   7.745  10.366 -0.1435  0.7430  0.2253
    9MOL0     C 1145   7.547   8.166  10.754  0.6789 -0.0281 -0.0062
    9MOL0     C 1146   7.687   8.190  10.745  0.0065 -0.4518 -1.0240
    9MOL0     C 1147   7.778   8.121  10.839  0.9572 -0.2825  0.2232
    9MOL0     H 1148   8.077   8.358  10.954 -1.0701 -0.2962 -0.5597
    9MOL0     H 1149   8.325   8.348  10.982  1.2527 -2.2375 -0.2542
    9MOL0     H 1150   8.501   8.445  10.920 -0.1428  0.1778  1.3299
    9MOL0     H 1151   8.570   8.285  10.986  1.9044 -1.4398 -1.3198
    9MOL0     H 1152   8.699   8.447  10.758  3.0223 -1.3453 -0.4495
    9MOL0     H 1153   8.758   8.320  10.849  0.4697  0.5855 -0.8525
    9MOL0     H 1154   8.779   8.477  11.056 -2.1435  0.3997  0.4517
    9MOL0     H 1155   8.690   8.601  10.981 -0.2331 -0.5594 -0.8280
    9MOL0     H 1156   8.957   8.484  10.865  1.5771  1.1399 -0.5989
    9MOL0     H 1157   8.863   8.589  10.780  0.5378  1.3411  0.1183
    9MOL0     H 1158   8.891   8.761  10.980  0.9932  1.2799  0.1286
    9MOL0     H 1159   8.977   8.636  11.063  0.2258 -2.0034 -1.1393
    9MOL0     H 1160   9.151   8.632  10.882  0.0472 -1.6557  2.0090
    9MOL0     H 1161   9.072   8.780  10.812 -0.3904 -1.5594 -1.1249
    9MOL0     H 1162   9.163   8.761  11.102  2.4111  3.1496  1.2138
    9MOL0     H 1163   9.107   8.905  11.011  3.5097  1.7542  1.6416
    9MOL0     H 1164   9.321   8.868  10.873  2.3053 -2.8529 -0.1396
    9MOL0     H 1165   9.348   8.909  11.045  1.9809 -1.0211  1.4769
    9MOL0     H 1166   9.606   8.798  10.971 -2.4889  1.7904  1.4969
    9MOL0     H 1167   9.791   8.623  11.055  0.1307 -0.0353 -0.1292
    9MOL0     H 1168   9.714   8.560  11.193 -4.3921 -1.2505  0.4186
    9MOL0     H 1169   9.664   8.339  11.091  0.7990  0.8509  0.7021
    9MOL0     H 1170   9.728   8.405  10.938 -0.7870 -0.7002 -0.1711
    9MOL0     H 1171   9.889   8.257  11.068 -1.6994 -0.2192 -0.2561
    9MOL0     H 1172   9.890   8.373  11.200 -1.6090 -1.4297  0.9724
    9MOL0     H 1173   9.992   8.533  11.033 -4.5469 -0.0923  0.7512
    9MOL0     H 1174   9.982   8.413  10.908 -1.1295 -0.3916  0.2788
    9MOL0     H 1175  10.351   8.314  11.168 -1.4224 -2.5822 -0.8040
    9MOL0     H 1176  10.566   8.394  11.090 -1.0638  0.5381 -0.4003
    9MOL0     H 1177  10.826   8.722  10.965  1.2683  1.6097 -0.1922
    9MOL0     H 1178  11.036   8.791  10.938 -4.7517  0.7972  1.0871
    9MOL0     H 1179  11.438   8.605  10.861  0.9446 -2.7346  0.1803
    9MOL0     H 1180  11.317   8.479  10.868 -0.9409  1.4815  1.1729
    9MOL0     H 1181  11.423   8.438  10.664 -0.3089 -1.1119  0.9414
    9MOL0     H 1182  11.280   8.521  10.611  0.0601  0.8896  0.0572
    9MOL0     H 1183  11.391   8.729  10.590 -0.7000 -0.3453 -2.4600
    9MOL0     H 1184  11.544   8.672  10.666  1.7683  0.3098 -1.4299
    9MOL0     H 1185  11.421   8.542  10.422 -0.8856  1.6211  2.1882
    9MOL0     H 1186  11.582   8.507  10.470  1.2125  0.5132 -0.8330
    9MOL0     H 1187  11.677   8.730  10.394  1.4315  0.6799 -2.0470
    9MOL0     H 1188  11.497   8.779  10.378 -1.9032 -1.8082 -0.8253
    9MOL0     H 1189  11.659   8.572  10.219 -1.5078 -1.1212 -0.5369
    9MOL0     H 1190  11.493   8.615  10.188  1.0314 -0.7623 -1.2045
    9MOL0     H 1191  11.750   8.785  10.171  0.2532  0.0304 -0.6949
    9MOL0     H 1192  11.593   8.851  10.158 -1.6469 -1.2682 -0.1973
    9MOL0     H 1193  11.702   8.642   9.954 -1.2524  0.7509 -3.6278
    9MOL0     H 1194  11.542   8.718   9.962  0.8074  0.7089 -1.7609
    9MOL0     H 1195  11.136   8.409  10.758 -2.4045 -0.6399 -0.4708
    9MOL0     H 1196  10.919   8.337  10.796 -1.0583 -0.3393  1.2249
    9MOL0     H 1197  10.357   8.578  10.758 -6.1163 -0.9706 -0.3308
    9MOL0     H 1198  10.167   8.493  10.820 -1.0994 -1.7153  0.8750
    9MOL0     H 1199   8.371   8.283  10.568 -0.5307  1.2222 -1.4124
    9MOL0     H 1200   8.134   8.267  10.542  5.3016  0.5380 -1.7387
    9MOL0     H 1201   7.688   8.391  10.482  3.4202 -2.0848 -0.0316
    9MOL0     H 1202   7.426   8.349  10.502 -0.3395 -0.4562 -1.2400
    9MOL0     H 1203   7.229   8.297  10.550 -1.6705  0.5094  0.9200
    9MOL0     H 1204   7.131   8.196  10.650  1.4874 -0.3948  3.6607
    9MOL0     H 1205   7.258   7.985  10.565  0.3776 -0.2418 -0.4798
    9MOL0     H 1206   7.340   8.093  10.464  1.4431 -4.0871  1.6508
    9MOL0     H 1207   7.147   8.180  10.351  2.2455 -1.1003 -0.9975
    9MOL0     H 1208   7.037   8.066  10.459  1.5271 -1.6613  2.6031
    9MOL0     H 1209   7.087   8.008  10.205 -4.0596 -4.5010  1.5496
    9MOL0     H 1210   7.250   7.964  10.266  0.8304  0.7645 -2.8502
    9MOL0     H 1211   7.011   7.649  10.394  0.4658  0.7687  1.1696
    9MOL0     H 1212   7.511   8.090  10.822 -3.4596  0.9105 -0.8507
    9MOL0     H 1213   7.859   8.080  10.778 -0.4994 -0.9515 -1.3372
    9MOL0     H 1214   7.799   8.195  10.917 -2.7732  1.3711 -0.1590
    9MOL0     H 1215   7.723   8.041  10.888 -0.0650 -0.8781 -1.7975
   10MOL0     O 1216   0.528   7.812   7.103 -0.2580  0.1280  0.4228
   10MOL0     C 1217   0.630   7.873   7.076 -0.6659 -0.8305  0.0853
   10MOL0     O 1218   0.680   7.879   6.941 -0.1371  0.4645  0.0097
   10MOL0     C 1219   0.612   7.808   6.847 -0.1661 -0.4398  0.5283
   10MOL0     C 1220   0.624   7.675   6.842 -0.5462  0.1987  0.5985
   10MOL0     C 1221   0.547   7.612   6.741  0.5603  0.1701 -0.5631
   10MOL0     C 1222   0.472   7.682   6.644 -0.3411  0.5769  1.2264
   10MOL0     O 1223   0.406   7.629   6.537 -0.1304 -0.0960 -0.1163
   10MOL0     C 1224   0.363   7.494   6.536  0.0790  0.5870  1.3278
   10MOL0     C 1225   0.272   7.450   6.424  0.5228  0.7499 -0.5901
   10MOL0     C 1226   0.248   7.303   6.420  0.2808  0.3764 -0.0629
   10MOL0     C 1227   0.117   7.270   6.345 -0.4092  0.7292  0.6195
   10MOL0     C 1228   0.120   7.325   6.207 -0.2407  0.7400 -0.1127
   10MOL0     C 1229  -0.001   7.300   6.122  0.4384  0.4485 -0.3767
   10MOL0     C 1230   0.016   7.310   5.968  0.1802 -0.0206 -0.1978
   10MOL0     C 1231  -0.008   7.455   5.915  0.1032 -0.7486  0.0206
   10MOL0     N 1232  -0.143   7.506   5.938 -0.0771 -0.4465  0.4259
   10MOL0     C 1233  -0.181   7.597   6.033  0.0334  0.0183 -0.7608
   10MOL0     C 1234  -0.299   7.645   5.996  0.5586  0.7694 -0.6841
   10MOL0     C 1235  -0.370   7.757   6.065  0.6679 -0.6749 -0.1996
   10MOL0     C 1236  -0.309   7.891   6.039  0.1055 -0.2116  0.2945
   10MOL0     C 1237  -0.363   7.991   6.146 -0.9696 -0.0989  0.9397
   10MOL0     C 1238  -0.467   8.077   6.072  0.2894 -0.3488  0.7714
   10MOL0     O 1239  -0.560   8.002   6.000  0.0385  0.3748  0.2801
   10MOL0     C 1240  -0.675   7.955   6.066 -0.5799  1.0889 -0.0213
   10MOL0     C 1241  -0.691   7.953   6.213 -0.9163 -0.3647  0.8728
   10MOL0     C 1242  -0.795   7.876   6.272 -0.0547 -0.8104 -0.3015
   10MOL0     C 1243  -0.893   7.812   6.194 -1.0465  0.6711 -0.0265
   10MOL0     C 1244  -1.003   7.749   6.258 -1.1234  0.7730  0.1708
   10MOL0     O 1245  -1.011   7.765   6.395 -0.5312  0.4263  0.8657
   10MOL0     C 1246  -1.117   7.718   6.461  0.3245  0.4846 -0.4738
   10MOL0     C 1247  -1.077   7.672   6.587  0.2587  0.3320 -0.0128
   10MOL0     C 1248  -1.181   7.634   6.678 -0.8562  1.0986 -0.1676
   10MOL0     C 1249  -1.321   7.635   6.640 -0.5790 -0.3389 -0.0880
   10MOL0     O 1250  -1.414   7.581   6.730  0.9183  0.3050  1.6878
   10MOL0     C 1251  -1.538   7.643   6.733  0.3519  0.7585 -0.4412
   10MOL0     C 1252  -1.629   7.552   6.814  0.8348 -0.1586  0.1400
   10MOL0     C 1253  -1.762   7.626   6.859 -0.1639  0.1379  0.1673
   10MOL0     C 1254  -1.866   7.633   6.740 -0.4456  0.2855 -0.4494
   10MOL0     C 1255  -1.984   7.727   6.773  0.1983  0.2674  0.5778
   10MOL0     C 1256  -2.096   7.669   6.856 -0.4208 -0.7751 -0.0392
   10MOL0     C 1257  -2.210   7.767   6.873  0.4214 -0.3006 -0.6621
   10MOL0     C 1258  -2.338   7.699   6.918  0.5964 -0.8718 -0.0825
   10MOL0    Cl 1259  -2.456   7.826   6.921 -0.0467 -0.3855  0.2889
   10MOL0     C 1260  -1.353   7.664   6.511  0.4396 -0.3454  0.4667
   10MOL0     C 1261  -1.253   7.712   6.422 -0.5548 -0.4990  1.2520
   10MOL0     O 1262  -1.092   7.703   6.191 -0.4096 -0.0559  0.8788
   10MOL0     C 1263  -0.877   7.815   6.051  0.3312 -0.1392 -1.6211
   10MOL0     C 1264  -0.769   7.873   5.995 -0.2086  0.0812  0.9059
   10MOL0     N 1265  -0.341   7.571   5.888 -0.3740 -0.3537  0.2346
   10MOL0     N 1266  -0.246   7.488   5.849 -0.1606 -0.6456 -0.5884
   10MOL0     C 1267   0.495   7.822   6.639  0.0473  0.1387 -0.1242
   10MOL0     C 1268   0.559   7.884   6.745 -0.2945 -0.2464  0.5249
   10MOL0     C 1269   0.708   7.952   7.183  0.1610  0.4742 -0.0685
   10MOL0     C 1270   0.835   8.007   7.142  0.6905  0.2904  0.0134
   10MOL0     C 1271   0.919   8.074   7.231  0.0756 -0.0916  0.0368
   10MOL0     C 1272   0.870   8.113   7.358 -0.1725  0.0100  0.4008
   10MOL0     O 1273   0.945   8.183   7.449 -0.4442 -0.0969 -0.3935
   10MOL0     C 1274   1.062   8.253   7.410  0.9602 -1.1892 -0.1722
   10MOL0     C 1275   1.190   8.167   7.413 -0.4455 -0.2364 -0.6776
   10MOL0     C 1276   1.309   8.245   7.350  0.9870 -0.2773 -0.9753
   10MOL0     C 1277   1.302   8.239   7.186  0.0176  0.0089 -0.6779
   10MOL0     C 1278   1.279   8.108   7.119  0.2626  0.6275  0.0940
   10MOL0     C 1279   1.263   8.002   7.056 -0.2702  0.2853  0.9708
   10MOL0     C 1280   0.743   8.056   7.401 -0.4600  0.8431 -0.6951
   10MOL0     C 1281   0.671   7.971   7.310  1.0205 -0.7294 -0.6185
   10MOL0     C 1282   0.546   7.910   7.373  0.2153 -0.4368  0.4454
   10MOL0     H 1283   0.666   7.607   6.916  1.2082  0.1689 -0.3698
   10MOL0     H 1284   0.536   7.505   6.734  0.2595  0.2894 -2.6200
   10MOL0     H 1285   0.456   7.441   6.517 -0.1361  0.5937  0.2103
   10MOL0     H 1286   0.324   7.452   6.629 -0.1402 -2.2708  0.0249
   10MOL0     H 1287   0.328   7.479   6.335  1.1359  2.4820  0.3287
   10MOL0     H 1288   0.176   7.501   6.434 -0.9028 -1.5328 -1.6962
   10MOL0     H 1289   0.248   7.273   6.525  3.2479  0.2465 -0.0103
   10MOL0     H 1290   0.327   7.247   6.369 -2.3387 -1.2723 -2.6463
   10MOL0     H 1291   0.099   7.162   6.344 -0.0637  0.6705 -0.1985
   10MOL0     H 1292   0.045   7.316   6.412  1.1308  1.4968  1.8011
   10MOL0     H 1293   0.145   7.431   6.210  3.0277  0.1566 -2.0920
   10MOL0     H 1294   0.201   7.265   6.165  0.4748 -1.4168  3.8214
   10MOL0     H 1295  -0.024   7.194   6.134 -3.0217  1.0061 -1.0084
   10MOL0     H 1296  -0.091   7.346   6.164  2.3729  1.6884  2.7829
   10MOL0     H 1297  -0.066   7.255   5.920 -2.3825 -0.2076  3.9414
   10MOL0     H 1298   0.118   7.279   5.942 -0.0084 -0.6194 -0.2355
   10MOL0     H 1299   0.073   7.510   5.965 -1.5485  1.3234  0.5283
   10MOL0     H 1300   0.011   7.457   5.807 -2.4455 -5.7508 -0.7841
   10MOL0     H 1301  -0.116   7.642   6.107 -0.2174  2.2129 -1.7990
   10MOL0     H 1302  -0.474   7.753   6.029  0.9935 -1.2776 -1.1008
   10MOL0     H 1303  -0.367   7.739   6.173 -0.4449 -1.0188 -0.2104
   10MOL0     H 1304  -0.201   7.889   6.054 -0.0941 -0.6470  1.8455
   10MOL0     H 1305  -0.319   7.925   5.935 -1.2253  0.4671  0.6129
   10MOL0     H 1306  -0.286   8.057   6.187 -0.3792 -2.1601  3.3823
   10MOL0     H 1307  -0.413   7.942   6.230 -0.1672  0.0974  1.5550
   10MOL0     H 1308  -0.409   8.130   5.996  0.6425 -2.8391 -0.8127
   10MOL0     H 1309  -0.519   8.142   6.143 -0.4940 -1.0316  0.8414
   10MOL0     H 1310  -0.630   8.010   6.282 -2.2035  4.1033 -1.3109
   10MOL0     H 1311  -0.801   7.865   6.380 -0.1183 -1.2257 -0.3474
   10MOL0     H 1312  -0.974   7.670   6.623  0.8448 -2.3991 -1.5634
   10MOL0     H 1313  -1.155   7.616   6.782 -0.0118 -1.0094 -0.6932
   10MOL0     H 1314  -1.540   7.740   6.785 -0.0399  0.0817  0.8492
   10MOL0     H 1315  -1.580   7.648   6.632 -0.6337 -0.2041 -0.0906
   10MOL0     H 1316  -1.649   7.458   6.762 -1.7331  0.8599 -0.8401
   10MOL0     H 1317  -1.581   7.522   6.908  1.0319  3.0813  1.1958
   10MOL0     H 1318  -1.817   7.585   6.944 -0.7678  1.7394  0.5855
   10MOL0     H 1319  -1.741   7.730   6.886 -1.3366 -0.1879  2.5638
   10MOL0     H 1320  -1.911   7.535   6.724 -0.5317 -0.5325  3.7384
   10MOL0     H 1321  -1.810   7.665   6.651 -1.0944  0.5059 -0.7921
   10MOL0     H 1322  -2.032   7.747   6.677 -0.8321 -1.5383  0.6869
   10MOL0     H 1323  -1.947   7.828   6.794  0.1389  0.4637 -0.2305
   10MOL0     H 1324  -2.136   7.573   6.823 -0.8767  0.0214 -1.9702
   10MOL0     H 1325  -2.057   7.654   6.957  2.4356  0.6287 -0.8286
   10MOL0     H 1326  -2.228   7.818   6.777 -1.7379 -0.4009 -0.3653
   10MOL0     H 1327  -2.179   7.836   6.952 -0.8729 -0.2005 -0.2208
   10MOL0     H 1328  -2.354   7.619   6.844  2.8340 -1.7547  0.3166
   10MOL0     H 1329  -2.329   7.653   7.017 -0.1957 -0.8707  0.0006
   10MOL0     H 1330  -1.458   7.655   6.484 -0.1429 -1.6704  2.8657
   10MOL0     H 1331  -1.274   7.739   6.320 -0.5537 -0.7802  1.1775
   10MOL0     H 1332  -0.958   7.760   6.004 -3.9361  1.9496  2.4170
   10MOL0     H 1333  -0.763   7.860   5.887 -0.4114 -0.3908  0.9519
   10MOL0     H 1334   0.469   7.885   6.554  0.4301 -0.6021 -0.8062
   10MOL0     H 1335   0.576   7.991   6.740  0.7147 -0.2852  2.2560
   10MOL0     H 1336   0.883   7.986   7.047 -0.3044 -0.1356 -0.4099
   10MOL0     H 1337   1.014   8.112   7.194 -0.0285 -0.6413 -0.8431
   10MOL0     H 1338   1.065   8.341   7.474  0.9744  0.9095 -2.8999
   10MOL0     H 1339   1.053   8.287   7.306 -2.2512 -2.3638 -0.3898
   10MOL0     H 1340   1.182   8.065   7.375 -1.8680 -1.4643  2.4829
   10MOL0     H 1341   1.217   8.154   7.519 -1.5555  4.6779  0.4388
   10MOL0     H 1342   1.405   8.217   7.396  1.0437 -0.8697 -1.4316
   10MOL0     H 1343   1.294   8.346   7.387 -1.1035 -1.4029  1.6032
   10MOL0     H 1344   1.221   8.307   7.157  2.2399  3.4850  0.6659
   10MOL0     H 1345   1.392   8.280   7.139 -0.1270  0.2017 -0.7847
   10MOL0     H 1346   1.226   7.918   7.002 -1.4859  0.6317  1.2358
   10MOL0     H 1347   0.719   8.069   7.506  2.9665  2.5075  0.0390
   10MOL0     H 1348   0.459   7.939   7.313  0.7000 -1.9343 -1.0695
   10MOL0     H 1349   0.555   7.801   7.385  1.5337 -0.1128  3.2953
   10MOL0     H 1350   0.530   7.955   7.471  1.8041 -1.4628  1.2128
   11MOL0     O 1351  10.318   8.676   6.225  0.1327  0.4575  0.6534
   11MOL0     C 1352  10.262   8.682   6.338  0.1215 -0.0588  0.2024
   11MOL0     O 1353  10.313   8.748   6.453 -0.3176 -0.3126 -0.6904
   11MOL0     C 1354  10.430   8.823   6.426  0.2929  0.1187 -0.7721
   11MOL0     C 1355  10.556   8.760   6.441 -0.4838 -0.0713 -0.3275
   11MOL0     C 1356  10.670   8.847   6.433  0.9731  1.5045 -0.1057
   11MOL0     C 1357  10.650   8.983   6.427 -0.8890 -0.1546 -0.4915
   11MOL0     O 1358  10.765   9.053   6.461  0.2594 -0.6719 -0.3889
   11MOL0     C 1359  10.762   9.194   6.432 -0.3126 -1.1175 -0.0099
   11MOL0     C 1360  10.907   9.264   6.436  0.3706 -0.7343  0.5633
   11MOL0     C 1361  11.022   9.177   6.383 -0.7832  0.2752 -0.1200
   11MOL0     C 1362  11.015   9.124   6.239 -0.1456  0.3851 -0.1168
   11MOL0     C 1363  11.132   9.147   6.151 -0.0471  0.4999  0.1546
   11MOL0     C 1364  11.105   9.100   6.012  0.7441  0.6840 -0.1150
   11MOL0     C 1365  11.227   9.100   5.924  0.2805 -0.2743 -0.4239
   11MOL0     C 1366  11.202   9.094   5.776  0.2280  0.6083 -0.5599
   11MOL0     N 1367  11.234   8.959   5.736 -0.0221 -0.5309  0.5612
   11MOL0     C 1368  11.358   8.926   5.685 -1.1067 -0.1827 -0.8246
   11MOL0     C 1369  11.353   8.790   5.687  0.1312  0.4040  0.2698
   11MOL0     C 1370  11.478   8.714   5.659 -0.5044  0.0708  0.4947
   11MOL0     C 1371  11.512   8.710   5.507  0.3814  1.0190 -0.5667
   11MOL0     C 1372  11.643   8.640   5.463 -0.4068  0.0831 -0.0482
   11MOL0     C 1373  11.773   8.716   5.477 -0.0099 -0.4444 -0.7930
   11MOL0     O 1374  11.885   8.627   5.458  0.5649 -0.3397  0.0832
   11MOL0     C 1375  12.015   8.677   5.436  0.2404  1.1648 -0.2011
   11MOL0     C 1376  12.052   8.807   5.445 -1.0604  0.6430  1.2518
   11MOL0     C 1377  12.186   8.843   5.417  0.1270  0.1236 -0.6342
   11MOL0     C 1378  12.284   8.747   5.388 -0.1080  0.1498 -0.0254
   11MOL0     C 1379  12.427   8.788   5.371  1.0279  0.5808 -0.2483
   11MOL0     O 1380  12.465   8.903   5.419  0.0744  0.2879  0.1032
   11MOL0     C 1381  12.588   8.955   5.393 -1.3223 -1.1691 -0.6348
   11MOL0     C 1382  12.636   9.015   5.272  0.7444  0.5849 -0.7565
   11MOL0     C 1383  12.759   9.075   5.269 -0.5760  0.5664  0.4747
   11MOL0     C 1384  12.838   9.078   5.382 -0.2586  0.3540  0.2456
   11MOL0     O 1385  12.963   9.141   5.373  0.5200 -0.2252  0.6946
   11MOL0     C 1386  13.075   9.100   5.454 -0.4122  0.2196  0.1834
   11MOL0     C 1387  13.177   9.210   5.463 -0.6084 -0.6878  0.0493
   11MOL0     C 1388  13.308   9.169   5.528  0.1510 -0.6605 -0.2888
   11MOL0     C 1389  13.431   9.252   5.485 -0.7248 -0.9465  1.3159
   11MOL0     C 1390  13.555   9.173   5.521 -0.5885 -1.2053 -0.0892
   11MOL0     C 1391  13.668   9.258   5.579 -0.3213  0.5340 -0.9415
   11MOL0     C 1392  13.782   9.175   5.623 -0.6551  0.1722  0.3903
   11MOL0     C 1393  13.912   9.246   5.631 -0.0145 -0.0841  0.0746
   11MOL0    Cl 1394  14.044   9.148   5.680  0.2058 -0.2849 -0.1817
   11MOL0     C 1395  12.786   9.034   5.510 -0.7324 -0.4253  0.8425
   11MOL0     C 1396  12.667   8.972   5.509  0.7317  0.3924 -0.3472
   11MOL0     O 1397  12.497   8.710   5.316  0.4573  0.4357  0.5778
   11MOL0     C 1398  12.238   8.613   5.371  0.3080 -0.2241  0.1019
   11MOL0     C 1399  12.110   8.578   5.398  1.0475 -0.1951  0.3233
   11MOL0     N 1400  11.229   8.744   5.735 -0.8536  0.0028  0.6270
   11MOL0     N 1401  11.152   8.852   5.737 -1.0146  0.0330  0.1069
   11MOL0     C 1402  10.528   9.038   6.398  0.3566 -0.0855 -1.0179
   11MOL0     C 1403  10.415   8.958   6.394 -0.5171  0.3886 -0.5848
   11MOL0     C 1404  10.135   8.611   6.355  0.3771  0.5257  0.7634
   11MOL0     C 1405  10.109   8.553   6.491 -0.3599  0.8656 -0.1361
   11MOL0     C 1406   9.994   8.465   6.500 -1.3284 -0.2265 -0.1387
   11MOL0     C 1407   9.911   8.444   6.391 -0.1881 -0.5625 -0.3209
   11MOL0     O 1408   9.814   8.346   6.401  0.6588 -0.4577  0.8323
   11MOL0     C 1409   9.679   8.382   6.440 -0.1881 -0.5086  0.4902
   11MOL0     C 1410   9.581   8.282   6.380 -0.3426  0.2759  0.3393
   11MOL0     C 1411   9.569   8.319   6.232  0.3631 -0.2253 -0.0907
   11MOL0     C 1412   9.454   8.256   6.148 -0.5962 -0.3302  0.6022
   11MOL0     C 1413   9.500   8.250   6.006 -0.3261  0.4821 -0.5135
   11MOL0     C 1414   9.515   8.242   5.891 -0.3719  0.6222 -0.5951
   11MOL0     C 1415   9.926   8.506   6.270 -0.5938 -0.6559  0.7322
   11MOL0     C 1416  10.043   8.588   6.249  0.0620 -0.3956  0.7121
   11MOL0     C 1417  10.041   8.659   6.114 -0.1956 -0.4636  0.3799
   11MOL0     H 1418  10.572   8.655   6.463 -0.7394 -0.4622 -1.8577
   11MOL0     H 1419  10.766   8.801   6.458 -0.9902 -1.5289  2.7539
   11MOL0     H 1420  10.735   9.201   6.326  0.2667  1.9962 -0.0452
   11MOL0     H 1421  10.690   9.256   6.487  0.2556 -0.8410  0.4306
   11MOL0     H 1422  10.920   9.296   6.539  0.2252  0.5516  0.1961
   11MOL0     H 1423  10.899   9.358   6.380 -0.3588 -1.6529 -0.9438
   11MOL0     H 1424  11.035   9.090   6.449 -2.0632  0.7170  0.7569
   11MOL0     H 1425  11.109   9.242   6.394  0.7426 -1.5689 -0.6711
   11MOL0     H 1426  10.993   9.017   6.240 -1.6906  0.6396 -1.4843
   11MOL0     H 1427  10.922   9.168   6.202 -1.1154 -0.8769  0.7059
   11MOL0     H 1428  11.159   9.252   6.163 -0.1917  0.5602 -0.0508
   11MOL0     H 1429  11.218   9.085   6.180 -1.4489 -3.2013 -2.7700
   11MOL0     H 1430  11.056   9.003   5.999 -0.1040  1.0172  0.4553
   11MOL0     H 1431  11.027   9.170   5.980 -1.5221  0.0746  3.4656
   11MOL0     H 1432  11.299   9.025   5.960  0.5475  0.0218 -0.3423
   11MOL0     H 1433  11.278   9.196   5.936 -0.8497  0.2039  0.7617
   11MOL0     H 1434  11.100   9.127   5.753 -0.0747 -1.2051 -1.9733
   11MOL0     H 1435  11.275   9.157   5.725  2.1765 -2.0956 -1.2633
   11MOL0     H 1436  11.445   8.986   5.660 -0.2159 -1.4171 -0.7780
   11MOL0     H 1437  11.557   8.761   5.718 -3.4726  2.6322  2.7885
   11MOL0     H 1438  11.462   8.618   5.708  1.3438  0.9576  3.0841
   11MOL0     H 1439  11.434   8.654   5.455  1.0809 -0.5165 -0.0125
   11MOL0     H 1440  11.511   8.811   5.463 -3.0915  0.4248 -2.1787
   11MOL0     H 1441  11.635   8.608   5.358 -3.2856  0.2434  0.0538
   11MOL0     H 1442  11.670   8.557   5.528  1.1536 -0.7101 -1.5987
   11MOL0     H 1443  11.786   8.766   5.574  0.7718 -1.4553 -0.3532
   11MOL0     H 1444  11.780   8.794   5.401  0.5969  1.1529  0.8430
   11MOL0     H 1445  11.980   8.884   5.470 -2.4631 -0.3309  0.3477
   11MOL0     H 1446  12.212   8.948   5.415 -0.9481  0.3929 -1.7096
   11MOL0     H 1447  12.581   8.995   5.181 -0.8411 -0.4320  0.3753
   11MOL0     H 1448  12.796   9.100   5.170  2.2509  0.5798  1.4443
   11MOL0     H 1449  13.041   9.085   5.557  0.1315  2.7858  0.8131
   11MOL0     H 1450  13.113   9.005   5.416  2.5569  0.7738  1.4342
   11MOL0     H 1451  13.195   9.256   5.365 -1.7791 -0.3982 -0.0476
   11MOL0     H 1452  13.145   9.290   5.531  2.0459  0.1481  0.4505
   11MOL0     H 1453  13.307   9.168   5.637  0.8681 -1.3957 -0.2782
   11MOL0     H 1454  13.326   9.066   5.497 -0.6844 -0.1188 -2.8250
   11MOL0     H 1455  13.435   9.352   5.530 -0.6018 -0.0389 -0.6007
   11MOL0     H 1456  13.435   9.282   5.380  0.1701 -0.7906  1.3874
   11MOL0     H 1457  13.588   9.115   5.434 -0.8145 -1.1509 -0.2113
   11MOL0     H 1458  13.532   9.095   5.594  0.3074 -2.7373 -1.3700
   11MOL0     H 1459  13.709   9.325   5.503 -1.2587 -0.2172 -2.1343
   11MOL0     H 1460  13.632   9.317   5.664  0.0335 -1.1825  0.4670
   11MOL0     H 1461  13.796   9.100   5.545 -1.5906  0.8919 -0.4910
   11MOL0     H 1462  13.767   9.131   5.722 -1.3083 -0.6543 -0.0620
   11MOL0     H 1463  13.940   9.287   5.533  2.6240 -4.3488 -1.2576
   11MOL0     H 1464  13.910   9.337   5.690  0.5378  0.1049 -0.1851
   11MOL0     H 1465  12.836   9.055   5.604 -0.2355  1.0828  0.2757
   11MOL0     H 1466  12.636   8.933   5.606  1.1062  0.4747 -0.1916
   11MOL0     H 1467  12.312   8.538   5.346 -1.3789 -1.1976 -2.3348
   11MOL0     H 1468  12.084   8.473   5.407 -0.4639 -0.0709 -1.9070
   11MOL0     H 1469  10.510   9.145   6.393  0.4362  0.0352  0.6428
   11MOL0     H 1470  10.318   8.985   6.353 -0.5907 -1.6489 -1.9460
   11MOL0     H 1471  10.163   8.573   6.583 -1.2902  0.7786  0.4430
   11MOL0     H 1472   9.977   8.418   6.596  1.3476 -0.4253  0.3271
   11MOL0     H 1473   9.653   8.482   6.406  0.1364 -1.0798 -1.5831
   11MOL0     H 1474   9.682   8.387   6.549 -0.0101  0.0404  0.4610
   11MOL0     H 1475   9.485   8.292   6.432 -0.0484 -1.1329  1.2252
   11MOL0     H 1476   9.622   8.181   6.392  0.7564  0.5066 -1.2160
   11MOL0     H 1477   9.668   8.293   6.193  0.8861 -2.1408  2.2830
   11MOL0     H 1478   9.561   8.428   6.226 -0.9213 -0.3828 -2.0723
   11MOL0     H 1479   9.418   8.158   6.180  0.5431 -0.8968  0.1946
   11MOL0     H 1480   9.368   8.324   6.149 -1.1859 -1.0658  0.7792
   11MOL0     H 1481   9.516   8.238   5.784  0.7597  0.2475 -0.5828
   11MOL0     H 1482   9.861   8.510   6.184  0.2256 -2.6697 -0.0320
   11MOL0     H 1483   9.941   8.697   6.091 -0.4865  0.6150  3.0901
   11MOL0     H 1484  10.100   8.751   6.110 -0.2780 -0.4116  0.3835
   11MOL0     H 1485  10.077   8.592   6.035 -0.4482  1.4010 -1.3897
   12MOL0     O 1486  11.039   0.193   2.102 -0.5500  0.4862 -0.6731
   12MOL0     C 1487  11.062   0.178   2.221 -0.4639 -0.9094 -0.2235
   12MOL0     O 1488  10.975   0.135   2.304  0.2295  0.5658 -0.7092
   12MOL0     C 1489  10.841   0.150   2.280  0.4345 -0.8162  0.4988
   12MOL0     C 1490  10.759   0.044   2.313  0.2642 -0.2526  0.0910
   12MOL0     C 1491  10.626   0.044   2.280  0.0975  0.5936  0.5597
   12MOL0     C 1492  10.572   0.164   2.221  0.2437  1.3861 -0.1616
   12MOL0     O 1493  10.441   0.168   2.191 -0.3124  0.7609 -0.1471
   12MOL0     C 1494  10.407   0.195   2.054 -0.1414  0.1283 -0.8019
   12MOL0     C 1495  10.276   0.272   2.068  0.3873  0.6203 -0.5525
   12MOL0     C 1496  10.175   0.231   1.955  0.5345  0.3031 -0.7505
   12MOL0     C 1497  10.029   0.228   2.005 -0.8048 -0.2491 -0.0601
   12MOL0     C 1498   9.942   0.153   1.903  0.5237  0.4682  0.2438
   12MOL0     C 1499   9.966   0.176   1.747  0.1349  0.3315 -0.0974
   12MOL0     C 1500   9.889   0.075   1.662 -0.0384 -0.3134  0.1724
   12MOL0     C 1501   9.950   0.067   1.519 -0.2631 -0.9762 -0.7325
   12MOL0     N 1502  10.084   0.016   1.512 -0.0519 -0.3449 -0.3123
   12MOL0     C 1503  10.179   0.031   1.413 -0.0289 -0.1553  0.2120
   12MOL0     C 1504  10.276  -0.063   1.437 -0.1726 -0.5216 -0.5096
   12MOL0     C 1505  10.403  -0.086   1.356  0.2049  0.0819  0.1718
   12MOL0     C 1506  10.505  -0.190   1.410  0.1721  0.5021 -0.3982
   12MOL0     C 1507  10.613  -0.208   1.304 -0.8697 -0.0883 -0.1871
   12MOL0     C 1508  10.595  -0.284   1.176  0.0937  0.0716 -0.9401
   12MOL0     O 1509  10.720  -0.294   1.101 -0.6808 -0.4379 -0.1146
   12MOL0     C 1510  10.809  -0.385   1.154  0.4574  0.1793 -0.3652
   12MOL0     C 1511  10.908  -0.342   1.235 -0.7453 -0.3734  0.3266
   12MOL0     C 1512  10.995  -0.427   1.290 -0.4767  0.4230 -0.3177
   12MOL0     C 1513  10.997  -0.559   1.263  0.7293  0.2681 -0.2270
   12MOL0     C 1514  11.071  -0.651   1.345  0.0744 -0.1142  0.1178
   12MOL0     O 1515  11.006  -0.760   1.385  0.1580 -0.3051 -0.1548
   12MOL0     C 1516  11.056  -0.864   1.456 -0.9906  0.0313 -0.1469
   12MOL0     C 1517  10.991  -0.990   1.435  0.7587 -0.5205  1.3497
   12MOL0     C 1518  11.028  -1.106   1.495 -0.1941  0.0874  0.2955
   12MOL0     C 1519  11.133  -1.096   1.580 -0.4327  0.6293 -0.4277
   12MOL0     O 1520  11.181  -1.201   1.651 -0.4180 -0.3618 -0.7872
   12MOL0     C 1521  11.117  -1.328   1.654 -0.2019 -0.2873  0.1291
   12MOL0     C 1522  10.986  -1.323   1.737 -0.6127 -0.7912  0.0291
   12MOL0     C 1523  10.918  -1.458   1.770  0.0147  0.0184 -0.5977
   12MOL0     C 1524  10.866  -1.544   1.649  0.9283 -0.2671 -0.1595
   12MOL0     C 1525  10.763  -1.637   1.700  0.3600  0.5274 -0.2827
   12MOL0     C 1526  10.804  -1.754   1.793  0.0017  0.6270  0.0327
   12MOL0     C 1527  10.700  -1.862   1.775 -0.7384  0.4038 -0.2167
   12MOL0     C 1528  10.753  -1.997   1.821  0.3027  0.1717  0.2536
   12MOL0    Cl 1529  10.773  -1.993   2.004 -0.2654 -0.3550 -0.1038
   12MOL0     C 1530  11.188  -0.973   1.616 -0.7923  0.0595  0.1264
   12MOL0     C 1531  11.152  -0.852   1.557  0.6252  0.7775  0.3802
   12MOL0     O 1532  11.180  -0.624   1.392 -0.4675 -0.4116  0.6668
   12MOL0     C 1533  10.906  -0.603   1.166 -0.6659 -0.0695  0.6198
   12MOL0     C 1534  10.814  -0.514   1.109  0.3821 -0.5924 -0.0746
   12MOL0     N 1535  10.232  -0.134   1.550  0.1269  0.1778  0.3185
   12MOL0     N 1536  10.120  -0.083   1.595 -0.1727 -0.6257 -0.1086
   12MOL0     C 1537  10.654   0.272   2.207  0.7037 -0.4775  0.3542
   12MOL0     C 1538  10.786   0.273   2.226  0.5674 -0.3808  0.3876
   12MOL0     C 1539  11.197   0.215   2.273  0.3337 -0.1647  0.0527
   12MOL0     C 1540  11.233   0.154   2.392  0.3540  0.1217  0.1034
   12MOL0     C 1541  11.364   0.159   2.438  0.5927 -0.2480  0.3518
   12MOL0     C 1542  11.458   0.245   2.379  0.2285 -0.0878 -0.4400
   12MOL0     O 1543  11.580   0.265   2.419 -0.8472  0.6362 -0.0175
   12MOL0     C 1544  11.594   0.380   2.505 -1.2006 -0.3984  0.0619
   12MOL0     C 1545  11.729   0.356   2.589  0.1231 -0.3226  0.8056
   12MOL0     C 1546  11.847   0.342   2.484 -0.1522 -0.0501  0.2014
   12MOL0     C 1547  11.886   0.463   2.399  0.4224  0.5411 -0.5120
   12MOL0     C 1548  11.854   0.589   2.457 -0.1647 -0.0337 -0.3248
   12MOL0     C 1549  11.810   0.682   2.524  0.9345 -0.6808 -0.1650
   12MOL0     C 1550  11.409   0.316   2.264 -0.5266 -0.3630 -1.0052
   12MOL0     C 1551  11.292   0.295   2.197 -0.0896 -0.4050  0.5736
   12MOL0     C 1552  11.261   0.355   2.061 -0.7751  0.6597  0.0514
   12MOL0     H 1553  10.815  -0.037   2.359  1.3904 -0.9208 -2.3087
   12MOL0     H 1554  10.573  -0.049   2.293 -1.8606  1.4627 -0.6899
   12MOL0     H 1555  10.480   0.251   1.995 -0.1391 -0.6547 -1.5626
   12MOL0     H 1556  10.391   0.095   2.012  2.6949 -0.7614 -0.0050
   12MOL0     H 1557  10.303   0.378   2.072  2.6432  0.0788  2.0779
   12MOL0     H 1558  10.224   0.250   2.162  2.2972 -0.4182  0.3169
   12MOL0     H 1559  10.205   0.131   1.921  2.4160  0.1143  1.2711
   12MOL0     H 1560  10.188   0.301   1.873 -3.9450  0.2592 -1.7640
   12MOL0     H 1561  10.030   0.183   2.104  0.2348  1.3749  0.7149
   12MOL0     H 1562  10.000   0.331   2.029  4.1890  0.9673  1.7755
   12MOL0     H 1563   9.953   0.048   1.931  0.4694  0.4186  0.0827
   12MOL0     H 1564   9.843   0.179   1.939 -0.7247 -0.1060 -2.5153
   12MOL0     H 1565   9.936   0.277   1.718  1.9677  0.8987 -0.1305
   12MOL0     H 1566  10.073   0.156   1.736  0.2647 -2.0322  3.6875
   12MOL0     H 1567   9.784   0.104   1.654 -0.7923 -2.8620 -0.1909
   12MOL0     H 1568   9.886  -0.025   1.705  0.4617 -1.6904 -2.7445
   12MOL0     H 1569   9.884  -0.002   1.467  1.2277 -2.5624 -0.5828
   12MOL0     H 1570   9.938   0.164   1.469 -0.9222 -1.7312 -2.1065
   12MOL0     H 1571  10.167   0.105   1.335  1.6768  1.2012  1.1521
   12MOL0     H 1572  10.367  -0.108   1.256 -0.3018  1.1664  0.0964
   12MOL0     H 1573  10.466   0.003   1.343 -0.1320  0.2295 -0.4577
   12MOL0     H 1574  10.558  -0.146   1.495  0.5454  0.0308 -0.3829
   12MOL0     H 1575  10.446  -0.280   1.430 -0.2450  0.7052 -0.7060
   12MOL0     H 1576  10.692  -0.254   1.364 -0.5303  0.5928 -0.1034
   12MOL0     H 1577  10.664  -0.114   1.283 -1.0605 -0.0645 -0.5540
   12MOL0     H 1578  10.516  -0.229   1.124 -1.0587  1.6621  2.1859
   12MOL0     H 1579  10.554  -0.384   1.195  0.3756 -0.2960 -2.1674
   12MOL0     H 1580  10.903  -0.238   1.266 -1.7710  0.7358 -3.1933
   12MOL0     H 1581  11.070  -0.382   1.354 -0.6556  2.5911 -1.5463
   12MOL0     H 1582  10.921  -0.996   1.352  1.8619  2.4159  0.0648
   12MOL0     H 1583  10.981  -1.200   1.468 -1.8149  0.3041  2.1229
   12MOL0     H 1584  11.113  -1.369   1.553 -2.6227 -0.8813  0.3896
   12MOL0     H 1585  11.191  -1.392   1.702  0.3911  0.8521  0.7785
   12MOL0     H 1586  11.017  -1.268   1.827 -1.2027  2.4239 -1.5883
   12MOL0     H 1587  10.913  -1.258   1.688  0.2357 -1.3060 -1.9732
   12MOL0     H 1588  10.996  -1.519   1.817  0.0117  1.2288  1.0772
   12MOL0     H 1589  10.840  -1.445   1.845  1.4908 -2.2289  1.4837
   12MOL0     H 1590  10.942  -1.592   1.587  0.1539 -3.6218  1.2922
   12MOL0     H 1591  10.815  -1.474   1.581  2.4955 -0.4779 -1.6119
   12MOL0     H 1592  10.718  -1.682   1.611 -0.9844 -1.7343  1.4291
   12MOL0     H 1593  10.683  -1.584   1.752  0.6426  0.3776  0.3223
   12MOL0     H 1594  10.905  -1.782   1.765 -0.3084  1.8684 -2.5990
   12MOL0     H 1595  10.818  -1.724   1.897  0.2950 -0.8473  0.4448
   12MOL0     H 1596  10.671  -1.868   1.669  1.8496 -2.6660 -0.8935
   12MOL0     H 1597  10.612  -1.839   1.836 -0.4136 -2.4096  1.4875
   12MOL0     H 1598  10.683  -2.078   1.796  0.7133 -0.1299  0.0697
   12MOL0     H 1599  10.851  -2.011   1.775 -0.3969 -0.6458 -1.0446
   12MOL0     H 1600  11.272  -0.957   1.682 -0.6185  2.5933 -0.5776
   12MOL0     H 1601  11.189  -0.753   1.583  1.1869  0.3512  1.2536
   12MOL0     H 1602  10.909  -0.708   1.141  1.1596  0.0178  0.3729
   12MOL0     H 1603  10.747  -0.544   1.029 -2.9522 -2.2836  3.0507
   12MOL0     H 1604  10.603   0.357   2.162 -2.8718 -0.6234  3.6402
   12MOL0     H 1605  10.848   0.354   2.187  0.3168 -0.8776 -1.0624
   12MOL0     H 1606  11.158   0.099   2.446  0.6435  0.3182  0.7205
   12MOL0     H 1607  11.399   0.089   2.513  2.1460  0.8438  0.6926
   12MOL0     H 1608  11.517   0.380   2.583 -1.0809 -0.7156  0.1829
   12MOL0     H 1609  11.589   0.467   2.439 -1.6016 -0.2186  0.3237
   12MOL0     H 1610  11.729   0.265   2.649  1.2358  0.0375  1.3758
   12MOL0     H 1611  11.747   0.437   2.660  0.0526 -0.5160  1.0456
   12MOL0     H 1612  11.857   0.246   2.432  4.8804 -1.1699  2.5684
   12MOL0     H 1613  11.929   0.314   2.551 -0.3482 -1.4481 -0.1265
   12MOL0     H 1614  11.992   0.453   2.378  0.7882  0.3847  1.2444
   12MOL0     H 1615  11.821   0.462   2.311 -1.4847 -0.6423  0.8267
   12MOL0     H 1616  11.767   0.771   2.564  0.8692 -0.4869 -0.6716
   12MOL0     H 1617  11.472   0.386   2.210 -1.1997 -1.2434 -3.0274
   12MOL0     H 1618  11.258   0.266   1.997  4.7527  0.7318 -0.7722
   12MOL0     H 1619  11.167   0.411   2.059 -0.1743  1.7843  1.7311
   12MOL0     H 1620  11.340   0.424   2.032  0.4481 -1.6427 -2.5733
   13MOL0     O 1621   0.709   0.108   1.372 -0.1368  0.0478 -0.3536
   13MOL0     C 1622   0.606   0.168   1.404 -0.1945 -0.1841  0.0858
   13MOL0     O 1623   0.583   0.225   1.522 -0.5565  0.1662 -0.3373
   13MOL0     C 1624   0.698   0.241   1.597  0.3337 -0.2553 -0.5341
   13MOL0     C 1625   0.707   0.158   1.712  0.4799 -0.4626 -0.0655
   13MOL0     C 1626   0.821   0.174   1.783  0.5670 -0.4790  0.0671
   13MOL0     C 1627   0.920   0.265   1.751  0.3781 -0.0798 -0.0974
   13MOL0     O 1628   1.030   0.273   1.832  0.0450  0.4867 -0.2298
   13MOL0     C 1629   1.129   0.168   1.808  0.2064  0.2264  0.5827
   13MOL0     C 1630   1.233   0.193   1.694  0.1958 -0.1375  0.6977
   13MOL0     C 1631   1.349   0.100   1.698  0.3962  0.0228  0.7560
   13MOL0     C 1632   1.446   0.121   1.812 -1.4956 -0.3745 -0.7809
   13MOL0     C 1633   1.555   0.026   1.783 -0.4536  0.9336 -0.0764
   13MOL0     C 1634   1.650   0.019   1.903 -0.0482 -0.0057 -0.4952
   13MOL0     C 1635   1.775  -0.069   1.885  0.0025 -1.1723  1.3309
   13MOL0     C 1636   1.863  -0.070   2.011 -0.1419  0.2915 -0.0256
   13MOL0     N 1637   1.973  -0.174   2.015 -0.5749 -0.2969  0.4519
   13MOL0     C 1638   1.943  -0.312   2.023  0.0873 -0.0809  0.2920
   13MOL0     C 1639   2.073  -0.364   2.034  0.9550  0.1311  0.6808
   13MOL0     C 1640   2.109  -0.510   2.030 -0.6622 -0.1089  0.7188
   13MOL0     C 1641   2.227  -0.543   2.125  0.4887 -1.2783  0.7136
   13MOL0     C 1642   2.181  -0.518   2.268  0.1813  0.3611 -0.0501
   13MOL0     C 1643   2.264  -0.600   2.367  1.0928  1.1796  0.4457
   13MOL0     O 1644   2.238  -0.740   2.352  0.0760 -0.1303 -0.6465
   13MOL0     C 1645   2.319  -0.815   2.438  0.4639 -0.1230 -0.3423
   13MOL0     C 1646   2.398  -0.772   2.547  0.7084  0.2242  0.6923
   13MOL0     C 1647   2.448  -0.864   2.641  0.1115 -0.8740 -0.4401
   13MOL0     C 1648   2.426  -1.005   2.638 -0.1428  0.6943 -0.0109
   13MOL0     C 1649   2.486  -1.096   2.734 -0.9302  0.0425 -0.1274
   13MOL0     O 1650   2.449  -1.233   2.739 -1.3337 -0.4392 -0.1595
   13MOL0     C 1651   2.519  -1.311   2.833  0.7186  0.4045 -0.6884
   13MOL0     C 1652   2.523  -1.281   2.974 -0.1431  0.5485  0.7294
   13MOL0     C 1653   2.589  -1.371   3.056 -1.2268 -0.2593  0.2041
   13MOL0     C 1654   2.663  -1.479   2.998 -0.5150  0.9989 -0.6102
   13MOL0     O 1655   2.748  -1.552   3.078  0.1746  0.2220 -0.0368
   13MOL0     C 1656   2.845  -1.633   3.016 -0.3053 -0.4336  0.0660
   13MOL0     C 1657   2.924  -1.691   3.137 -0.5774 -0.3237 -0.6280
   13MOL0     C 1658   3.065  -1.756   3.112  0.1048  0.6075  0.5022
   13MOL0     C 1659   3.122  -1.795   3.251 -0.4827  0.4582 -0.4478
   13MOL0     C 1660   3.277  -1.781   3.243 -0.3944 -0.3375 -0.1723
   13MOL0     C 1661   3.338  -1.886   3.154 -0.0712 -0.3951  0.6778
   13MOL0     C 1662   3.483  -1.929   3.185  0.5264 -0.5563  0.1548
   13MOL0     C 1663   3.474  -2.034   3.302 -0.3080  0.2690  0.0264
   13MOL0    Cl 1664   3.647  -2.093   3.320  0.1626 -0.2362 -0.0088
   13MOL0     C 1665   2.652  -1.508   2.870  0.9956  0.0949  0.6088
   13MOL0     C 1666   2.575  -1.428   2.788  0.6196  0.6340  0.1558
   13MOL0     O 1667   2.590  -1.050   2.788  0.6903 -0.1335 -0.2190
   13MOL0     C 1668   2.351  -1.048   2.528  0.3040 -0.1323  0.4728
   13MOL0     C 1669   2.301  -0.956   2.432 -0.1814  0.4348 -0.9193
   13MOL0     N 1670   2.160  -0.258   2.039 -0.2008  0.5726 -0.3509
   13MOL0     N 1671   2.099  -0.142   2.032 -0.0217  0.1920  0.1578
   13MOL0     C 1672   0.913   0.342   1.642  0.0508 -0.2174  0.0580
   13MOL0     C 1673   0.800   0.326   1.556 -0.1972 -1.1781 -0.2224
   13MOL0     C 1674   0.488   0.153   1.313  0.4211  0.2230  0.5348
   13MOL0     C 1675   0.361   0.218   1.345 -0.3864  0.4518  0.0465
   13MOL0     C 1676   0.245   0.194   1.263 -0.0120 -0.8294  0.0944
   13MOL0     C 1677   0.254   0.112   1.149  0.0523  0.3863 -0.2238
   13MOL0     O 1678   0.143   0.092   1.074  0.1088  0.9880  0.2137
   13MOL0     C 1679   0.137   0.124   0.939  0.6447 -0.2033 -0.2221
   13MOL0     C 1680   0.021   0.040   0.881 -0.2498 -0.0255  0.6546
   13MOL0     C 1681  -0.121   0.098   0.930  0.6762  0.3553  0.2040
   13MOL0     C 1682  -0.238   0.015   0.876 -0.6490  0.2118  0.9096
   13MOL0     C 1683  -0.282  -0.102   0.960  0.1057 -0.3288  0.1090
   13MOL0     C 1684  -0.311  -0.203   1.016  0.6672  0.7610  0.0035
   13MOL0     C 1685   0.376   0.067   1.109 -0.5854  0.0964 -0.4384
   13MOL0     C 1686   0.488   0.070   1.194 -0.1667 -0.8543  0.0380
   13MOL0     C 1687   0.610   0.010   1.141  1.2102 -0.4633 -0.2618
   13MOL0     H 1688   0.627   0.090   1.738 -1.2290  1.4136 -0.1454
   13MOL0     H 1689   0.833   0.114   1.873  3.1389  0.2591  0.2724
   13MOL0     H 1690   1.180   0.169   1.905 -0.7123  0.7216  1.0716
   13MOL0     H 1691   1.074   0.076   1.788  0.1009  0.3346  0.3803
   13MOL0     H 1692   1.263   0.299   1.695 -1.7573  0.4875 -0.9954
   13MOL0     H 1693   1.175   0.184   1.603  0.0586  2.4232  0.4573
   13MOL0     H 1694   1.399   0.110   1.601 -1.1685 -0.2279 -0.0996
   13MOL0     H 1695   1.314  -0.003   1.690 -0.3051  0.2103  1.3829
   13MOL0     H 1696   1.482   0.224   1.805 -3.0434  0.2193 -0.3165
   13MOL0     H 1697   1.404   0.102   1.912 -2.9798 -0.0256 -1.3133
   13MOL0     H 1698   1.517  -0.075   1.768 -1.5948  1.1929  0.8927
   13MOL0     H 1699   1.602   0.059   1.690  0.0814 -0.0149 -0.1572
   13MOL0     H 1700   1.669   0.120   1.939 -3.1073  0.9708 -1.3085
   13MOL0     H 1701   1.588  -0.027   1.980  1.4177  0.5794  1.0821
   13MOL0     H 1702   1.839  -0.030   1.805 -0.1110  1.4588  2.4084
   13MOL0     H 1703   1.745  -0.171   1.858 -1.9333  0.0668 -1.8069
   13MOL0     H 1704   1.907   0.028   2.031  1.7954 -0.2353 -1.3889
   13MOL0     H 1705   1.817  -0.097   2.106  1.7177 -1.8216  0.3591
   13MOL0     H 1706   1.847  -0.363   2.018 -0.6226  0.9323  2.2746
   13MOL0     H 1707   2.017  -0.564   2.055 -0.1317 -0.3941  2.0954
   13MOL0     H 1708   2.127  -0.542   1.927 -2.0180 -1.0661  0.7477
   13MOL0     H 1709   2.215  -0.651   2.115 -1.4811 -1.1040  0.6993
   13MOL0     H 1710   2.322  -0.493   2.103 -0.7283  0.9820  0.2628
   13MOL0     H 1711   2.079  -0.555   2.283  0.0955  0.9067  0.7899
   13MOL0     H 1712   2.173  -0.410   2.275  3.0516  0.7436 -1.2004
   13MOL0     H 1713   2.244  -0.559   2.467 -0.6419 -0.7857  0.9752
   13MOL0     H 1714   2.369  -0.596   2.336  1.2117 -1.0283  0.4024
   13MOL0     H 1715   2.416  -0.665   2.555 -0.5964  0.7578 -2.2510
   13MOL0     H 1716   2.508  -0.814   2.717  3.4456 -0.7283 -2.9491
   13MOL0     H 1717   2.478  -1.191   3.016 -0.2080  2.3559 -2.7953
   13MOL0     H 1718   2.609  -1.347   3.160 -3.0081 -3.7065  1.4895
   13MOL0     H 1719   2.797  -1.713   2.958 -1.8871  1.5041 -1.4044
   13MOL0     H 1720   2.912  -1.568   2.959  0.0934 -0.5665  0.3737
   13MOL0     H 1721   2.962  -1.609   3.199  0.1020 -1.3022  0.2953
   13MOL0     H 1722   2.864  -1.763   3.194 -0.8355  0.1040 -0.3547
   13MOL0     H 1723   3.051  -1.838   3.040  1.5835  1.1115 -0.4156
   13MOL0     H 1724   3.138  -1.694   3.059  2.4808 -3.1310 -1.0921
   13MOL0     H 1725   3.100  -1.895   3.288  4.0272 -0.8288 -0.6084
   13MOL0     H 1726   3.086  -1.724   3.327  0.4773 -1.0083  1.4618
   13MOL0     H 1727   3.321  -1.788   3.343 -1.1243  3.4395  0.5734
   13MOL0     H 1728   3.318  -1.683   3.219  3.5143 -1.3355  1.5987
   13MOL0     H 1729   3.279  -1.978   3.148  0.4158 -0.8394  2.3062
   13MOL0     H 1730   3.337  -1.854   3.049  1.6654 -3.2569 -0.3487
   13MOL0     H 1731   3.541  -1.846   3.225  0.5348 -1.2873  1.7348
   13MOL0     H 1732   3.537  -1.965   3.097  0.1689  2.5873 -1.4694
   13MOL0     H 1733   3.435  -1.981   3.390 -3.2282  3.0983 -2.7265
   13MOL0     H 1734   3.409  -2.117   3.276 -2.0807  1.4355  0.5466
   13MOL0     H 1735   2.708  -1.590   2.826 -1.1175 -0.4254 -1.2867
   13MOL0     H 1736   2.573  -1.446   2.681 -0.2992 -0.3793  0.3183
   13MOL0     H 1737   2.318  -1.151   2.517 -1.9336  0.5539  0.3193
   13MOL0     H 1738   2.258  -1.002   2.344  0.4971 -1.8367 -0.1303
   13MOL0     H 1739   1.001   0.404   1.624  0.4411 -0.3739  1.3867
   13MOL0     H 1740   0.796   0.391   1.469  1.8460 -1.8702 -0.8837
   13MOL0     H 1741   0.346   0.279   1.433 -2.5702  1.9010 -1.2425
   13MOL0     H 1742   0.147   0.232   1.292  0.5834  1.0002 -0.1572
   13MOL0     H 1743   0.231   0.085   0.898 -0.3630 -2.5375 -0.4572
   13MOL0     H 1744   0.130   0.232   0.922 -3.4307 -0.5933 -2.1827
   13MOL0     H 1745   0.022  -0.065   0.911  0.4245 -0.5436 -1.0228
   13MOL0     H 1746   0.027   0.046   0.772  0.2379  0.8655  0.7247
   13MOL0     H 1747  -0.127   0.200   0.892  3.4975  0.2078 -0.8758
   13MOL0     H 1748  -0.128   0.084   1.038  4.3411 -0.9433  0.4273
   13MOL0     H 1749  -0.332   0.068   0.860 -1.0917 -0.5258  0.9859
   13MOL0     H 1750  -0.208   0.003   0.772 -0.2881  2.2512  0.7416
   13MOL0     H 1751  -0.330  -0.292   1.072 -0.9327  1.8689  1.2959
   13MOL0     H 1752   0.384   0.019   1.011  1.5044 -3.0829  1.1109
   13MOL0     H 1753   0.596  -0.038   1.044  0.1192 -1.5660  0.4206
   13MOL0     H 1754   0.691   0.084   1.142  2.0071 -1.3109  1.6160
   13MOL0     H 1755   0.659  -0.068   1.199  1.1891 -0.9369 -0.8778
   14MOL0     O 1756   4.701   8.004   0.978 -0.4894 -0.1209 -0.4133
   14MOL0     C 1757   4.670   8.101   1.048 -0.0309 -0.4902 -0.8688
   14MOL0     O 1758   4.667   8.235   1.013 -0.4434  0.4560 -0.2328
   14MOL0     C 1759   4.624   8.279   0.888 -0.4981  0.0530  0.4881
   14MOL0     C 1760   4.645   8.204   0.767 -0.1527 -0.2856 -0.5781
   14MOL0     C 1761   4.599   8.240   0.643  0.3373 -1.4249 -0.1360
   14MOL0     C 1762   4.518   8.356   0.636  0.1355  0.3250 -0.5293
   14MOL0     O 1763   4.447   8.386   0.515  0.4478  0.2835  0.6451
   14MOL0     C 1764   4.450   8.301   0.404 -0.7436  1.6617 -0.6689
   14MOL0     C 1765   4.369   8.369   0.297  0.1516 -0.4307 -0.7681
   14MOL0     C 1766   4.221   8.380   0.337 -0.9923  0.4053 -0.9894
   14MOL0     C 1767   4.144   8.434   0.214 -0.0151  0.3266 -0.8881
   14MOL0     C 1768   4.003   8.469   0.259 -0.2964 -0.3477 -0.2367
   14MOL0     C 1769   3.994   8.624   0.272  0.0923 -0.4308  0.0389
   14MOL0     C 1770   3.845   8.664   0.273 -0.1268  0.0429  0.0923
   14MOL0     C 1771   3.792   8.650   0.410 -0.0376  0.3335  0.6828
   14MOL0     N 1772   3.654   8.717   0.429 -0.7143  0.1186 -0.7555
   14MOL0     C 1773   3.638   8.853   0.443  0.3707  0.8986  0.5185
   14MOL0     C 1774   3.504   8.877   0.451  0.0351 -0.4774  0.7674
   14MOL0     C 1775   3.442   9.005   0.480 -0.0096  0.4585  0.3605
   14MOL0     C 1776   3.383   9.084   0.365 -0.2454  1.3066  0.5964
   14MOL0     C 1777   3.488   9.127   0.260  0.1321  0.0298  0.3356
   14MOL0     C 1778   3.565   9.257   0.310 -0.2727  0.0236 -0.5974
   14MOL0     O 1779   3.658   9.235   0.419 -0.2093  0.1109 -0.5838
   14MOL0     C 1780   3.777   9.167   0.403 -0.2785  0.3319 -0.0746
   14MOL0     C 1781   3.864   9.149   0.519  0.1575  0.2859  0.0919
   14MOL0     C 1782   3.985   9.080   0.505 -0.2762  0.5029  0.3658
   14MOL0     C 1783   4.033   9.039   0.376  0.7536  0.8314  0.8230
   14MOL0     C 1784   4.167   8.970   0.357 -0.3649  0.2890  0.4576
   14MOL0     O 1785   4.221   8.911   0.469  0.0432  0.0686  1.2431
   14MOL0     C 1786   4.339   8.853   0.456  1.0736  0.4426  0.3673
   14MOL0     C 1787   4.419   8.836   0.576  0.5887 -0.0592 -0.0673
   14MOL0     C 1788   4.538   8.767   0.586 -0.4801 -0.5125  0.1604
   14MOL0     C 1789   4.589   8.706   0.477 -0.3644  0.2338 -0.3030
   14MOL0     O 1790   4.715   8.652   0.498 -0.2653 -0.5587  0.1680
   14MOL0     C 1791   4.776   8.563   0.400  0.6493  1.0398  0.2008
   14MOL0     C 1792   4.899   8.489   0.461  0.8944 -1.1309  0.6675
   14MOL0     C 1793   5.012   8.581   0.490 -0.5489  0.5038 -0.5527
   14MOL0     C 1794   5.118   8.504   0.574  1.1857  0.1871  0.2543
   14MOL0     C 1795   5.234   8.584   0.626  0.2893 -0.3776 -0.1586
   14MOL0     C 1796   5.327   8.492   0.705  0.0427  0.1102  0.0295
   14MOL0     C 1797   5.458   8.556   0.754 -0.2058  0.7077  0.3140
   14MOL0     C 1798   5.549   8.462   0.832  0.3902 -0.1430  0.2293
   14MOL0    Cl 1799   5.595   8.326   0.727  0.3512  0.4340 -0.5372
   14MOL0     C 1800   4.516   8.701   0.363  0.3094  0.6753 -0.7972
   14MOL0     C 1801   4.400   8.778   0.355  0.1523 -0.7026 -0.2269
   14MOL0     O 1802   4.212   8.962   0.238  0.9547 -0.0691  0.3623
   14MOL0     C 1803   3.949   9.066   0.258  0.2741 -0.5387  1.2636
   14MOL0     C 1804   3.824   9.128   0.273 -0.0421 -0.2418 -0.1408
   14MOL0     N 1805   3.435   8.765   0.427  0.4326  0.3361  0.4153
   14MOL0     N 1806   3.524   8.666   0.425 -0.5522 -0.8291  0.1560
   14MOL0     C 1807   4.514   8.443   0.744 -0.0898 -0.3442 -0.1707
   14MOL0     C 1808   4.558   8.402   0.867  0.2608 -0.2402  0.3362
   14MOL0     C 1809   4.668   8.073   1.196 -0.0160 -0.4849  0.4814
   14MOL0     C 1810   4.636   8.186   1.266  0.0266  0.0328 -0.6147
   14MOL0     C 1811   4.604   8.176   1.402 -0.5422 -0.2882  0.3947
   14MOL0     C 1812   4.626   8.067   1.476 -0.2686  0.4357 -0.0553
   14MOL0     O 1813   4.620   8.060   1.616 -0.1186 -0.2994 -0.0970
   14MOL0     C 1814   4.673   8.167   1.704  0.0507  0.4101  0.0390
   14MOL0     C 1815   4.823   8.199   1.667 -0.0803 -0.6303  0.8280
   14MOL0     C 1816   4.926   8.100   1.739  0.0795 -0.9086 -0.4459
   14MOL0     C 1817   5.047   8.177   1.813  0.7106  0.0052  0.2037
   14MOL0     C 1818   5.113   8.271   1.724 -0.2277  0.9828  0.0931
   14MOL0     C 1819   5.170   8.351   1.650 -0.4440  0.8504 -0.0772
   14MOL0     C 1820   4.666   7.956   1.399  0.5182 -0.0257 -1.0123
   14MOL0     C 1821   4.687   7.957   1.263 -0.5537  0.5885 -0.9989
   14MOL0     C 1822   4.736   7.823   1.206 -0.3264  0.2259  0.3447
   14MOL0     H 1823   4.687   8.104   0.777  0.1851  0.0571  2.1850
   14MOL0     H 1824   4.614   8.178   0.556  1.4576 -1.9305  0.3999
   14MOL0     H 1825   4.545   8.275   0.356 -1.5518 -1.3856 -0.8733
   14MOL0     H 1826   4.408   8.204   0.434  0.3358  1.7444  1.3060
   14MOL0     H 1827   4.373   8.310   0.205  2.8605  2.0174 -2.4017
   14MOL0     H 1828   4.413   8.468   0.279  2.0596 -0.8701  1.1499
   14MOL0     H 1829   4.209   8.444   0.425  1.9774 -1.8685  1.3019
   14MOL0     H 1830   4.176   8.288   0.373  0.4184  0.4699  1.1388
   14MOL0     H 1831   4.189   8.518   0.160 -1.6769  0.3885 -2.2611
   14MOL0     H 1832   4.133   8.354   0.141  0.1776 -0.7266  0.2106
   14MOL0     H 1833   3.940   8.433   0.177 -0.5804  0.8668 -0.5738
   14MOL0     H 1834   3.974   8.416   0.350 -1.6845  0.2975 -0.2932
   14MOL0     H 1835   4.051   8.663   0.356  0.4610  2.7291 -1.5254
   14MOL0     H 1836   4.040   8.663   0.180 -3.3901  0.9239 -1.3058
   14MOL0     H 1837   3.791   8.619   0.189 -0.2366 -0.7521  0.5730
   14MOL0     H 1838   3.834   8.769   0.248 -1.9810  0.3315  1.8695
   14MOL0     H 1839   3.771   8.544   0.427  0.2084 -0.2675 -2.2303
   14MOL0     H 1840   3.864   8.679   0.488 -0.6144 -2.8462  2.5781
   14MOL0     H 1841   3.721   8.921   0.432  0.1403  1.3673  1.4774
   14MOL0     H 1842   3.360   8.983   0.549  0.2284  1.6813  1.0667
   14MOL0     H 1843   3.507   9.069   0.540  0.6551  1.5729 -1.4644
   14MOL0     H 1844   3.315   9.022   0.305  3.8006 -1.6996 -1.4277
   14MOL0     H 1845   3.330   9.171   0.406 -3.9444 -0.0679 -0.7980
   14MOL0     H 1846   3.427   9.156   0.174  1.4933 -0.5485 -0.8548
   14MOL0     H 1847   3.558   9.047   0.236 -0.1075  0.4016 -1.7537
   14MOL0     H 1848   3.492   9.327   0.353 -2.7717 -3.1385  0.7918
   14MOL0     H 1849   3.614   9.305   0.225  0.6497  0.2747  0.0574
   14MOL0     H 1850   3.814   9.180   0.610  1.2810  1.8813  0.2022
   14MOL0     H 1851   4.042   9.063   0.596 -1.3087  0.0608  0.9456
   14MOL0     H 1852   4.374   8.871   0.668  0.5370  0.0410 -0.1301
   14MOL0     H 1853   4.586   8.763   0.683  2.7156 -1.2424 -1.3061
   14MOL0     H 1854   4.710   8.487   0.355 -0.2958  2.8062 -1.5410
   14MOL0     H 1855   4.816   8.614   0.312  1.4851  0.5522  0.2896
   14MOL0     H 1856   4.864   8.440   0.552  2.5028 -3.9257 -0.1182
   14MOL0     H 1857   4.941   8.420   0.387  1.9916  1.3586 -1.1951
   14MOL0     H 1858   5.051   8.623   0.397 -0.4852  1.8851  0.0648
   14MOL0     H 1859   4.982   8.667   0.552  1.5932 -0.8397  2.6101
   14MOL0     H 1860   5.157   8.431   0.502 -1.5027  0.8172 -2.0176
   14MOL0     H 1861   5.078   8.435   0.650  1.3800 -1.3062 -0.9331
   14MOL0     H 1862   5.209   8.674   0.682  1.6456  0.6938 -1.1996
   14MOL0     H 1863   5.294   8.617   0.541 -0.5605  0.6719 -0.3638
   14MOL0     H 1864   5.275   8.459   0.796 -0.1484 -0.3593 -0.2451
   14MOL0     H 1865   5.344   8.410   0.635 -3.4380  2.8539 -4.5933
   14MOL0     H 1866   5.428   8.643   0.815  0.1299  1.0674 -0.0322
   14MOL0     H 1867   5.517   8.592   0.670 -0.9310  0.2563 -0.3959
   14MOL0     H 1868   5.632   8.522   0.870 -0.0322 -0.7420  2.2327
   14MOL0     H 1869   5.517   8.425   0.929  2.9967 -1.3117  0.7313
   14MOL0     H 1870   4.560   8.652   0.276 -3.0273  2.5362 -3.7953
   14MOL0     H 1871   4.341   8.768   0.264  0.5918  0.1918 -0.6197
   14MOL0     H 1872   3.989   9.046   0.160 -1.4953 -1.7632  0.7420
   14MOL0     H 1873   3.757   9.157   0.193 -0.2299 -0.4810 -0.0715
   14MOL0     H 1874   4.459   8.536   0.736  2.8437  1.5045 -0.3087
   14MOL0     H 1875   4.538   8.460   0.957  1.1654  1.2605 -0.3853
   14MOL0     H 1876   4.608   8.284   1.229 -1.6996 -0.2237 -0.1034
   14MOL0     H 1877   4.581   8.263   1.462 -0.4705  1.5257 -2.0665
   14MOL0     H 1878   4.665   8.133   1.807  2.4276  0.2929  0.2332
   14MOL0     H 1879   4.613   8.259   1.701 -0.6493 -0.0351 -2.8153
   14MOL0     H 1880   4.842   8.298   1.709  2.7003 -0.9762  0.6026
   14MOL0     H 1881   4.843   8.205   1.559 -0.8287 -1.8632  0.5979
   14MOL0     H 1882   4.977   8.043   1.661  1.6490 -0.0608 -0.0811
   14MOL0     H 1883   4.876   8.029   1.805 -0.0291 -2.4269 -2.0769
   14MOL0     H 1884   5.008   8.234   1.897  0.4482 -1.2530  0.9685
   14MOL0     H 1885   5.124   8.106   1.845  1.7961  1.3018  0.5396
   14MOL0     H 1886   5.220   8.428   1.594  1.2656 -0.2744 -0.1932
   14MOL0     H 1887   4.679   7.863   1.454  0.0231  0.5116  0.0222
   14MOL0     H 1888   4.820   7.838   1.138  0.1447  0.8434  1.0400
   14MOL0     H 1889   4.769   7.755   1.285 -2.3574 -1.2081  0.0147
   14MOL0     H 1890   4.656   7.777   1.148 -1.5445  2.8461 -0.2073
   15MOL0     O 1891   1.385   1.545   7.336  0.0047  0.5144  0.1179
   15MOL0     C 1892   1.428   1.533   7.219  0.3618 -0.4872 -0.7968
   15MOL0     O 1893   1.407   1.423   7.144  0.4072 -0.2338  0.0741
   15MOL0     C 1894   1.347   1.316   7.200  0.5865  0.2610 -0.6747
   15MOL0     C 1895   1.420   1.217   7.264 -0.2015 -0.5236 -0.1044
   15MOL0     C 1896   1.374   1.105   7.342  0.4383  0.3192  0.3532
   15MOL0     C 1897   1.234   1.097   7.344 -0.1615 -0.5912 -0.6168
   15MOL0     O 1898   1.175   1.002   7.419  0.7014 -0.5915  0.2498
   15MOL0     C 1899   1.257   0.938   7.519 -0.0261  0.1780 -0.0257
   15MOL0     C 1900   1.163   0.867   7.625  0.4646  0.3363  0.4358
   15MOL0     C 1901   1.050   0.954   7.672 -0.3142  0.8044 -0.7666
   15MOL0     C 1902   0.948   0.858   7.742  1.0758  0.5688 -0.4616
   15MOL0     C 1903   0.999   0.796   7.876  0.1766 -0.6128 -0.3081
   15MOL0     C 1904   1.029   0.899   7.993 -0.4006 -0.0339  0.0175
   15MOL0     C 1905   0.916   0.975   8.048 -0.1915  0.0672  0.3341
   15MOL0     C 1906   0.955   1.020   8.193 -0.2469  0.1577  0.6958
   15MOL0     N 1907   0.844   1.109   8.250 -0.7957 -0.3784  0.0015
   15MOL0     C 1908   0.781   1.217   8.188 -0.2472  0.4732 -0.5132
   15MOL0     C 1909   0.676   1.241   8.261  1.0113 -0.3793  0.2635
   15MOL0     C 1910   0.575   1.341   8.225 -0.6673  0.3410  0.0054
   15MOL0     C 1911   0.624   1.488   8.267  0.6486  0.5035  0.2295
   15MOL0     C 1912   0.621   1.505   8.421  0.3499  0.5964  0.6604
   15MOL0     C 1913   0.476   1.537   8.486 -0.1957 -0.7182 -0.0758
   15MOL0     O 1914   0.427   1.661   8.435 -0.1700  0.2833 -1.0306
   15MOL0     C 1915   0.293   1.679   8.450  0.1224 -0.2787  0.1773
   15MOL0     C 1916   0.242   1.707   8.578 -0.4391 -0.5659 -0.2385
   15MOL0     C 1917   0.103   1.727   8.604  0.6348  0.5277  0.1848
   15MOL0     C 1918   0.011   1.715   8.502  0.2578  0.2588 -0.4721
   15MOL0     C 1919  -0.130   1.742   8.531  1.2380  0.5240 -0.4313
   15MOL0     O 1920  -0.213   1.727   8.423  1.1480  0.7390  0.7985
   15MOL0     C 1921  -0.347   1.779   8.419 -0.4901 -0.0106 -0.4755
   15MOL0     C 1922  -0.445   1.716   8.353  0.1586  0.3363  0.6737
   15MOL0     C 1923  -0.587   1.753   8.353 -1.0829 -0.3987  0.1395
   15MOL0     C 1924  -0.618   1.869   8.427  0.3472  0.1272 -0.1693
   15MOL0     O 1925  -0.743   1.927   8.454 -0.2668 -0.2368 -0.4669
   15MOL0     C 1926  -0.842   1.951   8.357 -0.3035 -0.8726  0.1204
   15MOL0     C 1927  -0.977   1.896   8.406 -0.1533 -0.3110  0.3031
   15MOL0     C 1928  -1.095   1.912   8.319  0.2610 -0.1717 -0.4895
   15MOL0     C 1929  -1.084   1.801   8.197 -1.2034 -0.6504  0.0534
   15MOL0     C 1930  -1.103   1.658   8.251 -0.3436  0.1231 -0.5959
   15MOL0     C 1931  -0.968   1.585   8.271  0.2634 -0.3957  1.2716
   15MOL0     C 1932  -0.970   1.471   8.368  0.8676 -0.0616 -0.0338
   15MOL0     C 1933  -0.817   1.426   8.390  0.3478  0.5976 -0.4695
   15MOL0    Cl 1934  -0.784   1.252   8.403 -0.0203  0.6647  0.0561
   15MOL0     C 1935  -0.517   1.938   8.489 -0.5132  0.1378 -0.7086
   15MOL0     C 1936  -0.387   1.893   8.489 -0.6912  0.0211 -0.7153
   15MOL0     O 1937  -0.157   1.781   8.640 -0.7194 -0.3454 -0.1591
   15MOL0     C 1938   0.058   1.671   8.370  0.9081  0.0226 -0.3334
   15MOL0     C 1939   0.201   1.654   8.349  0.5358  0.0752  0.2288
   15MOL0     N 1940   0.671   1.154   8.368  0.1150 -0.4637 -0.0391
   15MOL0     N 1941   0.772   1.076   8.364  0.1600  0.4725  0.0978
   15MOL0     C 1942   1.152   1.187   7.273  0.8193 -0.1258  0.4719
   15MOL0     C 1943   1.208   1.297   7.201 -0.5699 -1.1191  0.0889
   15MOL0     C 1944   1.508   1.640   7.154 -0.3072  0.7705 -0.4280
   15MOL0     C 1945   1.499   1.660   7.020  0.2071  0.5486 -0.2889
   15MOL0     C 1946   1.579   1.754   6.954 -0.2579  0.3273  0.1806
   15MOL0     C 1947   1.654   1.844   7.034  0.3490 -0.7821  0.7012
   15MOL0     O 1948   1.708   1.964   6.988  0.5610  0.4221  0.3735
   15MOL0     C 1949   1.731   1.971   6.847  0.0735 -0.3083  0.3219
   15MOL0     C 1950   1.785   2.117   6.814  0.5320  0.0317  0.1128
   15MOL0     C 1951   1.882   2.122   6.694  0.5790  0.0538 -0.0220
   15MOL0     C 1952   1.946   2.268   6.690 -0.2924 -0.1585  0.0874
   15MOL0     C 1953   2.055   2.278   6.591  0.4380 -0.6489  0.9783
   15MOL0     C 1954   2.148   2.281   6.513 -0.2328  0.3362  0.0882
   15MOL0     C 1955   1.666   1.814   7.169  0.6017 -0.8786  0.6230
   15MOL0     C 1956   1.597   1.716   7.229  0.3959  0.5957 -0.7880
   15MOL0     C 1957   1.609   1.708   7.379  0.2750 -0.3823 -0.3790
   15MOL0     H 1958   1.527   1.238   7.267 -0.5995  1.6518  0.7850
   15MOL0     H 1959   1.448   1.047   7.395  3.0660  1.0118 -2.2316
   15MOL0     H 1960   1.313   0.857   7.472  0.0645 -0.6922  1.5043
   15MOL0     H 1961   1.329   1.006   7.565  0.4082 -0.1755 -0.1747
   15MOL0     H 1962   1.222   0.854   7.716  3.9931  1.8176 -1.4493
   15MOL0     H 1963   1.123   0.771   7.590 -1.6443  1.3559 -0.1157
   15MOL0     H 1964   0.992   1.003   7.594  0.4787 -0.0182 -1.9058
   15MOL0     H 1965   1.085   1.025   7.748  0.4340  0.0891 -0.4218
   15MOL0     H 1966   0.851   0.901   7.769  0.1952 -2.2862  1.4290
   15MOL0     H 1967   0.922   0.773   7.679 -2.6325  1.5218 -0.4575
   15MOL0     H 1968   0.920   0.729   7.913  0.3016  0.2509  1.6028
   15MOL0     H 1969   1.076   0.721   7.852  1.2146  1.4571 -4.1997
   15MOL0     H 1970   1.081   0.842   8.071  0.3960  1.1867  0.4068
   15MOL0     H 1971   1.104   0.973   7.965 -0.8212  0.4498  0.1498
   15MOL0     H 1972   0.822   0.920   8.049  0.6462 -1.5842 -2.2487
   15MOL0     H 1973   0.891   1.058   7.982 -0.8423  0.2563  0.8037
   15MOL0     H 1974   0.973   0.940   8.265 -1.4977 -1.5883 -0.8357
   15MOL0     H 1975   1.050   1.074   8.193  0.2067 -0.5766 -0.9399
   15MOL0     H 1976   0.800   1.274   8.098 -1.5836  1.8415  0.0403
   15MOL0     H 1977   0.552   1.326   8.119  0.0213 -0.8121 -0.0023
   15MOL0     H 1978   0.477   1.314   8.267 -2.3803 -0.3675 -3.9701
   15MOL0     H 1979   0.716   1.498   8.210 -0.1571 -0.2011 -1.2541
   15MOL0     H 1980   0.549   1.556   8.224 -2.3404 -1.3506  2.0916
   15MOL0     H 1981   0.686   1.593   8.433  0.0034  0.9776 -0.1821
   15MOL0     H 1982   0.660   1.415   8.471  0.8909  0.8019  0.6183
   15MOL0     H 1983   0.476   1.556   8.594  1.5717 -0.8880 -0.0232
   15MOL0     H 1984   0.405   1.460   8.455 -0.1936 -0.1472 -1.5629
   15MOL0     H 1985   0.308   1.713   8.664 -0.6819  2.0811 -0.1332
   15MOL0     H 1986   0.073   1.755   8.705 -1.5327  2.0796 -0.8110
   15MOL0     H 1987  -0.428   1.619   8.308  2.2649  0.6699  0.6448
   15MOL0     H 1988  -0.664   1.695   8.303 -0.0409 -2.5332  0.8714
   15MOL0     H 1989  -0.845   2.059   8.341  1.3552  0.0642  4.5423
   15MOL0     H 1990  -0.806   1.890   8.274  1.8247 -0.4427  0.6776
   15MOL0     H 1991  -0.975   1.793   8.443  4.8237 -1.2963 -1.9974
   15MOL0     H 1992  -1.001   1.956   8.495  0.5720  0.0148  0.2817
   15MOL0     H 1993  -1.191   1.908   8.372 -0.1213 -1.5902 -1.2290
   15MOL0     H 1994  -1.084   2.009   8.271  1.8456 -0.0562  0.0475
   15MOL0     H 1995  -0.982   1.801   8.158 -1.0836  1.3662  0.2643
   15MOL0     H 1996  -1.150   1.824   8.112 -0.8063  2.5190  0.4748
   15MOL0     H 1997  -1.151   1.593   8.177 -1.3585 -0.6364  0.6860
   15MOL0     H 1998  -1.168   1.657   8.339  1.2385 -2.8529  0.6859
   15MOL0     H 1999  -0.933   1.552   8.172 -2.0852 -1.4866  0.7394
   15MOL0     H 2000  -0.897   1.656   8.315  1.3883 -0.9372  0.4081
   15MOL0     H 2001  -1.034   1.388   8.336 -3.3696  1.6660  2.9556
   15MOL0     H 2002  -1.002   1.487   8.472  0.1513 -1.6998  0.0303
   15MOL0     H 2003  -0.755   1.447   8.302  1.1199  0.8130  0.1220
   15MOL0     H 2004  -0.776   1.478   8.477  0.7442 -2.3672  1.2556
   15MOL0     H 2005  -0.541   2.023   8.552  0.4841  1.3930 -1.9739
   15MOL0     H 2006  -0.312   1.962   8.527  1.1497 -0.7666 -2.6994
   15MOL0     H 2007  -0.003   1.658   8.281  1.5494 -2.4163 -0.5060
   15MOL0     H 2008   0.237   1.627   8.250 -0.5627 -3.5746  0.6793
   15MOL0     H 2009   1.044   1.201   7.280  1.1133  2.5430  0.3929
   15MOL0     H 2010   1.148   1.369   7.146  0.4570  0.8517  1.4124
   15MOL0     H 2011   1.419   1.609   6.967  1.4720 -1.3859 -0.4545
   15MOL0     H 2012   1.569   1.763   6.846  1.8099 -0.8022 -0.1415
   15MOL0     H 2013   1.632   1.963   6.802 -0.0250  4.1726 -0.6705
   15MOL0     H 2014   1.807   1.896   6.821  2.8249  1.7978  1.7720
   15MOL0     H 2015   1.847   2.143   6.901 -1.3049 -2.8258  2.4840
   15MOL0     H 2016   1.697   2.179   6.798 -0.2480 -0.8391  0.8893
   15MOL0     H 2017   1.823   2.104   6.604  2.1656 -0.4682 -0.9928
   15MOL0     H 2018   1.947   2.035   6.710 -0.7823 -0.5948  2.4961
   15MOL0     H 2019   1.870   2.343   6.666  2.8254  2.9740 -0.8023
   15MOL0     H 2020   1.993   2.276   6.788 -0.5429  1.8291  0.0712
   15MOL0     H 2021   2.237   2.287   6.454 -1.1418 -2.3362 -1.7098
   15MOL0     H 2022   1.719   1.888   7.227 -0.8173 -0.9865  2.1258
   15MOL0     H 2023   1.517   1.744   7.426  0.9382  2.7497 -1.2992
   15MOL0     H 2024   1.620   1.605   7.416 -4.6692 -0.3258  2.0831
   15MOL0     H 2025   1.695   1.763   7.418 -0.2504 -1.4380  2.5375
   16MOL0     O 2026  11.304  11.002   2.581  0.4686 -0.0316  0.2457
   16MOL0     C 2027  11.268  10.964   2.472  0.5802  0.7512  0.8177
   16MOL0     O 2028  11.352  10.960   2.359  0.4590 -1.0293  0.5648
   16MOL0     C 2029  11.458  11.052   2.365  0.2091  1.4883  0.6509
   16MOL0     C 2030  11.453  11.188   2.402 -0.2910  0.3213  0.2966
   16MOL0     C 2031  11.562  11.262   2.431  0.6111  0.2221  0.5578
   16MOL0     C 2032  11.685  11.196   2.419 -1.5935 -0.1664  0.0015
   16MOL0     O 2033  11.797  11.259   2.463  0.4256  0.3715 -0.5995
   16MOL0     C 2034  11.849  11.183   2.578 -1.2589  0.2057  0.1353
   16MOL0     C 2035  12.005  11.176   2.568 -0.5920 -0.0298 -1.0718
   16MOL0     C 2036  12.043  11.113   2.701 -0.2377 -0.3567 -0.6903
   16MOL0     C 2037  12.199  11.096   2.703 -0.2147 -0.0269 -0.4967
   16MOL0     C 2038  12.255  11.126   2.847  0.8413 -0.9240 -0.1310
   16MOL0     C 2039  12.402  11.128   2.854  0.4285  0.1881  0.5978
   16MOL0     C 2040  12.430  11.095   2.998  0.1700 -0.5998  0.3114
   16MOL0     C 2041  12.573  11.160   3.021 -0.8076  0.2939 -0.8279
   16MOL0     N 2042  12.600  11.118   3.159 -0.3475 -0.0624 -0.0384
   16MOL0     C 2043  12.649  11.198   3.256 -0.1613  0.0311 -1.7377
   16MOL0     C 2044  12.697  11.118   3.355  0.5451  0.4495 -0.2402
   16MOL0     C 2045  12.743  11.143   3.493 -0.5474  0.0863  0.8637
   16MOL0     C 2046  12.874  11.230   3.488  0.5133  0.3487 -0.2559
   16MOL0     C 2047  12.943  11.245   3.631  0.3104  1.0464 -0.4046
   16MOL0     C 2048  12.859  11.326   3.729 -0.1981 -0.3362 -0.6554
   16MOL0     O 2049  12.847  11.462   3.681  0.4925  0.0720 -0.3237
   16MOL0     C 2050  12.948  11.551   3.723 -0.0870  0.0591  0.9561
   16MOL0     C 2051  12.927  11.686   3.709 -0.2729 -0.2506 -0.7740
   16MOL0     C 2052  13.025  11.784   3.741  0.9700  0.0597  0.0988
   16MOL0     C 2053  13.139  11.742   3.797  0.4553  0.2850  0.2083
   16MOL0     C 2054  13.229  11.844   3.848 -0.0068 -0.4882  0.5244
   16MOL0     O 2055  13.321  11.795   3.924  0.2197  0.4131  0.4025
   16MOL0     C 2056  13.427  11.863   3.984  0.4879 -0.7686 -1.1032
   16MOL0     C 2057  13.470  11.988   3.945  0.5911  0.3802  0.2496
   16MOL0     C 2058  13.574  12.050   4.001  0.0105 -0.9188  0.1880
   16MOL0     C 2059  13.654  11.996   4.094  0.5231 -0.4745 -1.2322
   16MOL0     O 2060  13.762  12.072   4.135  0.4575 -0.5195  0.1740
   16MOL0     C 2061  13.860  11.997   4.197 -0.4598 -0.9889  0.2620
   16MOL0     C 2062  13.982  12.090   4.218  0.0971  0.4589 -0.7014
   16MOL0     C 2063  14.067  12.063   4.336  0.5098  0.3859 -0.1505
   16MOL0     C 2064  14.190  12.148   4.354  0.4173 -0.1095 -0.8047
   16MOL0     C 2065  14.232  12.151   4.506  0.2627 -0.3878 -0.1853
   16MOL0     C 2066  14.359  12.226   4.540  0.2516  0.2879 -0.1762
   16MOL0     C 2067  14.477  12.170   4.456 -0.1079 -0.4558 -0.2795
   16MOL0     C 2068  14.606  12.261   4.456 -0.2796 -0.2417 -0.4840
   16MOL0    Cl 2069  14.600  12.388   4.321 -0.1420  0.4090 -0.0380
   16MOL0     C 2070  13.603  11.875   4.147  0.7782 -0.2925  0.3636
   16MOL0     C 2071  13.495  11.806   4.087  0.2994 -0.5487  0.3003
   16MOL0     O 2072  13.230  11.961   3.803 -0.2333  0.7606 -0.0184
   16MOL0     C 2073  13.171  11.603   3.824 -0.0809  0.4340 -0.1405
   16MOL0     C 2074  13.076  11.513   3.772  0.6427  0.2231 -0.6865
   16MOL0     N 2075  12.691  10.983   3.302  0.6988 -0.2161 -0.2623
   16MOL0     N 2076  12.624  10.993   3.195 -0.7059 -0.6036 -0.3356
   16MOL0     C 2077  11.693  11.066   2.360  0.1229  0.2619  0.1671
   16MOL0     C 2078  11.579  10.986   2.338 -0.3224 -0.0198 -0.5340
   16MOL0     C 2079  11.131  10.902   2.459  0.1367  0.1254 -0.2541
   16MOL0     C 2080  11.116  10.789   2.368  0.2601 -0.3791  0.2739
   16MOL0     C 2081  11.006  10.705   2.378  1.0688  0.2680 -0.8938
   16MOL0     C 2082  10.900  10.748   2.459  0.4788  1.3767 -0.3114
   16MOL0     O 2083  10.786  10.676   2.478  0.6832  1.1767  0.2163
   16MOL0     C 2084  10.763  10.558   2.391  0.0331  0.1677 -0.2861
   16MOL0     C 2085  10.634  10.491   2.448  0.7658  0.3748  0.1539
   16MOL0     C 2086  10.504  10.557   2.393  1.0076  0.4741  0.5265
   16MOL0     C 2087  10.376  10.480   2.427  0.8519  0.7062 -0.4991
   16MOL0     C 2088  10.374  10.350   2.366  0.3753  0.6026  0.9670
   16MOL0     C 2089  10.368  10.239   2.313 -0.4486  0.8427 -1.2621
   16MOL0     C 2090  10.908  10.865   2.531  0.1296  0.3078  0.2835
   16MOL0     C 2091  11.024  10.953   2.532  0.6041 -0.1640 -0.7111
   16MOL0     C 2092  11.009  11.082   2.619 -0.2128 -0.2810  0.0568
   16MOL0     H 2093  11.355  11.235   2.395 -0.9757 -1.1152 -0.1072
   16MOL0     H 2094  11.532  11.366   2.443 -0.1562 -0.0359  0.9050
   16MOL0     H 2095  11.831  11.232   2.674  1.5883 -2.4469  2.2521
   16MOL0     H 2096  11.814  11.079   2.574  0.1426 -0.2509 -0.8949
   16MOL0     H 2097  12.050  11.276   2.565 -0.5760  0.2008  2.4778
   16MOL0     H 2098  12.040  11.107   2.490 -1.5002  0.5728 -2.0354
   16MOL0     H 2099  12.004  11.011   2.715  0.5844 -0.3520  2.3891
   16MOL0     H 2100  12.000  11.171   2.783 -1.5678 -2.2733  0.0416
   16MOL0     H 2101  12.223  10.991   2.683  1.8748  0.6483 -1.8560
   16MOL0     H 2102  12.255  11.157   2.632  3.1354 -2.0253  0.2218
   16MOL0     H 2103  12.230  11.230   2.872 -0.3487 -1.2993  0.2679
   16MOL0     H 2104  12.207  11.056   2.916 -0.4385 -0.5297 -0.5972
   16MOL0     H 2105  12.457  11.071   2.778  0.5271  2.7053 -1.3770
   16MOL0     H 2106  12.430  11.230   2.825 -1.6375  0.7983  0.5752
   16MOL0     H 2107  12.433  10.989   3.024  4.1032  0.0194  3.5077
   16MOL0     H 2108  12.367  11.153   3.066  3.1257  1.6128  1.3631
   16MOL0     H 2109  12.645  11.126   2.945 -1.0329 -0.1104 -0.8655
   16MOL0     H 2110  12.570  11.269   3.020  1.1765  0.4327  1.0374
   16MOL0     H 2111  12.649  11.307   3.255  1.4429  0.0506 -1.9691
   16MOL0     H 2112  12.670  11.190   3.561 -0.1214 -0.1086  1.4639
   16MOL0     H 2113  12.768  11.044   3.533  1.8976  0.1891 -0.2673
   16MOL0     H 2114  12.950  11.197   3.416  0.1069  0.4016 -0.7074
   16MOL0     H 2115  12.853  11.333   3.459  0.3205  0.5774  0.6680
   16MOL0     H 2116  13.045  11.283   3.618  2.1498 -2.0408  3.0576
   16MOL0     H 2117  12.957  11.146   3.673 -0.3223  0.9612 -0.3898
   16MOL0     H 2118  12.888  11.321   3.835  0.5751 -0.7753 -0.8814
   16MOL0     H 2119  12.763  11.273   3.729 -1.3374  1.5944  0.2709
   16MOL0     H 2120  12.835  11.721   3.663 -0.6538 -1.3440 -0.8538
   16MOL0     H 2121  13.029  11.887   3.708 -1.3067 -0.3820 -1.8864
   16MOL0     H 2122  13.432  12.043   3.860 -0.2224 -2.0869 -1.0694
   16MOL0     H 2123  13.598  12.151   3.971 -2.8225 -0.3375 -0.4573
   16MOL0     H 2124  13.831  11.963   4.297  0.0116 -0.5991  0.5348
   16MOL0     H 2125  13.899  11.909   4.144  2.8073  0.8162 -0.5884
   16MOL0     H 2126  14.044  12.078   4.129  0.8100  0.1594 -0.1763
   16MOL0     H 2127  13.943  12.192   4.214  2.7175  1.6098  0.6047
   16MOL0     H 2128  14.009  12.059   4.429  2.1096  0.6256  0.8966
   16MOL0     H 2129  14.093  11.958   4.324  0.8266  0.5284 -0.7726
   16MOL0     H 2130  14.164  12.251   4.327 -0.2031 -0.3560 -1.1656
   16MOL0     H 2131  14.259  12.112   4.277  3.5956 -0.5808  2.0204
   16MOL0     H 2132  14.243  12.046   4.537  3.4417  0.7972  3.5728
   16MOL0     H 2133  14.154  12.188   4.573  0.3149  0.6700 -0.6860
   16MOL0     H 2134  14.343  12.330   4.512  0.3077  1.1982  2.8166
   16MOL0     H 2135  14.379  12.231   4.647 -3.0737 -1.2365  0.6612
   16MOL0     H 2136  14.449  12.136   4.356  0.6588  0.9147 -0.9876
   16MOL0     H 2137  14.489  12.076   4.511  1.3802 -0.9684 -1.4047
   16MOL0     H 2138  14.632  12.301   4.554  2.1390  0.0583 -1.1842
   16MOL0     H 2139  14.697  12.201   4.445  1.0330  1.4437  0.6746
   16MOL0     H 2140  13.650  11.833   4.236  0.0973  2.4237  2.1312
   16MOL0     H 2141  13.464  11.705   4.113  0.7047 -0.1588  2.4804
   16MOL0     H 2142  13.255  11.577   3.887 -2.4258 -0.4003  2.8657
   16MOL0     H 2143  13.097  11.407   3.764 -1.3901 -0.1381 -2.3452
   16MOL0     H 2144  11.784  11.007   2.358 -0.5446 -0.8579  1.1929
   16MOL0     H 2145  11.580  10.880   2.315 -1.9196  0.2856 -2.2647
   16MOL0     H 2146  11.209  10.770   2.315  2.2404  4.4895  1.4335
   16MOL0     H 2147  11.014  10.612   2.323  0.3070  0.5381 -1.4822
   16MOL0     H 2148  10.843  10.485   2.401  0.2817  0.5550  0.5622
   16MOL0     H 2149  10.759  10.586   2.285 -0.7819 -0.8830 -0.5531
   16MOL0     H 2150  10.648  10.487   2.557  3.3653 -0.7043 -0.1376
   16MOL0     H 2151  10.638  10.390   2.407  2.2781  0.4966 -0.0739
   16MOL0     H 2152  10.507  10.566   2.284 -0.5946 -3.6655 -0.0549
   16MOL0     H 2153  10.489  10.657   2.436 -1.3928 -0.5582  2.3376
   16MOL0     H 2154  10.368  10.464   2.535 -1.2634 -3.0829 -1.0487
   16MOL0     H 2155  10.285  10.534   2.401  1.2262  0.8774 -1.5265
   16MOL0     H 2156  10.379  10.140   2.274 -3.4993  0.2065 -0.7546
   16MOL0     H 2157  10.818  10.897   2.582  0.0980  1.4844 -0.4625
   16MOL0     H 2158  10.996  11.045   2.721 -2.1268 -0.7321 -0.3144
   16MOL0     H 2159  11.099  11.142   2.602 -1.4107  1.7002  0.3420
   16MOL0     H 2160  10.924  11.146   2.593  0.7912  1.4247  0.7343
   17MOL0     O 2161   7.009   1.866   0.522  0.1643  0.3690  0.1779
   17MOL0     C 2162   7.105   1.786   0.547  0.0609  0.2471  0.9047
   17MOL0     O 2163   7.107   1.674   0.628  0.1269  0.3920 -0.1504
   17MOL0     C 2164   7.026   1.668   0.735  0.4341 -0.1201 -0.2604
   17MOL0     C 2165   7.025   1.538   0.787  0.8043 -0.2462  0.3198
   17MOL0     C 2166   6.963   1.508   0.909  0.3435 -0.2079  0.4806
   17MOL0     C 2167   6.899   1.611   0.978  0.5662  0.7904  0.0004
   17MOL0     O 2168   6.834   1.554   1.089  0.4141 -0.3684 -0.2079
   17MOL0     C 2169   6.801   1.650   1.189  0.3281 -0.4146 -0.7778
   17MOL0     C 2170   6.664   1.715   1.178  0.3343  0.0627  0.3217
   17MOL0     C 2171   6.550   1.610   1.183  0.4289 -0.1385  0.4398
   17MOL0     C 2172   6.414   1.679   1.197 -0.5348 -0.4008 -0.0919
   17MOL0     C 2173   6.296   1.576   1.188  0.3674  0.2354 -0.9526
   17MOL0     C 2174   6.269   1.543   1.332 -0.3875 -1.3553  0.7621
   17MOL0     C 2175   6.147   1.462   1.335  0.0608 -0.2325  0.2045
   17MOL0     C 2176   6.125   1.417   1.474  0.2731 -0.2858 -0.3225
   17MOL0     N 2177   6.024   1.316   1.480  0.1184  0.0652 -0.3443
   17MOL0     C 2178   5.891   1.326   1.526  0.5693 -0.4325  0.2786
   17MOL0     C 2179   5.837   1.210   1.512  0.5715 -0.3517  0.4059
   17MOL0     C 2180   5.695   1.165   1.538 -0.2047 -0.5423 -0.1262
   17MOL0     C 2181   5.604   1.200   1.422  0.2260 -0.4387  0.7089
   17MOL0     C 2182   5.632   1.092   1.304 -0.1436  0.6807  0.0501
   17MOL0     C 2183   5.516   1.114   1.202 -0.3132 -0.7115 -0.7475
   17MOL0     O 2184   5.392   1.044   1.242  0.4164  0.3056  0.3708
   17MOL0     C 2185   5.287   1.060   1.150  0.5318 -0.6271  0.3885
   17MOL0     C 2186   5.157   1.011   1.188  1.0671  0.5187 -0.8401
   17MOL0     C 2187   5.045   1.032   1.101  0.4041 -0.9600 -0.3083
   17MOL0     C 2188   5.047   1.111   0.986 -0.8568  0.8809  0.1219
   17MOL0     C 2189   4.931   1.121   0.892  0.2139 -0.0339 -0.0288
   17MOL0     O 2190   4.811   1.067   0.929  0.1772  0.7126 -0.5186
   17MOL0     C 2191   4.699   1.052   0.850  0.5069  0.1156 -0.0334
   17MOL0     C 2192   4.574   1.058   0.908 -0.2759 -0.2175  0.4614
   17MOL0     C 2193   4.450   1.030   0.848  0.1692 -0.4762  0.4943
   17MOL0     C 2194   4.450   0.993   0.710 -0.8545 -0.7893  0.7671
   17MOL0     O 2195   4.341   0.988   0.624 -0.6096  0.5757 -0.5335
   17MOL0     C 2196   4.206   0.956   0.667  0.4325  0.5886 -0.1408
   17MOL0     C 2197   4.118   0.952   0.544 -0.0980 -0.3404 -0.1713
   17MOL0     C 2198   3.990   0.884   0.579 -0.1815  0.6097  0.1760
   17MOL0     C 2199   3.905   0.971   0.661 -0.3648 -0.1982  0.0519
   17MOL0     C 2200   3.768   0.916   0.711 -0.0819 -0.4267  0.0792
   17MOL0     C 2201   3.675   0.878   0.602  0.3513  0.4987 -0.1063
   17MOL0     C 2202   3.532   0.845   0.646 -0.2809 -0.1870 -0.1517
   17MOL0     C 2203   3.468   0.762   0.523 -0.6974  0.1214 -0.7411
   17MOL0    Cl 2204   3.299   0.721   0.554 -0.0270  0.5985 -0.3663
   17MOL0     C 2205   4.577   0.975   0.643 -0.1241 -0.1159 -0.1398
   17MOL0     C 2206   4.696   1.002   0.713 -0.0997 -0.7737 -0.3668
   17MOL0     O 2207   4.948   1.186   0.793 -0.2276 -0.4962 -0.2816
   17MOL0     C 2208   5.177   1.164   0.952 -0.1818  0.4811 -0.5157
   17MOL0     C 2209   5.295   1.142   1.028 -0.0442 -0.5604 -0.4171
   17MOL0     N 2210   5.928   1.131   1.443 -0.1739  0.7630  0.3111
   17MOL0     N 2211   6.044   1.192   1.445  0.2701 -0.3654  0.3422
   17MOL0     C 2212   6.897   1.742   0.934  0.0410  0.3494  1.1571
   17MOL0     C 2213   6.961   1.772   0.807 -0.1797 -0.0289  0.6323
   17MOL0     C 2214   7.240   1.816   0.484  0.4914  0.2533  0.2980
   17MOL0     C 2215   7.309   1.701   0.429 -1.4170  0.1850  0.5810
   17MOL0     C 2216   7.434   1.720   0.359  0.7464 -0.3393 -0.0858
   17MOL0     C 2217   7.496   1.847   0.362  1.0209 -0.4562  0.0167
   17MOL0     O 2218   7.637   1.846   0.343  0.0292  0.3784 -0.4572
   17MOL0     C 2219   7.694   1.977   0.303 -0.5478 -0.1811  0.5196
   17MOL0     C 2220   7.838   1.951   0.264 -0.4854  0.6476  0.1480
   17MOL0     C 2221   7.903   2.080   0.199 -0.1327  0.4459  0.2288
   17MOL0     C 2222   8.029   2.039   0.125  0.2444 -0.7042 -2.0262
   17MOL0     C 2223   8.123   2.148   0.084 -0.6979  0.1933  1.1974
   17MOL0     C 2224   8.203   2.227   0.036  0.0876 -0.2970  0.1661
   17MOL0     C 2225   7.420   1.952   0.425 -0.3132 -0.3778 -0.2951
   17MOL0     C 2226   7.297   1.943   0.491 -1.1222 -0.0751  0.3445
   17MOL0     C 2227   7.231   2.064   0.556  0.5268  0.2063 -0.2036
   17MOL0     H 2228   7.081   1.460   0.737  0.3743  0.6593 -1.6869
   17MOL0     H 2229   6.958   1.405   0.942  0.4713 -0.8861 -1.4820
   17MOL0     H 2230   6.792   1.607   1.289 -2.9634 -1.1962 -1.2862
   17MOL0     H 2231   6.882   1.723   1.181  0.1424 -0.3698 -2.6564
   17MOL0     H 2232   6.655   1.761   1.079 -0.0158  0.6340  0.6143
   17MOL0     H 2233   6.649   1.787   1.259  1.6132 -0.0820  0.6960
   17MOL0     H 2234   6.569   1.538   1.263 -4.6993 -1.8361  0.5195
   17MOL0     H 2235   6.556   1.555   1.088  1.4065  2.3484 -1.0434
   17MOL0     H 2236   6.406   1.755   1.275 -0.0984  0.0575 -0.4869
   17MOL0     H 2237   6.423   1.737   1.105  2.1120 -0.8312 -0.2057
   17MOL0     H 2238   6.210   1.624   1.141 -1.4085 -1.3851  0.4736
   17MOL0     H 2239   6.315   1.479   1.141 -0.4118 -1.1143  1.3553
   17MOL0     H 2240   6.352   1.481   1.367  0.6712 -0.5571 -0.2324
   17MOL0     H 2241   6.259   1.636   1.389 -0.9189 -1.5051  0.9157
   17MOL0     H 2242   6.159   1.380   1.264  1.8137 -0.1024  0.3019
   17MOL0     H 2243   6.064   1.522   1.297  0.7425 -2.6513 -6.4463
   17MOL0     H 2244   6.219   1.389   1.521  1.5121  0.9753 -1.9022
   17MOL0     H 2245   6.076   1.496   1.532  0.2889 -1.1159  0.8596
   17MOL0     H 2246   5.846   1.420   1.555 -1.3801 -1.7359  1.7326
   17MOL0     H 2247   5.686   1.059   1.560  0.3668 -0.6096 -0.1877
   17MOL0     H 2248   5.663   1.220   1.627 -0.8413  1.2007 -1.3697
   17MOL0     H 2249   5.501   1.183   1.456  0.5091  0.0196  1.8429
   17MOL0     H 2250   5.620   1.304   1.394 -1.9201 -0.6596 -1.7121
   17MOL0     H 2251   5.645   0.988   1.335 -0.3238 -0.5063 -3.3931
   17MOL0     H 2252   5.724   1.111   1.246 -0.4463  0.4056 -0.5284
   17MOL0     H 2253   5.557   1.084   1.105  3.4310 -2.9262  1.2588
   17MOL0     H 2254   5.491   1.220   1.210  1.4536 -0.3649  0.8894
   17MOL0     H 2255   5.152   0.968   1.288  0.4633  0.6407 -0.8162
   17MOL0     H 2256   4.946   1.012   1.141  0.3327 -0.9981 -0.5021
   17MOL0     H 2257   4.567   1.070   1.016 -4.9125 -0.7531  0.3992
   17MOL0     H 2258   4.358   1.044   0.904  0.1888  0.1424  0.3874
   17MOL0     H 2259   4.199   0.862   0.722 -3.0811  2.6035  3.3123
   17MOL0     H 2260   4.173   1.022   0.747 -0.3436  0.2965 -0.2085
   17MOL0     H 2261   4.097   1.058   0.527 -2.0095  0.7579  6.3598
   17MOL0     H 2262   4.175   0.900   0.467  0.2677  2.0526 -1.6098
   17MOL0     H 2263   3.945   0.858   0.482  1.8960 -0.7727 -0.4838
   17MOL0     H 2264   4.011   0.794   0.637  1.5672  0.2364 -0.9571
   17MOL0     H 2265   3.871   1.057   0.602  1.9123  0.1747 -0.8094
   17MOL0     H 2266   3.961   1.006   0.749 -0.1270 -0.0865 -0.1434
   17MOL0     H 2267   3.717   0.994   0.769  1.5485  0.3796  0.4706
   17MOL0     H 2268   3.794   0.832   0.777  2.7618  0.7537  0.5896
   17MOL0     H 2269   3.672   0.958   0.528 -0.5660 -0.1170 -0.7645
   17MOL0     H 2270   3.702   0.784   0.553 -2.0905 -1.5994  2.2373
   17MOL0     H 2271   3.469   0.934   0.659  1.6299  1.0432  1.2293
   17MOL0     H 2272   3.528   0.781   0.735  1.5922  0.9871  0.8396
   17MOL0     H 2273   3.477   0.809   0.424 -3.7422 -0.0225 -1.2024
   17MOL0     H 2274   3.521   0.667   0.517  0.9717  0.8935  0.8177
   17MOL0     H 2275   4.587   0.951   0.538  2.6073 -0.0886  0.0376
   17MOL0     H 2276   4.786   0.968   0.663 -0.7204 -1.3434 -1.1378
   17MOL0     H 2277   5.194   1.223   0.863  1.7141  1.6419  0.5616
   17MOL0     H 2278   5.389   1.181   0.991  1.3591 -1.9495  1.4788
   17MOL0     H 2279   6.844   1.816   0.992  1.1595 -1.1053  4.2776
   17MOL0     H 2280   6.975   1.874   0.773  2.1366 -0.5683 -0.2423
   17MOL0     H 2281   7.268   1.601   0.437  0.9889 -0.9048  0.3252
   17MOL0     H 2282   7.485   1.631   0.322  0.9431 -0.8339  1.3044
   17MOL0     H 2283   7.691   2.057   0.378 -2.1913  0.1582  0.1136
   17MOL0     H 2284   7.634   2.008   0.217  0.6119  1.0761  0.1111
   17MOL0     H 2285   7.834   1.870   0.190 -0.9637  2.1888 -1.5775
   17MOL0     H 2286   7.894   1.917   0.352  0.8559 -2.7638 -1.8205
   17MOL0     H 2287   7.913   2.150   0.281  1.3792  1.5180 -0.8181
   17MOL0     H 2288   7.840   2.121   0.120  1.7103  1.8035 -0.6156
   17MOL0     H 2289   8.085   1.992   0.207 -0.2716  2.0307  0.0654
   17MOL0     H 2290   8.005   1.968   0.046 -2.7338  0.0405 -1.9109
   17MOL0     H 2291   8.283   2.294   0.011 -0.8039 -0.0275 -2.2257
   17MOL0     H 2292   7.462   2.052   0.427  1.7977 -1.2165 -0.0478
   17MOL0     H 2293   7.312   2.128   0.593  0.7774 -0.8282  1.1088
   17MOL0     H 2294   7.161   2.115   0.489  0.0423  1.1466  0.9798
   17MOL0     H 2295   7.177   2.041   0.648  0.8862  0.5637  0.0982
   18MOL0     O 2296   0.093   4.513   2.591  0.5527  0.5925 -0.2235
   18MOL0     C 2297   0.067   4.396   2.564 -0.2525  0.1215 -0.0846
   18MOL0     O 2298   0.159   4.302   2.530  0.2479 -0.3664 -1.0117
   18MOL0     C 2299   0.290   4.318   2.539 -0.3644 -0.3717  0.4073
   18MOL0     C 2300   0.359   4.401   2.445  0.7363 -0.0059  0.3838
   18MOL0     C 2301   0.493   4.409   2.448 -0.1352  0.0228  0.1967
   18MOL0     C 2302   0.566   4.334   2.536  0.6611 -0.0732  0.0448
   18MOL0     O 2303   0.708   4.346   2.548 -0.0517  0.8079  0.3113
   18MOL0     C 2304   0.786   4.447   2.478  0.6705 -0.2557  0.2744
   18MOL0     C 2305   0.920   4.371   2.468 -0.1082 -0.2721  0.4259
   18MOL0     C 2306   0.946   4.362   2.316 -0.0002 -0.0290 -0.4130
   18MOL0     C 2307   1.037   4.245   2.292 -0.2125 -0.1330  0.6064
   18MOL0     C 2308   1.136   4.278   2.178 -0.5095 -0.3287  0.1195
   18MOL0     C 2309   1.079   4.300   2.037 -0.7749  0.5267  1.2196
   18MOL0     C 2310   1.156   4.367   1.927  0.5956 -0.1964  0.1037
   18MOL0     C 2311   1.105   4.321   1.788  0.0499  0.2488 -0.1193
   18MOL0     N 2312   1.188   4.392   1.681 -0.3644  0.9223 -1.2451
   18MOL0     C 2313   1.326   4.368   1.666 -0.0749  0.1490  0.1038
   18MOL0     C 2314   1.346   4.427   1.543  0.5211 -0.4092 -0.3882
   18MOL0     C 2315   1.479   4.441   1.479  0.8330 -0.4673 -0.0617
   18MOL0     C 2316   1.478   4.389   1.332  0.1945  0.4777  0.2816
   18MOL0     C 2317   1.429   4.239   1.327  0.5396 -0.5723 -1.1162
   18MOL0     C 2318   1.459   4.172   1.198 -0.3698 -0.2516 -0.2895
   18MOL0     O 2319   1.405   4.265   1.100  0.6885  0.4158 -0.1085
   18MOL0     C 2320   1.455   4.236   0.967 -0.1013 -0.4209  0.4209
   18MOL0     C 2321   1.543   4.129   0.933 -0.9898 -0.2596 -0.1377
   18MOL0     C 2322   1.586   4.112   0.799 -1.2744  0.3736 -0.6988
   18MOL0     C 2323   1.554   4.200   0.698 -0.3735 -0.5574 -0.6114
   18MOL0     C 2324   1.612   4.192   0.554  0.0159 -0.7158 -0.1838
   18MOL0     O 2325   1.573   4.285   0.468  0.1625  0.1281 -0.1817
   18MOL0     C 2326   1.638   4.282   0.351 -0.3952 -0.7719 -0.1612
   18MOL0     C 2327   1.773   4.324   0.334  0.0806  0.4612 -0.2553
   18MOL0     C 2328   1.825   4.319   0.198 -0.1104  0.0958  0.3159
   18MOL0     C 2329   1.764   4.252   0.095 -0.2400 -0.1634 -0.9945
   18MOL0     O 2330   1.845   4.250  -0.018 -0.4839 -0.1797  0.7130
   18MOL0     C 2331   1.782   4.181  -0.133 -0.4941 -0.1418 -0.0598
   18MOL0     C 2332   1.795   4.027  -0.117 -0.0062 -0.7715  0.1160
   18MOL0     C 2333   1.947   3.995  -0.086  0.0505 -0.2618  0.2524
   18MOL0     C 2334   1.976   3.989   0.063  0.5889 -0.2910 -0.8352
   18MOL0     C 2335   2.105   3.926   0.101  0.0492 -0.5605  0.0260
   18MOL0     C 2336   2.133   3.927   0.251  0.2634 -0.3648  0.5481
   18MOL0     C 2337   2.142   4.063   0.338 -0.7508 -0.0090  0.3023
   18MOL0     C 2338   2.191   4.039   0.484 -0.2177  0.2802 -0.4744
   18MOL0    Cl 2339   2.058   3.957   0.563 -0.0339  0.0726  0.1419
   18MOL0     C 2340   1.632   4.208   0.115 -0.3145  0.2678  0.7628
   18MOL0     C 2341   1.582   4.213   0.244 -0.0286 -0.6100 -0.0811
   18MOL0     O 2342   1.706   4.106   0.544  1.5524 -1.1401  0.5570
   18MOL0     C 2343   1.459   4.305   0.729  0.4649 -0.8330 -1.0706
   18MOL0     C 2344   1.411   4.317   0.862 -0.8703  0.1845  1.4713
   18MOL0     N 2345   1.230   4.474   1.489  0.0895 -0.1658  0.2722
   18MOL0     N 2346   1.146   4.465   1.581  0.3116  0.3353 -0.0929
   18MOL0     C 2347   0.502   4.253   2.640 -1.1614 -0.3907 -0.0581
   18MOL0     C 2348   0.360   4.246   2.637  0.6258 -0.1909 -0.1110
   18MOL0     C 2349  -0.073   4.349   2.588  0.4161  0.0945  0.7963
   18MOL0     C 2350  -0.166   4.455   2.586 -0.4922  0.5608 -0.4299
   18MOL0     C 2351  -0.295   4.426   2.619 -0.3247 -0.5045  0.3075
   18MOL0     C 2352  -0.345   4.292   2.620 -0.0680  0.6552 -0.0954
   18MOL0     O 2353  -0.476   4.265   2.636  0.6869  0.3508  0.3536
   18MOL0     C 2354  -0.526   4.135   2.675 -0.1856  0.5195  0.7283
   18MOL0     C 2355  -0.680   4.143   2.709 -0.2094 -0.1693 -0.1216
   18MOL0     C 2356  -0.720   4.219   2.837  0.3971 -0.1317  0.1039
   18MOL0     C 2357  -0.865   4.247   2.837  0.4407  0.6473 -0.1622
   18MOL0     C 2358  -0.932   4.114   2.830 -0.4430  0.6730  0.0208
   18MOL0     C 2359  -0.996   4.009   2.829  0.3533  0.9377  0.5149
   18MOL0     C 2360  -0.249   4.190   2.622  0.0618  0.1175 -0.5874
   18MOL0     C 2361  -0.113   4.213   2.602 -0.2703 -0.1612  0.3928
   18MOL0     C 2362  -0.012   4.098   2.622 -0.0007 -0.8988  0.2278
   18MOL0     H 2363   0.307   4.457   2.367  2.2534 -0.4378 -0.9908
   18MOL0     H 2364   0.546   4.453   2.364  1.8858 -1.3568  0.6839
   18MOL0     H 2365   0.741   4.475   2.382  0.9627  0.6947  0.4107
   18MOL0     H 2366   0.785   4.534   2.544  0.0359 -0.5101  0.6011
   18MOL0     H 2367   0.919   4.268   2.504  0.0607 -1.7857 -3.4480
   18MOL0     H 2368   0.994   4.429   2.526 -0.6654  1.4742 -0.5185
   18MOL0     H 2369   0.977   4.463   2.285 -1.1574  1.1645  2.0196
   18MOL0     H 2370   0.850   4.347   2.265 -1.2613  1.4898  1.3479
   18MOL0     H 2371   1.104   4.233   2.378  0.7424  1.9909  0.2264
   18MOL0     H 2372   0.980   4.154   2.270 -0.9527  1.0331 -2.7875
   18MOL0     H 2373   1.189   4.369   2.209  1.4561 -1.0526 -0.9973
   18MOL0     H 2374   1.212   4.200   2.173 -0.1768  0.0391 -0.6813
   18MOL0     H 2375   1.054   4.199   2.004  0.0764  1.2141 -1.8243
   18MOL0     H 2376   0.984   4.354   2.031  0.1847  2.3066  1.4920
   18MOL0     H 2377   1.263   4.346   1.921  1.1007  2.2294 -0.5990
   18MOL0     H 2378   1.157   4.474   1.947  0.8583 -0.3996  1.2152
   18MOL0     H 2379   1.109   4.212   1.789 -0.1257  0.2429  1.2457
   18MOL0     H 2380   1.005   4.363   1.774  0.8739  2.1581 -0.6368
   18MOL0     H 2381   1.397   4.326   1.737  2.6091  1.9988 -1.3272
   18MOL0     H 2382   1.510   4.546   1.484  1.4767 -0.6597  3.9022
   18MOL0     H 2383   1.559   4.393   1.537 -0.5164  1.2157  3.5025
   18MOL0     H 2384   1.410   4.451   1.273  1.2180 -0.1007 -1.5875
   18MOL0     H 2385   1.577   4.403   1.288 -1.1846  0.0091 -3.2906
   18MOL0     H 2386   1.324   4.216   1.349  0.3147 -0.1617 -1.7211
   18MOL0     H 2387   1.487   4.188   1.403  1.1848 -1.5050 -2.2027
   18MOL0     H 2388   1.410   4.074   1.195  1.6105 -1.2926 -0.2438
   18MOL0     H 2389   1.567   4.164   1.184  0.3024  3.1656  1.6858
   18MOL0     H 2390   1.564   4.049   1.003  0.2654 -0.9077 -1.2075
   18MOL0     H 2391   1.654   4.038   0.759  1.2954  2.4003 -0.2946
   18MOL0     H 2392   1.843   4.348   0.413  1.2303 -2.2422 -0.3090
   18MOL0     H 2393   1.921   4.366   0.180 -0.8428  2.0273  1.1082
   18MOL0     H 2394   1.677   4.211  -0.131 -0.4721 -0.0452  1.8586
   18MOL0     H 2395   1.827   4.212  -0.227 -3.0461  2.3718 -0.6090
   18MOL0     H 2396   1.725   3.997  -0.038 -0.8213  0.0133 -0.2890
   18MOL0     H 2397   1.767   3.966  -0.204 -0.3420 -1.4679  0.7002
   18MOL0     H 2398   1.970   3.901  -0.136  2.4487  0.1149  0.5238
   18MOL0     H 2399   2.006   4.072  -0.135  0.0528 -0.3695  0.0866
   18MOL0     H 2400   1.891   3.945   0.116  1.2291 -3.3790 -2.1459
   18MOL0     H 2401   1.977   4.094   0.093 -0.6370 -1.3620  3.5928
   18MOL0     H 2402   2.194   3.966   0.053  0.7246 -2.3992 -0.3477
   18MOL0     H 2403   2.098   3.824   0.063  4.9319 -0.8132 -0.7481
   18MOL0     H 2404   2.060   3.858   0.293  1.1683 -1.6449  0.1000
   18MOL0     H 2405   2.234   3.885   0.258  0.6758  0.1436 -1.5320
   18MOL0     H 2406   2.051   4.122   0.327 -0.7748 -0.1766 -0.4387
   18MOL0     H 2407   2.217   4.124   0.285 -2.5529  0.0993 -2.2944
   18MOL0     H 2408   2.277   3.975   0.502 -1.4351 -1.8339 -1.7123
   18MOL0     H 2409   2.212   4.132   0.537  2.5970 -1.1700  1.1864
   18MOL0     H 2410   1.567   4.161   0.042  1.5406  0.6419 -1.2266
   18MOL0     H 2411   1.480   4.176   0.254 -0.4519  0.5197  0.0112
   18MOL0     H 2412   1.430   4.381   0.657 -1.1192  1.3853  1.6832
   18MOL0     H 2413   1.330   4.386   0.885 -1.9431 -0.3188 -0.6057
   18MOL0     H 2414   0.570   4.197   2.703  0.1373  0.7735 -0.3923
   18MOL0     H 2415   0.295   4.194   2.706  3.1375  0.5134  3.0406
   18MOL0     H 2416  -0.131   4.557   2.573 -1.6911  1.1011  0.4227
   18MOL0     H 2417  -0.368   4.506   2.626 -0.0728 -0.1325 -0.9577
   18MOL0     H 2418  -0.473   4.095   2.761 -0.1180  0.3482  0.6077
   18MOL0     H 2419  -0.519   4.063   2.593  1.8430  0.2773  1.0591
   18MOL0     H 2420  -0.711   4.040   2.729 -3.4101  0.8114  0.4912
   18MOL0     H 2421  -0.736   4.183   2.624 -1.8071 -2.2893 -0.1540
   18MOL0     H 2422  -0.669   4.316   2.837 -1.4379  0.8772  1.1899
   18MOL0     H 2423  -0.689   4.176   2.933  1.7267  1.5220  0.4546
   18MOL0     H 2424  -0.906   4.308   2.918 -1.8475 -0.4068 -0.4637
   18MOL0     H 2425  -0.877   4.295   2.739 -0.4004  0.8264  0.0282
   18MOL0     H 2426  -1.050   3.917   2.831 -0.8885  1.3606 -3.7846
   18MOL0     H 2427  -0.278   4.085   2.625  2.6155 -0.7046 -1.9310
   18MOL0     H 2428   0.059   4.116   2.704  0.2192  0.0869 -0.1665
   18MOL0     H 2429  -0.051   3.997   2.636  2.1530 -1.9953 -1.1801
   18MOL0     H 2430   0.045   4.091   2.529 -2.6900  1.8737 -1.8196
   19MOL0     O 2431   3.753   5.858   4.259 -0.1258  0.5706 -0.5450
   19MOL0     C 2432   3.710   5.909   4.158  0.1572 -0.4320 -0.4194
   19MOL0     O 2433   3.580   5.900   4.116  0.1949  0.0518  0.0792
   19MOL0     C 2434   3.474   5.879   4.204 -0.9056  0.3336  0.1115
   19MOL0     C 2435   3.365   5.797   4.164 -0.9218 -0.1789 -0.2609
   19MOL0     C 2436   3.250   5.786   4.246 -0.3933  0.1533 -0.0009
   19MOL0     C 2437   3.246   5.848   4.368 -0.7398 -0.8637  0.2916
   19MOL0     O 2438   3.129   5.832   4.439  0.3881 -0.1030 -0.2616
   19MOL0     C 2439   3.103   5.904   4.563  0.4895 -0.4888  0.0665
   19MOL0     C 2440   2.972   5.971   4.548  0.1657 -0.3755  0.3562
   19MOL0     C 2441   2.945   6.072   4.656 -0.3206  0.2621  0.3313
   19MOL0     C 2442   2.784   6.079   4.670 -0.3966  0.2045  0.3406
   19MOL0     C 2443   2.758   6.161   4.797  0.0923  0.5160  0.1994
   19MOL0     C 2444   2.601   6.177   4.825 -0.4133  0.1363 -0.7288
   19MOL0     C 2445   2.540   6.288   4.734  0.1548  0.6546  0.6182
   19MOL0     C 2446   2.453   6.382   4.816  0.9012 -0.5992  0.7661
   19MOL0     N 2447   2.318   6.327   4.832  0.0286  0.1597 -0.0025
   19MOL0     C 2448   2.273   6.263   4.940  0.1367  1.1976 -0.5066
   19MOL0     C 2449   2.139   6.233   4.898 -0.5676  0.1782 -0.3244
   19MOL0     C 2450   2.048   6.137   4.978  0.1277 -0.9578  0.0289
   19MOL0     C 2451   1.960   6.217   5.069 -0.1766 -0.4527  0.2794
   19MOL0     C 2452   2.032   6.238   5.203  0.2796 -0.5400 -0.2839
   19MOL0     C 2453   1.969   6.345   5.294  0.6610 -0.1279 -1.1377
   19MOL0     O 2454   2.049   6.328   5.412  0.3192  0.4157  0.6477
   19MOL0     C 2455   1.990   6.295   5.532  0.7059  0.6974  0.3377
   19MOL0     C 2456   1.855   6.264   5.555 -0.1931  0.5768  0.3897
   19MOL0     C 2457   1.806   6.223   5.682 -1.0804 -0.2252  0.0537
   19MOL0     C 2458   1.902   6.208   5.793  0.1496 -0.2031  0.1939
   19MOL0     C 2459   1.856   6.171   5.930  0.1733 -0.8084 -0.2510
   19MOL0     O 2460   1.726   6.183   5.951  0.0664 -0.1456  0.0755
   19MOL0     C 2461   1.674   6.164   6.082 -0.2319 -0.4794 -0.3990
   19MOL0     C 2462   1.682   6.260   6.187 -0.6338  0.0017 -0.3952
   19MOL0     C 2463   1.633   6.246   6.316 -0.8411  0.1532 -0.2891
   19MOL0     C 2464   1.557   6.126   6.339 -1.0102  0.7559 -0.0766
   19MOL0     O 2465   1.494   6.103   6.459  0.0306 -0.0742 -0.6614
   19MOL0     C 2466   1.457   6.220   6.523  0.1578  0.8391 -0.6506
   19MOL0     C 2467   1.356   6.187   6.628  0.1020  0.1488 -0.8210
   19MOL0     C 2468   1.267   6.304   6.674 -0.1355 -0.6983 -0.6049
   19MOL0     C 2469   1.207   6.395   6.566 -0.9733 -0.1431  0.1855
   19MOL0     C 2470   1.135   6.519   6.614  0.5453 -0.1512  0.5862
   19MOL0     C 2471   1.002   6.486   6.688 -0.4460  0.1137 -0.1878
   19MOL0     C 2472   0.913   6.405   6.600 -0.5102  0.9287  0.9327
   19MOL0     C 2473   0.777   6.388   6.661  0.4173 -0.5119  1.6133
   19MOL0    Cl 2474   0.771   6.269   6.795  0.0629  0.1879 -0.0879
   19MOL0     C 2475   1.536   6.032   6.239  0.2566 -0.6957  0.6740
   19MOL0     C 2476   1.592   6.048   6.104  0.3799 -0.5946 -0.1626
   19MOL0     O 2477   1.934   6.143   6.017 -0.1088 -0.5510  0.0955
   19MOL0     C 2478   2.038   6.234   5.762 -0.0105 -0.5555  0.3989
   19MOL0     C 2479   2.082   6.281   5.634  0.4848 -0.0405 -0.1116
   19MOL0     N 2480   2.108   6.303   4.780 -0.8540 -0.7689  0.7842
   19MOL0     N 2481   2.225   6.348   4.734  0.4305 -0.9296 -0.0582
   19MOL0     C 2482   3.364   5.913   4.408 -0.1094 -0.0736 -0.4615
   19MOL0     C 2483   3.475   5.933   4.333 -0.1872 -0.3634 -0.3179
   19MOL0     C 2484   3.799   5.969   4.052  0.8662 -0.4788 -0.4773
   19MOL0     C 2485   3.735   6.012   3.933  0.0323 -0.4394  0.5402
   19MOL0     C 2486   3.804   6.071   3.824 -0.0610 -0.2490  0.3956
   19MOL0     C 2487   3.941   6.081   3.816  0.6446  0.9233 -0.3059
   19MOL0     O 2488   4.014   6.108   3.703  0.5219 -0.8151 -0.8364
   19MOL0     C 2489   3.959   6.147   3.576 -0.9159  0.1642  0.1076
   19MOL0     C 2490   4.063   6.234   3.514 -0.6631 -1.6470 -0.5365
   19MOL0     C 2491   4.102   6.359   3.597 -1.5170  0.7999  0.9468
   19MOL0     C 2492   4.221   6.424   3.540 -0.4793 -0.6220  0.5713
   19MOL0     C 2493   4.244   6.545   3.618 -1.0137 -0.3555 -0.4514
   19MOL0     C 2494   4.254   6.631   3.694  0.5909 -0.1367  0.7528
   19MOL0     C 2495   4.011   6.043   3.933 -0.2806 -0.0004  0.1266
   19MOL0     C 2496   3.942   5.985   4.041  0.1807  1.0407  0.4619
   19MOL0     C 2497   4.033   5.948   4.152 -0.1121  0.3308 -1.0547
   19MOL0     H 2498   3.381   5.733   4.078  0.8252 -1.4256  0.9129
   19MOL0     H 2499   3.168   5.724   4.212  0.3596 -0.0270 -1.5645
   19MOL0     H 2500   3.101   5.834   4.647 -0.6555  0.6700  1.0575
   19MOL0     H 2501   3.177   5.981   4.590 -1.4939  0.9609  1.6769
   19MOL0     H 2502   2.896   5.893   4.550  1.0885 -1.3034  0.1296
   19MOL0     H 2503   2.971   6.025   4.452 -0.9006 -1.7598 -0.4395
   19MOL0     H 2504   2.997   6.167   4.641  0.2470 -0.3307 -1.8335
   19MOL0     H 2505   2.979   6.037   4.754  0.0212  0.0256  0.1270
   19MOL0     H 2506   2.747   6.129   4.580  0.2593 -0.5067 -0.3417
   19MOL0     H 2507   2.727   5.986   4.674 -1.6253  0.9400  4.2479
   19MOL0     H 2508   2.810   6.112   4.879 -2.3395  0.6012  1.8860
   19MOL0     H 2509   2.803   6.260   4.781 -0.2830  0.3383 -2.4999
   19MOL0     H 2510   2.552   6.080   4.836  3.8408 -2.1298  0.5866
   19MOL0     H 2511   2.615   6.217   4.926 -0.3788  0.3830 -0.8320
   19MOL0     H 2512   2.486   6.246   4.649  1.5104  0.9605 -0.4208
   19MOL0     H 2513   2.623   6.345   4.691  0.9877 -1.0226 -0.0895
   19MOL0     H 2514   2.512   6.407   4.904  0.8786  0.4025  0.5113
   19MOL0     H 2515   2.431   6.470   4.755  0.6755 -0.4906  1.0015
   19MOL0     H 2516   2.330   6.228   5.025 -1.0703 -0.9722 -0.5063
   19MOL0     H 2517   1.984   6.089   4.904 -2.9936  3.4186 -0.5064
   19MOL0     H 2518   2.109   6.070   5.040  3.2710  3.5106  2.2975
   19MOL0     H 2519   1.939   6.316   5.027 -1.2147  0.2947  2.4020
   19MOL0     H 2520   1.861   6.173   5.084 -0.4266 -0.2646 -0.7827
   19MOL0     H 2521   2.137   6.268   5.193  0.1724 -0.1440 -0.2431
   19MOL0     H 2522   2.027   6.143   5.256 -0.8450  0.3483  1.2806
   19MOL0     H 2523   1.860   6.344   5.306  0.7049  1.0304 -0.4722
   19MOL0     H 2524   1.995   6.438   5.244  1.6972 -0.1193 -0.6157
   19MOL0     H 2525   1.776   6.264   5.480  1.0175 -1.3592 -0.9825
   19MOL0     H 2526   1.704   6.194   5.701 -1.3679 -0.8046 -2.1065
   19MOL0     H 2527   1.730   6.354   6.163  1.3864 -0.9084 -0.0889
   19MOL0     H 2528   1.650   6.326   6.387  0.7205  0.3515 -0.8496
   19MOL0     H 2529   1.546   6.271   6.563  0.7383  1.4567 -2.6013
   19MOL0     H 2530   1.421   6.291   6.449  0.0398  0.8915 -0.5444
   19MOL0     H 2531   1.293   6.111   6.581  3.0053 -1.5514 -2.2434
   19MOL0     H 2532   1.408   6.150   6.717 -0.0924  3.7039  0.9653
   19MOL0     H 2533   1.181   6.271   6.731 -1.6642  1.0192 -1.8071
   19MOL0     H 2534   1.331   6.364   6.740  0.5410  0.0526 -1.8857
   19MOL0     H 2535   1.144   6.332   6.502  2.4198 -0.2542 -3.4675
   19MOL0     H 2536   1.288   6.428   6.500 -0.9412  0.6688  0.6160
   19MOL0     H 2537   1.112   6.578   6.524  0.3592 -0.6156  0.3208
   19MOL0     H 2538   1.195   6.580   6.681 -2.4888  2.1154  1.5010
   19MOL0     H 2539   1.033   6.445   6.784  5.1202  2.7869 -0.4579
   19MOL0     H 2540   0.937   6.572   6.706 -0.9855 -0.8625  3.2709
   19MOL0     H 2541   0.946   6.301   6.589 -1.7713  0.3190  2.4392
   19MOL0     H 2542   0.904   6.441   6.497 -2.0206  1.1233  1.1084
   19MOL0     H 2543   0.751   6.489   6.693  2.6528  0.7320 -0.1891
   19MOL0     H 2544   0.715   6.351   6.579 -0.0383  0.2974  1.5851
   19MOL0     H 2545   1.466   5.949   6.248 -0.8610 -0.2116 -2.3431
   19MOL0     H 2546   1.584   5.977   6.023  0.0477 -0.2194 -0.4626
   19MOL0     H 2547   2.104   6.223   5.848  0.6631  0.8637  0.0801
   19MOL0     H 2548   2.187   6.302   5.617  0.7906  0.4627  2.1237
   19MOL0     H 2549   3.363   5.973   4.499 -1.6486  1.2160 -1.2701
   19MOL0     H 2550   3.562   5.994   4.356  0.3449 -1.6153  1.1500
   19MOL0     H 2551   3.627   6.008   3.921  0.2686  0.3619 -3.2775
   19MOL0     H 2552   3.744   6.093   3.736  1.2998 -1.4103 -0.8776
   19MOL0     H 2553   3.858   6.187   3.589 -2.1175 -2.7093  0.2349
   19MOL0     H 2554   3.958   6.061   3.508  2.0727  1.7451 -2.2024
   19MOL0     H 2555   4.018   6.265   3.419 -1.6565 -1.3359  0.0148
   19MOL0     H 2556   4.151   6.170   3.504  0.3795 -0.1133 -1.6516
   19MOL0     H 2557   4.126   6.331   3.700  0.5433 -0.7095  0.1388
   19MOL0     H 2558   4.019   6.428   3.583 -0.2820  1.7301 -3.5240
   19MOL0     H 2559   4.317   6.373   3.548  0.1743  0.4971  0.2264
   19MOL0     H 2560   4.192   6.451   3.437  2.6996 -1.3389 -0.6367
   19MOL0     H 2561   4.262   6.715   3.759  0.4805  2.7164 -2.6402
   19MOL0     H 2562   4.111   6.081   3.950 -0.1872 -0.1075 -0.1838
   19MOL0     H 2563   4.084   5.852   4.142  0.4364  0.7316 -2.3578
   19MOL0     H 2564   4.115   6.018   4.169 -0.4510  0.9322 -1.8046
   19MOL0     H 2565   3.974   5.941   4.244  0.3304 -0.6881 -0.8379
   20MOL0     O 2566   4.581   3.639   6.644  0.5454 -0.1285 -1.4128
   20MOL0     C 2567   4.543   3.538   6.689  0.3005  0.1730  0.2691
   20MOL0     O 2568   4.626   3.442   6.766 -0.1102 -0.2834  0.0018
   20MOL0     C 2569   4.761   3.454   6.765 -0.0442 -0.9260  0.1595
   20MOL0     C 2570   4.818   3.528   6.872  0.0752 -0.0825  0.4757
   20MOL0     C 2571   4.959   3.550   6.878 -0.0959 -0.2033 -0.3239
   20MOL0     C 2572   5.036   3.505   6.774 -0.8177 -0.4298  0.6315
   20MOL0     O 2573   5.170   3.535   6.777 -0.4722 -0.2136 -0.6555
   20MOL0     C 2574   5.218   3.647   6.696  0.6113  1.2798  0.2984
   20MOL0     C 2575   5.380   3.648   6.697 -0.0834 -0.2973  0.7147
   20MOL0     C 2576   5.452   3.774   6.645 -0.9905 -0.0891  0.0544
   20MOL0     C 2577   5.419   3.886   6.732 -0.4403  0.6359  0.1249
   20MOL0     C 2578   5.520   4.000   6.726  0.6833  0.2084  0.6084
   20MOL0     C 2579   5.503   4.085   6.599  0.8862 -0.1145 -0.8167
   20MOL0     C 2580   5.623   4.178   6.578  0.6966  0.0313  0.2105
   20MOL0     C 2581   5.621   4.230   6.435  0.0683 -0.9940  0.1909
   20MOL0     N 2582   5.500   4.310   6.397  0.6807 -0.9093 -0.7698
   20MOL0     C 2583   5.395   4.265   6.328  0.7494  0.0080  0.5469
   20MOL0     C 2584   5.319   4.369   6.316  0.7211  0.4526 -0.4858
   20MOL0     C 2585   5.191   4.370   6.236  0.0880 -0.5040 -0.0507
   20MOL0     C 2586   5.062   4.441   6.302 -0.9111 -0.9210 -0.0986
   20MOL0     C 2587   5.026   4.390   6.442 -0.1827  1.3645 -0.3654
   20MOL0     C 2588   4.886   4.331   6.449 -0.4072  0.5601 -0.0229
   20MOL0     O 2589   4.879   4.212   6.368 -1.0222  0.6714  0.4797
   20MOL0     C 2590   4.757   4.200   6.305  0.5423 -0.7247 -0.3305
   20MOL0     C 2591   4.692   4.077   6.296  0.2166 -0.1921  0.0972
   20MOL0     C 2592   4.572   4.052   6.228 -0.5845  0.6518 -0.4960
   20MOL0     C 2593   4.513   4.159   6.163 -0.5729 -0.5446  1.4810
   20MOL0     C 2594   4.390   4.139   6.085  0.9021 -0.6867 -0.3706
   20MOL0     O 2595   4.313   4.248   6.083  0.2340 -0.3092 -0.0962
   20MOL0     C 2596   4.222   4.254   5.977 -0.0470 -0.2966 -0.4286
   20MOL0     C 2597   4.233   4.204   5.857 -0.1513  0.3357 -0.2800
   20MOL0     C 2598   4.137   4.228   5.765  0.4142 -0.1149 -0.5235
   20MOL0     C 2599   4.013   4.293   5.811  0.0118 -1.3410 -0.2206
   20MOL0     O 2600   3.902   4.323   5.728 -0.0046  0.2230 -0.4081
   20MOL0     C 2601   3.878   4.237   5.616 -0.1114 -0.5969 -0.5770
   20MOL0     C 2602   3.757   4.296   5.552  0.5418 -0.2759  0.9991
   20MOL0     C 2603   3.628   4.256   5.627 -0.7778  0.8742  0.3305
   20MOL0     C 2604   3.529   4.367   5.671  0.7083 -0.0657  0.6847
   20MOL0     C 2605   3.461   4.437   5.550  0.6544  0.8591  0.6648
   20MOL0     C 2606   3.393   4.577   5.589  0.3548  0.4263  0.4477
   20MOL0     C 2607   3.359   4.664   5.457 -0.0781 -0.7242 -0.1533
   20MOL0     C 2608   3.351   4.815   5.487  0.6428  0.1156  0.3440
   20MOL0    Cl 2609   3.521   4.867   5.532  0.3410  0.1454  0.2427
   20MOL0     C 2610   4.001   4.349   5.929 -0.2051  0.0625 -1.1270
   20MOL0     C 2611   4.108   4.326   6.017  0.9092  0.1910 -1.3415
   20MOL0     O 2612   4.365   4.033   6.025 -0.0174 -0.0472  0.2201
   20MOL0     C 2613   4.576   4.293   6.177  0.5168 -0.1350  0.2116
   20MOL0     C 2614   4.699   4.303   6.237 -0.1036 -0.1507 -0.7278
   20MOL0     N 2615   5.381   4.479   6.381  0.2008  0.4085 -0.0657
   20MOL0     N 2616   5.490   4.440   6.430 -0.4523 -0.6922  0.4382
   20MOL0     C 2617   4.986   3.430   6.669  0.3097 -0.4672  0.7657
   20MOL0     C 2618   4.847   3.412   6.665 -0.4547  1.0762 -0.0016
   20MOL0     C 2619   4.401   3.498   6.664  0.4320 -0.7749  0.2945
   20MOL0     C 2620   4.349   3.383   6.734 -0.9302  0.5182  0.4330
   20MOL0     C 2621   4.210   3.353   6.729 -0.1979 -0.0018 -0.6082
   20MOL0     C 2622   4.120   3.416   6.643  0.1661 -0.6165 -0.9094
   20MOL0     O 2623   3.985   3.382   6.616  0.0101  0.6870 -0.2303
   20MOL0     C 2624   3.938   3.257   6.672 -0.5154 -0.5245 -0.3763
   20MOL0     C 2625   4.022   3.139   6.611  0.2211  1.2227 -0.0140
   20MOL0     C 2626   3.927   3.058   6.527 -1.0865  0.5804 -0.6131
   20MOL0     C 2627   4.002   2.964   6.435 -0.1559 -1.0688  0.2033
   20MOL0     C 2628   3.917   2.853   6.387  0.2027 -0.7704  0.1021
   20MOL0     C 2629   3.841   2.774   6.334 -0.0206 -0.3785 -0.0892
   20MOL0     C 2630   4.170   3.524   6.570 -0.1928 -0.1828 -0.4202
   20MOL0     C 2631   4.304   3.563   6.574  0.1722 -0.4267 -0.2692
   20MOL0     C 2632   4.331   3.683   6.486  0.1551 -0.6508 -0.7773
   20MOL0     H 2633   4.754   3.578   6.944 -1.8692 -0.8084 -0.6627
   20MOL0     H 2634   5.013   3.610   6.950 -1.5830  0.6557  0.0972
   20MOL0     H 2635   5.174   3.651   6.596  0.0196  1.5046  0.5609
   20MOL0     H 2636   5.180   3.746   6.725 -2.0945  0.8447 -1.4230
   20MOL0     H 2637   5.409   3.559   6.641 -3.5912 -1.7558  0.9392
   20MOL0     H 2638   5.407   3.627   6.801  2.9628 -1.6216 -0.2423
   20MOL0     H 2639   5.426   3.803   6.543 -0.5787  1.7503  0.4496
   20MOL0     H 2640   5.559   3.752   6.647 -1.3657 -2.6238  3.5571
   20MOL0     H 2641   5.319   3.921   6.702 -0.5311 -1.1303 -1.7948
   20MOL0     H 2642   5.413   3.865   6.839  0.4377 -0.5942 -0.0454
   20MOL0     H 2643   5.505   4.072   6.807 -0.7083  0.9528 -0.2725
   20MOL0     H 2644   5.622   3.963   6.741  0.4516 -0.6182  0.2351
   20MOL0     H 2645   5.489   4.025   6.509  0.7676 -1.7399  0.2477
   20MOL0     H 2646   5.410   4.143   6.600  0.2461 -1.1127 -0.8111
   20MOL0     H 2647   5.718   4.125   6.589  1.1985  0.4155 -1.7906
   20MOL0     H 2648   5.617   4.264   6.646  2.8574  2.7061 -2.6768
   20MOL0     H 2649   5.705   4.298   6.423 -1.5485  0.8540 -1.4836
   20MOL0     H 2650   5.631   4.147   6.364  2.1931 -0.1580 -0.5358
   20MOL0     H 2651   5.379   4.168   6.282  1.2395  0.2468 -0.1426
   20MOL0     H 2652   5.208   4.422   6.141 -1.9178  1.3823  0.5123
   20MOL0     H 2653   5.174   4.263   6.221  0.8195 -0.9543  2.0179
   20MOL0     H 2654   5.088   4.547   6.300 -1.3721 -0.8100 -0.5289
   20MOL0     H 2655   4.976   4.428   6.235 -1.7980  1.9605  0.3632
   20MOL0     H 2656   5.029   4.467   6.519 -0.1515  0.1095  0.9187
   20MOL0     H 2657   5.102   4.316   6.470 -1.3845  0.8516  1.7088
   20MOL0     H 2658   4.816   4.409   6.419  1.1142  1.5275 -1.2402
   20MOL0     H 2659   4.870   4.306   6.554  2.3648 -1.7618 -0.0262
   20MOL0     H 2660   4.737   3.996   6.351  3.5421  1.2466 -0.2774
   20MOL0     H 2661   4.524   3.955   6.237  1.0044 -0.6119 -3.8377
   20MOL0     H 2662   4.305   4.127   5.831  0.5863  0.4596  1.3252
   20MOL0     H 2663   4.157   4.207   5.660 -0.5823  0.0974 -0.7698
   20MOL0     H 2664   3.961   4.251   5.546  0.4818 -0.0526  0.2105
   20MOL0     H 2665   3.873   4.129   5.631  1.6642 -0.6921 -0.4717
   20MOL0     H 2666   3.772   4.402   5.529 -1.0097 -0.2062  0.1408
   20MOL0     H 2667   3.741   4.255   5.452 -1.9949  2.0887  0.3081
   20MOL0     H 2668   3.567   4.187   5.569  0.8301  0.4028 -0.8500
   20MOL0     H 2669   3.669   4.197   5.710 -0.7892  0.8254  0.3009
   20MOL0     H 2670   3.586   4.449   5.716 -0.1477  1.5525 -1.0562
   20MOL0     H 2671   3.452   4.324   5.736  0.4117  1.9970  1.7717
   20MOL0     H 2672   3.379   4.373   5.516  2.2193 -1.2816  0.7298
   20MOL0     H 2673   3.543   4.435   5.479  2.2732  0.2103  2.4669
   20MOL0     H 2674   3.300   4.573   5.646 -0.3231  1.6332 -0.5254
   20MOL0     H 2675   3.455   4.629   5.663 -2.9329 -0.9567  4.5755
   20MOL0     H 2676   3.259   4.638   5.421 -0.8515  1.3494  0.3513
   20MOL0     H 2677   3.431   4.653   5.376 -1.1988  1.4564 -1.5388
   20MOL0     H 2678   3.339   4.879   5.399  0.2662 -2.6346 -1.7592
   20MOL0     H 2679   3.273   4.837   5.560 -1.0576 -1.5502 -0.8768
   20MOL0     H 2680   3.904   4.392   5.951  0.0143 -0.2110  0.5790
   20MOL0     H 2681   4.104   4.373   6.115  2.3100 -3.3464  0.6106
   20MOL0     H 2682   4.541   4.384   6.130 -1.4908 -0.6197  0.6750
   20MOL0     H 2683   4.744   4.401   6.227 -0.4395  0.1511  0.6005
   20MOL0     H 2684   5.051   3.393   6.590  0.7279 -0.5915  1.1608
   20MOL0     H 2685   4.792   3.358   6.589 -1.8384  2.2873  0.0939
   20MOL0     H 2686   4.414   3.316   6.789  1.9836  2.6095 -0.2266
   20MOL0     H 2687   4.182   3.265   6.786 -0.1326  0.2843 -0.1272
   20MOL0     H 2688   3.831   3.258   6.649 -0.6922 -0.9398  0.3941
   20MOL0     H 2689   3.944   3.247   6.781  0.2765  1.7371 -0.1502
   20MOL0     H 2690   4.067   3.086   6.695  2.7931 -0.9357 -2.5292
   20MOL0     H 2691   4.099   3.174   6.542  0.5610  3.2119  1.2837
   20MOL0     H 2692   3.858   3.121   6.471 -0.3349  0.5023 -1.6648
   20MOL0     H 2693   3.874   2.993   6.597  2.9896  1.1523  3.5539
   20MOL0     H 2694   4.038   3.021   6.348  2.2757  1.3454  2.5757
   20MOL0     H 2695   4.094   2.922   6.478 -0.5784 -1.4373  0.7655
   20MOL0     H 2696   3.780   2.706   6.277 -2.2331  0.6023  0.9758
   20MOL0     H 2697   4.104   3.571   6.498  2.9243  1.1885 -2.6391
   20MOL0     H 2698   4.241   3.744   6.482  0.7614  0.3719  0.2649
   20MOL0     H 2699   4.419   3.741   6.518 -0.8114  0.0569  0.7029
   20MOL0     H 2700   4.363   3.656   6.386 -1.5978 -4.7648 -0.4195
   21MOL0     O 2701   8.561   1.917  11.386 -0.1467 -0.5016 -0.0010
   21MOL0     C 2702   8.609   1.940  11.278  0.1028 -0.1807  0.1265
   21MOL0     O 2703   8.740   1.915  11.244  0.1180 -0.1122  0.3927
   21MOL0     C 2704   8.818   1.859  11.334 -0.2442 -0.5700  0.1790
   21MOL0     C 2705   8.938   1.932  11.360  0.1649 -0.3884 -0.6132
   21MOL0     C 2706   9.028   1.877  11.457  0.3307 -0.0197  0.3261
   21MOL0     C 2707   8.998   1.755  11.523 -1.2150 -1.1745  0.9734
   21MOL0     O 2708   9.092   1.718  11.618 -0.0822  0.1368 -0.3420
   21MOL0     C 2709   9.073   1.600  11.702 -0.4081 -0.1462 -0.3405
   21MOL0     C 2710   9.165   1.481  11.650 -0.6945 -0.9351 -0.2896
   21MOL0     C 2711   9.316   1.516  11.659  0.3144  0.3821  0.5175
   21MOL0     C 2712   9.410   1.396  11.635 -0.5573 -0.1749  0.7188
   21MOL0     C 2713   9.540   1.439  11.561 -0.5070 -0.1730  0.7263
   21MOL0     C 2714   9.628   1.527  11.639  0.2083  0.6673 -0.2894
   21MOL0     C 2715   9.744   1.576  11.560 -1.1968  0.2784 -0.1454
   21MOL0     C 2716   9.715   1.663  11.437 -0.0540 -1.2052 -0.1146
   21MOL0     N 2717   9.838   1.700  11.359 -0.3557  0.2748  0.3950
   21MOL0     C 2718   9.956   1.755  11.405  1.1125  0.2994  0.9986
   21MOL0     C 2719  10.031   1.770  11.293 -0.6175  0.2421  0.4582
   21MOL0     C 2720  10.175   1.821  11.282 -0.4520  0.7136 -0.1215
   21MOL0     C 2721  10.278   1.759  11.381  0.2821  0.6899  0.9972
   21MOL0     C 2722  10.310   1.619  11.335  0.1448  1.0392  0.7739
   21MOL0     C 2723  10.409   1.555  11.432 -0.2170  0.3541  0.5769
   21MOL0     O 2724  10.536   1.610  11.400  0.1640  0.3899 -0.1816
   21MOL0     C 2725  10.654   1.568  11.469 -0.4909  0.3573  0.9989
   21MOL0     C 2726  10.773   1.584  11.399  0.1584  0.0628 -0.6362
   21MOL0     C 2727  10.903   1.539  11.447  0.4134 -0.1460 -0.1511
   21MOL0     C 2728  10.919   1.481  11.577 -0.0529 -0.3122  0.1579
   21MOL0     C 2729  11.043   1.425  11.638  1.0467  0.2154  0.3300
   21MOL0     O 2730  11.042   1.376  11.765  0.1837 -0.0664 -0.3185
   21MOL0     C 2731  11.155   1.371  11.842  0.0563 -0.8007  0.9045
   21MOL0     C 2732  11.251   1.480  11.855 -0.5436 -0.4521  0.6485
   21MOL0     C 2733  11.344   1.478  11.954 -1.2480  0.2230  0.0272
   21MOL0     C 2734  11.352   1.363  12.036 -1.2940 -0.2250  0.0951
   21MOL0     O 2735  11.445   1.356  12.131  0.4387  0.6286  0.5425
   21MOL0     C 2736  11.524   1.479  12.175  0.7315  0.2438 -0.0744
   21MOL0     C 2737  11.604   1.472  12.301  0.1334  0.9647 -0.6538
   21MOL0     C 2738  11.685   1.595  12.321 -0.2432 -0.0183 -0.2257
   21MOL0     C 2739  11.768   1.590  12.451 -0.2877 -0.8227 -0.7618
   21MOL0     C 2740  11.832   1.723  12.466  0.2569  0.0453 -0.2929
   21MOL0     C 2741  11.932   1.724  12.589 -0.1119  0.1411 -0.2302
   21MOL0     C 2742  12.055   1.633  12.588 -0.5682 -0.0368 -0.1358
   21MOL0     C 2743  12.189   1.681  12.652 -0.3873  0.1789 -0.3189
   21MOL0    Cl 2744  12.268   1.528  12.729 -0.2399 -0.3472 -0.5407
   21MOL0     C 2745  11.255   1.256  12.026 -0.1708  0.1680 -0.1261
   21MOL0     C 2746  11.158   1.267  11.934 -0.4486 -0.7530 -0.3395
   21MOL0     O 2747  11.140   1.442  11.568 -0.1627 -0.1646 -0.4037
   21MOL0     C 2748  10.794   1.465  11.648 -0.0653  0.6130 -0.2025
   21MOL0     C 2749  10.665   1.503  11.588 -0.3029 -1.2474 -0.6343
   21MOL0     N 2750   9.951   1.739  11.176  0.0860  0.0385  0.0029
   21MOL0     N 2751   9.843   1.690  11.225 -0.0755 -0.6058  0.0023
   21MOL0     C 2752   8.883   1.687  11.483 -0.6111  0.0917  0.0026
   21MOL0     C 2753   8.797   1.743  11.385 -0.2248 -0.3311 -1.0264
   21MOL0     C 2754   8.520   2.000  11.169  0.6006  0.2308 -0.5633
   21MOL0     C 2755   8.384   2.020  11.214 -0.3238  0.8963 -1.1105
   21MOL0     C 2756   8.299   2.090  11.132  0.7238  0.0155  0.4344
   21MOL0     C 2757   8.329   2.132  10.999  0.0811  0.0477 -0.5682
   21MOL0     O 2758   8.233   2.199  10.923  0.2248  0.3630  0.8155
   21MOL0     C 2759   8.147   2.108  10.855  0.4385 -0.4509  0.4557
   21MOL0     C 2760   8.044   2.183  10.779  0.9562  0.1220  0.1545
   21MOL0     C 2761   7.950   2.273  10.858  0.1262  0.1291  0.5526
   21MOL0     C 2762   7.839   2.183  10.927 -0.0745  0.4997  0.4635
   21MOL0     C 2763   7.707   2.187  10.864 -0.1102  0.1042 -0.8364
   21MOL0     C 2764   7.592   2.185  10.815 -0.2868  0.8047  0.7978
   21MOL0     C 2765   8.463   2.100  10.949  0.4273 -0.2169  0.3741
   21MOL0     C 2766   8.555   2.042  11.039 -0.6835  0.5003  0.0402
   21MOL0     C 2767   8.705   2.036  10.993  0.2863  0.2233 -0.3945
   21MOL0     H 2768   8.952   2.035  11.330 -3.1414  0.9891  1.8481
   21MOL0     H 2769   9.122   1.924  11.484  1.0446 -1.6212  0.6868
   21MOL0     H 2770   9.120   1.627  11.797 -0.0326  0.5252 -0.7027
   21MOL0     H 2771   8.969   1.568  11.711 -0.3318 -0.1418  0.5990
   21MOL0     H 2772   9.139   1.464  11.545 -0.1235  2.4358 -1.0839
   21MOL0     H 2773   9.143   1.388  11.704  2.3186  0.1425  3.2397
   21MOL0     H 2774   9.354   1.553  11.755 -0.8997 -3.3367  2.6619
   21MOL0     H 2775   9.343   1.597  11.591  1.1800  0.7301  1.2479
   21MOL0     H 2776   9.442   1.346  11.727  3.9407  3.2106  1.3313
   21MOL0     H 2777   9.354   1.331  11.567 -0.3758  1.1497 -0.7475
   21MOL0     H 2778   9.597   1.348  11.540 -1.9340 -0.8836 -0.2215
   21MOL0     H 2779   9.509   1.478  11.464  0.0896 -2.3272 -0.4007
   21MOL0     H 2780   9.572   1.619  11.659 -0.7627 -0.1631  0.9132
   21MOL0     H 2781   9.671   1.485  11.730 -0.5599 -0.2553 -0.3432
   21MOL0     H 2782   9.818   1.500  11.534 -0.9839 -1.0616  3.7403
   21MOL0     H 2783   9.802   1.626  11.639  0.2153 -2.3959  0.6250
   21MOL0     H 2784   9.650   1.610  11.367 -1.0537 -0.1954  0.0186
   21MOL0     H 2785   9.661   1.748  11.480  2.3312 -1.1327  3.1077
   21MOL0     H 2786   9.984   1.782  11.506  0.1763 -1.1961  1.6966
   21MOL0     H 2787  10.208   1.822  11.177  1.5023  1.2448  0.4417
   21MOL0     H 2788  10.178   1.928  11.302  1.9145  0.8023 -0.5507
   21MOL0     H 2789  10.363   1.826  11.397  0.0285  0.9777  1.1403
   21MOL0     H 2790  10.246   1.758  11.485 -3.5173  2.0526  0.0169
   21MOL0     H 2791  10.358   1.630  11.237 -0.3042  0.1991  0.4522
   21MOL0     H 2792  10.224   1.553  11.322  1.2407 -0.5035  1.0641
   21MOL0     H 2793  10.417   1.447  11.418 -1.1203  0.0779  1.9643
   21MOL0     H 2794  10.405   1.583  11.538 -1.8349  1.4511  0.2660
   21MOL0     H 2795  10.771   1.639  11.305 -0.0535  0.6562 -0.2914
   21MOL0     H 2796  10.995   1.551  11.389  0.4471 -1.6313 -0.4432
   21MOL0     H 2797  11.236   1.575  11.804  2.9425  0.1387  0.4694
   21MOL0     H 2798  11.416   1.559  11.967  3.8408 -3.7898  0.3122
   21MOL0     H 2799  11.597   1.506  12.099  1.6505 -1.5173  0.1242
   21MOL0     H 2800  11.446   1.554  12.192  1.1840  1.1229 -1.6708
   21MOL0     H 2801  11.539   1.462  12.389  3.5258  0.0279  1.9356
   21MOL0     H 2802  11.666   1.383  12.297  0.4424  0.9070  2.5553
   21MOL0     H 2803  11.747   1.620  12.235 -1.1457  3.3744 -0.0200
   21MOL0     H 2804  11.618   1.681  12.330  0.4352  0.4567  0.4954
   21MOL0     H 2805  11.834   1.503  12.444 -0.7246 -1.6822  3.3613
   21MOL0     H 2806  11.709   1.568  12.540 -2.1544 -1.9617 -2.1975
   21MOL0     H 2807  11.757   1.797  12.494  1.0648  0.5272  0.6574
   21MOL0     H 2808  11.878   1.742  12.368  2.5315  2.0644  1.0505
   21MOL0     H 2809  11.971   1.826  12.586 -2.9319  1.2949 -1.0550
   21MOL0     H 2810  11.879   1.699  12.682 -0.0820  0.1440 -0.2125
   21MOL0     H 2811  12.084   1.615  12.484  0.8113 -2.2263  0.5762
   21MOL0     H 2812  12.030   1.537  12.634 -0.3270  0.5773  1.3437
   21MOL0     H 2813  12.257   1.740  12.589  2.0092  1.5588  3.2376
   21MOL0     H 2814  12.160   1.752  12.730 -1.4993  0.1870 -0.7173
   21MOL0     H 2815  11.279   1.170  12.087 -0.0838 -1.1240 -1.8910
   21MOL0     H 2816  11.085   1.186  11.936  1.0045 -2.0963  1.5756
   21MOL0     H 2817  10.796   1.423  11.747 -0.5738 -0.2418 -0.5445
   21MOL0     H 2818  10.574   1.492  11.646 -1.3928 -0.2730 -2.1066
   21MOL0     H 2819   8.868   1.582  11.508  0.3548 -0.1418 -0.3665
   21MOL0     H 2820   8.704   1.695  11.355 -0.5547 -1.1501  1.1200
   21MOL0     H 2821   8.353   1.999  11.316  0.6228  1.2171 -0.7502
   21MOL0     H 2822   8.197   2.114  11.163  0.9933  1.6697  0.1571
   21MOL0     H 2823   8.093   2.039  10.921 -1.3846  0.4422 -0.0274
   21MOL0     H 2824   8.208   2.052  10.784  1.5092  0.5539  0.5635
   21MOL0     H 2825   7.983   2.110  10.726 -1.1360  1.7384  0.2191
   21MOL0     H 2826   8.096   2.241  10.701  0.8547 -3.3318 -2.7585
   21MOL0     H 2827   7.909   2.351  10.793  0.4944 -0.1712 -0.0409
   21MOL0     H 2828   7.995   2.331  10.940  0.6861  0.2233  0.1843
   21MOL0     H 2829   7.871   2.080  10.911 -1.4160  0.3010 -1.3878
   21MOL0     H 2830   7.832   2.200  11.034 -0.5518 -1.0124  0.6939
   21MOL0     H 2831   7.492   2.183  10.776  0.7968  0.1106 -2.1839
   21MOL0     H 2832   8.495   2.130  10.850 -0.1312  1.9972  0.8054
   21MOL0     H 2833   8.766   2.086  11.069 -1.4738  1.8330  0.0325
   21MOL0     H 2834   8.748   1.937  10.976  1.7546  1.1732 -2.8389
   21MOL0     H 2835   8.714   2.083  10.895  0.6991 -1.1157 -1.0240
   22MOL0     O 2836   6.166  10.070   7.276  0.5093 -0.3860  0.1270
   22MOL0     C 2837   6.222  10.102   7.171  0.6994 -0.0874 -0.1905
   22MOL0     O 2838   6.167  10.152   7.058 -0.0740  0.6659  0.2528
   22MOL0     C 2839   6.027  10.144   7.039  0.5735  0.5748  0.3100
   22MOL0     C 2840   5.933  10.054   7.100 -0.2139 -0.5378  0.9769
   22MOL0     C 2841   5.793  10.070   7.082 -0.6212 -0.2875  0.2724
   22MOL0     C 2842   5.746  10.166   6.992  0.7721  0.7580 -1.0505
   22MOL0     O 2843   5.615  10.174   6.952 -0.6238  0.2956 -0.0832
   22MOL0     C 2844   5.514  10.166   7.052  0.4627 -0.1058 -0.3446
   22MOL0     C 2845   5.388  10.155   6.978 -0.3408  0.8140 -0.1033
   22MOL0     C 2846   5.303  10.276   6.967  0.0190 -0.1532 -0.0268
   22MOL0     C 2847   5.183  10.260   6.864  0.2470 -1.0345  0.2003
   22MOL0     C 2848   5.097  10.389   6.880 -0.4154  0.2391 -0.1009
   22MOL0     C 2849   5.161  10.526   6.846  0.6543 -0.5479 -0.4306
   22MOL0     C 2850   5.246  10.544   6.717  0.6010 -0.3199 -0.5016
   22MOL0     C 2851   5.318  10.674   6.702 -0.5370  0.1307 -0.5939
   22MOL0     N 2852   5.429  10.683   6.804 -0.3134 -0.1701  0.1204
   22MOL0     C 2853   5.525  10.590   6.852  0.8189 -0.2839 -0.1580
   22MOL0     C 2854   5.584  10.648   6.958 -0.5107  0.3513 -0.2735
   22MOL0     C 2855   5.690  10.583   7.034  0.8914  0.2349 -0.0235
   22MOL0     C 2856   5.833  10.632   6.982  0.3390  0.0987  0.0230
   22MOL0     C 2857   5.934  10.591   7.097  0.1518  1.4330  0.2505
   22MOL0     C 2858   6.079  10.617   7.048  0.4777 -0.5559 -0.2344
   22MOL0     O 2859   6.090  10.565   6.907  0.4972  0.3000 -0.3780
   22MOL0     C 2860   6.220  10.543   6.856  0.1199  0.2475 -0.1284
   22MOL0     C 2861   6.320  10.465   6.918 -0.8517 -0.6215 -0.2174
   22MOL0     C 2862   6.457  10.443   6.885  0.4141 -0.2853  0.0907
   22MOL0     C 2863   6.502  10.509   6.770  0.5557  0.0011 -0.3023
   22MOL0     C 2864   6.629  10.478   6.716  0.0248  0.3707 -0.1536
   22MOL0     O 2865   6.658  10.533   6.598  0.5397 -0.6079 -0.0407
   22MOL0     C 2866   6.777  10.527   6.524  0.2973 -0.2212 -0.3610
   22MOL0     C 2867   6.789  10.616   6.419 -0.4536 -0.3625  0.0511
   22MOL0     C 2868   6.903  10.606   6.329  0.7874  0.8424  0.6694
   22MOL0     C 2869   7.014  10.522   6.365  0.4945  0.1196 -0.5549
   22MOL0     O 2870   7.137  10.517   6.295 -0.1180 -0.0391  0.7710
   22MOL0     C 2871   7.139  10.576   6.163 -0.0036  0.1809 -0.1315
   22MOL0     C 2872   7.281  10.557   6.103 -0.2005 -0.2661 -1.0164
   22MOL0     C 2873   7.320  10.405   6.100 -0.0484 -0.8433  0.0839
   22MOL0     C 2874   7.218  10.307   6.047 -0.1274 -0.7357 -0.2658
   22MOL0     C 2875   7.255  10.159   6.092 -0.4020  0.0026 -0.1134
   22MOL0     C 2876   7.218  10.147   6.236 -0.4516 -0.5336 -0.1016
   22MOL0     C 2877   7.201  10.006   6.305  0.1725  0.4258  0.6494
   22MOL0     C 2878   7.292   9.904   6.251 -1.2191  0.6506 -0.7080
   22MOL0    Cl 2879   7.301   9.762   6.362 -0.1414 -0.1022 -0.0820
   22MOL0     C 2880   6.996  10.434   6.478  0.6474  0.1915  0.9778
   22MOL0     C 2881   6.880  10.434   6.552 -0.5212 -0.1034 -0.0878
   22MOL0     O 2882   6.714  10.429   6.795  0.8451  0.5566  0.3284
   22MOL0     C 2883   6.409  10.590   6.702 -0.4006  1.3847 -0.1699
   22MOL0     C 2884   6.268  10.600   6.735 -0.7490  0.8178 -1.6660
   22MOL0     N 2885   5.531  10.770   6.978 -0.4127 -0.3320  0.3710
   22MOL0     N 2886   5.435  10.792   6.893 -0.3224  0.3012  0.2877
   22MOL0     C 2887   5.836  10.243   6.926  0.2351 -0.4592  0.3962
   22MOL0     C 2888   5.972  10.232   6.956 -0.1680 -0.7524  0.4462
   22MOL0     C 2889   6.370  10.090   7.168 -0.3786 -0.3754  0.7237
   22MOL0     C 2890   6.426  10.065   7.048  0.0935 -0.2651  0.2105
   22MOL0     C 2891   6.561  10.054   7.019 -0.0719 -0.6528 -0.6072
   22MOL0     C 2892   6.653  10.058   7.130 -0.3911 -0.0010  0.0887
   22MOL0     O 2893   6.788  10.049   7.117  0.2387  0.3929 -0.3433
   22MOL0     C 2894   6.852  10.064   6.986  0.0604  0.2446 -0.7571
   22MOL0     C 2895   6.851  10.209   6.949  0.0935 -0.1712 -0.0718
   22MOL0     C 2896   6.970  10.292   7.000 -0.7277 -0.4276  0.2584
   22MOL0     C 2897   7.109  10.225   7.007  0.3841  0.0588 -0.2206
   22MOL0     C 2898   7.147  10.168   6.875  0.5767  0.7157  0.6099
   22MOL0     C 2899   7.179  10.132   6.762 -0.9102 -0.5637 -0.2123
   22MOL0     C 2900   6.604  10.066   7.260  0.3037 -0.1991  0.2303
   22MOL0     C 2901   6.466  10.087   7.283  0.2292 -0.4215  0.5904
   22MOL0     C 2902   6.413  10.124   7.418 -0.0020  0.2951  0.1372
   22MOL0     H 2903   5.958   9.969   7.163 -1.3543 -1.8364 -0.2620
   22MOL0     H 2904   5.723   9.994   7.113 -1.2705 -0.3923 -1.3412
   22MOL0     H 2905   5.526  10.077   7.114  2.2237 -1.7494 -2.8727
   22MOL0     H 2906   5.530  10.259   7.108 -1.0242 -0.6490  1.0680
   22MOL0     H 2907   5.318  10.079   7.014  1.1467  0.7993  3.0674
   22MOL0     H 2908   5.404  10.131   6.872 -0.0091 -1.3792  0.4077
   22MOL0     H 2909   5.364  10.354   6.920  1.5190 -2.1964 -1.6694
   22MOL0     H 2910   5.277  10.312   7.067  0.1573  0.8659 -0.3460
   22MOL0     H 2911   5.222  10.247   6.763  3.7485  0.8691  1.1602
   22MOL0     H 2912   5.122  10.172   6.884 -2.0914  0.3649 -0.3773
   22MOL0     H 2913   5.006  10.381   6.821  0.2263  0.3642 -1.1431
   22MOL0     H 2914   5.072  10.406   6.985  2.0728  4.5749  0.0546
   22MOL0     H 2915   5.085  10.602   6.829  0.2322  0.2695  3.9421
   22MOL0     H 2916   5.219  10.563   6.932  0.4799  0.8889 -0.9050
   22MOL0     H 2917   5.181  10.530   6.630  1.6966 -3.3705 -0.9510
   22MOL0     H 2918   5.319  10.464   6.709  3.0587  1.7431  0.1300
   22MOL0     H 2919   5.357  10.673   6.600 -0.5320 -3.5299 -0.7074
   22MOL0     H 2920   5.252  10.760   6.712  0.7338  0.9243  1.5667
   22MOL0     H 2921   5.553  10.495   6.809  1.9875 -0.3860  0.7772
   22MOL0     H 2922   5.664  10.611   7.137  0.0669 -0.1603 -0.1098
   22MOL0     H 2923   5.682  10.475   7.020  4.5195  0.1659 -2.9479
   22MOL0     H 2924   5.854  10.586   6.885  1.3608  2.4501 -0.9283
   22MOL0     H 2925   5.849  10.739   6.964 -1.4628  0.3221 -0.4945
   22MOL0     H 2926   5.920  10.487   7.128  0.3961  1.9869  2.3885
   22MOL0     H 2927   5.921  10.646   7.190 -4.0109 -1.2722  1.5363
   22MOL0     H 2928   6.144  10.555   7.111 -2.4085 -0.3135  3.3119
   22MOL0     H 2929   6.106  10.723   7.039 -1.4630 -0.1359 -1.7128
   22MOL0     H 2930   6.303  10.410   7.010 -2.7292  2.9515  1.7989
   22MOL0     H 2931   6.525  10.381   6.943 -0.5066 -1.4010 -0.0022
   22MOL0     H 2932   6.704  10.682   6.403 -0.6957 -1.0064 -1.5651
   22MOL0     H 2933   6.916  10.677   6.248  3.2789  2.8043  2.6591
   22MOL0     H 2934   7.067  10.543   6.088  1.1126  1.3050 -1.7641
   22MOL0     H 2935   7.123  10.684   6.166  0.2266  0.2119  0.0198
   22MOL0     H 2936   7.297  10.612   6.009 -0.5774  0.7253 -0.5249
   22MOL0     H 2937   7.357  10.597   6.170 -1.6353 -1.0473  1.1794
   22MOL0     H 2938   7.408  10.405   6.035 -1.7909  3.1659 -2.6314
   22MOL0     H 2939   7.352  10.392   6.204 -3.6336  0.7674  1.5768
   22MOL0     H 2940   7.210  10.305   5.938 -0.4838  0.4683 -0.2732
   22MOL0     H 2941   7.122  10.338   6.091 -0.3029 -0.1706 -1.0218
   22MOL0     H 2942   7.357  10.121   6.084 -0.4238 -0.1850  0.4608
   22MOL0     H 2943   7.188  10.095   6.033  0.3959 -0.8914 -0.0700
   22MOL0     H 2944   7.275  10.221   6.292 -1.8882 -0.2572  1.0514
   22MOL0     H 2945   7.121  10.196   6.248 -0.7972 -1.5950  2.0555
   22MOL0     H 2946   7.096   9.977   6.300 -0.3814  1.8707  2.6406
   22MOL0     H 2947   7.226  10.026   6.410 -0.4338 -1.3416  1.1525
   22MOL0     H 2948   7.257   9.867   6.154 -0.2340  1.4038 -1.3686
   22MOL0     H 2949   7.395   9.940   6.243 -0.7214 -0.4661  0.4111
   22MOL0     H 2950   7.076  10.363   6.493 -0.3460 -1.1404  0.2287
   22MOL0     H 2951   6.884  10.368   6.638 -0.9659  2.6094  2.1483
   22MOL0     H 2952   6.450  10.632   6.611  1.4336 -0.3751 -0.2208
   22MOL0     H 2953   6.199  10.658   6.675 -2.1019 -1.6766 -2.6653
   22MOL0     H 2954   5.799  10.316   6.854  2.7832  0.7170  0.1710
   22MOL0     H 2955   6.027  10.312   6.908 -1.4915  0.0177  0.1331
   22MOL0     H 2956   6.362  10.056   6.961 -2.0222 -2.2107  1.8347
   22MOL0     H 2957   6.590  10.043   6.916  0.3166 -1.0165 -0.4584
   22MOL0     H 2958   6.808  10.011   6.901  0.1573 -0.2653 -0.4935
   22MOL0     H 2959   6.955  10.027   6.992 -0.3780 -0.7613  1.8674
   22MOL0     H 2960   6.763  10.266   6.981  1.6677  1.3986  1.6828
   22MOL0     H 2961   6.854  10.215   6.840  0.3938  0.9901 -0.0154
   22MOL0     H 2962   6.948  10.324   7.103  0.1025  0.8831  0.0492
   22MOL0     H 2963   6.973  10.390   6.952 -0.0408 -0.7542 -0.3712
   22MOL0     H 2964   7.180  10.302   7.040 -1.0099  1.0035  0.6863
   22MOL0     H 2965   7.122  10.149   7.085  0.8521 -0.0525 -0.4018
   22MOL0     H 2966   7.215  10.112   6.663 -0.6544  1.3859 -0.5409
   22MOL0     H 2967   6.685  10.069   7.332 -0.2756 -2.2838  1.0384
   22MOL0     H 2968   6.337  10.052   7.449  0.0668  0.7706  1.4892
   22MOL0     H 2969   6.498  10.127   7.487 -0.1845  1.6056  0.3380
   22MOL0     H 2970   6.370  10.224   7.408 -0.5692 -0.2016 -3.6772
   23MOL0     O 2971   7.424   9.074   7.905  0.2387 -0.2374 -0.4600
   23MOL0     C 2972   7.408   9.032   8.019  0.1596  0.4110  0.3241
   23MOL0     O 2973   7.431   9.112   8.131  0.5747  0.4292  0.7709
   23MOL0     C 2974   7.509   9.225   8.116  0.2102  0.1064  0.4102
   23MOL0     C 2975   7.635   9.237   8.183  0.1782 -0.0976 -0.4280
   23MOL0     C 2976   7.701   9.359   8.182 -0.6043 -0.5008  0.4567
   23MOL0     C 2977   7.641   9.475   8.113  0.6213  0.2719  0.4824
   23MOL0     O 2978   7.708   9.594   8.124  0.0638 -0.1025  1.0732
   23MOL0     C 2979   7.634   9.711   8.179 -0.2068  1.0594 -0.3072
   23MOL0     C 2980   7.734   9.822   8.171 -0.7460  0.5019  1.1291
   23MOL0     C 2981   7.676   9.938   8.252  0.7875 -0.5495  0.4227
   23MOL0     C 2982   7.783  10.043   8.273  0.4327  0.0241  0.7527
   23MOL0     C 2983   7.736  10.162   8.363 -1.1111  0.0990  0.2782
   23MOL0     C 2984   7.818  10.281   8.326  0.3797 -0.7715 -0.4800
   23MOL0     C 2985   7.784  10.388   8.423 -0.1024 -0.7390 -0.0816
   23MOL0     C 2986   7.854  10.525   8.399 -1.2791  0.9586 -0.1315
   23MOL0     N 2987   7.998  10.519   8.446  0.3040  0.5061 -0.8192
   23MOL0     C 2988   8.055  10.456   8.559  0.4203  0.5107 -0.9647
   23MOL0     C 2989   8.178  10.514   8.576 -0.2492  0.8421  0.3134
   23MOL0     C 2990   8.290  10.472   8.667  0.2337  0.4905  0.1918
   23MOL0     C 2991   8.371  10.359   8.589 -0.6381  0.1432  0.4042
   23MOL0     C 2992   8.436  10.273   8.699 -0.6303 -0.0534  0.7248
   23MOL0     C 2993   8.558  10.179   8.645  1.0391 -0.8298  0.2808
   23MOL0     O 2994   8.506  10.080   8.562  0.7091  0.2928  0.4258
   23MOL0     C 2995   8.526  10.083   8.424 -0.2812  0.4747  0.3161
   23MOL0     C 2996   8.580  10.195   8.356  0.2948 -0.2371  0.8382
   23MOL0     C 2997   8.590  10.201   8.220 -0.5230 -0.5477 -0.1567
   23MOL0     C 2998   8.566  10.088   8.143  0.1666  0.1407 -0.0043
   23MOL0     C 2999   8.580  10.097   7.995  0.0528 -0.4239  0.2696
   23MOL0     O 3000   8.606  10.217   7.939  0.9750  0.5002  0.4028
   23MOL0     C 3001   8.625  10.232   7.805 -0.2164 -0.2741 -0.0561
   23MOL0     C 3002   8.696  10.147   7.724 -0.4995 -1.0119  0.4167
   23MOL0     C 3003   8.700  10.156   7.586  0.0512  0.7718 -0.0746
   23MOL0     C 3004   8.639  10.266   7.529 -0.5826  1.2949  0.2115
   23MOL0     O 3005   8.644  10.275   7.390  0.1510  0.4805  0.1402
   23MOL0     C 3006   8.519  10.258   7.333  1.4271  0.3915  0.1987
   23MOL0     C 3007   8.536  10.177   7.211  0.0502  0.1954  0.2133
   23MOL0     C 3008   8.395  10.120   7.181 -0.5694 -0.5967  0.0745
   23MOL0     C 3009   8.406  10.036   7.049  0.2214  0.5126  0.2518
   23MOL0     C 3010   8.267   9.999   6.997 -0.0195 -0.4279 -0.3221
   23MOL0     C 3011   8.172   9.936   7.099  0.4261 -0.8126 -0.6744
   23MOL0     C 3012   8.030   9.907   7.029  0.0519  0.9760 -0.3936
   23MOL0     C 3013   7.920   9.843   7.128 -0.2626 -1.0004  0.0257
   23MOL0    Cl 3014   7.866   9.956   7.252  0.0793 -0.2982 -0.3631
   23MOL0     C 3015   8.568  10.358   7.607  0.5769  0.4446 -0.9756
   23MOL0     C 3016   8.568  10.344   7.745  0.3058 -0.1135 -0.7423
   23MOL0     O 3017   8.584   9.983   7.944 -0.3797  0.1815 -0.5738
   23MOL0     C 3018   8.505   9.979   8.203 -0.0049 -0.3033 -1.2285
   23MOL0     C 3019   8.477   9.981   8.339 -0.8795  0.6738  1.5194
   23MOL0     N 3020   8.196  10.605   8.472 -0.8681  0.7607  0.0788
   23MOL0     N 3021   8.088  10.604   8.399 -0.1907  0.4396  0.1560
   23MOL0     C 3022   7.516   9.467   8.059  0.0499  0.2410 -0.2851
   23MOL0     C 3023   7.453   9.341   8.056 -0.1913  0.3076  0.1001
   23MOL0     C 3024   7.343   8.893   8.047  0.1362 -0.4441  0.5519
   23MOL0     C 3025   7.369   8.830   8.165  0.4280 -0.0363 -0.9635
   23MOL0     C 3026   7.301   8.711   8.196 -0.5481  0.6514  0.4462
   23MOL0     C 3027   7.213   8.646   8.112  0.4124 -1.0010 -0.7638
   23MOL0     O 3028   7.146   8.531   8.140 -0.1900 -0.2471 -0.0159
   23MOL0     C 3029   7.206   8.416   8.081 -0.0597  0.3337  0.8706
   23MOL0     C 3030   7.106   8.299   8.058  0.6464 -0.6321  0.5615
   23MOL0     C 3031   7.023   8.312   7.924  0.4512  0.1349  0.6112
   23MOL0     C 3032   6.908   8.212   7.925  0.3690  0.0942  0.3356
   23MOL0     C 3033   6.833   8.195   7.797 -0.7312  0.2975 -0.7592
   23MOL0     C 3034   6.796   8.155   7.690  0.1978  0.0081 -0.3801
   23MOL0     C 3035   7.200   8.708   7.987  0.5406  0.1609  0.5716
   23MOL0     C 3036   7.264   8.831   7.948  0.1461  0.1018  0.3188
   23MOL0     C 3037   7.232   8.890   7.813 -0.4787  0.1224 -1.0569
   23MOL0     H 3038   7.681   9.152   8.232 -2.2613 -1.7765 -0.8531
   23MOL0     H 3039   7.805   9.371   8.210 -0.6339  0.2487  0.2610
   23MOL0     H 3040   7.538   9.735   8.131  0.0804  0.1669 -1.3996
   23MOL0     H 3041   7.601   9.697   8.282 -1.8600 -0.1664 -0.9420
   23MOL0     H 3042   7.737   9.867   8.071 -1.1215  0.4387  1.0891
   23MOL0     H 3043   7.830   9.781   8.203  0.0133 -0.1459 -1.6711
   23MOL0     H 3044   7.647   9.906   8.352 -0.7029  2.1021  0.9350
   23MOL0     H 3045   7.593   9.981   8.195  0.0890 -3.1291 -0.6303
   23MOL0     H 3046   7.871   9.992   8.314  0.1772  0.9360  2.5412
   23MOL0     H 3047   7.793  10.095   8.178 -0.3176  4.0838  2.6806
   23MOL0     H 3048   7.628  10.169   8.354 -0.9926 -0.2157 -1.6469
   23MOL0     H 3049   7.762  10.134   8.466 -1.7480  0.8766  0.6672
   23MOL0     H 3050   7.925  10.261   8.333  1.0323  1.8284 -1.9255
   23MOL0     H 3051   7.792  10.311   8.224 -0.4280  2.0886  0.4762
   23MOL0     H 3052   7.802  10.354   8.526 -1.1767  1.8236  1.0339
   23MOL0     H 3053   7.676  10.406   8.418 -0.0912 -0.4415  0.5539
   23MOL0     H 3054   7.849  10.535   8.290 -0.2737 -0.1595 -0.3034
   23MOL0     H 3055   7.808  10.605   8.457 -2.4797  1.3219 -1.5269
   23MOL0     H 3056   8.013  10.375   8.618  0.8167 -0.7435 -2.3630
   23MOL0     H 3057   8.355  10.555   8.696  0.2697  0.4708  0.1665
   23MOL0     H 3058   8.242  10.436   8.759 -0.9959  0.8441 -0.2828
   23MOL0     H 3059   8.311  10.296   8.523 -1.7064  1.0996  0.4391
   23MOL0     H 3060   8.457  10.403   8.538  0.0226 -0.7234  0.7393
   23MOL0     H 3061   8.367  10.205   8.749 -1.5841  0.3240 -0.0591
   23MOL0     H 3062   8.475  10.337   8.778  1.5065  0.0375 -0.3261
   23MOL0     H 3063   8.587  10.138   8.742 -3.3484  1.7762  3.0648
   23MOL0     H 3064   8.646  10.222   8.598  0.8721 -0.7149  0.0699
   23MOL0     H 3065   8.597  10.291   8.403 -0.5384  1.2720 -1.7287
   23MOL0     H 3066   8.629  10.288   8.168 -1.1226  1.0051  1.8518
   23MOL0     H 3067   8.754  10.071   7.775  2.7076  2.2247  2.0503
   23MOL0     H 3068   8.753  10.091   7.517 -1.0919  0.2690 -0.5211
   23MOL0     H 3069   8.454  10.207   7.404  0.5821 -1.4180 -1.7741
   23MOL0     H 3070   8.471  10.352   7.305 -0.0122  0.2833  2.1053
   23MOL0     H 3071   8.586  10.232   7.131  2.9930 -0.6558  1.3373
   23MOL0     H 3072   8.612  10.100   7.224  2.0571  2.0865  0.1929
   23MOL0     H 3073   8.360  10.043   7.251  1.7193 -3.3730 -1.6234
   23MOL0     H 3074   8.328  10.207   7.175 -0.2012 -0.3502 -0.5489
   23MOL0     H 3075   8.465   9.946   7.067 -1.1297 -0.0356  2.3412
   23MOL0     H 3076   8.451  10.087   6.964  1.9660 -3.5044 -1.4997
   23MOL0     H 3077   8.286   9.934   6.912 -2.0827 -1.5982  0.0532
   23MOL0     H 3078   8.222  10.095   6.969 -0.5469 -0.7705 -0.6599
   23MOL0     H 3079   8.205   9.841   7.141 -1.0945 -0.9008  0.3790
   23MOL0     H 3080   8.156  10.000   7.186 -1.0542  0.3578 -1.7709
   23MOL0     H 3081   8.038   9.836   6.946 -0.9654 -0.5836  0.7899
   23MOL0     H 3082   7.993  10.000   6.985 -2.5397  0.0644 -0.3235
   23MOL0     H 3083   7.836   9.815   7.064 -0.0758  3.4895 -2.5916
   23MOL0     H 3084   7.947   9.749   7.177  0.5257 -0.3720  0.8324
   23MOL0     H 3085   8.528  10.445   7.556  1.3833  1.9406  0.8527
   23MOL0     H 3086   8.501  10.411   7.797 -1.2719 -2.2426  0.1282
   23MOL0     H 3087   8.467   9.901   8.137 -3.7736  0.3021  0.0099
   23MOL0     H 3088   8.421   9.896   8.375 -3.4479 -0.0320 -3.3132
   23MOL0     H 3089   7.464   9.556   8.025 -0.7402 -0.8226 -2.0048
   23MOL0     H 3090   7.353   9.331   8.015 -1.8826  1.4066  3.5652
   23MOL0     H 3091   7.424   8.896   8.231 -0.0368  2.8967 -3.2519
   23MOL0     H 3092   7.315   8.670   8.295 -0.9622 -0.9101 -0.1225
   23MOL0     H 3093   7.292   8.377   8.136  2.0381  0.0571 -2.3346
   23MOL0     H 3094   7.258   8.438   7.987 -1.0346  1.5558  0.5810
   23MOL0     H 3095   7.036   8.294   8.142 -1.8326  1.5794 -1.2195
   23MOL0     H 3096   7.170   8.210   8.055 -0.5155 -1.4792 -0.1152
   23MOL0     H 3097   7.080   8.300   7.831 -0.7960 -0.7188 -0.0886
   23MOL0     H 3098   6.967   8.405   7.922 -0.5708 -0.4575  0.8794
   23MOL0     H 3099   6.952   8.117   7.957 -4.3606 -2.7508 -0.5882
   23MOL0     H 3100   6.839   8.241   8.005  0.6057 -0.1935  0.6474
   23MOL0     H 3101   6.774   8.112   7.594  1.7227 -0.3851 -0.5743
   23MOL0     H 3102   7.142   8.650   7.916  1.0244 -0.0098  0.3067
   23MOL0     H 3103   7.161   8.829   7.757 -1.3478  2.4702 -2.6926
   23MOL0     H 3104   7.181   8.982   7.842 -1.1353 -0.7546  0.6595
   23MOL0     H 3105   7.316   8.897   7.742 -1.1049 -4.1390 -2.5139
   24MOL0     O 3106   3.879  10.459  10.421  0.5570  0.5643  0.5381
   24MOL0     C 3107   3.792  10.463  10.509 -0.7791 -0.0193  0.0035
   24MOL0     O 3108   3.779  10.563  10.593  0.2154 -0.1317  0.3407
   24MOL0     C 3109   3.881  10.650  10.594 -0.8036 -0.0149 -0.2510
   24MOL0     C 3110   4.004  10.618  10.661  0.8649  0.4889  0.7304
   24MOL0     C 3111   4.106  10.710  10.659 -0.5025  0.0936  0.6058
   24MOL0     C 3112   4.095  10.837  10.591 -0.0357  0.0618 -0.4833
   24MOL0     O 3113   4.202  10.927  10.591  0.5810  0.3436  0.0973
   24MOL0     C 3114   4.336  10.883  10.609 -0.7339 -0.3359  0.5433
   24MOL0     C 3115   4.434  11.004  10.625  0.3791 -0.0893  0.2551
   24MOL0     C 3116   4.460  11.071  10.494 -0.0021 -0.1155 -1.1488
   24MOL0     C 3117   4.536  11.195  10.521  0.6584 -0.0163 -0.6783
   24MOL0     C 3118   4.597  11.257  10.397  0.5730  0.5082 -0.0612
   24MOL0     C 3119   4.686  11.381  10.436 -0.2261  0.1642  1.0004
   24MOL0     C 3120   4.740  11.443  10.312  0.0153 -0.2053 -0.0156
   24MOL0     C 3121   4.643  11.543  10.251  0.1025 -0.6254  0.0281
   24MOL0     N 3122   4.716  11.620  10.133  0.8676 -0.0110 -0.4360
   24MOL0     C 3123   4.782  11.545  10.040 -0.6784  0.0742  0.1677
   24MOL0     C 3124   4.799  11.632   9.937 -0.0464  0.6468  0.9853
   24MOL0     C 3125   4.875  11.619   9.804 -0.1973  0.2159 -0.3963
   24MOL0     C 3126   4.859  11.493   9.718  0.0341 -0.9943 -0.0163
   24MOL0     C 3127   4.961  11.385   9.749 -0.2993  0.2136  0.0817
   24MOL0     C 3128   5.112  11.418   9.724  0.2427 -0.3040  0.1804
   24MOL0     O 3129   5.163  11.479   9.845  0.3076  0.1969 -0.6042
   24MOL0     C 3130   5.291  11.526   9.836 -0.5245  0.0304 -0.1416
   24MOL0     C 3131   5.380  11.542   9.726 -0.1313  0.2205  0.6517
   24MOL0     C 3132   5.515  11.551   9.740  0.2844  0.0962  0.1729
   24MOL0     C 3133   5.572  11.578   9.868  0.3081  0.8395  0.1719
   24MOL0     C 3134   5.716  11.589   9.885  0.1149  0.6756  0.1729
   24MOL0     O 3135   5.753  11.634  10.013 -0.3248 -0.1223 -0.3580
   24MOL0     C 3136   5.888  11.663  10.046 -0.7832 -0.3988  0.6048
   24MOL0     C 3137   6.006  11.654   9.971  0.1068 -0.0370  1.5451
   24MOL0     C 3138   6.140  11.677  10.021 -0.0354 -0.2509 -0.8417
   24MOL0     C 3139   6.155  11.714  10.154  0.2384  0.3431 -0.6222
   24MOL0     O 3140   6.279  11.750  10.202  0.6471 -0.2705 -0.6806
   24MOL0     C 3141   6.298  11.668  10.322 -0.5201 -0.8136  0.8833
   24MOL0     C 3142   6.425  11.588  10.297  0.1705  0.0220 -0.1356
   24MOL0     C 3143   6.557  11.681  10.277 -0.0652  0.3650  0.2772
   24MOL0     C 3144   6.683  11.586  10.251  0.6930  0.1432 -0.1027
   24MOL0     C 3145   6.737  11.534  10.381  0.1684  0.3613 -0.1748
   24MOL0     C 3146   6.889  11.486  10.370  0.5296 -0.8884 -0.0767
   24MOL0     C 3147   6.948  11.444  10.503 -0.6280 -0.5638  0.5447
   24MOL0     C 3148   7.093  11.484  10.501  0.6266 -0.1977 -0.4005
   24MOL0    Cl 3149   7.165  11.342  10.422  0.1345  0.2330  0.4796
   24MOL0     C 3150   6.045  11.732  10.226  0.6363  1.0726  1.1071
   24MOL0     C 3151   5.914  11.710  10.174  0.6998  0.7255 -0.0529
   24MOL0     O 3152   5.793  11.571   9.796 -0.4276  0.0343  1.0784
   24MOL0     C 3153   5.480  11.596   9.970  0.3697  0.7643 -0.9079
   24MOL0     C 3154   5.344  11.556   9.959  0.1458 -0.8686 -0.6769
   24MOL0     N 3155   4.745  11.756   9.968  0.4584 -0.2684  0.3200
   24MOL0     N 3156   4.690  11.750  10.082  0.0691  0.6435 -0.8599
   24MOL0     C 3157   3.971  10.883  10.544 -0.1844  0.0431  0.1489
   24MOL0     C 3158   3.868  10.783  10.542 -0.2447  0.2948  1.2987
   24MOL0     C 3159   3.703  10.348  10.520  0.1195 -0.1291 -0.4267
   24MOL0     C 3160   3.724  10.261  10.627 -0.4198  0.2323 -0.2597
   24MOL0     C 3161   3.657  10.140  10.639  0.4326  0.6882  0.4241
   24MOL0     C 3162   3.550  10.113  10.556 -0.0887 -0.0333  1.1215
   24MOL0     O 3163   3.467  10.003  10.576  1.0672  0.1136 -0.0265
   24MOL0     C 3164   3.379  10.018  10.692 -0.6352 -0.9590 -0.4761
   24MOL0     C 3165   3.305   9.883  10.715  0.1817  1.0133 -0.1091
   24MOL0     C 3166   3.178   9.861  10.636 -0.7493  1.0667 -0.4283
   24MOL0     C 3167   3.049   9.886  10.715  0.4240 -0.0197 -0.5099
   24MOL0     C 3168   3.060   9.999  10.804  0.0315 -0.3223 -0.1064
   24MOL0     C 3169   3.073  10.093  10.890 -0.8774 -0.2361 -0.1540
   24MOL0     C 3170   3.540  10.194  10.442  0.4062  0.0572 -0.5104
   24MOL0     C 3171   3.614  10.309  10.420  0.1744 -1.3536  0.6184
   24MOL0     C 3172   3.596  10.380  10.285  0.6870  0.0274 -0.6309
   24MOL0     H 3173   4.018  10.521  10.707  0.0776  0.5195  1.0384
   24MOL0     H 3174   4.199  10.669  10.696  0.4505  1.0515 -0.6523
   24MOL0     H 3175   4.348  10.818  10.696  1.8616 -1.5657 -0.6110
   24MOL0     H 3176   4.373  10.832  10.519 -1.7565 -2.2695  1.1615
   24MOL0     H 3177   4.525  10.951  10.655 -0.3232 -1.3564  0.2215
   24MOL0     H 3178   4.409  11.080  10.699  1.0794  1.1977 -0.8009
   24MOL0     H 3179   4.367  11.092  10.439 -1.3787 -1.5535  0.4845
   24MOL0     H 3180   4.511  10.998  10.432 -0.0416 -0.4766 -0.7590
   24MOL0     H 3181   4.463  11.269  10.557 -1.3078 -2.0371 -0.2464
   24MOL0     H 3182   4.624  11.181  10.584  1.4428 -0.1957 -1.7964
   24MOL0     H 3183   4.661  11.192  10.336 -0.6584 -1.3979  0.5830
   24MOL0     H 3184   4.508  11.278  10.338  0.3538  0.7046  0.3354
   24MOL0     H 3185   4.638  11.454  10.503 -2.5458 -1.8835  1.7227
   24MOL0     H 3186   4.776  11.350  10.489 -1.4022 -1.6967  2.0397
   24MOL0     H 3187   4.771  11.362  10.246 -0.3092 -1.1098  0.9258
   24MOL0     H 3188   4.832  11.499  10.334  1.2215 -2.2312  0.3157
   24MOL0     H 3189   4.550  11.503  10.210 -0.2454  0.5142 -0.3316
   24MOL0     H 3190   4.605  11.613  10.326 -2.9800 -2.2637  0.1392
   24MOL0     H 3191   4.813  11.441  10.038  1.0252  0.5604 -0.9685
   24MOL0     H 3192   4.853  11.705   9.740  1.1582  0.8573 -0.0364
   24MOL0     H 3193   4.982  11.629   9.825 -0.0360 -0.8926 -0.6266
   24MOL0     H 3194   4.757  11.457   9.733 -0.8441  0.6761 -1.5952
   24MOL0     H 3195   4.869  11.522   9.613 -2.3730 -1.2949 -0.3727
   24MOL0     H 3196   4.929  11.302   9.686 -0.6039  1.6291 -1.7132
   24MOL0     H 3197   4.954  11.360   9.856  4.4884  0.4006  0.6651
   24MOL0     H 3198   5.126  11.483   9.637  0.7963 -0.6543  0.0009
   24MOL0     H 3199   5.168  11.326   9.705 -0.1286 -0.5073  0.0635
   24MOL0     H 3200   5.332  11.530   9.629  1.2235  4.0228 -0.6718
   24MOL0     H 3201   5.579  11.541   9.653 -0.2099 -1.5291 -0.0345
   24MOL0     H 3202   5.997  11.629   9.866  0.7144 -0.7290  1.6482
   24MOL0     H 3203   6.234  11.668   9.966 -0.4041 -2.5496 -1.1978
   24MOL0     H 3204   6.312  11.725  10.414  0.3511 -1.8529  1.4158
   24MOL0     H 3205   6.211  11.605  10.341 -1.5394 -0.1556 -1.2110
   24MOL0     H 3206   6.426  11.527  10.388  1.4885 -0.1303 -0.2263
   24MOL0     H 3207   6.408  11.518  10.215  0.1826 -0.6274  0.4062
   24MOL0     H 3208   6.537  11.748  10.192  3.3125  0.9116 -0.2375
   24MOL0     H 3209   6.567  11.745  10.365  1.4507 -0.4042  0.6923
   24MOL0     H 3210   6.748  11.658  10.201 -1.2190  1.5666 -0.6373
   24MOL0     H 3211   6.667  11.501  10.184 -4.2451 -0.0574  0.9477
   24MOL0     H 3212   6.663  11.461  10.416  1.3718 -1.2735 -0.8945
   24MOL0     H 3213   6.726  11.611  10.458 -2.7217 -0.2513  0.1271
   24MOL0     H 3214   6.899  11.402  10.300  1.6631 -1.5185  0.8162
   24MOL0     H 3215   6.930  11.574  10.320 -0.3195  0.3373  1.2988
   24MOL0     H 3216   6.936  11.336  10.508 -0.9559 -0.5810 -0.3874
   24MOL0     H 3217   6.899  11.497  10.586 -0.5264 -0.3957  0.4974
   24MOL0     H 3218   7.110  11.577  10.446  1.8805 -1.2329 -1.8346
   24MOL0     H 3219   7.144  11.489  10.598  0.2075 -0.5944 -0.1538
   24MOL0     H 3220   6.046  11.783  10.322 -0.3583 -0.0584  1.7542
   24MOL0     H 3221   5.830  11.716  10.242  0.3335 -0.0261 -0.4250
   24MOL0     H 3222   5.512  11.612  10.073  1.9702 -1.9175 -0.8883
   24MOL0     H 3223   5.280  11.541  10.046 -0.0577 -0.4298 -0.7456
   24MOL0     H 3224   3.952  10.981  10.502 -0.3026  1.0514  2.4142
   24MOL0     H 3225   3.781  10.810  10.483  0.0932 -4.4116 -1.9380
   24MOL0     H 3226   3.811  10.269  10.690  0.7443  1.0994 -1.8920
   24MOL0     H 3227   3.673  10.065  10.716 -0.7834 -0.2151 -0.1627
   24MOL0     H 3228   3.304  10.098  10.688  0.1773 -0.0198  1.4465
   24MOL0     H 3229   3.441  10.028  10.782 -0.6939 -2.6693 -0.2145
   24MOL0     H 3230   3.273   9.887  10.819 -1.2107 -0.1921 -0.4562
   24MOL0     H 3231   3.382   9.808  10.695 -2.9965 -2.4269 -0.6432
   24MOL0     H 3232   3.168   9.758  10.599 -2.9448  1.9199 -2.4678
   24MOL0     H 3233   3.181   9.930  10.551 -0.3140  0.9582 -0.5048
   24MOL0     H 3234   2.965   9.906  10.649  0.5742  2.5617 -0.0251
   24MOL0     H 3235   3.017   9.800  10.774  1.1423 -0.1435 -0.2864
   24MOL0     H 3236   3.088  10.178  10.952  0.8879 -0.8538  0.3383
   24MOL0     H 3237   3.467  10.157  10.370  0.3713  0.2825 -0.5917
   24MOL0     H 3238   3.607  10.488  10.300 -0.9334  0.2880 -1.0817
   24MOL0     H 3239   3.665  10.350  10.206 -2.0612  0.4510 -3.4295
   24MOL0     H 3240   3.495  10.356  10.250 -0.1192  2.0714  0.1184
   25MOL0     O 3241   5.477   0.580   3.360 -0.2046 -0.3322 -0.5462
   25MOL0     C 3242   5.402   0.673   3.335  0.4369  0.2611 -1.0082
   25MOL0     O 3243   5.263   0.671   3.356  0.1668 -0.2347  0.7160
   25MOL0     C 3244   5.209   0.555   3.405 -1.1635 -0.0793  0.6109
   25MOL0     C 3245   5.157   0.540   3.529 -0.0335 -0.2492 -0.6286
   25MOL0     C 3246   5.083   0.435   3.573 -0.0023  0.2633  0.0505
   25MOL0     C 3247   5.068   0.323   3.486  0.1631 -0.6553 -0.7752
   25MOL0     O 3248   5.002   0.217   3.539  0.5651 -0.3760 -0.5334
   25MOL0     C 3249   4.875   0.235   3.588 -0.6836 -0.1106  0.4049
   25MOL0     C 3250   4.859   0.206   3.736 -0.2483  0.6609 -0.5623
   25MOL0     C 3251   4.880   0.059   3.768 -0.2005  0.1553 -0.0908
   25MOL0     C 3252   4.823   0.030   3.906 -1.2201  0.2206 -0.5170
   25MOL0     C 3253   4.826  -0.112   3.933  0.3812 -0.2158  0.1807
   25MOL0     C 3254   4.762  -0.143   4.075 -0.7926  0.8008  0.5932
   25MOL0     C 3255   4.784  -0.292   4.108 -0.4397 -0.0807  0.3172
   25MOL0     C 3256   4.768  -0.397   3.984 -0.4390  0.5136  0.2156
   25MOL0     N 3257   4.736  -0.535   4.028  0.5419 -0.0593 -0.8087
   25MOL0     C 3258   4.816  -0.601   4.119  0.6064 -0.6542 -0.0830
   25MOL0     C 3259   4.742  -0.717   4.138  0.5018 -0.5530 -0.4305
   25MOL0     C 3260   4.787  -0.837   4.215  0.0838  0.0315 -0.5355
   25MOL0     C 3261   4.816  -0.955   4.123 -0.4176 -0.0808  0.7130
   25MOL0     C 3262   4.823  -1.090   4.192  1.1555 -0.4738  0.2682
   25MOL0     C 3263   4.902  -1.104   4.327  0.1074 -0.2773 -0.2806
   25MOL0     O 3264   5.036  -1.055   4.313  0.3243 -0.8816  0.1339
   25MOL0     C 3265   5.102  -1.010   4.427  0.6977 -0.1590  0.1931
   25MOL0     C 3266   5.146  -1.110   4.517  0.7000 -0.0920  0.8654
   25MOL0     C 3267   5.209  -1.065   4.628 -0.3125 -0.2740  0.5587
   25MOL0     C 3268   5.246  -0.931   4.666 -0.7794 -0.1946  0.3005
   25MOL0     C 3269   5.326  -0.897   4.787  0.9451 -0.4397 -0.1723
   25MOL0     O 3270   5.380  -0.996   4.866 -0.2318 -0.3764  1.3417
   25MOL0     C 3271   5.492  -0.967   4.939 -0.0571  0.3335  0.3071
   25MOL0     C 3272   5.610  -0.941   4.886 -0.1934 -0.7635 -0.2371
   25MOL0     C 3273   5.730  -0.929   4.960  0.4838 -0.0479  0.6592
   25MOL0     C 3274   5.717  -0.928   5.100  0.3694  0.2644  0.6280
   25MOL0     O 3275   5.819  -0.919   5.194 -0.3147 -0.2321 -0.4183
   25MOL0     C 3276   5.958  -0.897   5.142 -0.6506  0.9131 -0.6457
   25MOL0     C 3277   6.061  -0.931   5.245  0.2541 -0.8677  0.6658
   25MOL0     C 3278   6.194  -0.859   5.215 -0.1314 -0.2119  0.2999
   25MOL0     C 3279   6.306  -0.885   5.311 -0.2072 -0.0119  0.3250
   25MOL0     C 3280   6.435  -0.815   5.272 -0.2286  0.3177  0.1016
   25MOL0     C 3281   6.543  -0.845   5.378 -0.2180  0.2737 -0.2205
   25MOL0     C 3282   6.688  -0.795   5.338 -0.3711 -0.4744  0.9058
   25MOL0     C 3283   6.776  -0.756   5.461  0.0755  0.5708  0.4513
   25MOL0    Cl 3284   6.703  -0.628   5.569  0.0623 -0.5217  0.9528
   25MOL0     C 3285   5.587  -0.940   5.155 -0.3237  0.4980 -0.2240
   25MOL0     C 3286   5.475  -0.963   5.075  0.5622  1.2290 -0.3927
   25MOL0     O 3287   5.358  -0.782   4.803 -0.2879 -1.1035 -0.5183
   25MOL0     C 3288   5.197  -0.832   4.578  0.0230  0.7077  0.2991
   25MOL0     C 3289   5.133  -0.872   4.456  0.3737 -0.7356 -0.9294
   25MOL0     N 3290   4.624  -0.715   4.073 -0.1039  0.0134 -0.8227
   25MOL0     N 3291   4.625  -0.604   4.011 -0.6141  0.7799 -0.3283
   25MOL0     C 3292   5.132   0.326   3.365 -0.3918 -0.4571  0.3892
   25MOL0     C 3293   5.193   0.440   3.324 -0.0840 -0.0185  0.3651
   25MOL0     C 3294   5.459   0.772   3.257 -0.1392 -0.9420  0.2099
   25MOL0     C 3295   5.535   0.738   3.146 -1.1846 -0.2751  0.6518
   25MOL0     C 3296   5.599   0.832   3.072  0.2485 -0.1210  0.2900
   25MOL0     C 3297   5.584   0.967   3.102 -0.4806  0.1181  0.5284
   25MOL0     O 3298   5.662   1.051   3.015  0.3919  0.5392  1.4239
   25MOL0     C 3299   5.656   1.184   3.047 -0.2272  0.1703  0.2537
   25MOL0     C 3300   5.717   1.264   2.928 -1.3730  0.3549 -0.9402
   25MOL0     C 3301   5.765   1.397   2.992 -0.1441  0.3433  0.6407
   25MOL0     C 3302   5.674   1.511   2.960  0.4039 -0.5643 -0.5764
   25MOL0     C 3303   5.540   1.500   3.023 -0.1709 -0.0690 -0.5406
   25MOL0     C 3304   5.438   1.495   3.091  1.4092 -0.9159  0.5329
   25MOL0     C 3305   5.493   1.008   3.202  0.5196  0.1062 -0.1113
   25MOL0     C 3306   5.424   0.905   3.281 -0.7691 -0.4189 -0.5473
   25MOL0     C 3307   5.328   0.965   3.380 -0.3234 -0.6712  0.1349
   25MOL0     H 3308   5.169   0.616   3.605  0.2811 -0.8529 -0.0745
   25MOL0     H 3309   5.032   0.443   3.668 -1.1096  1.2855 -0.5959
   25MOL0     H 3310   4.840   0.336   3.566 -1.6088 -0.8690 -1.9867
   25MOL0     H 3311   4.815   0.167   3.527 -1.2870  1.6419 -1.0499
   25MOL0     H 3312   4.765   0.237   3.783  0.4689  1.1299  0.6036
   25MOL0     H 3313   4.935   0.268   3.785 -0.7636 -0.8434  2.3249
   25MOL0     H 3314   4.986   0.034   3.762 -0.8635 -2.6133 -1.4453
   25MOL0     H 3315   4.817  -0.002   3.704 -4.0169 -0.7023  3.9691
   25MOL0     H 3316   4.882   0.086   3.979  1.3924 -3.0068  0.1225
   25MOL0     H 3317   4.719   0.064   3.905 -1.3536  0.1470  2.4605
   25MOL0     H 3318   4.762  -0.165   3.862 -0.9170 -0.4338  1.4483
   25MOL0     H 3319   4.924  -0.160   3.924 -0.0899 -1.0158 -1.0557
   25MOL0     H 3320   4.813  -0.090   4.156  1.3524  0.0545 -0.2156
   25MOL0     H 3321   4.655  -0.124   4.065 -0.4230  1.9548 -2.0979
   25MOL0     H 3322   4.718  -0.323   4.189  3.2851 -0.4034  3.5471
   25MOL0     H 3323   4.879  -0.316   4.158 -1.6680 -2.5393  1.6461
   25MOL0     H 3324   4.685  -0.376   3.915  1.3308 -0.7820 -2.4885
   25MOL0     H 3325   4.851  -0.405   3.913  1.0395  3.6676  1.3768
   25MOL0     H 3326   4.913  -0.577   4.161  0.6489  0.9950 -1.0408
   25MOL0     H 3327   4.867  -0.802   4.281 -1.9767  1.0848  1.5741
   25MOL0     H 3328   4.712  -0.860   4.291  0.0992  2.6466  0.3876
   25MOL0     H 3329   4.746  -0.967   4.040 -0.1249  0.2478  0.4150
   25MOL0     H 3330   4.916  -0.940   4.081 -0.1132  1.3167  1.8864
   25MOL0     H 3331   4.860  -1.164   4.120  0.2708 -0.3866 -0.2931
   25MOL0     H 3332   4.726  -1.138   4.209  1.0512 -0.2361  0.3465
   25MOL0     H 3333   4.907  -1.210   4.357  2.4763  0.2038  1.3080
   25MOL0     H 3334   4.841  -1.051   4.401 -2.5072 -0.3801 -2.2082
   25MOL0     H 3335   5.121  -1.212   4.489 -0.6929  0.8318 -1.6171
   25MOL0     H 3336   5.213  -1.155   4.688  1.0434 -1.5489 -1.3631
   25MOL0     H 3337   5.619  -0.922   4.780 -2.1076 -1.1855 -0.5075
   25MOL0     H 3338   5.822  -0.908   4.907 -1.3481  1.0094 -2.3550
   25MOL0     H 3339   5.969  -0.967   5.059 -1.5694 -0.6392  0.4689
   25MOL0     H 3340   5.978  -0.794   5.110  2.5456 -0.1180 -2.3742
   25MOL0     H 3341   6.019  -0.905   5.342 -1.9988  0.0826 -0.4740
   25MOL0     H 3342   6.084  -1.038   5.241  1.3804 -0.6596  1.0772
   25MOL0     H 3343   6.230  -0.894   5.118 -0.8423 -0.0041 -0.0459
   25MOL0     H 3344   6.176  -0.751   5.211 -0.3952 -0.2851 -1.3425
   25MOL0     H 3345   6.320  -0.993   5.325  1.8211  0.5578  3.7244
   25MOL0     H 3346   6.274  -0.852   5.410  1.1727  0.1975  0.7189
   25MOL0     H 3347   6.406  -0.710   5.272  2.1388  1.0661  2.4129
   25MOL0     H 3348   6.470  -0.850   5.174 -0.4590 -3.4918  1.2141
   25MOL0     H 3349   6.528  -0.807   5.480 -0.1429 -3.0164  1.1333
   25MOL0     H 3350   6.537  -0.954   5.378 -1.2525  0.3096  0.3631
   25MOL0     H 3351   6.658  -0.709   5.278  0.9731 -1.1943 -0.8786
   25MOL0     H 3352   6.749  -0.860   5.275 -1.6479 -1.6698  0.8682
   25MOL0     H 3353   6.798  -0.841   5.526 -1.3947  0.0974  0.3568
   25MOL0     H 3354   6.874  -0.717   5.432  1.0288 -1.4372  0.8678
   25MOL0     H 3355   5.598  -0.939   5.264 -1.5590  0.7530 -0.0929
   25MOL0     H 3356   5.382  -0.993   5.123  0.7962  1.1023 -0.0181
   25MOL0     H 3357   5.212  -0.731   4.615  0.4159  1.6356 -2.1842
   25MOL0     H 3358   5.111  -0.792   4.387  1.1410 -0.8643 -1.3337
   25MOL0     H 3359   5.120   0.243   3.297  1.2595 -0.0667 -0.4131
   25MOL0     H 3360   5.228   0.436   3.221 -1.1806 -0.3393 -0.0049
   25MOL0     H 3361   5.545   0.631   3.126 -1.1083 -0.3425  1.0527
   25MOL0     H 3362   5.660   0.805   2.986 -1.0807 -1.0383 -0.4034
   25MOL0     H 3363   5.718   1.198   3.136 -0.9048 -1.7561  1.0722
   25MOL0     H 3364   5.554   1.220   3.058 -1.0466 -1.0755 -2.5145
   25MOL0     H 3365   5.644   1.278   2.848  0.4503  0.2310 -2.7105
   25MOL0     H 3366   5.805   1.209   2.892  0.0819  1.2499  1.0622
   25MOL0     H 3367   5.856   1.416   2.934 -1.0306 -0.4905 -1.1303
   25MOL0     H 3368   5.786   1.396   3.099  0.1731 -0.1577  0.5809
   25MOL0     H 3369   5.730   1.590   3.010 -1.6296 -0.8513  2.3736
   25MOL0     H 3370   5.662   1.527   2.853 -1.1065 -0.1860 -0.3709
   25MOL0     H 3371   5.350   1.481   3.150  0.7122 -3.4395 -0.9088
   25MOL0     H 3372   5.465   1.107   3.238  0.0923 -0.1537  0.2982
   25MOL0     H 3373   5.378   1.030   3.452  1.8071 -0.9776 -0.9867
   25MOL0     H 3374   5.261   1.027   3.319  1.6047  2.8907  1.3789
   25MOL0     H 3375   5.280   0.894   3.447 -2.9433  2.5857  2.0114
   26MOL0     O 3376   7.252   0.053   1.338  0.0233  0.0662  0.0261
   26MOL0     C 3377   7.136   0.061   1.291  0.5036  0.1476 -0.4315
   26MOL0     O 3378   7.066   0.173   1.254  0.0379 -0.1032 -0.0757
   26MOL0     C 3379   7.142   0.290   1.275 -0.3871 -0.9062  0.4603
   26MOL0     C 3380   7.094   0.383   1.371 -0.2467  0.2676  0.0155
   26MOL0     C 3381   7.161   0.503   1.401 -0.3082 -0.6693  0.3086
   26MOL0     C 3382   7.285   0.539   1.337  0.3175 -0.4502 -0.0338
   26MOL0     O 3383   7.371   0.643   1.370  0.2006 -0.1591  0.2373
   26MOL0     C 3384   7.322   0.739   1.466 -0.5722 -0.4136  0.6713
   26MOL0     C 3385   7.427   0.831   1.518  0.3768  0.0356 -0.0131
   26MOL0     C 3386   7.567   0.761   1.517 -0.0497 -0.2407 -0.2824
   26MOL0     C 3387   7.661   0.874   1.571 -0.6117  0.0339  0.3347
   26MOL0     C 3388   7.807   0.815   1.591 -0.3774  0.3457 -0.5299
   26MOL0     C 3389   7.897   0.921   1.663 -0.5082 -0.3132  0.7382
   26MOL0     C 3390   8.042   0.872   1.661  0.0475  0.4577  0.1078
   26MOL0     C 3391   8.137   0.990   1.700 -0.5390 -0.0354 -0.3119
   26MOL0     N 3392   8.277   0.942   1.686  0.3844  0.2284  0.0392
   26MOL0     C 3393   8.349   0.954   1.572 -0.4685  0.4283  0.2305
   26MOL0     C 3394   8.465   0.898   1.600  0.1605 -0.1828 -0.2079
   26MOL0     C 3395   8.583   0.904   1.508  0.1837 -0.4798 -0.5397
   26MOL0     C 3396   8.605   0.764   1.460 -0.0287  0.6221 -0.0159
   26MOL0     C 3397   8.727   0.755   1.363 -0.5363 -0.1281 -0.1947
   26MOL0     C 3398   8.853   0.807   1.435 -0.4414 -0.1673 -0.8579
   26MOL0     O 3399   8.966   0.790   1.358 -0.1141  0.4663 -0.8106
   26MOL0     C 3400   9.094   0.818   1.391  0.7486  0.8364 -0.1462
   26MOL0     C 3401   9.187   0.820   1.281  1.3040 -0.3242 -0.7908
   26MOL0     C 3402   9.330   0.831   1.311  0.7868 -1.0301  0.5824
   26MOL0     C 3403   9.369   0.832   1.447  0.6250  0.3146  0.5014
   26MOL0     C 3404   9.510   0.854   1.487 -0.7768  0.1590  0.0803
   26MOL0     O 3405   9.602   0.859   1.387  0.0830 -0.5684  0.5011
   26MOL0     C 3406   9.737   0.872   1.410 -0.6777  0.0278  0.0761
   26MOL0     C 3407   9.813   0.982   1.361 -0.0500 -0.0443  0.3260
   26MOL0     C 3408   9.948   1.003   1.394  0.1664 -0.0242  0.0723
   26MOL0     C 3409  10.003   0.901   1.475  0.0154 -0.7443 -0.0481
   26MOL0     O 3410  10.135   0.889   1.485 -0.7798 -0.0669 -0.4094
   26MOL0     C 3411  10.210   0.891   1.364 -0.1463 -0.1442 -0.5848
   26MOL0     C 3412  10.358   0.904   1.406 -0.1377 -0.7524  0.1542
   26MOL0     C 3413  10.411   0.780   1.489 -0.2701 -0.4690  0.1637
   26MOL0     C 3414  10.564   0.796   1.526  0.6917 -0.3738  0.2210
   26MOL0     C 3415  10.620   0.671   1.600 -0.2689 -0.2735 -0.6287
   26MOL0     C 3416  10.545   0.626   1.718  0.2717 -0.3173 -0.7634
   26MOL0     C 3417  10.565   0.721   1.835  0.7253  0.2513  0.3124
   26MOL0     C 3418  10.467   0.727   1.953  0.5359  1.0934  0.8236
   26MOL0    Cl 3419  10.468   0.573   2.041 -0.0268 -0.1449  0.3197
   26MOL0     C 3420   9.926   0.798   1.525  0.4937 -0.1395 -0.2162
   26MOL0     C 3421   9.797   0.779   1.495  0.4962 -0.1913 -0.2906
   26MOL0     O 3422   9.540   0.855   1.603  0.1926  0.3535 -0.7604
   26MOL0     C 3423   9.272   0.837   1.555  0.8089  0.0675  0.4041
   26MOL0     C 3424   9.135   0.841   1.525 -0.4534  0.6383  0.2959
   26MOL0     N 3425   8.462   0.854   1.731  0.2483 -0.1237 -0.1310
   26MOL0     N 3426   8.347   0.885   1.785 -0.4541  0.2747  0.2108
   26MOL0     C 3427   7.326   0.451   1.234  0.0111  0.5067 -0.4144
   26MOL0     C 3428   7.257   0.335   1.209 -0.8124  1.1243  0.3312
   26MOL0     C 3429   7.057  -0.070   1.292 -0.1083 -0.6390  0.0891
   26MOL0     C 3430   6.926  -0.061   1.247  0.0119 -0.1941 -0.0838
   26MOL0     C 3431   6.846  -0.176   1.245 -0.1544 -0.1324  0.5881
   26MOL0     C 3432   6.899  -0.302   1.267 -0.1194 -0.5204 -0.0770
   26MOL0     O 3433   6.825  -0.417   1.252 -0.8215 -0.0334 -0.7113
   26MOL0     C 3434   6.775  -0.449   1.121 -0.1260 -1.0669 -0.1283
   26MOL0     C 3435   6.894  -0.523   1.048  0.1853 -0.2181  0.2182
   26MOL0     C 3436   6.852  -0.554   0.907 -0.3385  0.6665 -0.0730
   26MOL0     C 3437   6.800  -0.432   0.824  0.2154  0.0268  0.2265
   26MOL0     C 3438   6.890  -0.311   0.854 -0.4400  0.6324  0.0391
   26MOL0     C 3439   6.969  -0.219   0.863 -0.3996 -0.1793 -0.6369
   26MOL0     C 3440   7.032  -0.314   1.300 -0.1535  0.2641 -0.5591
   26MOL0     C 3441   7.111  -0.206   1.316 -0.3286 -0.6800  0.3360
   26MOL0     C 3442   7.255  -0.224   1.360 -1.0483 -0.1011 -0.4382
   26MOL0     H 3443   7.012   0.345   1.431  1.1424  0.2937  2.0267
   26MOL0     H 3444   7.117   0.563   1.480  2.2349 -0.3314  1.5616
   26MOL0     H 3445   7.237   0.796   1.427 -0.7755 -1.2756 -0.1804
   26MOL0     H 3446   7.288   0.683   1.553  0.1332 -1.9262  0.0059
   26MOL0     H 3447   7.406   0.859   1.621  2.0791 -0.0999  0.3873
   26MOL0     H 3448   7.428   0.922   1.457  2.1429  0.0958  0.0710
   26MOL0     H 3449   7.601   0.735   1.417 -1.2093  0.7974 -0.9680
   26MOL0     H 3450   7.564   0.675   1.585  0.9044 -0.5898 -0.6643
   26MOL0     H 3451   7.671   0.950   1.493  0.7802 -0.9215 -0.4719
   26MOL0     H 3452   7.616   0.904   1.666 -0.4978 -0.6031  0.5947
   26MOL0     H 3453   7.797   0.732   1.661 -0.0594 -0.2024 -1.1162
   26MOL0     H 3454   7.847   0.778   1.496 -1.4318 -0.2957 -0.7413
   26MOL0     H 3455   7.893   1.016   1.608 -2.1058 -0.0369  1.2797
   26MOL0     H 3456   7.865   0.923   1.767  2.7885 -3.5123  2.0406
   26MOL0     H 3457   8.071   0.838   1.561  1.1814  1.8692 -0.0726
   26MOL0     H 3458   8.051   0.793   1.736 -2.5680 -2.2545 -2.1100
   26MOL0     H 3459   8.121   1.090   1.659 -0.8930  0.7652  1.6714
   26MOL0     H 3460   8.111   1.013   1.804  0.0161  2.6211 -0.6912
   26MOL0     H 3461   8.320   0.990   1.474  0.1110  0.6874  0.1499
   26MOL0     H 3462   8.554   0.968   1.424  0.2316 -2.4665 -2.1536
   26MOL0     H 3463   8.678   0.938   1.549  1.3242 -0.7276 -2.8225
   26MOL0     H 3464   8.638   0.707   1.548  1.8379 -1.8002 -2.1409
   26MOL0     H 3465   8.519   0.715   1.413 -0.0196  1.7217 -1.2102
   26MOL0     H 3466   8.709   0.820   1.277 -2.6174 -0.7466 -0.2896
   26MOL0     H 3467   8.739   0.651   1.332  1.7828 -1.2439  3.6522
   26MOL0     H 3468   8.880   0.762   1.531  0.1198  0.6952 -0.5989
   26MOL0     H 3469   8.838   0.916   1.435  0.7695  0.0269  0.2212
   26MOL0     H 3470   9.152   0.824   1.178  1.8553  1.6995 -0.9546
   26MOL0     H 3471   9.404   0.822   1.233 -0.5145 -2.8241 -0.5259
   26MOL0     H 3472   9.762   1.054   1.299  2.8034  1.8391 -0.0583
   26MOL0     H 3473  10.011   1.076   1.346  2.1555 -0.5793  1.7149
   26MOL0     H 3474  10.195   0.793   1.316  1.4697 -0.2150 -1.0070
   26MOL0     H 3475  10.177   0.966   1.292 -1.1475  0.8568  0.8531
   26MOL0     H 3476  10.436   0.916   1.329  1.3004 -2.4600  1.2591
   26MOL0     H 3477  10.360   0.991   1.471  0.5489  0.4718 -1.4376
   26MOL0     H 3478  10.353   0.778   1.582  1.7337 -1.5930  1.4681
   26MOL0     H 3479  10.393   0.688   1.433 -1.9240  0.5203 -0.9973
   26MOL0     H 3480  10.579   0.887   1.584  2.7803 -0.8290  0.4757
   26MOL0     H 3481  10.618   0.816   1.433  0.4466  0.6714  0.2958
   26MOL0     H 3482  10.728   0.681   1.614 -0.4389  0.2007  0.4095
   26MOL0     H 3483  10.603   0.589   1.529 -0.7979  0.5187 -1.4442
   26MOL0     H 3484  10.437   0.616   1.703 -0.4601  3.7094  0.6322
   26MOL0     H 3485  10.580   0.528   1.753  1.2282 -0.0382 -0.9110
   26MOL0     H 3486  10.566   0.817   1.784  0.9772 -1.1122 -2.4844
   26MOL0     H 3487  10.667   0.712   1.874  0.2101  1.9101  2.2196
   26MOL0     H 3488  10.493   0.814   2.014  1.1462  1.2408  0.3739
   26MOL0     H 3489  10.366   0.748   1.917 -0.3890  0.7412  3.0713
   26MOL0     H 3490   9.965   0.729   1.600 -1.0755 -1.5601 -0.6664
   26MOL0     H 3491   9.737   0.701   1.541 -1.5861  0.4191 -1.7783
   26MOL0     H 3492   9.304   0.843   1.658 -1.9142  0.3916  1.3104
   26MOL0     H 3493   9.074   0.859   1.612 -1.3584  0.5526 -0.3151
   26MOL0     H 3494   7.418   0.477   1.184 -0.7005  0.9601 -1.5048
   26MOL0     H 3495   7.298   0.269   1.133 -1.6262  0.2841  0.5968
   26MOL0     H 3496   6.887   0.031   1.205 -1.0542 -0.6890 -0.1970
   26MOL0     H 3497   6.742  -0.165   1.217 -0.0389 -0.7912 -0.1438
   26MOL0     H 3498   6.754  -0.354   1.069 -0.1674  0.1721  2.0161
   26MOL0     H 3499   6.681  -0.503   1.107 -0.5373  0.2467 -3.7364
   26MOL0     H 3500   6.918  -0.614   1.103  0.7500 -0.2247 -0.0278
   26MOL0     H 3501   6.975  -0.449   1.048 -1.4553  1.6862 -0.0147
   26MOL0     H 3502   6.773  -0.629   0.914  0.0345  0.1748 -0.9550
   26MOL0     H 3503   6.935  -0.605   0.857  0.6673  0.7007  1.4894
   26MOL0     H 3504   6.806  -0.459   0.718  2.4084 -0.1887  0.3441
   26MOL0     H 3505   6.694  -0.410   0.838 -0.2173 -1.4908 -0.3911
   26MOL0     H 3506   7.031  -0.132   0.852  0.8051 -0.9254  0.0675
   26MOL0     H 3507   7.062  -0.413   1.334  0.3303  0.3249 -0.7997
   26MOL0     H 3508   7.284  -0.185   1.458  1.2219 -3.0498  0.1736
   26MOL0     H 3509   7.275  -0.331   1.363  2.7898  0.2904 -4.0085
   26MOL0     H 3510   7.326  -0.189   1.285 -0.8129  0.1818 -0.0886
   27MOL0     O 3511   3.773   7.521   4.611 -0.0687 -0.1843  0.8883
   27MOL0     C 3512   3.730   7.611   4.686  0.4845  0.3067  1.3057
   27MOL0     O 3513   3.783   7.651   4.799  0.4844  0.9109 -0.8667
   27MOL0     C 3514   3.896   7.587   4.857 -0.0313 -0.3898 -0.3103
   27MOL0     C 3515   3.910   7.573   4.997 -0.5764 -0.3941  0.2016
   27MOL0     C 3516   4.019   7.499   5.052  0.7866 -0.3660 -0.2410
   27MOL0     C 3517   4.134   7.478   4.969 -0.1926 -0.8220  0.3753
   27MOL0     O 3518   4.253   7.439   5.029  0.1511  0.1084  0.3641
   27MOL0     C 3519   4.365   7.525   4.992 -0.1092  0.3283  0.7190
   27MOL0     C 3520   4.483   7.470   5.067  0.7587  0.6415 -0.4460
   27MOL0     C 3521   4.605   7.559   5.066 -1.4346 -0.6283 -0.0419
   27MOL0     C 3522   4.707   7.507   5.172  0.0186  0.0425  0.9239
   27MOL0     C 3523   4.847   7.553   5.158  0.1699 -0.1102  0.2820
   27MOL0     C 3524   4.861   7.700   5.168 -0.6552 -0.0605 -0.0641
   27MOL0     C 3525   5.012   7.742   5.174  0.3572  0.0937 -0.5966
   27MOL0     C 3526   5.073   7.732   5.318 -0.2764 -1.0278  0.4187
   27MOL0     N 3527   5.213   7.775   5.315 -0.5662 -0.3704 -0.5886
   27MOL0     C 3528   5.258   7.879   5.386 -0.3742 -0.4298  0.2225
   27MOL0     C 3529   5.389   7.894   5.351 -0.9533 -0.2770 -0.6252
   27MOL0     C 3530   5.462   8.004   5.404 -0.5250  0.2371  0.2522
   27MOL0     C 3531   5.613   7.989   5.392 -0.5583  0.4900  0.5246
   27MOL0     C 3532   5.675   8.120   5.427  0.6029  0.1889  0.7684
   27MOL0     C 3533   5.820   8.093   5.460  0.1805  0.0769 -0.2526
   27MOL0     O 3534   5.887   8.019   5.357  0.1876  0.1172 -0.9211
   27MOL0     C 3535   6.019   7.983   5.375 -1.2738 -0.5525  0.4631
   27MOL0     C 3536   6.085   7.992   5.498  0.3165 -0.5678 -0.4411
   27MOL0     C 3537   6.215   7.938   5.506 -1.1043  0.1464  0.3854
   27MOL0     C 3538   6.283   7.892   5.396  0.1864  0.3183 -0.0397
   27MOL0     C 3539   6.424   7.845   5.401  0.1024  0.1375 -0.1446
   27MOL0     O 3540   6.486   7.826   5.528  0.1593 -0.4498  0.6465
   27MOL0     C 3541   6.606   7.765   5.543  0.4567 -0.1567 -0.0589
   27MOL0     C 3542   6.644   7.765   5.670 -0.4911  0.4952 -0.1373
   27MOL0     C 3543   6.769   7.731   5.715 -0.0487  0.3659 -0.1568
   27MOL0     C 3544   6.866   7.687   5.616  0.3151  0.1804 -0.0350
   27MOL0     O 3545   7.002   7.662   5.636  0.8074 -0.7793  0.3480
   27MOL0     C 3546   7.053   7.634   5.769  0.3682  0.1102  0.8477
   27MOL0     C 3547   7.198   7.607   5.740 -0.5026 -0.1093  0.0036
   27MOL0     C 3548   7.274   7.565   5.858 -0.2167  0.3708 -1.1582
   27MOL0     C 3549   7.419   7.556   5.812  0.3852 -0.3071  0.4529
   27MOL0     C 3550   7.507   7.492   5.921  0.5732 -0.0574 -0.1922
   27MOL0     C 3551   7.494   7.568   6.052 -0.5639 -0.5699 -0.8956
   27MOL0     C 3552   7.631   7.583   6.136  1.5561 -0.7675 -0.2324
   27MOL0     C 3553   7.605   7.642   6.274 -0.0322  0.0257 -0.2804
   27MOL0    Cl 3554   7.594   7.823   6.256  0.1744 -0.0788  0.1738
   27MOL0     C 3555   6.823   7.684   5.482 -0.1196  0.9541  0.6674
   27MOL0     C 3556   6.692   7.716   5.446 -0.1541  0.5387 -0.3456
   27MOL0     O 3557   6.479   7.824   5.291 -0.8443 -0.1360  0.8875
   27MOL0     C 3558   6.213   7.880   5.274  0.3437  0.3195 -1.1778
   27MOL0     C 3559   6.079   7.930   5.265 -0.1894 -0.7277 -0.1704
   27MOL0     N 3560   5.422   7.798   5.257  0.2400  0.2030  0.2471
   27MOL0     N 3561   5.317   7.732   5.229 -0.2161 -0.0019 -0.6031
   27MOL0     C 3562   4.126   7.505   4.828  0.5483  0.8525 -0.1085
   27MOL0     C 3563   4.005   7.551   4.777 -0.4997  0.3417 -0.4650
   27MOL0     C 3564   3.613   7.684   4.620  0.1291 -0.2253  0.5437
   27MOL0     C 3565   3.611   7.823   4.628 -0.0706  0.1422 -0.5039
   27MOL0     C 3566   3.502   7.896   4.567 -0.6536 -1.0441  0.0628
   27MOL0     C 3567   3.396   7.829   4.508 -0.6714 -0.4363 -0.1222
   27MOL0     O 3568   3.278   7.886   4.455 -0.7540 -0.0200  0.9734
   27MOL0     C 3569   3.243   7.991   4.538  0.5141  0.7027  0.2231
   27MOL0     C 3570   3.100   8.016   4.554 -1.1798 -0.7267  0.6006
   27MOL0     C 3571   3.022   8.058   4.425  0.4548 -1.3139 -0.9783
   27MOL0     C 3572   3.057   8.192   4.348  0.2846  0.0109  0.2748
   27MOL0     C 3573   3.184   8.181   4.275 -0.6462 -0.4191  0.8485
   27MOL0     C 3574   3.298   8.171   4.223  0.7178 -0.3204  0.0669
   27MOL0     C 3575   3.406   7.696   4.498 -0.7489 -0.8871  0.0550
   27MOL0     C 3576   3.505   7.616   4.552 -0.7273 -0.5747 -1.0834
   27MOL0     C 3577   3.486   7.467   4.556 -0.3322  0.3791  0.1026
   27MOL0     H 3578   3.844   7.614   5.073 -2.4131  0.3105 -1.7066
   27MOL0     H 3579   4.043   7.480   5.156 -0.3181  0.8010  0.2430
   27MOL0     H 3580   4.377   7.534   4.884 -4.5296 -0.9151 -0.0848
   27MOL0     H 3581   4.357   7.628   5.031  1.0858  0.5260  0.4839
   27MOL0     H 3582   4.504   7.372   5.023 -0.0760 -0.7559  2.0902
   27MOL0     H 3583   4.444   7.458   5.168  2.2381 -0.5377  0.0300
   27MOL0     H 3584   4.580   7.664   5.086  0.1862 -0.0388 -0.9547
   27MOL0     H 3585   4.650   7.564   4.967  0.2100 -0.1095  0.6957
   27MOL0     H 3586   4.664   7.522   5.271  1.8584 -2.7907  2.2983
   27MOL0     H 3587   4.716   7.400   5.151 -2.6965 -0.0634 -0.0151
   27MOL0     H 3588   4.898   7.509   5.244  0.7534  0.7134  0.3694
   27MOL0     H 3589   4.894   7.518   5.065 -2.3817  0.3758 -1.2707
   27MOL0     H 3590   4.823   7.739   5.073  3.5946 -0.0508 -1.9979
   27MOL0     H 3591   4.810   7.742   5.256 -0.1459 -1.1110  0.7462
   27MOL0     H 3592   5.021   7.846   5.142  3.0900 -0.6656 -2.7042
   27MOL0     H 3593   5.067   7.695   5.092 -0.6117 -0.2505 -1.0640
   27MOL0     H 3594   5.010   7.799   5.376  0.0528  2.5438 -2.9661
   27MOL0     H 3595   5.068   7.632   5.364  2.0496 -1.3060  0.2154
   27MOL0     H 3596   5.195   7.945   5.445  0.5860  0.6341  0.1034
   27MOL0     H 3597   5.440   8.092   5.343  0.7138  1.1078  1.0213
   27MOL0     H 3598   5.434   8.018   5.509  0.7029 -1.9451  0.9254
   27MOL0     H 3599   5.641   7.909   5.461 -0.0944 -2.3938 -2.6875
   27MOL0     H 3600   5.649   7.949   5.297  0.3016 -0.6342  1.2978
   27MOL0     H 3601   5.622   8.172   5.507  0.6784 -0.5989  1.3485
   27MOL0     H 3602   5.684   8.169   5.330  1.4626 -2.8978 -0.8381
   27MOL0     H 3603   5.821   8.038   5.555 -2.2647  2.0238  1.0037
   27MOL0     H 3604   5.876   8.186   5.474  1.8855 -1.0103  0.5946
   27MOL0     H 3605   6.036   8.021   5.590  0.5361 -2.1336  0.2037
   27MOL0     H 3606   6.272   7.913   5.595 -2.5175 -2.8916  0.5730
   27MOL0     H 3607   6.572   7.813   5.735  0.8874  1.3541  0.8083
   27MOL0     H 3608   6.804   7.739   5.817 -0.7544 -0.2326  0.1336
   27MOL0     H 3609   7.034   7.719   5.835  0.2560  1.4460 -0.8321
   27MOL0     H 3610   6.991   7.548   5.795 -1.4509 -0.1411 -3.4772
   27MOL0     H 3611   7.200   7.531   5.661  2.5125  2.3912 -2.5836
   27MOL0     H 3612   7.234   7.698   5.693  1.7365 -1.3442 -0.8418
   27MOL0     H 3613   7.259   7.632   5.943 -1.8064 -2.8915  1.3925
   27MOL0     H 3614   7.237   7.466   5.886 -0.8534  0.2771 -2.2762
   27MOL0     H 3615   7.449   7.659   5.787  1.0703 -0.7332 -0.5315
   27MOL0     H 3616   7.433   7.502   5.718  0.4278  1.4846 -0.6330
   27MOL0     H 3617   7.614   7.486   5.895  0.6295  0.9044 -0.2168
   27MOL0     H 3618   7.469   7.392   5.943 -1.7744  0.7207 -0.4600
   27MOL0     H 3619   7.451   7.666   6.031 -0.3090 -0.6468 -1.8601
   27MOL0     H 3620   7.431   7.502   6.112 -1.2681  1.6582  0.9279
   27MOL0     H 3621   7.704   7.648   6.087 -1.0360  0.1259 -3.2292
   27MOL0     H 3622   7.674   7.483   6.145 -2.0223 -2.4914 -0.4703
   27MOL0     H 3623   7.512   7.605   6.318  0.5265  0.2038  1.0919
   27MOL0     H 3624   7.693   7.617   6.333 -0.7644  2.4217  2.0414
   27MOL0     H 3625   6.883   7.641   5.402 -0.9222 -2.1508  1.5846
   27MOL0     H 3626   6.672   7.711   5.340  3.7242  1.0916 -1.2726
   27MOL0     H 3627   6.251   7.828   5.187  0.6275 -1.8740  0.1795
   27MOL0     H 3628   6.021   7.920   5.174 -0.8664 -1.6455  0.3437
   27MOL0     H 3629   4.208   7.489   4.759 -0.2445  1.1304 -1.1354
   27MOL0     H 3630   3.992   7.567   4.671 -2.5217  0.9350 -0.1651
   27MOL0     H 3631   3.679   7.881   4.689 -1.6620  0.6944  0.8271
   27MOL0     H 3632   3.509   8.004   4.573  2.8938 -0.9349 -2.4647
   27MOL0     H 3633   3.295   8.080   4.502  0.6544 -0.0729 -1.5915
   27MOL0     H 3634   3.272   7.965   4.640  0.2485  3.7224  1.1622
   27MOL0     H 3635   3.091   8.085   4.638 -0.4750  0.7569 -0.5092
   27MOL0     H 3636   3.052   7.924   4.590  1.6582 -1.6687  2.3568
   27MOL0     H 3637   2.920   8.073   4.460  1.5316 -0.1029  2.0250
   27MOL0     H 3638   3.031   7.977   4.352 -0.3853 -1.2919 -1.1093
   27MOL0     H 3639   2.985   8.212   4.268  1.2822  1.1281 -0.3854
   27MOL0     H 3640   3.069   8.270   4.423 -1.2931 -1.7512  2.4887
   27MOL0     H 3641   3.389   8.159   4.168 -0.6716 -2.6278 -1.9244
   27MOL0     H 3642   3.322   7.655   4.444 -2.5104  1.7748  0.5823
   27MOL0     H 3643   3.388   7.446   4.512 -0.6034  3.5447 -1.0723
   27MOL0     H 3644   3.575   7.410   4.524 -1.0017  0.1352 -1.4352
   27MOL0     H 3645   3.478   7.434   4.660 -1.9862 -0.0842 -0.1558
   28MOL0     O 3646   0.415   8.237   9.052  0.2170  0.0933 -1.1487
   28MOL0     C 3647   0.515   8.279   9.113  0.1669 -0.5738  0.4160
   28MOL0     O 3648   0.643   8.267   9.068 -0.5443 -0.2671 -0.7771
   28MOL0     C 3649   0.662   8.208   8.951 -0.1717 -0.9249  0.5961
   28MOL0     C 3650   0.616   8.281   8.840  0.4051  0.3567  0.1715
   28MOL0     C 3651   0.621   8.219   8.720  0.1771  0.1948  0.2848
   28MOL0     C 3652   0.676   8.086   8.699  0.4153  0.3738  0.0421
   28MOL0     O 3653   0.665   8.014   8.581  0.2022 -0.5646  0.1314
   28MOL0     C 3654   0.720   8.084   8.466  0.3073 -0.4341 -0.0902
   28MOL0     C 3655   0.616   8.101   8.359 -1.1705  0.8053  0.1432
   28MOL0     C 3656   0.500   8.199   8.386  0.0761  0.2196  0.2272
   28MOL0     C 3657   0.392   8.183   8.284 -0.1123  0.0508  0.2453
   28MOL0     C 3658   0.296   8.312   8.297  0.3628  0.3635  0.0811
   28MOL0     C 3659   0.214   8.326   8.169  0.6436 -0.1115  0.4941
   28MOL0     C 3660   0.070   8.375   8.176 -0.3017  0.6102  0.0612
   28MOL0     C 3661   0.048   8.526   8.212  0.1638 -0.2745 -0.0657
   28MOL0     N 3662  -0.101   8.552   8.225 -0.1704 -0.1084 -0.0513
   28MOL0     C 3663  -0.191   8.475   8.287 -0.3771 -0.8658  0.6372
   28MOL0     C 3664  -0.311   8.514   8.249 -0.4501 -0.1108 -0.2594
   28MOL0     C 3665  -0.433   8.442   8.286 -0.0806 -0.1283 -1.3430
   28MOL0     C 3666  -0.529   8.537   8.366  0.2697  0.0792 -0.1873
   28MOL0     C 3667  -0.663   8.469   8.394 -0.0267 -0.6921  0.2195
   28MOL0     C 3668  -0.762   8.562   8.455 -0.0098 -0.3498 -0.0313
   28MOL0     O 3669  -0.740   8.603   8.590  0.1544  1.1098 -0.0987
   28MOL0     C 3670  -0.660   8.718   8.617 -0.0989 -0.2620 -1.3725
   28MOL0     C 3671  -0.597   8.808   8.530 -0.8078  0.8987  0.2715
   28MOL0     C 3672  -0.506   8.908   8.571 -0.4244 -0.8920  0.2989
   28MOL0     C 3673  -0.476   8.933   8.708 -0.4935  0.9539 -0.1802
   28MOL0     C 3674  -0.385   9.044   8.755 -0.3204  0.3496  0.5594
   28MOL0     O 3675  -0.363   9.136   8.664 -0.9938  0.0655 -0.2001
   28MOL0     C 3676  -0.283   9.244   8.709  0.1245  0.6002 -1.2222
   28MOL0     C 3677  -0.158   9.229   8.763  0.4803  0.4472 -0.2281
   28MOL0     C 3678  -0.086   9.340   8.815  0.6948  0.7556 -0.5566
   28MOL0     C 3679  -0.154   9.461   8.841  0.6636  0.2228 -0.4049
   28MOL0     O 3680  -0.123   9.558   8.930 -0.7645  0.4865 -0.2489
   28MOL0     C 3681   0.015   9.587   8.957 -0.6225 -0.1481  0.6512
   28MOL0     C 3682   0.038   9.728   9.017  0.3171  0.3779  0.3069
   28MOL0     C 3683   0.171   9.794   8.998  0.3565  0.1976 -0.1083
   28MOL0     C 3684   0.178   9.921   9.071 -0.0511 -0.3052  0.0174
   28MOL0     C 3685   0.296  10.000   9.025 -0.1714  0.0697  0.0286
   28MOL0     C 3686   0.328  10.117   9.116  0.8343 -0.9250  0.3937
   28MOL0     C 3687   0.464  10.168   9.106 -0.0074 -0.3269  0.0914
   28MOL0     C 3688   0.474  10.305   9.159 -0.3428 -0.3254  0.4889
   28MOL0    Cl 3689   0.398  10.330   9.325  0.1074  0.4118 -0.3363
   28MOL0     C 3690  -0.280   9.466   8.783  0.3027 -0.6385  0.8471
   28MOL0     C 3691  -0.343   9.367   8.717 -0.1736  0.0552 -0.2278
   28MOL0     O 3692  -0.344   9.032   8.870 -0.2007  0.1583 -0.4582
   28MOL0     C 3693  -0.551   8.860   8.801 -0.6394 -0.1088 -0.4411
   28MOL0     C 3694  -0.631   8.748   8.761  0.5068  0.8531 -0.0676
   28MOL0     N 3695  -0.305   8.606   8.151  0.1000  0.2348  0.4034
   28MOL0     N 3696  -0.180   8.630   8.143  0.2394 -0.5063  0.1621
   28MOL0     C 3697   0.713   8.017   8.813  1.0442  0.5426  0.0473
   28MOL0     C 3698   0.708   8.077   8.938 -0.0176  0.4369  0.4271
   28MOL0     C 3699   0.486   8.368   9.234 -0.2139  0.7605 -0.5187
   28MOL0     C 3700   0.595   8.436   9.292 -0.0638 -1.0086 -0.4410
   28MOL0     C 3701   0.591   8.486   9.422  0.9490 -0.0061 -0.4720
   28MOL0     C 3702   0.469   8.500   9.493 -0.4277  0.9270  0.5288
   28MOL0     O 3703   0.454   8.588   9.601 -0.0832  0.1087  0.4016
   28MOL0     C 3704   0.570   8.663   9.642 -0.4150  0.5197  0.1199
   28MOL0     C 3705   0.647   8.577   9.747 -0.0096  0.1372  0.6821
   28MOL0     C 3706   0.584   8.582   9.885  0.5304 -0.9892  0.5461
   28MOL0     C 3707   0.624   8.451   9.951  0.0829  0.9264 -0.2312
   28MOL0     C 3708   0.569   8.458  10.082  0.4499  0.1882 -0.1869
   28MOL0     C 3709   0.531   8.453  10.197  0.2454  0.0557 -0.1517
   28MOL0     C 3710   0.362   8.427   9.442  0.7992 -0.4987  0.0093
   28MOL0     C 3711   0.362   8.361   9.314 -0.0597 -0.0814  0.3248
   28MOL0     C 3712   0.249   8.272   9.281  0.2989 -0.3483  0.1043
   28MOL0     H 3713   0.588   8.385   8.853  0.6133  0.1360  3.2675
   28MOL0     H 3714   0.592   8.276   8.632  3.5614 -2.3317 -2.7841
   28MOL0     H 3715   0.766   8.175   8.504  0.0833 -0.3075 -0.1204
   28MOL0     H 3716   0.805   8.025   8.433 -0.6222 -2.2048  0.5033
   28MOL0     H 3717   0.560   8.007   8.353  0.8490 -0.4087 -0.6181
   28MOL0     H 3718   0.666   8.121   8.264 -0.0983 -0.4514  0.4228
   28MOL0     H 3719   0.530   8.304   8.378  2.6990 -0.5960 -2.8734
   28MOL0     H 3720   0.457   8.193   8.486  1.2082  0.8037  0.7695
   28MOL0     H 3721   0.424   8.178   8.180  2.5011 -2.0092  1.0321
   28MOL0     H 3722   0.328   8.095   8.294 -1.6503  0.9314 -1.1765
   28MOL0     H 3723   0.230   8.292   8.382  1.3539 -0.4253  0.6851
   28MOL0     H 3724   0.353   8.403   8.315  1.6453 -0.5714  0.9384
   28MOL0     H 3725   0.266   8.395   8.102 -1.6867  4.5915  3.0566
   28MOL0     H 3726   0.225   8.225   8.128  2.8828  0.5624 -0.7669
   28MOL0     H 3727   0.018   8.325   8.259  2.5197  1.1427  2.3224
   28MOL0     H 3728   0.020   8.349   8.083 -2.8465 -0.4290  1.6223
   28MOL0     H 3729   0.099   8.553   8.305 -1.0367 -0.1022  0.5575
   28MOL0     H 3730   0.086   8.588   8.131 -1.2506 -0.2716 -0.7410
   28MOL0     H 3731  -0.170   8.386   8.346  1.1690 -2.1370 -1.6384
   28MOL0     H 3732  -0.480   8.395   8.199  0.2738 -0.2353 -1.4796
   28MOL0     H 3733  -0.408   8.355   8.347 -1.6821 -0.3364 -0.9313
   28MOL0     H 3734  -0.485   8.558   8.463 -1.8604  1.7769  0.5083
   28MOL0     H 3735  -0.542   8.623   8.300  5.1525  0.4163 -1.0499
   28MOL0     H 3736  -0.633   8.382   8.452 -0.7295 -0.5102  0.8686
   28MOL0     H 3737  -0.705   8.444   8.296 -1.4823  1.6166  0.1686
   28MOL0     H 3738  -0.865   8.528   8.446 -2.6392  6.2021 -0.4616
   28MOL0     H 3739  -0.761   8.655   8.396 -0.9364  0.2837  0.9216
   28MOL0     H 3740  -0.608   8.813   8.422  1.1232  2.9938  0.0861
   28MOL0     H 3741  -0.461   8.970   8.494  0.9584 -1.6008  0.5104
   28MOL0     H 3742  -0.110   9.132   8.766 -0.6793 -0.1837 -1.3901
   28MOL0     H 3743   0.015   9.334   8.856 -0.0133 -0.8410  1.0904
   28MOL0     H 3744   0.044   9.513   9.032 -0.3625  0.4793  1.1872
   28MOL0     H 3745   0.069   9.568   8.864  0.1979 -0.7856  1.2410
   28MOL0     H 3746  -0.032   9.793   8.962 -0.2924 -1.6191 -1.3927
   28MOL0     H 3747   0.003   9.721   9.120 -1.2651  2.2492 -0.0251
   28MOL0     H 3748   0.243   9.723   9.039 -0.6076 -0.4127  0.5805
   28MOL0     H 3749   0.192   9.801   8.891  1.3220  0.0856  0.0612
   28MOL0     H 3750   0.192   9.892   9.176  0.2698  0.0289  0.0687
   28MOL0     H 3751   0.090   9.986   9.066  0.2419  0.2361  1.4016
   28MOL0     H 3752   0.277  10.041   8.925  0.1043  0.6656  0.2142
   28MOL0     H 3753   0.385   9.938   9.017  0.3702  0.7672  0.5547
   28MOL0     H 3754   0.256  10.192   9.082  1.9612  0.4623  0.9887
   28MOL0     H 3755   0.309  10.096   9.221 -0.9022  1.7641  0.7101
   28MOL0     H 3756   0.492  10.169   9.001 -1.3702  1.9070 -0.3394
   28MOL0     H 3757   0.530  10.106   9.167 -1.6026 -0.9377  1.2789
   28MOL0     H 3758   0.579  10.336   9.154 -0.1140 -1.2615 -1.3162
   28MOL0     H 3759   0.414  10.381   9.108  0.1525  0.9643  1.7523
   28MOL0     H 3760  -0.337   9.558   8.799 -0.8206 -0.4640 -2.9446
   28MOL0     H 3761  -0.443   9.391   8.682  0.1014 -1.1778 -1.9861
   28MOL0     H 3762  -0.549   8.887   8.907  1.7035 -1.1555 -0.1592
   28MOL0     H 3763  -0.682   8.687   8.834  1.6666 -1.9394 -1.4620
   28MOL0     H 3764   0.759   7.921   8.793 -2.2787 -1.2546  0.3980
   28MOL0     H 3765   0.751   8.030   9.025 -1.3681 -0.2369  0.7583
   28MOL0     H 3766   0.693   8.426   9.246  2.0777 -3.3511  3.9283
   28MOL0     H 3767   0.683   8.528   9.463 -1.0911  0.8449  3.8317
   28MOL0     H 3768   0.538   8.752   9.697  1.9067  0.9098  0.9488
   28MOL0     H 3769   0.631   8.701   9.560  0.0190  3.0394  1.5065
   28MOL0     H 3770   0.748   8.620   9.746  0.1216 -0.1694  0.2619
   28MOL0     H 3771   0.646   8.477   9.702  0.5700  1.4582 -2.5202
   28MOL0     H 3772   0.476   8.599   9.882  0.7698  0.5369  0.0091
   28MOL0     H 3773   0.625   8.665   9.943 -0.3829  2.2411 -3.0158
   28MOL0     H 3774   0.590   8.357   9.906  0.8134 -0.2701  1.5722
   28MOL0     H 3775   0.731   8.434   9.967  0.1767  0.2818 -1.4362
   28MOL0     H 3776   0.498   8.442  10.299  0.6295 -1.0740 -0.1317
   28MOL0     H 3777   0.272   8.413   9.500 -0.5298  2.5304 -1.1542
   28MOL0     H 3778   0.187   8.247   9.368  0.8582  0.4425  0.7482
   28MOL0     H 3779   0.184   8.322   9.209 -0.2713  0.7910  1.3478
   28MOL0     H 3780   0.279   8.172   9.249  0.6421 -1.0371  2.3916
   29MOL0     O 3781   2.097   2.206   5.649  0.4797 -0.7422 -0.0828
   29MOL0     C 3782   2.060   2.299   5.724 -1.1071 -0.0823 -0.0070
   29MOL0     O 3783   2.144   2.399   5.771  0.5918 -0.4844  0.0375
   29MOL0     C 3784   2.280   2.385   5.758  0.4381 -0.4970  0.1555
   29MOL0     C 3785   2.343   2.492   5.707  0.4267 -0.3276  0.2837
   29MOL0     C 3786   2.477   2.482   5.662  0.4014  0.2319 -0.0390
   29MOL0     C 3787   2.543   2.362   5.672  0.4701  0.9919 -1.1334
   29MOL0     O 3788   2.668   2.327   5.619 -0.2935 -0.0324 -0.3938
   29MOL0     C 3789   2.748   2.442   5.574  0.5779  0.6489 -0.7498
   29MOL0     C 3790   2.889   2.386   5.552 -0.4599  0.0206 -0.4033
   29MOL0     C 3791   2.982   2.497   5.504  0.9243  0.2204  0.1468
   29MOL0     C 3792   2.972   2.509   5.349  0.1391 -0.3924 -0.5601
   29MOL0     C 3793   3.085   2.597   5.299  0.9222  0.0082 -0.0453
   29MOL0     C 3794   3.072   2.621   5.153 -0.6613  0.1519  0.2549
   29MOL0     C 3795   3.135   2.754   5.111 -0.2359  1.2195 -0.2025
   29MOL0     C 3796   3.290   2.744   5.128 -0.1810 -0.9556 -0.4314
   29MOL0     N 3797   3.340   2.640   5.038  0.0524 -0.2167 -0.3502
   29MOL0     C 3798   3.343   2.638   4.899  0.1237  0.1219 -0.6917
   29MOL0     C 3799   3.405   2.523   4.871  1.2612 -0.6200 -0.4117
   29MOL0     C 3800   3.411   2.469   4.724  0.4134  0.9316 -0.7503
   29MOL0     C 3801   3.548   2.417   4.695  0.1043 -0.2111  0.7133
   29MOL0     C 3802   3.606   2.473   4.571 -0.5259 -0.6412  0.3555
   29MOL0     C 3803   3.756   2.455   4.555 -0.2697  0.6281 -1.0778
   29MOL0     O 3804   3.826   2.502   4.672 -0.3446 -0.1730 -0.5983
   29MOL0     C 3805   3.968   2.496   4.671 -0.0372 -0.2420  0.1485
   29MOL0     C 3806   4.038   2.443   4.558  0.2776  0.6349 -0.2735
   29MOL0     C 3807   4.174   2.425   4.559  0.4136 -0.8504  0.2223
   29MOL0     C 3808   4.245   2.470   4.670 -0.3098  0.3038 -0.3383
   29MOL0     C 3809   4.398   2.467   4.666 -0.0036 -0.2653 -0.7750
   29MOL0     O 3810   4.469   2.500   4.786  0.0483 -0.0836 -0.2686
   29MOL0     C 3811   4.612   2.521   4.777 -0.1374 -0.1170 -0.0687
   29MOL0     C 3812   4.700   2.481   4.883 -0.3699 -0.1416  0.6040
   29MOL0     C 3813   4.826   2.535   4.893  0.1806 -0.2889  0.0226
   29MOL0     C 3814   4.880   2.607   4.781  0.6519 -0.4771 -0.8832
   29MOL0     O 3815   5.001   2.660   4.786 -0.4868 -0.2414 -0.0828
   29MOL0     C 3816   5.106   2.595   4.869 -0.8249 -0.6032  0.8408
   29MOL0     C 3817   5.243   2.609   4.792 -0.2057  0.1982 -0.4704
   29MOL0     C 3818   5.291   2.748   4.822 -0.0912  0.0900  0.0709
   29MOL0     C 3819   5.411   2.777   4.736 -0.8278  0.4484 -0.4595
   29MOL0     C 3820   5.460   2.917   4.756  0.0900 -0.6965 -0.2351
   29MOL0     C 3821   5.603   2.954   4.694 -0.4616  0.4609 -0.6982
   29MOL0     C 3822   5.710   2.854   4.738  0.3157 -0.4993  0.2905
   29MOL0     C 3823   5.854   2.910   4.719  1.3178  0.4432 -0.0876
   29MOL0    Cl 3824   5.897   2.971   4.556  0.2457  0.3509  0.0541
   29MOL0     C 3825   4.791   2.639   4.679 -0.4736 -1.1092  0.6088
   29MOL0     C 3826   4.659   2.602   4.679 -1.0766 -0.3418  0.9738
   29MOL0     O 3827   4.454   2.430   4.566 -0.1572 -0.4101  0.2523
   29MOL0     C 3828   4.180   2.513   4.785 -0.3901  0.0480 -0.7260
   29MOL0     C 3829   4.038   2.528   4.790  0.1070  0.6605 -0.5239
   29MOL0     N 3830   3.431   2.456   4.989 -1.2103  0.5892 -0.3016
   29MOL0     N 3831   3.387   2.520   5.084  0.7576  0.2712 -0.6246
   29MOL0     C 3832   2.476   2.258   5.750  0.2442 -0.4211 -0.1818
   29MOL0     C 3833   2.344   2.279   5.798  0.1873  0.4733 -0.2162
   29MOL0     C 3834   1.927   2.295   5.766  0.1904 -0.7634  0.4530
   29MOL0     C 3835   1.879   2.413   5.828  0.5079  0.4609 -0.7986
   29MOL0     C 3836   1.740   2.440   5.859 -0.5378  0.5836  1.0605
   29MOL0     C 3837   1.653   2.342   5.833  0.1748  0.9172 -0.2089
   29MOL0     O 3838   1.515   2.338   5.850  0.0187 -0.1532 -0.2100
   29MOL0     C 3839   1.442   2.444   5.913  0.0987 -0.1048  0.3915
   29MOL0     C 3840   1.303   2.394   5.950 -0.0850  0.7929 -1.0326
   29MOL0     C 3841   1.226   2.356   5.826  0.9302  0.8859  1.1408
   29MOL0     C 3842   1.078   2.398   5.831 -0.1673 -0.1667  0.5553
   29MOL0     C 3843   1.000   2.321   5.923 -0.4729 -0.4520 -0.7347
   29MOL0     C 3844   0.925   2.272   6.002 -0.2818 -0.5883 -0.3305
   29MOL0     C 3845   1.692   2.224   5.762 -0.0693  0.5344  0.7048
   29MOL0     C 3846   1.823   2.200   5.735 -0.0261 -0.4558 -0.4016
   29MOL0     C 3847   1.849   2.063   5.671 -0.6283 -0.1006 -0.0473
   29MOL0     H 3848   2.301   2.591   5.690  2.0705  0.3757  0.0617
   29MOL0     H 3849   2.517   2.561   5.599 -0.0447 -0.7218 -1.5525
   29MOL0     H 3850   2.694   2.473   5.484 -2.6963  1.7238  1.3893
   29MOL0     H 3851   2.738   2.529   5.639 -3.9802 -0.1087 -0.0797
   29MOL0     H 3852   2.887   2.301   5.484  4.7767 -1.4777  0.8798
   29MOL0     H 3853   2.935   2.343   5.641  1.3877  2.4664 -0.0864
   29MOL0     H 3854   3.084   2.478   5.539 -0.0111  0.5975  3.4343
   29MOL0     H 3855   2.962   2.595   5.549 -2.2508  0.4490 -1.4530
   29MOL0     H 3856   2.989   2.409   5.308  0.0972 -0.3769 -0.6148
   29MOL0     H 3857   2.874   2.553   5.327  2.1522  4.2489 -1.3740
   29MOL0     H 3858   3.096   2.688   5.359 -0.2229 -1.0880  1.9553
   29MOL0     H 3859   3.182   2.548   5.310  0.9286 -0.7846 -2.8789
   29MOL0     H 3860   3.117   2.540   5.095 -0.2311  0.3958  0.2426
   29MOL0     H 3861   2.968   2.627   5.121 -1.0318 -3.1048  0.5542
   29MOL0     H 3862   3.092   2.835   5.171 -2.2835  0.8783 -1.1207
   29MOL0     H 3863   3.103   2.768   5.007  1.4579  0.0927 -0.9061
   29MOL0     H 3864   3.337   2.840   5.105  2.2387 -2.3098 -1.4896
   29MOL0     H 3865   3.316   2.719   5.231  0.7586  0.3785 -0.3161
   29MOL0     H 3866   3.289   2.713   4.843 -1.5375 -1.8709 -1.8991
   29MOL0     H 3867   3.350   2.379   4.718  2.4156 -0.4119 -2.2921
   29MOL0     H 3868   3.390   2.546   4.650  0.0859  2.0689  0.4798
   29MOL0     H 3869   3.606   2.439   4.785  2.6749  1.0282 -1.1469
   29MOL0     H 3870   3.538   2.308   4.691 -1.7543 -0.0452 -2.8157
   29MOL0     H 3871   3.580   2.575   4.542 -1.1506 -1.2477 -1.3511
   29MOL0     H 3872   3.563   2.420   4.486 -0.4687  3.3919 -2.4612
   29MOL0     H 3873   3.783   2.511   4.466  0.1091  1.5338 -0.4134
   29MOL0     H 3874   3.763   2.349   4.531 -0.0650 -0.2028  2.1265
   29MOL0     H 3875   3.988   2.394   4.475  1.4772 -3.7963  1.3050
   29MOL0     H 3876   4.222   2.381   4.472  1.3744  0.1490  0.2263
   29MOL0     H 3877   4.659   2.429   4.970 -0.0217  0.5596  1.2011
   29MOL0     H 3878   4.888   2.511   4.979  0.1464 -0.7361 -0.0754
   29MOL0     H 3879   5.117   2.656   4.959 -0.7578 -2.2886  2.0203
   29MOL0     H 3880   5.090   2.490   4.895  0.0937 -1.3605 -1.3982
   29MOL0     H 3881   5.322   2.543   4.828 -2.1310 -1.4983  0.9545
   29MOL0     H 3882   5.228   2.583   4.687 -0.6453  1.4416 -0.7291
   29MOL0     H 3883   5.217   2.824   4.797  0.6227 -0.1876 -3.4142
   29MOL0     H 3884   5.316   2.756   4.928  0.2472 -5.4588  0.7396
   29MOL0     H 3885   5.405   2.761   4.628  2.1024  0.4852 -0.7209
   29MOL0     H 3886   5.488   2.708   4.772 -2.4911 -1.2068  0.0767
   29MOL0     H 3887   5.456   2.953   4.859  1.9081 -1.6872  0.2241
   29MOL0     H 3888   5.396   2.983   4.696 -3.9772  0.1573  4.4039
   29MOL0     H 3889   5.597   2.934   4.587  1.2868  1.0804 -0.9513
   29MOL0     H 3890   5.618   3.061   4.713  1.4887  0.1418 -0.2168
   29MOL0     H 3891   5.697   2.759   4.686 -1.0901  0.4801 -1.2313
   29MOL0     H 3892   5.690   2.839   4.844  0.1365  0.4958  0.4089
   29MOL0     H 3893   5.852   2.999   4.783 -1.4183  1.1784 -1.0848
   29MOL0     H 3894   5.930   2.838   4.751  0.3058 -0.1772  1.0009
   29MOL0     H 3895   4.825   2.706   4.600 -1.8983 -0.3466  0.6231
   29MOL0     H 3896   4.589   2.653   4.614  0.0424  1.2942  0.9903
   29MOL0     H 3897   4.238   2.556   4.866 -1.2390  1.1491 -0.6723
   29MOL0     H 3898   3.993   2.565   4.882 -0.7061 -1.5768  0.0622
   29MOL0     H 3899   2.523   2.160   5.762  0.3017 -0.3398  0.2630
   29MOL0     H 3900   2.293   2.191   5.835 -0.2988  0.7376 -0.2482
   29MOL0     H 3901   1.945   2.493   5.860  2.9699 -1.2385 -1.3585
   29MOL0     H 3902   1.709   2.531   5.908 -0.5021  0.3747  1.4773
   29MOL0     H 3903   1.429   2.530   5.846 -2.7175 -0.7224  0.0481
   29MOL0     H 3904   1.499   2.478   6.001  1.1711 -0.7727 -0.0321
   29MOL0     H 3905   1.243   2.457   6.017  0.8177  2.0194 -1.3387
   29MOL0     H 3906   1.305   2.298   6.002 -2.5663  0.0090 -2.2340
   29MOL0     H 3907   1.234   2.249   5.805  1.0651  1.4801 -2.6262
   29MOL0     H 3908   1.259   2.410   5.737  1.8668  1.5850  1.9044
   29MOL0     H 3909   1.081   2.505   5.855 -3.2846  0.3164 -0.7817
   29MOL0     H 3910   1.024   2.383   5.737 -3.6074 -0.5135  2.4435
   29MOL0     H 3911   0.845   2.230   6.059 -0.3690 -0.5958 -0.4584
   29MOL0     H 3912   1.615   2.160   5.720  0.4988  1.3191 -1.6583
   29MOL0     H 3913   1.767   1.997   5.642 -0.2226 -0.5663 -0.1321
   29MOL0     H 3914   1.880   2.090   5.569  0.9836 -2.0123 -0.1057
   29MOL0     H 3915   1.926   2.012   5.728 -0.8278 -3.1271 -2.2458
   30MOL0     O 3916   3.168   6.444  11.354 -1.0012  0.0286 -0.8228
   30MOL0     C 3917   3.241   6.490  11.264 -1.2053 -0.3919  0.2188
   30MOL0     O 3918   3.337   6.589  11.295 -0.1645  0.4149 -0.2612
   30MOL0     C 3919   3.351   6.646  11.421  0.3709  1.1087  0.2075
   30MOL0     C 3920   3.251   6.706  11.496 -0.1263 -0.3275  0.1167
   30MOL0     C 3921   3.280   6.755  11.623 -0.2696 -0.2596 -0.1209
   30MOL0     C 3922   3.412   6.757  11.674  0.6295  0.4115  0.3976
   30MOL0     O 3923   3.434   6.816  11.796  0.3036 -0.4533  0.0862
   30MOL0     C 3924   3.495   6.734  11.890  0.3975 -0.6958  0.5941
   30MOL0     C 3925   3.489   6.804  12.029  0.7941 -0.4858  0.1254
   30MOL0     C 3926   3.512   6.956  12.034  0.5730 -0.0020  0.0330
   30MOL0     C 3927   3.643   6.992  11.984 -0.2234 -0.3785 -0.5270
   30MOL0     C 3928   3.671   7.146  12.009 -0.3147  0.4317 -0.0900
   30MOL0     C 3929   3.821   7.174  12.010 -0.5542 -0.2517  1.1665
   30MOL0     C 3930   3.874   7.167  11.872  0.6197 -0.4862  0.3312
   30MOL0     C 3931   3.870   7.313  11.805 -0.5912 -0.4459  0.4809
   30MOL0     N 3932   3.995   7.386  11.830 -0.0655 -0.3375 -0.1237
   30MOL0     C 3933   4.011   7.478  11.929 -0.1578 -0.4931 -0.8044
   30MOL0     C 3934   4.151   7.493  11.934  0.0633 -0.6269 -0.4413
   30MOL0     C 3935   4.236   7.580  12.029 -0.5998 -0.5308  0.9682
   30MOL0     C 3936   4.274   7.500  12.149 -0.6692  0.3709 -0.7162
   30MOL0     C 3937   4.402   7.571  12.218 -0.3410 -0.0164  0.6843
   30MOL0     C 3938   4.382   7.725  12.245 -0.6799 -0.1344  0.3604
   30MOL0     O 3939   4.265   7.747  12.324 -0.2580 -0.0526 -0.4429
   30MOL0     C 3940   4.254   7.874  12.372  0.8493  1.3219  0.2296
   30MOL0     C 3941   4.345   7.977  12.370 -0.8380  0.2144 -0.4007
   30MOL0     C 3942   4.317   8.111  12.413 -0.7186  0.0173  0.3780
   30MOL0     C 3943   4.201   8.139  12.477  0.5768 -0.6692 -0.9373
   30MOL0     C 3944   4.173   8.278  12.534 -0.6467 -0.1720 -0.9295
   30MOL0     O 3945   4.048   8.313  12.577  0.4488  0.6146 -0.5502
   30MOL0     C 3946   4.024   8.449  12.614 -0.1917  0.1685  0.3178
   30MOL0     C 3947   4.022   8.552  12.517 -0.2409  0.6423  0.4243
   30MOL0     C 3948   3.990   8.687  12.545 -0.2242  0.0226  0.7549
   30MOL0     C 3949   3.963   8.726  12.684  0.2111  0.2719  0.9071
   30MOL0     O 3950   3.940   8.850  12.740 -0.0099  0.0554  0.8680
   30MOL0     C 3951   3.939   8.964  12.661 -1.1163 -0.1543 -0.1857
   30MOL0     C 3952   3.949   9.072  12.772 -0.8134 -0.0602 -0.5989
   30MOL0     C 3953   3.827   9.094  12.858 -0.1060  0.9229 -0.6527
   30MOL0     C 3954   3.870   9.163  13.002 -0.9524  0.0814  0.3136
   30MOL0     C 3955   3.893   9.061  13.108  0.4056  0.0334 -0.4174
   30MOL0     C 3956   3.849   9.118  13.249  0.4412  0.8917  0.4111
   30MOL0     C 3957   3.848   9.010  13.363 -0.3961  0.3685 -0.3438
   30MOL0     C 3958   3.836   9.085  13.489  0.1380 -0.7271  0.1063
   30MOL0    Cl 3959   3.999   9.147  13.548  0.1534  0.0530 -0.3781
   30MOL0     C 3960   3.965   8.625  12.778 -0.3920 -0.1835  0.4332
   30MOL0     C 3961   3.997   8.493  12.743  1.3605  0.5151 -0.4703
   30MOL0     O 3962   4.270   8.356  12.518 -0.1945  0.5952 -0.0511
   30MOL0     C 3963   4.111   8.036  12.495  0.2922 -0.1438 -0.4941
   30MOL0     C 3964   4.141   7.900  12.450  0.1103 -0.5562 -1.0011
   30MOL0     N 3965   4.209   7.404  11.840  0.1297 -0.1418 -0.4361
   30MOL0     N 3966   4.112   7.345  11.776 -0.6530  0.4407  0.2582
   30MOL0     C 3967   3.511   6.694  11.599  0.6356  0.3399 -0.3623
   30MOL0     C 3968   3.484   6.637  11.479  1.3174  1.2995  0.0116
   30MOL0     C 3969   3.222   6.446  11.121  0.3474 -0.6856 -0.2981
   30MOL0     C 3970   3.327   6.480  11.027 -0.6199  0.3997  0.4638
   30MOL0     C 3971   3.321   6.430  10.901 -0.7630  0.3754 -0.1580
   30MOL0     C 3972   3.215   6.362  10.854  0.3862 -0.1290 -1.1717
   30MOL0     O 3973   3.193   6.335  10.726  0.2958  0.4564  0.6119
   30MOL0     C 3974   3.265   6.218  10.697 -0.3160 -0.5777 -0.3974
   30MOL0     C 3975   3.197   6.141  10.590  0.2002 -0.1450  0.1861
   30MOL0     C 3976   3.264   6.005  10.543  0.3661 -0.3552  0.7519
   30MOL0     C 3977   3.266   5.914  10.657  0.9170  0.6001 -0.0790
   30MOL0     C 3978   3.126   5.879  10.694  0.7333 -0.3202  1.2460
   30MOL0     C 3979   3.007   5.863  10.718  0.0828 -0.0401 -0.5320
   30MOL0     C 3980   3.105   6.339  10.944  0.0579  0.0713  0.9055
   30MOL0     C 3981   3.111   6.374  11.077 -0.0366  0.1707  0.5243
   30MOL0     C 3982   2.992   6.322  11.165 -0.6094  0.0345  0.3383
   30MOL0     H 3983   3.147   6.714  11.465 -1.0719  0.1900  3.0892
   30MOL0     H 3984   3.201   6.806  11.677 -2.1970 -0.7067 -2.3779
   30MOL0     H 3985   3.439   6.641  11.906 -0.0318 -0.3508  1.1058
   30MOL0     H 3986   3.598   6.716  11.858  0.1768  0.0517 -0.6150
   30MOL0     H 3987   3.568   6.764  12.092  1.0263 -0.7773 -0.3453
   30MOL0     H 3988   3.389   6.787  12.069  1.1652 -2.6406  0.2121
   30MOL0     H 3989   3.503   6.996  12.136 -2.6023  2.6870 -1.1289
   30MOL0     H 3990   3.425   6.996  11.981  0.8268  0.5196  0.0010
   30MOL0     H 3991   3.714   6.929  12.040 -0.9452 -0.7038  0.0352
   30MOL0     H 3992   3.653   6.968  11.878  3.5117  1.8822 -0.8690
   30MOL0     H 3993   3.618   7.205  11.934  0.2987  0.7987 -0.2431
   30MOL0     H 3994   3.635   7.180  12.107 -4.2513 -2.2266 -0.4051
   30MOL0     H 3995   3.846   7.277  12.036  2.1277 -1.0157  1.8504
   30MOL0     H 3996   3.880   7.102  12.067 -0.8020  0.6014  2.5569
   30MOL0     H 3997   3.828   7.091  11.808 -2.1050 -0.5753  2.2452
   30MOL0     H 3998   3.979   7.139  11.883  0.2511 -1.9763  0.2795
   30MOL0     H 3999   3.862   7.319  11.696 -0.3900  1.6713  0.5285
   30MOL0     H 4000   3.787   7.375  11.840 -0.3662  1.1167 -1.5508
   30MOL0     H 4001   3.928   7.522  11.984 -0.6977 -0.1275 -1.8867
   30MOL0     H 4002   4.330   7.606  11.979  0.3455 -1.6593  2.0620
   30MOL0     H 4003   4.186   7.674  12.052  3.0358  1.5011  1.4214
   30MOL0     H 4004   4.187   7.518  12.213 -0.9510 -0.7487 -0.7780
   30MOL0     H 4005   4.295   7.395  12.130 -0.1218  0.5720 -1.3018
   30MOL0     H 4006   4.493   7.548  12.163 -1.0902  0.2587 -0.7249
   30MOL0     H 4007   4.421   7.531  12.318  1.9107  1.8887  1.1135
   30MOL0     H 4008   4.387   7.774  12.148  1.7644 -0.5144  0.2250
   30MOL0     H 4009   4.476   7.746  12.298  0.8810 -1.1789 -1.8292
   30MOL0     H 4010   4.442   7.946  12.332 -0.0063 -3.7098  3.9595
   30MOL0     H 4011   4.377   8.196  12.381  1.7201 -1.2707  1.2886
   30MOL0     H 4012   4.053   8.539  12.414  4.1876  0.6485  1.5595
   30MOL0     H 4013   4.008   8.762  12.469 -0.0708  0.0414  0.8081
   30MOL0     H 4014   4.028   8.962  12.597 -1.0941 -0.4692 -0.1466
   30MOL0     H 4015   3.846   8.973  12.603 -1.5489 -0.0110  0.5138
   30MOL0     H 4016   4.029   9.041  12.839  0.7802 -0.2874 -2.5231
   30MOL0     H 4017   3.969   9.167  12.722 -0.0883  1.1573  1.8541
   30MOL0     H 4018   3.758   9.155  12.799  0.1823 -1.1608 -3.3151
   30MOL0     H 4019   3.770   9.007  12.890 -1.4781  1.6696 -0.9812
   30MOL0     H 4020   3.791   9.230  13.037 -1.8726 -1.5870  1.6190
   30MOL0     H 4021   3.965   9.217  13.001 -1.9204  2.0269  2.5495
   30MOL0     H 4022   3.997   9.026  13.108  0.0010 -1.1972 -0.1480
   30MOL0     H 4023   3.823   8.978  13.097  3.2082 -2.1661 -4.1294
   30MOL0     H 4024   3.918   9.198  13.280  3.4013 -1.8304  1.4325
   30MOL0     H 4025   3.750   9.164  13.246  0.4418  0.8478 -2.0775
   30MOL0     H 4026   3.941   8.952  13.371 -2.2200 -2.7644 -0.2745
   30MOL0     H 4027   3.765   8.941  13.343  1.9750 -1.7110 -4.2823
   30MOL0     H 4028   3.766   9.169  13.483  1.3244  0.1981 -2.2902
   30MOL0     H 4029   3.820   9.017  13.573 -0.3472  2.2067  2.5563
   30MOL0     H 4030   3.934   8.656  12.877 -0.0284 -0.0699  0.5110
   30MOL0     H 4031   3.995   8.425  12.827  0.7965 -1.1596 -1.7850
   30MOL0     H 4032   4.012   8.061  12.531  1.6770  0.6546  3.2059
   30MOL0     H 4033   4.062   7.826  12.450 -1.1837  0.5395  2.9625
   30MOL0     H 4034   3.618   6.703  11.614  0.7206  0.0877 -0.8137
   30MOL0     H 4035   3.558   6.589  11.415 -1.0803  0.2361 -2.1427
   30MOL0     H 4036   3.403   6.552  11.058 -0.1256 -0.3701  1.0950
   30MOL0     H 4037   3.401   6.450  10.830 -1.7367 -0.2238 -1.4601
   30MOL0     H 4038   3.262   6.158  10.789  2.6929  0.1764  0.2960
   30MOL0     H 4039   3.370   6.239  10.676 -0.9419  0.0120 -3.5249
   30MOL0     H 4040   3.209   6.204  10.501  3.2158 -0.9332 -0.0887
   30MOL0     H 4041   3.093   6.136  10.622  0.8993 -0.4152  2.6159
   30MOL0     H 4042   3.365   6.027  10.509 -0.6511  2.1274 -0.9415
   30MOL0     H 4043   3.205   5.979  10.455  2.2330 -0.2780 -0.5701
   30MOL0     H 4044   3.310   5.816  10.638  2.5001  1.3675 -0.5592
   30MOL0     H 4045   3.306   5.962  10.747  0.5568  3.5761 -1.3725
   30MOL0     H 4046   2.901   5.859  10.729  0.0506  1.1640 -0.3020
   30MOL0     H 4047   3.016   6.289  10.905  1.6225 -0.9379 -1.6181
   30MOL0     H 4048   2.948   6.399  11.228 -1.6751  0.8316 -1.3189
   30MOL0     H 4049   2.914   6.269  11.109 -0.6801  0.5100 -0.0170
   30MOL0     H 4050   3.049   6.252  11.227  1.6927  0.4244 -1.2058
   31MOL0     O 4051   4.016   4.506   0.695 -1.0807  0.1192 -0.2677
   31MOL0     C 4052   4.049   4.392   0.679 -0.4487  0.5344 -0.0774
   31MOL0     O 4053   3.988   4.293   0.609 -0.5511 -0.8179  0.5710
   31MOL0     C 4054   3.865   4.306   0.554  0.9960 -0.3079  0.0406
   31MOL0     C 4055   3.754   4.349   0.631 -0.0090  0.1885 -0.5631
   31MOL0     C 4056   3.627   4.367   0.563 -0.4421 -0.9603 -0.3289
   31MOL0     C 4057   3.601   4.319   0.436  0.5779  0.0547 -0.4419
   31MOL0     O 4058   3.481   4.346   0.384  0.4451  0.2643  0.8614
   31MOL0     C 4059   3.456   4.271   0.259 -0.5232  0.5777 -0.0843
   31MOL0     C 4060   3.312   4.260   0.229  0.4477  0.7178  0.1852
   31MOL0     C 4061   3.270   4.177   0.103 -0.5769  0.2884  0.4485
   31MOL0     C 4062   3.127   4.222   0.058  0.4778  0.0768 -0.6271
   31MOL0     C 4063   3.082   4.167  -0.078 -0.0999  1.3678 -0.6262
   31MOL0     C 4064   2.941   4.220  -0.125 -0.5224  0.5888 -0.1193
   31MOL0     C 4065   2.860   4.132  -0.213  0.6165  0.6879 -0.1927
   31MOL0     C 4066   2.921   4.124  -0.354  0.2501  1.1611  0.3007
   31MOL0     N 4067   2.866   4.006  -0.432 -0.2047 -0.4223 -0.8340
   31MOL0     C 4068   2.733   3.979  -0.474  0.1379  0.6242  0.1798
   31MOL0     C 4069   2.742   3.866  -0.545 -0.1867 -0.8319  0.4815
   31MOL0     C 4070   2.622   3.806  -0.622 -0.4323 -0.0813  0.7762
   31MOL0     C 4071   2.653   3.833  -0.770 -0.7048 -0.0916 -0.2831
   31MOL0     C 4072   2.621   3.987  -0.812  0.1643  0.5143 -0.0075
   31MOL0     C 4073   2.669   4.014  -0.960  1.3400  0.7116  0.3842
   31MOL0     O 4074   2.815   4.000  -0.991 -0.5460 -0.5713 -0.3788
   31MOL0     C 4075   2.898   4.091  -0.918 -0.4980 -0.0386  0.1236
   31MOL0     C 4076   2.962   4.040  -0.806  0.1571  0.7765  0.2285
   31MOL0     C 4077   3.044   4.123  -0.729  0.0628  0.0035  0.1119
   31MOL0     C 4078   3.065   4.254  -0.768  0.2353 -0.0559  0.3527
   31MOL0     C 4079   3.144   4.343  -0.681  0.1084  0.8952 -0.1450
   31MOL0     O 4080   3.148   4.307  -0.547 -0.3033  0.4658  0.2850
   31MOL0     C 4081   3.230   4.379  -0.456  0.3182 -0.3024 -0.7321
   31MOL0     C 4082   3.184   4.490  -0.391  0.6790 -0.7472 -0.0281
   31MOL0     C 4083   3.267   4.561  -0.307 -0.1619 -0.8722  0.3336
   31MOL0     C 4084   3.398   4.518  -0.286  0.2961 -0.2517 -0.2497
   31MOL0     O 4085   3.476   4.596  -0.201 -0.8672  0.2365  0.4677
   31MOL0     C 4086   3.565   4.532  -0.099 -0.5951  0.1285 -0.3582
   31MOL0     C 4087   3.628   4.641  -0.007  0.2739  0.8841  0.2688
   31MOL0     C 4088   3.688   4.758  -0.081  0.2130  0.7019  0.5298
   31MOL0     C 4089   3.747   4.850   0.024 -0.6366 -0.0918  0.7133
   31MOL0     C 4090   3.775   4.987  -0.033 -0.0913  1.0510  0.5863
   31MOL0     C 4091   3.661   5.075  -0.071 -0.0093  0.1911 -0.3891
   31MOL0     C 4092   3.705   5.220  -0.082  1.1993  0.2627 -0.6101
   31MOL0     C 4093   3.592   5.310  -0.147 -0.3964  0.2406  0.0825
   31MOL0    Cl 4094   3.627   5.488  -0.115  0.1877 -0.3222  0.3866
   31MOL0     C 4095   3.444   4.402  -0.342 -0.7072 -0.3156 -0.3963
   31MOL0     C 4096   3.356   4.334  -0.427 -0.2759  0.3484  0.6027
   31MOL0     O 4097   3.188   4.449  -0.729  0.9223  0.5640  0.2841
   31MOL0     C 4098   3.002   4.301  -0.888 -0.5515  0.1234 -0.3374
   31MOL0     C 4099   2.926   4.216  -0.964  0.8066 -0.0695  0.2360
   31MOL0     N 4100   2.874   3.819  -0.538 -0.0035 -0.3848  0.1956
   31MOL0     N 4101   2.946   3.898  -0.467 -0.4565  0.6662 -0.8442
   31MOL0     C 4102   3.713   4.256   0.370  0.8336 -1.1207 -0.0855
   31MOL0     C 4103   3.836   4.250   0.431 -0.2719  0.7516 -0.6703
   31MOL0     C 4104   4.188   4.366   0.745  0.9172 -0.3980  0.1780
   31MOL0     C 4105   4.277   4.475   0.771  0.1178  0.0808 -0.6511
   31MOL0     C 4106   4.395   4.459   0.843 -0.5757 -0.9504  0.0275
   31MOL0     C 4107   4.436   4.335   0.875  0.2709  0.2624 -0.8718
   31MOL0     O 4108   4.540   4.321   0.961 -0.3007  0.3349 -0.2988
   31MOL0     C 4109   4.492   4.306   1.094  0.1017 -0.5315 -0.8929
   31MOL0     C 4110   4.611   4.296   1.200 -0.4687  1.2426  0.4715
   31MOL0     C 4111   4.701   4.419   1.180 -0.7411  0.3606 -1.2698
   31MOL0     C 4112   4.820   4.434   1.281 -0.1070  0.5442  0.4310
   31MOL0     C 4113   4.925   4.332   1.258  0.0551 -0.9423  0.0247
   31MOL0     C 4114   5.017   4.255   1.274 -1.0676 -0.2133 -0.7074
   31MOL0     C 4115   4.363   4.221   0.839  0.8484 -0.6361 -0.1803
   31MOL0     C 4116   4.235   4.232   0.777 -0.0680  0.2755  0.5386
   31MOL0     C 4117   4.149   4.104   0.751  0.4961 -0.2831  0.1711
   31MOL0     H 4118   3.764   4.388   0.732 -0.4642  0.4997 -0.6346
   31MOL0     H 4119   3.549   4.407   0.627  3.2989  2.8237  2.4420
   31MOL0     H 4120   3.510   4.314   0.175  0.8275  0.4058  0.6712
   31MOL0     H 4121   3.479   4.164   0.269 -0.6945  0.5441 -0.0371
   31MOL0     H 4122   3.272   4.362   0.225  0.0290  0.5224 -2.7573
   31MOL0     H 4123   3.257   4.215   0.313 -3.8257  4.7746  0.0003
   31MOL0     H 4124   3.272   4.068   0.119 -0.4613  0.2383  0.1050
   31MOL0     H 4125   3.331   4.197   0.014 -1.8311 -0.2637 -0.5780
   31MOL0     H 4126   3.060   4.181   0.135  0.2462 -0.8712 -1.3251
   31MOL0     H 4127   3.116   4.331   0.062  0.8196  0.0891  0.8844
   31MOL0     H 4128   3.166   4.191  -0.144  0.8022  2.8547  0.9833
   31MOL0     H 4129   3.081   4.057  -0.076  6.0880  0.8765  3.0594
   31MOL0     H 4130   2.893   4.238  -0.028 -0.5193 -0.1836  0.0292
   31MOL0     H 4131   2.949   4.310  -0.188  0.2936 -0.4250 -1.5227
   31MOL0     H 4132   2.761   4.177  -0.222  0.8330  0.9902 -1.1137
   31MOL0     H 4133   2.857   4.035  -0.161  1.0842  0.8331  0.1167
   31MOL0     H 4134   2.904   4.222  -0.400 -3.7198  0.3699 -0.2871
   31MOL0     H 4135   3.029   4.114  -0.366  0.1530  1.8771 -1.5615
   31MOL0     H 4136   2.645   4.041  -0.478  0.7773  1.4975 -2.6417
   31MOL0     H 4137   2.616   3.699  -0.600  3.8147 -0.9177 -0.9993
   31MOL0     H 4138   2.532   3.860  -0.594  0.2239  1.7445 -0.4667
   31MOL0     H 4139   2.762   3.825  -0.779 -0.6157 -0.3754  0.8498
   31MOL0     H 4140   2.601   3.765  -0.837  1.9953  0.2098 -2.8740
   31MOL0     H 4141   2.670   4.055  -0.742 -1.2912  0.8417  0.7300
   31MOL0     H 4142   2.513   4.007  -0.806 -0.0066 -0.4259  0.1999
   31MOL0     H 4143   2.641   4.115  -0.992 -2.1722  0.2196  1.4591
   31MOL0     H 4144   2.608   3.948  -1.023  1.0537  0.4633  0.9172
   31MOL0     H 4145   2.954   3.937  -0.776 -1.0343  0.8757  0.3001
   31MOL0     H 4146   3.086   4.066  -0.646 -1.3310 -1.3462 -0.0634
   31MOL0     H 4147   3.085   4.524  -0.419  1.5342  0.9740 -1.0606
   31MOL0     H 4148   3.233   4.646  -0.249 -0.8671 -0.5403 -0.5394
   31MOL0     H 4149   3.511   4.464  -0.033 -0.7274  0.2896 -0.2999
   31MOL0     H 4150   3.640   4.468  -0.146  0.4201  1.3305 -0.4487
   31MOL0     H 4151   3.545   4.675   0.056  1.0660 -1.4345  2.7489
   31MOL0     H 4152   3.705   4.599   0.059 -1.2571 -2.5241  0.0888
   31MOL0     H 4153   3.763   4.737  -0.158  2.3364 -0.4285  2.7955
   31MOL0     H 4154   3.598   4.811  -0.114  1.4396  2.2111 -0.5411
   31MOL0     H 4155   3.844   4.809   0.055 -0.7787 -1.2434 -0.2846
   31MOL0     H 4156   3.690   4.848   0.117  0.6991  2.3723  1.6910
   31MOL0     H 4157   3.841   4.974  -0.119 -1.5637 -2.8893 -0.1712
   31MOL0     H 4158   3.829   5.035   0.050  1.0849 -0.1144  0.5235
   31MOL0     H 4159   3.618   5.035  -0.164  2.4261 -2.7791 -0.4176
   31MOL0     H 4160   3.579   5.079   0.001  1.8512  2.2866  1.7810
   31MOL0     H 4161   3.782   5.216  -0.160  1.4271 -0.9951 -0.3414
   31MOL0     H 4162   3.757   5.252   0.009  4.2281  0.7623 -2.3698
   31MOL0     H 4163   3.601   5.292  -0.254  0.1121 -3.1224  0.5889
   31MOL0     H 4164   3.492   5.274  -0.121 -0.5600 -1.0749 -2.1117
   31MOL0     H 4165   3.546   4.372  -0.323 -0.3909  1.2268  0.5623
   31MOL0     H 4166   3.390   4.240  -0.470  1.3527  1.0062  0.3489
   31MOL0     H 4167   3.014   4.405  -0.915  1.7238  0.5565  1.9168
   31MOL0     H 4168   2.886   4.256  -1.056 -0.9311  2.3174  1.9106
   31MOL0     H 4169   3.707   4.220   0.268 -1.1576  1.2351 -0.9084
   31MOL0     H 4170   3.913   4.193   0.380  3.4635  1.9284  3.0416
   31MOL0     H 4171   4.253   4.577   0.741  1.4734  0.2693 -1.1478
   31MOL0     H 4172   4.453   4.544   0.878 -0.1725 -0.8796 -0.7795
   31MOL0     H 4173   4.435   4.213   1.105 -0.8212  0.1295  0.1281
   31MOL0     H 4174   4.421   4.385   1.117  0.6381 -0.3100  0.0706
   31MOL0     H 4175   4.682   4.213   1.189 -1.3480  0.2909  1.6305
   31MOL0     H 4176   4.569   4.289   1.301 -1.0917 -1.7848  0.1080
   31MOL0     H 4177   4.634   4.506   1.187 -0.9922  0.0945 -0.1921
   31MOL0     H 4178   4.752   4.435   1.084 -0.8624  1.3721 -1.1850
   31MOL0     H 4179   4.880   4.523   1.262  1.1838 -0.5072 -0.6364
   31MOL0     H 4180   4.784   4.432   1.385  1.2986 -0.2066  0.9270
   31MOL0     H 4181   5.103   4.195   1.292 -0.2182  1.1325 -0.1445
   31MOL0     H 4182   4.391   4.117   0.856  0.8765 -0.6728 -0.4435
   31MOL0     H 4183   4.043   4.124   0.765 -0.3829 -1.3473 -3.7085
   31MOL0     H 4184   4.155   4.069   0.648  1.2641  2.6029 -0.8871
   31MOL0     H 4185   4.180   4.034   0.829 -0.4583  1.3944  2.1692
   32MOL0     O 4186   4.705   6.755   4.786 -0.6634 -0.0460 -0.2953
   32MOL0     C 4187   4.758   6.646   4.796 -0.2689 -0.0157  0.2185
   32MOL0     O 4188   4.892   6.620   4.771  0.3722 -0.4750 -0.1874
   32MOL0     C 4189   4.976   6.728   4.742  0.5233 -0.7031 -0.3361
   32MOL0     C 4190   5.051   6.727   4.619  0.1799  0.8145 -0.0384
   32MOL0     C 4191   5.134   6.830   4.578  0.0958  0.8346  0.0780
   32MOL0     C 4192   5.135   6.940   4.665 -0.2608 -0.5240 -0.7045
   32MOL0     O 4193   5.207   7.055   4.631 -0.2355  0.0366 -0.1181
   32MOL0     C 4194   5.340   7.027   4.575 -0.0621 -0.4404  0.4694
   32MOL0     C 4195   5.434   6.936   4.660  0.2580  0.7195  0.0830
   32MOL0     C 4196   5.456   6.995   4.795 -0.4710  0.5873 -0.2425
   32MOL0     C 4197   5.542   7.120   4.774 -0.1492 -0.2524  0.2732
   32MOL0     C 4198   5.572   7.171   4.912 -0.8674 -0.5146 -0.2029
   32MOL0     C 4199   5.670   7.293   4.885  0.5446 -0.0000  0.7283
   32MOL0     C 4200   5.724   7.342   5.024 -0.2298 -0.3092  0.2397
   32MOL0     C 4201   5.799   7.473   4.994 -0.1195  0.4899 -0.8973
   32MOL0     N 4202   5.903   7.457   4.892 -0.9299 -0.1683  0.1702
   32MOL0     C 4203   6.023   7.382   4.906 -0.1748 -0.0722  0.6974
   32MOL0     C 4204   6.089   7.405   4.791  0.0239  0.4149 -0.2995
   32MOL0     C 4205   6.230   7.350   4.746 -0.2552 -0.2052 -0.1427
   32MOL0     C 4206   6.335   7.409   4.843  1.1961  0.0201  0.4470
   32MOL0     C 4207   6.327   7.560   4.850 -0.8575  0.2388 -0.5935
   32MOL0     C 4208   6.356   7.623   4.724  1.3070 -0.5374  0.6258
   32MOL0     O 4209   6.484   7.585   4.668 -0.2097  0.1361 -0.1416
   32MOL0     C 4210   6.604   7.641   4.707 -0.3819 -1.4686  0.5165
   32MOL0     C 4211   6.727   7.596   4.654 -0.0246  0.7156 -0.6884
   32MOL0     C 4212   6.848   7.656   4.683  0.7866 -0.5949  0.3850
   32MOL0     C 4213   6.861   7.768   4.766 -0.3329 -0.5442  0.5552
   32MOL0     C 4214   6.994   7.829   4.765  0.6867  1.1394  0.1269
   32MOL0     O 4215   7.110   7.751   4.761 -0.1291  0.2521 -0.3528
   32MOL0     C 4216   7.230   7.813   4.761 -0.7084 -0.7829 -0.7488
   32MOL0     C 4217   7.294   7.852   4.637 -0.5510  0.3127  0.8025
   32MOL0     C 4218   7.430   7.892   4.645  0.4802 -0.1870  0.6129
   32MOL0     C 4219   7.497   7.915   4.766  0.1748 -0.1094 -0.2975
   32MOL0     O 4220   7.633   7.954   4.768  1.0237 -0.4641  0.1847
   32MOL0     C 4221   7.686   8.041   4.663  0.2556  0.5126 -0.1367
   32MOL0     C 4222   7.793   8.129   4.721 -1.0518 -1.0553  0.1610
   32MOL0     C 4223   7.877   8.188   4.605  0.5821  0.1012 -0.1944
   32MOL0     C 4224   7.965   8.309   4.635  0.2557 -0.0532 -0.7373
   32MOL0     C 4225   8.073   8.324   4.533  1.2285  0.8795  0.0638
   32MOL0     C 4226   8.167   8.440   4.579  1.3603  0.3037  1.2487
   32MOL0     C 4227   8.244   8.503   4.465 -0.7671  0.7182 -0.2521
   32MOL0     C 4228   8.348   8.585   4.536 -1.0279 -0.9909 -0.4456
   32MOL0    Cl 4229   8.455   8.649   4.406  0.2985  0.4300 -0.3702
   32MOL0     C 4230   7.430   7.888   4.881 -0.1470 -0.2499 -0.5293
   32MOL0     C 4231   7.293   7.839   4.882  0.8759 -0.1675  0.4246
   32MOL0     O 4232   6.998   7.949   4.781  0.5589  0.1626 -0.4550
   32MOL0     C 4233   6.738   7.800   4.831 -0.1805 -0.1131  0.5654
   32MOL0     C 4234   6.608   7.743   4.802 -1.4141  0.1611 -0.2316
   32MOL0     N 4235   6.025   7.497   4.722  0.5153  0.1350 -0.1745
   32MOL0     N 4236   5.913   7.529   4.781  0.1328  0.4301  0.0136
   32MOL0     C 4237   5.056   6.951   4.775  0.3451 -0.0800 -0.0489
   32MOL0     C 4238   4.980   6.841   4.813 -1.0977  0.2771 -0.4666
   32MOL0     C 4239   4.676   6.533   4.833  0.9193  0.2529  0.4937
   32MOL0     C 4240   4.720   6.406   4.795  0.7232 -0.0110  0.5787
   32MOL0     C 4241   4.652   6.290   4.825  1.1941 -0.3395  0.9278
   32MOL0     C 4242   4.528   6.297   4.889  0.2683 -0.0610 -0.0287
   32MOL0     O 4243   4.457   6.193   4.933 -0.3560  0.5529 -0.0381
   32MOL0     C 4244   4.556   6.094   4.968  0.0459  0.7102 -0.6921
   32MOL0     C 4245   4.486   6.024   5.090 -0.3946  0.7634  0.8305
   32MOL0     C 4246   4.592   5.916   5.129  0.2950 -1.4288  0.3250
   32MOL0     C 4247   4.549   5.849   5.256  0.6984 -1.0244  0.4784
   32MOL0     C 4248   4.644   5.734   5.297  0.3418 -0.0190  0.3675
   32MOL0     C 4249   4.717   5.639   5.318  0.0866  0.1260  0.3867
   32MOL0     C 4250   4.490   6.413   4.936  0.1921 -0.1301 -0.6543
   32MOL0     C 4251   4.552   6.535   4.903  0.6993  0.3526 -0.5358
   32MOL0     C 4252   4.496   6.668   4.958 -0.1221  0.7219 -0.2767
   32MOL0     H 4253   5.049   6.638   4.558 -0.7406  0.1131  0.9793
   32MOL0     H 4254   5.191   6.826   4.486  0.9850  2.7838  0.4887
   32MOL0     H 4255   5.321   6.979   4.479  0.9218  0.4021 -0.1790
   32MOL0     H 4256   5.397   7.119   4.555  1.1701 -1.4173 -0.6703
   32MOL0     H 4257   5.536   6.931   4.622  1.0967 -0.7610  2.3247
   32MOL0     H 4258   5.390   6.836   4.654  0.0215  0.8454 -0.3825
   32MOL0     H 4259   5.507   6.933   4.869 -1.7132  0.8192  0.8548
   32MOL0     H 4260   5.359   7.025   4.837 -0.1235  2.4858 -0.6704
   32MOL0     H 4261   5.633   7.093   4.719  2.1826  0.5832  3.4119
   32MOL0     H 4262   5.493   7.205   4.726  2.0191  1.1281  0.3960
   32MOL0     H 4263   5.481   7.217   4.951  0.6758  2.2771  0.3619
   32MOL0     H 4264   5.626   7.106   4.981  3.5442 -0.8629 -3.5573
   32MOL0     H 4265   5.756   7.267   4.822  0.6664  0.9730  0.4742
   32MOL0     H 4266   5.610   7.376   4.846  0.5934  1.2361  3.0792
   32MOL0     H 4267   5.786   7.266   5.073 -1.4111 -0.1554  2.0501
   32MOL0     H 4268   5.644   7.361   5.095 -1.2561  0.3808 -1.0446
   32MOL0     H 4269   5.735   7.559   4.971  2.1549  2.3776 -0.4941
   32MOL0     H 4270   5.841   7.505   5.090 -4.6044  1.0814  1.1237
   32MOL0     H 4271   6.049   7.316   4.988  2.8812  0.4591  0.2575
   32MOL0     H 4272   6.237   7.242   4.757  0.3548 -0.4459 -2.3630
   32MOL0     H 4273   6.258   7.377   4.644  3.2449 -4.1107 -0.4715
   32MOL0     H 4274   6.320   7.378   4.947  0.4839 -1.1141  0.0195
   32MOL0     H 4275   6.432   7.379   4.802  1.1682  0.0235  0.3789
   32MOL0     H 4276   6.396   7.598   4.926 -0.4067 -3.9438  1.3343
   32MOL0     H 4277   6.227   7.586   4.887  0.0075  0.6407  1.5905
   32MOL0     H 4278   6.349   7.732   4.722  1.4355 -0.5144 -2.2150
   32MOL0     H 4279   6.276   7.595   4.655  0.3404 -0.2996  1.6311
   32MOL0     H 4280   6.727   7.523   4.573  2.0445  1.3899 -1.3586
   32MOL0     H 4281   6.935   7.625   4.626 -0.5922  0.0461 -2.2124
   32MOL0     H 4282   7.235   7.847   4.546 -0.2629  4.5602  0.1792
   32MOL0     H 4283   7.473   7.917   4.548  0.1702 -0.0513  0.5086
   32MOL0     H 4284   7.719   7.981   4.578 -1.7147  0.5107 -0.9635
   32MOL0     H 4285   7.598   8.101   4.638 -0.6970 -0.2092  1.3202
   32MOL0     H 4286   7.751   8.217   4.771  1.0565  0.5794 -0.8095
   32MOL0     H 4287   7.857   8.072   4.790 -0.0927  0.5676  0.6645
   32MOL0     H 4288   7.951   8.111   4.579  1.3747  0.9833 -0.5883
   32MOL0     H 4289   7.807   8.221   4.528 -1.6012  0.2327  1.7372
   32MOL0     H 4290   8.005   8.292   4.736 -1.9069  0.1936  0.1998
   32MOL0     H 4291   7.899   8.394   4.649  1.2381  0.2677  3.0838
   32MOL0     H 4292   8.020   8.351   4.442  0.9228 -1.1837 -0.4051
   32MOL0     H 4293   8.119   8.228   4.511 -3.8911 -1.6929 -0.8397
   32MOL0     H 4294   8.107   8.511   4.636  1.3328  0.5202  0.9514
   32MOL0     H 4295   8.235   8.394   4.651  1.7371 -3.4181 -1.1823
   32MOL0     H 4296   8.174   8.562   4.406 -2.1169 -1.3711 -0.8474
   32MOL0     H 4297   8.308   8.436   4.406  1.5449  1.9606  0.6919
   32MOL0     H 4298   8.312   8.673   4.589 -2.3066 -1.5507 -0.3658
   32MOL0     H 4299   8.423   8.525   4.589  1.5324  0.7637 -1.8401
   32MOL0     H 4300   7.477   7.923   4.973 -0.1717 -0.4070 -0.4553
   32MOL0     H 4301   7.234   7.819   4.971  0.0131 -4.0909 -0.8023
   32MOL0     H 4302   6.732   7.877   4.908 -4.4622  1.0403 -0.6763
   32MOL0     H 4303   6.521   7.774   4.858 -1.4321  1.3571 -0.8942
   32MOL0     H 4304   5.042   7.033   4.845 -3.8154 -0.4018 -0.2655
   32MOL0     H 4305   4.921   6.837   4.904  2.0127  0.6576  1.7373
   32MOL0     H 4306   4.817   6.394   4.748  0.7729  2.1891  0.0004
   32MOL0     H 4307   4.699   6.196   4.797  1.6755 -0.0470  0.7424
   32MOL0     H 4308   4.647   6.138   5.010  1.3333 -0.8441 -1.7104
   32MOL0     H 4309   4.586   6.018   4.895 -1.5235 -0.1089 -0.5350
   32MOL0     H 4310   4.388   5.976   5.075  0.1203 -0.4487  1.2163
   32MOL0     H 4311   4.487   6.094   5.174  0.8249  0.7794  0.8143
   32MOL0     H 4312   4.691   5.956   5.155 -0.6037  0.8088  0.4970
   32MOL0     H 4313   4.610   5.843   5.049  2.8021 -0.5070 -0.0682
   32MOL0     H 4314   4.537   5.925   5.334  0.5031  3.0824 -3.1657
   32MOL0     H 4315   4.454   5.796   5.246  0.5982 -0.9355  0.9230
   32MOL0     H 4316   4.779   5.552   5.329 -0.7394 -0.6109 -0.5509
   32MOL0     H 4317   4.391   6.403   4.979  1.0248  1.1245  1.7791
   32MOL0     H 4318   4.468   6.738   4.878 -2.5181  0.5772  0.3676
   32MOL0     H 4319   4.407   6.642   5.017 -1.0685 -0.7403 -2.2412
   32MOL0     H 4320   4.564   6.710   5.034 -1.5676 -0.1299  1.5702
   33MOL0     O 4321   6.428  10.289   0.772 -0.4763 -0.2750 -0.0764
   33MOL0     C 4322   6.308  10.260   0.806 -0.5398  0.1484 -0.3010
   33MOL0     O 4323   6.279  10.171   0.900 -0.5545  0.1479  0.8856
   33MOL0     C 4324   6.384  10.101   0.966  0.7830 -0.3375 -0.0380
   33MOL0     C 4325   6.455  10.003   0.901  0.2308  0.4290 -1.0894
   33MOL0     C 4326   6.547   9.930   0.981 -0.6474  0.3624  0.8243
   33MOL0     C 4327   6.556   9.947   1.114  0.3388 -0.7186 -0.6302
   33MOL0     O 4328   6.656   9.884   1.183  0.0697  0.4851  0.6143
   33MOL0     C 4329   6.785   9.914   1.141 -0.0853  0.4181 -0.4308
   33MOL0     C 4330   6.824  10.062   1.148  0.6968  0.3295 -1.5031
   33MOL0     C 4331   6.968  10.092   1.116  0.4282 -0.5012 -0.0408
   33MOL0     C 4332   6.989  10.238   1.146 -0.7043 -0.0739 -0.4759
   33MOL0     C 4333   7.129  10.285   1.108 -0.2111 -0.6350 -0.0206
   33MOL0     C 4334   7.236  10.274   1.219  0.3087  0.4372 -0.5052
   33MOL0     C 4335   7.380  10.305   1.164 -0.0019  0.4928 -0.5819
   33MOL0     C 4336   7.490  10.240   1.254  0.2900 -1.1385  0.2414
   33MOL0     N 4337   7.496  10.279   1.399 -0.4349 -0.1577 -0.3469
   33MOL0     C 4338   7.574  10.377   1.452  0.3278 -0.3410 -0.5347
   33MOL0     C 4339   7.565  10.352   1.587  0.1710 -0.1847  0.4974
   33MOL0     C 4340   7.641  10.424   1.689  0.6524  0.0567  0.0308
   33MOL0     C 4341   7.573  10.454   1.828  0.2887  0.6641  0.3390
   33MOL0     C 4342   7.658  10.391   1.939  0.6300 -0.3158 -0.5178
   33MOL0     C 4343   7.798  10.451   1.958  0.0820  0.1576 -0.0155
   33MOL0     O 4344   7.812  10.585   1.921  0.0245 -0.6672  0.0178
   33MOL0     C 4345   7.917  10.625   1.837 -0.2541 -0.2703  0.6116
   33MOL0     C 4346   8.051  10.604   1.865  0.1680 -0.1204 -0.4621
   33MOL0     C 4347   8.137  10.667   1.778  0.1288  1.0477 -0.4377
   33MOL0     C 4348   8.101  10.731   1.660  0.1902 -0.3736  0.6845
   33MOL0     C 4349   8.196  10.798   1.575 -0.7311  0.4659 -0.0444
   33MOL0     O 4350   8.321  10.814   1.621  0.1195 -0.3329 -0.1818
   33MOL0     C 4351   8.426  10.860   1.541  0.3195 -0.8714 -0.3385
   33MOL0     C 4352   8.476  10.992   1.563 -0.8158  0.2408 -0.2636
   33MOL0     C 4353   8.597  11.037   1.505  0.6183  0.9981 -0.2698
   33MOL0     C 4354   8.666  10.953   1.423  0.5042  0.7507  0.4301
   33MOL0     O 4355   8.780  10.997   1.365 -0.1547 -0.9631  0.2008
   33MOL0     C 4356   8.894  10.919   1.384 -0.5825 -0.3381 -0.6361
   33MOL0     C 4357   8.988  11.002   1.477  1.2232  0.0770 -0.7941
   33MOL0     C 4358   9.076  11.106   1.398 -0.3067  0.1487 -0.0247
   33MOL0     C 4359   9.134  11.188   1.512 -0.5192 -0.3624 -0.0798
   33MOL0     C 4360   9.232  11.111   1.609 -0.9967  0.5302 -0.2416
   33MOL0     C 4361   9.336  11.011   1.556 -0.1471  0.3919 -0.4083
   33MOL0     C 4362   9.423  11.085   1.446  0.3572  1.2122 -0.3380
   33MOL0     C 4363   9.471  10.971   1.348  0.0794 -0.1257  0.8066
   33MOL0    Cl 4364   9.584  10.862   1.424 -0.1392 -0.1092 -0.2168
   33MOL0     C 4365   8.615  10.826   1.399 -0.5613  0.5536 -0.3435
   33MOL0     C 4366   8.505  10.779   1.463  1.1666 -0.9458 -0.3090
   33MOL0     O 4367   8.162  10.831   1.464  0.7010  0.2355  0.7024
   33MOL0     C 4368   7.962  10.743   1.624 -0.4823 -0.8073  0.0508
   33MOL0     C 4369   7.877  10.689   1.719  0.4887 -0.3980 -0.5763
   33MOL0     N 4370   7.498  10.238   1.612  0.2363 -0.4612  0.3072
   33MOL0     N 4371   7.458  10.196   1.497 -0.3853 -0.2261  0.0794
   33MOL0     C 4372   6.467  10.032   1.183 -0.1176  1.0900 -0.0175
   33MOL0     C 4373   6.380  10.113   1.107 -0.1094  0.8453  0.4196
   33MOL0     C 4374   6.198  10.331   0.733 -0.2936 -0.3885  0.1905
   33MOL0     C 4375   6.232  10.438   0.646  0.1232 -0.4175  0.8110
   33MOL0     C 4376   6.137  10.505   0.575  0.6038 -0.6479  0.0245
   33MOL0     C 4377   6.008  10.472   0.604  0.3898  0.6668  0.2689
   33MOL0     O 4378   5.897  10.538   0.554  0.1408  0.7452 -0.7522
   33MOL0     C 4379   5.897  10.618   0.433  0.4597 -0.6739  0.8470
   33MOL0     C 4380   5.747  10.638   0.405  0.4002  0.3636 -0.6046
   33MOL0     C 4381   5.677  10.508   0.384  0.2821  0.5245  0.0671
   33MOL0     C 4382   5.688  10.458   0.235  0.4145  1.0894  0.8559
   33MOL0     C 4383   5.567  10.501   0.159  0.2725 -0.5378 -0.1502
   33MOL0     C 4384   5.476  10.534   0.083  0.0533 -0.1303 -0.7611
   33MOL0     C 4385   5.970  10.362   0.678 -2.1653  0.1980  0.8827
   33MOL0     C 4386   6.065  10.286   0.741  0.5027 -0.4502 -0.2139
   33MOL0     C 4387   6.005  10.160   0.817  0.4629  0.1079  0.0225
   33MOL0     H 4388   6.432   9.978   0.798 -1.4854 -0.3734 -0.5505
   33MOL0     H 4389   6.615   9.857   0.939 -1.2823 -1.0934  2.2537
   33MOL0     H 4390   6.864   9.868   1.201  1.7184 -0.0013 -2.9935
   33MOL0     H 4391   6.801   9.852   1.053 -1.2908 -1.2405  0.4530
   33MOL0     H 4392   6.813  10.101   1.250  3.2526  1.1101 -1.4612
   33MOL0     H 4393   6.748  10.102   1.080  0.2686 -2.3990 -2.7767
   33MOL0     H 4394   6.979  10.055   1.013 -0.6604 -1.1573  0.0601
   33MOL0     H 4395   7.035  10.042   1.187 -0.5243 -0.2077  1.0931
   33MOL0     H 4396   6.919  10.301   1.089 -0.1246  0.6482 -0.4033
   33MOL0     H 4397   6.977  10.254   1.253  0.4145 -2.1601  0.0062
   33MOL0     H 4398   7.160  10.248   1.009 -1.7023  0.5541 -0.9779
   33MOL0     H 4399   7.120  10.392   1.088  1.4462 -0.9021 -2.7196
   33MOL0     H 4400   7.218  10.335   1.308  1.7718 -1.4828  1.1803
   33MOL0     H 4401   7.236  10.173   1.260 -2.2832  1.3226  2.0239
   33MOL0     H 4402   7.387  10.414   1.168 -3.9424  0.9173  4.1230
   33MOL0     H 4403   7.398  10.271   1.062  1.2799 -0.9663  0.0927
   33MOL0     H 4404   7.477  10.132   1.245 -0.5802 -0.9630 -0.8004
   33MOL0     H 4405   7.584  10.274   1.211 -0.5347 -0.7328 -1.2911
   33MOL0     H 4406   7.617  10.463   1.402 -0.9685  1.7617  1.7445
   33MOL0     H 4407   7.732  10.367   1.711 -0.2081 -0.6736  1.9297
   33MOL0     H 4408   7.673  10.514   1.636  2.3130 -0.0215  0.8248
   33MOL0     H 4409   7.566  10.563   1.835 -2.0378  0.8736 -2.9220
   33MOL0     H 4410   7.473  10.411   1.818 -0.1753  1.4780  1.2989
   33MOL0     H 4411   7.658  10.282   1.933  2.4410 -0.3646 -0.3231
   33MOL0     H 4412   7.605  10.424   2.029 -1.1793 -1.6036 -1.0447
   33MOL0     H 4413   7.870  10.385   1.910 -0.1276 -1.3269  1.6230
   33MOL0     H 4414   7.819  10.446   2.065  0.2124  0.7964 -0.0055
   33MOL0     H 4415   8.087  10.563   1.958  0.6987  1.1018 -0.1028
   33MOL0     H 4416   8.240  10.667   1.813 -0.0203 -0.5785  0.0477
   33MOL0     H 4417   8.423  11.057   1.632  1.0077  0.1584  1.2914
   33MOL0     H 4418   8.629  11.138   1.530 -1.4848  1.7936 -0.5787
   33MOL0     H 4419   8.869  10.833   1.447 -0.2153 -2.6517 -3.3892
   33MOL0     H 4420   8.939  10.882   1.291  0.4625  0.1877 -0.3579
   33MOL0     H 4421   8.941  11.049   1.564  2.0324 -0.0204 -0.2932
   33MOL0     H 4422   9.060  10.931   1.519  3.1724  2.0665 -0.6261
   33MOL0     H 4423   9.160  11.059   1.346  0.9944  1.1652  1.0909
   33MOL0     H 4424   9.024  11.167   1.323  2.6963 -0.4901 -2.8859
   33MOL0     H 4425   9.072  11.247   1.581  1.6387 -1.0610  2.6620
   33MOL0     H 4426   9.184  11.267   1.455 -2.2301  0.6070 -0.3005
   33MOL0     H 4427   9.184  11.054   1.688  0.7626  0.7213  1.0187
   33MOL0     H 4428   9.285  11.190   1.663  1.4739 -0.5256 -0.9923
   33MOL0     H 4429   9.405  10.988   1.637  1.3419 -0.3678 -1.8370
   33MOL0     H 4430   9.283  10.925   1.514  1.8077 -0.7236 -0.7135
   33MOL0     H 4431   9.506  11.127   1.503  2.2945 -3.3972  0.6152
   33MOL0     H 4432   9.364  11.158   1.388 -0.2958  0.6609 -0.3796
   33MOL0     H 4433   9.379  10.924   1.314 -0.0366 -0.1831  1.1964
   33MOL0     H 4434   9.519  11.022   1.264 -2.0703 -0.3555 -0.6221
   33MOL0     H 4435   8.658  10.751   1.333 -0.7086 -1.7423  1.9982
   33MOL0     H 4436   8.472  10.675   1.461 -1.2290 -0.2374 -0.6879
   33MOL0     H 4437   7.922  10.803   1.543  3.2937 -1.6298 -2.6660
   33MOL0     H 4438   7.770  10.697   1.701 -0.4010  1.3188  4.0669
   33MOL0     H 4439   6.472  10.057   1.289 -1.2837  1.8097 -0.1198
   33MOL0     H 4440   6.317  10.179   1.166 -3.2553 -2.3501  0.9604
   33MOL0     H 4441   6.335  10.470   0.630  0.7593 -2.6924 -0.0000
   33MOL0     H 4442   6.164  10.588   0.511 -0.3998  1.2554  1.9495
   33MOL0     H 4443   5.947  10.563   0.353 -0.0624  1.7276 -1.2622
   33MOL0     H 4444   5.948  10.714   0.433 -0.8928  0.0977 -0.5509
   33MOL0     H 4445   5.745  10.699   0.313  2.1515 -1.5743 -2.0079
   33MOL0     H 4446   5.703  10.704   0.481  1.2240 -0.0665  0.2550
   33MOL0     H 4447   5.570  10.523   0.404  0.1357  0.1443 -0.4139
   33MOL0     H 4448   5.713  10.434   0.456  1.5971  0.2445 -0.8637
   33MOL0     H 4449   5.783  10.495   0.195  0.0659  2.3849  1.1859
   33MOL0     H 4450   5.685  10.348   0.239 -0.5445  1.0470 -0.4829
   33MOL0     H 4451   5.393  10.543   0.017  0.2602 -2.4375 -1.4275
   33MOL0     H 4452   5.865  10.342   0.697 -2.6579  0.8533 -0.9845
   33MOL0     H 4453   6.057  10.070   0.784 -1.8745 -1.4943  0.4101
   33MOL0     H 4454   6.014  10.159   0.926 -0.8450 -0.0766  0.1449
   33MOL0     H 4455   5.902  10.139   0.786  0.9384 -1.4481 -0.5609
   34MOL0     O 4456   5.725   3.689   0.703  0.6895 -0.0777 -0.1253
   34MOL0     C 4457   5.684   3.575   0.678 -0.2283 -0.0798  0.7802
   34MOL0     O 4458   5.757   3.463   0.688 -0.3064  0.0375  0.0011
   34MOL0     C 4459   5.892   3.469   0.727  0.9410  0.2323  0.1201
   34MOL0     C 4460   5.988   3.511   0.636  0.3913  0.3864  0.1609
   34MOL0     C 4461   6.126   3.512   0.668 -0.2832  0.3823 -0.0806
   34MOL0     C 4462   6.165   3.456   0.788 -1.2147 -0.2523 -0.7500
   34MOL0     O 4463   6.296   3.442   0.821  0.0477  0.4460 -0.5973
   34MOL0     C 4464   6.387   3.547   0.794 -0.1059  0.4150  1.3330
   34MOL0     C 4465   6.509   3.563   0.881  0.7087 -0.8891  0.2315
   34MOL0     C 4466   6.618   3.470   0.843  0.0662 -0.2176  0.7131
   34MOL0     C 4467   6.745   3.480   0.936  0.1518 -0.1892 -1.0252
   34MOL0     C 4468   6.813   3.337   0.923 -0.9716 -0.0269  0.3199
   34MOL0     C 4469   6.955   3.356   0.964 -0.4956  1.3466  0.7789
   34MOL0     C 4470   7.041   3.221   0.964  0.3978 -0.3130  0.3559
   34MOL0     C 4471   7.191   3.232   1.002  0.4474 -0.1904 -1.0160
   34MOL0     N 4472   7.279   3.276   0.891 -0.3435  0.9093 -0.2048
   34MOL0     C 4473   7.290   3.406   0.845 -1.4415 -0.6094  0.4701
   34MOL0     C 4474   7.343   3.402   0.720  0.3354  0.5784 -0.2033
   34MOL0     C 4475   7.379   3.497   0.615 -0.2971 -0.7262 -0.0399
   34MOL0     C 4476   7.410   3.634   0.681  0.2675 -0.1214  0.4858
   34MOL0     C 4477   7.494   3.715   0.588  0.0107 -1.1174 -0.0013
   34MOL0     C 4478   7.416   3.782   0.472  0.1942  0.1880  1.0221
   34MOL0     O 4479   7.349   3.901   0.531 -0.7582  0.4230  0.1861
   34MOL0     C 4480   7.281   3.996   0.460  0.7211  0.7745 -0.0404
   34MOL0     C 4481   7.325   4.131   0.458  0.7512 -0.0568 -0.2041
   34MOL0     C 4482   7.252   4.227   0.383 -0.1786  0.0165  0.3912
   34MOL0     C 4483   7.128   4.201   0.321 -0.2467  0.4926 -0.1713
   34MOL0     C 4484   7.044   4.305   0.242 -0.7856  1.5309 -1.1831
   34MOL0     O 4485   7.115   4.417   0.195  0.4266  0.3896 -0.4833
   34MOL0     C 4486   7.055   4.526   0.133  0.9225  0.3049 -0.3786
   34MOL0     C 4487   7.121   4.590   0.029  0.4685 -0.7149 -0.1250
   34MOL0     C 4488   7.061   4.694  -0.037  0.9013 -0.9433  0.4136
   34MOL0     C 4489   6.936   4.749  -0.000 -0.8329 -0.0755 -0.4669
   34MOL0     O 4490   6.896   4.852  -0.082 -0.5045  0.7317 -0.1657
   34MOL0     C 4491   6.763   4.894  -0.080  0.8242 -0.4847 -0.0310
   34MOL0     C 4492   6.742   5.023  -0.154 -0.6528  0.1065 -0.0060
   34MOL0     C 4493   6.796   5.143  -0.078  0.5364  0.1942  0.0704
   34MOL0     C 4494   6.939   5.187  -0.121  0.6724 -0.2175 -1.3890
   34MOL0     C 4495   7.002   5.299  -0.028 -0.0746 -0.3827  0.2860
   34MOL0     C 4496   6.916   5.432  -0.007 -0.2910 -0.5218 -0.1740
   34MOL0     C 4497   6.996   5.521   0.080 -1.1268  0.9564  0.1813
   34MOL0     C 4498   6.934   5.650   0.108  0.1379  0.4438  0.0257
   34MOL0    Cl 4499   7.071   5.747   0.164  0.0259  0.0828  0.0121
   34MOL0     C 4500   6.866   4.688   0.097  1.0330  1.2571 -0.4849
   34MOL0     C 4501   6.929   4.578   0.169  0.2320 -0.3768 -0.2466
   34MOL0     O 4502   6.932   4.275   0.212  0.2207  0.0420  0.0274
   34MOL0     C 4503   7.085   4.064   0.329  0.4197  0.9666 -1.6319
   34MOL0     C 4504   7.162   3.965   0.385 -0.3212  0.9553 -0.0914
   34MOL0     N 4505   7.357   3.265   0.693  0.1321  0.5359  0.3471
   34MOL0     N 4506   7.322   3.192   0.793  0.5187 -0.4401 -0.1651
   34MOL0     C 4507   6.072   3.404   0.874  0.0073  0.0407  0.5890
   34MOL0     C 4508   5.934   3.416   0.848  0.2767  0.2250  0.2616
   34MOL0     C 4509   5.542   3.568   0.654 -0.0963 -0.1779  0.5819
   34MOL0     C 4510   5.490   3.623   0.541  1.0028  0.3317  0.3032
   34MOL0     C 4511   5.353   3.616   0.515  0.0530  0.4929  0.1626
   34MOL0     C 4512   5.264   3.564   0.603  0.2706  0.5895  0.1432
   34MOL0     O 4513   5.131   3.564   0.579  0.4279  0.8017 -0.9324
   34MOL0     C 4514   5.079   3.435   0.519 -0.3519 -0.2231 -0.4106
   34MOL0     C 4515   4.932   3.438   0.558  0.0102  0.2594  0.6527
   34MOL0     C 4516   4.907   3.452   0.702 -0.3817  0.3191 -0.4636
   34MOL0     C 4517   4.755   3.430   0.737  1.0579  0.3837  0.2594
   34MOL0     C 4518   4.736   3.450   0.880 -0.4465  0.9042 -0.3294
   34MOL0     C 4519   4.696   3.469   0.984 -0.0950  0.5322  0.0013
   34MOL0     C 4520   5.318   3.492   0.710 -0.2518 -0.0009  0.2143
   34MOL0     C 4521   5.455   3.503   0.742 -0.3574 -0.2801  0.9287
   34MOL0     C 4522   5.501   3.437   0.879  0.8909  0.9476 -0.1062
   34MOL0     H 4523   5.957   3.525   0.533 -1.4457 -4.0475 -0.1178
   34MOL0     H 4524   6.201   3.537   0.594  1.6094 -0.0747  1.6081
   34MOL0     H 4525   6.435   3.531   0.696 -2.5494  0.1651  0.1077
   34MOL0     H 4526   6.334   3.643   0.800  1.4778  1.2894  1.9876
   34MOL0     H 4527   6.491   3.553   0.988  0.8227  0.5459  0.4080
   34MOL0     H 4528   6.547   3.665   0.867  0.5157 -0.4823  2.4228
   34MOL0     H 4529   6.651   3.486   0.740  2.1410 -3.4034  0.7354
   34MOL0     H 4530   6.580   3.369   0.828 -1.3403  0.7396 -3.5409
   34MOL0     H 4531   6.802   3.563   0.893  2.5995 -2.1242 -1.7690
   34MOL0     H 4532   6.717   3.496   1.040  1.2195 -0.4492 -0.6951
   34MOL0     H 4533   6.767   3.257   0.981  0.1049 -1.6445 -0.9497
   34MOL0     H 4534   6.825   3.307   0.818 -1.1114  2.6734 -0.5524
   34MOL0     H 4535   6.997   3.425   0.890 -2.0627 -0.0807 -1.5832
   34MOL0     H 4536   6.971   3.405   1.060  1.5995  0.5236  0.9115
   34MOL0     H 4537   7.035   3.170   0.868  4.5691  1.9325 -1.3511
   34MOL0     H 4538   6.987   3.150   1.027  0.6171 -0.8461 -0.0456
   34MOL0     H 4539   7.198   3.297   1.089 -0.1125  0.5506 -1.5170
   34MOL0     H 4540   7.220   3.131   1.034  1.3594 -0.7286 -3.2703
   34MOL0     H 4541   7.247   3.494   0.891 -0.5596 -0.1539  0.4365
   34MOL0     H 4542   7.471   3.465   0.565  0.6624  4.1973 -2.0663
   34MOL0     H 4543   7.293   3.494   0.547 -0.2207 -3.9398 -0.1448
   34MOL0     H 4544   7.314   3.688   0.686  1.0732  1.5209 -0.7272
   34MOL0     H 4545   7.453   3.627   0.781  0.0671  2.0056  0.7690
   34MOL0     H 4546   7.569   3.652   0.538 -1.0381 -1.5858 -1.0102
   34MOL0     H 4547   7.543   3.799   0.639 -0.5590 -0.9262  0.2377
   34MOL0     H 4548   7.351   3.710   0.423  0.7302  1.3953 -1.6420
   34MOL0     H 4549   7.493   3.810   0.399 -0.0072  4.5387  2.2074
   34MOL0     H 4550   7.424   4.157   0.492  1.4400  1.9480 -3.3665
   34MOL0     H 4551   7.298   4.325   0.370 -1.3179  0.8454  2.1850
   34MOL0     H 4552   7.220   4.554   0.004  0.4260  0.5352 -2.3448
   34MOL0     H 4553   7.128   4.743  -0.108  0.7019 -3.8957 -2.0002
   34MOL0     H 4554   6.715   4.808  -0.128  0.1108 -1.2118  1.8840
   34MOL0     H 4555   6.724   4.907   0.021  1.1813  2.5252 -0.1995
   34MOL0     H 4556   6.788   5.011  -0.253  0.9559 -1.8379  0.9077
   34MOL0     H 4557   6.632   5.029  -0.154 -0.5852  1.9082  0.4454
   34MOL0     H 4558   6.738   5.233  -0.103 -0.8513 -0.9519 -0.9806
   34MOL0     H 4559   6.803   5.114   0.027  1.3679 -0.6418 -0.2113
   34MOL0     H 4560   6.951   5.208  -0.227 -3.1288  1.2799 -1.6917
   34MOL0     H 4561   7.002   5.100  -0.102  1.4031  0.2639 -1.5679
   34MOL0     H 4562   7.105   5.325  -0.055  0.1612  0.1394  1.6029
   34MOL0     H 4563   7.004   5.251   0.070  1.1335 -2.5121 -0.7181
   34MOL0     H 4564   6.913   5.479  -0.106  3.4368  1.4116  0.4150
   34MOL0     H 4565   6.817   5.406   0.032 -0.1542 -0.8733 -0.0550
   34MOL0     H 4566   7.092   5.552   0.037 -0.4976  1.9639  2.1439
   34MOL0     H 4567   7.030   5.475   0.174  0.1354  2.6974  0.6384
   34MOL0     H 4568   6.900   5.687   0.011 -3.3122 -0.9195  0.5759
   34MOL0     H 4569   6.847   5.657   0.174 -0.9469 -0.6675 -1.2287
   34MOL0     H 4570   6.765   4.718   0.124  0.3649  2.3020 -3.6708
   34MOL0     H 4571   6.878   4.535   0.254 -2.4962  0.9759 -1.1033
   34MOL0     H 4572   6.999   4.022   0.279  0.7334 -1.0206 -0.6040
   34MOL0     H 4573   7.141   3.859   0.371  0.8159  0.8715 -1.2744
   34MOL0     H 4574   6.107   3.348   0.960 -0.5709  1.2286  1.6420
   34MOL0     H 4575   5.866   3.378   0.924  0.3171  1.2938  0.8479
   34MOL0     H 4576   5.556   3.685   0.481  4.2479 -1.5915  1.5834
   34MOL0     H 4577   5.301   3.664   0.433 -0.1000 -0.0945 -0.0881
   34MOL0     H 4578   5.125   3.347   0.565 -1.1481 -0.5018 -0.1305
   34MOL0     H 4579   5.096   3.426   0.411 -4.8313  1.0094 -1.4020
   34MOL0     H 4580   4.901   3.342   0.516  3.5278  0.3033 -2.5622
   34MOL0     H 4581   4.880   3.517   0.503 -2.0777 -2.3933 -1.4639
   34MOL0     H 4582   4.933   3.551   0.741  2.6206  0.4289 -2.4453
   34MOL0     H 4583   4.959   3.373   0.757 -0.2346  0.7156 -0.0211
   34MOL0     H 4584   4.696   3.516   0.704  0.1110  0.5847  2.2798
   34MOL0     H 4585   4.723   3.334   0.696  4.3529 -0.7638  0.0310
   34MOL0     H 4586   4.658   3.475   1.084 -1.9244  2.1549 -0.7373
   34MOL0     H 4587   5.253   3.455   0.788 -1.2907  1.9261  0.3442
   34MOL0     H 4588   5.421   3.375   0.919  0.5719  2.1652  1.1912
   34MOL0     H 4589   5.588   3.374   0.858  0.1418 -0.2926  0.4223
   34MOL0     H 4590   5.519   3.520   0.948  1.4086  2.4510 -1.9417
   35MOL0     O 4591   7.086   2.425   5.253  0.4939  0.5337 -0.3310
   35MOL0     C 4592   7.141   2.317   5.283 -0.0357 -1.7385 -1.0314
   35MOL0     O 4593   7.280   2.297   5.296 -0.0476 -0.7850 -0.4249
   35MOL0     C 4594   7.359   2.409   5.291  1.0781 -0.2361  0.4187
   35MOL0     C 4595   7.444   2.411   5.185  0.3231 -0.0208  0.7772
   35MOL0     C 4596   7.531   2.509   5.157  0.3900  0.7380  0.0805
   35MOL0     C 4597   7.540   2.620   5.247  0.1033  0.0448 -0.1065
   35MOL0     O 4598   7.627   2.726   5.223  0.6836  0.3159  0.2991
   35MOL0     C 4599   7.713   2.771   5.327 -0.1877 -0.3905 -0.3039
   35MOL0     C 4600   7.748   2.921   5.318  0.4653  0.0193  1.0546
   35MOL0     C 4601   7.838   2.979   5.422  0.1975 -0.2729 -0.0683
   35MOL0     C 4602   7.972   2.918   5.439 -0.7680 -0.6800 -0.0255
   35MOL0     C 4603   8.072   2.977   5.542 -0.7008 -0.1595  0.1342
   35MOL0     C 4604   8.207   2.901   5.536  0.0890 -0.0735  0.1257
   35MOL0     C 4605   8.328   2.955   5.613  0.0895 -0.1685 -0.1590
   35MOL0     C 4606   8.408   3.058   5.538  0.2809  0.1250 -0.1679
   35MOL0     N 4607   8.526   2.981   5.491 -0.0438  0.6197  0.2473
   35MOL0     C 4608   8.539   2.933   5.365 -0.4070 -0.2987  0.2548
   35MOL0     C 4609   8.666   2.894   5.353 -0.5866  1.0785 -1.2771
   35MOL0     C 4610   8.737   2.863   5.224 -0.0944 -0.2699  0.4833
   35MOL0     C 4611   8.685   2.725   5.176  0.3141 -0.7832 -0.4853
   35MOL0     C 4612   8.749   2.708   5.042 -0.6911 -0.2943  0.8930
   35MOL0     C 4613   8.904   2.681   5.049 -0.5801 -0.9407 -0.2317
   35MOL0     O 4614   8.953   2.570   5.122  0.3169 -0.1638  0.2767
   35MOL0     C 4615   9.084   2.585   5.138  0.3608 -1.5689  1.0392
   35MOL0     C 4616   9.152   2.693   5.211  1.1390  0.0794  0.3726
   35MOL0     C 4617   9.291   2.694   5.228 -0.2315 -0.3187  0.9141
   35MOL0     C 4618   9.361   2.586   5.164  0.3793  0.9517  0.4741
   35MOL0     C 4619   9.503   2.586   5.185 -0.5982 -0.2531 -0.7046
   35MOL0     O 4620   9.543   2.709   5.229 -0.1762 -0.1700 -0.2414
   35MOL0     C 4621   9.677   2.726   5.271  0.9486  0.4085 -0.0863
   35MOL0     C 4622   9.724   2.671   5.398 -0.0036 -0.2267  0.6398
   35MOL0     C 4623   9.857   2.671   5.425 -0.4818 -0.7841  1.0343
   35MOL0     C 4624   9.951   2.727   5.331  0.4663  0.9784 -0.4862
   35MOL0     O 4625  10.085   2.724   5.361  0.3756  0.6014  0.6602
   35MOL0     C 4626  10.145   2.603   5.413 -0.2130  0.6959 -0.2897
   35MOL0     C 4627  10.301   2.609   5.419  0.2704 -0.0228  0.5988
   35MOL0     C 4628  10.372   2.471   5.406 -0.9098  0.7211 -0.1656
   35MOL0     C 4629  10.523   2.486   5.428 -0.6730  0.2795 -0.3263
   35MOL0     C 4630  10.599   2.373   5.368  0.7698  0.6929 -0.0860
   35MOL0     C 4631  10.570   2.230   5.435  0.3389 -1.2530 -0.2886
   35MOL0     C 4632  10.656   2.129   5.360  0.1314 -0.5593 -0.0681
   35MOL0     C 4633  10.636   1.986   5.415  0.3154 -0.0005  1.2672
   35MOL0    Cl 4634  10.696   1.863   5.295 -0.2639  0.4290 -0.1462
   35MOL0     C 4635   9.897   2.780   5.216  0.3564 -0.2349 -0.0756
   35MOL0     C 4636   9.764   2.784   5.179  0.4366 -0.6764  0.7516
   35MOL0     O 4637   9.567   2.487   5.166 -0.2451 -0.2489  0.4741
   35MOL0     C 4638   9.291   2.481   5.106  0.3958 -0.4261  0.6540
   35MOL0     C 4639   9.158   2.474   5.097  1.1699 -0.9403  0.3493
   35MOL0     N 4640   8.728   2.911   5.476 -0.0126 -0.8110 -0.0092
   35MOL0     N 4641   8.642   2.956   5.565  0.2118  0.5729  0.3819
   35MOL0     C 4642   7.453   2.622   5.357  0.5608 -0.5118 -0.3555
   35MOL0     C 4643   7.366   2.509   5.396  0.3782  0.1532  0.6681
   35MOL0     C 4644   7.057   2.195   5.274  0.4246 -0.3222 -0.6824
   35MOL0     C 4645   7.120   2.095   5.212 -0.5311 -0.4155 -0.2006
   35MOL0     C 4646   7.055   1.975   5.188  0.3121 -0.8930 -0.7244
   35MOL0     C 4647   6.919   1.953   5.214 -0.2200 -0.3025 -1.1272
   35MOL0     O 4648   6.839   1.850   5.172  0.1318  0.6086 -0.2474
   35MOL0     C 4649   6.903   1.764   5.074  0.4442 -0.6464 -0.3366
   35MOL0     C 4650   6.976   1.646   5.125 -0.0889 -0.2724  0.1511
   35MOL0     C 4651   7.066   1.581   5.015  0.2308 -0.8140 -0.5360
   35MOL0     C 4652   6.984   1.503   4.917 -0.0662 -0.0434 -0.8548
   35MOL0     C 4653   7.070   1.484   4.803  0.1818  0.6628  1.3778
   35MOL0     C 4654   7.153   1.476   4.717  0.3942 -0.0908 -0.1789
   35MOL0     C 4655   6.862   2.043   5.302  0.2960 -0.5386 -0.2284
   35MOL0     C 4656   6.927   2.165   5.326  0.4554  0.1005 -0.2863
   35MOL0     C 4657   6.868   2.260   5.429 -0.0084  0.6928  0.7084
   35MOL0     H 4658   7.439   2.331   5.112 -0.2829 -0.6863  1.5260
   35MOL0     H 4659   7.592   2.494   5.068 -3.3661 -0.5904 -2.5234
   35MOL0     H 4660   7.669   2.780   5.427 -1.6843  1.8761 -1.0888
   35MOL0     H 4661   7.800   2.706   5.319 -1.7219 -2.4187 -1.3469
   35MOL0     H 4662   7.655   2.977   5.323  2.1586  3.6436 -2.3640
   35MOL0     H 4663   7.781   2.941   5.216 -2.5453 -0.2910 -0.0873
   35MOL0     H 4664   7.793   2.965   5.521  1.5391 -1.4956  0.3932
   35MOL0     H 4665   7.859   3.086   5.407  1.0216 -0.1935  1.4602
   35MOL0     H 4666   7.971   2.816   5.477 -0.1338 -0.6643  0.0450
   35MOL0     H 4667   8.010   2.900   5.338 -3.2218  1.6443 -1.4906
   35MOL0     H 4668   8.081   3.084   5.521  0.2213  0.0269  1.3491
   35MOL0     H 4669   8.036   2.977   5.646  0.0712 -2.0258  0.4343
   35MOL0     H 4670   8.184   2.802   5.577 -3.4382 -0.3747 -2.1091
   35MOL0     H 4671   8.241   2.877   5.434 -0.1856 -1.9647  0.4342
   35MOL0     H 4672   8.391   2.871   5.642  2.6216  2.6503  3.3495
   35MOL0     H 4673   8.304   2.989   5.714  0.4999 -1.8567  0.5345
   35MOL0     H 4674   8.351   3.091   5.451  2.4450 -0.6686 -1.9983
   35MOL0     H 4675   8.440   3.139   5.605 -0.3235 -1.1508  1.7615
   35MOL0     H 4676   8.468   2.942   5.284 -0.9296 -0.2054  0.7113
   35MOL0     H 4677   8.702   2.938   5.153  3.7182  0.7064 -0.5767
   35MOL0     H 4678   8.844   2.869   5.243  0.9611 -3.6448 -2.9960
   35MOL0     H 4679   8.716   2.636   5.231 -1.7348 -0.3655  1.5063
   35MOL0     H 4680   8.576   2.731   5.179  0.2993 -1.2755  1.3721
   35MOL0     H 4681   8.738   2.792   4.972  1.7429 -0.3229  0.3541
   35MOL0     H 4682   8.709   2.620   4.991 -0.0634 -1.7172  2.7386
   35MOL0     H 4683   8.954   2.767   5.094  1.1082 -1.4224 -1.1408
   35MOL0     H 4684   8.924   2.677   4.942 -2.0110  1.4701 -0.6657
   35MOL0     H 4685   9.099   2.773   5.263  2.8031 -0.3608  2.9508
   35MOL0     H 4686   9.337   2.775   5.282 -0.0151  1.7067 -2.0860
   35MOL0     H 4687   9.654   2.635   5.473  1.4392 -1.0094  1.6620
   35MOL0     H 4688   9.896   2.637   5.521 -0.2110 -0.0847  1.1796
   35MOL0     H 4689  10.105   2.577   5.512  0.6246 -0.2457 -0.1872
   35MOL0     H 4690  10.131   2.519   5.345 -1.3741 -2.4990  3.5057
   35MOL0     H 4691  10.339   2.669   5.335 -0.5704 -0.8037 -0.3666
   35MOL0     H 4692  10.323   2.661   5.513  3.0640  3.5097 -1.7006
   35MOL0     H 4693  10.331   2.412   5.488  0.2885  0.2430  0.0965
   35MOL0     H 4694  10.360   2.418   5.311 -1.0757 -0.5477  0.5465
   35MOL0     H 4695  10.544   2.503   5.534  0.9452  1.6099 -0.8237
   35MOL0     H 4696  10.559   2.574   5.374  0.5873  0.2027  0.3575
   35MOL0     H 4697  10.706   2.374   5.390  1.2899 -5.0019 -0.7669
   35MOL0     H 4698  10.585   2.360   5.260  1.0612 -3.9325  0.2468
   35MOL0     H 4699  10.591   2.233   5.542  0.3088  1.6832 -0.2881
   35MOL0     H 4700  10.465   2.207   5.415  0.5783 -1.4468 -1.3738
   35MOL0     H 4701  10.761   2.159   5.367  0.6638 -2.0865 -0.8987
   35MOL0     H 4702  10.618   2.126   5.257  0.6814 -1.4740 -0.2577
   35MOL0     H 4703  10.679   1.985   5.516  2.3857  0.3771  0.4323
   35MOL0     H 4704  10.532   1.957   5.431  1.0520 -1.4451  4.1261
   35MOL0     H 4705   9.973   2.828   5.155 -0.2057  1.0928  0.2399
   35MOL0     H 4706   9.750   2.844   5.089  0.4197 -0.3108  0.9961
   35MOL0     H 4707   9.352   2.401   5.066 -1.1428 -1.0732 -0.5395
   35MOL0     H 4708   9.105   2.394   5.047 -1.7983  2.2737 -2.1521
   35MOL0     H 4709   7.458   2.711   5.419 -0.3024  1.4600 -2.9451
   35MOL0     H 4710   7.304   2.501   5.485 -0.3670  0.9406  0.2216
   35MOL0     H 4711   7.222   2.094   5.177 -0.2626 -1.1637  0.5734
   35MOL0     H 4712   7.109   1.901   5.129  1.5692  0.3308 -1.1558
   35MOL0     H 4713   6.958   1.822   5.000  0.6675  0.1711  0.4433
   35MOL0     H 4714   6.823   1.715   5.018 -0.9489 -1.2119  1.9923
   35MOL0     H 4715   6.902   1.571   5.154  2.5356 -2.5158  1.5047
   35MOL0     H 4716   7.042   1.662   5.211  0.3237 -0.1493 -0.1854
   35MOL0     H 4717   7.146   1.518   5.055  1.0432  0.6648  0.2431
   35MOL0     H 4718   7.110   1.667   4.964  0.1141  0.6551  1.7254
   35MOL0     H 4719   6.955   1.412   4.971  0.8234  0.2790  0.2140
   35MOL0     H 4720   6.892   1.554   4.886 -0.9486  0.0301  1.6285
   35MOL0     H 4721   7.221   1.469   4.635 -1.0071 -0.0141 -1.3890
   35MOL0     H 4722   6.760   2.030   5.338  0.6612 -5.1214 -0.1533
   35MOL0     H 4723   6.886   2.234   5.534  1.6066 -0.5339  0.1629
   35MOL0     H 4724   6.897   2.363   5.407  1.6983 -0.1901 -1.4315
   35MOL0     H 4725   6.758   2.259   5.425  0.0043  1.2844  0.0784
   36MOL0     O 4726   8.381   8.241   6.344  1.0717 -0.2916 -0.7450
   36MOL0     C 4727   8.480   8.239   6.416  0.4575 -0.5882  0.1317
   36MOL0     O 4728   8.610   8.267   6.372 -0.0615 -0.5971  0.1420
   36MOL0     C 4729   8.632   8.277   6.240  0.5351  1.1632  0.0530
   36MOL0     C 4730   8.649   8.159   6.170  1.0008 -0.0737  0.4061
   36MOL0     C 4731   8.660   8.163   6.032  0.3505  0.2417  0.1434
   36MOL0     C 4732   8.671   8.281   5.958  0.3447 -0.1685 -0.1193
   36MOL0     O 4733   8.711   8.285   5.824 -0.0746 -0.4391 -0.7099
   36MOL0     C 4734   8.626   8.229   5.724  0.0210 -0.5666  0.6164
   36MOL0     C 4735   8.659   8.295   5.591  0.2119 -0.7574  0.2624
   36MOL0     C 4736   8.592   8.438   5.564 -0.4833  0.0484 -0.0977
   36MOL0     C 4737   8.630   8.491   5.428 -0.3244  0.4203  0.5023
   36MOL0     C 4738   8.774   8.534   5.421  0.6809  0.6113 -0.0411
   36MOL0     C 4739   8.835   8.560   5.281 -0.1357 -1.2251  0.1026
   36MOL0     C 4740   8.962   8.654   5.297  0.2790  0.6299 -0.4569
   36MOL0     C 4741   9.030   8.700   5.174 -0.4354  0.1639  0.3220
   36MOL0     N 4742   9.082   8.595   5.087  0.3079 -0.2326 -0.1653
   36MOL0     C 4743   9.220   8.570   5.066  0.2139  0.3706 -0.2904
   36MOL0     C 4744   9.212   8.461   4.976  0.9535 -0.1403 -0.0385
   36MOL0     C 4745   9.343   8.395   4.935 -0.6218 -0.3539 -0.3926
   36MOL0     C 4746   9.385   8.406   4.782  0.2471  0.6046  0.0511
   36MOL0     C 4747   9.513   8.331   4.759 -0.6963  0.8630 -0.2262
   36MOL0     C 4748   9.584   8.368   4.635  0.2245 -0.8249  0.1054
   36MOL0     O 4749   9.679   8.265   4.610 -0.3421 -0.1289 -0.4547
   36MOL0     C 4750   9.761   8.279   4.502  0.3556 -0.2932 -0.1915
   36MOL0     C 4751   9.716   8.343   4.382 -1.1069  0.4112  0.1740
   36MOL0     C 4752   9.791   8.315   4.265 -0.4299 -0.1539  0.3286
   36MOL0     C 4753   9.911   8.230   4.274  0.1526 -0.3846 -0.2568
   36MOL0     C 4754   9.986   8.192   4.149  0.1521 -0.2359 -0.0884
   36MOL0     O 4755   9.950   8.248   4.031  0.6054 -0.8111 -0.2943
   36MOL0     C 4756  10.038   8.238   3.930  0.0877 -0.0767  0.1364
   36MOL0     C 4757  10.035   8.132   3.838  0.3108 -0.5559  0.2306
   36MOL0     C 4758  10.123   8.109   3.735  0.4238  0.4367  0.6919
   36MOL0     C 4759  10.230   8.197   3.726 -0.0497  0.0925 -0.3628
   36MOL0     O 4760  10.334   8.155   3.650 -0.3195  0.0684 -0.2473
   36MOL0     C 4761  10.459   8.226   3.655 -0.1065  0.8394 -0.5406
   36MOL0     C 4762  10.552   8.173   3.546  0.2891  0.3255  0.2413
   36MOL0     C 4763  10.692   8.249   3.557  0.1131  0.1008 -0.5404
   36MOL0     C 4764  10.781   8.193   3.441  0.3209  0.1659 -0.2324
   36MOL0     C 4765  10.898   8.279   3.417 -1.3129  0.2415  0.2644
   36MOL0     C 4766  10.988   8.315   3.541  0.1848  0.1542  0.0550
   36MOL0     C 4767  11.116   8.392   3.515  0.8707 -0.4124  0.0445
   36MOL0     C 4768  11.241   8.329   3.582 -0.1702 -0.3096 -0.7241
   36MOL0    Cl 4769  11.372   8.444   3.553  0.2722 -0.0967 -0.2307
   36MOL0     C 4770  10.231   8.306   3.811  0.3869 -0.6445  0.0634
   36MOL0     C 4771  10.136   8.333   3.910  0.3951  0.4271 -0.3565
   36MOL0     O 4772  10.068   8.106   4.159  0.2546  1.0401 -0.3254
   36MOL0     C 4773   9.952   8.185   4.403 -0.1298 -0.7996 -0.4428
   36MOL0     C 4774   9.876   8.203   4.514  0.1722 -0.6040  0.2185
   36MOL0     N 4775   9.083   8.436   4.941  0.1477  0.5294 -0.2657
   36MOL0     N 4776   9.002   8.508   5.011  0.1668 -0.4413 -0.2252
   36MOL0     C 4777   8.667   8.394   6.040  0.3885 -0.0528 -0.1219
   36MOL0     C 4778   8.642   8.399   6.176  0.0252 -0.8058  0.2178
   36MOL0     C 4779   8.470   8.207   6.561  0.2018 -0.1600  0.0891
   36MOL0     C 4780   8.595   8.186   6.625  0.8583 -0.0009 -0.1136
   36MOL0     C 4781   8.598   8.160   6.763 -0.0691 -0.1502  0.0174
   36MOL0     C 4782   8.483   8.138   6.839  0.1828 -0.0657 -0.4231
   36MOL0     O 4783   8.486   8.102   6.967  0.1332 -0.1115  0.5439
   36MOL0     C 4784   8.595   8.143   7.044  0.7088  0.6097 -0.7410
   36MOL0     C 4785   8.700   8.035   7.070  0.0383 -0.6436 -0.1473
   36MOL0     C 4786   8.637   7.895   7.086  0.3520  0.3390  1.2425
   36MOL0     C 4787   8.576   7.860   7.231 -0.5772 -0.9259  0.1410
   36MOL0     C 4788   8.525   7.719   7.209  0.3776 -0.6679  0.0409
   36MOL0     C 4789   8.472   7.612   7.188  0.6772 -0.3631  0.6513
   36MOL0     C 4790   8.360   8.162   6.780 -0.9527 -0.5524 -0.1497
   36MOL0     C 4791   8.347   8.206   6.645 -0.1882  0.3469  0.2344
   36MOL0     C 4792   8.204   8.227   6.587 -0.9272  0.4643 -0.1265
   36MOL0     H 4793   8.634   8.060   6.213  0.2771 -1.0286 -1.8474
   36MOL0     H 4794   8.682   8.068   5.983  2.1484 -2.2395  5.0307
   36MOL0     H 4795   8.654   8.123   5.721  0.6238 -0.4424  1.5228
   36MOL0     H 4796   8.521   8.237   5.751 -0.0801  0.0298  0.0593
   36MOL0     H 4797   8.624   8.233   5.507  0.2178  0.9647 -1.0681
   36MOL0     H 4798   8.768   8.298   5.585  0.2325 -1.3210  0.2612
   36MOL0     H 4799   8.631   8.509   5.637 -0.1007 -0.4249  0.1649
   36MOL0     H 4800   8.483   8.437   5.567 -0.4878  1.2030  0.7930
   36MOL0     H 4801   8.614   8.410   5.355  0.2744 -0.6631  1.5416
   36MOL0     H 4802   8.559   8.571   5.405 -1.9370 -1.5625 -2.0302
   36MOL0     H 4803   8.788   8.615   5.492  2.2632 -0.7515  1.2732
   36MOL0     H 4804   8.850   8.465   5.459  1.1081  0.3232 -1.3297
   36MOL0     H 4805   8.863   8.467   5.232 -1.1630 -1.8188  0.6154
   36MOL0     H 4806   8.770   8.606   5.205 -0.2920 -3.0774 -0.9355
   36MOL0     H 4807   9.037   8.595   5.350  1.1052 -0.5023 -2.7674
   36MOL0     H 4808   8.938   8.745   5.355 -0.0229  0.1667  0.1582
   36MOL0     H 4809   8.951   8.760   5.126  2.1657  2.7568 -1.0182
   36MOL0     H 4810   9.104   8.776   5.203 -1.7637  1.6856 -0.1034
   36MOL0     H 4811   9.305   8.625   5.106 -1.7179  1.5060  2.5866
   36MOL0     H 4812   9.423   8.440   4.993  0.1868 -0.6608 -1.2436
   36MOL0     H 4813   9.331   8.295   4.978  1.2625  0.6110  2.6809
   36MOL0     H 4814   9.310   8.364   4.714  0.3129 -1.8657  1.3961
   36MOL0     H 4815   9.405   8.512   4.767  0.4688  0.6074  0.3696
   36MOL0     H 4816   9.504   8.222   4.760  1.7794  0.6021 -0.3397
   36MOL0     H 4817   9.574   8.358   4.845 -2.8122  0.2276  1.5672
   36MOL0     H 4818   9.637   8.463   4.643 -0.7646 -0.1988 -0.5706
   36MOL0     H 4819   9.520   8.373   4.546  0.8248  0.9210 -0.2573
   36MOL0     H 4820   9.631   8.409   4.374  2.0144  4.9740  1.2231
   36MOL0     H 4821   9.761   8.353   4.168  1.2130  0.2189 -0.0686
   36MOL0     H 4822   9.952   8.062   3.844  0.4712 -0.8728 -0.9886
   36MOL0     H 4823  10.136   8.013   3.684 -0.7766  1.4647 -1.7004
   36MOL0     H 4824  10.433   8.331   3.636 -3.9520  0.0434 -0.6389
   36MOL0     H 4825  10.507   8.212   3.752 -1.0793 -0.6194 -0.2289
   36MOL0     H 4826  10.570   8.066   3.563  1.9613  0.3763 -0.9993
   36MOL0     H 4827  10.506   8.180   3.447 -3.9264 -2.7289  1.6547
   36MOL0     H 4828  10.673   8.356   3.560 -2.7240 -0.3386  1.3506
   36MOL0     H 4829  10.737   8.223   3.654 -2.5066 -2.0984  0.2189
   36MOL0     H 4830  10.732   8.179   3.344  1.6647 -0.0176 -0.9053
   36MOL0     H 4831  10.820   8.094   3.468 -1.4825 -0.1696  1.3380
   36MOL0     H 4832  10.853   8.372   3.382 -1.0491 -0.2826 -1.5738
   36MOL0     H 4833  10.961   8.243   3.336 -1.6224  0.7748 -0.2158
   36MOL0     H 4834  10.919   8.368   3.607  0.0433 -0.4039  0.3667
   36MOL0     H 4835  11.013   8.223   3.594  0.9259  1.3593  1.9195
   36MOL0     H 4836  11.107   8.497   3.545 -1.5053 -0.3990 -0.5328
   36MOL0     H 4837  11.146   8.407   3.411  0.0836  2.8875  0.1781
   36MOL0     H 4838  11.230   8.313   3.689  0.6041  0.9606 -0.4352
   36MOL0     H 4839  11.281   8.235   3.541 -1.4119 -2.8071  3.1813
   36MOL0     H 4840  10.320   8.368   3.822 -0.9489  1.3463  0.2676
   36MOL0     H 4841  10.150   8.416   3.979 -2.1648 -1.0827  2.2167
   36MOL0     H 4842  10.053   8.145   4.397 -0.7831 -2.3836 -1.6316
   36MOL0     H 4843   9.900   8.162   4.612 -2.1794  2.6169  2.3524
   36MOL0     H 4844   8.696   8.484   5.986 -1.4465 -1.5106 -3.8577
   36MOL0     H 4845   8.634   8.492   6.231  1.2394  0.5332 -1.7214
   36MOL0     H 4846   8.694   8.190   6.579  1.3760  1.9848  1.0379
   36MOL0     H 4847   8.693   8.143   6.813 -0.0993 -1.0002 -0.1894
   36MOL0     H 4848   8.552   8.162   7.143  0.5331  0.8577 -0.8620
   36MOL0     H 4849   8.647   8.237   7.022  4.5468 -0.6797  1.8677
   36MOL0     H 4850   8.737   8.069   7.167 -0.8837  1.9426 -0.6171
   36MOL0     H 4851   8.777   8.039   6.992 -0.5904  1.9130 -0.7068
   36MOL0     H 4852   8.715   7.820   7.065  0.4654  0.6490  0.5438
   36MOL0     H 4853   8.552   7.882   7.019 -0.4381 -0.0529  2.2808
   36MOL0     H 4854   8.653   7.862   7.309  0.4635  3.0727 -0.7247
   36MOL0     H 4855   8.496   7.925   7.268  0.1609 -0.1105  0.3409
   36MOL0     H 4856   8.410   7.529   7.163 -0.1066  0.8246 -1.5963
   36MOL0     H 4857   8.274   8.144   6.844 -0.2439  0.9963  1.3299
   36MOL0     H 4858   8.175   8.147   6.519 -0.5577 -0.2934  0.5777
   36MOL0     H 4859   8.133   8.249   6.668 -1.7348 -2.6552  0.1305
   36MOL0     H 4860   8.195   8.322   6.533 -0.5189  0.8158  0.4102
   37MOL0     O 4861   9.358   7.019  10.256 -0.1104  0.2365 -0.6975
   37MOL0     C 4862   9.435   6.966  10.340  0.6352  0.1794  0.1846
   37MOL0     O 4863   9.398   6.909  10.460  0.1196 -0.2553  0.7553
   37MOL0     C 4864   9.269   6.945  10.505 -0.5287 -0.9569  0.6799
   37MOL0     C 4865   9.264   7.013  10.630  1.4104  0.5760  0.3036
   37MOL0     C 4866   9.136   7.047  10.683 -0.1045 -0.1000 -0.1120
   37MOL0     C 4867   9.017   7.010  10.619 -0.3157 -0.2089  0.8737
   37MOL0     O 4868   8.895   7.039  10.668  0.1328 -0.4187  0.2142
   37MOL0     C 4869   8.796   6.933  10.643 -0.0890  0.3481  0.0201
   37MOL0     C 4870   8.698   6.933  10.760  0.2032  0.2734  0.1361
   37MOL0     C 4871   8.637   7.074  10.796  0.1843 -0.3353 -0.2568
   37MOL0     C 4872   8.544   7.101  10.670  0.8429  1.0116 -0.3127
   37MOL0     C 4873   8.457   7.230  10.701  0.2813  0.2690 -0.5498
   37MOL0     C 4874   8.538   7.359  10.732 -0.7100  0.5292 -0.0083
   37MOL0     C 4875   8.642   7.394  10.614 -0.3117 -0.7226 -0.1245
   37MOL0     C 4876   8.636   7.540  10.577 -0.0525  0.0162  1.0338
   37MOL0     N 4877   8.730   7.570  10.467 -0.2573  0.4039 -0.3728
   37MOL0     C 4878   8.854   7.611  10.485  0.2600 -0.4090  0.7880
   37MOL0     C 4879   8.910   7.583  10.370  0.6507  0.6081  0.5046
   37MOL0     C 4880   9.051   7.585  10.330  0.1232 -0.0905  0.1656
   37MOL0     C 4881   9.101   7.443  10.291 -0.1807 -0.7122  0.3144
   37MOL0     C 4882   9.247   7.429  10.256  0.6443  0.0181  0.0710
   37MOL0     C 4883   9.290   7.507  10.137 -0.8851 -0.4269  0.3483
   37MOL0     O 4884   9.394   7.437  10.069  0.5531  0.4554 -0.7445
   37MOL0     C 4885   9.527   7.479  10.095  0.0717  0.9276 -0.1139
   37MOL0     C 4886   9.631   7.426  10.018 -0.7103  0.8747  0.4737
   37MOL0     C 4887   9.768   7.455  10.044 -0.3192  0.1775 -0.6500
   37MOL0     C 4888   9.801   7.553  10.150  0.3278  0.2612  0.0664
   37MOL0     C 4889   9.934   7.618  10.166  0.0213  0.3351  0.2388
   37MOL0     O 4890   9.932   7.738  10.222 -0.1862  0.1400  0.6009
   37MOL0     C 4891  10.055   7.799  10.236  0.7739  0.6567  0.2462
   37MOL0     C 4892  10.066   7.932  10.184 -0.3037 -0.4869  0.5432
   37MOL0     C 4893  10.187   8.003  10.210  0.4454  0.7873  0.7981
   37MOL0     C 4894  10.297   7.944  10.276  0.7818 -0.2057 -0.3863
   37MOL0     O 4895  10.418   8.006  10.297 -0.1527 -0.1918 -0.4881
   37MOL0     C 4896  10.519   7.957  10.203 -0.1883  0.6170 -0.8735
   37MOL0     C 4897  10.614   7.859  10.267  0.0822  0.3784 -2.4126
   37MOL0     C 4898  10.734   7.825  10.190 -0.3679 -0.3402 -0.2224
   37MOL0     C 4899  10.834   7.724  10.269  0.4940  0.4526  0.0428
   37MOL0     C 4900  10.811   7.579  10.222 -1.0878  0.4052  0.2710
   37MOL0     C 4901  10.876   7.546  10.079 -1.0455 -0.4486 -0.4222
   37MOL0     C 4902  10.820   7.416  10.013  1.0456 -0.9302  1.0281
   37MOL0     C 4903  10.849   7.412   9.857 -0.6167 -0.5745 -0.1533
   37MOL0    Cl 4904  10.805   7.250   9.804 -0.0770  0.1017 -0.1020
   37MOL0     C 4905  10.274   7.815  10.322  0.2990  0.4800  0.1417
   37MOL0     C 4906  10.159   7.739  10.308  0.0599  0.2794 -0.3138
   37MOL0     O 4907  10.028   7.556  10.105  0.2619 -0.2380  0.3881
   37MOL0     C 4908   9.695   7.606  10.234 -0.3460  0.8857  1.2764
   37MOL0     C 4909   9.561   7.564  10.204  0.7623 -0.3108 -0.2918
   37MOL0     N 4910   8.826   7.519  10.285  0.5848  1.0580 -0.2595
   37MOL0     N 4911   8.712   7.516  10.344  0.2123  0.7456  0.4938
   37MOL0     C 4912   9.032   6.960  10.486  0.8245 -0.4043 -0.4480
   37MOL0     C 4913   9.148   6.912  10.433 -0.0260 -0.3084 -1.1707
   37MOL0     C 4914   9.581   6.950  10.307 -0.4248  0.5603  0.4167
   37MOL0     C 4915   9.663   6.884  10.398  0.1265 -0.7466  0.1987
   37MOL0     C 4916   9.804   6.885  10.383  0.6620  0.6982  0.4236
   37MOL0     C 4917   9.868   6.941  10.272 -0.5431  0.4710  0.6360
   37MOL0     O 4918  10.003   6.961  10.271  0.0143 -0.4500  0.0192
   37MOL0     C 4919  10.087   6.881  10.345 -0.3560  0.8531 -0.5028
   37MOL0     C 4920  10.070   6.723  10.323 -0.1294  0.1494  0.4059
   37MOL0     C 4921  10.139   6.650  10.434 -0.7906 -0.2755  0.0316
   37MOL0     C 4922  10.125   6.499  10.431  0.3546  0.2218  0.6615
   37MOL0     C 4923   9.985   6.460  10.451  0.8672  0.0279  0.4051
   37MOL0     C 4924   9.874   6.415  10.473 -0.2662  0.2304 -0.3038
   37MOL0     C 4925   9.784   6.988  10.174 -0.0387 -0.1792 -1.0339
   37MOL0     C 4926   9.642   6.993  10.185 -0.7398 -0.1335 -0.0400
   37MOL0     C 4927   9.563   7.065  10.072  0.3937  1.1844  0.5402
   37MOL0     H 4928   9.358   7.033  10.681  1.7340 -0.9306  0.3282
   37MOL0     H 4929   9.108   7.096  10.776 -0.0522  1.0801 -0.7023
   37MOL0     H 4930   8.745   6.954  10.548 -1.9451  1.7161  1.2283
   37MOL0     H 4931   8.836   6.832  10.631 -0.5542  0.4116 -2.7361
   37MOL0     H 4932   8.756   6.909  10.850  0.2652 -2.4870 -0.5593
   37MOL0     H 4933   8.612   6.866  10.750 -1.4765  2.1243  1.3365
   37MOL0     H 4934   8.716   7.149  10.804  1.4260 -1.3310 -2.4550
   37MOL0     H 4935   8.570   7.074  10.883  3.1529 -0.6658  2.2177
   37MOL0     H 4936   8.601   7.109  10.576  0.6127 -2.9950 -0.9914
   37MOL0     H 4937   8.479   7.017  10.644 -0.4851  2.7195 -3.0524
   37MOL0     H 4938   8.394   7.250  10.614 -0.0501  2.2077  0.0769
   37MOL0     H 4939   8.403   7.206  10.793  1.1794 -0.3718 -0.1724
   37MOL0     H 4940   8.459   7.435  10.739 -2.6761 -1.4656  0.5085
   37MOL0     H 4941   8.588   7.335  10.826  1.6063  2.6117 -0.5790
   37MOL0     H 4942   8.608   7.337  10.527 -0.6388 -1.7845  0.6752
   37MOL0     H 4943   8.744   7.365  10.640 -1.6101 -2.8425  3.3022
   37MOL0     H 4944   8.537   7.573  10.543 -0.4419 -1.6100  0.5122
   37MOL0     H 4945   8.652   7.607  10.663 -0.6670  3.1189 -1.1165
   37MOL0     H 4946   8.893   7.643  10.581  1.8684  2.4029 -0.7008
   37MOL0     H 4947   9.059   7.652  10.243 -2.0555  1.1792  0.8660
   37MOL0     H 4948   9.120   7.621  10.406  0.8322  1.5351 -1.1722
   37MOL0     H 4949   9.084   7.385  10.381 -0.8063 -0.4216  0.3863
   37MOL0     H 4950   9.042   7.399  10.210  1.3509 -3.6945  0.7087
   37MOL0     H 4951   9.273   7.326  10.234 -0.0746  0.2072 -1.8805
   37MOL0     H 4952   9.309   7.469  10.336  1.5310  0.7552 -0.9470
   37MOL0     H 4953   9.314   7.610  10.165  0.7421 -1.2017  2.0111
   37MOL0     H 4954   9.203   7.518  10.072 -0.8418 -4.3208 -0.6168
   37MOL0     H 4955   9.605   7.357   9.937  1.7119 -0.1854  0.5033
   37MOL0     H 4956   9.850   7.409   9.990  1.1269  0.9046  0.8730
   37MOL0     H 4957   9.977   7.974  10.138  1.7632  0.8723 -2.5512
   37MOL0     H 4958  10.198   8.104  10.171 -0.9034  0.7166  0.1806
   37MOL0     H 4959  10.481   7.919  10.108  2.4256  2.1271 -2.6719
   37MOL0     H 4960  10.578   8.047  10.182  1.1406 -0.5722 -2.5874
   37MOL0     H 4961  10.647   7.906  10.360 -0.4791  2.7832 -3.3566
   37MOL0     H 4962  10.561   7.766  10.291  1.2135 -0.0705 -1.5383
   37MOL0     H 4963  10.711   7.785  10.091 -0.1832  0.7461 -0.7256
   37MOL0     H 4964  10.781   7.924  10.181 -0.3600 -0.3700 -0.5398
   37MOL0     H 4965  10.804   7.733  10.374  1.3717 -0.9245  0.4331
   37MOL0     H 4966  10.936   7.759  10.250  0.8517 -1.8753 -3.0853
   37MOL0     H 4967  10.706   7.551  10.233 -1.4990  2.5438  3.1206
   37MOL0     H 4968  10.870   7.525  10.296  1.7108  4.5570  1.4841
   37MOL0     H 4969  10.835   7.626  10.017 -0.9181  1.5863  1.9598
   37MOL0     H 4970  10.986   7.551  10.077 -1.0981  2.8786 -0.5617
   37MOL0     H 4971  10.712   7.419  10.027  0.4495  0.8210 -2.8143
   37MOL0     H 4972  10.876   7.329  10.049  3.1229 -0.1442 -0.1363
   37MOL0     H 4973  10.792   7.494   9.812  2.5008  2.2631  0.6849
   37MOL0     H 4974  10.951   7.449   9.849 -1.2632  1.7606  1.1315
   37MOL0     H 4975  10.346   7.761  10.384 -1.4229 -0.9318  1.0156
   37MOL0     H 4976  10.136   7.640  10.345  0.1220  0.4824  0.2791
   37MOL0     H 4977   9.715   7.676  10.314  1.6496  1.1833  0.5816
   37MOL0     H 4978   9.487   7.604  10.273 -0.5054 -0.5920 -1.4417
   37MOL0     H 4979   8.939   6.934  10.437 -1.0181 -0.9961  3.0404
   37MOL0     H 4980   9.154   6.857  10.339 -0.1261 -3.4392  0.4955
   37MOL0     H 4981   9.623   6.852  10.494 -1.2233 -0.2626 -0.1749
   37MOL0     H 4982   9.855   6.847  10.471 -0.4257 -0.7162  0.4880
   37MOL0     H 4983  10.079   6.906  10.451  2.1238 -1.1312  0.2585
   37MOL0     H 4984  10.192   6.896  10.317  0.6752 -1.6231  1.6203
   37MOL0     H 4985  10.119   6.706  10.226 -2.8652  1.1634 -1.2708
   37MOL0     H 4986   9.964   6.695  10.315 -0.6087  1.8802  0.2819
   37MOL0     H 4987  10.099   6.685  10.530  0.4452  3.2560 -0.6011
   37MOL0     H 4988  10.244   6.678  10.439 -0.8235 -0.3424  1.7503
   37MOL0     H 4989  10.161   6.472  10.332  1.0348  1.8748  0.4298
   37MOL0     H 4990  10.186   6.457  10.512 -0.7066  1.6864  2.2986
   37MOL0     H 4991   9.782   6.365  10.497  1.2437 -2.4599  0.3857
   37MOL0     H 4992   9.828   7.019  10.080  1.3988 -0.8032 -0.5871
   37MOL0     H 4993   9.627   7.096   9.989 -1.5652  1.4372 -0.9321
   37MOL0     H 4994   9.485   7.008  10.021  0.8046 -0.1768  1.3846
   37MOL0     H 4995   9.506   7.148  10.116 -0.1399  0.3452  1.4631
   38MOL0     O 4996   9.564   4.690   0.431 -0.0824 -0.7192  1.1453
   38MOL0     C 4997   9.492   4.786   0.412  0.2385 -1.0468 -0.8724
   38MOL0     O 4998   9.531   4.918   0.411  0.3933  0.1093  0.4098
   38MOL0     C 4999   9.669   4.941   0.408  0.2061  0.1444 -0.1258
   38MOL0     C 5000   9.722   4.994   0.287 -0.2551  0.1690 -0.6584
   38MOL0     C 5001   9.858   5.011   0.283 -0.1146  0.0111  0.5318
   38MOL0     C 5002   9.945   4.992   0.395  0.0826 -0.1405  0.3407
   38MOL0     O 5003  10.080   5.005   0.373  0.9853  0.6213  0.6550
   38MOL0     C 5004  10.174   4.941   0.457 -0.6599 -0.0115  0.8189
   38MOL0     C 5005  10.299   5.022   0.436  0.5052 -0.5805 -0.5552
   38MOL0     C 5006  10.424   4.932   0.463  0.5242 -1.2631  0.1712
   38MOL0     C 5007  10.547   4.987   0.402 -0.3919 -0.5537 -0.3181
   38MOL0     C 5008  10.673   4.901   0.415  0.8653 -0.5236  0.3470
   38MOL0     C 5009  10.798   4.977   0.382  0.3286 -0.3952 -0.7028
   38MOL0     C 5010  10.927   4.907   0.435 -0.0231 -0.2942  0.2920
   38MOL0     C 5011  10.974   4.933   0.577 -0.7608  0.0562 -1.1910
   38MOL0     N 5012  11.061   5.049   0.599 -0.0559  0.2422 -0.0274
   38MOL0     C 5013  11.168   5.082   0.518  0.5625  0.1360  0.6507
   38MOL0     C 5014  11.214   5.201   0.576 -0.3925  0.2523 -0.2995
   38MOL0     C 5015  11.345   5.274   0.540 -0.6919 -0.0250  0.8548
   38MOL0     C 5016  11.362   5.302   0.389 -0.2173  1.1522  0.2447
   38MOL0     C 5017  11.488   5.391   0.380  0.1764 -0.7377  0.6192
   38MOL0     C 5018  11.521   5.409   0.231 -0.2784 -0.3829  0.4398
   38MOL0     O 5019  11.646   5.488   0.234  0.7498  0.1947  0.7978
   38MOL0     C 5020  11.739   5.466   0.136  0.1235 -0.7487  0.1444
   38MOL0     C 5021  11.746   5.363   0.045  0.1888 -0.3367  0.4540
   38MOL0     C 5022  11.845   5.355  -0.050  0.3743 -0.0537  1.0453
   38MOL0     C 5023  11.928   5.459  -0.073 -0.6814  0.3285 -0.0616
   38MOL0     C 5024  12.034   5.459  -0.177 -0.7851  1.1960  0.5368
   38MOL0     O 5025  12.094   5.582  -0.200  0.1855 -0.1996  0.2813
   38MOL0     C 5026  12.169   5.626  -0.305  0.1867 -0.3196 -0.1867
   38MOL0     C 5027  12.267   5.543  -0.357 -0.6020  0.8304 -0.5771
   38MOL0     C 5028  12.362   5.595  -0.440  0.3543  0.7026  0.4627
   38MOL0     C 5029  12.370   5.720  -0.480 -1.0352  0.7225 -0.5103
   38MOL0     O 5030  12.477   5.747  -0.560  0.2399  0.0755  0.2288
   38MOL0     C 5031  12.497   5.885  -0.605 -0.6728  0.1981 -0.7760
   38MOL0     C 5032  12.446   5.908  -0.750  0.4533  0.1610 -0.4714
   38MOL0     C 5033  12.463   6.063  -0.771  0.7006  0.2688 -0.5884
   38MOL0     C 5034  12.393   6.106  -0.900 -0.2644  0.4069 -0.0355
   38MOL0     C 5035  12.420   6.254  -0.931 -0.2442 -0.3188  0.4581
   38MOL0     C 5036  12.368   6.307  -1.067 -0.1570 -0.4364  0.0895
   38MOL0     C 5037  12.427   6.440  -1.114 -0.0528  1.0544  0.0434
   38MOL0     C 5038  12.352   6.497  -1.244  0.1621 -0.7479 -1.6950
   38MOL0    Cl 5039  12.461   6.599  -1.336 -0.3907 -0.2327  0.0104
   38MOL0     C 5040  12.275   5.801  -0.421 -0.4618 -0.0674 -0.2001
   38MOL0     C 5041  12.175   5.760  -0.336  0.1558  0.5352  0.1565
   38MOL0     O 5042  12.064   5.351  -0.235 -0.2558  0.2463  0.0074
   38MOL0     C 5043  11.920   5.568   0.012  1.1481 -0.4239 -0.1882
   38MOL0     C 5044  11.823   5.572   0.117  0.9065 -0.1371 -0.6014
   38MOL0     N 5045  11.149   5.227   0.692 -0.0171 -0.1818 -0.4681
   38MOL0     N 5046  11.057   5.132   0.704  0.3272 -0.2741  0.5281
   38MOL0     C 5047   9.889   4.943   0.513 -0.5836  0.2205  0.4777
   38MOL0     C 5048   9.750   4.909   0.516 -0.3496  0.6924 -0.3116
   38MOL0     C 5049   9.352   4.754   0.426  1.5019  0.6474  1.1728
   38MOL0     C 5050   9.310   4.639   0.496  0.8329 -1.3692  0.0378
   38MOL0     C 5051   9.175   4.595   0.511  0.5751  0.0899  0.0860
   38MOL0     C 5052   9.075   4.684   0.482 -0.8206  0.7123 -0.1080
   38MOL0     O 5053   8.951   4.644   0.519  0.7230 -0.4470  0.3770
   38MOL0     C 5054   8.838   4.741   0.498  0.4319 -0.1829 -0.8129
   38MOL0     C 5055   8.719   4.711   0.591 -0.8125  0.0946  0.3355
   38MOL0     C 5056   8.636   4.590   0.543  1.1107  0.8185  0.1327
   38MOL0     C 5057   8.509   4.575   0.635  0.3307 -0.9271 -0.5523
   38MOL0     C 5058   8.544   4.535   0.776 -0.0796 -0.2260  1.0144
   38MOL0     C 5059   8.557   4.518   0.897  1.0142  0.6365 -0.0686
   38MOL0     C 5060   9.116   4.804   0.412  0.7007 -0.7425 -0.5153
   38MOL0     C 5061   9.244   4.835   0.377 -1.0706  0.0679 -0.6484
   38MOL0     C 5062   9.271   4.952   0.283  1.1597 -0.2557 -0.0466
   38MOL0     H 5063   9.657   5.034   0.209 -1.5795  0.8950  0.7526
   38MOL0     H 5064   9.907   5.033   0.188  2.2763  1.7634  2.0764
   38MOL0     H 5065  10.162   4.934   0.565  2.4734  0.5184  1.3066
   38MOL0     H 5066  10.192   4.840   0.419  3.6949  0.7200  0.3521
   38MOL0     H 5067  10.288   5.101   0.511 -1.9934  0.3929 -1.8260
   38MOL0     H 5068  10.304   5.077   0.342 -1.5891  1.7894  0.5998
   38MOL0     H 5069  10.402   4.839   0.410 -1.7934  0.2996 -1.8489
   38MOL0     H 5070  10.440   4.923   0.571  0.3215 -0.5066  0.2730
   38MOL0     H 5071  10.539   5.002   0.294  1.3669  1.6502 -0.2227
   38MOL0     H 5072  10.573   5.086   0.441 -0.6654 -0.7869  0.4731
   38MOL0     H 5073  10.668   4.872   0.520  0.7342  1.4429  0.9278
   38MOL0     H 5074  10.664   4.818   0.345  2.9295  0.4222 -1.1561
   38MOL0     H 5075  10.804   4.990   0.273 -2.1863  4.3044 -0.5330
   38MOL0     H 5076  10.788   5.077   0.425 -1.6296  0.5864 -3.1790
   38MOL0     H 5077  11.003   4.934   0.361  1.6135  0.2548  2.0858
   38MOL0     H 5078  10.904   4.801   0.423 -2.4478  0.3090 -0.9646
   38MOL0     H 5079  10.888   4.945   0.644  0.7463 -0.0706  0.8328
   38MOL0     H 5080  11.031   4.847   0.614 -1.3152 -0.4485 -1.4728
   38MOL0     H 5081  11.209   5.034   0.430  1.3626  1.5641  0.2119
   38MOL0     H 5082  11.344   5.370   0.593  1.7563  0.7968 -0.4143
   38MOL0     H 5083  11.422   5.207   0.581 -0.7869 -0.4819  0.2929
   38MOL0     H 5084  11.380   5.203   0.348 -3.8388 -0.0888  1.2736
   38MOL0     H 5085  11.271   5.344   0.344  0.1331  0.7280 -0.8943
   38MOL0     H 5086  11.567   5.356   0.447  0.5343  3.0441  2.4022
   38MOL0     H 5087  11.460   5.486   0.424 -1.6536 -0.9965  0.0924
   38MOL0     H 5088  11.452   5.473   0.176 -0.1279 -2.2243 -2.0948
   38MOL0     H 5089  11.529   5.314   0.178  1.2304 -0.5685  0.9534
   38MOL0     H 5090  11.666   5.291   0.038 -1.7443  1.7068  0.5227
   38MOL0     H 5091  11.858   5.279  -0.126 -2.1335 -0.8983  1.3686
   38MOL0     H 5092  12.258   5.440  -0.325 -2.4298  1.9799  3.2407
   38MOL0     H 5093  12.423   5.517  -0.483 -0.9201 -1.0142  1.6571
   38MOL0     H 5094  12.472   5.968  -0.539  1.1420 -0.0022  0.2381
   38MOL0     H 5095  12.606   5.893  -0.613 -0.7862 -0.1831 -5.0364
   38MOL0     H 5096  12.491   5.846  -0.829  1.2066 -0.8513  0.7156
   38MOL0     H 5097  12.338   5.898  -0.756  0.3281  2.1141 -2.8480
   38MOL0     H 5098  12.415   6.123  -0.693  1.7129  0.0292  0.2379
   38MOL0     H 5099  12.569   6.090  -0.777  1.0281 -1.2425 -2.5739
   38MOL0     H 5100  12.286   6.093  -0.880 -0.6589  1.9175 -0.9470
   38MOL0     H 5101  12.424   6.038  -0.980  0.8395  2.3262 -1.3412
   38MOL0     H 5102  12.524   6.282  -0.911  0.0902  1.7703 -3.2396
   38MOL0     H 5103  12.365   6.320  -0.863  1.4767  2.8937 -1.0731
   38MOL0     H 5104  12.410   6.234  -1.136  0.3326  2.2737 -2.7402
   38MOL0     H 5105  12.262   6.333  -1.062  0.0536  0.9759 -1.7094
   38MOL0     H 5106  12.530   6.418  -1.144 -1.2459 -0.8705 -3.2290
   38MOL0     H 5107  12.422   6.506  -1.027 -3.5787 -1.7244  2.1994
   38MOL0     H 5108  12.310   6.412  -1.299 -1.3430  0.1374 -1.9399
   38MOL0     H 5109  12.267   6.556  -1.209 -0.3486 -2.1716 -0.3634
   38MOL0     H 5110  12.269   5.906  -0.450 -2.0120 -0.3171 -0.8698
   38MOL0     H 5111  12.104   5.820  -0.280 -0.5334 -1.0678  1.0655
   38MOL0     H 5112  11.983   5.655   0.002 -1.3002  1.6232  0.9763
   38MOL0     H 5113  11.828   5.651   0.191  1.1521 -1.4294  0.8169
   38MOL0     H 5114   9.954   4.916   0.596 -2.4452 -2.7969  1.1289
   38MOL0     H 5115   9.702   4.869   0.605  1.4387 -2.1654 -0.4991
   38MOL0     H 5116   9.375   4.568   0.546  1.3398 -0.3561  0.8358
   38MOL0     H 5117   9.138   4.510   0.566 -0.1584 -0.5107 -1.2891
   38MOL0     H 5118   8.808   4.721   0.395 -0.3513  0.9306 -0.8131
   38MOL0     H 5119   8.870   4.844   0.513 -1.3689  0.5851 -1.9074
   38MOL0     H 5120   8.647   4.792   0.604 -3.1198 -1.7795 -0.1387
   38MOL0     H 5121   8.754   4.702   0.695 -2.3812  1.5715  1.0466
   38MOL0     H 5122   8.697   4.499   0.542  0.0026  0.0560 -0.0637
   38MOL0     H 5123   8.598   4.597   0.441  1.1879 -2.4183 -0.2117
   38MOL0     H 5124   8.451   4.668   0.639  1.2015 -0.4278  2.3853
   38MOL0     H 5125   8.435   4.503   0.599 -0.9640 -0.8554  1.7512
   38MOL0     H 5126   8.561   4.489   1.000  0.4781 -0.8112 -0.4239
   38MOL0     H 5127   9.038   4.873   0.380 -0.4239 -1.2912  0.9206
   38MOL0     H 5128   9.173   4.979   0.241  0.9613 -1.4901 -0.4215
   38MOL0     H 5129   9.301   5.047   0.329  2.2940 -0.4332 -0.4016
   38MOL0     H 5130   9.339   4.917   0.205  0.9103 -0.4181 -0.1953
   39MOL0     O 5131   7.565   4.433   0.846  0.1570 -0.4666 -0.3122
   39MOL0     C 5132   7.468   4.401   0.773 -0.1107 -0.1971  0.9703
   39MOL0     O 5133   7.421   4.273   0.767  0.3278 -0.1526 -0.2524
   39MOL0     C 5134   7.492   4.166   0.822 -1.1330 -0.0663  0.0362
   39MOL0     C 5135   7.604   4.112   0.751 -1.4755 -0.7690 -0.4866
   39MOL0     C 5136   7.672   3.993   0.797  0.1042  0.2043  0.0200
   39MOL0     C 5137   7.627   3.923   0.910  0.2224 -0.0596 -1.5495
   39MOL0     O 5138   7.683   3.798   0.936 -0.3626 -0.4662  0.5918
   39MOL0     C 5139   7.639   3.736   1.053 -0.4947 -0.3225 -0.1368
   39MOL0     C 5140   7.706   3.593   1.072  0.6378 -0.5217 -0.6488
   39MOL0     C 5141   7.706   3.520   0.938 -0.1485  0.4307 -0.3136
   39MOL0     C 5142   7.756   3.373   0.953  0.5372 -0.4143 -0.2807
   39MOL0     C 5143   7.654   3.280   1.026  1.0826  0.8964  0.8811
   39MOL0     C 5144   7.704   3.131   1.034 -0.2050  0.2433 -0.2616
   39MOL0     C 5145   7.609   3.061   1.123 -0.1333 -0.4270  0.4669
   39MOL0     C 5146   7.631   2.911   1.132 -0.0879 -0.2472 -0.5423
   39MOL0     N 5147   7.753   2.878   1.218 -1.2204 -0.1877  0.4275
   39MOL0     C 5148   7.885   2.863   1.164  0.9469  0.2035  0.5724
   39MOL0     C 5149   7.958   2.810   1.265  0.1420 -0.0833 -0.2995
   39MOL0     C 5150   8.109   2.787   1.259  0.1515 -0.6729  0.2895
   39MOL0     C 5151   8.145   2.640   1.222  0.3320  1.1953  0.0678
   39MOL0     C 5152   8.290   2.628   1.175  0.1776  0.2437 -0.7019
   39MOL0     C 5153   8.321   2.476   1.171  0.8501 -0.3611 -0.2012
   39MOL0     O 5154   8.437   2.448   1.089 -0.2764 -0.9283 -0.7240
   39MOL0     C 5155   8.552   2.505   1.121 -0.6546  0.0019 -0.6715
   39MOL0     C 5156   8.651   2.508   1.029 -0.3880  0.2680  0.0503
   39MOL0     C 5157   8.774   2.571   1.050 -0.7004  0.4297 -0.3136
   39MOL0     C 5158   8.820   2.608   1.178 -0.5152 -0.3481 -0.5312
   39MOL0     C 5159   8.959   2.668   1.209 -0.3268  0.6358  0.0309
   39MOL0     O 5160   8.978   2.723   1.329  0.7669 -0.1613 -0.1423
   39MOL0     C 5161   9.101   2.748   1.377 -0.3449  0.6167 -1.4264
   39MOL0     C 5162   9.120   2.702   1.509  0.3360 -0.9378 -0.2093
   39MOL0     C 5163   9.240   2.717   1.573 -0.4951 -0.0547  0.1769
   39MOL0     C 5164   9.354   2.774   1.507  0.5422  0.5958  0.6988
   39MOL0     O 5165   9.478   2.781   1.574  0.3668  0.3057  0.5376
   39MOL0     C 5166   9.586   2.810   1.484 -0.3580 -0.0404 -0.1348
   39MOL0     C 5167   9.705   2.748   1.557 -0.5932 -0.4056 -0.0222
   39MOL0     C 5168   9.749   2.806   1.691 -0.1137  0.2347  0.6331
   39MOL0     C 5169   9.840   2.699   1.749  0.2861 -0.1825 -0.9972
   39MOL0     C 5170   9.885   2.739   1.894 -0.8978 -0.6300 -0.9156
   39MOL0     C 5171   9.995   2.649   1.937 -0.9737  0.3884  0.2775
   39MOL0     C 5172  10.051   2.679   2.079 -0.5734  0.4202 -0.5209
   39MOL0     C 5173   9.949   2.704   2.194 -0.0725  0.1235 -0.3249
   39MOL0    Cl 5174  10.055   2.690   2.336  0.4546 -0.7732 -0.4416
   39MOL0     C 5175   9.326   2.830   1.386 -1.1270 -0.2678  0.1502
   39MOL0     C 5176   9.206   2.824   1.324 -0.1929  0.0962  1.1803
   39MOL0     O 5177   9.047   2.659   1.124  0.1091  0.1212 -1.2503
   39MOL0     C 5178   8.731   2.585   1.283 -0.2876  0.3331 -0.0626
   39MOL0     C 5179   8.601   2.534   1.252  0.6037  0.0418  0.0752
   39MOL0     N 5180   7.880   2.796   1.372  0.0154  0.4837  0.2003
   39MOL0     N 5181   7.759   2.826   1.336  0.3487  0.0816  0.0513
   39MOL0     C 5182   7.513   3.975   0.983  1.0461  0.6543  0.3556
   39MOL0     C 5183   7.444   4.094   0.935 -1.0523  0.4440  0.3157
   39MOL0     C 5184   7.393   4.501   0.681  0.2078  0.9856  0.5033
   39MOL0     C 5185   7.270   4.460   0.617  0.2094  0.4282  0.4753
   39MOL0     C 5186   7.207   4.543   0.521 -0.8059 -1.0303  0.9003
   39MOL0     C 5187   7.238   4.673   0.497 -0.4647 -0.1283  0.4491
   39MOL0     O 5188   7.172   4.753   0.413 -0.4562  0.3194  0.0922
   39MOL0     C 5189   7.222   4.888   0.383  0.5092  0.3926 -0.1247
   39MOL0     C 5190   7.154   4.936   0.262 -0.6728 -0.0310  0.5623
   39MOL0     C 5191   7.205   5.067   0.198  0.5701 -0.6943 -0.2900
   39MOL0     C 5192   7.169   5.198   0.282 -0.1321  0.6443 -0.2985
   39MOL0     C 5193   7.280   5.227   0.378  0.6225  0.7749  0.1717
   39MOL0     C 5194   7.381   5.242   0.444 -1.0272 -0.0047 -0.1080
   39MOL0     C 5195   7.359   4.708   0.557  0.7217 -0.1644  0.1813
   39MOL0     C 5196   7.440   4.631   0.648 -0.0036 -0.1156  0.0601
   39MOL0     C 5197   7.567   4.703   0.715 -0.2674 -0.1828 -0.4248
   39MOL0     H 5198   7.627   4.161   0.657  1.5094 -1.5249 -0.2692
   39MOL0     H 5199   7.753   3.949   0.739  0.1661  3.9053 -3.1221
   39MOL0     H 5200   7.656   3.799   1.141 -1.4530  0.6691 -0.6392
   39MOL0     H 5201   7.533   3.713   1.047 -0.7329  0.1227  1.7854
   39MOL0     H 5202   7.659   3.546   1.159  0.4851 -0.4544 -0.6954
   39MOL0     H 5203   7.809   3.618   1.101  1.3182  0.1468 -3.3104
   39MOL0     H 5204   7.769   3.565   0.860 -1.3018  1.5842 -0.6110
   39MOL0     H 5205   7.606   3.507   0.896 -0.7405 -1.1444  1.4444
   39MOL0     H 5206   7.773   3.332   0.853 -1.4166  0.4153 -0.9968
   39MOL0     H 5207   7.846   3.362   1.014  1.0329 -3.2863 -1.3870
   39MOL0     H 5208   7.627   3.321   1.124 -3.0886  0.9438 -0.0642
   39MOL0     H 5209   7.559   3.274   0.971  1.1237 -1.1189  0.9826
   39MOL0     H 5210   7.705   3.081   0.936  1.5047 -2.1064  0.8381
   39MOL0     H 5211   7.806   3.118   1.072  1.9665 -3.0264 -5.9432
   39MOL0     H 5212   7.511   3.072   1.075  0.3308  0.9308 -0.2124
   39MOL0     H 5213   7.608   3.112   1.220 -0.1036  0.8345 -0.1772
   39MOL0     H 5214   7.546   2.862   1.181  0.1952 -0.9142 -0.7041
   39MOL0     H 5215   7.625   2.854   1.038  3.2495 -2.5685  0.4936
   39MOL0     H 5216   7.918   2.885   1.063 -0.4993 -1.3398 -0.2924
   39MOL0     H 5217   8.136   2.855   1.178  2.8739  0.2736  1.8639
   39MOL0     H 5218   8.153   2.818   1.354  2.6602  1.7803 -1.5038
   39MOL0     H 5219   8.139   2.588   1.318 -1.0387 -1.3354 -1.2785
   39MOL0     H 5220   8.075   2.610   1.143 -1.6385  3.3765  0.8944
   39MOL0     H 5221   8.363   2.679   1.238  0.6484  0.6436 -1.5565
   39MOL0     H 5222   8.310   2.661   1.073  2.9019  0.5647 -0.1400
   39MOL0     H 5223   8.237   2.425   1.123 -1.0073  2.6835 -0.4662
   39MOL0     H 5224   8.339   2.436   1.271 -1.7136 -1.8523 -0.2477
   39MOL0     H 5225   8.630   2.477   0.927 -1.3820  1.0988 -0.0187
   39MOL0     H 5226   8.831   2.583   0.958  0.7671  1.7802  0.7095
   39MOL0     H 5227   9.036   2.647   1.550 -0.2431 -0.3638 -0.6152
   39MOL0     H 5228   9.251   2.685   1.677  0.7870  0.0721  0.1028
   39MOL0     H 5229   9.565   2.746   1.397 -1.4581 -1.9513  1.4546
   39MOL0     H 5230   9.599   2.915   1.459 -1.3100  0.7889  2.5282
   39MOL0     H 5231   9.684   2.643   1.576 -2.3566 -0.7105 -3.0735
   39MOL0     H 5232   9.790   2.747   1.488 -1.7997  0.1893 -1.5701
   39MOL0     H 5233   9.821   2.886   1.672 -0.2005  0.2138  0.1955
   39MOL0     H 5234   9.664   2.838   1.751  0.1559 -1.5937  2.0541
   39MOL0     H 5235   9.929   2.689   1.686  2.4089  2.2667  1.3298
   39MOL0     H 5236   9.794   2.601   1.761 -1.0355  0.4633 -0.6076
   39MOL0     H 5237   9.800   2.741   1.962 -0.2192  1.1917 -0.0466
   39MOL0     H 5238   9.921   2.842   1.902  0.5508 -0.9580 -2.4641
   39MOL0     H 5239   9.956   2.547   1.931  1.3101 -0.5752  0.9568
   39MOL0     H 5240  10.080   2.648   1.868  0.9581 -1.3452  2.5038
   39MOL0     H 5241  10.125   2.759   2.077 -1.2782  1.0717 -0.9910
   39MOL0     H 5242  10.108   2.589   2.104 -1.0036 -0.5380 -2.7689
   39MOL0     H 5243   9.899   2.801   2.197 -1.1779  0.1203 -6.5091
   39MOL0     H 5244   9.872   2.626   2.203 -1.4362  1.3130 -1.1054
   39MOL0     H 5245   9.403   2.891   1.341  1.0042 -2.7083  0.2608
   39MOL0     H 5246   9.195   2.867   1.225  2.2828  1.2264  1.3100
   39MOL0     H 5247   8.770   2.612   1.380  1.9029  0.8447 -1.0164
   39MOL0     H 5248   8.538   2.530   1.340  2.4927 -1.5999  1.4637
   39MOL0     H 5249   7.470   3.923   1.068  0.9904  3.0462  1.8797
   39MOL0     H 5250   7.363   4.127   0.999 -1.7874 -0.6843 -0.0118
   39MOL0     H 5251   7.243   4.355   0.608  3.6091 -0.4498 -1.7803
   39MOL0     H 5252   7.133   4.493   0.460 -0.7152 -0.2208  0.1066
   39MOL0     H 5253   7.330   4.893   0.365  0.3838 -0.6228 -1.3029
   39MOL0     H 5254   7.187   4.952   0.465 -2.8689  2.6409 -2.9876
   39MOL0     H 5255   7.047   4.955   0.266 -0.8335 -0.5922 -0.6638
   39MOL0     H 5256   7.169   4.863   0.182 -1.7616 -1.9701  2.0326
   39MOL0     H 5257   7.151   5.076   0.104  0.4521  2.2015 -0.0474
   39MOL0     H 5258   7.312   5.054   0.178  0.0847 -2.8252 -1.7194
   39MOL0     H 5259   7.162   5.282   0.213  3.3750  2.6853  1.5219
   39MOL0     H 5260   7.080   5.185   0.344 -0.2608 -3.3769 -1.0380
   39MOL0     H 5261   7.474   5.254   0.496 -0.9606 -1.9024  0.3078
   39MOL0     H 5262   7.400   4.807   0.541 -0.2561 -0.1656 -3.0552
   39MOL0     H 5263   7.637   4.640   0.770 -1.2353 -0.2619  0.7669
   39MOL0     H 5264   7.616   4.759   0.634 -1.0266  1.4453  0.1903
   39MOL0     H 5265   7.544   4.779   0.790  2.3445  2.2722 -1.9275
   40MOL0     O 5266   1.211   0.196   0.071  0.5623 -0.0312 -0.7417
   40MOL0     C 5267   1.192   0.302   0.130 -0.5939  0.1922  0.1980
   40MOL0     O 5268   1.269   0.415   0.116 -0.1295 -0.2798  0.0238
   40MOL0     C 5269   1.351   0.422   0.006 -0.0802 -0.6645 -0.3474
   40MOL0     C 5270   1.305   0.481  -0.115 -0.5548  1.1216  0.1132
   40MOL0     C 5271   1.379   0.460  -0.235 -0.6053 -0.3046 -0.7145
   40MOL0     C 5272   1.506   0.405  -0.235  0.6320  0.4729 -0.7075
   40MOL0     O 5273   1.567   0.376  -0.353  0.1724  0.0107 -0.0690
   40MOL0     C 5274   1.666   0.469  -0.405 -0.5740 -0.7018  0.6173
   40MOL0     C 5275   1.810   0.463  -0.341  0.1854  0.5636  0.1410
   40MOL0     C 5276   1.859   0.317  -0.349 -0.3503 -0.0696 -1.0266
   40MOL0     C 5277   2.015   0.302  -0.384  0.7721 -0.1051  0.0064
   40MOL0     C 5278   2.101   0.376  -0.296 -0.2039 -0.2776  0.5509
   40MOL0     C 5279   2.249   0.375  -0.340 -0.4238  0.7216  0.6203
   40MOL0     C 5280   2.332   0.440  -0.236  0.7866  1.0932 -0.2264
   40MOL0     C 5281   2.486   0.431  -0.266  0.4598 -0.5006  0.1572
   40MOL0     N 5282   2.521   0.474  -0.405  0.4132  0.5394  0.7233
   40MOL0     C 5283   2.503   0.599  -0.457 -0.2155  0.3388 -0.4117
   40MOL0     C 5284   2.563   0.592  -0.577 -0.9241  0.9432 -0.0354
   40MOL0     C 5285   2.573   0.699  -0.675 -0.0219 -0.4262  0.7155
   40MOL0     C 5286   2.670   0.816  -0.639  1.2077  0.1487 -0.1061
   40MOL0     C 5287   2.811   0.759  -0.612  0.7328  0.1121  0.2251
   40MOL0     C 5288   2.928   0.856  -0.621  1.1453 -0.6513 -0.1303
   40MOL0     O 5289   2.901   0.973  -0.539  0.6022  0.4460  0.4542
   40MOL0     C 5290   2.986   1.073  -0.528  0.2903  0.2203 -0.0079
   40MOL0     C 5291   3.122   1.063  -0.563  0.6056 -0.5623  0.1546
   40MOL0     C 5292   3.203   1.176  -0.557  0.2688  0.3837  0.7947
   40MOL0     C 5293   3.151   1.292  -0.504 -1.6564  0.7536  0.7939
   40MOL0     C 5294   3.244   1.403  -0.472 -0.3086  0.3981 -0.8343
   40MOL0     O 5295   3.194   1.521  -0.421  0.9083 -0.2012 -0.8268
   40MOL0     C 5296   3.273   1.631  -0.407 -0.1940  0.0519 -0.7111
   40MOL0     C 5297   3.219   1.754  -0.458  0.1928 -1.2128  0.3516
   40MOL0     C 5298   3.296   1.876  -0.465 -0.1622  0.6215  0.0049
   40MOL0     C 5299   3.428   1.874  -0.408  0.1750  0.2128 -1.2110
   40MOL0     O 5300   3.497   1.997  -0.407  0.0577 -0.5031 -0.1585
   40MOL0     C 5301   3.565   2.021  -0.537  0.1181 -0.3728  0.4360
   40MOL0     C 5302   3.702   1.945  -0.551  0.1254 -0.1682  0.1331
   40MOL0     C 5303   3.807   1.980  -0.441  0.1024 -0.4889 -0.1584
   40MOL0     C 5304   3.829   2.127  -0.436 -0.5003 -0.6752  0.1999
   40MOL0     C 5305   3.960   2.157  -0.361 -0.9662 -0.5574  0.8194
   40MOL0     C 5306   3.972   2.304  -0.317 -0.6801 -1.4161  0.2722
   40MOL0     C 5307   4.125   2.305  -0.278  0.5890 -0.8895  0.3140
   40MOL0     C 5308   4.164   2.439  -0.202 -0.1120 -0.1909  0.6303
   40MOL0    Cl 5309   4.331   2.422  -0.139 -0.5871 -0.2227  0.5700
   40MOL0     C 5310   3.486   1.762  -0.360 -0.6330 -0.4265  0.1717
   40MOL0     C 5311   3.404   1.637  -0.354 -0.3854  0.4280  0.2051
   40MOL0     O 5312   3.365   1.379  -0.495 -0.1511  1.3690  0.4275
   40MOL0     C 5313   3.014   1.296  -0.463 -0.6361  0.4593  0.2335
   40MOL0     C 5314   2.933   1.188  -0.476 -0.4913 -0.1038 -0.5982
   40MOL0     N 5315   2.617   0.466  -0.597  0.1504 -0.5790 -0.9147
   40MOL0     N 5316   2.595   0.388  -0.488  0.1868 -0.7084 -0.0945
   40MOL0     C 5317   1.550   0.353  -0.111 -0.7778 -0.0983  0.0127
   40MOL0     C 5318   1.479   0.361   0.009  0.3673 -0.2320  0.3112
   40MOL0     C 5319   1.076   0.330   0.223 -0.2249  0.0723 -0.4419
   40MOL0     C 5320   1.020   0.458   0.236 -0.5242 -0.1293  0.5186
   40MOL0     C 5321   0.908   0.477   0.305  0.8294 -0.1585  0.0648
   40MOL0     C 5322   0.847   0.374   0.378 -0.3302 -0.5140 -1.1057
   40MOL0     O 5323   0.742   0.398   0.449  0.4759  0.4367 -0.0420
   40MOL0     C 5324   0.620   0.333   0.407 -0.5873 -0.7903  0.3525
   40MOL0     C 5325   0.500   0.337   0.497 -0.1343 -0.3340  0.7606
   40MOL0     C 5326   0.387   0.253   0.445 -0.0930  0.9879  0.0828
   40MOL0     C 5327   0.290   0.232   0.559 -0.3347  0.5514 -0.7774
   40MOL0     C 5328   0.178   0.156   0.515  0.1493 -0.0646  0.6284
   40MOL0     C 5329   0.070   0.100   0.491  0.1664 -0.1629 -0.8795
   40MOL0     C 5330   0.911   0.254   0.392  0.7714  0.4052  0.2649
   40MOL0     C 5331   1.018   0.222   0.296  0.6605  0.1714 -0.9006
   40MOL0     C 5332   1.070   0.081   0.292 -0.5424 -0.6570 -0.0634
   40MOL0     H 5333   1.212   0.537  -0.122 -1.0491  0.6786  2.3605
   40MOL0     H 5334   1.343   0.476  -0.336  1.3078  1.4999 -1.1768
   40MOL0     H 5335   1.674   0.440  -0.510  2.1632 -2.0388  1.1182
   40MOL0     H 5336   1.647   0.577  -0.398  2.4550 -0.1130  1.0985
   40MOL0     H 5337   1.814   0.494  -0.236 -2.0259  1.0971  0.1107
   40MOL0     H 5338   1.878   0.529  -0.396 -0.0229  0.1953 -0.5688
   40MOL0     H 5339   1.808   0.254  -0.423  0.8776 -0.1069 -1.8761
   40MOL0     H 5340   1.838   0.280  -0.248  3.8637  1.9171  0.8338
   40MOL0     H 5341   2.037   0.195  -0.386 -0.7918 -0.4639 -2.9518
   40MOL0     H 5342   2.021   0.335  -0.488 -0.5806 -1.4420 -0.5413
   40MOL0     H 5343   2.081   0.483  -0.300 -0.4786 -0.3638 -0.4419
   40MOL0     H 5344   2.079   0.333  -0.197  0.5329  0.2892  0.9702
   40MOL0     H 5345   2.286   0.273  -0.358 -2.5087 -0.1083  0.7150
   40MOL0     H 5346   2.259   0.423  -0.438  2.5490  0.2964  0.6148
   40MOL0     H 5347   2.303   0.396  -0.140  0.1159 -0.6873 -1.1989
   40MOL0     H 5348   2.306   0.546  -0.232 -3.1993  0.2143  1.8994
   40MOL0     H 5349   2.541   0.491  -0.193 -0.4076 -1.4101  1.6156
   40MOL0     H 5350   2.527   0.330  -0.258 -2.9081 -1.9873  0.3216
   40MOL0     H 5351   2.452   0.684  -0.412 -3.6414 -1.9884  0.5522
   40MOL0     H 5352   2.609   0.656  -0.769  0.7298  0.9626  0.3419
   40MOL0     H 5353   2.473   0.736  -0.698  0.2091 -1.9099 -3.6234
   40MOL0     H 5354   2.669   0.892  -0.717  2.6784  1.8933  1.4992
   40MOL0     H 5355   2.627   0.871  -0.555  2.3153  2.5351 -1.0085
   40MOL0     H 5356   2.832   0.684  -0.689  1.7900  0.2168  0.3987
   40MOL0     H 5357   2.815   0.711  -0.514 -1.5906 -2.4449 -0.7885
   40MOL0     H 5358   2.924   0.887  -0.726 -1.1486  2.9971  0.8496
   40MOL0     H 5359   3.020   0.802  -0.595  1.8430  0.0982 -0.9520
   40MOL0     H 5360   3.160   0.970  -0.606  1.3009 -0.6603  0.9621
   40MOL0     H 5361   3.305   1.152  -0.587 -0.0337  0.5510 -0.3841
   40MOL0     H 5362   3.116   1.738  -0.489 -0.4436  1.9590  0.4710
   40MOL0     H 5363   3.247   1.965  -0.502 -0.6989 -0.1532 -1.2213
   40MOL0     H 5364   3.494   1.997  -0.617  0.8634 -1.2941  0.0383
   40MOL0     H 5365   3.582   2.127  -0.560 -1.7733 -0.6387 -2.9436
   40MOL0     H 5366   3.685   1.837  -0.549 -0.6127 -0.0784 -0.4947
   40MOL0     H 5367   3.730   1.969  -0.654 -1.4627  0.6152 -0.1570
   40MOL0     H 5368   3.761   1.940  -0.350  0.7141 -1.5717 -0.3021
   40MOL0     H 5369   3.901   1.929  -0.467  0.1768  0.3620 -1.6482
   40MOL0     H 5370   3.754   2.168  -0.368 -0.9882  0.1152 -0.7841
   40MOL0     H 5371   3.813   2.164  -0.538 -1.2332 -2.9766 -0.5927
   40MOL0     H 5372   4.048   2.137  -0.422  0.9276  2.7108  2.2172
   40MOL0     H 5373   3.963   2.094  -0.272 -1.8969  1.0918  2.0860
   40MOL0     H 5374   3.955   2.358  -0.411 -0.2993 -0.6654  0.6254
   40MOL0     H 5375   3.913   2.346  -0.235  0.1268  2.8974 -1.1311
   40MOL0     H 5376   4.198   2.291  -0.358 -0.5906  3.8943 -1.9352
   40MOL0     H 5377   4.145   2.229  -0.201  0.3450 -1.3156 -0.0364
   40MOL0     H 5378   4.158   2.522  -0.273 -1.9698 -0.6017  0.2495
   40MOL0     H 5379   4.092   2.456  -0.122 -0.4819  1.1861  0.0360
   40MOL0     H 5380   3.582   1.794  -0.322 -1.1727 -1.2748  2.4703
   40MOL0     H 5381   3.454   1.550  -0.311 -0.2424 -0.8251 -2.3218
   40MOL0     H 5382   2.981   1.390  -0.420  1.1785  2.2560 -2.0532
   40MOL0     H 5383   2.835   1.188  -0.429  0.4440  0.3137  1.4832
   40MOL0     H 5384   1.650   0.310  -0.108 -0.6685  0.1071 -0.5748
   40MOL0     H 5385   1.533   0.325   0.096  1.6332  4.2978  1.6926
   40MOL0     H 5386   1.064   0.525   0.163 -0.4948 -1.1252 -0.3972
   40MOL0     H 5387   0.868   0.577   0.321 -0.9848 -1.1071  2.1084
   40MOL0     H 5388   0.639   0.225   0.396  2.0738 -0.3363 -0.0817
   40MOL0     H 5389   0.606   0.379   0.309  1.3813  2.0527  1.2899
   40MOL0     H 5390   0.466   0.441   0.489 -0.8850 -0.5180  1.3805
   40MOL0     H 5391   0.531   0.322   0.601  1.2721  1.1058  0.5682
   40MOL0     H 5392   0.422   0.154   0.417  0.7266  1.3494 -0.1865
   40MOL0     H 5393   0.342   0.308   0.362 -0.4014 -1.0660 -1.1803
   40MOL0     H 5394   0.337   0.193   0.649  2.4311  3.8906 -0.5915
   40MOL0     H 5395   0.253   0.331   0.586 -1.5424 -0.0366 -0.2131
   40MOL0     H 5396  -0.031   0.066   0.480 -0.3553  0.0244  2.2313
   40MOL0     H 5397   0.877   0.176   0.459 -1.4034  1.6220  0.6971
   40MOL0     H 5398   1.026   0.016   0.368 -1.9541 -3.8056 -3.3012
   40MOL0     H 5399   1.046   0.025   0.201 -0.0793 -1.5285  0.3385
   40MOL0     H 5400   1.176   0.089   0.316  0.0657  2.2855 -2.9845
   41MOL0     O 5401   7.404   3.004   3.318 -0.0113 -0.2746 -0.3991
   41MOL0     C 5402   7.381   3.119   3.302  0.0188 -1.0798 -0.0763
   41MOL0     O 5403   7.260   3.187   3.304  0.3594  0.5148 -0.6584
   41MOL0     C 5404   7.138   3.129   3.329 -0.5672 -0.4267 -0.7578
   41MOL0     C 5405   7.098   2.995   3.309  0.2568  0.6543  0.5390
   41MOL0     C 5406   6.969   2.961   3.357 -0.2873  0.1739  0.5049
   41MOL0     C 5407   6.883   3.050   3.411  0.7160 -0.2264  0.1310
   41MOL0     O 5408   6.759   3.004   3.437  0.2764  0.4512  0.3348
   41MOL0     C 5409   6.714   3.052   3.562 -0.0529  0.4020  0.0993
   41MOL0     C 5410   6.627   2.949   3.629  0.2842  0.0892 -0.0950
   41MOL0     C 5411   6.681   2.807   3.616 -0.1423  0.5890 -0.2919
   41MOL0     C 5412   6.602   2.708   3.705  0.3007  0.2617  0.1591
   41MOL0     C 5413   6.669   2.578   3.753  0.0264  0.1063  0.0163
   41MOL0     C 5414   6.738   2.502   3.640 -0.0831 -0.6943  0.8733
   41MOL0     C 5415   6.638   2.413   3.566 -0.0760 -0.6147 -0.6128
   41MOL0     C 5416   6.686   2.368   3.431 -1.1494 -0.3529 -0.1728
   41MOL0     N 5417   6.587   2.291   3.351  0.4670  0.0508 -0.3337
   41MOL0     C 5418   6.529   2.175   3.414  1.0006  1.1216 -0.7363
   41MOL0     C 5419   6.493   2.082   3.319  0.4359 -0.5786 -0.9314
   41MOL0     C 5420   6.440   1.932   3.335  0.1037  0.0993 -0.2253
   41MOL0     C 5421   6.308   1.901   3.265 -0.6280  0.0123  0.2981
   41MOL0     C 5422   6.327   1.875   3.106 -0.4471  0.0249  0.6928
   41MOL0     C 5423   6.199   1.866   3.028  0.0608 -0.6755 -0.6246
   41MOL0     O 5424   6.237   1.829   2.895  0.0252 -0.2863  0.5917
   41MOL0     C 5425   6.148   1.843   2.793  0.2152 -0.2788  0.5021
   41MOL0     C 5426   6.217   1.838   2.670  0.5207 -0.9825 -0.5091
   41MOL0     C 5427   6.136   1.851   2.555 -0.3845 -0.0951  0.4385
   41MOL0     C 5428   5.988   1.833   2.564 -0.0808  0.3494  0.5886
   41MOL0     C 5429   5.900   1.836   2.438  0.3477 -0.1720 -0.2206
   41MOL0     O 5430   5.965   1.835   2.321  0.6936 -0.4073 -0.1440
   41MOL0     C 5431   5.896   1.801   2.206 -0.1547  0.0812  0.2378
   41MOL0     C 5432   5.767   1.857   2.171  0.2793  0.4331 -0.1963
   41MOL0     C 5433   5.712   1.805   2.052  0.0752  0.2063  1.2782
   41MOL0     C 5434   5.774   1.704   1.976 -0.6833  0.6722 -0.9048
   41MOL0     O 5435   5.707   1.639   1.869 -0.6765 -0.6866 -0.0446
   41MOL0     C 5436   5.672   1.495   1.893 -0.3239 -0.7761 -0.3405
   41MOL0     C 5437   5.538   1.493   1.970 -1.1892 -0.5734 -1.0334
   41MOL0     C 5438   5.428   1.565   1.889 -0.5049  0.1719  0.0788
   41MOL0     C 5439   5.284   1.540   1.928  0.1449 -0.2240  0.4611
   41MOL0     C 5440   5.182   1.603   1.838 -0.0625  1.5689 -0.5491
   41MOL0     C 5441   5.040   1.561   1.879 -0.0112 -0.4901 -0.1741
   41MOL0     C 5442   4.927   1.612   1.785 -0.1205  0.4575  0.3811
   41MOL0     C 5443   4.788   1.554   1.811  0.2262  0.7125  0.8334
   41MOL0    Cl 5444   4.736   1.566   1.977 -0.5169 -0.3600 -0.4859
   41MOL0     C 5445   5.896   1.648   2.015 -0.0823 -0.1994 -0.1466
   41MOL0     C 5446   5.957   1.699   2.126 -0.1441 -0.1190 -0.9733
   41MOL0     O 5447   5.776   1.828   2.453  0.1051 -0.0153  0.8755
   41MOL0     C 5448   5.933   1.807   2.690 -0.0576 -0.4445  0.4388
   41MOL0     C 5449   6.001   1.832   2.802 -0.6170 -0.8078 -0.7433
   41MOL0     N 5450   6.515   2.155   3.198  0.8498 -0.4161  0.5585
   41MOL0     N 5451   6.593   2.256   3.221 -0.0001 -0.3114 -0.3720
   41MOL0     C 5452   6.921   3.179   3.439 -0.2179 -0.1449 -0.1040
   41MOL0     C 5453   7.051   3.220   3.395 -0.4490 -0.3901 -0.4885
   41MOL0     C 5454   7.496   3.215   3.295 -0.2622 -0.3977 -0.2347
   41MOL0     C 5455   7.474   3.357   3.318 -0.3328  1.3221 -0.3358
   41MOL0     C 5456   7.573   3.456   3.305  1.0609 -0.3221  0.7163
   41MOL0     C 5457   7.704   3.416   3.286  0.3059  0.0851 -0.4377
   41MOL0     O 5458   7.802   3.515   3.283  0.2861  0.0021  0.1207
   41MOL0     C 5459   7.938   3.461   3.269  0.6192 -0.2019  0.4777
   41MOL0     C 5460   8.045   3.572   3.254 -0.1518 -0.5933 -0.8448
   41MOL0     C 5461   8.026   3.660   3.134 -0.3196 -0.1659  0.7257
   41MOL0     C 5462   8.129   3.781   3.151  0.6097 -0.1301 -0.1186
   41MOL0     C 5463   8.110   3.877   3.046 -0.1380  1.1079  0.7167
   41MOL0     C 5464   8.096   3.946   2.944 -0.0005 -0.4114 -0.3306
   41MOL0     C 5465   7.735   3.283   3.265 -0.1230  0.4924  0.4789
   41MOL0     C 5466   7.630   3.187   3.265 -1.0926  0.7672 -0.4329
   41MOL0     C 5467   7.681   3.044   3.222  1.2116 -0.3080 -0.7402
   41MOL0     H 5468   7.161   2.931   3.247 -0.0044  2.3677 -1.6077
   41MOL0     H 5469   6.940   2.857   3.350  0.1211  0.0971 -0.0676
   41MOL0     H 5470   6.798   3.071   3.630  1.5726  0.3147 -1.8216
   41MOL0     H 5471   6.667   3.148   3.539 -0.3473 -0.5581 -3.9787
   41MOL0     H 5472   6.537   2.954   3.567  1.5398 -1.0311 -2.1163
   41MOL0     H 5473   6.606   2.987   3.729 -1.5420  3.9751 -1.7476
   41MOL0     H 5474   6.789   2.807   3.630  0.0126  2.0841 -1.3060
   41MOL0     H 5475   6.680   2.781   3.510 -0.8917 -0.0296 -0.1448
   41MOL0     H 5476   6.575   2.756   3.799 -4.0992 -0.6911 -0.4033
   41MOL0     H 5477   6.515   2.682   3.644  1.3246 -1.7840 -0.5011
   41MOL0     H 5478   6.751   2.594   3.824 -0.2791  3.2416 -0.1956
   41MOL0     H 5479   6.603   2.511   3.809  1.6160 -2.2612 -0.8235
   41MOL0     H 5480   6.775   2.580   3.572 -1.8180 -0.8672 -0.3244
   41MOL0     H 5481   6.818   2.438   3.678  0.3671 -1.2875 -0.9889
   41MOL0     H 5482   6.547   2.470   3.549 -0.1169  1.3684  4.6097
   41MOL0     H 5483   6.611   2.325   3.625  0.3402 -0.0708  0.4262
   41MOL0     H 5484   6.699   2.458   3.371 -2.3189  2.4114  3.3853
   41MOL0     H 5485   6.780   2.312   3.433 -1.2871 -0.7084 -1.7663
   41MOL0     H 5486   6.531   2.150   3.520  2.0804 -1.3530 -1.2696
   41MOL0     H 5487   6.520   1.866   3.299 -0.4542 -0.8753  0.2856
   41MOL0     H 5488   6.421   1.919   3.442 -1.0038  0.4107 -0.3668
   41MOL0     H 5489   6.268   1.811   3.311  2.0002 -0.1858  2.4401
   41MOL0     H 5490   6.236   1.979   3.291  1.6016  2.4709 -0.3966
   41MOL0     H 5491   6.373   1.776   3.093  1.4345  1.0372 -0.8048
   41MOL0     H 5492   6.388   1.953   3.059  1.8853 -0.5855  2.5316
   41MOL0     H 5493   6.135   1.955   3.027 -0.5788 -1.1227 -1.7779
   41MOL0     H 5494   6.141   1.784   3.071  0.1526 -2.0946 -3.0453
   41MOL0     H 5495   6.325   1.836   2.679  0.5277 -2.0714 -0.6783
   41MOL0     H 5496   6.195   1.876   2.467  1.4757  0.4643  1.7855
   41MOL0     H 5497   5.709   1.931   2.226  0.1321 -0.4901  0.9375
   41MOL0     H 5498   5.617   1.842   2.013 -0.5519 -1.3065  1.2940
   41MOL0     H 5499   5.655   1.448   1.795 -3.5149 -0.7435  0.1091
   41MOL0     H 5500   5.749   1.442   1.950 -1.1237 -0.3159  1.2228
   41MOL0     H 5501   5.509   1.388   1.983  2.2434 -1.6555 -1.2329
   41MOL0     H 5502   5.549   1.532   2.071 -1.5206 -1.6020 -0.5914
   41MOL0     H 5503   5.442   1.673   1.889 -1.8626  0.4304 -2.3899
   41MOL0     H 5504   5.455   1.538   1.787  1.0464 -1.9220  0.9709
   41MOL0     H 5505   5.276   1.604   2.016 -1.1663  1.3775 -0.7499
   41MOL0     H 5506   5.265   1.434   1.945  0.2680 -0.9383 -2.9832
   41MOL0     H 5507   5.208   1.579   1.735 -1.4345  0.0378 -0.5727
   41MOL0     H 5508   5.185   1.712   1.846  0.1129  1.5228  0.0979
   41MOL0     H 5509   5.033   1.452   1.867 -0.9307 -0.4879  0.2172
   41MOL0     H 5510   5.018   1.597   1.980  0.6482 -1.9366  0.5270
   41MOL0     H 5511   4.960   1.583   1.685  0.9133 -0.0936  0.8561
   41MOL0     H 5512   4.922   1.720   1.798 -1.7214  0.2066  2.4007
   41MOL0     H 5513   4.715   1.609   1.749  0.7503  1.6967  1.0590
   41MOL0     H 5514   4.780   1.449   1.784  1.3875  0.8060  0.0674
   41MOL0     H 5515   5.951   1.579   1.952  1.3148  2.8331 -2.5274
   41MOL0     H 5516   6.052   1.663   2.165 -0.1391  0.6429 -0.2575
   41MOL0     H 5517   5.825   1.805   2.697 -0.2559  1.1856 -1.2759
   41MOL0     H 5518   5.953   1.838   2.899 -1.0218  2.5763 -1.0330
   41MOL0     H 5519   6.860   3.254   3.488 -2.0809  1.1931 -4.0740
   41MOL0     H 5520   7.073   3.326   3.401 -0.7541 -0.4173  2.6687
   41MOL0     H 5521   7.379   3.400   3.348 -0.0373  1.3797  0.5433
   41MOL0     H 5522   7.545   3.560   3.319 -1.4475 -1.0124  1.3568
   41MOL0     H 5523   7.949   3.392   3.185 -1.0099  1.0707 -0.8402
   41MOL0     H 5524   7.959   3.398   3.356 -0.8215 -0.0335  0.9600
   41MOL0     H 5525   8.147   3.532   3.247  0.5140  0.6737  0.9334
   41MOL0     H 5526   8.038   3.635   3.343  0.4634  1.2766 -2.0636
   41MOL0     H 5527   7.920   3.688   3.135  0.0306  1.6063 -1.7869
   41MOL0     H 5528   8.037   3.603   3.041 -4.5831 -0.1766  0.0346
   41MOL0     H 5529   8.115   3.838   3.244 -0.8974  0.0186 -0.4155
   41MOL0     H 5530   8.227   3.735   3.136  0.6940  0.9356 -3.7342
   41MOL0     H 5531   8.079   4.014   2.863 -0.1108  1.4858  1.2153
   41MOL0     H 5532   7.838   3.248   3.260 -0.1186  0.4813  0.6381
   41MOL0     H 5533   7.687   2.985   3.314  1.2026 -1.5402 -1.5097
   41MOL0     H 5534   7.620   2.993   3.147 -1.8348  0.7330  0.8819
   41MOL0     H 5535   7.785   3.052   3.190  1.8060  0.1676  1.1834
   42MOL0     O 5536   4.052  11.368   1.672  0.5884 -0.5731  0.3183
   42MOL0     C 5537   4.093  11.432   1.578  0.3787  0.1313 -1.1355
   42MOL0     O 5538   4.226  11.473   1.576  1.0503 -0.1392  0.6591
   42MOL0     C 5539   4.316  11.407   1.655 -0.9050 -0.9925 -1.3324
   42MOL0     C 5540   4.393  11.311   1.590 -0.9554  0.0147 -0.1367
   42MOL0     C 5541   4.479  11.234   1.671 -0.2805 -0.1227  0.7190
   42MOL0     C 5542   4.504  11.269   1.808  0.0500  0.4967  0.3197
   42MOL0     O 5543   4.582  11.194   1.896  0.2647  0.1255  0.5170
   42MOL0     C 5544   4.667  11.094   1.845  0.2778 -0.8590  0.4647
   42MOL0     C 5545   4.759  11.067   1.967 -0.4415  0.5600 -0.7056
   42MOL0     C 5546   4.835  10.931   1.968  1.0816  0.1715 -0.3802
   42MOL0     C 5547   4.892  10.913   2.111 -0.0690  0.6071  0.6302
   42MOL0     C 5548   4.977  10.787   2.130 -0.7736  0.3049 -0.8231
   42MOL0     C 5549   5.111  10.789   2.044 -0.4744 -0.0837  0.1604
   42MOL0     C 5550   5.194  10.667   2.093 -0.3415  0.3604 -0.3680
   42MOL0     C 5551   5.259  10.686   2.222  0.7273 -0.3286  0.6184
   42MOL0     N 5552   5.378  10.602   2.232 -0.1317 -0.4405  0.1457
   42MOL0     C 5553   5.384  10.480   2.297  0.5643  0.4823 -0.3273
   42MOL0     C 5554   5.501  10.428   2.259  0.0148  0.7956  0.8258
   42MOL0     C 5555   5.558  10.296   2.314 -0.3792 -0.4915 -0.4961
   42MOL0     C 5556   5.518  10.186   2.215  0.0843 -0.3130 -0.4116
   42MOL0     C 5557   5.621  10.068   2.199  1.0413 -0.1610 -0.5000
   42MOL0     C 5558   5.646   9.981   2.324  1.1253  0.3216 -0.8295
   42MOL0     O 5559   5.716  10.050   2.418 -0.4634 -0.3999  0.2681
   42MOL0     C 5560   5.795   9.968   2.500  0.2169  0.1169 -0.5518
   42MOL0     C 5561   5.743   9.857   2.570 -0.4722 -0.1252 -0.7913
   42MOL0     C 5562   5.828   9.781   2.655 -0.3566  0.7026 -0.1591
   42MOL0     C 5563   5.966   9.804   2.665 -0.0160  0.5605 -0.0809
   42MOL0     C 5564   6.047   9.718   2.759  0.0685  0.3645  0.5552
   42MOL0     O 5565   6.184   9.749   2.762  0.2123 -0.2485  0.6630
   42MOL0     C 5566   6.254   9.681   2.858  0.5518  0.4805 -0.0035
   42MOL0     C 5567   6.307   9.555   2.832  0.0447  0.4001  0.6999
   42MOL0     C 5568   6.386   9.487   2.925  0.0107  0.4545  1.0152
   42MOL0     C 5569   6.415   9.537   3.045  0.0673 -0.6630 -0.4763
   42MOL0     O 5570   6.491   9.469   3.129 -0.1977  0.8904 -0.4524
   42MOL0     C 5571   6.631   9.504   3.125  0.1506  0.1343 -0.4412
   42MOL0     C 5572   6.723   9.372   3.130  0.4129 -0.3072  0.8210
   42MOL0     C 5573   6.863   9.408   3.172  0.1569 -0.1038  0.8139
   42MOL0     C 5574   6.864   9.397   3.331 -0.2671  0.3280  0.6386
   42MOL0     C 5575   6.999   9.445   3.365 -1.1157  0.5118 -0.1561
   42MOL0     C 5576   7.106   9.342   3.338  0.3536  0.3021  0.7273
   42MOL0     C 5577   7.241   9.381   3.396  0.5722 -0.1047 -0.3013
   42MOL0     C 5578   7.306   9.511   3.336  0.1202 -0.1271  0.5315
   42MOL0    Cl 5579   7.272   9.513   3.157 -0.0348  0.3813 -0.0140
   42MOL0     C 5580   6.369   9.666   3.076  0.0185 -0.9203 -0.1518
   42MOL0     C 5581   6.292   9.736   2.978 -0.1532 -0.5091 -0.3619
   42MOL0     O 5582   5.991   9.626   2.812  0.6739 -0.0133  0.0742
   42MOL0     C 5583   6.014   9.911   2.594  0.2039  0.5391 -0.4534
   42MOL0     C 5584   5.931   9.988   2.516 -0.0694  0.8814  0.4643
   42MOL0     N 5585   5.565  10.507   2.167  0.6766 -0.2312 -0.0478
   42MOL0     N 5586   5.490  10.614   2.152  0.6822  0.3777 -0.3851
   42MOL0     C 5587   4.428  11.375   1.863  0.7289 -1.8131 -0.0454
   42MOL0     C 5588   4.336  11.448   1.787 -0.0792  0.4142  0.5523
   42MOL0     C 5589   4.011  11.495   1.480 -1.3093 -0.0375  0.7591
   42MOL0     C 5590   4.072  11.532   1.348 -0.8473  0.4511 -0.7304
   42MOL0     C 5591   4.002  11.586   1.241  0.5513 -0.1578  0.0029
   42MOL0     C 5592   3.861  11.592   1.259  0.6894  0.3986  0.2872
   42MOL0     O 5593   3.782  11.638   1.149 -0.1301  0.3998 -0.6901
   42MOL0     C 5594   3.797  11.574   1.024 -0.0703 -0.1431 -0.2619
   42MOL0     C 5595   3.810  11.689   0.920  0.0388 -1.3376  0.5767
   42MOL0     C 5596   3.832  11.640   0.775 -0.0511  0.3207 -0.0542
   42MOL0     C 5597   3.955  11.556   0.739 -0.1666 -0.1919 -0.3186
   42MOL0     C 5598   4.065  11.586   0.828 -0.2815  0.0323 -0.3307
   42MOL0     C 5599   4.166  11.597   0.898 -0.2013  0.0911 -0.1354
   42MOL0     C 5600   3.799  11.558   1.377 -0.4981 -0.1035  0.1202
   42MOL0     C 5601   3.871  11.507   1.486 -0.7795 -0.7971 -0.7371
   42MOL0     C 5602   3.792  11.468   1.610  0.4486  0.5609  0.4876
   42MOL0     H 5603   4.377  11.281   1.487 -0.4894 -1.3505  0.1762
   42MOL0     H 5604   4.526  11.145   1.630 -1.8419 -0.0625 -1.3746
   42MOL0     H 5605   4.609  11.003   1.825  0.9240 -0.9944 -0.9349
   42MOL0     H 5606   4.720  11.125   1.754 -2.1194  2.4390  0.0273
   42MOL0     H 5607   4.698  11.076   2.057 -0.5509  3.3491 -0.9757
   42MOL0     H 5608   4.828  11.151   1.977  0.3745 -0.3834  3.5266
   42MOL0     H 5609   4.907  10.926   1.886 -1.3436  2.0836 -2.8355
   42MOL0     H 5610   4.766  10.848   1.950 -1.1066  1.5013  1.3717
   42MOL0     H 5611   4.949  11.005   2.129 -1.9654  1.6413  1.7036
   42MOL0     H 5612   4.817  10.910   2.190  1.8435 -0.0273  2.5276
   42MOL0     H 5613   4.982  10.787   2.240 -2.4620 -1.1328 -0.6952
   42MOL0     H 5614   4.919  10.698   2.105  0.7026 -0.7687 -0.5591
   42MOL0     H 5615   5.082  10.778   1.939 -1.6432  1.6659  0.2595
   42MOL0     H 5616   5.169  10.881   2.057 -0.5518 -0.1754  1.2233
   42MOL0     H 5617   5.273  10.652   2.019  0.2047  1.3795 -0.0090
   42MOL0     H 5618   5.129  10.579   2.092  1.2290 -0.8609 -2.1265
   42MOL0     H 5619   5.292  10.791   2.229 -0.4167  0.0325  0.7428
   42MOL0     H 5620   5.194  10.672   2.309 -0.7931 -0.6091 -0.5278
   42MOL0     H 5621   5.312  10.437   2.365 -1.4644  2.2517 -1.2503
   42MOL0     H 5622   5.666  10.308   2.328 -0.9577  3.2364  2.1213
   42MOL0     H 5623   5.524  10.272   2.415 -1.6469 -1.5097 -1.1300
   42MOL0     H 5624   5.422  10.140   2.239 -0.0217 -0.9099 -1.8473
   42MOL0     H 5625   5.509  10.237   2.118 -0.6867  0.0834 -0.1411
   42MOL0     H 5626   5.715  10.113   2.166  0.2748  1.4915 -0.5154
   42MOL0     H 5627   5.577  10.001   2.125 -0.5990 -2.0892  2.0418
   42MOL0     H 5628   5.724   9.912   2.290  2.6459  2.2392 -1.4206
   42MOL0     H 5629   5.561   9.925   2.364  0.9021  1.8920  1.0481
   42MOL0     H 5630   5.637   9.835   2.564  0.4415 -6.2301 -1.6686
   42MOL0     H 5631   5.781   9.704   2.715 -1.9248  1.6267 -0.1545
   42MOL0     H 5632   6.284   9.508   2.736  0.4262  1.0480  0.2843
   42MOL0     H 5633   6.414   9.384   2.903 -1.0505  0.3512  0.0009
   42MOL0     H 5634   6.650   9.565   3.036  3.6715  1.0575  0.7820
   42MOL0     H 5635   6.646   9.570   3.211 -0.8565  0.9908 -0.9075
   42MOL0     H 5636   6.676   9.290   3.186  0.2038 -0.0132  1.0821
   42MOL0     H 5637   6.741   9.355   3.024 -1.6319 -0.0282  0.3861
   42MOL0     H 5638   6.932   9.333   3.132  0.4611  0.7454 -0.3067
   42MOL0     H 5639   6.891   9.509   3.142 -4.1832  1.1814  0.4016
   42MOL0     H 5640   6.855   9.297   3.376  2.5708  0.3071  1.3290
   42MOL0     H 5641   6.786   9.457   3.379 -1.9372 -0.7455 -0.6000
   42MOL0     H 5642   6.991   9.464   3.472 -2.6825  3.3926 -0.6846
   42MOL0     H 5643   7.038   9.536   3.318 -1.3897 -1.2326 -4.1921
   42MOL0     H 5644   7.074   9.244   3.377  0.4864 -0.4515 -0.9735
   42MOL0     H 5645   7.108   9.315   3.232  0.6065 -1.3974  1.1224
   42MOL0     H 5646   7.311   9.297   3.393  0.3635 -0.6941  4.0189
   42MOL0     H 5647   7.222   9.410   3.500 -3.2617  0.7429 -1.1092
   42MOL0     H 5648   7.251   9.595   3.380 -4.5406 -1.7631 -1.5354
   42MOL0     H 5649   7.410   9.529   3.366 -0.1771  1.8087  0.5006
   42MOL0     H 5650   6.389   9.707   3.175  0.0825 -2.7212  0.6199
   42MOL0     H 5651   6.266   9.841   2.993  1.7592 -0.1932  1.4332
   42MOL0     H 5652   6.117   9.942   2.610  0.1874 -0.6186  2.6717
   42MOL0     H 5653   5.977  10.073   2.466  1.3323  0.6128  1.2404
   42MOL0     H 5654   4.421  11.394   1.970 -0.4249 -3.6593  0.2463
   42MOL0     H 5655   4.279  11.528   1.831 -1.3152 -0.5845  0.8316
   42MOL0     H 5656   4.179  11.531   1.331 -0.8365  3.2784 -1.3150
   42MOL0     H 5657   4.050  11.615   1.148  2.5876  0.9593  1.3424
   42MOL0     H 5658   3.697  11.529   1.016  0.8868 -2.3954 -0.2442
   42MOL0     H 5659   3.868  11.492   1.011  0.0866  0.0485 -0.6329
   42MOL0     H 5660   3.889  11.763   0.930 -3.3256  2.9179 -1.0601
   42MOL0     H 5661   3.716  11.745   0.926  0.2541 -0.8247 -0.5800
   42MOL0     H 5662   3.835  11.723   0.703  0.4744 -0.2186 -0.6766
   42MOL0     H 5663   3.741  11.586   0.747  0.1001 -0.4032  0.8069
   42MOL0     H 5664   3.928  11.453   0.766  0.5216 -0.2832  0.0482
   42MOL0     H 5665   3.973  11.573   0.633 -0.1204 -0.5737 -0.3731
   42MOL0     H 5666   4.260  11.597   0.948  0.9603 -0.8015 -2.2200
   42MOL0     H 5667   3.692  11.573   1.373 -0.1827  2.6461 -4.1215
   42MOL0     H 5668   3.795  11.544   1.689 -0.2446  1.5780 -0.4394
   42MOL0     H 5669   3.687  11.466   1.578  1.1024  1.2322 -1.8538
   42MOL0     H 5670   3.826  11.369   1.639  1.2851  0.7011  0.0117
   43MOL0     O 5671   6.207   6.903   2.569  0.1403 -0.1415 -0.0266
   43MOL0     C 5672   6.130   6.918   2.662 -0.8920 -0.7063  0.2315
   43MOL0     O 5673   6.158   6.992   2.769  0.2546 -1.0342  0.1883
   43MOL0     C 5674   6.286   7.033   2.789 -0.1924  0.2340  0.1633
   43MOL0     C 5675   6.384   6.945   2.821 -0.3479  0.0641 -0.2548
   43MOL0     C 5676   6.519   6.981   2.850  0.2374 -0.1496 -0.9316
   43MOL0     C 5677   6.548   7.118   2.837 -0.6049  0.1165  0.1625
   43MOL0     O 5678   6.680   7.167   2.850  0.6733  0.5111  0.1063
   43MOL0     C 5679   6.765   7.126   2.745  0.3615  0.1274 -1.3522
   43MOL0     C 5680   6.901   7.183   2.759  0.1107 -0.2598  0.0648
   43MOL0     C 5681   6.971   7.137   2.633 -0.5340 -0.5893  0.1096
   43MOL0     C 5682   7.117   7.190   2.648 -0.2235 -0.2021  0.2913
   43MOL0     C 5683   7.210   7.131   2.541  0.7238  1.0042  0.0924
   43MOL0     C 5684   7.156   7.155   2.403 -0.4852  0.8567  0.4309
   43MOL0     C 5685   7.247   7.104   2.297 -0.0667  0.2458 -0.0201
   43MOL0     C 5686   7.360   7.212   2.259 -0.2792  0.0019  0.4120
   43MOL0     N 5687   7.484   7.137   2.209  0.2323 -0.0645 -0.6779
   43MOL0     C 5688   7.578   7.202   2.144  0.5771 -0.9541 -0.0952
   43MOL0     C 5689   7.690   7.132   2.151  0.7648  0.5315  0.4497
   43MOL0     C 5690   7.824   7.187   2.104 -0.7793 -0.5090 -0.3218
   43MOL0     C 5691   7.946   7.105   2.144 -0.2877 -0.4395  0.4500
   43MOL0     C 5692   8.076   7.156   2.074  0.9221 -0.8307  0.3996
   43MOL0     C 5693   8.193   7.054   2.083 -0.2000 -0.0420  1.1056
   43MOL0     O 5694   8.242   7.043   2.216  0.0355 -0.1821 -0.6006
   43MOL0     C 5695   8.363   6.992   2.241  1.3114  0.7463 -0.5506
   43MOL0     C 5696   8.457   7.065   2.320 -0.0180 -0.1662 -0.4856
   43MOL0     C 5697   8.593   7.030   2.318  0.6607 -0.6622  0.1543
   43MOL0     C 5698   8.640   6.923   2.246 -0.2273  0.4257 -0.3411
   43MOL0     C 5699   8.782   6.875   2.263 -0.1682 -0.1693 -0.3611
   43MOL0     O 5700   8.814   6.760   2.210 -0.0899  0.0911  0.5528
   43MOL0     C 5701   8.946   6.723   2.245 -0.4574 -0.4770  1.3357
   43MOL0     C 5702   9.050   6.777   2.160 -0.5443  0.9322 -0.3908
   43MOL0     C 5703   9.184   6.738   2.206 -0.4657 -2.1095  0.2067
   43MOL0     C 5704   9.216   6.666   2.321  0.1469  0.1528  0.4179
   43MOL0     O 5705   9.341   6.623   2.358 -0.3498  0.4771  1.2800
   43MOL0     C 5706   9.445   6.685   2.283 -0.1967  0.3159 -0.1378
   43MOL0     C 5707   9.584   6.652   2.342 -0.7138  0.9452 -0.0190
   43MOL0     C 5708   9.623   6.507   2.308  0.3141  0.0483  0.2349
   43MOL0     C 5709   9.775   6.491   2.296 -0.4755 -0.5963 -0.0524
   43MOL0     C 5710   9.846   6.538   2.426  0.5798  0.3455 -0.3797
   43MOL0     C 5711   9.790   6.459   2.552 -0.3251  0.2561 -0.7745
   43MOL0     C 5712   9.864   6.505   2.677  0.1517 -0.0551 -0.5330
   43MOL0     C 5713   9.780   6.464   2.804  0.1147  0.1179  0.4122
   43MOL0    Cl 5714   9.783   6.291   2.814  0.4254  0.3092 -0.3101
   43MOL0     C 5715   9.113   6.610   2.383  0.6313  0.6821 -0.4226
   43MOL0     C 5716   8.986   6.642   2.355  0.1723 -0.0467 -0.0462
   43MOL0     O 5717   8.855   6.945   2.335  0.0688 -0.8508  0.1365
   43MOL0     C 5718   8.542   6.841   2.183 -1.3298  0.6928  0.0765
   43MOL0     C 5719   8.412   6.881   2.174  0.1796 -0.1348  1.2343
   43MOL0     N 5720   7.665   7.021   2.222 -0.5001  0.4372 -0.2271
   43MOL0     N 5721   7.542   7.030   2.264 -0.1165 -0.5483 -0.5584
   43MOL0     C 5722   6.445   7.209   2.806 -0.4622  0.4219  0.0403
   43MOL0     C 5723   6.316   7.170   2.787  0.0089  0.4825  0.7066
   43MOL0     C 5724   6.003   6.850   2.646  0.0911  0.3019 -0.3668
   43MOL0     C 5725   5.938   6.853   2.528  0.6423  0.3199 -0.2249
   43MOL0     C 5726   5.812   6.804   2.511  0.5577 -0.1497 -0.2479
   43MOL0     C 5727   5.745   6.738   2.607 -0.0002  0.3420  0.6000
   43MOL0     O 5728   5.629   6.659   2.589 -0.7661  0.0961 -0.5155
   43MOL0     C 5729   5.531   6.737   2.529 -0.7055 -0.6402 -0.2369
   43MOL0     C 5730   5.438   6.638   2.459  0.7696 -0.1493  0.8372
   43MOL0     C 5731   5.297   6.684   2.433  0.4542 -0.5867 -0.7984
   43MOL0     C 5732   5.261   6.722   2.296 -0.2696 -0.4129  0.6022
   43MOL0     C 5733   5.313   6.846   2.254 -0.4154 -0.7595  0.0946
   43MOL0     C 5734   5.362   6.938   2.197  0.7857 -1.4953  0.0732
   43MOL0     C 5735   5.807   6.723   2.732 -0.0054 -0.2462 -0.5128
   43MOL0     C 5736   5.936   6.778   2.756 -0.7452 -0.0995  0.2372
   43MOL0     C 5737   6.005   6.773   2.888 -0.5997 -0.0653  0.4277
   43MOL0     H 5738   6.359   6.841   2.839 -0.3308  0.1182  0.1076
   43MOL0     H 5739   6.581   6.904   2.895 -1.4834 -0.4782  1.0432
   43MOL0     H 5740   6.776   7.018   2.761 -0.7602  0.4871  3.4750
   43MOL0     H 5741   6.716   7.156   2.652  0.5634 -0.5012 -1.6674
   43MOL0     H 5742   6.960   7.152   2.846  0.6016  0.8158  0.1323
   43MOL0     H 5743   6.892   7.292   2.763 -1.5678 -0.3998  1.0261
   43MOL0     H 5744   6.932   7.183   2.542  0.2951  0.0251  0.0521
   43MOL0     H 5745   6.976   7.028   2.630  0.8629 -0.5318 -2.2628
   43MOL0     H 5746   7.122   7.299   2.652  1.0260 -0.1821 -0.9727
   43MOL0     H 5747   7.154   7.161   2.747 -0.1179  2.2912  1.0437
   43MOL0     H 5748   7.313   7.165   2.551  1.1861 -0.0811 -0.7872
   43MOL0     H 5749   7.209   7.022   2.554  0.8954  0.8223 -1.2882
   43MOL0     H 5750   7.073   7.085   2.394  0.5194 -0.2399 -0.7560
   43MOL0     H 5751   7.122   7.256   2.377  0.5928  0.8901 -0.9771
   43MOL0     H 5752   7.180   7.086   2.212 -2.5278  0.8811  1.6649
   43MOL0     H 5753   7.273   7.005   2.337  0.2184  0.2320 -0.2363
   43MOL0     H 5754   7.337   7.286   2.183 -0.4607  0.0210  0.4845
   43MOL0     H 5755   7.392   7.265   2.349  1.4870 -0.6588  0.2114
   43MOL0     H 5756   7.564   7.298   2.094  0.8939 -2.0360 -2.3839
   43MOL0     H 5757   7.818   7.184   1.994 -0.6105  2.0711 -0.4718
   43MOL0     H 5758   7.834   7.291   2.138 -3.9583  0.2274 -1.2346
   43MOL0     H 5759   7.954   7.101   2.253  1.4675  1.8094  0.4700
   43MOL0     H 5760   7.933   7.006   2.098  0.7205  0.7631 -2.6184
   43MOL0     H 5761   8.106   7.256   2.108 -0.2860  0.0991 -1.1624
   43MOL0     H 5762   8.058   7.162   1.967  2.2486 -1.1387  0.1410
   43MOL0     H 5763   8.270   7.085   2.011 -1.1867 -0.0219  0.0356
   43MOL0     H 5764   8.161   6.954   2.051 -1.6141  0.5468  0.6034
   43MOL0     H 5765   8.431   7.150   2.381  0.0053 -0.2513 -0.3575
   43MOL0     H 5766   8.663   7.084   2.381  1.5287 -0.2742 -1.0892
   43MOL0     H 5767   9.041   6.840   2.072  2.3538 -1.2166 -2.4138
   43MOL0     H 5768   9.273   6.782   2.162 -0.7048  0.7760  2.2930
   43MOL0     H 5769   9.438   6.652   2.179 -1.7564 -2.2012  0.6909
   43MOL0     H 5770   9.436   6.794   2.294  1.3819  0.5034 -0.5519
   43MOL0     H 5771   9.658   6.717   2.294  1.1952 -0.3839  0.9501
   43MOL0     H 5772   9.574   6.673   2.449  0.2050 -1.8488  0.6867
   43MOL0     H 5773   9.596   6.445   2.394  2.9491 -1.2474  0.2205
   43MOL0     H 5774   9.569   6.479   2.217 -0.9462  3.2469 -0.1361
   43MOL0     H 5775   9.798   6.549   2.206 -2.4723  1.4416  0.6502
   43MOL0     H 5776   9.793   6.384   2.279 -1.4757 -0.6306 -0.9374
   43MOL0     H 5777   9.834   6.646   2.443  2.1611  0.7668 -1.6745
   43MOL0     H 5778   9.952   6.513   2.418  1.3294  1.8463  2.9000
   43MOL0     H 5779   9.683   6.454   2.577  0.4572 -2.3181  3.0427
   43MOL0     H 5780   9.816   6.356   2.526 -0.8420 -0.4492  1.2558
   43MOL0     H 5781   9.879   6.614   2.680 -1.6847  0.2492  2.8487
   43MOL0     H 5782   9.965   6.462   2.678 -0.1984 -0.8876 -0.3764
   43MOL0     H 5783   9.822   6.499   2.899 -1.4469 -4.2375  2.9944
   43MOL0     H 5784   9.686   6.521   2.804  2.2235  4.0101 -1.9547
   43MOL0     H 5785   9.130   6.551   2.472 -0.3480  2.3417  0.9288
   43MOL0     H 5786   8.913   6.601   2.424 -0.6323 -0.1012 -0.9199
   43MOL0     H 5787   8.577   6.758   2.122 -0.9757  1.1382 -0.3362
   43MOL0     H 5788   8.349   6.835   2.099  1.7730  0.0481 -0.2839
   43MOL0     H 5789   6.470   7.311   2.780  0.1653  0.4807  0.8338
   43MOL0     H 5790   6.243   7.244   2.757  0.7701  0.4229 -1.3977
   43MOL0     H 5791   5.973   6.918   2.448 -2.0743  1.0422 -0.9702
   43MOL0     H 5792   5.767   6.821   2.414  0.4196 -0.1000 -0.1763
   43MOL0     H 5793   5.560   6.818   2.462 -2.7845 -0.6260 -1.2202
   43MOL0     H 5794   5.476   6.793   2.606 -0.7376 -0.3363 -0.4759
   43MOL0     H 5795   5.437   6.552   2.526  1.4033 -0.2232  0.7549
   43MOL0     H 5796   5.489   6.620   2.364  0.1684 -2.5283  0.9232
   43MOL0     H 5797   5.270   6.760   2.507 -1.1045  0.8641 -2.7629
   43MOL0     H 5798   5.239   6.601   2.475  0.2740  0.6334  1.5885
   43MOL0     H 5799   5.301   6.641   2.233  3.1853 -0.7757  2.9301
   43MOL0     H 5800   5.152   6.721   2.294 -0.3197  1.7940  0.3157
   43MOL0     H 5801   5.398   7.021   2.138  1.1882 -0.1907  2.0544
   43MOL0     H 5802   5.753   6.667   2.807 -0.5313 -1.4467 -1.7631
   43MOL0     H 5803   6.025   6.876   2.918  3.5167 -0.5410 -0.0439
   43MOL0     H 5804   5.949   6.717   2.963 -1.4764  0.2825  0.0421
   43MOL0     H 5805   6.105   6.733   2.867  0.1290  2.0355 -0.3672
   44MOL0     O 5806   5.913   5.472   5.051  0.0549  0.8199 -0.6291
   44MOL0     C 5807   5.983   5.531   5.138 -0.7684 -0.0488  0.6380
   44MOL0     O 5808   6.099   5.471   5.185  0.4318 -0.1741  0.0138
   44MOL0     C 5809   6.182   5.415   5.087 -0.2971 -0.1911  0.3388
   44MOL0     C 5810   6.198   5.273   5.083 -0.7353  1.0073  0.0507
   44MOL0     C 5811   6.281   5.218   4.984 -0.5346  0.1344  0.3152
   44MOL0     C 5812   6.344   5.308   4.885 -0.8158 -0.0269  0.2294
   44MOL0     O 5813   6.429   5.249   4.790  0.2462  0.4077 -0.2124
   44MOL0     C 5814   6.539   5.323   4.730 -0.0364 -0.1605 -0.9585
   44MOL0     C 5815   6.584   5.231   4.611 -0.1330 -0.0062  0.0251
   44MOL0     C 5816   6.677   5.291   4.507  0.7417  0.7239  0.4165
   44MOL0     C 5817   6.802   5.327   4.581 -0.8678 -1.2680  0.0886
   44MOL0     C 5818   6.916   5.401   4.491  0.1701 -0.1176 -0.7119
   44MOL0     C 5819   7.038   5.429   4.576  0.1219  0.8153  0.4284
   44MOL0     C 5820   7.148   5.511   4.519  0.7767  0.6795 -0.2653
   44MOL0     C 5821   7.237   5.443   4.417  1.0169 -0.0970  0.6558
   44MOL0     N 5822   7.290   5.316   4.454 -0.2835 -0.6618 -0.6167
   44MOL0     C 5823   7.413   5.298   4.525 -0.8129  0.4868  0.9989
   44MOL0     C 5824   7.425   5.158   4.527  0.6584 -1.3889  0.7094
   44MOL0     C 5825   7.540   5.077   4.573  0.2844 -0.0993 -0.2239
   44MOL0     C 5826   7.538   5.049   4.729  0.4119  0.2502 -0.0357
   44MOL0     C 5827   7.659   4.961   4.762 -0.4389  0.4303  0.3859
   44MOL0     C 5828   7.644   4.806   4.715  0.7636 -0.2940 -0.0929
   44MOL0     O 5829   7.739   4.732   4.785  0.2546  0.3397 -0.4020
   44MOL0     C 5830   7.713   4.598   4.800 -0.3168  0.6542 -0.6219
   44MOL0     C 5831   7.651   4.524   4.710 -0.1508  1.0275 -0.3700
   44MOL0     C 5832   7.650   4.382   4.718 -0.7601  0.4026  0.8777
   44MOL0     C 5833   7.714   4.319   4.827  0.0772 -1.3492 -0.4289
   44MOL0     C 5834   7.718   4.177   4.846  0.1586  0.0394 -0.8278
   44MOL0     O 5835   7.696   4.102   4.735 -0.5607  0.8363  0.0687
   44MOL0     C 5836   7.669   3.969   4.738 -0.8636  0.6985 -0.8302
   44MOL0     C 5837   7.580   3.929   4.643  0.6628 -0.2768  0.0880
   44MOL0     C 5838   7.554   3.795   4.610  0.6882 -0.8551 -0.6779
   44MOL0     C 5839   7.627   3.699   4.687 -0.8572  0.2326 -0.0677
   44MOL0     O 5840   7.630   3.562   4.673 -0.3420  0.4226  0.5240
   44MOL0     C 5841   7.517   3.514   4.599 -0.4105 -0.7080  0.9132
   44MOL0     C 5842   7.517   3.361   4.578 -0.9799 -0.3489 -0.3003
   44MOL0     C 5843   7.385   3.302   4.526  0.7799  0.3782 -0.1253
   44MOL0     C 5844   7.372   3.154   4.572 -0.4420 -0.0021 -0.4990
   44MOL0     C 5845   7.476   3.066   4.503 -0.1880 -0.2381 -0.2839
   44MOL0     C 5846   7.441   2.921   4.499  0.0036  0.1901  0.3777
   44MOL0     C 5847   7.435   2.868   4.632 -0.6383 -0.2077  0.2673
   44MOL0     C 5848   7.442   2.722   4.657 -0.6528 -0.5952 -0.1906
   44MOL0    Cl 5849   7.289   2.633   4.617 -0.1829 -0.0994  0.1649
   44MOL0     C 5850   7.711   3.740   4.797 -0.0852 -0.2572  0.1917
   44MOL0     C 5851   7.730   3.878   4.820 -0.8839 -0.5944  0.4414
   44MOL0     O 5852   7.743   4.134   4.966 -0.2603 -0.2323  0.1258
   44MOL0     C 5853   7.784   4.398   4.923  0.4866  0.7146  0.5429
   44MOL0     C 5854   7.782   4.536   4.909  0.2681 -0.8098  0.1261
   44MOL0     N 5855   7.317   5.100   4.475  0.4553  0.5444  0.3234
   44MOL0     N 5856   7.240   5.192   4.430  0.1596  0.5833  0.5430
   44MOL0     C 5857   6.319   5.443   4.884  0.1058 -0.2987 -0.1044
   44MOL0     C 5858   6.234   5.499   4.980  0.3794 -0.3368  0.3075
   44MOL0     C 5859   5.943   5.660   5.205  0.3313 -0.6674 -0.6944
   44MOL0     C 5860   5.947   5.669   5.343 -0.9127 -0.4444  1.1305
   44MOL0     C 5861   5.895   5.775   5.410  0.2502  0.4756  0.1377
   44MOL0     C 5862   5.837   5.877   5.346  0.8666  0.0112  0.8591
   44MOL0     O 5863   5.776   5.987   5.401 -0.3073  0.0476 -0.0954
   44MOL0     C 5864   5.643   5.967   5.446 -0.2588 -1.1494 -0.1457
   44MOL0     C 5865   5.635   5.874   5.580  0.1864  0.6101 -1.4328
   44MOL0     C 5866   5.489   5.869   5.642  0.1356 -0.6547  0.1216
   44MOL0     C 5867   5.489   5.818   5.783 -0.4134  0.1796 -0.3372
   44MOL0     C 5868   5.527   5.672   5.781 -0.3551  0.0952 -0.3317
   44MOL0     C 5869   5.544   5.553   5.778  0.1932 -0.2640  1.0423
   44MOL0     C 5870   5.847   5.881   5.209  0.6402 -0.1101  0.5731
   44MOL0     C 5871   5.886   5.768   5.136 -0.4157 -0.3674 -0.2569
   44MOL0     C 5872   5.891   5.780   4.988  0.3108 -0.8398  0.6533
   44MOL0     H 5873   6.149   5.213   5.159  2.2425 -1.6430  0.0827
   44MOL0     H 5874   6.296   5.112   4.970 -2.4278  0.0112 -1.2285
   44MOL0     H 5875   6.520   5.426   4.697 -1.7793  0.2049  0.9384
   44MOL0     H 5876   6.609   5.332   4.814 -0.7621  2.0652 -0.5315
   44MOL0     H 5877   6.494   5.184   4.568 -0.4479  2.6962 -2.5981
   44MOL0     H 5878   6.632   5.150   4.666  2.6287  2.1227  0.9494
   44MOL0     H 5879   6.628   5.372   4.451 -1.2828 -0.9799 -0.4108
   44MOL0     H 5880   6.698   5.216   4.430 -0.7549  2.5772 -1.9386
   44MOL0     H 5881   6.785   5.398   4.663  1.4557  0.9432 -1.1994
   44MOL0     H 5882   6.845   5.236   4.623 -0.8578  0.0484  3.1930
   44MOL0     H 5883   6.940   5.348   4.399 -2.9852  1.3468 -2.5324
   44MOL0     H 5884   6.867   5.491   4.456  2.1409  0.2114 -2.8496
   44MOL0     H 5885   7.006   5.476   4.669 -0.8243 -2.8037  2.1432
   44MOL0     H 5886   7.085   5.333   4.600  2.7694  1.6210 -1.1769
   44MOL0     H 5887   7.225   5.509   4.597  0.9500 -2.3036 -0.3979
   44MOL0     H 5888   7.110   5.608   4.486 -1.6945 -0.4231 -0.8816
   44MOL0     H 5889   7.168   5.427   4.334  0.7524 -0.7086  0.9943
   44MOL0     H 5890   7.316   5.513   4.388  0.2943  0.3770 -0.2196
   44MOL0     H 5891   7.477   5.379   4.560 -0.6929  0.1716  1.5211
   44MOL0     H 5892   7.535   4.976   4.529  1.5944 -0.7313  0.9939
   44MOL0     H 5893   7.633   5.124   4.540  1.5559 -0.7806  2.1220
   44MOL0     H 5894   7.544   5.140   4.790 -0.6141 -0.2568  0.8402
   44MOL0     H 5895   7.445   4.997   4.752  1.2453 -1.1118  0.3323
   44MOL0     H 5896   7.676   4.973   4.870 -0.8994 -1.3796  0.6965
   44MOL0     H 5897   7.746   4.995   4.706  0.3540 -1.8895  0.1243
   44MOL0     H 5898   7.654   4.794   4.607 -1.0872 -0.6554 -0.2487
   44MOL0     H 5899   7.550   4.767   4.755 -0.1348  2.1878  0.4068
   44MOL0     H 5900   7.578   4.567   4.642 -3.6575 -1.9565  1.1126
   44MOL0     H 5901   7.584   4.327   4.651  3.5006 -1.8004 -1.9703
   44MOL0     H 5902   7.529   4.004   4.583 -0.5651 -0.0669  1.3411
   44MOL0     H 5903   7.494   3.768   4.523 -3.4391  1.2911  1.2076
   44MOL0     H 5904   7.421   3.560   4.624 -0.6242  0.0597 -1.0900
   44MOL0     H 5905   7.530   3.563   4.502 -0.0182  3.4406  2.8512
   44MOL0     H 5906   7.605   3.335   4.519 -1.4183 -2.3240 -0.1290
   44MOL0     H 5907   7.545   3.313   4.672 -0.3353 -2.3194 -1.4477
   44MOL0     H 5908   7.306   3.363   4.570 -0.6789 -0.8306 -0.9998
   44MOL0     H 5909   7.384   3.314   4.417  1.0457 -2.6566 -0.5689
   44MOL0     H 5910   7.272   3.116   4.546 -1.4355  0.1156  2.7025
   44MOL0     H 5911   7.382   3.157   4.681 -0.9480  1.6422 -0.4658
   44MOL0     H 5912   7.576   3.092   4.539 -0.3721 -0.0392  0.0915
   44MOL0     H 5913   7.469   3.101   4.399 -3.2993 -0.1664 -0.1481
   44MOL0     H 5914   7.348   2.917   4.442  0.3450 -1.1980 -0.1123
   44MOL0     H 5915   7.514   2.859   4.447  0.9319 -0.0139  1.8667
   44MOL0     H 5916   7.345   2.897   4.687 -1.3431  0.0897 -1.0092
   44MOL0     H 5917   7.524   2.901   4.685  0.2130 -2.7580  0.5783
   44MOL0     H 5918   7.517   2.668   4.598 -1.6427 -0.4076 -1.6545
   44MOL0     H 5919   7.467   2.712   4.764  0.1018  1.3921 -0.1378
   44MOL0     H 5920   7.765   3.675   4.864  0.4355 -0.8061 -0.7334
   44MOL0     H 5921   7.805   3.912   4.891 -2.4013 -1.6383  2.6584
   44MOL0     H 5922   7.834   4.349   5.006 -0.4845 -0.1147  0.6530
   44MOL0     H 5923   7.829   4.590   4.990  1.7386  0.4641 -1.5081
   44MOL0     H 5924   6.350   5.510   4.804 -0.3026  0.5116  0.4048
   44MOL0     H 5925   6.217   5.606   4.970 -2.1794 -0.5776  1.3441
   44MOL0     H 5926   5.991   5.590   5.403  1.2160 -1.6547 -1.7897
   44MOL0     H 5927   5.894   5.780   5.519 -0.1105  2.3923  0.0977
   44MOL0     H 5928   5.580   5.927   5.366 -0.0236 -0.8521 -0.4817
   44MOL0     H 5929   5.607   6.064   5.479  0.9365 -1.3343  1.8847
   44MOL0     H 5930   5.699   5.929   5.650  0.7336  0.8237 -2.0958
   44MOL0     H 5931   5.676   5.773   5.565  2.7510  1.5528 -1.1605
   44MOL0     H 5932   5.430   5.799   5.583  0.9357 -0.0009 -1.5289
   44MOL0     H 5933   5.443   5.968   5.631 -2.1751 -1.8906 -2.4703
   44MOL0     H 5934   5.564   5.868   5.845  0.0803 -2.4057  1.3129
   44MOL0     H 5935   5.392   5.825   5.833 -0.4427 -2.7974  0.2214
   44MOL0     H 5936   5.537   5.447   5.763 -2.9753  0.2743 -2.6055
   44MOL0     H 5937   5.814   5.970   5.157 -2.1366 -0.5254  1.4814
   44MOL0     H 5938   5.996   5.782   4.958  0.2193 -2.6842  0.0423
   44MOL0     H 5939   5.833   5.701   4.939  1.6765 -1.3224 -0.2355
   44MOL0     H 5940   5.847   5.876   4.960  0.8905 -0.0888  2.2090
   45MOL0     O 5941   6.043   9.555   4.967  0.5514 -0.0178  0.5116
   45MOL0     C 5942   6.020   9.461   5.042 -0.4887 -0.0332  0.1354
   45MOL0     O 5943   5.914   9.460   5.125  0.2650  0.0526  0.8030
   45MOL0     C 5944   5.824   9.568   5.136 -0.5163 -0.2872  0.3550
   45MOL0     C 5945   5.870   9.698   5.171  0.6481  0.8005  0.4200
   45MOL0     C 5946   5.786   9.799   5.201  0.2614 -0.3590 -0.4411
   45MOL0     C 5947   5.644   9.787   5.192 -0.0974 -0.2098 -0.2507
   45MOL0     O 5948   5.567   9.896   5.216  0.3836 -0.8295  0.0806
   45MOL0     C 5949   5.436   9.911   5.165 -0.1157  0.0655  0.1958
   45MOL0     C 5950   5.411  10.060   5.145  0.7106  0.5277 -0.4692
   45MOL0     C 5951   5.275  10.073   5.077 -0.3728  0.2118  0.4335
   45MOL0     C 5952   5.149  10.044   5.155  0.6093 -0.6695  0.4906
   45MOL0     C 5953   5.025  10.096   5.079  0.4419 -0.0746 -0.5171
   45MOL0     C 5954   5.018  10.243   5.093  0.4691  0.2135  0.2833
   45MOL0     C 5955   4.900  10.298   5.014 -0.4238 -0.4178  1.2106
   45MOL0     C 5956   4.892  10.448   5.026  0.8527 -0.0036 -0.2625
   45MOL0     N 5957   4.786  10.501   4.936 -0.3143 -0.5263 -1.0483
   45MOL0     C 5958   4.807  10.604   4.845 -0.0245 -0.1287  0.2681
   45MOL0     C 5959   4.685  10.628   4.792 -1.5131  0.8225 -0.1367
   45MOL0     C 5960   4.651  10.723   4.687  0.0591 -0.2717  0.6827
   45MOL0     C 5961   4.537  10.655   4.610  0.7934  0.2741  0.6962
   45MOL0     C 5962   4.514  10.735   4.478 -0.1896 -0.0817 -0.2449
   45MOL0     C 5963   4.372  10.718   4.430  0.2910 -0.5216 -0.1900
   45MOL0     O 5964   4.340  10.582   4.418  0.2406 -0.0452  0.0958
   45MOL0     C 5965   4.247  10.555   4.322  0.1600  0.9185  0.4486
   45MOL0     C 5966   4.107  10.537   4.346  0.6795 -0.0243 -0.4796
   45MOL0     C 5967   4.027  10.520   4.238 -0.2864 -0.8075  0.5425
   45MOL0     C 5968   4.068  10.520   4.104  0.0581  0.1229  0.1316
   45MOL0     C 5969   3.971  10.510   3.985 -0.3788  0.0259 -0.0063
   45MOL0     O 5970   3.844  10.482   4.009 -0.3120  0.4918  0.2889
   45MOL0     C 5971   3.760  10.483   3.902  0.4496  0.3885 -0.8181
   45MOL0     C 5972   3.734  10.355   3.837 -0.2644  0.3768  0.3614
   45MOL0     C 5973   3.644  10.357   3.727  0.6764 -0.3143 -0.2426
   45MOL0     C 5974   3.590  10.479   3.683 -0.6447  0.4121 -0.2411
   45MOL0     O 5975   3.500  10.495   3.582  0.0076 -0.0628  0.3163
   45MOL0     C 5976   3.395  10.408   3.588  0.2078  0.6411  0.3805
   45MOL0     C 5977   3.307  10.399   3.709 -0.8935  0.4437 -0.1522
   45MOL0     C 5978   3.226  10.527   3.733 -0.5920  0.4246  0.3636
   45MOL0     C 5979   3.289  10.650   3.778 -0.0967  0.9596  0.0495
   45MOL0     C 5980   3.189  10.754   3.823 -0.3381  1.2476  0.3705
   45MOL0     C 5981   3.218  10.895   3.764 -0.7427  0.1472 -0.0431
   45MOL0     C 5982   3.354  10.948   3.801  0.0798 -0.4649 -0.5761
   45MOL0     C 5983   3.358  11.015   3.946 -0.2321 -0.2993  0.4233
   45MOL0    Cl 5984   3.508  11.110   3.977 -0.0029 -0.1841 -0.3746
   45MOL0     C 5985   3.634  10.605   3.734 -0.8300  0.5297  0.0548
   45MOL0     C 5986   3.723  10.604   3.841 -0.4933 -0.1819 -0.0030
   45MOL0     O 5987   4.031  10.500   3.876  0.7036 -0.6393  0.3571
   45MOL0     C 5988   4.206  10.535   4.082  0.4546  0.7977  0.5785
   45MOL0     C 5989   4.296  10.536   4.188 -0.3069 -0.8057  0.8122
   45MOL0     N 5990   4.592  10.539   4.841  0.2208 -0.4605 -0.0098
   45MOL0     N 5991   4.658  10.463   4.923 -0.7170  0.2471  0.4715
   45MOL0     C 5992   5.596   9.656   5.158 -0.1966  0.0941 -0.3610
   45MOL0     C 5993   5.686   9.553   5.130  0.6600  0.4981 -0.2803
   45MOL0     C 5994   6.112   9.345   5.027  1.0370  0.5669  0.5980
   45MOL0     C 5995   6.078   9.235   5.101 -0.7899  0.7129 -0.7209
   45MOL0     C 5996   6.167   9.120   5.119  0.4176  0.0733  0.6997
   45MOL0     C 5997   6.287   9.124   5.049 -0.0593 -0.1151  0.6310
   45MOL0     O 5998   6.385   9.030   5.058  0.1289 -0.7291  0.3139
   45MOL0     C 5999   6.519   9.064   5.092 -0.1249 -0.2467  0.1346
   45MOL0     C 6000   6.544   9.120   5.228 -0.0075 -0.4906 -0.2796
   45MOL0     C 6001   6.460   9.058   5.349  0.1735 -0.2813  0.7437
   45MOL0     C 6002   6.542   9.078   5.480  0.5494 -0.5156  0.2199
   45MOL0     C 6003   6.628   8.972   5.516  0.3048 -0.0975  0.1901
   45MOL0     C 6004   6.706   8.896   5.561  0.6540  0.4585  0.7950
   45MOL0     C 6005   6.312   9.230   4.956  0.1107 -0.6496 -0.4902
   45MOL0     C 6006   6.228   9.340   4.945  0.1031 -0.4417  0.8890
   45MOL0     C 6007   6.285   9.457   4.865 -0.2741 -0.3393 -0.1117
   45MOL0     H 6008   5.977   9.705   5.187  0.6708 -1.2548  1.4926
   45MOL0     H 6009   5.824   9.898   5.223 -1.9039  0.4519 -0.1250
   45MOL0     H 6010   5.435   9.860   5.068  2.4088 -1.7900  1.0405
   45MOL0     H 6011   5.363   9.866   5.233  0.2708 -0.2980  0.3749
   45MOL0     H 6012   5.491  10.115   5.094 -0.0304  1.9205 -0.1711
   45MOL0     H 6013   5.398  10.122   5.234 -1.8211  0.7244 -0.9008
   45MOL0     H 6014   5.264  10.018   4.983 -2.7353  1.2155  0.0279
   45MOL0     H 6015   5.276  10.177   5.042 -2.6770  0.3805  0.6777
   45MOL0     H 6016   5.144   9.936   5.168 -0.6931 -0.6928 -0.0540
   45MOL0     H 6017   5.143  10.080   5.259 -2.4659 -1.6705  0.7424
   45MOL0     H 6018   5.037  10.073   4.973 -2.6798  4.4037 -2.1638
   45MOL0     H 6019   4.935  10.047   5.117  0.6834  0.9254  1.4895
   45MOL0     H 6020   5.007  10.270   5.198  1.9584 -0.8947  0.7515
   45MOL0     H 6021   5.105  10.290   5.045 -0.9342  0.3499 -2.3353
   45MOL0     H 6022   4.806  10.253   5.047 -1.2836 -1.2961 -2.1114
   45MOL0     H 6023   4.907  10.263   4.911 -0.9532  0.1652  0.9714
   45MOL0     H 6024   4.870  10.489   5.125  1.1606  1.8028 -0.9020
   45MOL0     H 6025   4.990  10.491   5.007  1.3665 -1.5908 -1.3787
   45MOL0     H 6026   4.900  10.656   4.823  0.4120 -0.7042  0.7349
   45MOL0     H 6027   4.616  10.819   4.726 -4.7005 -0.2360 -2.7881
   45MOL0     H 6028   4.732  10.747   4.616  0.5361 -3.3223  0.0738
   45MOL0     H 6029   4.543  10.552   4.574 -1.4401  0.4094 -0.1975
   45MOL0     H 6030   4.449  10.672   4.674 -0.7743  1.6150 -1.6745
   45MOL0     H 6031   4.582  10.697   4.401  1.6219 -1.0717  1.7308
   45MOL0     H 6032   4.530  10.841   4.497  2.7759 -0.6682  1.1428
   45MOL0     H 6033   4.365  10.773   4.335 -0.1193  0.6636  0.5065
   45MOL0     H 6034   4.302  10.759   4.504 -0.5951 -0.7842 -0.8601
   45MOL0     H 6035   4.070  10.522   4.447  1.3950  1.5395  0.0432
   45MOL0     H 6036   3.923  10.502   4.263 -0.4107 -0.4352  0.2978
   45MOL0     H 6037   3.766  10.259   3.876 -0.1299  1.3651  2.8467
   45MOL0     H 6038   3.605  10.263   3.689 -0.5706 -0.2880  0.9058
   45MOL0     H 6039   3.328  10.436   3.505 -2.8048  1.5614  2.9361
   45MOL0     H 6040   3.429  10.309   3.557 -3.0197  0.1255 -2.1605
   45MOL0     H 6041   3.229  10.324   3.693  0.1193 -0.1784 -2.6311
   45MOL0     H 6042   3.362  10.372   3.800  2.0271  0.9985 -1.6165
   45MOL0     H 6043   3.174  10.567   3.645  0.3034  1.2789  0.1959
   45MOL0     H 6044   3.144  10.492   3.796  0.9023 -0.8582  1.6809
   45MOL0     H 6045   3.330  10.682   3.682  0.3495  1.4757  0.4042
   45MOL0     H 6046   3.367  10.625   3.851  1.2115 -1.7211 -2.1196
   45MOL0     H 6047   3.179  10.760   3.931  2.1056  0.3601  0.7207
   45MOL0     H 6048   3.088  10.729   3.789  0.7472 -0.6539 -1.8076
   45MOL0     H 6049   3.213  10.896   3.654 -3.0199  0.9609  0.0152
   45MOL0     H 6050   3.132  10.952   3.801 -0.2630  0.0339  1.2830
   45MOL0     H 6051   3.383  11.023   3.726  0.9646 -0.8494 -0.6326
   45MOL0     H 6052   3.422  10.862   3.799  0.8811  0.1452 -0.1311
   45MOL0     H 6053   3.269  11.079   3.950 -1.8173 -2.4155  0.4615
   45MOL0     H 6054   3.338  10.941   4.023  2.7505  0.3982  2.0436
   45MOL0     H 6055   3.602  10.696   3.682 -0.4648 -0.1983 -1.4849
   45MOL0     H 6056   3.746  10.704   3.876  0.5377  0.5476 -2.5849
   45MOL0     H 6057   4.240  10.544   3.979  0.9967  1.7569  0.8310
   45MOL0     H 6058   4.403  10.533   4.172 -0.4080  1.0723 -0.5221
   45MOL0     H 6059   5.489   9.645   5.146 -0.2433  0.4020 -0.2491
   45MOL0     H 6060   5.649   9.454   5.104  0.3982  0.0510  1.6130
   45MOL0     H 6061   5.978   9.232   5.141 -0.3764  0.1397  0.3120
   45MOL0     H 6062   6.138   9.051   5.197 -2.7616  1.5222  0.9259
   45MOL0     H 6063   6.559   9.114   5.004  0.3292 -2.5783 -1.0509
   45MOL0     H 6064   6.575   8.970   5.099  0.3918  0.0607  0.1954
   45MOL0     H 6065   6.521   9.227   5.225  2.3204  0.0746 -3.8879
   45MOL0     H 6066   6.649   9.120   5.259  0.7930  0.2802 -2.7954
   45MOL0     H 6067   6.439   8.952   5.335  0.1845 -0.1896 -0.0080
   45MOL0     H 6068   6.367   9.116   5.350  0.0025 -0.5083  2.6161
   45MOL0     H 6069   6.600   9.171   5.485  2.6303 -1.8158  1.8605
   45MOL0     H 6070   6.471   9.087   5.562  0.7375  3.0542  0.1760
   45MOL0     H 6071   6.806   8.860   5.578  2.1084  3.8185  0.2574
   45MOL0     H 6072   6.398   9.238   4.891  1.9326 -2.3090  1.5514
   45MOL0     H 6073   6.380   9.432   4.816 -1.3731  0.7553 -3.0325
   45MOL0     H 6074   6.219   9.477   4.780 -1.3209  1.0781  0.9991
   45MOL0     H 6075   6.306   9.541   4.931  1.0739 -0.9567  0.2767
   46MOL0     O 6076  10.788   4.750   2.732  0.0738  0.4858 -0.2716
   46MOL0     C 6077  10.768   4.764   2.855 -0.5810 -0.1263  0.5390
   46MOL0     O 6078  10.858   4.777   2.950  0.4108  0.6337  0.3307
   46MOL0     C 6079  10.985   4.747   2.927  0.4763 -0.0962  0.0113
   46MOL0     C 6080  11.064   4.827   2.854 -0.5963  0.4535 -0.0114
   46MOL0     C 6081  11.205   4.807   2.847  0.7023  0.0271  0.3208
   46MOL0     C 6082  11.263   4.720   2.938 -0.5388 -0.5026 -0.5863
   46MOL0     O 6083  11.398   4.731   2.957 -0.4445  0.4526  0.3345
   46MOL0     C 6084  11.473   4.612   2.961  0.1450  0.4581 -0.3713
   46MOL0     C 6085  11.618   4.645   2.920  0.3800  0.3625 -0.6150
   46MOL0     C 6086  11.673   4.773   2.989 -0.4384 -0.1785 -0.0478
   46MOL0     C 6087  11.820   4.809   2.966  0.1555  0.2792 -0.5552
   46MOL0     C 6088  11.846   4.856   2.823 -0.6329 -0.2470  1.0274
   46MOL0     C 6089  11.793   4.990   2.771 -0.0263  0.8790 -0.0778
   46MOL0     C 6090  11.862   5.051   2.649 -0.1251 -0.1491 -0.3610
   46MOL0     C 6091  11.873   4.959   2.528  0.4558  0.6600 -0.2648
   46MOL0     N 6092  11.743   4.954   2.455 -0.2013 -0.1167 -0.2588
   46MOL0     C 6093  11.655   4.849   2.462 -0.4599  0.5197 -0.3156
   46MOL0     C 6094  11.547   4.890   2.398 -0.5264 -0.0727 -0.2452
   46MOL0     C 6095  11.434   4.794   2.362  0.2513  0.3715  0.1006
   46MOL0     C 6096  11.307   4.842   2.442 -0.2269  0.3163  0.2191
   46MOL0     C 6097  11.187   4.756   2.418 -0.5127 -0.4334 -0.0051
   46MOL0     C 6098  11.090   4.803   2.309  0.0299 -0.2282  0.1678
   46MOL0     O 6099  10.953   4.762   2.321  0.0536  0.1965  0.2023
   46MOL0     C 6100  10.916   4.625   2.320  0.2069  0.1504  0.6633
   46MOL0     C 6101  10.805   4.584   2.382  0.5386 -0.8084 -0.6298
   46MOL0     C 6102  10.768   4.447   2.373  0.5668 -0.0619 -0.1768
   46MOL0     C 6103  10.844   4.353   2.302 -0.9606  0.1997 -0.1212
   46MOL0     C 6104  10.802   4.207   2.297  0.7424  0.3325  0.5772
   46MOL0     O 6105  10.851   4.127   2.207  0.2968  0.3988  0.1687
   46MOL0     C 6106  10.807   3.999   2.203  0.0426 -0.0490  0.2514
   46MOL0     C 6107  10.734   3.960   2.086  0.7058 -0.3425 -0.4532
   46MOL0     C 6108  10.690   3.827   2.068 -0.1740 -0.4354 -0.0082
   46MOL0     C 6109  10.717   3.736   2.163  0.3382  0.7493 -0.2161
   46MOL0     O 6110  10.652   3.614   2.162  0.5217 -0.1222 -0.2077
   46MOL0     C 6111  10.757   3.521   2.145 -0.7837  0.4457  0.0231
   46MOL0     C 6112  10.708   3.381   2.141 -0.3114 -0.0473 -0.4198
   46MOL0     C 6113  10.833   3.289   2.143  1.1303  0.2543  0.0671
   46MOL0     C 6114  10.916   3.282   2.005  0.0443  0.2964  0.0568
   46MOL0     C 6115  11.035   3.176   2.013 -0.1755 -0.0920 -0.2600
   46MOL0     C 6116  11.107   3.143   1.890 -0.7040 -0.6202  1.4807
   46MOL0     C 6117  11.111   3.263   1.785 -0.0832 -0.3236 -0.2090
   46MOL0     C 6118  11.206   3.232   1.666 -0.0108  0.3246 -0.2069
   46MOL0    Cl 6119  11.139   3.101   1.568 -0.3469 -0.0874  0.0825
   46MOL0     C 6120  10.795   3.778   2.282  0.5724  0.1649  0.7343
   46MOL0     C 6121  10.855   3.901   2.293 -0.1886 -0.9701  0.5899
   46MOL0     O 6122  10.714   4.172   2.374  0.3584 -0.4480  0.2106
   46MOL0     C 6123  10.952   4.397   2.233 -0.7935 -0.2004  0.3229
   46MOL0     C 6124  10.992   4.530   2.247 -0.4010 -1.3972  0.0434
   46MOL0     N 6125  11.572   5.019   2.346 -0.4450 -0.3010  0.4450
   46MOL0     N 6126  11.703   5.047   2.363  0.4984  0.8953 -0.3583
   46MOL0     C 6127  11.184   4.643   3.027 -0.3569  0.2359 -0.0452
   46MOL0     C 6128  11.041   4.654   3.018  0.1094 -0.2434 -0.3606
   46MOL0     C 6129  10.628   4.752   2.904 -0.2401 -0.2842 -0.5325
   46MOL0     C 6130  10.595   4.825   3.016  0.1083 -0.7292 -0.2923
   46MOL0     C 6131  10.471   4.834   3.070 -0.3874 -0.3519 -0.4028
   46MOL0     C 6132  10.364   4.770   3.016  0.2519 -0.2814  0.5665
   46MOL0     O 6133  10.243   4.760   3.074 -0.4624  0.0370 -0.0580
   46MOL0     C 6134  10.131   4.707   3.004  0.3876  0.4138  0.0497
   46MOL0     C 6135  10.020   4.719   3.114  1.2039 -0.0003 -0.7658
   46MOL0     C 6136   9.899   4.647   3.071 -0.1347  0.2410 -0.0708
   46MOL0     C 6137   9.803   4.593   3.183 -0.6293 -0.6150 -0.2477
   46MOL0     C 6138   9.786   4.454   3.194 -0.6870  0.4216  0.9556
   46MOL0     C 6139   9.768   4.333   3.195  1.4227  0.6965  1.1255
   46MOL0     C 6140  10.393   4.695   2.901 -0.1307  0.0053  0.8503
   46MOL0     C 6141  10.523   4.688   2.837  0.1180  0.0053 -0.4871
   46MOL0     C 6142  10.531   4.607   2.711 -0.9412  0.2042 -0.5965
   46MOL0     H 6143  11.022   4.914   2.804 -3.2073  0.3345  1.7993
   46MOL0     H 6144  11.272   4.882   2.807  0.1092  0.4715  0.1335
   46MOL0     H 6145  11.451   4.568   3.058 -2.2660  0.5868 -0.8013
   46MOL0     H 6146  11.430   4.543   2.888 -1.6820  1.6450 -0.4957
   46MOL0     H 6147  11.616   4.672   2.814 -1.2613  4.3550  0.2466
   46MOL0     H 6148  11.685   4.561   2.943 -1.0551 -0.5787  0.2466
   46MOL0     H 6149  11.671   4.748   3.096 -1.4616 -2.3089 -0.5114
   46MOL0     H 6150  11.624   4.868   2.967 -1.1008 -0.8328 -1.5162
   46MOL0     H 6151  11.858   4.881   3.038 -1.2915 -0.3281  0.8827
   46MOL0     H 6152  11.866   4.711   2.981 -0.8149 -0.6477 -3.0971
   46MOL0     H 6153  11.954   4.869   2.810 -0.7490  1.0411  1.2391
   46MOL0     H 6154  11.821   4.780   2.749  1.1909 -1.5323  1.6421
   46MOL0     H 6155  11.686   4.972   2.753 -0.1694  0.9704  0.6516
   46MOL0     H 6156  11.786   5.066   2.850 -2.8236  0.9375 -0.2548
   46MOL0     H 6157  11.961   5.091   2.671 -0.2669  1.0534 -1.7536
   46MOL0     H 6158  11.806   5.141   2.623  1.9294  0.8747 -1.5319
   46MOL0     H 6159  11.947   4.981   2.451  0.3429  3.0198  0.2173
   46MOL0     H 6160  11.905   4.862   2.565  0.8604  0.6373 -0.6758
   46MOL0     H 6161  11.662   4.757   2.519  2.4681  0.1578 -1.0920
   46MOL0     H 6162  11.413   4.798   2.255 -2.6295  3.5090  0.6014
   46MOL0     H 6163  11.465   4.698   2.404  0.3912  0.5638  0.4379
   46MOL0     H 6164  11.333   4.843   2.548 -0.4493 -2.5375  0.3678
   46MOL0     H 6165  11.292   4.947   2.414  2.9348  1.2001  1.3803
   46MOL0     H 6166  11.133   4.774   2.512 -0.1360 -0.8663  0.3015
   46MOL0     H 6167  11.214   4.650   2.411  2.2930  0.2216 -0.2176
   46MOL0     H 6168  11.125   4.755   2.217  1.2046  0.0618  0.4353
   46MOL0     H 6169  11.090   4.912   2.295  1.3230 -0.4816 -2.3611
   46MOL0     H 6170  10.744   4.657   2.434  3.9947  0.9802  1.2999
   46MOL0     H 6171  10.668   4.426   2.407  0.3775  1.7788  0.5397
   46MOL0     H 6172  10.695   4.038   2.021 -1.2147  2.2517  3.3950
   46MOL0     H 6173  10.620   3.803   1.989 -2.5377  0.0529  1.8271
   46MOL0     H 6174  10.805   3.540   2.048  2.4764 -1.1878  1.1707
   46MOL0     H 6175  10.828   3.528   2.227 -1.9035 -3.9349  1.6161
   46MOL0     H 6176  10.633   3.362   2.218 -0.0375 -1.3634 -0.4617
   46MOL0     H 6177  10.665   3.383   2.041  1.6525  0.7900 -1.3042
   46MOL0     H 6178  10.897   3.328   2.223 -0.8655  3.3364  0.3156
   46MOL0     H 6179  10.796   3.190   2.172 -1.5120  1.3105  0.5737
   46MOL0     H 6180  10.964   3.380   1.997  2.1758 -0.7152 -0.2375
   46MOL0     H 6181  10.859   3.256   1.915  0.7085 -1.2043  0.0417
   46MOL0     H 6182  11.002   3.081   2.057  0.8455 -0.1988  0.2962
   46MOL0     H 6183  11.098   3.228   2.085  0.5677  1.6973 -2.1118
   46MOL0     H 6184  11.214   3.126   1.906  0.3274  2.9812 -0.5158
   46MOL0     H 6185  11.076   3.052   1.838  0.7073 -0.2603 -0.0485
   46MOL0     H 6186  11.144   3.350   1.841  0.0003  0.2161 -1.0771
   46MOL0     H 6187  11.012   3.278   1.740  0.4859  0.5644 -1.1861
   46MOL0     H 6188  11.198   3.316   1.596 -1.6266  0.1249 -0.3033
   46MOL0     H 6189  11.305   3.217   1.710  0.0461  0.6673 -0.2147
   46MOL0     H 6190  10.806   3.706   2.362 -2.8475  0.5640  1.6862
   46MOL0     H 6191  10.926   3.926   2.371 -1.1574 -1.2463  1.5867
   46MOL0     H 6192  11.017   4.327   2.181  0.8094 -0.2055  2.2094
   46MOL0     H 6193  11.080   4.529   2.183 -1.9213 -2.7423 -2.1595
   46MOL0     H 6194  11.228   4.582   3.106  1.4100  1.1492 -0.2555
   46MOL0     H 6195  10.988   4.603   3.098  1.9642 -1.0872  0.3939
   46MOL0     H 6196  10.667   4.888   3.067 -2.2111  0.7897  1.3124
   46MOL0     H 6197  10.458   4.872   3.170  2.1495  1.4280 -0.6589
   46MOL0     H 6198  10.148   4.602   2.976 -2.1916 -0.3297  0.9662
   46MOL0     H 6199  10.111   4.775   2.920 -2.2617 -0.5272 -0.2051
   46MOL0     H 6200   9.990   4.822   3.137 -0.0409 -0.9762  2.5901
   46MOL0     H 6201  10.059   4.668   3.202 -1.1374  0.2080  0.4632
   46MOL0     H 6202   9.932   4.557   3.018  0.1104  0.1703  0.1997
   46MOL0     H 6203   9.847   4.709   2.997  0.0336  1.3726  0.7370
   46MOL0     H 6204   9.836   4.612   3.286  0.0071 -1.1583 -0.3522
   46MOL0     H 6205   9.710   4.649   3.169 -0.3536  0.2506  1.1602
   46MOL0     H 6206   9.752   4.228   3.197  0.0881  0.8831  2.7418
   46MOL0     H 6207  10.315   4.624   2.872 -2.3652  1.9869  1.6649
   46MOL0     H 6208  10.576   4.510   2.734  2.6189  1.6791 -0.7318
   46MOL0     H 6209  10.432   4.612   2.665 -1.2299  1.4675  0.1181
   46MOL0     H 6210  10.598   4.640   2.631 -1.8770 -2.7669 -2.7639
   47MOL0     O 6211   0.284   4.447   5.902  0.9093 -0.2064 -0.1267
   47MOL0     C 6212   0.331   4.334   5.885 -0.6556  0.6096 -0.3739
   47MOL0     O 6213   0.437   4.307   5.801 -0.2003 -0.2048 -0.3568
   47MOL0     C 6214   0.481   4.412   5.718 -0.4756 -0.4206 -0.0573
   47MOL0     C 6215   0.588   4.487   5.763  0.0879  0.1446 -0.1262
   47MOL0     C 6216   0.653   4.585   5.678  0.2738  0.6646 -0.6463
   47MOL0     C 6217   0.605   4.598   5.550 -0.1507  0.4458 -0.1139
   47MOL0     O 6218   0.669   4.682   5.462  1.1837 -0.2293 -0.3416
   47MOL0     C 6219   0.592   4.751   5.366  0.7466  0.8262 -0.2249
   47MOL0     C 6220   0.692   4.813   5.272 -0.1999 -0.9026  0.4375
   47MOL0     C 6221   0.770   4.707   5.188  0.0807  0.5284  0.0442
   47MOL0     C 6222   0.886   4.795   5.126  0.9908  0.4889  0.2962
   47MOL0     C 6223   0.939   4.723   5.007 -0.0849  1.0130  0.2657
   47MOL0     C 6224   1.041   4.815   4.939  0.3750 -0.3729  0.4767
   47MOL0     C 6225   1.139   4.761   4.833 -0.2689  0.3002  0.3525
   47MOL0     C 6226   1.062   4.754   4.699  0.3902  0.7135 -0.3651
   47MOL0     N 6227   1.151   4.683   4.597  0.0752 -0.5839 -0.4667
   47MOL0     C 6228   1.261   4.734   4.540 -0.3802  0.3951 -0.2809
   47MOL0     C 6229   1.293   4.650   4.439  0.0732  0.9263  0.7024
   47MOL0     C 6230   1.407   4.659   4.340  0.2596  0.0137  0.1104
   47MOL0     C 6231   1.399   4.782   4.247 -0.2482  0.8687 -0.4216
   47MOL0     C 6232   1.492   4.781   4.134 -0.3095 -0.9440 -0.3602
   47MOL0     C 6233   1.640   4.786   4.179  0.9197 -0.2868 -0.0980
   47MOL0     O 6234   1.657   4.880   4.293 -0.5082 -0.5807  0.0477
   47MOL0     C 6235   1.777   4.907   4.344 -0.9350 -0.0308  0.1372
   47MOL0     C 6236   1.891   4.895   4.274 -0.8573  0.6764 -0.0648
   47MOL0     C 6237   2.016   4.929   4.328 -0.1130  0.6893  0.1130
   47MOL0     C 6238   2.022   4.999   4.447  0.1248 -0.0164  0.2793
   47MOL0     C 6239   2.150   5.035   4.516 -0.0818  0.3065  0.0332
   47MOL0     O 6240   2.262   4.990   4.452  0.3878 -0.5846  0.3734
   47MOL0     C 6241   2.385   4.989   4.506  0.2295 -1.3480 -0.3024
   47MOL0     C 6242   2.449   4.868   4.526 -0.9954 -0.0799  0.8958
   47MOL0     C 6243   2.573   4.870   4.588  0.1513  0.0949 -0.7689
   47MOL0     C 6244   2.624   4.992   4.647 -0.2986  0.0990  1.3426
   47MOL0     O 6245   2.736   4.997   4.727  0.2276  0.1505  0.2098
   47MOL0     C 6246   2.856   4.928   4.685  0.4866 -0.2029  0.8218
   47MOL0     C 6247   2.930   5.008   4.574 -0.5279 -0.1664 -0.0354
   47MOL0     C 6248   3.054   4.929   4.519  0.7545 -0.1277 -0.7816
   47MOL0     C 6249   3.079   4.957   4.371 -0.4898 -0.0707  0.0623
   47MOL0     C 6250   3.218   4.926   4.324 -0.3737  0.0735 -0.5256
   47MOL0     C 6251   3.234   4.965   4.176  0.2448  0.2916  0.9049
   47MOL0     C 6252   3.378   4.970   4.127 -0.0745 -0.1870 -0.2850
   47MOL0     C 6253   3.454   4.836   4.133 -1.1082  0.6648 -0.2981
   47MOL0    Cl 6254   3.375   4.698   4.046 -0.0216 -0.1564 -0.5277
   47MOL0     C 6255   2.556   5.108   4.625  0.8616 -0.0318 -0.1465
   47MOL0     C 6256   2.433   5.109   4.559  0.0380  0.1504  0.0096
   47MOL0     O 6257   2.153   5.095   4.625  0.1360  0.3890  1.1658
   47MOL0     C 6258   1.902   5.021   4.517  0.2286  0.1141 -0.8633
   47MOL0     C 6259   1.784   4.964   4.471 -0.5902  0.7049 -0.2175
   47MOL0     N 6260   1.209   4.538   4.449  0.0888 -0.4364  0.9112
   47MOL0     N 6261   1.129   4.556   4.550  0.8184 -0.1893 -0.8301
   47MOL0     C 6262   0.500   4.516   5.512 -0.3678  0.4431 -0.0234
   47MOL0     C 6263   0.435   4.420   5.597 -0.5833 -0.3937  0.3563
   47MOL0     C 6264   0.285   4.230   5.982 -0.5951  0.3666 -0.4980
   47MOL0     C 6265   0.376   4.158   6.058 -0.2587  0.7325  0.4298
   47MOL0     C 6266   0.332   4.065   6.154 -0.3154  0.0855  0.7772
   47MOL0     C 6267   0.194   4.033   6.175 -0.5857 -0.7451  0.4003
   47MOL0     O 6268   0.174   3.934   6.274 -0.2557 -0.4016 -0.0704
   47MOL0     C 6269   0.034   3.918   6.310  0.4411  0.3333  0.2529
   47MOL0     C 6270   0.022   3.781   6.369  0.3739  0.2658  0.6571
   47MOL0     C 6271   0.002   3.671   6.257  0.2804  0.6240 -0.8146
   47MOL0     C 6272   0.022   3.524   6.318  0.1587  0.0677 -0.5489
   47MOL0     C 6273   0.029   3.431   6.203  0.1240 -0.1793 -0.6204
   47MOL0     C 6274   0.048   3.361   6.110  0.1167 -0.4949 -1.4517
   47MOL0     C 6275   0.102   4.121   6.109 -0.1942  0.3489 -0.6397
   47MOL0     C 6276   0.147   4.210   6.010 -0.8855  0.9115 -0.5432
   47MOL0     C 6277   0.041   4.288   5.934  0.3520 -0.4493  0.0401
   47MOL0     H 6278   0.626   4.463   5.862 -1.3749  0.7805  0.6285
   47MOL0     H 6279   0.748   4.627   5.709  1.0500  0.7358 -2.9558
   47MOL0     H 6280   0.535   4.682   5.303 -2.5694 -0.3552  3.6226
   47MOL0     H 6281   0.523   4.827   5.403 -0.3769  0.3900 -1.3378
   47MOL0     H 6282   0.771   4.866   5.327  0.3377 -1.7451  0.4841
   47MOL0     H 6283   0.638   4.880   5.204  1.1549 -0.3660 -0.1350
   47MOL0     H 6284   0.695   4.659   5.124 -1.1532 -3.0888  3.7193
   47MOL0     H 6285   0.807   4.625   5.251 -0.7296 -1.3751 -1.8064
   47MOL0     H 6286   0.837   4.889   5.101 -2.0772 -1.0446  0.0001
   47MOL0     H 6287   0.958   4.813   5.205  1.5741 -0.5684  0.0194
   47MOL0     H 6288   0.998   4.638   5.041  0.9027  1.8930  0.8235
   47MOL0     H 6289   0.859   4.692   4.939 -1.0171 -0.5115  1.9911
   47MOL0     H 6290   0.981   4.898   4.899  0.2798 -0.1477  1.0719
   47MOL0     H 6291   1.103   4.853   5.022  3.0566 -2.4755 -0.4125
   47MOL0     H 6292   1.178   4.660   4.845  2.1827  0.3474 -4.5510
   47MOL0     H 6293   1.218   4.837   4.837 -1.6091  1.6993  1.1953
   47MOL0     H 6294   0.987   4.676   4.715 -0.6276  2.1848  2.8305
   47MOL0     H 6295   1.008   4.842   4.665  0.8346  2.1912  2.4625
   47MOL0     H 6296   1.299   4.831   4.569 -3.2329  1.0763  1.5032
   47MOL0     H 6297   1.503   4.667   4.392 -0.5478  0.0416  1.6659
   47MOL0     H 6298   1.404   4.565   4.284 -1.5653 -0.0308  0.2139
   47MOL0     H 6299   1.301   4.781   4.197  0.2737 -2.5248 -1.6754
   47MOL0     H 6300   1.393   4.866   4.316 -3.1482 -2.4307  3.8403
   47MOL0     H 6301   1.466   4.866   4.070 -1.9526 -1.9774 -1.1223
   47MOL0     H 6302   1.482   4.693   4.070  3.0211 -0.5199 -1.7062
   47MOL0     H 6303   1.707   4.813   4.096  3.0204 -1.6545  1.0710
   47MOL0     H 6304   1.681   4.687   4.201  0.3078 -0.6821 -0.6603
   47MOL0     H 6305   1.884   4.846   4.178 -0.6060  2.1107 -0.8450
   47MOL0     H 6306   2.095   4.890   4.264  0.8717 -1.3384  2.4288
   47MOL0     H 6307   2.397   4.778   4.493 -0.2208 -0.2118  0.0144
   47MOL0     H 6308   2.624   4.775   4.598 -1.0544 -0.4186  1.0353
   47MOL0     H 6309   2.912   4.919   4.778  1.1814  0.8226  0.5213
   47MOL0     H 6310   2.848   4.825   4.647  0.3540  0.1631 -0.1684
   47MOL0     H 6311   2.859   5.020   4.492  1.4205 -0.6794 -1.8787
   47MOL0     H 6312   2.947   5.114   4.595 -1.2519  0.4003 -2.0938
   47MOL0     H 6313   3.143   4.957   4.576 -0.1343 -0.0299  0.6066
   47MOL0     H 6314   3.040   4.821   4.528 -3.7355  0.3875  0.9304
   47MOL0     H 6315   3.061   5.062   4.348  1.9117  0.0360 -1.7778
   47MOL0     H 6316   3.008   4.903   4.307 -0.2173  0.3080 -0.5706
   47MOL0     H 6317   3.243   4.819   4.321 -2.5834 -0.4771 -1.0856
   47MOL0     H 6318   3.297   4.984   4.372  1.6176 -3.3907  0.7892
   47MOL0     H 6319   3.176   4.889   4.124 -1.4674  0.1161  2.9159
   47MOL0     H 6320   3.194   5.066   4.160  0.6118  0.3569  0.3744
   47MOL0     H 6321   3.418   5.040   4.200 -1.1943  0.4413 -0.2510
   47MOL0     H 6322   3.383   5.020   4.030  1.8708 -0.2126 -0.2328
   47MOL0     H 6323   3.551   4.862   4.090 -1.3167  0.2408 -1.0430
   47MOL0     H 6324   3.456   4.807   4.238 -0.4223 -1.6810 -0.8961
   47MOL0     H 6325   2.585   5.202   4.670 -0.8255  1.0123 -1.1475
   47MOL0     H 6326   2.377   5.202   4.559  0.6764  0.5454 -0.4814
   47MOL0     H 6327   1.893   5.080   4.608 -0.7710  1.8117 -2.0029
   47MOL0     H 6328   1.689   4.981   4.520 -0.9131 -1.6533  0.0668
   47MOL0     H 6329   0.439   4.546   5.427 -2.4877 -2.0295  0.5113
   47MOL0     H 6330   0.361   4.344   5.573  1.3131 -2.5560  0.9491
   47MOL0     H 6331   0.482   4.160   6.034 -0.8465  0.6402 -2.4654
   47MOL0     H 6332   0.423   4.015   6.185  1.9451  1.2933 -3.2306
   47MOL0     H 6333  -0.022   3.938   6.218  1.7360  2.1290 -0.1945
   47MOL0     H 6334   0.006   3.994   6.383  2.2250  0.3553  0.9725
   47MOL0     H 6335  -0.058   3.768   6.442 -0.4132 -0.6229 -0.3357
   47MOL0     H 6336   0.117   3.763   6.421  0.8972 -0.3045 -0.4702
   47MOL0     H 6337   0.080   3.694   6.184  3.3735 -1.6634  1.4909
   47MOL0     H 6338  -0.090   3.686   6.199 -0.9789 -0.2078  0.8529
   47MOL0     H 6339   0.111   3.512   6.379 -1.3985 -2.5068  1.4314
   47MOL0     H 6340  -0.065   3.501   6.381  0.9290 -0.2596  0.4119
   47MOL0     H 6341   0.074   3.294   6.030  2.2876 -1.1979 -0.2393
   47MOL0     H 6342  -0.004   4.111   6.126 -0.1489 -0.2129 -0.6560
   47MOL0     H 6343  -0.049   4.226   5.934  2.0541 -3.1153  1.5666
   47MOL0     H 6344   0.020   4.379   5.991 -2.0988 -1.4443  0.8583
   47MOL0     H 6345   0.069   4.307   5.830  1.0992 -1.2816  0.0790
   48MOL0     O 6346   8.590   1.965   9.620  0.1108  0.0449 -0.5428
   48MOL0     C 6347   8.609   2.016   9.735 -1.2751 -0.3255  0.5662
   48MOL0     O 6348   8.734   2.050   9.794 -0.0902 -0.2990 -0.3513
   48MOL0     C 6349   8.847   2.022   9.728  0.4799  0.1276  0.0355
   48MOL0     C 6350   8.923   1.911   9.760 -0.3566  0.0158  0.0477
   48MOL0     C 6351   9.043   1.892   9.700  0.0269 -0.3200  0.2247
   48MOL0     C 6352   9.098   1.977   9.599  0.0921 -0.8765 -0.2188
   48MOL0     O 6353   9.216   1.943   9.542 -0.0246  0.8460  0.2829
   48MOL0     C 6354   9.257   2.003   9.421 -0.4062 -0.4808  0.0808
   48MOL0     C 6355   9.359   1.920   9.357 -0.0924 -0.2367  0.2085
   48MOL0     C 6356   9.444   2.005   9.258 -0.4741 -0.3818 -0.2304
   48MOL0     C 6357   9.565   1.918   9.220 -0.4073  0.2458 -0.8270
   48MOL0     C 6358   9.678   1.998   9.141  0.9214 -0.0780 -0.4501
   48MOL0     C 6359   9.621   2.107   9.032  0.1047  0.0511 -0.2868
   48MOL0     C 6360   9.538   2.041   8.912 -1.1499  1.5519 -0.5658
   48MOL0     C 6361   9.536   2.123   8.787  0.5428 -0.2451 -0.4062
   48MOL0     N 6362   9.668   2.146   8.730 -0.5110 -0.2706 -0.2525
   48MOL0     C 6363   9.766   2.051   8.695  0.7759  0.0798 -0.6660
   48MOL0     C 6364   9.879   2.122   8.698  0.3949  0.9236  0.2072
   48MOL0     C 6365  10.024   2.074   8.709 -0.5348  0.3221  0.4711
   48MOL0     C 6366  10.078   1.987   8.824 -0.0945 -0.5781  0.3156
   48MOL0     C 6367  10.063   2.057   8.957 -0.3626 -0.3626 -0.5636
   48MOL0     C 6368  10.127   2.204   8.967  0.1686  0.3298 -0.3044
   48MOL0     O 6369  10.129   2.231   9.107  0.9820  0.3837  1.2974
   48MOL0     C 6370  10.015   2.290   9.165 -0.6514  0.3971 -0.1057
   48MOL0     C 6371  10.028   2.291   9.303 -0.7019 -0.0732  0.2665
   48MOL0     C 6372   9.931   2.353   9.381  0.3584  0.1924  0.8675
   48MOL0     C 6373   9.822   2.424   9.323 -0.0447 -0.1324  0.8464
   48MOL0     C 6374   9.729   2.498   9.405  0.0219 -0.2839  0.5256
   48MOL0     O 6375   9.776   2.555   9.524 -0.0464 -0.2895 -0.0858
   48MOL0     C 6376   9.685   2.596   9.621 -0.1171  0.0330  0.7683
   48MOL0     C 6377   9.592   2.704   9.580 -0.3048  0.2223 -0.2008
   48MOL0     C 6378   9.500   2.747   9.678  0.9178  0.0396 -0.0299
   48MOL0     C 6379   9.490   2.696   9.809 -0.6203  0.9603 -0.3322
   48MOL0     O 6380   9.390   2.752   9.891 -0.2141  0.0685  0.0671
   48MOL0     C 6381   9.375   2.708  10.028  0.5028  0.2041 -0.6901
   48MOL0     C 6382   9.288   2.803  10.108 -0.0990 -0.6432  0.0864
   48MOL0     C 6383   9.156   2.833  10.042 -0.1962  0.3701 -0.6794
   48MOL0     C 6384   9.045   2.727  10.061  0.4926 -0.5380  1.0187
   48MOL0     C 6385   8.914   2.782   9.995  0.2462 -0.3202 -0.7205
   48MOL0     C 6386   8.801   2.679  10.002 -0.7243 -0.9797  0.4750
   48MOL0     C 6387   8.695   2.698   9.883 -0.3264 -0.8170 -0.7738
   48MOL0     C 6388   8.590   2.584   9.897 -0.3621 -0.5105  0.3531
   48MOL0    Cl 6389   8.474   2.613  10.032  0.0076  0.0665  0.2777
   48MOL0     C 6390   9.582   2.592   9.833  1.3227 -0.3815 -1.2137
   48MOL0     C 6391   9.672   2.546   9.745  0.9352  0.3790  0.8875
   48MOL0     O 6392   9.612   2.499   9.370 -0.2422 -0.5982  1.0999
   48MOL0     C 6393   9.813   2.424   9.181  0.2880  0.2862 -0.7048
   48MOL0     C 6394   9.902   2.356   9.099 -0.4785  0.1390  0.0900
   48MOL0     N 6395   9.854   2.256   8.723 -0.4815  0.2244  0.6892
   48MOL0     N 6396   9.733   2.268   8.751  0.4036  0.1581 -0.1144
   48MOL0     C 6397   9.023   2.099   9.572 -0.2018 -0.1276 -0.0839
   48MOL0     C 6398   8.896   2.115   9.633 -0.1960 -0.6344  0.4934
   48MOL0     C 6399   8.494   2.044   9.826  0.0707 -0.7264 -0.7825
   48MOL0     C 6400   8.477   2.168   9.888  0.3330  0.1210  0.1009
   48MOL0     C 6401   8.358   2.184   9.968  0.1250 -0.0538  0.5845
   48MOL0     C 6402   8.270   2.083   9.987  0.3021 -0.1511 -0.0157
   48MOL0     O 6403   8.153   2.106  10.051 -0.8740  0.1669 -0.1017
   48MOL0     C 6404   8.108   2.009  10.143  0.0892 -1.0042  0.9784
   48MOL0     C 6405   8.187   2.044  10.273 -0.3114  0.5471  0.5367
   48MOL0     C 6406   8.185   1.933  10.377  0.9037  0.4110  0.4005
   48MOL0     C 6407   8.228   1.982  10.517  0.9578 -0.5039  1.0256
   48MOL0     C 6408   8.353   2.047  10.529 -0.8617  0.2310 -0.5550
   48MOL0     C 6409   8.463   2.100  10.540 -0.2047  0.0959  0.0604
   48MOL0     C 6410   8.289   1.961   9.914 -0.7991  1.0315 -0.2828
   48MOL0     C 6411   8.401   1.942   9.833  0.0786  0.4688 -0.1120
   48MOL0     C 6412   8.408   1.810   9.764  0.1126  0.2640  0.9308
   48MOL0     H 6413   8.896   1.839   9.837  1.2622  0.0642  0.7063
   48MOL0     H 6414   9.105   1.807   9.725  1.3335  0.9636  1.5352
   48MOL0     H 6415   9.174   2.015   9.351  0.2120 -1.5242 -0.8608
   48MOL0     H 6416   9.301   2.101   9.444 -2.5832  1.5640 -3.4244
   48MOL0     H 6417   9.303   1.846   9.299  1.3915  1.3519 -3.5352
   48MOL0     H 6418   9.417   1.854   9.423 -0.2258 -2.3432 -1.6494
   48MOL0     H 6419   9.474   2.101   9.300 -1.6983  0.5605 -1.4121
   48MOL0     H 6420   9.393   2.027   9.164  0.9530  0.8493 -0.7504
   48MOL0     H 6421   9.608   1.872   9.309  1.5161  3.0932 -0.1187
   48MOL0     H 6422   9.527   1.838   9.156 -0.6952 -0.3033  0.0213
   48MOL0     H 6423   9.756   2.040   9.205  0.6543 -2.0570  1.2616
   48MOL0     H 6424   9.732   1.928   9.077  3.5021 -0.8340  2.3581
   48MOL0     H 6425   9.554   2.177   9.083  0.7024  1.5100 -1.4212
   48MOL0     H 6426   9.716   2.156   9.006  1.0984 -2.4470 -1.6867
   48MOL0     H 6427   9.433   2.025   8.938 -0.1660 -0.2407  2.7537
   48MOL0     H 6428   9.580   1.943   8.889 -0.6797  1.5420  0.3150
   48MOL0     H 6429   9.480   2.071   8.708  1.3833 -0.0384 -1.1551
   48MOL0     H 6430   9.486   2.210   8.829  1.2874 -1.0718  2.4088
   48MOL0     H 6431   9.751   1.944   8.689  1.0394 -0.0520  0.6804
   48MOL0     H 6432  10.054   2.028   8.614  2.3321  0.6338  1.1403
   48MOL0     H 6433  10.084   2.165   8.707 -0.9432  0.5850 -1.2458
   48MOL0     H 6434  10.012   1.900   8.832 -1.7859  0.7869  2.3964
   48MOL0     H 6435  10.181   1.957   8.804 -0.2833 -0.9246 -0.1673
   48MOL0     H 6436  10.127   1.992   9.018 -0.4653 -2.3441 -2.4486
   48MOL0     H 6437   9.961   2.056   8.999  1.0289 -0.6197  3.2350
   48MOL0     H 6438  10.077   2.277   8.902 -2.2246 -0.9056  0.0318
   48MOL0     H 6439  10.224   2.181   8.922 -0.3557 -3.7504  0.3013
   48MOL0     H 6440  10.121   2.259   9.350  2.6099 -0.0854 -5.4157
   48MOL0     H 6441   9.956   2.356   9.487 -0.9931  3.3076  1.1969
   48MOL0     H 6442   9.598   2.751   9.482  1.5242  1.7516  0.5909
   48MOL0     H 6443   9.428   2.827   9.662 -0.0796 -1.0421 -1.1593
   48MOL0     H 6444   9.329   2.609  10.031  1.2588 -0.1360  1.0522
   48MOL0     H 6445   9.473   2.701  10.076 -0.8722  0.8808  2.4174
   48MOL0     H 6446   9.282   2.781  10.215  1.0383  3.5909  1.2027
   48MOL0     H 6447   9.344   2.896  10.115 -3.2813  1.4050  0.1696
   48MOL0     H 6448   9.120   2.927  10.085 -1.2180 -0.9980  1.6902
   48MOL0     H 6449   9.176   2.853   9.937 -2.0008  0.7576 -0.9976
   48MOL0     H 6450   9.030   2.705  10.167  2.9035 -1.7610  1.1744
   48MOL0     H 6451   9.072   2.627  10.026 -2.1655 -1.0664  0.1821
   48MOL0     H 6452   8.935   2.830   9.899  0.2139  2.3128  0.4923
   48MOL0     H 6453   8.873   2.866  10.053 -0.6921 -1.2620  0.0116
   48MOL0     H 6454   8.852   2.583   9.987 -0.7288 -1.1343  1.4129
   48MOL0     H 6455   8.749   2.691  10.097 -1.1818  0.7635  0.0430
   48MOL0     H 6456   8.745   2.692   9.786  2.6264  4.3962  0.0637
   48MOL0     H 6457   8.652   2.799   9.884  0.5022 -0.4556 -0.2480
   48MOL0     H 6458   8.523   2.591   9.811 -0.4865  3.9911  0.5839
   48MOL0     H 6459   8.634   2.484   9.898  2.6760  0.7255  0.6244
   48MOL0     H 6460   9.588   2.540   9.928  1.5513 -1.6941 -1.9295
   48MOL0     H 6461   9.746   2.471   9.771  1.1271 -1.2958 -3.5675
   48MOL0     H 6462   9.754   2.495   9.124  0.5281  0.1791 -1.0904
   48MOL0     H 6463   9.895   2.366   8.991 -0.8574  3.3379  0.3134
   48MOL0     H 6464   9.066   2.176   9.508 -2.1259  1.1857  0.1343
   48MOL0     H 6465   8.841   2.208   9.624 -0.4376 -0.7268  1.0319
   48MOL0     H 6466   8.550   2.244   9.862 -1.1506  1.1080 -1.4530
   48MOL0     H 6467   8.332   2.283  10.005 -1.1766 -0.2783  0.3261
   48MOL0     H 6468   8.119   1.903  10.120 -1.6261 -0.7498 -1.3535
   48MOL0     H 6469   8.003   2.031  10.164 -0.4926  0.5775 -2.7777
   48MOL0     H 6470   8.163   2.137  10.325  1.0722  0.6941  0.9621
   48MOL0     H 6471   8.289   2.042  10.234 -1.3572 -1.8824 -2.5081
   48MOL0     H 6472   8.259   1.858  10.346  0.9025  0.9960 -1.0501
   48MOL0     H 6473   8.092   1.877  10.369  1.1851  0.2494 -3.0766
   48MOL0     H 6474   8.155   2.054  10.555 -1.3945 -0.3140 -3.2500
   48MOL0     H 6475   8.235   1.898  10.587  0.0409  0.5302  2.4183
   48MOL0     H 6476   8.552   2.159  10.549  2.3869 -2.3782 -4.8589
   48MOL0     H 6477   8.213   1.888   9.938 -0.6206  1.1469  0.6842
   48MOL0     H 6478   8.508   1.768   9.768 -0.6926 -1.8790  0.1001
   48MOL0     H 6479   8.341   1.725   9.785  1.3208 -1.0689 -0.4110
   48MOL0     H 6480   8.389   1.845   9.662  1.6857 -0.8197  0.2277
   49MOL0     O 6481   6.776  10.606   4.637 -0.1937 -0.4312  0.1541
   49MOL0     C 6482   6.759  10.526   4.726  1.4221 -0.3142  0.0251
   49MOL0     O 6483   6.757  10.551   4.868 -0.0334 -0.1123 -0.7910
   49MOL0     C 6484   6.754  10.681   4.915 -0.8576  0.0899  0.2916
   49MOL0     C 6485   6.638  10.727   4.965 -0.0456 -0.0097 -0.4581
   49MOL0     C 6486   6.637  10.855   5.020  0.2393 -0.0887 -0.7333
   49MOL0     C 6487   6.753  10.941   5.025  0.1240  0.8451  0.1761
   49MOL0     O 6488   6.739  11.063   5.083 -0.2312  0.0155  0.0208
   49MOL0     C 6489   6.864  11.135   5.064  0.8582 -0.1939 -0.8206
   49MOL0     C 6490   6.844  11.279   5.132 -0.3195  0.1458 -0.0645
   49MOL0     C 6491   6.978  11.349   5.153 -0.2504 -0.1748  0.1740
   49MOL0     C 6492   6.960  11.470   5.253  0.5241 -0.1533 -0.4900
   49MOL0     C 6493   7.097  11.539   5.279 -0.2295  1.3310  0.7776
   49MOL0     C 6494   7.079  11.657   5.367 -0.2814 -0.0660  0.5386
   49MOL0     C 6495   7.208  11.737   5.389 -0.1438 -0.6973  0.3917
   49MOL0     C 6496   7.193  11.850   5.491 -0.3737 -0.6274  0.3659
   49MOL0     N 6497   7.075  11.937   5.474 -0.1019  0.2760  0.1797
   49MOL0     C 6498   7.043  12.026   5.380  0.8874 -0.3888  0.2473
   49MOL0     C 6499   6.926  12.085   5.420 -0.5955 -0.4895  0.4953
   49MOL0     C 6500   6.838  12.183   5.357 -0.5835 -0.1081 -0.0870
   49MOL0     C 6501   6.735  12.108   5.284 -0.6786 -0.1780 -0.4990
   49MOL0     C 6502   6.606  12.182   5.266  1.0285  0.5295 -0.5493
   49MOL0     C 6503   6.497  12.172   5.381 -0.5770 -0.3473  0.7646
   49MOL0     O 6504   6.387  12.239   5.328 -0.1516  0.3809  0.2860
   49MOL0     C 6505   6.389  12.378   5.340 -0.7298 -0.0372  0.7213
   49MOL0     C 6506   6.280  12.431   5.282 -0.3664 -0.0862  0.1490
   49MOL0     C 6507   6.257  12.569   5.285 -0.0777 -1.0827 -0.3775
   49MOL0     C 6508   6.347  12.660   5.337  0.1037 -0.5869 -0.8548
   49MOL0     C 6509   6.329  12.805   5.307 -0.2789  0.1027 -0.6458
   49MOL0     O 6510   6.222  12.830   5.231 -0.7914  0.9773  0.0619
   49MOL0     C 6511   6.199  12.958   5.199  0.0496  0.4905 -0.2374
   49MOL0     C 6512   6.214  13.075   5.277 -0.3838 -0.0004  0.2722
   49MOL0     C 6513   6.163  13.201   5.236 -0.1374  0.2216 -0.6376
   49MOL0     C 6514   6.075  13.204   5.124  0.2344 -0.2066  0.9349
   49MOL0     O 6515   6.002  13.314   5.084  0.6992  0.3104 -0.6300
   49MOL0     C 6516   6.015  13.438   5.154 -0.0975  1.0259  0.3566
   49MOL0     C 6517   5.926  13.539   5.081  1.0615 -0.4992  0.0714
   49MOL0     C 6518   5.987  13.602   4.951 -0.0323 -0.2783 -0.0366
   49MOL0     C 6519   5.891  13.688   4.870 -0.6270 -0.5669 -0.0837
   49MOL0     C 6520   5.966  13.796   4.793  1.1564 -0.5470 -0.3246
   49MOL0     C 6521   5.881  13.844   4.666 -0.4638 -0.0642 -0.7393
   49MOL0     C 6522   5.951  13.968   4.604  0.3320 -0.0551  0.2617
   49MOL0     C 6523   5.884  14.023   4.479  1.0727 -0.3990 -0.4392
   49MOL0    Cl 6524   5.912  13.907   4.339 -0.1298  0.2222  0.1965
   49MOL0     C 6525   6.052  13.084   5.055 -0.8089 -0.2963  0.5186
   49MOL0     C 6526   6.115  12.967   5.083 -1.5031  0.0963 -0.4211
   49MOL0     O 6527   6.404  12.885   5.355 -0.0575 -0.2028  0.1702
   49MOL0     C 6528   6.467  12.615   5.402 -0.6510  0.3115 -1.8977
   49MOL0     C 6529   6.483  12.472   5.399  0.3239 -0.3194 -0.5663
   49MOL0     N 6530   6.902  12.038   5.543  0.4218  0.5383  0.4515
   49MOL0     N 6531   6.986  11.949   5.573 -0.1392  0.3069 -0.0988
   49MOL0     C 6532   6.873  10.882   4.976 -0.5788  0.9275  0.2420
   49MOL0     C 6533   6.870  10.755   4.920  0.4922  0.8193  0.2929
   49MOL0     C 6534   6.735  10.386   4.690  0.9964  0.1275  0.9091
   49MOL0     C 6535   6.809  10.335   4.579  0.0742  0.4149 -0.1596
   49MOL0     C 6536   6.803  10.206   4.543  0.6524 -0.0423 -0.7694
   49MOL0     C 6537   6.730  10.114   4.617  0.8258 -0.8596 -0.0449
   49MOL0     O 6538   6.731   9.979   4.572  0.5495 -0.1133 -1.1021
   49MOL0     C 6539   6.800   9.890   4.669 -0.0091  0.4321  0.1578
   49MOL0     C 6540   6.921   9.831   4.601  0.5691 -0.4109 -0.1267
   49MOL0     C 6541   6.965   9.701   4.673 -0.1031  0.2381  0.0068
   49MOL0     C 6542   6.995   9.714   4.819 -0.6051 -0.0249 -1.8776
   49MOL0     C 6543   7.082   9.620   4.889  0.4643  0.2523  0.7673
   49MOL0     C 6544   7.135   9.521   4.929  0.4004 -0.3275 -0.7166
   49MOL0     C 6545   6.645  10.167   4.714 -0.1875  0.4641 -0.2537
   49MOL0     C 6546   6.649  10.299   4.752 -0.3606  0.2932 -0.2749
   49MOL0     C 6547   6.568  10.331   4.871 -0.0480 -0.5116 -0.5392
   49MOL0     H 6548   6.543  10.674   4.959 -0.8124  1.2955 -0.2042
   49MOL0     H 6549   6.542  10.893   5.057 -0.7987 -1.5698 -1.7714
   49MOL0     H 6550   6.944  11.079   5.114  0.1962 -1.3210 -1.0009
   49MOL0     H 6551   6.895  11.150   4.960  0.4761  0.2164 -0.8787
   49MOL0     H 6552   6.807  11.263   5.234 -0.2281 -2.9315 -0.4164
   49MOL0     H 6553   6.767  11.337   5.079 -1.9238 -0.7756  1.1557
   49MOL0     H 6554   7.026  11.379   5.060 -0.2893 -1.4120 -0.2613
   49MOL0     H 6555   7.046  11.270   5.185 -0.8220 -2.0186 -2.8214
   49MOL0     H 6556   6.885  11.529   5.198 -1.0451 -2.1214 -0.5964
   49MOL0     H 6557   6.923  11.424   5.345  1.0938  0.4355  0.0460
   49MOL0     H 6558   7.163  11.464   5.323  1.1614  2.2808  0.3810
   49MOL0     H 6559   7.147  11.572   5.187 -0.3097  1.3618  0.7454
   49MOL0     H 6560   7.007  11.725   5.320  0.7848  0.3712 -0.5093
   49MOL0     H 6561   7.041  11.602   5.454 -1.0213 -2.7392 -1.3527
   49MOL0     H 6562   7.253  11.777   5.298  2.0251 -1.1851  1.1751
   49MOL0     H 6563   7.275  11.662   5.433  0.8456  0.2995  0.6541
   49MOL0     H 6564   7.202  11.815   5.594 -2.7033 -4.3085 -0.5039
   49MOL0     H 6565   7.271  11.927   5.484 -1.4379  0.3630 -1.3406
   49MOL0     H 6566   7.099  12.049   5.289  1.2975 -0.7501  0.4069
   49MOL0     H 6567   6.794  12.248   5.433  0.7443  2.1177 -1.0818
   49MOL0     H 6568   6.908  12.250   5.305  2.8693 -2.0216  1.7271
   49MOL0     H 6569   6.776  12.098   5.183  1.2675  3.2200 -0.2267
   49MOL0     H 6570   6.714  12.010   5.327  1.4655 -0.4624  0.0286
   49MOL0     H 6571   6.555  12.135   5.181  0.6669 -1.6861  0.8078
   49MOL0     H 6572   6.628  12.288   5.246 -2.0421  1.2166 -0.7407
   49MOL0     H 6573   6.524  12.221   5.475  0.7051  0.6318 -0.0872
   49MOL0     H 6574   6.476  12.066   5.401 -1.3945 -1.0561 -3.0268
   49MOL0     H 6575   6.208  12.366   5.233  0.0621 -0.9857  0.6891
   49MOL0     H 6576   6.165  12.600   5.237  0.5322 -2.7528 -2.8369
   49MOL0     H 6577   6.266  13.073   5.372  0.1766 -0.9319 -0.0304
   49MOL0     H 6578   6.184  13.283   5.304  1.7322 -0.8961  0.2314
   49MOL0     H 6579   5.984  13.421   5.257 -2.3207 -0.8399 -0.5351
   49MOL0     H 6580   6.116  13.481   5.156  0.3848  0.3502 -3.1481
   49MOL0     H 6581   5.834  13.490   5.049 -0.0875  1.4625  0.2467
   49MOL0     H 6582   5.900  13.617   5.152  3.3103  0.5597 -0.1825
   49MOL0     H 6583   6.079  13.654   4.980 -0.0514 -1.5929  2.6245
   49MOL0     H 6584   6.017  13.515   4.892  1.0776 -1.6646  2.4522
   49MOL0     H 6585   5.821  13.735   4.939 -1.1543 -0.8188 -0.4388
   49MOL0     H 6586   5.838  13.623   4.799 -0.1246 -2.3067  1.0601
   49MOL0     H 6587   6.067  13.767   4.764  1.5579  0.0549  0.4277
   49MOL0     H 6588   5.968  13.879   4.863  1.1478 -1.7246  1.1300
   49MOL0     H 6589   5.859  13.772   4.587 -0.2251  0.4122 -1.2464
   49MOL0     H 6590   5.785  13.881   4.702  0.1284  0.0258  0.8121
   49MOL0     H 6591   6.053  13.940   4.579  0.4020 -0.0351  0.5216
   49MOL0     H 6592   5.947  14.047   4.680 -1.7154 -1.0755  1.2815
   49MOL0     H 6593   5.776  14.038   4.489  1.0290  0.7988 -2.1594
   49MOL0     H 6594   5.936  14.116   4.451 -2.0169  1.8743  0.7625
   49MOL0     H 6595   5.980  13.087   4.974 -0.2449  1.9171  0.0184
   49MOL0     H 6596   6.099  12.875   5.027  3.3424 -0.0371 -2.0972
   49MOL0     H 6597   6.539  12.684   5.444  0.7890 -3.1986  2.1482
   49MOL0     H 6598   6.577  12.425   5.427  0.9135  0.4863 -1.1306
   49MOL0     H 6599   6.974  10.921   4.983 -0.4558  1.3822 -2.9409
   49MOL0     H 6600   6.967  10.712   4.895  0.7184  0.3475  1.8784
   49MOL0     H 6601   6.886  10.391   4.527  1.1956 -2.0064 -1.2585
   49MOL0     H 6602   6.862  10.153   4.468  0.4816 -0.6128 -0.5067
   49MOL0     H 6603   6.736   9.802   4.681 -0.2085  0.6017  0.3437
   49MOL0     H 6604   6.829   9.934   4.765 -0.7844 -1.5537  1.3716
   49MOL0     H 6605   6.990   9.916   4.609 -1.4577  1.1689  2.0660
   49MOL0     H 6606   6.886   9.800   4.503  1.2179  1.2922 -0.9316
   49MOL0     H 6607   7.054   9.669   4.617 -0.2060  1.0061 -0.6244
   49MOL0     H 6608   6.879   9.634   4.665  1.4421 -1.8648  0.0602
   49MOL0     H 6609   7.038   9.814   4.834 -0.4519 -0.0527 -2.1250
   49MOL0     H 6610   6.903   9.723   4.878  0.6028  0.1259  0.0911
   49MOL0     H 6611   7.180   9.426   4.948  1.2648  0.1550 -0.2665
   49MOL0     H 6612   6.601  10.089   4.775 -2.0303  0.6234 -1.3167
   49MOL0     H 6613   6.637  10.319   4.956  1.3679  3.1405 -0.9679
   49MOL0     H 6614   6.537  10.436   4.864 -0.1761 -0.6339 -2.1379
   49MOL0     H 6615   6.480  10.268   4.882 -0.7575  0.4961 -0.2504
   50MOL0     O 6616   1.865   5.626   2.573 -1.0690 -0.0612  0.3093
   50MOL0     C 6617   1.958   5.710   2.577  0.4390  0.3695  0.3429
   50MOL0     O 6618   1.994   5.798   2.480 -0.7798  0.7539 -0.1651
   50MOL0     C 6619   1.962   5.776   2.354  0.0165  0.3704 -0.2702
   50MOL0     C 6620   1.971   5.643   2.297 -0.2354  0.0348 -0.7947
   50MOL0     C 6621   1.967   5.638   2.161 -0.4398 -0.3924 -0.0123
   50MOL0     C 6622   1.947   5.752   2.081 -0.5455 -0.2669  0.2778
   50MOL0     O 6623   1.946   5.730   1.943  0.5292  0.3181 -0.6758
   50MOL0     C 6624   2.077   5.763   1.905  0.6615 -0.2492  0.3075
   50MOL0     C 6625   2.107   5.707   1.771  0.1208  0.3887 -1.1816
   50MOL0     C 6626   2.003   5.721   1.661  0.6000 -0.3411 -0.6555
   50MOL0     C 6627   2.005   5.872   1.613  0.1129 -0.3710 -0.8133
   50MOL0     C 6628   1.863   5.927   1.575 -0.1793  0.2734  0.8973
   50MOL0     C 6629   1.804   5.870   1.440 -0.8857 -0.4582 -0.5298
   50MOL0     C 6630   1.666   5.913   1.412 -1.2484  0.0866  0.5115
   50MOL0     C 6631   1.576   5.912   1.532 -0.4442 -0.1484  0.3668
   50MOL0     N 6632   1.543   5.778   1.581 -0.6752 -0.0141  0.3143
   50MOL0     C 6633   1.612   5.706   1.677 -0.4875  0.2350  0.0929
   50MOL0     C 6634   1.536   5.586   1.668 -0.5973  0.5129 -0.0392
   50MOL0     C 6635   1.569   5.462   1.729  0.2001  0.6214  0.3912
   50MOL0     C 6636   1.684   5.473   1.837  0.9630 -0.8673  0.1155
   50MOL0     C 6637   1.731   5.341   1.880  0.4277  0.8895 -1.2025
   50MOL0     C 6638   1.845   5.282   1.801  0.4938 -0.2814  0.3045
   50MOL0     O 6639   1.834   5.299   1.663 -0.0750  0.9367  0.4183
   50MOL0     C 6640   1.938   5.281   1.575 -0.5596  0.4190  0.5281
   50MOL0     C 6641   2.061   5.246   1.626 -0.6483  0.3783 -0.2231
   50MOL0     C 6642   2.176   5.231   1.545 -1.4602  0.6179  0.8759
   50MOL0     C 6643   2.159   5.234   1.398  0.0359 -0.3790  0.2786
   50MOL0     C 6644   2.270   5.230   1.309  0.6054  0.5716  0.5645
   50MOL0     O 6645   2.394   5.212   1.363 -0.2992 -0.9300 -0.3092
   50MOL0     C 6646   2.495   5.236   1.272  0.5952  0.4299  0.8326
   50MOL0     C 6647   2.565   5.350   1.262  0.8354 -0.1017 -0.0802
   50MOL0     C 6648   2.655   5.374   1.164 -0.5950 -0.1622  0.2193
   50MOL0     C 6649   2.684   5.274   1.069 -0.5823  0.1396 -0.5905
   50MOL0     O 6650   2.776   5.274   0.968 -0.7083 -0.9465 -0.5006
   50MOL0     C 6651   2.894   5.355   1.006  0.9414 -0.5384  0.0567
   50MOL0     C 6652   2.981   5.312   1.118  0.1569 -0.2837 -0.2248
   50MOL0     C 6653   3.127   5.358   1.105 -0.0316 -0.8025  0.3953
   50MOL0     C 6654   3.205   5.296   1.229  0.3634 -0.1442  0.2248
   50MOL0     C 6655   3.327   5.383   1.262  0.2704 -0.3007 -0.5548
   50MOL0     C 6656   3.277   5.508   1.330 -0.1165  0.1695  0.5391
   50MOL0     C 6657   3.392   5.586   1.388  0.3055  0.4759  0.7673
   50MOL0     C 6658   3.317   5.708   1.453 -0.4765 -0.0562 -0.5266
   50MOL0    Cl 6659   3.247   5.816   1.329 -0.2728  0.0547 -0.0204
   50MOL0     C 6660   2.616   5.150   1.078  0.8868 -0.6258  0.2560
   50MOL0     C 6661   2.520   5.133   1.182  0.7546 -0.5344 -0.0144
   50MOL0     O 6662   2.247   5.243   1.184 -0.0091  0.1107 -0.1609
   50MOL0     C 6663   2.033   5.268   1.345 -0.3385 -0.0900  0.1579
   50MOL0     C 6664   1.924   5.290   1.434  0.5631  0.3980  0.8080
   50MOL0     N 6665   1.438   5.596   1.574 -0.8684  0.2454  0.2282
   50MOL0     N 6666   1.439   5.710   1.526 -0.2440  0.1478 -0.5140
   50MOL0     C 6667   1.934   5.880   2.135  0.0325  0.0493 -0.2608
   50MOL0     C 6668   1.942   5.885   2.275 -0.5058  0.5473 -0.6224
   50MOL0     C 6669   2.033   5.729   2.706 -0.1887  0.9043 -0.0993
   50MOL0     C 6670   2.120   5.837   2.723 -0.1553 -1.1018  0.0371
   50MOL0     C 6671   2.170   5.868   2.853  0.2553 -0.3294  0.3808
   50MOL0     C 6672   2.132   5.799   2.966 -0.2186  0.2902 -1.2317
   50MOL0     O 6673   2.192   5.816   3.088 -0.6546 -0.5613  0.2934
   50MOL0     C 6674   2.116   5.881   3.184  0.3619  0.0139 -0.3973
   50MOL0     C 6675   2.165   5.829   3.313  0.6013  0.6379 -0.3588
   50MOL0     C 6676   2.315   5.845   3.331 -0.7257 -0.0638  0.5230
   50MOL0     C 6677   2.368   5.799   3.474 -0.7143 -0.1082  0.0541
   50MOL0     C 6678   2.293   5.864   3.587 -0.8190 -0.8887 -0.1562
   50MOL0     C 6679   2.242   5.938   3.673  0.3572  1.3960  0.5512
   50MOL0     C 6680   2.059   5.675   2.946  0.0592  0.2071  1.3048
   50MOL0     C 6681   2.020   5.633   2.812 -0.5272 -0.5275  0.6966
   50MOL0     C 6682   1.960   5.494   2.799  0.9763  0.2255  0.2869
   50MOL0     H 6683   2.006   5.560   2.357  2.5165  0.4853 -1.6532
   50MOL0     H 6684   1.976   5.546   2.104 -0.6928 -0.0923 -0.5456
   50MOL0     H 6685   2.082   5.872   1.904 -2.5484  0.0305 -1.9769
   50MOL0     H 6686   2.146   5.719   1.976 -1.0414 -2.1308  0.8911
   50MOL0     H 6687   2.129   5.601   1.789  0.4586  0.7844  0.8863
   50MOL0     H 6688   2.202   5.742   1.730  0.4572 -2.0932 -2.7736
   50MOL0     H 6689   1.900   5.696   1.689  1.7627 -1.5412  3.1792
   50MOL0     H 6690   2.039   5.658   1.579 -1.5795  0.4967 -2.3680
   50MOL0     H 6691   2.055   5.939   1.683 -0.0793 -0.8346 -0.2262
   50MOL0     H 6692   2.077   5.886   1.532  1.0524 -0.7991 -0.0676
   50MOL0     H 6693   1.796   5.910   1.660 -2.5007  2.7165 -0.2486
   50MOL0     H 6694   1.868   6.035   1.555  1.7010  0.3957  1.8223
   50MOL0     H 6695   1.871   5.911   1.364  0.2234  1.3596  1.3375
   50MOL0     H 6696   1.802   5.761   1.443  0.1782 -0.4661  1.0910
   50MOL0     H 6697   1.625   5.855   1.328  1.2223 -0.3022 -0.5046
   50MOL0     H 6698   1.671   6.014   1.370 -1.0325 -0.4776 -0.8968
   50MOL0     H 6699   1.616   5.969   1.617  0.4303 -0.1464 -0.0372
   50MOL0     H 6700   1.489   5.970   1.499 -0.9741 -0.9403  0.3626
   50MOL0     H 6701   1.703   5.724   1.734 -1.3910  0.1273  1.6478
   50MOL0     H 6702   1.477   5.436   1.782  0.6353 -2.2519 -0.1175
   50MOL0     H 6703   1.586   5.380   1.659 -1.2381 -0.5614  1.3669
   50MOL0     H 6704   1.771   5.527   1.799  0.8268 -1.1997 -0.6857
   50MOL0     H 6705   1.638   5.535   1.915  1.2488  0.9784 -1.0974
   50MOL0     H 6706   1.650   5.269   1.861  1.1031 -1.4451  3.4422
   50MOL0     H 6707   1.756   5.337   1.986  2.0747 -1.3395 -1.5891
   50MOL0     H 6708   1.844   5.177   1.832  1.0964 -0.7007 -1.0144
   50MOL0     H 6709   1.940   5.317   1.842  0.1205 -0.1229  1.0551
   50MOL0     H 6710   2.088   5.231   1.730 -1.1574  0.5157 -0.0662
   50MOL0     H 6711   2.271   5.205   1.590  0.0202  2.2995 -1.0682
   50MOL0     H 6712   2.537   5.436   1.322 -1.7729 -1.3790  0.7001
   50MOL0     H 6713   2.705   5.470   1.157 -0.3957  0.1057  3.7175
   50MOL0     H 6714   2.960   5.359   0.919  2.7026 -3.5052  1.0862
   50MOL0     H 6715   2.868   5.460   1.022 -0.4300 -0.7958 -0.3857
   50MOL0     H 6716   2.925   5.336   1.209 -1.0736 -1.5450 -0.6008
   50MOL0     H 6717   2.988   5.203   1.124  2.0712 -0.2628 -1.3330
   50MOL0     H 6718   3.173   5.327   1.010 -3.2537  0.5780 -1.7775
   50MOL0     H 6719   3.124   5.467   1.106 -1.2821 -0.7625  3.7197
   50MOL0     H 6720   3.228   5.192   1.202 -1.9729 -0.8660  0.8304
   50MOL0     H 6721   3.137   5.297   1.314  0.5809  1.5358  0.4140
   50MOL0     H 6722   3.387   5.406   1.174  2.1392  0.4325  0.8408
   50MOL0     H 6723   3.402   5.337   1.328  1.8684  0.8208 -1.5098
   50MOL0     H 6724   3.220   5.566   1.258 -0.5186 -1.3086 -0.3680
   50MOL0     H 6725   3.209   5.497   1.415 -0.3156  4.7153  1.2142
   50MOL0     H 6726   3.473   5.609   1.317  0.0800  1.0712  0.6916
   50MOL0     H 6727   3.434   5.532   1.473  1.9321 -1.4440 -1.1492
   50MOL0     H 6728   3.246   5.682   1.533  0.1943  1.4660  0.6271
   50MOL0     H 6729   3.393   5.766   1.505 -0.2886 -1.8263  1.2847
   50MOL0     H 6730   2.630   5.090   0.988  2.3390 -1.5804  1.0755
   50MOL0     H 6731   2.471   5.036   1.189  1.5877 -1.5306 -4.6130
   50MOL0     H 6732   2.012   5.268   1.239  3.7032  0.8331 -0.8244
   50MOL0     H 6733   1.827   5.322   1.397  0.2213 -1.4674  0.0148
   50MOL0     H 6734   1.925   5.966   2.069 -2.0928  0.2646  0.2491
   50MOL0     H 6735   1.951   5.978   2.330  0.7891 -0.9045  1.8084
   50MOL0     H 6736   2.125   5.920   2.654 -1.4224 -0.2112  0.9618
   50MOL0     H 6737   2.243   5.945   2.874  0.7624 -1.2339  2.0860
   50MOL0     H 6738   2.013   5.848   3.167  0.1190  1.3176 -1.7118
   50MOL0     H 6739   2.100   5.990   3.184 -0.7642  0.0050  3.9189
   50MOL0     H 6740   2.145   5.722   3.314 -0.1349  0.7016 -2.5264
   50MOL0     H 6741   2.107   5.884   3.387 -1.8145 -0.9566 -0.9248
   50MOL0     H 6742   2.332   5.953   3.325 -0.8384 -0.0564  0.3088
   50MOL0     H 6743   2.379   5.796   3.258  2.7213 -1.7268  4.2796
   50MOL0     H 6744   2.358   5.690   3.470  2.0119 -0.5528  2.1750
   50MOL0     H 6745   2.475   5.807   3.497 -0.4145 -2.7995 -0.0487
   50MOL0     H 6746   2.175   5.989   3.739  0.8386  1.8379  0.7095
   50MOL0     H 6747   2.034   5.611   3.030 -0.4222 -1.3143  0.0487
   50MOL0     H 6748   1.983   5.429   2.884  1.4818 -0.8389 -0.6472
   50MOL0     H 6749   1.851   5.499   2.799  0.8756 -1.0547 -1.1760
   50MOL0     H 6750   1.991   5.438   2.711  0.7486 -1.3100  1.1541
   51MOL0     O 6751   3.095   7.620   2.879 -0.3665  0.4730 -0.1024
   51MOL0     C 6752   3.208   7.604   2.850  0.0599 -0.2742 -0.0350
   51MOL0     O 6753   3.305   7.703   2.847 -0.5198  0.6673  0.1365
   51MOL0     C 6754   3.267   7.826   2.888 -0.6044 -0.1139  0.1211
   51MOL0     C 6755   3.306   7.869   3.019  0.2368  0.3748 -0.0074
   51MOL0     C 6756   3.264   7.999   3.056 -0.6882 -0.9783 -0.6456
   51MOL0     C 6757   3.202   8.095   2.966  0.9014  0.8334 -0.4339
   51MOL0     O 6758   3.177   8.223   3.011 -0.2284 -0.4898  0.3033
   51MOL0     C 6759   3.145   8.316   2.910  0.2610 -0.1135  0.4396
   51MOL0     C 6760   3.254   8.373   2.816 -0.0974 -0.0820 -0.1057
   51MOL0     C 6761   3.366   8.429   2.903 -1.3104 -0.3325 -0.0361
   51MOL0     C 6762   3.478   8.478   2.814 -0.2769 -0.2020 -0.6878
   51MOL0     C 6763   3.603   8.506   2.898 -0.3181 -0.5347  0.0814
   51MOL0     C 6764   3.683   8.629   2.840  0.2780 -0.1318  0.1339
   51MOL0     C 6765   3.801   8.677   2.918 -0.4062 -1.0418 -0.3234
   51MOL0     C 6766   3.909   8.567   2.927 -0.1729 -0.2594  0.7866
   51MOL0     N 6767   4.038   8.625   2.923 -0.2083 -0.1323 -0.2698
   51MOL0     C 6768   4.088   8.693   3.036  0.1418 -0.7650 -0.1086
   51MOL0     C 6769   4.216   8.731   2.993 -0.3464 -0.1088 -0.3177
   51MOL0     C 6770   4.329   8.784   3.086  0.3029 -1.3776  0.7716
   51MOL0     C 6771   4.424   8.678   3.132 -0.9642 -0.4512  0.3026
   51MOL0     C 6772   4.502   8.606   3.023  0.3034 -0.2100 -0.7056
   51MOL0     C 6773   4.600   8.696   2.946  0.5045  0.8755 -0.7944
   51MOL0     O 6774   4.709   8.745   3.021 -0.3090  0.6563  0.4802
   51MOL0     C 6775   4.798   8.826   2.961 -0.3200 -0.1104 -0.4908
   51MOL0     C 6776   4.892   8.878   3.048  0.4963 -0.3638 -0.0508
   51MOL0     C 6777   4.990   8.967   2.999 -0.0274 -0.8174  0.0833
   51MOL0     C 6778   5.002   8.988   2.863  0.2215  0.4813 -0.3376
   51MOL0     C 6779   5.120   9.065   2.818  0.7820 -0.1055  0.3788
   51MOL0     O 6780   5.233   9.069   2.895 -0.3908  0.4234 -0.4425
   51MOL0     C 6781   5.335   9.151   2.855 -0.1474 -0.0756 -0.1882
   51MOL0     C 6782   5.384   9.170   2.717  0.6334 -0.0928 -0.3494
   51MOL0     C 6783   5.488   9.261   2.697 -0.3743  0.6028 -0.8364
   51MOL0     C 6784   5.558   9.320   2.805  0.0828 -0.5267 -0.3625
   51MOL0     O 6785   5.675   9.395   2.787  0.3017 -0.1382 -0.0916
   51MOL0     C 6786   5.763   9.345   2.684 -0.0302 -0.1046 -0.3455
   51MOL0     C 6787   5.823   9.199   2.715  0.1643 -0.6964 -0.0943
   51MOL0     C 6788   5.945   9.158   2.627  0.0154  0.0663 -0.6798
   51MOL0     C 6789   5.978   9.014   2.676 -0.3836  0.0419  1.1521
   51MOL0     C 6790   6.126   8.987   2.649  0.0954  0.2306 -0.3111
   51MOL0     C 6791   6.213   9.019   2.771 -0.0085 -0.3890 -0.6214
   51MOL0     C 6792   6.362   9.023   2.747 -0.2495 -0.6304  0.9198
   51MOL0     C 6793   6.415   9.071   2.885 -0.5985 -0.6651 -0.8155
   51MOL0    Cl 6794   6.595   9.123   2.877 -0.3943  0.3821  0.1960
   51MOL0     C 6795   5.514   9.299   2.936 -0.5389  0.0190 -0.1017
   51MOL0     C 6796   5.402   9.218   2.960 -0.3566  0.4238  0.1676
   51MOL0     O 6797   5.111   9.120   2.714 -0.0329  0.0948 -0.4689
   51MOL0     C 6798   4.914   8.930   2.772 -0.2323 -0.4233  0.0652
   51MOL0     C 6799   4.811   8.853   2.825 -0.6932 -0.5893 -1.1926
   51MOL0     N 6800   4.235   8.694   2.862 -0.8566 -0.0159  0.1015
   51MOL0     N 6801   4.127   8.634   2.825 -0.1710  0.0351 -0.3204
   51MOL0     C 6802   3.179   8.048   2.834  0.0167  0.5328  0.2826
   51MOL0     C 6803   3.211   7.913   2.796  1.1726 -1.0254 -0.0128
   51MOL0     C 6804   3.252   7.470   2.823  1.0235 -0.3227 -0.3368
   51MOL0     C 6805   3.383   7.460   2.781  0.3824 -1.1148 -0.6632
   51MOL0     C 6806   3.438   7.343   2.748 -0.2254  0.2296 -0.2477
   51MOL0     C 6807   3.371   7.218   2.770  0.5627 -0.1744  0.2416
   51MOL0     O 6808   3.406   7.086   2.736  0.1484 -0.9634  0.4392
   51MOL0     C 6809   3.513   7.080   2.642 -0.3326 -0.4597 -0.5373
   51MOL0     C 6810   3.491   6.947   2.559 -0.1667 -0.6155  0.4996
   51MOL0     C 6811   3.488   6.817   2.645  0.1716 -0.5409 -0.2942
   51MOL0     C 6812   3.442   6.697   2.565 -0.1776  0.3629  0.1238
   51MOL0     C 6813   3.451   6.575   2.645 -0.6233 -0.6580 -0.3662
   51MOL0     C 6814   3.472   6.482   2.721  0.4405  0.6134  0.4836
   51MOL0     C 6815   3.239   7.226   2.815 -0.4372 -0.2753 -0.4633
   51MOL0     C 6816   3.171   7.350   2.840 -0.7240  0.7103 -0.8420
   51MOL0     C 6817   3.033   7.334   2.898 -0.0121 -1.0234 -0.1052
   51MOL0     H 6818   3.359   7.799   3.082  0.5929  0.4483 -0.2228
   51MOL0     H 6819   3.283   8.021   3.160  0.9978 -2.9604 -0.4644
   51MOL0     H 6820   3.060   8.287   2.849 -0.3990 -3.3615  2.5908
   51MOL0     H 6821   3.104   8.404   2.961  0.3755 -0.8336  1.8460
   51MOL0     H 6822   3.207   8.435   2.738 -0.7908 -2.1010 -1.3605
   51MOL0     H 6823   3.303   8.289   2.766  0.7562  0.0603  0.4760
   51MOL0     H 6824   3.419   8.352   2.959  3.3947  1.3825 -1.6564
   51MOL0     H 6825   3.320   8.507   2.966  0.5980 -0.2740  1.3730
   51MOL0     H 6826   3.501   8.412   2.731  0.8959 -0.3755 -0.2439
   51MOL0     H 6827   3.438   8.566   2.764 -0.7175  0.4543  0.7571
   51MOL0     H 6828   3.578   8.520   3.004 -1.8642 -2.6174  0.0498
   51MOL0     H 6829   3.678   8.427   2.887  0.3277  0.1397 -0.4936
   51MOL0     H 6830   3.718   8.626   2.736  0.4237  1.4464  0.1028
   51MOL0     H 6831   3.601   8.702   2.837 -0.2872 -0.7680 -0.3825
   51MOL0     H 6832   3.790   8.714   3.021  0.5635  2.2058 -1.2606
   51MOL0     H 6833   3.849   8.761   2.866  2.5300 -4.0049 -2.7959
   51MOL0     H 6834   3.893   8.507   3.018  1.0182  0.1755  1.2917
   51MOL0     H 6835   3.907   8.503   2.838  0.5429  2.3589 -1.2444
   51MOL0     H 6836   4.043   8.705   3.134  2.3427 -0.3696  0.8908
   51MOL0     H 6837   4.378   8.859   3.024 -2.8301 -1.2867 -1.9058
   51MOL0     H 6838   4.278   8.830   3.171 -0.6082  1.2756 -1.0845
   51MOL0     H 6839   4.486   8.738   3.200 -0.7926 -0.3446  0.0525
   51MOL0     H 6840   4.361   8.604   3.183 -1.0402 -0.5134  0.1215
   51MOL0     H 6841   4.438   8.557   2.949  0.7145 -0.6364 -0.7845
   51MOL0     H 6842   4.559   8.530   3.079 -0.2481 -0.2949 -0.2558
   51MOL0     H 6843   4.548   8.783   2.905 -0.3387  1.2035  0.8656
   51MOL0     H 6844   4.636   8.638   2.861  0.1615 -0.1943 -0.2243
   51MOL0     H 6845   4.893   8.845   3.151 -0.1038 -1.6334 -0.4348
   51MOL0     H 6846   5.058   9.017   3.068  1.2807  0.5384 -2.0806
   51MOL0     H 6847   5.340   9.116   2.633  0.8848  1.9408 -1.8538
   51MOL0     H 6848   5.521   9.286   2.597  1.3980  1.2183 -0.1320
   51MOL0     H 6849   5.717   9.355   2.585  1.4875  3.1062 -0.8611
   51MOL0     H 6850   5.846   9.415   2.673 -0.1978 -0.1487 -2.1631
   51MOL0     H 6851   5.864   9.197   2.817  2.7006  0.4671 -1.0183
   51MOL0     H 6852   5.739   9.129   2.714 -1.4211  1.0908  1.5422
   51MOL0     H 6853   5.918   9.156   2.521 -1.2457 -3.1012 -0.4036
   51MOL0     H 6854   6.029   9.226   2.646 -1.9735  2.2327  0.9019
   51MOL0     H 6855   5.905   8.951   2.626 -1.0583  0.2532  1.8476
   51MOL0     H 6856   5.952   9.012   2.782  1.1703  2.5251  1.6746
   51MOL0     H 6857   6.158   9.039   2.558  0.5067 -0.1825 -0.4039
   51MOL0     H 6858   6.139   8.879   2.639 -1.3904  0.1701 -2.4393
   51MOL0     H 6859   6.183   9.117   2.810 -1.5316  0.1692 -2.9733
   51MOL0     H 6860   6.164   8.948   2.838 -3.6766  0.3262 -2.2662
   51MOL0     H 6861   6.375   9.101   2.671 -4.2460 -0.6918 -0.0161
   51MOL0     H 6862   6.417   8.935   2.712  0.2050  0.0931 -0.2443
   51MOL0     H 6863   6.363   9.156   2.931  0.8461  0.6997 -1.6003
   51MOL0     H 6864   6.415   8.988   2.956  1.3081  0.1393  0.1776
   51MOL0     H 6865   5.550   9.349   3.026 -2.5864 -2.4183  2.2548
   51MOL0     H 6866   5.384   9.211   3.066  1.6622  2.7969  0.7603
   51MOL0     H 6867   4.929   8.963   2.669 -1.2853  0.3293  0.1414
   51MOL0     H 6868   4.741   8.803   2.758 -1.3356 -2.2231  0.5884
   51MOL0     H 6869   3.149   8.114   2.754  0.4749 -0.9322 -1.1471
   51MOL0     H 6870   3.207   7.891   2.690  2.1945 -3.2696  0.3662
   51MOL0     H 6871   3.452   7.544   2.775 -2.2353  1.1038 -1.5232
   51MOL0     H 6872   3.538   7.346   2.707 -0.5669  0.6210 -1.0561
   51MOL0     H 6873   3.600   7.061   2.707 -1.8232  0.5851  1.9109
   51MOL0     H 6874   3.521   7.165   2.574  1.9448 -0.8221 -0.8184
   51MOL0     H 6875   3.579   6.946   2.494  1.3277  0.3297  2.3836
   51MOL0     H 6876   3.409   6.956   2.488  0.6431 -2.2920 -0.7309
   51MOL0     H 6877   3.411   6.841   2.720 -2.6604  0.6437 -3.3641
   51MOL0     H 6878   3.586   6.806   2.692  1.7797  3.9998 -2.1129
   51MOL0     H 6879   3.340   6.717   2.531  0.2967  1.7898 -0.5874
   51MOL0     H 6880   3.504   6.684   2.476  2.5599 -1.4076  2.1263
   51MOL0     H 6881   3.483   6.393   2.779  0.4537  0.7534  0.6970
   51MOL0     H 6882   3.180   7.136   2.825 -2.0637  0.8914  1.1723
   51MOL0     H 6883   3.009   7.384   2.992  0.1660 -2.2943  0.6267
   51MOL0     H 6884   2.968   7.372   2.818 -0.4153  1.7672  1.4275
   51MOL0     H 6885   3.014   7.230   2.924 -1.1041 -0.3943  1.7941
   52MOL0     O 6886   7.952  10.096   2.799  0.5283  0.0440 -0.2013
   52MOL0     C 6887   7.923  10.146   2.694  0.0677 -0.5234  0.4624
   52MOL0     O 6888   8.013  10.205   2.609 -0.2072 -0.1814  0.1360
   52MOL0     C 6889   8.139  10.191   2.618 -0.2329 -0.1258  0.2238
   52MOL0     C 6890   8.199  10.111   2.529 -0.2177 -0.2086 -0.0146
   52MOL0     C 6891   8.339  10.081   2.538  0.0113 -0.7075  0.4031
   52MOL0     C 6892   8.420  10.153   2.632  0.3960  0.2382  0.1870
   52MOL0     O 6893   8.554  10.140   2.651  0.4970  0.8305 -0.4181
   52MOL0     C 6894   8.628  10.072   2.547  0.0151  1.1911 -0.0896
   52MOL0     C 6895   8.771  10.071   2.589  0.1004  0.0989  0.6958
   52MOL0     C 6896   8.869  10.032   2.474  0.1301 -1.0295  0.4909
   52MOL0     C 6897   8.869  10.142   2.360 -0.0713  0.4002  0.4000
   52MOL0     C 6898   8.935  10.094   2.231  0.2608 -0.8003  0.1836
   52MOL0     C 6899   9.084  10.064   2.246 -0.7273  0.3068  0.2641
   52MOL0     C 6900   9.134  10.044   2.101  0.3380 -0.2766 -0.2131
   52MOL0     C 6901   9.272   9.993   2.106 -0.4508  0.1431 -0.5152
   52MOL0     N 6902   9.328   9.970   1.971 -0.0441  0.1677  0.4944
   52MOL0     C 6903   9.360  10.076   1.890  0.6521 -0.2138  0.9420
   52MOL0     C 6904   9.422  10.017   1.782 -0.8444  0.3717  0.0855
   52MOL0     C 6905   9.483  10.088   1.663 -0.3535 -0.7641 -0.3785
   52MOL0     C 6906   9.394  10.054   1.549  0.2331 -0.0300  1.3552
   52MOL0     C 6907   9.325  10.185   1.502  0.6862 -0.3064 -0.2554
   52MOL0     C 6908   9.418  10.279   1.420  0.8916  0.3135 -0.3188
   52MOL0     O 6909   9.337  10.390   1.372 -0.1963 -0.0304 -0.8707
   52MOL0     C 6910   9.399  10.481   1.295 -0.1219 -0.7002 -0.3228
   52MOL0     C 6911   9.534  10.489   1.272  0.2032  0.0228  0.5876
   52MOL0     C 6912   9.596  10.590   1.198  0.1246 -0.0057 -0.3612
   52MOL0     C 6913   9.516  10.675   1.126  1.3421 -0.0291 -0.0309
   52MOL0     C 6914   9.569  10.784   1.046  0.4046 -1.1493 -0.3463
   52MOL0     O 6915   9.700  10.774   1.018 -0.2689  0.0115 -0.1492
   52MOL0     C 6916   9.772  10.874   0.952 -0.8454  0.3389  0.1271
   52MOL0     C 6917   9.777  10.882   0.812  0.3120 -0.7691 -0.3395
   52MOL0     C 6918   9.856  10.978   0.740 -0.0860  0.1879  0.2554
   52MOL0     C 6919   9.953  11.044   0.806  0.2979  0.0380 -0.0811
   52MOL0     O 6920  10.034  11.114   0.726  0.0836  0.3323  0.0850
   52MOL0     C 6921  10.156  11.162   0.782 -0.0030 -0.8467 -0.1729
   52MOL0     C 6922  10.255  11.220   0.670 -0.8838  0.6092  0.1071
   52MOL0     C 6923  10.399  11.251   0.733  0.7452 -0.7777  0.2317
   52MOL0     C 6924  10.494  11.142   0.774  0.0587  0.7124 -0.9172
   52MOL0     C 6925  10.556  11.072   0.657 -0.4942  0.6513  1.3827
   52MOL0     C 6926  10.681  11.141   0.598  0.3209  0.9896  0.3518
   52MOL0     C 6927  10.709  11.078   0.469 -0.1476 -0.2395  0.3761
   52MOL0     C 6928  10.858  11.079   0.436  1.1676  0.0433  0.1178
   52MOL0    Cl 6929  10.937  11.234   0.452  0.6500  0.4091  0.0636
   52MOL0     C 6930   9.955  11.033   0.947  0.0002 -0.3461  0.2843
   52MOL0     C 6931   9.864  10.962   1.021  0.8942  0.2597 -0.0847
   52MOL0     O 6932   9.505  10.886   1.011  0.1462 -0.0371  0.0364
   52MOL0     C 6933   9.374  10.678   1.164 -0.9253  0.8779  0.3104
   52MOL0     C 6934   9.314  10.578   1.239 -1.0134  1.4561 -0.1454
   52MOL0     N 6935   9.414   9.879   1.788  0.5779  0.3385 -0.1053
   52MOL0     N 6936   9.365   9.854   1.905  0.4518 -0.2417  0.2357
   52MOL0     C 6937   8.353  10.240   2.714 -0.5898  0.1019  0.5811
   52MOL0     C 6938   8.213  10.258   2.707  1.2345 -0.4032  0.1418
   52MOL0     C 6939   7.776  10.162   2.661 -0.6494  1.1579 -0.9878
   52MOL0     C 6940   7.744  10.250   2.559 -0.1122  0.3495 -0.1426
   52MOL0     C 6941   7.615  10.249   2.504 -0.1441 -0.2726  1.0348
   52MOL0     C 6942   7.513  10.159   2.544  0.5145  0.4313  0.4743
   52MOL0     O 6943   7.392  10.161   2.495  0.6272  0.4875 -0.2198
   52MOL0     C 6944   7.289  10.068   2.539  0.4290 -0.9273  0.0221
   52MOL0     C 6945   7.166  10.096   2.445  0.3878  0.1725 -0.1332
   52MOL0     C 6946   7.063   9.984   2.465 -0.0244 -0.7252  0.0679
   52MOL0     C 6947   6.934  10.039   2.404  0.4508 -0.2031 -0.2685
   52MOL0     C 6948   6.838  10.109   2.489  0.2474 -0.2814  0.2955
   52MOL0     C 6949   6.778  10.170   2.577 -0.8462  0.7904 -1.3686
   52MOL0     C 6950   7.547  10.077   2.658  1.2320  0.1191  0.4199
   52MOL0     C 6951   7.677  10.074   2.708 -0.0100 -0.6724 -0.0986
   52MOL0     C 6952   7.689   9.987   2.831  0.2418 -0.1879 -0.0755
   52MOL0     H 6953   8.137  10.057   2.458 -0.1358  1.8319 -1.7183
   52MOL0     H 6954   8.368  10.009   2.462  0.2248 -2.1111  1.7762
   52MOL0     H 6955   8.590   9.970   2.533 -3.5008  2.1768  1.2468
   52MOL0     H 6956   8.609  10.122   2.452 -1.7146  1.9825  0.6282
   52MOL0     H 6957   8.784   9.998   2.669 -0.3816 -1.9890 -1.0213
   52MOL0     H 6958   8.804  10.172   2.611  1.0902  0.1529 -0.8495
   52MOL0     H 6959   8.855   9.929   2.439  3.8176 -1.8578  1.0292
   52MOL0     H 6960   8.971  10.032   2.513 -0.5513 -0.8112  2.3698
   52MOL0     H 6961   8.771  10.168   2.319  0.4249  1.4169 -0.1926
   52MOL0     H 6962   8.934  10.225   2.390 -1.6799  2.2076 -0.8368
   52MOL0     H 6963   8.885  10.003   2.196  2.0632 -1.0872 -1.9025
   52MOL0     H 6964   8.917  10.166   2.151 -0.9372 -1.5803 -0.2869
   52MOL0     H 6965   9.143  10.140   2.299  0.8143  1.4350 -2.7957
   52MOL0     H 6966   9.103   9.967   2.292  4.4272  0.3983 -1.0638
   52MOL0     H 6967   9.131  10.141   2.050 -0.6580  1.4239  2.8267
   52MOL0     H 6968   9.071   9.972   2.048  0.5703  0.4480 -1.5279
   52MOL0     H 6969   9.325  10.070   2.162 -0.1408 -1.1527  1.0356
   52MOL0     H 6970   9.285   9.914   2.180  1.2850  0.2170 -0.7139
   52MOL0     H 6971   9.357  10.182   1.914 -0.0671  0.3447 -1.3770
   52MOL0     H 6972   9.496  10.189   1.702  2.2506 -2.0828  2.6548
   52MOL0     H 6973   9.586  10.053   1.648  0.2255  0.1524  1.2545
   52MOL0     H 6974   9.449  10.010   1.465 -1.3504  2.4412 -1.1499
   52MOL0     H 6975   9.316   9.981   1.571  1.6657 -1.9945  0.3360
   52MOL0     H 6976   9.295  10.237   1.594 -2.2031  0.1146 -1.3373
   52MOL0     H 6977   9.229  10.160   1.455 -0.7341  1.8431  1.3152
   52MOL0     H 6978   9.463  10.225   1.336 -0.9189 -1.5389 -0.1573
   52MOL0     H 6979   9.514  10.304   1.467  2.5090  0.8936 -3.6349
   52MOL0     H 6980   9.601  10.423   1.325  1.9245  0.1987 -1.2396
   52MOL0     H 6981   9.704  10.600   1.201  0.3064  0.3398 -3.8955
   52MOL0     H 6982   9.708  10.817   0.760 -0.1810 -0.3239 -0.2521
   52MOL0     H 6983   9.844  10.979   0.632  1.1359  0.1025  0.1054
   52MOL0     H 6984  10.138  11.249   0.847  0.6206  1.7673 -3.2561
   52MOL0     H 6985  10.209  11.089   0.844  0.7936  1.3958  1.9462
   52MOL0     H 6986  10.260  11.145   0.591 -1.6162  0.0824  0.5453
   52MOL0     H 6987  10.223  11.312   0.621 -1.7150 -0.3497 -1.1901
   52MOL0     H 6988  10.453  11.310   0.658  1.8277 -0.7908  0.9818
   52MOL0     H 6989  10.381  11.317   0.819  1.8650 -0.2696  0.1073
   52MOL0     H 6990  10.452  11.068   0.844  0.5791  2.3700  1.2373
   52MOL0     H 6991  10.582  11.192   0.816  2.6902 -2.4354 -2.2758
   52MOL0     H 6992  10.485  11.070   0.573  1.5117  1.6854 -0.4356
   52MOL0     H 6993  10.593  10.974   0.688 -0.1787  0.3885  0.2164
   52MOL0     H 6994  10.675  11.251   0.599 -0.3946  0.9985 -1.2828
   52MOL0     H 6995  10.758  11.131   0.675 -1.1201  2.5076  2.1083
   52MOL0     H 6996  10.650  11.128   0.392 -1.7961  0.2527  1.8810
   52MOL0     H 6997  10.675  10.974   0.468 -1.9600  0.3038  0.9392
   52MOL0     H 6998  10.911  11.000   0.491  0.2924 -0.7015 -0.0676
   52MOL0     H 6999  10.862  11.047   0.332  0.7634 -0.4781  0.2530
   52MOL0     H 7000  10.026  11.079   1.015 -0.6406  1.0721  0.0377
   52MOL0     H 7001   9.872  10.962   1.129 -1.8723 -0.0912  0.1979
   52MOL0     H 7002   9.316  10.767   1.137 -1.1943  1.4946  2.6634
   52MOL0     H 7003   9.211  10.572   1.271 -1.4961 -2.0626 -1.8536
   52MOL0     H 7004   8.419  10.302   2.774  0.2830  1.1178 -1.3211
   52MOL0     H 7005   8.162  10.321   2.779  0.9383  0.0666 -0.4690
   52MOL0     H 7006   7.810  10.315   2.502 -2.5940  1.0094 -2.4527
   52MOL0     H 7007   7.597  10.321   2.424  4.3044  0.1924  0.1882
   52MOL0     H 7008   7.265  10.075   2.645  1.0739  2.3184  0.0563
   52MOL0     H 7009   7.324   9.968   2.511 -3.0618 -2.0949 -0.6979
   52MOL0     H 7010   7.194  10.094   2.340 -1.6576 -2.9675 -0.7366
   52MOL0     H 7011   7.111  10.187   2.471  0.1705 -0.6737  2.7936
   52MOL0     H 7012   7.042   9.984   2.572  0.7148  1.6059  0.2745
   52MOL0     H 7013   7.087   9.883   2.430  1.3901 -0.0008 -1.2080
   52MOL0     H 7014   6.954  10.089   2.308  1.8188 -0.6966 -0.2596
   52MOL0     H 7015   6.864   9.956   2.391 -0.1735 -0.0640  1.8358
   52MOL0     H 7016   6.717  10.218   2.652 -1.5917  0.1975 -1.5851
   52MOL0     H 7017   7.475  10.008   2.700  3.1424 -1.3112  1.4968
   52MOL0     H 7018   7.773   9.918   2.833 -0.1624 -0.6751  2.2699
   52MOL0     H 7019   7.705  10.062   2.909 -2.4982  2.6357 -1.9652
   52MOL0     H 7020   7.590   9.943   2.848 -0.4536  0.7762 -1.4030
   53MOL0     O 7021   9.273   1.876   0.552 -0.1180  0.0448 -0.6469
   53MOL0     C 7022   9.307   1.764   0.581  0.5296  0.2475  0.1976
   53MOL0     O 7023   9.435   1.712   0.561 -0.2664 -0.0587 -0.6927
   53MOL0     C 7024   9.530   1.790   0.493 -0.2120 -0.1126 -0.8718
   53MOL0     C 7025   9.506   1.864   0.378 -0.1320  0.0717 -0.2521
   53MOL0     C 7026   9.609   1.915   0.299  0.1961 -0.1718  0.2625
   53MOL0     C 7027   9.746   1.904   0.345  0.1734 -1.4073 -0.0056
   53MOL0     O 7028   9.840   1.965   0.266  0.3946 -0.0764  1.4778
   53MOL0     C 7029   9.838   2.108   0.268  0.5917  0.3098  0.2422
   53MOL0     C 7030   9.978   2.154   0.254 -0.5035 -0.4311  0.5306
   53MOL0     C 7031  10.041   2.110   0.128  0.1128 -0.4945 -0.4464
   53MOL0     C 7032  10.168   2.181   0.095  1.1232 -0.2599  0.4198
   53MOL0     C 7033  10.287   2.121   0.169  0.3330  0.3782 -0.3235
   53MOL0     C 7034  10.415   2.188   0.129 -1.0094 -0.3154 -0.7351
   53MOL0     C 7035  10.464   2.173  -0.022  0.2773  0.5256  0.1169
   53MOL0     C 7036  10.591   2.251  -0.063  0.1481  0.0407  0.4844
   53MOL0     N 7037  10.708   2.198   0.013  0.2454  0.4463 -0.3652
   53MOL0     C 7038  10.812   2.125  -0.046  0.7066 -0.1318  0.2882
   53MOL0     C 7039  10.901   2.110   0.054  0.5224 -0.2729 -0.2697
   53MOL0     C 7040  11.016   2.018   0.032 -0.1050 -0.3800  1.0357
   53MOL0     C 7041  11.154   2.064   0.078 -0.7710 -0.5306  0.7105
   53MOL0     C 7042  11.171   2.080   0.226 -0.4728 -0.6397 -0.1549
   53MOL0     C 7043  11.128   1.960   0.301  0.5032 -0.1271  0.8322
   53MOL0     O 7044  11.210   1.836   0.264 -0.2563  0.1451 -0.1849
   53MOL0     C 7045  11.335   1.828   0.314 -0.7007  0.0446  0.0666
   53MOL0     C 7046  11.410   1.730   0.261  0.0357  0.3636 -0.2338
   53MOL0     C 7047  11.548   1.713   0.296  0.7108 -1.0881 -0.5114
   53MOL0     C 7048  11.598   1.798   0.388  0.1776 -0.0708  0.2938
   53MOL0     C 7049  11.735   1.786   0.414 -0.6388 -0.3926 -1.4453
   53MOL0     O 7050  11.817   1.779   0.307  0.2672  0.2849  0.4938
   53MOL0     C 7051  11.950   1.798   0.329 -0.3584  0.1172  0.3599
   53MOL0     C 7052  12.002   1.916   0.386 -0.3884  0.1666 -0.8854
   53MOL0     C 7053  12.144   1.931   0.409 -0.1486  0.4525 -0.6227
   53MOL0     C 7054  12.231   1.820   0.389  0.2812 -0.4535  0.4326
   53MOL0     O 7055  12.368   1.826   0.414 -0.2502  0.7590  0.4076
   53MOL0     C 7056  12.407   1.908   0.529 -0.1724  0.9417 -0.2091
   53MOL0     C 7057  12.547   1.864   0.556 -0.3241 -0.2922 -0.6208
   53MOL0     C 7058  12.654   1.888   0.439  0.0934  0.5719 -0.9590
   53MOL0     C 7059  12.785   1.871   0.512  0.1705 -0.0998  1.9547
   53MOL0     C 7060  12.906   1.862   0.412  0.6861 -0.1930  0.1324
   53MOL0     C 7061  13.048   1.854   0.468  1.4204 -0.3427 -0.2398
   53MOL0     C 7062  13.094   1.972   0.560 -0.3388  0.6736  0.3782
   53MOL0     C 7063  13.114   2.111   0.493 -0.5401 -0.0225 -0.7896
   53MOL0    Cl 7064  13.160   2.238   0.615  0.1372  0.1540  0.4237
   53MOL0     C 7065  12.173   1.706   0.335 -0.9225  0.6600 -0.7400
   53MOL0     C 7066  12.040   1.701   0.303 -1.0360 -0.1339  0.2333
   53MOL0     O 7067  11.772   1.793   0.534 -0.6170  0.2432 -0.5578
   53MOL0     C 7068  11.530   1.902   0.451 -0.2137  0.5525  0.9405
   53MOL0     C 7069  11.401   1.917   0.410  0.3209 -0.1742  0.0658
   53MOL0     N 7070  10.873   2.194   0.159 -0.4869  0.2415 -0.3514
   53MOL0     N 7071  10.757   2.246   0.132 -0.4708 -0.6093 -0.3772
   53MOL0     C 7072   9.770   1.842   0.457 -0.8993  1.4067  0.4147
   53MOL0     C 7073   9.666   1.778   0.535  0.2465 -0.4493 -0.5060
   53MOL0     C 7074   9.192   1.681   0.636 -1.0188  0.1542 -0.2037
   53MOL0     C 7075   9.066   1.740   0.635 -1.1342 -0.9698  0.9547
   53MOL0     C 7076   8.954   1.666   0.671 -0.0590 -0.1325 -0.7538
   53MOL0     C 7077   8.970   1.541   0.729  0.3621 -0.3716 -0.2741
   53MOL0     O 7078   8.866   1.457   0.770  0.1187 -0.1007  0.3271
   53MOL0     C 7079   8.741   1.463   0.705 -0.1206 -0.3702 -0.0517
   53MOL0     C 7080   8.744   1.431   0.552 -0.3438  0.8461  0.2668
   53MOL0     C 7081   8.608   1.420   0.486  0.7275  0.3556  0.4332
   53MOL0     C 7082   8.626   1.450   0.343 -0.1685 -0.8634  0.1539
   53MOL0     C 7083   8.503   1.462   0.266 -0.5703  0.4047  0.5438
   53MOL0     C 7084   8.408   1.459   0.189 -0.8550 -0.3884  0.2869
   53MOL0     C 7085   9.098   1.479   0.731  1.1041 -0.0001  0.5481
   53MOL0     C 7086   9.209   1.545   0.673  1.1997 -0.7670  0.0363
   53MOL0     C 7087   9.339   1.464   0.673 -0.3108  0.8023  0.1131
   53MOL0     H 7088   9.406   1.874   0.335 -0.4616 -2.0719 -0.0901
   53MOL0     H 7089   9.576   1.959   0.206 -2.1321  0.1802  1.1981
   53MOL0     H 7090   9.789   2.152   0.181  1.4233  0.1850 -0.3056
   53MOL0     H 7091   9.805   2.137   0.368  1.0060  0.2163  0.4111
   53MOL0     H 7092  10.035   2.121   0.342  0.4533 -0.5549 -0.1120
   53MOL0     H 7093   9.987   2.262   0.244 -0.3238 -0.6128 -1.9242
   53MOL0     H 7094   9.973   2.117   0.043  1.3386 -0.0869 -1.4107
   53MOL0     H 7095  10.070   2.007   0.150  1.1498 -0.5964 -2.1753
   53MOL0     H 7096  10.179   2.173  -0.013  1.6298  1.1607  0.3486
   53MOL0     H 7097  10.171   2.289   0.113  0.7137 -0.5413  2.3647
   53MOL0     H 7098  10.273   2.131   0.278  0.0778 -1.2134 -0.1876
   53MOL0     H 7099  10.298   2.015   0.149 -1.1125 -0.2438  1.7804
   53MOL0     H 7100  10.405   2.296   0.141 -3.5377 -0.6264  0.7843
   53MOL0     H 7101  10.499   2.145   0.184 -2.1107  0.8980  2.1405
   53MOL0     H 7102  10.373   2.187  -0.082  0.4909 -3.3505 -1.4424
   53MOL0     H 7103  10.487   2.066  -0.027  0.0140  0.3919  1.3273
   53MOL0     H 7104  10.597   2.238  -0.171 -2.3958  2.0061  0.0052
   53MOL0     H 7105  10.575   2.357  -0.039 -3.1890 -0.6455  1.8214
   53MOL0     H 7106  10.818   2.076  -0.142 -0.4909 -0.7637  0.5104
   53MOL0     H 7107  10.984   1.930   0.089  0.0889  0.2087  2.0790
   53MOL0     H 7108  11.011   1.983  -0.071 -2.9173  1.3436  0.4603
   53MOL0     H 7109  11.230   1.990   0.051 -1.3017 -1.3375  1.3681
   53MOL0     H 7110  11.175   2.160   0.031 -0.6356 -0.5723  0.6830
   53MOL0     H 7111  11.121   2.172   0.258 -1.7546 -1.7977  1.3128
   53MOL0     H 7112  11.270   2.117   0.256  0.1390 -2.4225  0.1421
   53MOL0     H 7113  11.022   1.946   0.281  0.5478 -0.0801  0.5580
   53MOL0     H 7114  11.144   1.968   0.409  2.2922  1.4663  0.5032
   53MOL0     H 7115  11.380   1.657   0.187 -0.6849 -0.3557  0.7478
   53MOL0     H 7116  11.599   1.636   0.238  1.1861  1.3178 -3.5519
   53MOL0     H 7117  11.924   1.971   0.437 -0.5842 -0.3099 -0.6652
   53MOL0     H 7118  12.191   2.017   0.456 -0.8047  1.1860 -1.3003
   53MOL0     H 7119  12.410   2.011   0.492 -0.8683 -0.2328 -3.8934
   53MOL0     H 7120  12.327   1.902   0.604 -2.3205  1.4874 -2.3402
   53MOL0     H 7121  12.583   1.922   0.641 -1.2078 -0.4163 -0.1501
   53MOL0     H 7122  12.541   1.761   0.592  0.7348  0.0188  0.5149
   53MOL0     H 7123  12.644   1.807   0.366  0.6907  0.9842 -1.5067
   53MOL0     H 7124  12.633   1.985   0.393 -1.9178  1.2353  1.1488
   53MOL0     H 7125  12.785   1.783   0.577  1.0445  0.8708  3.3245
   53MOL0     H 7126  12.795   1.958   0.578 -0.8457  0.1736  1.7532
   53MOL0     H 7127  12.910   1.962   0.366  2.3700 -1.6924 -3.4121
   53MOL0     H 7128  12.890   1.787   0.334 -0.3202  1.5348 -1.4026
   53MOL0     H 7129  13.066   1.758   0.516  1.0998 -1.4742 -2.2625
   53MOL0     H 7130  13.098   1.854   0.370 -1.3280  0.2832 -1.7628
   53MOL0     H 7131  13.188   1.940   0.605 -0.1376  3.5897  2.2936
   53MOL0     H 7132  13.016   1.990   0.636  0.2998  3.5367  0.4662
   53MOL0     H 7133  13.182   2.110   0.407  1.7081  1.3437  0.8750
   53MOL0     H 7134  13.020   2.133   0.440 -1.0614  0.9314  0.4748
   53MOL0     H 7135  12.252   1.634   0.315 -1.8977 -0.7239  0.1496
   53MOL0     H 7136  11.999   1.604   0.277 -3.0685 -0.3414  3.6623
   53MOL0     H 7137  11.581   1.965   0.523  1.1661  1.9507 -1.1776
   53MOL0     H 7138  11.352   1.999   0.462  2.5857 -0.6796  3.3035
   53MOL0     H 7139   9.870   1.835   0.498 -1.1766  0.6660  0.9965
   53MOL0     H 7140   9.672   1.729   0.632 -0.7353 -1.3681 -0.8866
   53MOL0     H 7141   9.054   1.841   0.599 -1.1372 -1.2711  0.1016
   53MOL0     H 7142   8.865   1.727   0.678  1.1092  1.7251 -1.4949
   53MOL0     H 7143   8.693   1.561   0.714  1.3644  0.3471  0.3473
   53MOL0     H 7144   8.669   1.395   0.750  0.3231 -0.1158  1.0792
   53MOL0     H 7145   8.801   1.342   0.524  0.0063  1.4006 -0.8569
   53MOL0     H 7146   8.797   1.510   0.499  0.9974 -0.2186 -0.0399
   53MOL0     H 7147   8.541   1.498   0.526  1.5919  1.3860 -0.0834
   53MOL0     H 7148   8.558   1.324   0.506  1.3980 -0.0976 -0.0414
   53MOL0     H 7149   8.681   1.543   0.325  1.5196 -1.8856 -0.2281
   53MOL0     H 7150   8.685   1.369   0.299 -1.3290 -1.8739  0.3922
   53MOL0     H 7151   8.329   1.470   0.117  2.3043  1.9767 -3.1629
   53MOL0     H 7152   9.103   1.375   0.762  1.9004  0.3740  1.7753
   53MOL0     H 7153   9.362   1.424   0.574 -0.3231 -1.3203  0.9313
   53MOL0     H 7154   9.427   1.518   0.709  0.7660  0.4543 -1.8561
   53MOL0     H 7155   9.317   1.373   0.728  0.7846 -0.2638 -1.1522
   54MOL0     O 7156   2.966   2.319   0.489  0.3898 -0.2586  0.9885
   54MOL0     C 7157   3.023   2.320   0.376 -0.2017 -0.0597 -0.9103
   54MOL0     O 7158   2.964   2.330   0.254  0.0999 -0.4264  0.7299
   54MOL0     C 7159   2.828   2.310   0.241 -1.2127 -0.8553  0.5762
   54MOL0     C 7160   2.729   2.409   0.228  0.4009  0.5075 -0.2915
   54MOL0     C 7161   2.591   2.369   0.213 -1.6292 -1.9308  0.2651
   54MOL0     C 7162   2.552   2.236   0.221 -0.8170 -1.5543 -0.0910
   54MOL0     O 7163   2.416   2.209   0.197  0.3746 -0.3020  0.0799
   54MOL0     C 7164   2.380   2.065   0.180 -0.1367 -0.5245  0.8649
   54MOL0     C 7165   2.413   1.995   0.048 -0.1634 -0.5190 -0.0568
   54MOL0     C 7166   2.376   2.086  -0.079  0.1201 -0.5755 -0.6000
   54MOL0     C 7167   2.410   2.025  -0.209  0.1568  0.7115 -0.3193
   54MOL0     C 7168   2.316   2.059  -0.327  0.2329  0.0209  0.3881
   54MOL0     C 7169   2.374   1.988  -0.461 -0.2581  0.5283 -0.6282
   54MOL0     C 7170   2.479   2.065  -0.541  0.5529 -0.0267  0.3057
   54MOL0     C 7171   2.421   2.203  -0.587  0.0850  1.0113  0.1739
   54MOL0     N 7172   2.522   2.289  -0.646  0.0257 -0.7171 -0.2178
   54MOL0     C 7173   2.590   2.254  -0.760 -0.0963 -0.4652  0.5589
   54MOL0     C 7174   2.700   2.329  -0.762 -1.0564  0.1672 -0.5227
   54MOL0     C 7175   2.812   2.329  -0.865 -0.6625  0.7653  0.0259
   54MOL0     C 7176   2.956   2.330  -0.814 -0.5889  0.6845  0.3663
   54MOL0     C 7177   3.012   2.207  -0.733  0.9496 -0.4444 -0.4974
   54MOL0     C 7178   3.140   2.149  -0.794  0.3398 -0.2590 -0.1529
   54MOL0     O 7179   3.244   2.249  -0.798  0.2712 -0.4505 -0.7337
   54MOL0     C 7180   3.369   2.212  -0.827  0.2724  0.5473  1.3379
   54MOL0     C 7181   3.411   2.096  -0.887  1.3024  0.6735  1.1033
   54MOL0     C 7182   3.546   2.070  -0.912  0.3046  0.2808  0.4482
   54MOL0     C 7183   3.641   2.166  -0.867  0.9626  0.5489 -0.1474
   54MOL0     C 7184   3.787   2.127  -0.859 -0.6153  0.0959  1.1381
   54MOL0     O 7185   3.879   2.229  -0.836 -0.8958  0.0283 -0.1968
   54MOL0     C 7186   4.009   2.195  -0.819  0.1472  0.2324 -0.5582
   54MOL0     C 7187   4.066   2.252  -0.709 -0.3115  0.1892 -0.3828
   54MOL0     C 7188   4.202   2.226  -0.683  0.4020 -1.2336 -0.5368
   54MOL0     C 7189   4.275   2.148  -0.771  0.0906 -0.2308 -0.2680
   54MOL0     O 7190   4.396   2.112  -0.720  1.0783 -0.9338 -0.0710
   54MOL0     C 7191   4.489   2.100  -0.823 -0.5338  0.1302 -0.3588
   54MOL0     C 7192   4.630   2.117  -0.760 -0.6285 -0.0688  0.0568
   54MOL0     C 7193   4.666   2.264  -0.726  0.7230 -0.1135  0.1674
   54MOL0     C 7194   4.746   2.292  -0.593 -0.0430 -0.7821  0.1802
   54MOL0     C 7195   4.870   2.211  -0.587 -0.2101 -0.1587 -0.0563
   54MOL0     C 7196   4.942   2.241  -0.459  0.0670 -0.1263 -0.3248
   54MOL0     C 7197   5.053   2.138  -0.429  0.8835 -0.3555  0.8335
   54MOL0     C 7198   5.147   2.102  -0.540  0.6570 -0.4339 -0.7206
   54MOL0    Cl 7199   5.254   2.235  -0.592 -0.0424  0.2157 -0.3587
   54MOL0     C 7200   4.222   2.102  -0.891 -0.2108  0.1260 -0.0033
   54MOL0     C 7201   4.086   2.125  -0.912  0.1509 -0.4564  1.3731
   54MOL0     O 7202   3.808   2.004  -0.876  0.2952 -0.7663 -0.6066
   54MOL0     C 7203   3.602   2.295  -0.818  0.5845  0.9715  0.4148
   54MOL0     C 7204   3.464   2.315  -0.802  0.0712  0.7526 -0.2847
   54MOL0     N 7205   2.709   2.407  -0.643  0.0438  0.1319 -1.0368
   54MOL0     N 7206   2.600   2.377  -0.574  0.2723 -0.0682 -0.5813
   54MOL0     C 7207   2.655   2.147   0.237 -0.1827  0.0557 -0.6393
   54MOL0     C 7208   2.790   2.178   0.245 -0.3766  0.4844  0.1926
   54MOL0     C 7209   3.173   2.331   0.380 -0.2413  0.3008  0.2185
   54MOL0     C 7210   3.238   2.350   0.502  0.0840  0.0560 -0.3070
   54MOL0     C 7211   3.373   2.363   0.518  0.0170 -0.5263 -0.9256
   54MOL0     C 7212   3.457   2.374   0.402 -0.1346 -0.1316 -0.0299
   54MOL0     O 7213   3.591   2.402   0.406  0.3853  0.2173 -0.4797
   54MOL0     C 7214   3.651   2.442   0.537  0.3480 -0.0417  0.1772
   54MOL0     C 7215   3.765   2.537   0.517  0.3259  0.4032  0.0280
   54MOL0     C 7216   3.820   2.584   0.655 -0.1182  0.2174  0.4609
   54MOL0     C 7217   3.937   2.685   0.644  0.2619  0.3201 -0.0142
   54MOL0     C 7218   4.059   2.630   0.592 -0.3568 -0.0976 -1.0585
   54MOL0     C 7219   4.163   2.583   0.561 -0.5915  0.1351 -1.0511
   54MOL0     C 7220   3.392   2.374   0.273 -0.1811  0.5019  0.7647
   54MOL0     C 7221   3.254   2.348   0.255  0.4100  0.1900 -0.8721
   54MOL0     C 7222   3.200   2.358   0.114 -0.6219 -0.9621  0.3740
   54MOL0     H 7223   2.765   2.508   0.203  1.9911 -0.8038 -4.0780
   54MOL0     H 7224   2.518   2.448   0.198  1.6477  1.6368  1.5055
   54MOL0     H 7225   2.418   1.999   0.258  1.3157 -0.0457  0.6027
   54MOL0     H 7226   2.272   2.076   0.193  0.1199  0.4277  2.5059
   54MOL0     H 7227   2.358   1.901   0.044  1.9411 -1.8730  0.8657
   54MOL0     H 7228   2.518   1.964   0.046 -0.1726 -0.6958  1.3882
   54MOL0     H 7229   2.409   2.189  -0.066  1.6829 -1.1445  0.1399
   54MOL0     H 7230   2.267   2.093  -0.073  0.2245  0.4202  0.5306
   54MOL0     H 7231   2.514   2.043  -0.235 -0.1069  2.9123  0.0099
   54MOL0     H 7232   2.387   1.919  -0.192 -3.0837  1.3632 -0.0485
   54MOL0     H 7233   2.213   2.027  -0.310 -0.9224  2.3803 -1.7119
   54MOL0     H 7234   2.312   2.167  -0.341 -2.5029 -0.2784 -2.1443
   54MOL0     H 7235   2.411   1.888  -0.436 -0.9262 -0.3970 -3.0544
   54MOL0     H 7236   2.289   1.992  -0.530  0.3987 -2.6360 -1.7867
   54MOL0     H 7237   2.515   2.009  -0.628  1.8713 -1.7930  1.8967
   54MOL0     H 7238   2.561   2.100  -0.477  0.4695 -0.2554  0.5397
   54MOL0     H 7239   2.342   2.180  -0.658  1.2160 -0.3148 -0.7084
   54MOL0     H 7240   2.370   2.255  -0.505  0.3499  1.5503 -0.0027
   54MOL0     H 7241   2.560   2.181  -0.835  2.8574 -1.0489 -0.2223
   54MOL0     H 7242   2.821   2.243  -0.933  2.3188  1.0137 -0.0216
   54MOL0     H 7243   2.804   2.425  -0.916  2.3553  1.0682 -0.0655
   54MOL0     H 7244   3.026   2.354  -0.894  1.2790  0.7424  1.9294
   54MOL0     H 7245   2.974   2.418  -0.752  4.1114  2.4871 -2.9938
   54MOL0     H 7246   2.927   2.141  -0.715  0.2667  0.8770  1.4064
   54MOL0     H 7247   3.048   2.237  -0.634 -0.5505 -1.5578  0.4155
   54MOL0     H 7248   3.122   2.099  -0.890  0.3077  2.0632 -1.4321
   54MOL0     H 7249   3.178   2.088  -0.712  3.8767  1.5438 -0.2655
   54MOL0     H 7250   3.351   2.008  -0.907  0.9804  1.7860 -4.0630
   54MOL0     H 7251   3.577   1.973  -0.948  0.8980  0.6262  0.0027
   54MOL0     H 7252   4.002   2.317  -0.650 -0.1024 -0.7382  0.9034
   54MOL0     H 7253   4.256   2.260  -0.595  4.0197 -1.5217 -2.4481
   54MOL0     H 7254   4.480   1.996  -0.857 -4.2316 -0.8422  2.9362
   54MOL0     H 7255   4.481   2.175  -0.902 -2.3477 -1.7933 -2.1280
   54MOL0     H 7256   4.648   2.051  -0.675  1.8855  1.3725  0.7358
   54MOL0     H 7257   4.708   2.090  -0.832 -1.4399 -0.9151 -0.5370
   54MOL0     H 7258   4.729   2.301  -0.808  1.5751 -1.5019  0.1492
   54MOL0     H 7259   4.580   2.330  -0.724  1.6148  1.0788  2.5227
   54MOL0     H 7260   4.687   2.267  -0.504  2.8377 -0.7306  2.2324
   54MOL0     H 7261   4.772   2.397  -0.603  1.6836 -1.4164 -3.5511
   54MOL0     H 7262   4.943   2.227  -0.667  1.7868  0.2947  1.7833
   54MOL0     H 7263   4.851   2.104  -0.572  1.6830 -0.2238  2.5785
   54MOL0     H 7264   4.989   2.340  -0.461 -0.3953  0.1417  1.2626
   54MOL0     H 7265   4.877   2.235  -0.372 -0.3417  2.8729 -0.3147
   54MOL0     H 7266   4.995   2.048  -0.404 -1.1389  1.7656  4.6536
   54MOL0     H 7267   5.107   2.156  -0.336  1.4210 -0.8382  0.6201
   54MOL0     H 7268   5.200   2.012  -0.508  2.4371  0.1809 -1.8088
   54MOL0     H 7269   5.089   2.062  -0.624  1.5418  0.5756 -1.8535
   54MOL0     H 7270   4.275   2.027  -0.949 -0.3338 -1.6436  2.0296
   54MOL0     H 7271   4.037   2.094  -1.003  0.5594  1.4625  0.4489
   54MOL0     H 7272   3.673   2.369  -0.783  0.0194  0.9519  1.6521
   54MOL0     H 7273   3.440   2.408  -0.751  1.4151 -1.2053  4.5222
   54MOL0     H 7274   2.637   2.040   0.249  1.2339 -0.1216  0.2135
   54MOL0     H 7275   2.878   2.115   0.253  0.7258  1.9435  0.0045
   54MOL0     H 7276   3.191   2.352   0.600  2.3920 -1.3503  0.9253
   54MOL0     H 7277   3.412   2.368   0.619 -0.4135 -2.3611 -0.6376
   54MOL0     H 7278   3.682   2.354   0.594  0.9588  1.1052  1.6864
   54MOL0     H 7279   3.585   2.499   0.603 -0.7251 -1.5659  0.4591
   54MOL0     H 7280   3.745   2.630   0.464  1.0299  0.4794 -0.1199
   54MOL0     H 7281   3.841   2.480   0.462  0.0711 -1.4429  1.4487
   54MOL0     H 7282   3.856   2.493   0.704  0.9422  0.9056  0.9757
   54MOL0     H 7283   3.739   2.631   0.713 -0.6566  1.2705 -1.0743
   54MOL0     H 7284   3.914   2.771   0.581 -0.2335 -0.0348 -0.3252
   54MOL0     H 7285   3.957   2.724   0.745  4.1826  0.3467 -0.6594
   54MOL0     H 7286   4.255   2.550   0.519 -0.3795  1.9359 -2.1370
   54MOL0     H 7287   3.445   2.403   0.183 -3.3254 -0.5481 -1.6368
   54MOL0     H 7288   3.118   2.429   0.099 -1.1879 -1.9919 -1.6888
   54MOL0     H 7289   3.278   2.385   0.042  1.8115  1.2963  3.5323
   54MOL0     H 7290   3.143   2.271   0.082 -2.4114  0.7226 -1.3208
   55MOL0     O 7291   0.568   0.780   3.442  0.4702  0.2158  0.2367
   55MOL0     C 7292   0.682   0.769   3.398 -0.1104 -0.0134 -0.2869
   55MOL0     O 7293   0.789   0.828   3.453 -0.1501 -0.1068 -0.4922
   55MOL0     C 7294   0.791   0.878   3.581 -0.3526  0.1569  0.4258
   55MOL0     C 7295   0.878   0.984   3.613  0.4452 -0.6884 -0.7557
   55MOL0     C 7296   0.891   1.021   3.745 -0.2427  0.0576 -0.5669
   55MOL0     C 7297   0.823   0.974   3.851  0.7228  0.7809 -0.4574
   55MOL0     O 7298   0.843   1.028   3.975 -0.1117  0.5102 -0.8704
   55MOL0     C 7299   0.784   1.156   3.990 -0.7897  0.5763 -0.5813
   55MOL0     C 7300   0.736   1.180   4.138  0.4809 -0.7097 -0.0008
   55MOL0     C 7301   0.854   1.186   4.237  0.0472 -0.6207  0.0260
   55MOL0     C 7302   0.802   1.209   4.381 -0.1552 -0.3948  0.1073
   55MOL0     C 7303   0.746   1.353   4.392  0.1181 -0.3128 -0.5464
   55MOL0     C 7304   0.705   1.389   4.533 -0.1738  0.5376 -0.8473
   55MOL0     C 7305   0.590   1.495   4.546 -1.4163  0.9407  1.0025
   55MOL0     C 7306   0.641   1.632   4.520 -0.1785  0.6518  0.1096
   55MOL0     N 7307   0.542   1.728   4.573  0.0581 -0.8661 -0.4817
   55MOL0     C 7308   0.446   1.793   4.511  0.2050  0.6571  0.3463
   55MOL0     C 7309   0.382   1.877   4.593  0.2230  1.2464  0.8150
   55MOL0     C 7310   0.269   1.970   4.573  0.0972  0.4275 -0.0875
   55MOL0     C 7311   0.286   2.057   4.448 -0.8759 -0.3680  0.2255
   55MOL0     C 7312   0.412   2.145   4.446 -0.7839  0.3313 -0.1184
   55MOL0     C 7313   0.434   2.217   4.308  0.7652  0.7860 -0.1278
   55MOL0     O 7314   0.463   2.119   4.209 -0.4964 -0.2078 -0.4266
   55MOL0     C 7315   0.359   2.079   4.129  0.2192 -0.4821  0.6799
   55MOL0     C 7316   0.389   1.968   4.052  0.0003  0.4927 -0.2264
   55MOL0     C 7317   0.296   1.913   3.962  0.1495 -0.0993  0.0172
   55MOL0     C 7318   0.164   1.945   3.949  1.0739 -0.9956  0.2855
   55MOL0     C 7319   0.061   1.875   3.873 -0.0579  0.1391  0.2588
   55MOL0     O 7320   0.104   1.767   3.798 -0.0521  0.2203  0.1082
   55MOL0     C 7321   0.012   1.678   3.742 -0.9282 -0.8705  0.3746
   55MOL0     C 7322  -0.073   1.606   3.818  1.4485  0.6596 -0.4735
   55MOL0     C 7323  -0.167   1.518   3.770  0.3594  0.2462 -0.3861
   55MOL0     C 7324  -0.170   1.494   3.630  0.4337 -0.9525 -0.0565
   55MOL0     O 7325  -0.278   1.410   3.581 -0.0860  0.4211 -0.4030
   55MOL0     C 7326  -0.273   1.362   3.445 -0.1477  0.8694 -0.4212
   55MOL0     C 7327  -0.370   1.249   3.426 -0.0368  0.5225  0.5056
   55MOL0     C 7328  -0.371   1.225   3.273 -0.2167 -0.0452  0.1403
   55MOL0     C 7329  -0.498   1.152   3.234  0.2030 -0.1301  0.5139
   55MOL0     C 7330  -0.503   1.143   3.078  0.1826  0.1037 -0.4910
   55MOL0     C 7331  -0.401   1.060   2.997 -0.2530  0.0358 -0.4940
   55MOL0     C 7332  -0.430   1.078   2.844  0.6960 -0.2559  0.2846
   55MOL0     C 7333  -0.331   0.991   2.772  0.1694 -0.6960  0.0769
   55MOL0    Cl 7334  -0.345   0.995   2.587  0.2084  0.0182 -0.0559
   55MOL0     C 7335  -0.086   1.572   3.544  0.0813 -1.1671 -0.4768
   55MOL0     C 7336   0.002   1.669   3.605 -0.3297 -0.3393  0.3185
   55MOL0     O 7337  -0.055   1.906   3.889  0.8909  0.1107 -0.0838
   55MOL0     C 7338   0.126   2.053   4.040  0.2164 -0.6510 -0.7287
   55MOL0     C 7339   0.219   2.122   4.126  0.2488 -0.5063 -0.1327
   55MOL0     N 7340   0.446   1.848   4.718  0.4338  0.6965  0.0117
   55MOL0     N 7341   0.537   1.761   4.699 -0.0086 -0.7907  0.2443
   55MOL0     C 7342   0.735   0.871   3.823 -0.6229  0.0037  0.2474
   55MOL0     C 7343   0.732   0.813   3.689 -0.3650  0.1987 -1.0401
   55MOL0     C 7344   0.704   0.720   3.255  1.0198 -0.1203 -0.3197
   55MOL0     C 7345   0.808   0.769   3.183  0.5258 -0.5001  0.3183
   55MOL0     C 7346   0.822   0.730   3.044 -0.1307 -0.1948 -0.8242
   55MOL0     C 7347   0.718   0.650   2.984 -0.2657  0.6240 -0.0166
   55MOL0     O 7348   0.747   0.611   2.858  0.9947 -0.9253 -0.3959
   55MOL0     C 7349   0.671   0.511   2.787 -0.7088  0.0353 -0.0467
   55MOL0     C 7350   0.742   0.486   2.647  0.2500  0.0005 -0.7606
   55MOL0     C 7351   0.892   0.457   2.656 -0.2524  1.0220  1.6705
   55MOL0     C 7352   0.951   0.456   2.507 -0.1267 -0.3819 -0.0225
   55MOL0     C 7353   1.096   0.451   2.513 -0.7239 -0.4673 -1.8378
   55MOL0     C 7354   1.217   0.438   2.534 -0.2245  0.0360 -0.1742
   55MOL0     C 7355   0.610   0.606   3.061  0.3731  0.3425  0.4240
   55MOL0     C 7356   0.607   0.637   3.198 -0.4743 -0.1262  0.1831
   55MOL0     C 7357   0.481   0.576   3.264 -0.7187 -0.5649  0.9259
   55MOL0     H 7358   0.933   1.033   3.533 -0.2464  0.3800 -0.6039
   55MOL0     H 7359   0.971   1.094   3.756 -2.9229  3.2524 -0.9874
   55MOL0     H 7360   0.858   1.232   3.964 -0.4458  0.1137 -0.9653
   55MOL0     H 7361   0.704   1.158   3.916 -0.5413  2.2023 -0.8517
   55MOL0     H 7362   0.675   1.093   4.163 -0.1796 -0.0446  0.7838
   55MOL0     H 7363   0.680   1.274   4.141 -3.6796 -2.9560  2.6885
   55MOL0     H 7364   0.906   1.270   4.191 -2.5833  3.2983  3.3984
   55MOL0     H 7365   0.911   1.093   4.233 -0.2762 -0.7741 -1.6351
   55MOL0     H 7366   0.725   1.136   4.407 -0.9990 -0.0329 -1.2759
   55MOL0     H 7367   0.887   1.188   4.446 -0.7728 -0.1666  1.0040
   55MOL0     H 7368   0.811   1.433   4.356 -1.6349  1.4582  0.0357
   55MOL0     H 7369   0.658   1.347   4.328 -1.3723  2.9116  0.9717
   55MOL0     H 7370   0.670   1.295   4.578 -1.1287 -0.7263 -3.9770
   55MOL0     H 7371   0.794   1.419   4.589 -0.9125 -0.9259  1.2569
   55MOL0     H 7372   0.545   1.476   4.643 -0.3921 -1.6203  1.0653
   55MOL0     H 7373   0.516   1.475   4.468  0.6516  2.7587 -1.6317
   55MOL0     H 7374   0.743   1.639   4.557  0.5806 -0.8202 -1.5870
   55MOL0     H 7375   0.662   1.638   4.413  2.6719 -1.6611  0.4215
   55MOL0     H 7376   0.432   1.783   4.404  0.6949 -1.1559  0.4166
   55MOL0     H 7377   0.175   1.916   4.563 -0.9036  1.9476  0.6714
   55MOL0     H 7378   0.257   2.034   4.661  1.6655  0.2711  0.2672
   55MOL0     H 7379   0.289   1.980   4.371  1.8517 -1.5435  1.3829
   55MOL0     H 7380   0.200   2.124   4.455 -0.0327  0.5772  2.7033
   55MOL0     H 7381   0.502   2.087   4.466 -0.8680  0.1086 -0.3746
   55MOL0     H 7382   0.401   2.217   4.527 -1.0196 -0.0553  0.1986
   55MOL0     H 7383   0.531   2.267   4.320  0.6692  1.0789 -0.5726
   55MOL0     H 7384   0.360   2.297   4.296  1.3924  1.4232  0.1879
   55MOL0     H 7385   0.487   1.925   4.066 -0.2041  0.1743  0.2236
   55MOL0     H 7386   0.327   1.825   3.906 -0.7279  0.7833 -1.9606
   55MOL0     H 7387  -0.067   1.629   3.924  2.3954  0.2871 -0.4325
   55MOL0     H 7388  -0.245   1.468   3.826  1.3425 -0.8722  0.0321
   55MOL0     H 7389  -0.299   1.438   3.370 -1.2316  0.1578 -0.7897
   55MOL0     H 7390  -0.172   1.324   3.428 -0.3329  0.6687 -1.1028
   55MOL0     H 7391  -0.345   1.170   3.496 -2.0204  2.2231  3.3330
   55MOL0     H 7392  -0.473   1.272   3.456 -0.5233 -0.2946 -0.4994
   55MOL0     H 7393  -0.380   1.321   3.222 -0.2701 -1.4218 -2.6518
   55MOL0     H 7394  -0.279   1.183   3.231  0.7844  0.4584  1.7544
   55MOL0     H 7395  -0.590   1.207   3.253  0.6431  1.8785 -2.4265
   55MOL0     H 7396  -0.508   1.053   3.279 -1.8099 -0.8554 -1.2910
   55MOL0     H 7397  -0.505   1.246   3.040  0.9567  0.2673 -0.1027
   55MOL0     H 7398  -0.605   1.111   3.056  0.6012 -2.1809  0.5876
   55MOL0     H 7399  -0.308   1.103   3.033 -0.2445 -2.2375  2.7162
   55MOL0     H 7400  -0.399   0.956   3.033 -0.8537 -0.0862 -0.7964
   55MOL0     H 7401  -0.415   1.180   2.807  1.9504 -1.2034 -2.0608
   55MOL0     H 7402  -0.533   1.045   2.828  0.6593 -0.5455  1.0665
   55MOL0     H 7403  -0.234   1.021   2.812 -0.2611  1.0856 -0.1541
   55MOL0     H 7404  -0.347   0.885   2.798 -1.4997 -0.2814  0.8933
   55MOL0     H 7405  -0.082   1.554   3.437  0.0167 -2.3393 -0.2949
   55MOL0     H 7406   0.056   1.739   3.543 -0.3784 -3.0868 -3.1219
   55MOL0     H 7407   0.031   2.102   4.024  0.7080  0.0448 -1.6184
   55MOL0     H 7408   0.176   2.202   4.184  1.2574  0.8838 -1.2023
   55MOL0     H 7409   0.673   0.823   3.898 -2.5105 -3.0167 -2.9051
   55MOL0     H 7410   0.669   0.728   3.668  0.8042 -1.8571  2.8966
   55MOL0     H 7411   0.889   0.827   3.227  0.9710  1.5198 -2.8070
   55MOL0     H 7412   0.899   0.767   2.977 -0.9793 -2.3598 -3.1513
   55MOL0     H 7413   0.571   0.548   2.763 -1.7209 -2.2435  0.4288
   55MOL0     H 7414   0.676   0.417   2.841  1.9851 -0.4817 -1.0061
   55MOL0     H 7415   0.734   0.589   2.611  1.8833  0.1985 -0.6628
   55MOL0     H 7416   0.690   0.412   2.587  0.8047 -2.1616  1.2468
   55MOL0     H 7417   0.901   0.358   2.701 -2.9692  0.2811  0.8127
   55MOL0     H 7418   0.948   0.531   2.713  1.9468  1.6232 -1.0634
   55MOL0     H 7419   0.913   0.377   2.440 -0.5174 -0.1990 -0.0181
   55MOL0     H 7420   0.918   0.554   2.472  1.8508  0.8735  1.4406
   55MOL0     H 7421   1.321   0.416   2.550 -0.8700 -1.0070  3.1711
   55MOL0     H 7422   0.531   0.556   3.006  1.4314  1.7464 -2.6288
   55MOL0     H 7423   0.397   0.645   3.279  0.0300  0.9546 -1.3428
   55MOL0     H 7424   0.438   0.495   3.204  2.0666 -1.1388 -0.4602
   55MOL0     H 7425   0.507   0.524   3.357  0.4394 -0.7622  0.5023
   56MOL0     O 7426   8.874  10.856   9.411 -0.0512  0.0966  0.9247
   56MOL0     C 7427   8.773  10.826   9.343 -0.4974  0.3369  0.9980
   56MOL0     O 7428   8.680  10.915   9.290 -0.0054  0.3225  0.2754
   56MOL0     C 7429   8.681  11.050   9.314 -0.1350 -0.2370 -0.1374
   56MOL0     C 7430   8.563  11.114   9.274  0.4824  0.0460 -0.2755
   56MOL0     C 7431   8.541  11.253   9.304  0.6518 -0.3783  0.0570
   56MOL0     C 7432   8.623  11.335   9.379 -0.4658 -1.3985 -0.2863
   56MOL0     O 7433   8.601  11.476   9.396 -0.5918  0.1310  0.4777
   56MOL0     C 7434   8.656  11.529   9.517  0.0097 -1.1141 -0.3824
   56MOL0     C 7435   8.572  11.644   9.555 -0.5223  0.4631  0.7099
   56MOL0     C 7436   8.620  11.716   9.681  0.3835 -0.0826  0.0428
   56MOL0     C 7437   8.754  11.786   9.652  0.2593 -0.1908 -0.0247
   56MOL0     C 7438   8.779  11.894   9.753  0.2786 -0.4170 -0.2104
   56MOL0     C 7439   8.912  11.960   9.712  1.0035  0.6954 -0.2162
   56MOL0     C 7440   8.924  12.083   9.813 -0.7489  0.7187  0.3978
   56MOL0     C 7441   8.856  12.211   9.766 -0.3119  0.0992  0.1174
   56MOL0     N 7442   8.892  12.314   9.867 -0.0148  0.7357  0.1320
   56MOL0     C 7443   9.020  12.360   9.884  0.3554  0.4924 -0.5712
   56MOL0     C 7444   9.001  12.451   9.981  0.4345 -1.1195 -0.6999
   56MOL0     C 7445   9.115  12.541  10.027  0.0896 -0.4424 -0.3511
   56MOL0     C 7446   9.230  12.462  10.070  0.2866 -1.1930 -0.6049
   56MOL0     C 7447   9.319  12.543  10.166 -0.0260  0.4954  0.1526
   56MOL0     C 7448   9.396  12.439  10.248  0.0012 -0.0974  0.9458
   56MOL0     O 7449   9.489  12.368  10.168 -0.8227 -0.3717  0.1774
   56MOL0     C 7450   9.578  12.439  10.093 -0.0255  0.6784 -0.2340
   56MOL0     C 7451   9.652  12.552  10.138  0.1610 -0.5592 -0.6771
   56MOL0     C 7452   9.766  12.601  10.068 -0.0172  0.1896 -0.3505
   56MOL0     C 7453   9.796  12.548   9.945 -0.2312 -0.4334  0.1212
   56MOL0     C 7454   9.918  12.582   9.882 -0.0097 -0.4806 -0.6925
   56MOL0     O 7455   9.982  12.692   9.933  0.1212 -0.8276 -0.2632
   56MOL0     C 7456  10.074  12.765   9.859  0.4530  0.3745 -0.6397
   56MOL0     C 7457  10.196  12.706   9.829  0.3216 -0.6634  0.1601
   56MOL0     C 7458  10.288  12.781   9.751  0.9173  0.1869  0.2039
   56MOL0     C 7459  10.250  12.906   9.695 -0.6287  0.3250  0.4008
   56MOL0     O 7460  10.347  12.976   9.625  0.2002 -0.7360 -0.0798
   56MOL0     C 7461  10.472  12.995   9.677  0.9229 -0.5941  0.4849
   56MOL0     C 7462  10.544  13.091   9.582 -0.4373  0.6981 -0.9955
   56MOL0     C 7463  10.695  13.089   9.605 -0.7977  0.5256 -0.4872
   56MOL0     C 7464  10.747  13.141   9.735 -0.1981  0.4352 -0.5395
   56MOL0     C 7465  10.894  13.158   9.747 -0.0863 -0.0365 -0.5060
   56MOL0     C 7466  10.922  13.222   9.878  0.2394  0.3935  0.6792
   56MOL0     C 7467  11.079  13.256   9.913 -0.5497 -0.7130 -0.1326
   56MOL0     C 7468  11.167  13.131   9.936 -0.4296  0.0991 -0.7928
   56MOL0    Cl 7469  11.232  13.089   9.770 -0.2494 -0.0362  0.3283
   56MOL0     C 7470  10.131  12.962   9.734  0.7965 -0.2712 -0.1003
   56MOL0     C 7471  10.037  12.892   9.815  0.5033  0.1002 -0.5353
   56MOL0     O 7472   9.943  12.536   9.773 -0.1689 -0.0234  0.5031
   56MOL0     C 7473   9.723  12.436   9.899 -0.4307 -0.6244 -0.7993
   56MOL0     C 7474   9.624  12.376   9.973  0.3681  0.6421  0.4084
   56MOL0     N 7475   8.869  12.454  10.014  0.0543 -0.5528 -0.0078
   56MOL0     N 7476   8.797  12.362   9.946 -0.7189 -0.3563  0.8868
   56MOL0     C 7477   8.746  11.273   9.409 -0.0385  0.6893  0.5664
   56MOL0     C 7478   8.773  11.132   9.378 -0.3557 -1.1521  0.9083
   56MOL0     C 7479   8.746  10.675   9.334  0.4408  0.1777  0.1798
   56MOL0     C 7480   8.837  10.585   9.387  0.7340 -0.5677  0.0210
   56MOL0     C 7481   8.816  10.447   9.388 -0.0623  0.2570 -0.3191
   56MOL0     C 7482   8.698  10.395   9.343  0.6878 -0.1969  0.3603
   56MOL0     O 7483   8.676  10.270   9.367 -0.1586 -0.4227 -0.1454
   56MOL0     C 7484   8.552  10.194   9.361  0.5792 -0.2043  1.1676
   56MOL0     C 7485   8.449  10.262   9.466 -0.1855  0.3048 -0.0388
   56MOL0     C 7486   8.508  10.272   9.611  0.3204  0.4858 -0.2629
   56MOL0     C 7487   8.403  10.338   9.702 -0.1230  0.5629  0.1264
   56MOL0     C 7488   8.311  10.243   9.760 -0.5917  0.1222  0.4557
   56MOL0     C 7489   8.232  10.168   9.808  0.0092  0.5054 -0.2705
   56MOL0     C 7490   8.597  10.482   9.275  0.0069  0.0930  0.4855
   56MOL0     C 7491   8.624  10.624   9.273 -0.7678  0.9332  0.4185
   56MOL0     C 7492   8.510  10.708   9.218  0.0911 -1.3260  0.9671
   56MOL0     H 7493   8.496  11.054   9.214 -0.8597 -0.2442  1.4467
   56MOL0     H 7494   8.441  11.285   9.276  1.4528  1.0475 -1.3390
   56MOL0     H 7495   8.657  11.455   9.597 -2.2103  0.3692  1.1561
   56MOL0     H 7496   8.751  11.582   9.504 -2.0096  3.0310  0.0462
   56MOL0     H 7497   8.471  11.608   9.577 -0.9337  0.0519 -1.5695
   56MOL0     H 7498   8.560  11.708   9.467 -1.2146 -3.1850 -2.1254
   56MOL0     H 7499   8.622  11.648   9.767  2.4774  0.6773  0.6471
   56MOL0     H 7500   8.544  11.792   9.701  2.2214  1.2755  2.2296
   56MOL0     H 7501   8.840  11.720   9.660 -1.7469 -2.9586 -0.0297
   56MOL0     H 7502   8.733  11.821   9.551 -2.0580 -0.9828  0.1047
   56MOL0     H 7503   8.698  11.968   9.752 -1.9138 -2.6811  1.0257
   56MOL0     H 7504   8.789  11.858   9.855  0.0568 -2.3119 -0.8159
   56MOL0     H 7505   8.996  11.893   9.729 -0.9445 -2.2614 -1.3926
   56MOL0     H 7506   8.897  11.992   9.609 -0.5147 -3.0436 -1.3127
   56MOL0     H 7507   9.030  12.103   9.831 -1.0867  1.1287  2.0545
   56MOL0     H 7508   8.890  12.057   9.914  2.3258  0.2160  1.4201
   56MOL0     H 7509   8.891  12.243   9.668 -0.0155  0.2198  0.2614
   56MOL0     H 7510   8.749  12.190   9.755  0.1491 -1.3122 -2.4272
   56MOL0     H 7511   9.107  12.314   9.838 -0.8730 -0.6203 -1.8870
   56MOL0     H 7512   9.140  12.606   9.942 -0.2900  1.7839  1.1549
   56MOL0     H 7513   9.079  12.598  10.113 -0.5839 -2.1027  0.5079
   56MOL0     H 7514   9.190  12.380  10.131 -1.0596 -1.0105 -1.1942
   56MOL0     H 7515   9.288  12.432   9.983  1.9646  0.8585 -0.2715
   56MOL0     H 7516   9.257  12.605  10.231  1.8470  1.4038  1.1399
   56MOL0     H 7517   9.379  12.612  10.105 -0.1903  1.3595  0.9468
   56MOL0     H 7518   9.328  12.374  10.304 -0.8151 -1.4243 -1.4383
   56MOL0     H 7519   9.462  12.486  10.321 -1.6194  1.3692  1.5357
   56MOL0     H 7520   9.617  12.601  10.228 -1.3402 -3.3516  0.4025
   56MOL0     H 7521   9.825  12.673  10.122  2.9332 -2.9212  0.9473
   56MOL0     H 7522  10.217  12.607   9.868  0.1741 -0.4995  0.6733
   56MOL0     H 7523  10.390  12.750   9.728  0.6668 -1.9351  1.6246
   56MOL0     H 7524  10.464  13.023   9.783 -3.4238  0.8191 -0.0330
   56MOL0     H 7525  10.529  12.902   9.684 -0.2746 -1.2358  2.6226
   56MOL0     H 7526  10.544  13.053   9.480  1.0871 -0.6330 -0.5361
   56MOL0     H 7527  10.506  13.194   9.578  1.4652  1.4042 -2.1199
   56MOL0     H 7528  10.725  12.984   9.601 -2.9670 -0.1183 -2.6532
   56MOL0     H 7529  10.742  13.135   9.517  0.4170 -3.2001 -1.9756
   56MOL0     H 7530  10.714  13.079   9.818  0.6421  0.1122 -0.4386
   56MOL0     H 7531  10.689  13.230   9.761 -2.5071 -1.3440  0.7747
   56MOL0     H 7532  10.924  13.216   9.659 -0.3809  1.9908  0.6497
   56MOL0     H 7533  10.944  13.062   9.764  1.5690  1.1746  2.1666
   56MOL0     H 7534  10.861  13.311   9.895 -0.9322 -0.4041  0.7848
   56MOL0     H 7535  10.878  13.164   9.960  0.1955 -0.5467  0.0054
   56MOL0     H 7536  11.078  13.320  10.003  1.3946 -1.9324  0.8424
   56MOL0     H 7537  11.132  13.321   9.842  0.4221 -2.0149 -0.6308
   56MOL0     H 7538  11.250  13.149  10.005 -0.3264 -1.9515 -0.3294
   56MOL0     H 7539  11.100  13.053   9.974 -0.6369  0.5230 -0.2633
   56MOL0     H 7540  10.110  13.053   9.678  1.7123  0.0816  0.1117
   56MOL0     H 7541   9.937  12.916   9.850  0.6845 -2.7116  2.4029
   56MOL0     H 7542   9.760  12.387   9.810 -0.1706 -0.0739 -0.9970
   56MOL0     H 7543   9.581  12.283   9.937  1.6688  0.5812 -1.0904
   56MOL0     H 7544   8.830  11.323   9.458 -0.2030  1.1457  0.3856
   56MOL0     H 7545   8.868  11.092   9.410  0.5921 -1.4201 -1.9190
   56MOL0     H 7546   8.922  10.615   9.447  0.2691  1.5739 -0.3250
   56MOL0     H 7547   8.881  10.383   9.446 -0.9564 -1.1991 -0.8655
   56MOL0     H 7548   8.562  10.086   9.372  3.1189 -0.0303  1.2245
   56MOL0     H 7549   8.511  10.203   9.261 -0.9361 -0.6163  1.7299
   56MOL0     H 7550   8.357  10.203   9.465 -0.0802  0.1262  0.4923
   56MOL0     H 7551   8.409  10.353   9.422  0.5676  0.0828 -1.2495
   56MOL0     H 7552   8.606  10.320   9.617  2.5056 -3.6790  1.5401
   56MOL0     H 7553   8.524  10.167   9.638 -1.3379 -0.2065 -1.7319
   56MOL0     H 7554   8.469  10.386   9.775  3.1525 -0.1811 -2.1492
   56MOL0     H 7555   8.342  10.410   9.646 -1.4806 -0.1729  0.6031
   56MOL0     H 7556   8.154  10.117   9.861  1.5159 -1.2934  0.3222
   56MOL0     H 7557   8.500  10.441   9.246 -0.3675 -0.5926  2.5886
   56MOL0     H 7558   8.463  10.777   9.289  1.2022  3.2878 -2.2824
   56MOL0     H 7559   8.548  10.773   9.139 -0.9973 -1.3663  0.4018
   56MOL0     H 7560   8.433  10.642   9.178  1.0780 -2.3215  0.6566
   57MOL0     O 7561   7.788   5.503   9.297  0.3578  0.2516  0.5343
   57MOL0     C 7562   7.679   5.498   9.350  0.1046  0.2224 -0.7323
   57MOL0     O 7563   7.658   5.521   9.484 -1.0542  0.4054  0.1294
   57MOL0     C 7564   7.752   5.584   9.565 -0.0239 -0.7580 -0.2026
   57MOL0     C 7565   7.891   5.556   9.571  0.7052 -0.4631 -0.3039
   57MOL0     C 7566   7.981   5.622   9.657 -0.2141 -1.3438  0.1208
   57MOL0     C 7567   7.933   5.731   9.735 -0.5021 -0.4058  0.0597
   57MOL0     O 7568   8.006   5.790   9.833 -0.4433  1.5474  0.0990
   57MOL0     C 7569   8.143   5.815   9.817  0.2082  0.1906 -0.1073
   57MOL0     C 7570   8.176   5.954   9.750  0.0680  0.2039 -0.8217
   57MOL0     C 7571   8.075   6.062   9.794 -0.1273  0.4610  0.4221
   57MOL0     C 7572   8.138   6.198   9.814 -0.4433 -0.3842  0.6941
   57MOL0     C 7573   8.210   6.247   9.691  0.3898 -0.5527  0.3513
   57MOL0     C 7574   8.263   6.391   9.706  1.3014 -0.1774  0.5444
   57MOL0     C 7575   8.352   6.411   9.587  1.0147 -0.1397  0.3386
   57MOL0     C 7576   8.417   6.548   9.588  0.3368 -0.1903  0.0175
   57MOL0     N 7577   8.359   6.657   9.504 -0.8889  0.3927  0.3850
   57MOL0     C 7578   8.429   6.720   9.405 -0.6965  0.3829 -0.6354
   57MOL0     C 7579   8.334   6.800   9.355  0.0075  0.7626  0.0301
   57MOL0     C 7580   8.365   6.881   9.236 -0.6411  0.4765 -0.4700
   57MOL0     C 7581   8.327   7.029   9.245 -0.4271 -0.5588  0.1228
   57MOL0     C 7582   8.393   7.104   9.359 -0.0119  0.1673 -0.2275
   57MOL0     C 7583   8.545   7.090   9.386  0.1684 -0.2904 -0.4492
   57MOL0     O 7584   8.617   7.082   9.268 -0.2650 -0.0893 -1.2236
   57MOL0     C 7585   8.726   6.998   9.276  0.1508 -0.9976 -0.7954
   57MOL0     C 7586   8.810   6.993   9.384  0.6313 -0.1171 -0.1929
   57MOL0     C 7587   8.923   6.914   9.374  0.0376  0.1299  0.3607
   57MOL0     C 7588   8.949   6.834   9.260 -0.1515  0.4433  0.9758
   57MOL0     C 7589   9.073   6.743   9.252 -0.0822 -0.2043  0.4512
   57MOL0     O 7590   9.132   6.714   9.367  0.3968 -0.5681 -0.3109
   57MOL0     C 7591   9.228   6.623   9.375 -0.8926  0.5122 -0.4871
   57MOL0     C 7592   9.202   6.499   9.323 -0.0343 -0.5220 -0.1008
   57MOL0     C 7593   9.309   6.410   9.300 -0.4900  0.1672 -0.3158
   57MOL0     C 7594   9.430   6.423   9.364  0.0878  0.3101 -0.3820
   57MOL0     O 7595   9.528   6.322   9.356 -0.0699 -0.5954  0.1777
   57MOL0     C 7596   9.489   6.189   9.327 -1.1702  0.7032 -0.5395
   57MOL0     C 7597   9.607   6.093   9.370  0.0853 -0.2680 -1.3208
   57MOL0     C 7598   9.722   6.106   9.269 -0.3093  0.0936  0.3653
   57MOL0     C 7599   9.696   6.045   9.131  0.3851  1.0851  0.7590
   57MOL0     C 7600   9.819   6.056   9.044 -0.5937 -0.2488  0.2435
   57MOL0     C 7601   9.816   5.973   8.913  0.3633  0.1194  0.7627
   57MOL0     C 7602   9.919   6.021   8.806  0.0184  0.0659 -0.2619
   57MOL0     C 7603  10.058   5.947   8.832 -0.6239  0.0479 -0.1103
   57MOL0    Cl 7604  10.200   6.056   8.774 -0.4736  0.2528  0.0541
   57MOL0     C 7605   9.454   6.545   9.424  0.2670  0.3123  0.1964
   57MOL0     C 7606   9.354   6.650   9.431 -0.8154 -0.4101  0.7036
   57MOL0     O 7607   9.103   6.705   9.140  0.5822  1.2262  1.0179
   57MOL0     C 7608   8.855   6.846   9.151 -0.5858 -0.8051 -0.5745
   57MOL0     C 7609   8.744   6.927   9.159  0.3732  0.4583 -0.6475
   57MOL0     N 7610   8.211   6.793   9.427  0.0720 -0.0743  0.8663
   57MOL0     N 7611   8.230   6.692   9.511  0.4392  0.7157  0.3837
   57MOL0     C 7612   7.788   5.766   9.727 -0.0184  0.5846  0.5989
   57MOL0     C 7613   7.709   5.692   9.647 -0.4852 -0.2352 -0.6708
   57MOL0     C 7614   7.556   5.474   9.280  0.0558 -0.5031  0.4068
   57MOL0     C 7615   7.443   5.554   9.293 -0.1490 -0.4903 -1.0219
   57MOL0     C 7616   7.317   5.528   9.238  0.6977 -0.0568 -0.3410
   57MOL0     C 7617   7.300   5.414   9.155  0.5269 -0.3801  0.0503
   57MOL0     O 7618   7.179   5.399   9.084  0.9167 -0.3397  0.5270
   57MOL0     C 7619   7.052   5.417   9.158 -0.0223  0.1318  0.4544
   57MOL0     C 7620   6.938   5.406   9.064 -0.2957 -0.1079 -0.6462
   57MOL0     C 7621   6.820   5.488   9.131 -0.1714  0.0792  0.1564
   57MOL0     C 7622   6.692   5.457   9.076  0.3467 -0.4136 -0.7102
   57MOL0     C 7623   6.593   5.538   9.157 -0.4497 -0.8338 -1.1049
   57MOL0     C 7624   6.498   5.583   9.226  0.6630  0.1926 -0.1347
   57MOL0     C 7625   7.412   5.339   9.127 -0.8163 -0.4893 -1.2109
   57MOL0     C 7626   7.534   5.360   9.193 -0.0625 -0.4988  0.1696
   57MOL0     C 7627   7.650   5.280   9.155 -0.3756  0.6105 -0.1960
   57MOL0     H 7628   7.930   5.473   9.514 -1.7353 -1.4942 -0.5996
   57MOL0     H 7629   8.081   5.579   9.651 -0.1181 -1.3413  1.5497
   57MOL0     H 7630   8.194   5.815   9.914 -1.4020  1.3241  0.7811
   57MOL0     H 7631   8.195   5.746   9.750 -1.4179 -2.0630  0.8393
   57MOL0     H 7632   8.187   5.939   9.642  3.1731  1.4267 -0.7893
   57MOL0     H 7633   8.278   5.984   9.777  0.1712  0.9932 -2.0228
   57MOL0     H 7634   8.020   6.038   9.885  1.2071 -1.0278  0.8908
   57MOL0     H 7635   7.998   6.072   9.717 -0.7528  0.9551  1.0972
   57MOL0     H 7636   8.058   6.270   9.832 -0.8192 -0.7992  0.7177
   57MOL0     H 7637   8.202   6.186   9.902 -1.0325 -2.6240  0.8856
   57MOL0     H 7638   8.295   6.180   9.674  2.0098  1.5617 -0.2318
   57MOL0     H 7639   8.139   6.233   9.609  0.2932 -0.7376  0.4636
   57MOL0     H 7640   8.185   6.469   9.710  1.6904  0.1468  2.6799
   57MOL0     H 7641   8.318   6.404   9.799  1.9103  0.2304  0.1317
   57MOL0     H 7642   8.286   6.394   9.501 -0.4839  0.3499  1.3372
   57MOL0     H 7643   8.437   6.343   9.593  0.1804 -1.2331  0.0411
   57MOL0     H 7644   8.416   6.601   9.683 -0.8734  3.6627 -1.9281
   57MOL0     H 7645   8.526   6.544   9.574  0.0221 -1.9058 -2.9892
   57MOL0     H 7646   8.520   6.705   9.347  1.3980 -1.7618  2.8620
   57MOL0     H 7647   8.466   6.857   9.203  0.8305  1.2304  3.0306
   57MOL0     H 7648   8.303   6.834   9.159  1.4024  0.6320 -2.3001
   57MOL0     H 7649   8.366   7.072   9.152 -3.1281  0.0667 -0.8225
   57MOL0     H 7650   8.218   7.039   9.239 -0.5579 -1.7635  0.3783
   57MOL0     H 7651   8.350   7.076   9.456  1.2348  0.0674  0.3085
   57MOL0     H 7652   8.372   7.209   9.335  2.0373  1.4058  2.7282
   57MOL0     H 7653   8.560   7.001   9.448 -2.4779 -1.1601 -0.9322
   57MOL0     H 7654   8.583   7.178   9.439  2.5211 -0.5099 -1.6748
   57MOL0     H 7655   8.791   7.062   9.465 -2.5496 -1.0471 -0.0157
   57MOL0     H 7656   8.992   6.898   9.456  0.6617  1.5890  0.1561
   57MOL0     H 7657   9.098   6.478   9.303  1.0315 -3.2107 -3.7278
   57MOL0     H 7658   9.280   6.329   9.235 -0.7407  0.3070 -0.3781
   57MOL0     H 7659   9.392   6.160   9.369 -1.1876  0.4143 -0.7842
   57MOL0     H 7660   9.475   6.180   9.219 -1.7081  0.9138 -0.4926
   57MOL0     H 7661   9.636   6.119   9.472 -2.3694  0.4398 -0.7215
   57MOL0     H 7662   9.577   5.988   9.382  2.8090 -0.9668  0.1741
   57MOL0     H 7663   9.743   6.210   9.247  4.8680 -1.0248 -1.3023
   57MOL0     H 7664   9.802   6.062   9.330  0.9866  1.4117 -0.3247
   57MOL0     H 7665   9.612   6.102   9.091 -1.2377 -0.2511  2.1076
   57MOL0     H 7666   9.682   5.937   9.129  2.8731  0.7148  0.6562
   57MOL0     H 7667   9.910   6.039   9.102 -1.0412  1.0191  1.3502
   57MOL0     H 7668   9.832   6.161   9.016  3.3637 -0.9697 -1.4063
   57MOL0     H 7669   9.836   5.872   8.950 -0.4609  0.3750  1.9565
   57MOL0     H 7670   9.719   5.985   8.865  0.5201  1.0523  0.6546
   57MOL0     H 7671   9.946   6.126   8.818  1.2454 -0.2965  0.2919
   57MOL0     H 7672   9.892   5.994   8.703 -1.9536 -1.9292  0.6863
   57MOL0     H 7673  10.073   5.942   8.940  0.5669  1.3121 -0.1899
   57MOL0     H 7674  10.050   5.843   8.797  2.2717  0.3416 -1.9613
   57MOL0     H 7675   9.547   6.576   9.472  0.1790  1.2689 -0.2322
   57MOL0     H 7676   9.360   6.748   9.478  1.0968 -0.2166  0.1220
   57MOL0     H 7677   8.878   6.788   9.063  0.2576 -1.5485  0.1110
   57MOL0     H 7678   8.671   6.936   9.079 -1.0446 -0.4423  0.5088
   57MOL0     H 7679   7.733   5.839   9.785 -0.8966 -2.1024  3.4058
   57MOL0     H 7680   7.604   5.720   9.641 -0.3648  0.4368  0.2562
   57MOL0     H 7681   7.453   5.638   9.361  2.2984 -1.5311  0.0137
   57MOL0     H 7682   7.240   5.601   9.262  0.2924 -0.5660 -0.0799
   57MOL0     H 7683   7.053   5.519   9.197 -2.0934  1.1917 -1.9847
   57MOL0     H 7684   7.053   5.344   9.239 -0.4412 -2.2418 -1.5764
   57MOL0     H 7685   6.916   5.301   9.043  1.2926 -0.8838  1.3253
   57MOL0     H 7686   6.974   5.457   8.974  0.9124  0.8186  0.3258
   57MOL0     H 7687   6.845   5.593   9.118 -0.2123 -0.1130 -1.8825
   57MOL0     H 7688   6.827   5.468   9.238  2.9855 -0.0767  0.0327
   57MOL0     H 7689   6.694   5.484   8.970  3.5553 -1.5222 -1.0257
   57MOL0     H 7690   6.679   5.349   9.083  0.1901 -0.2685  3.9271
   57MOL0     H 7691   6.418   5.594   9.296 -1.3684  0.1276 -2.2907
   57MOL0     H 7692   7.393   5.251   9.066 -2.0275 -2.6147  1.9594
   57MOL0     H 7693   7.707   5.350   9.092 -0.1631  1.3244  0.7671
   57MOL0     H 7694   7.709   5.243   9.239 -0.6820 -1.1066 -0.6897
   57MOL0     H 7695   7.621   5.189   9.100  0.4256 -0.1290  0.5835
   58MOL0     O 7696  10.903   6.660   0.969 -0.1445 -0.2308 -0.3163
   58MOL0     C 7697  10.979   6.573   1.010  0.1482 -0.2215  0.3120
   58MOL0     O 7698  11.024   6.461   0.939 -0.2039  0.1505 -0.0538
   58MOL0     C 7699  10.956   6.424   0.830  0.1303 -1.1082 -0.6616
   58MOL0     C 7700  10.826   6.375   0.843 -0.3043 -1.4755 -0.4720
   58MOL0     C 7701  10.760   6.330   0.731  0.2233  0.6174 -0.0192
   58MOL0     C 7702  10.834   6.318   0.609  0.4302  0.0832  0.2439
   58MOL0     O 7703  10.759   6.245   0.518  0.1866 -0.2943 -0.2110
   58MOL0     C 7704  10.824   6.223   0.392 -0.2631  0.7255  0.3732
   58MOL0     C 7705  10.949   6.138   0.426  0.2020 -0.8509  0.1943
   58MOL0     C 7706  11.038   6.127   0.310 -0.0074  0.2113  0.1008
   58MOL0     C 7707  10.983   6.015   0.214  0.6662  1.1568 -0.7868
   58MOL0     C 7708  11.046   6.018   0.075 -0.4899 -0.4411  0.1026
   58MOL0     C 7709  11.194   5.974   0.080  0.0114 -0.2587 -0.4856
   58MOL0     C 7710  11.250   5.951  -0.061  0.2537  1.1235  0.2223
   58MOL0     C 7711  11.387   5.899  -0.050 -0.0378 -0.1203 -0.3532
   58MOL0     N 7712  11.450   5.855  -0.177  0.2921 -0.7487 -0.1391
   58MOL0     C 7713  11.454   5.927  -0.292  0.0675 -0.6276 -0.1295
   58MOL0     C 7714  11.514   5.838  -0.376 -0.0062  0.2615 -0.0673
   58MOL0     C 7715  11.536   5.859  -0.527  0.4222  0.4929 -0.5592
   58MOL0     C 7716  11.662   5.931  -0.579 -0.3572  0.3140  0.1496
   58MOL0     C 7717  11.674   6.068  -0.514  0.2137 -0.3639 -0.4866
   58MOL0     C 7718  11.793   6.147  -0.571 -0.0732 -0.1424  0.2218
   58MOL0     O 7719  11.726   6.251  -0.657 -1.0223 -0.5032  0.0413
   58MOL0     C 7720  11.810   6.345  -0.718  0.3196  0.1502 -0.2891
   58MOL0     C 7721  11.950   6.319  -0.742  0.3898 -0.9709 -0.7867
   58MOL0     C 7722  12.020   6.409  -0.820  0.3757  0.7592  0.6960
   58MOL0     C 7723  11.958   6.535  -0.860 -0.1929 -0.2094 -0.3580
   58MOL0     C 7724  12.040   6.635  -0.925  0.5128 -0.5593 -0.3543
   58MOL0     O 7725  11.980   6.757  -0.950 -0.7024  0.1097  0.2835
   58MOL0     C 7726  12.051   6.867  -1.002 -0.3390  0.7354 -0.6668
   58MOL0     C 7727  11.986   6.991  -0.977 -0.1003 -0.4658 -0.3669
   58MOL0     C 7728  12.043   7.105  -1.033  0.2318 -0.4356 -0.5688
   58MOL0     C 7729  12.169   7.103  -1.095 -0.4185  0.4850 -0.0224
   58MOL0     O 7730  12.230   7.219  -1.141  0.1543 -0.3281 -0.1857
   58MOL0     C 7731  12.159   7.284  -1.240 -0.5346 -0.2896  0.1736
   58MOL0     C 7732  12.260   7.376  -1.318  0.0232  0.7155  0.0758
   58MOL0     C 7733  12.184   7.452  -1.423  0.3214 -0.0715 -0.8697
   58MOL0     C 7734  12.106   7.559  -1.358  0.1614  0.2727  0.1906
   58MOL0     C 7735  12.027   7.632  -1.466 -0.1703  0.0129 -0.2440
   58MOL0     C 7736  11.978   7.757  -1.399  0.7165  0.7024  0.1168
   58MOL0     C 7737  11.961   7.875  -1.506  0.1240  0.4151  0.4192
   58MOL0     C 7738  12.037   8.009  -1.472 -0.2519  0.1560 -0.1155
   58MOL0    Cl 7739  12.204   7.992  -1.510 -0.0095  0.0506  0.1364
   58MOL0     C 7740  12.231   6.982  -1.098 -0.1203  0.1924 -0.5312
   58MOL0     C 7741  12.176   6.860  -1.061 -0.0770 -0.4968  0.2549
   58MOL0     O 7742  12.150   6.594  -0.965  0.1873 -0.0172 -0.4427
   58MOL0     C 7743  11.828   6.559  -0.825 -0.8503 -0.4864  0.3259
   58MOL0     C 7744  11.746   6.460  -0.757 -0.4921  0.8900 -0.1426
   58MOL0     N 7745  11.555   5.732  -0.307  0.2707  0.4804  0.5075
   58MOL0     N 7746  11.524   5.745  -0.187  0.2145  0.3402  0.2815
   58MOL0     C 7747  10.952   6.397   0.592  1.1528 -0.0721 -0.0655
   58MOL0     C 7748  11.016   6.442   0.705 -0.9922  0.1664 -0.3056
   58MOL0     C 7749  11.029   6.591   1.150  0.3587 -0.2203 -0.4876
   58MOL0     C 7750  11.005   6.712   1.206 -0.2842 -0.6829 -0.4588
   58MOL0     C 7751  11.037   6.757   1.333  0.4687 -0.1435 -1.1072
   58MOL0     C 7752  11.076   6.654   1.425 -0.5232  0.4160  0.3262
   58MOL0     O 7753  11.103   6.665   1.554 -0.8096  0.1192  0.1132
   58MOL0     C 7754  11.109   6.801   1.609 -0.3314 -0.0235  0.9062
   58MOL0     C 7755  11.207   6.779   1.730  0.3533  0.2441 -0.6515
   58MOL0     C 7756  11.252   6.906   1.804  0.1389 -0.4325 -0.5791
   58MOL0     C 7757  11.322   7.001   1.709 -0.3148  0.2009 -0.2794
   58MOL0     C 7758  11.426   6.942   1.628 -0.0176  0.3046  0.9983
   58MOL0     C 7759  11.516   6.901   1.562  0.4176 -1.2483  1.1446
   58MOL0     C 7760  11.096   6.524   1.378 -0.5281 -0.0587  0.1141
   58MOL0     C 7761  11.073   6.491   1.237  0.0840 -0.2081  0.3733
   58MOL0     C 7762  11.098   6.355   1.196 -0.3930 -0.7709 -0.6441
   58MOL0     H 7763  10.764   6.390   0.930 -1.2757 -1.8461 -1.0857
   58MOL0     H 7764  10.664   6.282   0.747  0.4105  0.9456  2.5631
   58MOL0     H 7765  10.759   6.164   0.327  0.5898 -0.3952  0.4934
   58MOL0     H 7766  10.837   6.320   0.343  0.4658 -0.9312 -3.0202
   58MOL0     H 7767  10.917   6.037   0.452  2.6651 -1.7813 -0.0480
   58MOL0     H 7768  11.012   6.177   0.507  0.5648  4.5781 -2.2712
   58MOL0     H 7769  11.134   6.104   0.356  1.1285  1.8424 -1.3530
   58MOL0     H 7770  11.045   6.216   0.247 -0.0560  1.9860  2.4808
   58MOL0     H 7771  11.018   5.927   0.269  1.1734  1.8096 -0.0321
   58MOL0     H 7772  10.874   6.005   0.206  0.3801 -0.2556  2.7635
   58MOL0     H 7773  10.989   5.950   0.011 -4.0313 -0.8454  3.3185
   58MOL0     H 7774  11.037   6.113   0.021 -0.9107 -1.3620 -1.5290
   58MOL0     H 7775  11.262   6.050   0.121  0.2775 -0.1319 -1.1591
   58MOL0     H 7776  11.203   5.882   0.139 -2.6294 -0.5590 -0.4324
   58MOL0     H 7777  11.243   6.039  -0.125  2.0230  1.9262  1.0707
   58MOL0     H 7778  11.187   5.879  -0.116  2.1113  0.9075 -1.7422
   58MOL0     H 7779  11.456   5.977  -0.016  0.6237 -1.2800  1.0823
   58MOL0     H 7780  11.390   5.827   0.032  1.7850  0.4574  0.1400
   58MOL0     H 7781  11.406   6.019  -0.322  1.6134  1.6352  3.6043
   58MOL0     H 7782  11.527   5.764  -0.579 -1.8465  0.7480 -0.7308
   58MOL0     H 7783  11.451   5.910  -0.572 -0.3204  0.1769  0.4619
   58MOL0     H 7784  11.752   5.869  -0.577 -0.1660  0.4976 -1.4205
   58MOL0     H 7785  11.649   5.946  -0.686  0.2551 -0.6501 -0.0731
   58MOL0     H 7786  11.697   6.050  -0.408 -0.8995  2.7503  0.4027
   58MOL0     H 7787  11.581   6.124  -0.525 -1.4663 -3.4289 -3.7195
   58MOL0     H 7788  11.860   6.079  -0.623 -1.4663 -0.0512 -1.7975
   58MOL0     H 7789  11.843   6.208  -0.495 -2.0174  0.9648  0.6991
   58MOL0     H 7790  12.014   6.243  -0.700 -0.4958 -1.4167 -0.2284
   58MOL0     H 7791  12.121   6.380  -0.850 -0.2819  0.0723 -0.9606
   58MOL0     H 7792  11.892   6.989  -0.923  0.8867 -0.0517  1.4240
   58MOL0     H 7793  12.005   7.204  -1.011  1.2533 -0.4809  1.6556
   58MOL0     H 7794  12.119   7.211  -1.312  0.4851  0.4841 -1.2427
   58MOL0     H 7795  12.077   7.340  -1.195 -0.9933 -1.1168  0.3944
   58MOL0     H 7796  12.302   7.445  -1.244  2.2503  1.8881 -2.1266
   58MOL0     H 7797  12.342   7.310  -1.346  1.6902  1.6379  2.4469
   58MOL0     H 7798  12.256   7.492  -1.495  1.0359  0.5899  0.1812
   58MOL0     H 7799  12.128   7.377  -1.480  0.2084  0.4318 -1.4200
   58MOL0     H 7800  12.171   7.619  -1.295 -2.7959  0.7964  3.0280
   58MOL0     H 7801  12.025   7.521  -1.295  0.5649 -0.7724  0.0979
   58MOL0     H 7802  11.948   7.570  -1.510 -1.2315 -0.0163  1.6289
   58MOL0     H 7803  12.093   7.659  -1.550 -4.2572  2.9734 -2.8901
   58MOL0     H 7804  11.883   7.747  -1.346  0.7861  0.5487  0.2119
   58MOL0     H 7805  12.054   7.787  -1.325 -0.2335 -0.8324  1.7751
   58MOL0     H 7806  11.856   7.904  -1.512  0.2626  0.6387 -1.6805
   58MOL0     H 7807  11.990   7.847  -1.608 -0.5339 -1.1813  0.6377
   58MOL0     H 7808  12.008   8.085  -1.545  1.8036  1.9399  0.8358
   58MOL0     H 7809  12.021   8.040  -1.368 -3.2942  0.5794 -0.6055
   58MOL0     H 7810  12.329   6.984  -1.145 -1.2345  0.2576 -2.9823
   58MOL0     H 7811  12.238   6.772  -1.073  0.2687 -0.2263  0.0749
   58MOL0     H 7812  11.780   6.653  -0.852 -1.9259 -1.0788  0.0972
   58MOL0     H 7813  11.643   6.474  -0.727 -0.1682 -1.1510  2.2954
   58MOL0     H 7814  10.993   6.423   0.495  1.4457  0.6643  0.2494
   58MOL0     H 7815  11.101   6.508   0.692  0.7561 -2.0857 -0.9849
   58MOL0     H 7816  10.956   6.794   1.155  0.0067  1.3204  2.2428
   58MOL0     H 7817  11.021   6.862   1.354  2.9990  0.0489  0.3426
   58MOL0     H 7818  11.014   6.840   1.647 -1.5743 -2.5083  0.5779
   58MOL0     H 7819  11.148   6.871   1.536 -0.8857 -1.8845 -1.2900
   58MOL0     H 7820  11.295   6.724   1.696  1.4948  2.1017 -0.8029
   58MOL0     H 7821  11.152   6.720   1.805  0.6248 -0.2014 -0.7966
   58MOL0     H 7822  11.331   6.902   1.880  0.0173 -0.3166 -0.4468
   58MOL0     H 7823  11.166   6.958   1.846 -0.8285  1.5096 -4.4910
   58MOL0     H 7824  11.254   7.040   1.633 -1.8287 -0.2743  0.7779
   58MOL0     H 7825  11.364   7.083   1.767 -0.2319  0.1320 -0.2431
   58MOL0     H 7826  11.598   6.855   1.511 -1.5558 -1.9115 -1.7120
   58MOL0     H 7827  11.134   6.446   1.444  1.6911  0.7703 -0.1082
   58MOL0     H 7828  11.196   6.363   1.147 -0.7291  0.1341 -1.1874
   58MOL0     H 7829  11.107   6.283   1.279 -4.5339  0.1576  0.8251
   58MOL0     H 7830  11.022   6.322   1.125 -1.0710  1.2879 -0.9182
   59MOL0     O 7831   9.480   4.610   5.758 -0.0487 -0.3524  0.3482
   59MOL0     C 7832   9.371   4.618   5.727  0.0631  0.1586 -0.1201
   59MOL0     O 7833   9.328   4.617   5.606  0.6943 -0.8871  0.2490
   59MOL0     C 7834   9.407   4.637   5.501 -1.4007 -0.4064  0.2242
   59MOL0     C 7835   9.404   4.748   5.419 -0.2223  0.8218 -0.1244
   59MOL0     C 7836   9.484   4.758   5.308  0.6032 -1.0231 -0.2449
   59MOL0     C 7837   9.572   4.654   5.282  0.5849  0.9343  1.3865
   59MOL0     O 7838   9.652   4.663   5.169  0.4206  0.3048 -0.1296
   59MOL0     C 7839   9.659   4.778   5.095  0.3001  1.2559  0.0005
   59MOL0     C 7840   9.765   4.762   4.995  0.5903  0.3963  0.2027
   59MOL0     C 7841   9.902   4.745   5.046  0.3317  0.2502 -0.7178
   59MOL0     C 7842  10.015   4.791   4.961  0.7701 -0.3455  0.0974
   59MOL0     C 7843  10.131   4.854   5.040  0.0247  0.7211  0.7009
   59MOL0     C 7844  10.242   4.895   4.942  0.1166  1.0828  0.1904
   59MOL0     C 7845  10.385   4.863   4.990 -0.2130 -0.2027  0.0130
   59MOL0     C 7846  10.417   4.925   5.124  0.0925  0.0095  0.5518
   59MOL0     N 7847  10.556   4.904   5.163  0.0444  0.4207  0.8850
   59MOL0     C 7848  10.603   4.821   5.270 -0.0256 -0.7190 -0.1366
   59MOL0     C 7849  10.737   4.823   5.256  1.1049  0.2871  0.0978
   59MOL0     C 7850  10.826   4.745   5.357  0.1230 -0.0600 -0.1740
   59MOL0     C 7851  10.977   4.772   5.351 -0.0218  0.2392 -0.0263
   59MOL0     C 7852  11.044   4.661   5.435  0.6228 -0.6032  0.6693
   59MOL0     C 7853  10.970   4.639   5.574 -0.1793 -0.1474  0.3476
   59MOL0     O 7854  11.043   4.546   5.649  0.1274 -0.8486  0.8757
   59MOL0     C 7855  11.008   4.516   5.779 -0.0649 -0.1075  0.2821
   59MOL0     C 7856  11.060   4.402   5.830 -0.4313 -0.3015 -0.6421
   59MOL0     C 7857  11.040   4.364   5.963  0.4912 -0.2759 -0.8138
   59MOL0     C 7858  10.956   4.442   6.049 -0.6157 -0.1826  0.1708
   59MOL0     C 7859  10.941   4.393   6.185  0.0634  0.4157  0.6460
   59MOL0     O 7860  10.867   4.471   6.264 -0.6993  0.4164  0.1455
   59MOL0     C 7861  10.836   4.429   6.393  0.6939  0.6581 -0.1199
   59MOL0     C 7862  10.758   4.307   6.419 -0.0550 -0.5043  0.2023
   59MOL0     C 7863  10.721   4.268   6.545  0.4845  0.8383 -0.0835
   59MOL0     C 7864  10.767   4.355   6.650 -0.3447  0.4148 -0.3061
   59MOL0     O 7865  10.757   4.289   6.774  0.0017  0.7605 -0.1211
   59MOL0     C 7866  10.658   4.342   6.872 -1.0077 -1.4360  0.3120
   59MOL0     C 7867  10.588   4.228   6.944  0.0300 -0.0175 -0.3652
   59MOL0     C 7868  10.503   4.144   6.855 -0.2236 -0.6444  0.4274
   59MOL0     C 7869  10.411   4.043   6.927  0.2585  0.8365  0.2004
   59MOL0     C 7870  10.317   3.965   6.838  1.0251 -0.4996 -0.8634
   59MOL0     C 7871  10.262   3.841   6.908  1.3283 -0.2595 -0.2232
   59MOL0     C 7872  10.201   3.732   6.817  0.4225 -0.6439 -0.1700
   59MOL0     C 7873  10.123   3.642   6.907  0.3304  0.8861 -0.0610
   59MOL0    Cl 7874  10.228   3.541   7.015 -0.3620  0.1287  0.3056
   59MOL0     C 7875  10.843   4.470   6.626 -0.2439 -0.5510  0.3584
   59MOL0     C 7876  10.877   4.507   6.492 -0.5330  0.3357 -0.6598
   59MOL0     O 7877  11.012   4.303   6.222 -0.7924  0.0451 -0.3282
   59MOL0     C 7878  10.888   4.549   5.993 -0.4168  0.1493  0.0095
   59MOL0     C 7879  10.921   4.588   5.859  0.1966  0.7995 -0.4076
   59MOL0     N 7880  10.765   4.892   5.134 -0.7939  0.3329 -0.0760
   59MOL0     N 7881  10.658   4.936   5.082 -0.1834  0.5324 -0.7430
   59MOL0     C 7882   9.585   4.545   5.370  0.1467 -0.0717  0.1339
   59MOL0     C 7883   9.501   4.529   5.483 -0.6410  1.3770 -0.0900
   59MOL0     C 7884   9.279   4.607   5.834 -0.0863  0.0566 -0.8339
   59MOL0     C 7885   9.175   4.705   5.837 -0.3242 -0.1155  0.7320
   59MOL0     C 7886   9.072   4.710   5.929 -0.4627  0.1072  0.1285
   59MOL0     C 7887   9.073   4.608   6.019 -0.9617 -0.4095 -1.0436
   59MOL0     O 7888   8.956   4.587   6.084 -0.1653 -0.3527 -0.7482
   59MOL0     C 7889   8.906   4.454   6.102 -0.3982 -0.2262  0.3206
   59MOL0     C 7890   8.755   4.454   6.126  0.4130 -0.0443  0.4968
   59MOL0     C 7891   8.678   4.456   5.992 -0.2967 -0.7676  0.2736
   59MOL0     C 7892   8.629   4.322   5.930 -0.0384 -0.2763 -0.5709
   59MOL0     C 7893   8.734   4.214   5.929  0.2994 -1.1389  0.9095
   59MOL0     C 7894   8.804   4.111   5.923  0.7104  0.3650  0.7906
   59MOL0     C 7895   9.171   4.516   6.031 -0.3607 -0.4804 -0.3064
   59MOL0     C 7896   9.276   4.507   5.936  0.0107  0.1086  0.2946
   59MOL0     C 7897   9.378   4.391   5.943  0.1953  0.4012 -0.2565
   59MOL0     H 7898   9.325   4.819   5.438 -0.4331  0.4683  0.3353
   59MOL0     H 7899   9.472   4.832   5.229  0.9443 -2.4183 -1.6422
   59MOL0     H 7900   9.562   4.791   5.045  0.2421  0.6050 -0.0734
   59MOL0     H 7901   9.678   4.861   5.163 -2.7818 -0.4357  3.2926
   59MOL0     H 7902   9.760   4.860   4.945  3.2208  1.8542  2.5379
   59MOL0     H 7903   9.727   4.683   4.929  1.0026  0.3958 -0.0385
   59MOL0     H 7904   9.904   4.639   5.072  3.6234  0.6051  0.9924
   59MOL0     H 7905   9.911   4.791   5.144  0.4598 -1.0085 -0.1115
   59MOL0     H 7906  10.047   4.703   4.903  0.7766  1.7287 -3.3258
   59MOL0     H 7907   9.979   4.856   4.881  2.1246  0.6467  0.2447
   59MOL0     H 7908  10.100   4.945   5.092 -1.5877 -0.3513  1.7104
   59MOL0     H 7909  10.161   4.782   5.116 -2.0536 -1.2046 -0.1852
   59MOL0     H 7910  10.234   4.846   4.845  3.2695  0.1257  0.2808
   59MOL0     H 7911  10.231   5.001   4.917  2.7085  1.2931 -0.4044
   59MOL0     H 7912  10.452   4.885   4.907  1.5606 -3.2227  0.4689
   59MOL0     H 7913  10.413   4.757   4.998  1.7017 -0.2064 -4.3776
   59MOL0     H 7914  10.403   5.033   5.108 -1.3837  0.1486  2.4475
   59MOL0     H 7915  10.350   4.904   5.207  1.8962  1.6486  2.5360
   59MOL0     H 7916  10.555   4.774   5.355  0.8787 -0.0803  0.7690
   59MOL0     H 7917  10.783   4.759   5.456 -1.8441 -3.1332 -0.4487
   59MOL0     H 7918  10.815   4.638   5.334 -0.1014 -0.0174 -0.2655
   59MOL0     H 7919  11.013   4.752   5.250 -2.7997 -2.4984 -0.5967
   59MOL0     H 7920  11.005   4.873   5.385  0.4925  0.3192 -0.6662
   59MOL0     H 7921  11.147   4.689   5.459  0.1322 -0.1199  2.3608
   59MOL0     H 7922  11.053   4.570   5.375  0.0708  1.3532 -2.6544
   59MOL0     H 7923  10.874   4.586   5.567  0.3040 -1.1458  1.1579
   59MOL0     H 7924  10.971   4.738   5.621 -2.8083  0.8398 -1.3961
   59MOL0     H 7925  11.109   4.328   5.767  0.5228 -0.3295  0.0997
   59MOL0     H 7926  11.089   4.268   5.980  3.0446  1.2077  0.9353
   59MOL0     H 7927  10.714   4.257   6.333 -2.7380  1.7397  0.1557
   59MOL0     H 7928  10.656   4.182   6.556  3.3081 -1.2359  1.6124
   59MOL0     H 7929  10.721   4.392   6.947  2.4849 -2.3335 -1.8110
   59MOL0     H 7930  10.591   4.415   6.826 -0.1344 -0.0687  1.1257
   59MOL0     H 7931  10.665   4.155   6.973 -1.6332 -0.7842  2.4673
   59MOL0     H 7932  10.544   4.267   7.036 -0.4466 -1.4453  0.0405
   59MOL0     H 7933  10.445   4.214   6.794  1.0343 -1.3347 -1.6575
   59MOL0     H 7934  10.567   4.090   6.786  0.5369  1.4676 -0.5768
   59MOL0     H 7935  10.349   4.087   7.006  1.5024  1.3195  0.9344
   59MOL0     H 7936  10.473   3.963   6.967  0.6214 -2.2079 -5.3921
   59MOL0     H 7937  10.378   3.947   6.749 -0.4755  1.4558 -2.4090
   59MOL0     H 7938  10.236   4.033   6.810  0.6942  0.5083  2.2119
   59MOL0     H 7939  10.340   3.791   6.966  0.7593 -0.5627  0.2932
   59MOL0     H 7940  10.197   3.886   6.984  1.1845  1.7105 -1.4427
   59MOL0     H 7941  10.282   3.687   6.759 -0.7419  0.4533 -2.7902
   59MOL0     H 7942  10.134   3.780   6.746 -0.2837 -0.1245  0.8104
   59MOL0     H 7943  10.049   3.695   6.967 -2.2961  0.0063 -2.2816
   59MOL0     H 7944  10.073   3.575   6.836  2.3559  0.5356 -1.2487
   59MOL0     H 7945  10.874   4.525   6.713  1.7557 -0.2597 -0.4894
   59MOL0     H 7946  10.923   4.602   6.465  0.8482 -0.7699 -2.4601
   59MOL0     H 7947  10.811   4.606   6.044 -2.0493  0.3701 -2.5380
   59MOL0     H 7948  10.860   4.669   5.819 -0.3417  0.0238 -1.1875
   59MOL0     H 7949   9.658   4.465   5.357  0.8454  0.6186 -0.2797
   59MOL0     H 7950   9.506   4.445   5.551 -0.2575 -1.4779 -3.3726
   59MOL0     H 7951   9.170   4.787   5.766  0.9666 -2.4403 -2.2935
   59MOL0     H 7952   8.987   4.775   5.908 -0.3789 -0.0500 -0.7473
   59MOL0     H 7953   8.955   4.421   6.194  1.7891  0.1853 -0.6544
   59MOL0     H 7954   8.932   4.401   6.010  0.9638  5.7455 -3.2416
   59MOL0     H 7955   8.727   4.529   6.200 -0.2621 -0.3033  0.5071
   59MOL0     H 7956   8.740   4.360   6.180  3.9949 -0.1278  1.6223
   59MOL0     H 7957   8.743   4.511   5.924 -1.1561 -0.4566 -0.3134
   59MOL0     H 7958   8.585   4.513   5.995  0.8074  1.2735 -1.4261
   59MOL0     H 7959   8.546   4.283   5.988  0.0414  1.0972  0.5073
   59MOL0     H 7960   8.604   4.339   5.824 -2.7352 -0.4181 -0.0197
   59MOL0     H 7961   8.861   4.021   5.929 -0.3256 -0.2038  3.4829
   59MOL0     H 7962   9.152   4.442   6.108 -4.4191  3.0653  2.5934
   59MOL0     H 7963   9.386   4.336   5.849  2.1747 -1.5490  0.9501
   59MOL0     H 7964   9.480   4.425   5.963  0.7688 -0.4594 -1.5766
   59MOL0     H 7965   9.356   4.314   6.018 -0.1198 -1.0456 -1.7868
   60MOL0     O 7966   4.225   6.710   8.794 -0.4431 -0.1263 -0.1009
   60MOL0     C 7967   4.182   6.755   8.905  0.7729 -0.9802 -0.1329
   60MOL0     O 7968   4.262   6.798   9.001 -0.5588 -0.4564 -0.5609
   60MOL0     C 7969   4.400   6.819   8.972  0.3587 -0.3165 -0.6010
   60MOL0     C 7970   4.491   6.800   9.075  0.0482  0.3186  0.1169
   60MOL0     C 7971   4.626   6.826   9.062  0.4097 -0.0488 -0.9646
   60MOL0     C 7972   4.678   6.887   8.948 -0.5674  0.9676  0.3326
   60MOL0     O 7973   4.817   6.903   8.925 -0.2513 -0.4785 -0.3828
   60MOL0     C 7974   4.911   6.917   9.033 -0.2107 -0.6166  0.3919
   60MOL0     C 7975   5.021   7.012   8.993 -0.1325 -0.2071 -0.0190
   60MOL0     C 7976   5.121   6.965   8.893 -0.1724 -0.0710 -0.4752
   60MOL0     C 7977   5.252   7.060   8.885 -0.1907  0.9258 -0.5143
   60MOL0     C 7978   5.336   7.073   9.019 -0.7438 -0.9504  0.2627
   60MOL0     C 7979   5.479   7.135   8.978 -0.5439  0.6752 -0.6497
   60MOL0     C 7980   5.562   7.210   9.092  0.0587 -0.1925  0.2422
   60MOL0     C 7981   5.544   7.366   9.082  0.5151 -0.1152 -0.4405
   60MOL0     N 7982   5.616   7.424   9.196 -0.2856 -0.1598  0.2975
   60MOL0     C 7983   5.749   7.413   9.226  0.0248 -0.0672  0.3449
   60MOL0     C 7984   5.760   7.507   9.325  0.3188  0.0147  1.2175
   60MOL0     C 7985   5.884   7.541   9.388 -0.3626  0.2804  0.0665
   60MOL0     C 7986   5.938   7.683   9.337  0.1827  0.6101 -0.6398
   60MOL0     C 7987   6.029   7.751   9.442  0.3360 -0.6868 -0.0741
   60MOL0     C 7988   6.064   7.899   9.403  1.1645 -1.0412 -0.6537
   60MOL0     O 7989   6.154   7.908   9.302 -0.8756  0.3920  0.7546
   60MOL0     C 7990   6.299   7.889   9.321  0.5962  0.5097  0.2066
   60MOL0     C 7991   6.354   7.862   9.446  0.5875 -0.1323  0.8417
   60MOL0     C 7992   6.490   7.844   9.457 -0.6448  0.1220 -0.1451
   60MOL0     C 7993   6.575   7.856   9.352 -0.5733  0.7760  0.0474
   60MOL0     C 7994   6.726   7.836   9.364 -1.1155  0.7009 -0.1774
   60MOL0     O 7995   6.775   7.802   9.492  0.2431 -0.4388 -0.3057
   60MOL0     C 7996   6.901   7.761   9.507 -0.0980 -0.2295  0.6518
   60MOL0     C 7997   7.012   7.834   9.476  0.0960 -0.1985  0.4505
   60MOL0     C 7998   7.143   7.781   9.492  0.9945  0.3875  0.4763
   60MOL0     C 7999   7.166   7.657   9.557  0.4945  0.4778 -0.1539
   60MOL0     O 8000   7.278   7.582   9.559 -0.5124  0.1992 -0.9277
   60MOL0     C 8001   7.407   7.654   9.564 -1.2524  0.1951 -0.3353
   60MOL0     C 8002   7.511   7.576   9.651 -0.7627  0.0968 -0.4898
   60MOL0     C 8003   7.454   7.572   9.795  0.8774 -0.3441  0.8786
   60MOL0     C 8004   7.553   7.507   9.892  0.4093 -0.5489 -0.1535
   60MOL0     C 8005   7.497   7.506  10.040  0.1478 -0.0760  0.0234
   60MOL0     C 8006   7.413   7.637  10.068  1.0819 -0.3487  0.1816
   60MOL0     C 8007   7.356   7.624  10.206 -1.0825  0.4453 -0.5040
   60MOL0     C 8008   7.463   7.644  10.317 -0.5976  0.1908  0.4127
   60MOL0    Cl 8009   7.395   7.640  10.485  0.4119  0.2264 -0.0026
   60MOL0     C 8010   7.056   7.577   9.588 -0.0870 -0.3339 -0.6999
   60MOL0     C 8011   6.927   7.628   9.556 -0.3148 -1.1082 -0.1997
   60MOL0     O 8012   6.794   7.835   9.260  0.1983  0.1423 -0.3188
   60MOL0     C 8013   6.523   7.880   9.222  0.2688 -0.4060 -0.1989
   60MOL0     C 8014   6.382   7.892   9.209 -0.0832  0.6987 -0.0856
   60MOL0     N 8015   5.639   7.571   9.348 -0.2611  0.0598 -0.7282
   60MOL0     N 8016   5.550   7.521   9.266 -0.9157  0.1568  1.1478
   60MOL0     C 8017   4.588   6.905   8.839  0.5238  0.3236  0.0001
   60MOL0     C 8018   4.451   6.881   8.853  1.3948 -0.3814 -0.5601
   60MOL0     C 8019   4.034   6.739   8.949  0.6153  0.5170  0.0400
   60MOL0     C 8020   4.007   6.723   9.084 -0.2349  0.4595 -0.2544
   60MOL0     C 8021   3.871   6.722   9.123  0.4776 -0.1488 -1.3985
   60MOL0     C 8022   3.768   6.750   9.025 -0.2228 -0.3984 -0.7297
   60MOL0     O 8023   3.646   6.756   9.087  0.0534  0.0206  0.1633
   60MOL0     C 8024   3.532   6.746   9.004  0.2357  0.4136  1.3648
   60MOL0     C 8025   3.411   6.711   9.100 -0.1915 -1.1938 -0.4706
   60MOL0     C 8026   3.278   6.711   9.020  0.1406  1.0057  0.1174
   60MOL0     C 8027   3.163   6.682   9.117 -0.3599  0.1782  0.2684
   60MOL0     C 8028   3.140   6.541   9.127 -0.5275 -0.1108 -0.2845
   60MOL0     C 8029   3.116   6.423   9.154  0.6085 -0.5961 -0.0464
   60MOL0     C 8030   3.799   6.750   8.893  0.4551  0.4017  1.9300
   60MOL0     C 8031   3.931   6.749   8.851 -0.5720  0.2092 -0.6119
   60MOL0     C 8032   3.954   6.763   8.708 -0.1004 -0.1290 -0.3817
   60MOL0     H 8033   4.454   6.774   9.174 -3.3497 -0.8568 -1.2824
   60MOL0     H 8034   4.683   6.783   9.144 -0.1422  0.7959 -0.1232
   60MOL0     H 8035   4.861   6.955   9.122 -1.1564 -0.7564 -0.0628
   60MOL0     H 8036   4.953   6.818   9.054  0.4303 -0.9561 -2.1545
   60MOL0     H 8037   5.075   7.022   9.088 -0.9526 -0.4537  0.4783
   60MOL0     H 8038   4.983   7.110   8.961 -0.4405 -0.5241 -0.6527
   60MOL0     H 8039   5.071   6.960   8.796  2.3380  0.1340 -1.8636
   60MOL0     H 8040   5.154   6.867   8.928 -0.5281  0.3672  1.1519
   60MOL0     H 8041   5.321   7.018   8.811  1.4868 -2.4267  2.6495
   60MOL0     H 8042   5.222   7.158   8.848  3.4597  1.2514 -3.1878
   60MOL0     H 8043   5.275   7.132   9.089 -1.8127 -2.8371  0.9916
   60MOL0     H 8044   5.347   6.972   9.057  3.1488 -0.5089  0.7199
   60MOL0     H 8045   5.549   7.059   8.943  1.4916  3.6266 -3.6785
   60MOL0     H 8046   5.453   7.205   8.899 -2.1642  1.5012  0.5550
   60MOL0     H 8047   5.668   7.189   9.078  0.3567  0.9646  0.6460
   60MOL0     H 8048   5.543   7.172   9.193  0.2344 -2.6148 -0.5877
   60MOL0     H 8049   5.575   7.403   8.984  0.0004 -1.8241 -1.2773
   60MOL0     H 8050   5.438   7.392   9.090  0.5758  0.2885 -0.9259
   60MOL0     H 8051   5.819   7.344   9.180 -0.6123 -0.2145 -0.4290
   60MOL0     H 8052   5.876   7.525   9.496 -3.4935 -5.1987 -0.5719
   60MOL0     H 8053   5.960   7.464   9.370 -0.5437  0.1315 -0.0690
   60MOL0     H 8054   5.995   7.682   9.243  1.9740  1.8110  0.3545
   60MOL0     H 8055   5.853   7.751   9.327  0.5985  1.0343 -1.3833
   60MOL0     H 8056   6.117   7.687   9.454  0.5510 -0.5522 -0.8663
   60MOL0     H 8057   5.977   7.747   9.538  0.3550 -0.9867 -0.0754
   60MOL0     H 8058   6.084   7.958   9.493  0.4459 -3.0391  0.8999
   60MOL0     H 8059   5.972   7.948   9.371  1.3504 -0.5578 -0.4568
   60MOL0     H 8060   6.296   7.859   9.538 -2.2576 -0.6239 -0.8461
   60MOL0     H 8061   6.526   7.830   9.558 -2.0317  1.5411  0.6001
   60MOL0     H 8062   7.002   7.930   9.426 -2.7980 -0.6916 -0.0971
   60MOL0     H 8063   7.229   7.830   9.447  0.4606  0.2595 -0.7242
   60MOL0     H 8064   7.441   7.661   9.460 -2.2800  2.6787 -0.5608
   60MOL0     H 8065   7.386   7.754   9.602 -0.1090  0.5875 -0.6814
   60MOL0     H 8066   7.519   7.474   9.613 -0.3687  0.3915 -1.2309
   60MOL0     H 8067   7.612   7.616   9.649  0.4533 -2.6893  0.4756
   60MOL0     H 8068   7.447   7.680   9.813  1.3694  0.3461 -2.4285
   60MOL0     H 8069   7.359   7.519   9.797  0.8343 -0.3042  3.4105
   60MOL0     H 8070   7.639   7.572   9.873  1.9560 -2.1563  0.9480
   60MOL0     H 8071   7.588   7.408   9.860 -1.4769 -1.5257  0.6464
   60MOL0     H 8072   7.577   7.507  10.115  0.0137  0.5379  0.1702
   60MOL0     H 8073   7.436   7.416  10.049 -1.1038  0.7478  0.0447
   60MOL0     H 8074   7.472   7.729  10.058 -1.4579  1.5086  1.1600
   60MOL0     H 8075   7.334   7.650   9.995  1.5717 -1.5614 -0.5971
   60MOL0     H 8076   7.294   7.533  10.206  0.9249 -1.1941  3.5040
   60MOL0     H 8077   7.291   7.710  10.223  0.7607  2.7239 -4.0092
   60MOL0     H 8078   7.538   7.564  10.316  2.2730  2.6794  1.0694
   60MOL0     H 8079   7.517   7.737  10.295 -0.4061 -0.1742 -0.7033
   60MOL0     H 8080   7.082   7.475   9.612  0.5455 -0.7933 -3.0873
   60MOL0     H 8081   6.843   7.563   9.578 -0.3912 -0.5504  1.2195
   60MOL0     H 8082   6.587   7.879   9.134 -0.2500  2.5600 -0.7472
   60MOL0     H 8083   6.348   7.897   9.105 -0.1969  1.3485 -0.0169
   60MOL0     H 8084   4.614   6.963   8.751 -0.2632 -1.5916 -1.5732
   60MOL0     H 8085   4.390   6.911   8.768  1.9966  4.3893  0.4045
   60MOL0     H 8086   4.082   6.724   9.162 -1.2187 -3.7686  0.9939
   60MOL0     H 8087   3.847   6.704   9.227 -0.3031  1.5927 -1.2297
   60MOL0     H 8088   3.538   6.658   8.939  0.0275 -0.5321  2.5613
   60MOL0     H 8089   3.498   6.834   8.949 -1.4947 -0.7513  0.4635
   60MOL0     H 8090   3.401   6.797   9.167  1.5217 -0.4726 -1.0767
   60MOL0     H 8091   3.446   6.627   9.160  3.9159  1.1616  0.8177
   60MOL0     H 8092   3.285   6.646   8.932 -0.5877  1.2127 -0.0940
   60MOL0     H 8093   3.260   6.816   8.996  1.2002  1.5271  1.4496
   60MOL0     H 8094   3.192   6.719   9.216  2.5327  1.1640 -0.8516
   60MOL0     H 8095   3.067   6.723   9.086  0.9664  2.1645 -1.4733
   60MOL0     H 8096   3.106   6.320   9.180  0.7735  0.0967  3.2323
   60MOL0     H 8097   3.711   6.758   8.830  2.2396 -0.6433 -0.8832
   60MOL0     H 8098   4.000   6.676   8.661  1.5329  0.8939 -0.7872
   60MOL0     H 8099   3.859   6.789   8.661 -0.4363  1.0052  0.8600
   60MOL0     H 8100   4.022   6.848   8.691  0.7785 -0.2742  1.9597
   61MOL0     O 8101   1.213   4.561   0.209  0.0605  0.1889  0.0336
   61MOL0     C 8102   1.150   4.640   0.281  0.1161 -1.1408 -0.1799
   61MOL0     O 8103   1.067   4.725   0.227  0.1831 -0.4820  0.3459
   61MOL0     C 8104   1.042   4.838   0.295  0.4687 -0.2722  0.0101
   61MOL0     C 8105   1.149   4.926   0.313  0.8732 -0.2895  0.0381
   61MOL0     C 8106   1.128   5.042   0.384  0.6771 -0.8655 -0.6593
   61MOL0     C 8107   1.000   5.065   0.449 -0.0761  0.1278  0.3460
   61MOL0     O 8108   0.973   5.190   0.508 -0.0401  0.9665  0.0418
   61MOL0     C 8109   0.955   5.189   0.651 -0.9430 -0.2237  0.3091
   61MOL0     C 8110   1.088   5.191   0.734  0.4529  1.3722  0.1664
   61MOL0     C 8111   1.158   5.057   0.734  0.3736 -0.3293  0.9668
   61MOL0     C 8112   1.277   5.032   0.841 -0.1205 -0.1990  0.7083
   61MOL0     C 8113   1.402   5.105   0.798  0.1905  0.5001  0.5569
   61MOL0     C 8114   1.522   5.088   0.886  0.1541 -0.0850 -0.3718
   61MOL0     C 8115   1.620   5.198   0.860 -0.2404 -0.4871 -0.3653
   61MOL0     C 8116   1.752   5.165   0.935 -0.1640  0.1625 -1.2261
   61MOL0     N 8117   1.868   5.247   0.877  0.0225  0.7745  0.0524
   61MOL0     C 8118   1.991   5.263   0.927 -0.1192 -0.2153 -0.1235
   61MOL0     C 8119   2.061   5.338   0.840  0.4273  1.0015 -0.0776
   61MOL0     C 8120   2.199   5.397   0.863  1.1502  0.1669 -0.5461
   61MOL0     C 8121   2.280   5.414   0.735 -0.6171  0.0920  1.0846
   61MOL0     C 8122   2.394   5.518   0.748 -0.2189 -0.3626  0.3770
   61MOL0     C 8123   2.490   5.483   0.873  0.2867 -0.2420 -0.5123
   61MOL0     O 8124   2.623   5.535   0.850 -0.2319 -0.3727  0.6641
   61MOL0     C 8125   2.705   5.479   0.746 -0.0769 -0.0479  0.3273
   61MOL0     C 8126   2.805   5.558   0.691 -1.3864 -0.0997  0.9384
   61MOL0     C 8127   2.882   5.515   0.581  0.1378 -0.5576  0.2768
   61MOL0     C 8128   2.854   5.387   0.525  0.3486 -0.7661  0.5648
   61MOL0     C 8129   2.945   5.349   0.411 -0.5384 -0.4516  0.3846
   61MOL0     O 8130   3.017   5.452   0.345 -0.3298 -0.2316 -0.5580
   61MOL0     C 8131   3.068   5.416   0.217 -0.8867 -0.2017 -0.0429
   61MOL0     C 8132   3.192   5.360   0.213 -0.4818  1.0510  0.0810
   61MOL0     C 8133   3.240   5.321   0.088  0.1949 -0.4146  1.0968
   61MOL0     C 8134   3.170   5.339  -0.029 -0.4606 -1.6724 -0.9243
   61MOL0     O 8135   3.231   5.310  -0.150  0.1795  0.1413  0.1229
   61MOL0     C 8136   3.140   5.263  -0.248 -0.9922  0.1542  0.6568
   61MOL0     C 8137   3.226   5.181  -0.348 -0.6319 -0.0605 -0.6655
   61MOL0     C 8138   3.152   5.155  -0.474 -0.2705 -0.4281 -0.5220
   61MOL0     C 8139   3.250   5.100  -0.576 -0.4265 -0.1600 -0.0430
   61MOL0     C 8140   3.330   4.975  -0.533 -0.1085 -0.0025 -0.1217
   61MOL0     C 8141   3.451   4.944  -0.622 -0.0594  0.2422 -0.5510
   61MOL0     C 8142   3.532   4.822  -0.585 -0.0079  0.0092 -0.6049
   61MOL0     C 8143   3.629   4.856  -0.479  0.2098  0.2178  0.3242
   61MOL0    Cl 8144   3.728   4.706  -0.452 -0.0715  0.2957  0.2945
   61MOL0     C 8145   3.043   5.404  -0.018 -0.4532 -0.3647  0.9422
   61MOL0     C 8146   2.985   5.436   0.102  0.2236  0.6540 -0.4451
   61MOL0     O 8147   2.956   5.225   0.384  0.6445 -0.1132  0.8790
   61MOL0     C 8148   2.750   5.309   0.569  0.6138  0.0677 -0.6273
   61MOL0     C 8149   2.688   5.353   0.686 -0.1020  0.3649  0.3986
   61MOL0     N 8150   1.980   5.372   0.740 -1.0314  0.2033 -0.0627
   61MOL0     N 8151   1.866   5.308   0.756 -0.2845  0.2458 -0.5122
   61MOL0     C 8152   0.889   4.980   0.424 -0.8787  0.1798 -0.1638
   61MOL0     C 8153   0.911   4.864   0.347  1.0898  0.3576 -0.0053
   61MOL0     C 8154   1.191   4.639   0.429 -0.1433 -0.8929 -0.7774
   61MOL0     C 8155   1.097   4.640   0.529  0.1553  0.4396 -0.6803
   61MOL0     C 8156   1.125   4.646   0.663 -0.3727  0.1525 -0.6495
   61MOL0     C 8157   1.257   4.658   0.705  0.6554  0.5600  0.6598
   61MOL0     O 8158   1.307   4.649   0.835 -0.5601 -0.8361  0.2877
   61MOL0     C 8159   1.221   4.628   0.948 -0.4559 -0.1674  0.7536
   61MOL0     C 8160   1.321   4.622   1.067 -0.6839  0.2257  0.4169
   61MOL0     C 8161   1.394   4.752   1.085  0.3997  0.1749  0.3771
   61MOL0     C 8162   1.505   4.731   1.195 -0.8294 -0.2946  0.1186
   61MOL0     C 8163   1.574   4.864   1.214 -0.8298  0.2594  0.6544
   61MOL0     C 8164   1.652   4.950   1.228 -0.1582 -1.2632 -0.1674
   61MOL0     C 8165   1.357   4.657   0.601 -0.1949  0.0716 -0.0536
   61MOL0     C 8166   1.330   4.642   0.461 -0.3113  0.1814  0.0833
   61MOL0     C 8167   1.444   4.639   0.363  0.2275  1.2273 -0.3902
   61MOL0     H 8168   1.240   4.899   0.261  1.3160 -2.0026  1.6007
   61MOL0     H 8169   1.201   5.122   0.389 -0.9820  0.6385  1.0352
   61MOL0     H 8170   0.908   5.278   0.694  2.2014  1.5245  0.3980
   61MOL0     H 8171   0.883   5.112   0.681 -1.6515  1.4858  3.4305
   61MOL0     H 8172   1.059   5.213   0.837  2.2203  2.6840  0.4298
   61MOL0     H 8173   1.167   5.262   0.708  0.6709  0.2995 -2.4125
   61MOL0     H 8174   1.202   5.028   0.639 -2.6522 -1.0937 -0.3057
   61MOL0     H 8175   1.080   4.981   0.741 -0.1429 -0.1585 -1.8000
   61MOL0     H 8176   1.235   5.069   0.935 -1.8068  0.2540 -0.1866
   61MOL0     H 8177   1.288   4.924   0.846 -3.3460 -0.8215 -2.0750
   61MOL0     H 8178   1.424   5.078   0.695 -0.0571  1.9437  0.1012
   61MOL0     H 8179   1.382   5.213   0.791  1.4596  0.6390 -2.4421
   61MOL0     H 8180   1.494   5.101   0.991  1.2949 -0.1023 -0.0615
   61MOL0     H 8181   1.560   4.986   0.890  0.0101 -0.1010  1.6478
   61MOL0     H 8182   1.583   5.297   0.888  1.1581 -0.1149  0.2746
   61MOL0     H 8183   1.641   5.210   0.753  0.7977  0.1515 -0.1065
   61MOL0     H 8184   1.738   5.190   1.040  0.4050 -1.1821 -0.8177
   61MOL0     H 8185   1.775   5.059   0.920  0.7139  0.5012 -2.4169
   61MOL0     H 8186   2.029   5.233   1.024 -0.3127 -0.5936 -0.1617
   61MOL0     H 8187   2.191   5.503   0.886  2.4272  0.9247 -3.1870
   61MOL0     H 8188   2.254   5.335   0.936  1.3574  0.8936 -0.0754
   61MOL0     H 8189   2.310   5.316   0.696 -1.4873  0.7335 -1.4161
   61MOL0     H 8190   2.216   5.444   0.651  1.1552 -0.0159 -0.3792
   61MOL0     H 8191   2.353   5.618   0.766  1.3700  0.8350 -2.0460
   61MOL0     H 8192   2.449   5.513   0.653 -1.8476 -1.5186 -0.5727
   61MOL0     H 8193   2.507   5.378   0.895  1.0696 -0.0146  0.0083
   61MOL0     H 8194   2.447   5.522   0.966  0.7438 -0.2787 -0.2855
   61MOL0     H 8195   2.816   5.661   0.724  1.2563 -0.5409  1.6844
   61MOL0     H 8196   2.963   5.578   0.549  0.4594 -0.5134  1.1503
   61MOL0     H 8197   3.255   5.342   0.300 -3.4927 -0.9134  2.0462
   61MOL0     H 8198   3.345   5.294   0.077 -0.3873 -2.6803  0.7242
   61MOL0     H 8199   3.063   5.195  -0.211  0.0031 -1.2238  0.2521
   61MOL0     H 8200   3.095   5.350  -0.297  0.2803  0.3993 -0.1458
   61MOL0     H 8201   3.324   5.225  -0.367  0.1416 -1.6038 -0.4593
   61MOL0     H 8202   3.243   5.088  -0.292 -0.5145  0.9183  0.9805
   61MOL0     H 8203   3.070   5.085  -0.460 -0.7576 -0.3744 -2.7032
   61MOL0     H 8204   3.106   5.249  -0.506  1.4089  2.1602  3.7786
   61MOL0     H 8205   3.318   5.182  -0.602  0.1515 -0.5186  0.3298
   61MOL0     H 8206   3.195   5.056  -0.660 -2.0157  0.3932  0.6724
   61MOL0     H 8207   3.266   4.887  -0.517  2.0803 -1.9648 -1.5137
   61MOL0     H 8208   3.380   4.994  -0.438 -1.0295 -1.7107  0.7532
   61MOL0     H 8209   3.412   4.915  -0.720  1.2776  2.7278 -1.9228
   61MOL0     H 8210   3.516   5.032  -0.614 -1.6079  1.2354  3.7577
   61MOL0     H 8211   3.583   4.792  -0.678  1.4558  2.3892 -0.6533
   61MOL0     H 8212   3.460   4.743  -0.561  0.1956 -0.3646 -1.1840
   61MOL0     H 8213   3.700   4.934  -0.508 -0.4678  0.3903 -0.9300
   61MOL0     H 8214   3.577   4.884  -0.387  0.5545  1.2140  0.2291
   61MOL0     H 8215   2.986   5.417  -0.109 -1.1628 -2.5322  1.0377
   61MOL0     H 8216   2.881   5.468   0.105  0.6268  1.9677  0.3051
   61MOL0     H 8217   2.736   5.208   0.531 -1.8472  0.2890 -0.4694
   61MOL0     H 8218   2.633   5.276   0.739 -0.2766 -0.3369 -0.7804
   61MOL0     H 8219   0.795   5.007   0.470 -2.4523 -5.4909  0.7256
   61MOL0     H 8220   0.832   4.790   0.341 -0.1194  1.6126 -0.2604
   61MOL0     H 8221   0.994   4.638   0.493  0.6817 -0.6485 -2.2671
   61MOL0     H 8222   1.035   4.640   0.723 -1.2243 -1.7975 -1.9940
   61MOL0     H 8223   1.167   4.535   0.927  0.7905 -0.7057 -0.2026
   61MOL0     H 8224   1.146   4.708   0.952  1.3046  1.5732  0.6356
   61MOL0     H 8225   1.401   4.550   1.053  0.4674  1.1986  1.6936
   61MOL0     H 8226   1.273   4.610   1.165  2.5700  2.8060  2.5561
   61MOL0     H 8227   1.331   4.833   1.122  1.3207 -0.0921  2.6987
   61MOL0     H 8228   1.445   4.786   0.994  2.0036  1.1007  1.5723
   61MOL0     H 8229   1.465   4.700   1.292  0.9983 -0.6395  0.8008
   61MOL0     H 8230   1.575   4.655   1.159 -2.6318 -1.4537 -1.1299
   61MOL0     H 8231   1.705   5.040   1.251 -2.0543 -0.2412  0.4399
   61MOL0     H 8232   1.463   4.668   0.617  0.3302 -0.5694 -2.6353
   61MOL0     H 8233   1.537   4.633   0.421  0.3048 -2.5955 -0.6660
   61MOL0     H 8234   1.445   4.546   0.305 -0.7904  1.7659 -1.3086
   61MOL0     H 8235   1.426   4.713   0.285 -2.8016  0.5338 -0.4674
   62MOL0     O 8236   8.989   7.843   7.277 -0.2077  0.5694  0.4290
   62MOL0     C 8237   9.088   7.791   7.323  0.8400  0.8957 -0.4590
   62MOL0     O 8238   9.085   7.684   7.408 -0.4680  0.1099 -0.1596
   62MOL0     C 8239   8.972   7.640   7.474  0.0275  0.8140 -0.7364
   62MOL0     C 8240   8.985   7.624   7.618  0.0154 -0.4045 -0.1263
   62MOL0     C 8241   8.875   7.563   7.683  0.5790 -0.1518  0.6162
   62MOL0     C 8242   8.758   7.519   7.604 -0.1696 -0.3323 -1.2505
   62MOL0     O 8243   8.631   7.497   7.664 -0.3150  0.6786  0.0109
   62MOL0     C 8244   8.620   7.455   7.803  0.1904 -0.2473 -0.2681
   62MOL0     C 8245   8.474   7.442   7.856  0.3232 -0.0014 -0.4380
   62MOL0     C 8246   8.403   7.319   7.793  0.7717 -0.3626 -0.2048
   62MOL0     C 8247   8.247   7.329   7.814  0.5440  0.4445  0.3228
   62MOL0     C 8248   8.175   7.216   7.741 -0.3124  0.2188 -0.5892
   62MOL0     C 8249   8.173   7.234   7.585  0.3674  0.2470 -0.2141
   62MOL0     C 8250   8.170   7.378   7.531 -0.6694 -0.4080  0.1389
   62MOL0     C 8251   8.175   7.389   7.374  0.7683 -0.6215 -0.2987
   62MOL0     N 8252   8.297   7.335   7.320  0.3753 -0.2292  0.4788
   62MOL0     C 8253   8.422   7.339   7.371 -0.6768  0.4898  0.0743
   62MOL0     C 8254   8.493   7.249   7.304  0.3894  0.2238  0.2110
   62MOL0     C 8255   8.637   7.232   7.341  0.6073 -0.4258 -0.1911
   62MOL0     C 8256   8.653   7.148   7.465  0.5923 -0.5485 -0.9515
   62MOL0     C 8257   8.798   7.101   7.472  0.2032 -0.2728  0.0153
   62MOL0     C 8258   8.910   7.215   7.476  0.2372 -0.0324 -0.0959
   62MOL0     O 8259   9.041   7.150   7.486  0.1241  0.1774 -0.1346
   62MOL0     C 8260   9.145   7.213   7.429  0.5481  0.1728 -0.1193
   62MOL0     C 8261   9.151   7.339   7.376 -0.0078 -0.3973 -0.2368
   62MOL0     C 8262   9.269   7.386   7.318 -1.0741  1.4452 -0.3806
   62MOL0     C 8263   9.385   7.299   7.321 -0.8357 -0.3995  0.3563
   62MOL0     C 8264   9.519   7.346   7.294  0.0044 -1.1845  0.1251
   62MOL0     O 8265   9.627   7.293   7.357 -0.9387  0.6971  0.2216
   62MOL0     C 8266   9.765   7.321   7.344 -0.2252  0.3199 -0.3453
   62MOL0     C 8267   9.852   7.255   7.435 -0.0652 -0.1004 -1.1575
   62MOL0     C 8268   9.988   7.266   7.430 -0.1956 -0.8868  0.1415
   62MOL0     C 8269  10.044   7.347   7.331 -0.4217  0.3564 -0.3698
   62MOL0     O 8270  10.179   7.350   7.307  0.2206  0.0440  0.1198
   62MOL0     C 8271  10.229   7.276   7.201  0.5737  0.3196 -0.9161
   62MOL0     C 8272  10.378   7.293   7.187 -0.0677 -0.0455  0.2379
   62MOL0     C 8273  10.412   7.437   7.149  0.0758 -0.2300  0.3886
   62MOL0     C 8274  10.556   7.452   7.085 -0.7406 -1.4628 -0.1669
   62MOL0     C 8275  10.673   7.404   7.176  0.2714 -1.2805 -0.8170
   62MOL0     C 8276  10.803   7.472   7.140  0.1145 -0.6258 -0.1505
   62MOL0     C 8277  10.912   7.427   7.242  0.3030  0.2354  0.6076
   62MOL0     C 8278  11.054   7.478   7.196  0.6068  0.0121 -0.0389
   62MOL0    Cl 8279  11.104   7.396   7.049 -0.2940  0.5700 -0.2568
   62MOL0     C 8280   9.964   7.417   7.234 -0.1060  0.1922  0.3909
   62MOL0     C 8281   9.825   7.414   7.252  0.5166  0.5104  0.2300
   62MOL0     O 8282   9.523   7.432   7.209 -0.3488 -0.7455 -0.2312
   62MOL0     C 8283   9.372   7.167   7.359 -0.3303 -0.6952 -0.6138
   62MOL0     C 8284   9.250   7.127   7.405  0.8982 -0.1478 -0.1194
   62MOL0     N 8285   8.411   7.194   7.206  0.5059 -1.2360  0.4791
   62MOL0     N 8286   8.296   7.250   7.211 -1.0041 -0.4028 -0.4166
   62MOL0     C 8287   8.750   7.556   7.467 -0.9929  0.6621  0.2197
   62MOL0     C 8288   8.861   7.599   7.401 -0.6255  0.2058  1.1702
   62MOL0     C 8289   9.221   7.833   7.274  0.0967  0.6366  1.0979
   62MOL0     C 8290   9.329   7.752   7.309 -0.1164 -0.0265 -0.5882
   62MOL0     C 8291   9.461   7.788   7.278 -0.3777 -0.8024  1.2958
   62MOL0     C 8292   9.491   7.891   7.195 -0.8087 -0.3762 -0.0996
   62MOL0     O 8293   9.614   7.932   7.150 -0.0558 -0.8390  0.3946
   62MOL0     C 8294   9.729   7.860   7.197  0.1087  0.0226 -0.1400
   62MOL0     C 8295   9.852   7.914   7.140 -0.3179  0.3119 -0.5148
   62MOL0     C 8296   9.988   7.857   7.193 -0.2919  0.1934 -0.4440
   62MOL0     C 8297  10.087   7.827   7.081  0.5624  0.2433 -0.3964
   62MOL0     C 8298  10.221   7.782   7.132 -0.4097  1.8122  0.1765
   62MOL0     C 8299  10.332   7.743   7.181 -0.3026 -0.8024 -0.3412
   62MOL0     C 8300   9.388   7.978   7.165  0.1308 -0.4311 -0.3293
   62MOL0     C 8301   9.253   7.951   7.202 -1.3691  0.6195 -0.0276
   62MOL0     C 8302   9.150   8.050   7.154 -0.0805 -0.8289 -0.2378
   62MOL0     H 8303   9.072   7.652   7.677 -0.6737 -1.6951  1.6000
   62MOL0     H 8304   8.871   7.558   7.792 -0.7123 -2.7803  0.5335
   62MOL0     H 8305   8.659   7.353   7.799 -0.1947 -0.3618 -1.5648
   62MOL0     H 8306   8.687   7.509   7.870 -0.7691 -2.0747  2.2979
   62MOL0     H 8307   8.409   7.528   7.841  0.0379 -0.0578  0.4508
   62MOL0     H 8308   8.483   7.443   7.965  4.2064  4.0391 -0.4542
   62MOL0     H 8309   8.451   7.239   7.851  1.4534  0.3127  0.1758
   62MOL0     H 8310   8.425   7.319   7.686  1.1883  2.4669 -0.1820
   62MOL0     H 8311   8.228   7.322   7.921  0.0631 -1.0801  0.1494
   62MOL0     H 8312   8.220   7.431   7.784 -0.6711 -0.0791 -0.4133
   62MOL0     H 8313   8.233   7.127   7.767 -1.6153 -0.4202  0.1931
   62MOL0     H 8314   8.069   7.215   7.769 -0.4012  0.7548 -0.8868
   62MOL0     H 8315   8.262   7.191   7.537  0.3106 -0.9720  0.7225
   62MOL0     H 8316   8.082   7.178   7.561 -2.2223  2.1386  4.0586
   62MOL0     H 8317   8.247   7.440   7.578 -1.0322 -0.0756  0.3039
   62MOL0     H 8318   8.071   7.419   7.556 -1.4923 -1.7288 -0.8433
   62MOL0     H 8319   8.089   7.332   7.338 -0.2524 -0.1487  1.2923
   62MOL0     H 8320   8.168   7.494   7.344 -0.8880 -0.1052  1.6586
   62MOL0     H 8321   8.473   7.405   7.440  1.0331 -1.5215  0.8200
   62MOL0     H 8322   8.689   7.192   7.253  1.5216 -1.7919  0.9181
   62MOL0     H 8323   8.675   7.332   7.362 -1.0720  0.0056  0.9532
   62MOL0     H 8324   8.624   7.220   7.543  2.6505  0.2136 -0.8288
   62MOL0     H 8325   8.582   7.066   7.455  0.3701 -0.1967 -2.4290
   62MOL0     H 8326   8.814   7.034   7.387 -2.0980  0.6893 -1.2571
   62MOL0     H 8327   8.820   7.043   7.562  1.4350  0.0168 -0.0688
   62MOL0     H 8328   8.891   7.278   7.563 -0.5672  1.2577 -1.1819
   62MOL0     H 8329   8.900   7.279   7.388 -2.9642  0.5567  0.5820
   62MOL0     H 8330   9.069   7.410   7.386  2.7260  3.0354 -0.3822
   62MOL0     H 8331   9.267   7.485   7.273  1.6664 -0.0323 -4.3419
   62MOL0     H 8332   9.807   7.192   7.511  2.3601 -1.6231 -0.8817
   62MOL0     H 8333  10.072   7.249   7.497  0.0246  3.1449  1.1174
   62MOL0     H 8334  10.203   7.174   7.229  2.0009  0.1620 -0.0347
   62MOL0     H 8335  10.183   7.298   7.104 -0.8741 -1.1617 -0.5950
   62MOL0     H 8336  10.424   7.277   7.285 -1.0684 -1.9536  0.4511
   62MOL0     H 8337  10.412   7.220   7.112  2.9758 -1.7111  2.9715
   62MOL0     H 8338  10.335   7.477   7.082  0.9552  0.6763 -0.0901
   62MOL0     H 8339  10.409   7.490   7.244 -0.4893 -1.4280  1.0691
   62MOL0     H 8340  10.568   7.556   7.055  3.4293 -1.7902 -0.2041
   62MOL0     H 8341  10.552   7.400   6.989  1.0776  2.0911 -2.4232
   62MOL0     H 8342  10.674   7.295   7.165  0.0207 -1.8783  3.3061
   62MOL0     H 8343  10.651   7.429   7.280 -1.3453  2.7675 -1.9647
   62MOL0     H 8344  10.827   7.458   7.034 -0.5141  3.1220 -0.9383
   62MOL0     H 8345  10.795   7.581   7.139  3.6507 -0.2549  0.0689
   62MOL0     H 8346  10.928   7.319   7.236 -1.1452  0.0298  0.0555
   62MOL0     H 8347  10.884   7.464   7.341 -1.6826  2.1566 -0.5709
   62MOL0     H 8348  11.047   7.587   7.189 -1.9343  0.1390  2.6752
   62MOL0     H 8349  11.121   7.462   7.281  2.2960 -0.3375 -1.3807
   62MOL0     H 8350  10.018   7.486   7.170  1.8963 -1.0437  0.6547
   62MOL0     H 8351   9.751   7.472   7.197 -2.1604 -2.6206  0.2454
   62MOL0     H 8352   9.454   7.097   7.344 -1.9397 -2.5331 -1.3757
   62MOL0     H 8353   9.248   7.025   7.443  0.2486  0.1296  0.6226
   62MOL0     H 8354   8.660   7.538   7.409  1.0301  0.3096 -3.0587
   62MOL0     H 8355   8.865   7.599   7.293  3.8635  1.5895  1.1156
   62MOL0     H 8356   9.333   7.662   7.369  1.1306 -1.1543 -2.2772
   62MOL0     H 8357   9.549   7.742   7.321  0.8909  0.5044  0.1801
   62MOL0     H 8358   9.708   7.757   7.167 -1.0282 -0.4172  2.0064
   62MOL0     H 8359   9.747   7.862   7.305  3.1256  1.9319 -0.5518
   62MOL0     H 8360   9.862   8.020   7.165 -1.0358  0.3735 -0.4673
   62MOL0     H 8361   9.836   7.917   7.032  2.0332  2.4378 -0.9010
   62MOL0     H 8362   9.965   7.763   7.245  1.8997 -2.5496 -3.9954
   62MOL0     H 8363  10.031   7.926   7.267  0.5316 -1.1596  0.3909
   62MOL0     H 8364  10.052   7.741   7.022 -2.0031  0.9131  0.0451
   62MOL0     H 8365  10.106   7.921   7.030  0.1790 -0.0549 -1.1061
   62MOL0     H 8366  10.424   7.728   7.235  0.1209  0.1871 -0.7747
   62MOL0     H 8367   9.409   8.069   7.110 -0.9668 -0.5119 -0.9222
   62MOL0     H 8368   9.079   7.997   7.089 -0.2939  2.1328 -2.6434
   62MOL0     H 8369   9.109   8.098   7.244  3.1143  1.2617  0.2665
   62MOL0     H 8370   9.187   8.126   7.085 -0.1321 -0.4296  0.1678
   63MOL0     O 8371   7.583   3.979  11.117  0.0915 -0.1909  0.7797
   63MOL0     C 8372   7.566   4.076  11.040  0.3696  0.3122  0.5910
   63MOL0     O 8373   7.442   4.136  11.011  0.3846  0.0857 -0.6317
   63MOL0     C 8374   7.339   4.080  11.091  0.1175  0.4796 -0.5145
   63MOL0     C 8375   7.301   4.152  11.206  0.1392  0.4381  0.3809
   63MOL0     C 8376   7.184   4.113  11.275  0.1064  0.0492  0.0722
   63MOL0     C 8377   7.089   4.026  11.222 -0.1408 -0.7086 -0.1693
   63MOL0     O 8378   6.974   3.986  11.294  0.1559 -0.1653 -0.1518
   63MOL0     C 8379   6.919   4.085  11.377 -0.1613  0.3240 -0.4072
   63MOL0     C 8380   6.767   4.075  11.393  0.9928 -0.5969 -0.8276
   63MOL0     C 8381   6.703   4.204  11.420  0.0771 -0.0874  0.1212
   63MOL0     C 8382   6.553   4.207  11.385 -0.5377  0.8476  0.1440
   63MOL0     C 8383   6.504   4.349  11.365  0.6481 -0.6843 -0.1204
   63MOL0     C 8384   6.538   4.407  11.230  0.6268 -0.5909  0.6449
   63MOL0     C 8385   6.521   4.563  11.237  0.0477  0.1355 -0.2598
   63MOL0     C 8386   6.383   4.624  11.246 -0.7363  0.2643  0.0704
   63MOL0     N 8387   6.296   4.583  11.140  0.8453  0.0384 -0.1268
   63MOL0     C 8388   6.261   4.666  11.033  0.3874  1.1700  0.4900
   63MOL0     C 8389   6.169   4.588  10.973 -0.2538 -0.1779 -0.2917
   63MOL0     C 8390   6.100   4.635  10.847 -0.7379 -0.6806 -0.1906
   63MOL0     C 8391   6.126   4.542  10.727  0.1579 -0.6714  0.3116
   63MOL0     C 8392   6.277   4.521  10.705  1.1271 -0.1195 -0.0801
   63MOL0     C 8393   6.345   4.645  10.658  0.0731  0.0815  0.4430
   63MOL0     O 8394   6.480   4.608  10.688 -0.0009 -0.4632  0.5762
   63MOL0     C 8395   6.579   4.684  10.641 -0.0854  0.6946 -0.0789
   63MOL0     C 8396   6.698   4.610  10.627 -0.1622  0.7032 -0.7456
   63MOL0     C 8397   6.817   4.677  10.610  0.0997  0.2752  0.1985
   63MOL0     C 8398   6.809   4.818  10.611 -0.5516  0.9728  0.5591
   63MOL0     C 8399   6.928   4.895  10.597  0.0867 -0.2509 -0.4613
   63MOL0     O 8400   6.910   5.027  10.589 -0.0715  0.4648  0.4373
   63MOL0     C 8401   7.000   5.126  10.572  0.2845 -1.2957  0.2539
   63MOL0     C 8402   6.963   5.261  10.576 -0.1610 -1.2757 -0.4132
   63MOL0     C 8403   7.051   5.359  10.552  0.2554 -0.1436 -0.3528
   63MOL0     C 8404   7.186   5.343  10.518  0.3177 -0.1970  0.5304
   63MOL0     O 8405   7.271   5.445  10.495  0.0120  0.2594 -0.3777
   63MOL0     C 8406   7.266   5.560  10.583  0.3663  0.2493  0.2495
   63MOL0     C 8407   7.339   5.670  10.506  0.3537 -0.1158 -0.9517
   63MOL0     C 8408   7.272   5.698  10.372 -0.4400 -0.4082  0.3083
   63MOL0     C 8409   7.260   5.852  10.356  0.5731  0.4794 -0.6055
   63MOL0     C 8410   7.165   5.884  10.238  0.7081 -0.4454  0.1947
   63MOL0     C 8411   7.230   5.847  10.102  0.0309 -0.1256  0.1164
   63MOL0     C 8412   7.143   5.887   9.986 -0.3213 -0.0599  0.4080
   63MOL0     C 8413   7.218   5.860   9.859  0.5210  0.9814 -0.5889
   63MOL0    Cl 8414   7.371   5.951   9.843  0.7394  0.1526  0.3008
   63MOL0     C 8415   7.225   5.211  10.517 -0.3333 -0.3454  0.8239
   63MOL0     C 8416   7.134   5.104  10.530  0.1653  0.0363  0.4265
   63MOL0     O 8417   7.035   4.836  10.587 -0.1163 -0.5194  0.5334
   63MOL0     C 8418   6.686   4.882  10.614 -0.4200 -0.3220  0.5547
   63MOL0     C 8419   6.569   4.816  10.627 -0.5191 -0.2710 -1.0565
   63MOL0     N 8420   6.144   4.479  11.044  0.2866 -0.4798 -0.3228
   63MOL0     N 8421   6.216   4.474  11.151 -0.1832  0.1637 -0.2905
   63MOL0     C 8422   7.130   3.960  11.103  0.6951 -0.4603  0.0104
   63MOL0     C 8423   7.254   3.984  11.047 -0.2978  0.1583  1.4896
   63MOL0     C 8424   7.690   4.119  10.971 -0.5953  0.3608 -1.3024
   63MOL0     C 8425   7.809   4.104  11.045  0.5213 -0.3431  0.2640
   63MOL0     C 8426   7.932   4.137  10.991 -0.3181  0.2314  1.2169
   63MOL0     C 8427   7.944   4.199  10.868  0.5693 -0.4425  0.5095
   63MOL0     O 8428   8.072   4.226  10.827 -0.5880 -0.5344 -0.6260
   63MOL0     C 8429   8.083   4.312  10.707  0.5738 -0.1886  0.2903
   63MOL0     C 8430   8.236   4.360  10.687 -0.7672  0.3352  0.1053
   63MOL0     C 8431   8.290   4.436  10.808  0.7188  0.2887  0.6707
   63MOL0     C 8432   8.440   4.460  10.799 -0.5488 -0.6094 -0.0518
   63MOL0     C 8433   8.525   4.349  10.804 -0.4432 -0.1960  0.1414
   63MOL0     C 8434   8.597   4.252  10.824 -0.1184 -0.0151 -0.3240
   63MOL0     C 8435   7.822   4.217  10.794 -0.3414 -0.2447 -0.2041
   63MOL0     C 8436   7.691   4.178  10.845 -0.0905 -0.4125  0.3424
   63MOL0     C 8437   7.571   4.184  10.759  0.6703 -0.4541 -0.1508
   63MOL0     H 8438   7.376   4.222  11.240  0.2016  1.0070 -0.8939
   63MOL0     H 8439   7.162   4.148  11.375  1.7965  1.6044 -0.0493
   63MOL0     H 8440   6.951   4.073  11.481  0.2769  0.1984 -0.5555
   63MOL0     H 8441   6.947   4.185  11.343  0.1217  0.5167  0.3897
   63MOL0     H 8442   6.738   4.012  11.478 -1.3508 -1.1246 -1.9214
   63MOL0     H 8443   6.729   4.020  11.306 -0.8044 -2.6475  1.1119
   63MOL0     H 8444   6.749   4.287  11.365  2.0698 -1.5527 -0.5102
   63MOL0     H 8445   6.705   4.230  11.526  2.2664  1.1444 -0.1595
   63MOL0     H 8446   6.534   4.159  11.288 -4.3550  2.9388 -0.3554
   63MOL0     H 8447   6.482   4.168  11.459 -3.4476  3.1076 -1.2396
   63MOL0     H 8448   6.402   4.367  11.398  0.2949  0.0315 -1.5224
   63MOL0     H 8449   6.562   4.401  11.443  0.9870 -0.7144 -0.3505
   63MOL0     H 8450   6.644   4.380  11.221  0.3414 -1.0292 -2.4485
   63MOL0     H 8451   6.469   4.357  11.162 -2.3369  1.9353  1.6036
   63MOL0     H 8452   6.578   4.609  11.155  2.9724 -2.0988  0.3596
   63MOL0     H 8453   6.579   4.599  11.322  2.0445  0.1338 -1.5486
   63MOL0     H 8454   6.332   4.606  11.341  0.3113  0.3163  0.6561
   63MOL0     H 8455   6.404   4.731  11.234  1.4012 -0.0642  0.4423
   63MOL0     H 8456   6.302   4.766  11.017  2.0642  0.2497 -1.4376
   63MOL0     H 8457   5.992   4.643  10.866 -1.0393 -3.2559 -0.4088
   63MOL0     H 8458   6.149   4.730  10.826  5.4106 -2.4892  3.4454
   63MOL0     H 8459   6.078   4.445  10.737 -1.0076 -0.0591  0.7757
   63MOL0     H 8460   6.095   4.588  10.633  2.7244  4.8778  1.7402
   63MOL0     H 8461   6.288   4.439  10.633 -3.4355  2.4220 -4.2808
   63MOL0     H 8462   6.324   4.489  10.798 -1.4240 -0.1375  1.3101
   63MOL0     H 8463   6.314   4.734  10.714  0.9896  0.0127  1.0814
   63MOL0     H 8464   6.330   4.662  10.551 -0.3069  3.1177  0.8709
   63MOL0     H 8465   6.699   4.502  10.643  0.9756  0.8367  0.2504
   63MOL0     H 8466   6.916   4.635  10.595  1.5209  3.8214 -1.5462
   63MOL0     H 8467   6.861   5.288  10.603  0.4748  0.4602  0.3927
   63MOL0     H 8468   7.004   5.456  10.554  1.3090  0.3952  2.0192
   63MOL0     H 8469   7.163   5.586  10.608 -0.0429 -0.9904 -0.0412
   63MOL0     H 8470   7.327   5.550  10.673 -1.5416  2.1172  1.8534
   63MOL0     H 8471   7.354   5.757  10.570 -1.5918 -3.9952  5.8173
   63MOL0     H 8472   7.440   5.635  10.482  2.1723  4.0176 -0.2159
   63MOL0     H 8473   7.333   5.655  10.292 -1.2900 -4.1039  1.4618
   63MOL0     H 8474   7.170   5.660  10.363 -0.3203 -0.6826  0.1023
   63MOL0     H 8475   7.359   5.898  10.346  1.2715 -0.8791 -0.1697
   63MOL0     H 8476   7.220   5.898  10.447  3.3580  1.1723  0.3986
   63MOL0     H 8477   7.146   5.992  10.240 -2.6986 -0.9353  1.8672
   63MOL0     H 8478   7.063   5.843  10.242 -1.4986  3.7491 -3.8329
   63MOL0     H 8479   7.323   5.904  10.101 -0.2760  0.3674 -0.4361
   63MOL0     H 8480   7.261   5.743  10.084  1.9870  0.8114 -2.4847
   63MOL0     H 8481   7.104   5.989   9.989  0.2521  0.1707  0.1811
   63MOL0     H 8482   7.059   5.818   9.989  0.1640 -0.6321  2.8439
   63MOL0     H 8483   7.241   5.753   9.854 -2.9038 -0.1643  3.1906
   63MOL0     H 8484   7.140   5.880   9.785 -1.5696  1.4843  1.6561
   63MOL0     H 8485   7.323   5.179  10.483 -2.0489 -4.0316 -1.2452
   63MOL0     H 8486   7.165   5.002  10.513 -1.1301 -0.5465  1.3833
   63MOL0     H 8487   6.675   4.988  10.592  0.4829 -0.4126 -0.3703
   63MOL0     H 8488   6.484   4.879  10.650  0.9186  0.7455  1.9752
   63MOL0     H 8489   7.055   3.896  11.057 -0.1264 -1.2144  2.2757
   63MOL0     H 8490   7.288   3.926  10.961 -0.4327  1.2619  0.6589
   63MOL0     H 8491   7.804   4.076  11.150 -0.9366 -0.5690  0.1605
   63MOL0     H 8492   8.025   4.120  11.044 -0.1365 -2.5339  0.1588
   63MOL0     H 8493   8.031   4.408  10.718 -0.0989 -0.6676  1.3333
   63MOL0     H 8494   8.048   4.253  10.622 -1.8965  0.1467  0.9983
   63MOL0     H 8495   8.226   4.418  10.595 -1.1312 -2.2822 -1.5997
   63MOL0     H 8496   8.304   4.276  10.668 -2.8899 -1.2108 -1.0456
   63MOL0     H 8497   8.264   4.380  10.898 -3.1335  1.7273  0.6433
   63MOL0     H 8498   8.228   4.526  10.807 -1.9610 -1.3722  2.9467
   63MOL0     H 8499   8.463   4.518  10.709  0.4109 -0.2465  0.4069
   63MOL0     H 8500   8.455   4.518  10.891  0.4971 -0.3006 -0.4022
   63MOL0     H 8501   8.660   4.173  10.858  3.7104  3.3857  1.2763
   63MOL0     H 8502   7.832   4.250  10.691  2.4118 -0.2940 -0.0191
   63MOL0     H 8503   7.516   4.269  10.801  1.2970  0.1556 -0.5529
   63MOL0     H 8504   7.592   4.208  10.654  0.7156 -2.8115 -0.7575
   63MOL0     H 8505   7.522   4.086  10.769  0.3642 -0.3213 -0.3532
   64MOL0     O 8506  10.836   0.034   9.566 -0.1142 -0.1095 -0.4478
   64MOL0     C 8507  10.776  -0.006   9.664 -0.4369 -0.8846 -0.4625
   64MOL0     O 8508  10.841  -0.058   9.771 -0.6123 -0.3710 -0.1194
   64MOL0     C 8509  10.953  -0.136   9.738  0.2400  0.2263  1.0330
   64MOL0     C 8510  11.077  -0.077   9.714 -0.2403  0.2281 -0.5398
   64MOL0     C 8511  11.190  -0.153   9.682 -0.4329  0.8169  0.4357
   64MOL0     C 8512  11.182  -0.290   9.658 -1.1677 -0.5666  0.1211
   64MOL0     O 8513  11.293  -0.377   9.654 -0.8690 -0.5942  0.2050
   64MOL0     C 8514  11.411  -0.344   9.580 -0.4066 -0.8321 -0.1926
   64MOL0     C 8515  11.514  -0.273   9.662 -0.4556  0.5449 -0.0624
   64MOL0     C 8516  11.639  -0.247   9.584 -0.4555 -0.5416  0.6285
   64MOL0     C 8517  11.730  -0.165   9.677  0.3862 -1.1821 -0.4187
   64MOL0     C 8518  11.868  -0.121   9.622  0.1767  0.1217 -0.3498
   64MOL0     C 8519  11.988  -0.212   9.651  0.8587  0.4467  0.5046
   64MOL0     C 8520  12.127  -0.137   9.650  0.4952  0.1843 -0.0040
   64MOL0     C 8521  12.229  -0.226   9.707  0.0718  0.1959 -0.3533
   64MOL0     N 8522  12.351  -0.150   9.730 -0.0517  0.1386  0.7794
   64MOL0     C 8523  12.389  -0.053   9.823 -0.5388  0.1584 -0.2817
   64MOL0     C 8524  12.516  -0.023   9.799 -0.7257 -0.0484  0.3506
   64MOL0     C 8525  12.600   0.066   9.877 -0.5280  0.7663  0.3994
   64MOL0     C 8526  12.691  -0.020   9.977  0.2651  0.7040  0.2488
   64MOL0     C 8527  12.810   0.047  10.048 -1.2204 -0.9476  0.1079
   64MOL0     C 8528  12.870  -0.027  10.168  0.4641  0.5936  0.4772
   64MOL0     O 8529  12.989   0.025  10.209  0.3971 -0.5163  0.6323
   64MOL0     C 8530  13.109  -0.018  10.162  0.2608  0.7055  0.4973
   64MOL0     C 8531  13.125  -0.121  10.067 -0.6726  0.4315  0.0908
   64MOL0     C 8532  13.247  -0.174  10.045 -0.5901 -0.9748 -0.2584
   64MOL0     C 8533  13.358  -0.112  10.104  0.1698 -0.5087 -0.6739
   64MOL0     C 8534  13.503  -0.156  10.070 -0.6173  0.1345 -0.9310
   64MOL0     O 8535  13.605  -0.083  10.115  0.0008  0.3981  0.7507
   64MOL0     C 8536  13.740  -0.096  10.075 -0.2141 -0.6597  0.9277
   64MOL0     C 8537  13.830   0.003  10.129 -0.1926  0.1276  0.4787
   64MOL0     C 8538  13.969  -0.002  10.114 -0.3747  0.2047  0.0625
   64MOL0     C 8539  14.020  -0.106  10.038 -0.5671  0.8080 -0.1133
   64MOL0     O 8540  14.146  -0.119  10.002 -0.0979  0.1616  0.4839
   64MOL0     C 8541  14.212  -0.246  10.036 -0.3652  1.0877 -1.0219
   64MOL0     C 8542  14.364  -0.218  10.032 -0.1491 -0.2645 -0.0144
   64MOL0     C 8543  14.404  -0.099  10.123 -0.1955 -0.7588  0.3561
   64MOL0     C 8544  14.506  -0.005  10.049 -0.0270 -0.3080 -0.2184
   64MOL0     C 8545  14.656  -0.046  10.067 -0.4721 -0.0200 -0.0781
   64MOL0     C 8546  14.679  -0.191  10.026 -0.9609  0.1864  0.1702
   64MOL0     C 8547  14.828  -0.232  10.026 -0.0824 -0.7192  0.0680
   64MOL0     C 8548  14.857  -0.358   9.942 -0.3794 -0.1505 -0.0299
   64MOL0    Cl 8549  14.766  -0.500  10.018  0.7519 -0.2805  0.2096
   64MOL0     C 8550  13.931  -0.195   9.973  0.2062  0.9810  1.0747
   64MOL0     C 8551  13.796  -0.195   9.996  0.9209 -0.6670 -0.0451
   64MOL0     O 8552  13.509  -0.254  10.000 -0.5621  0.6486  0.5342
   64MOL0     C 8553  13.344  -0.002  10.185  0.0034 -0.5612  0.5124
   64MOL0     C 8554  13.218   0.054  10.210 -0.2102  0.7218 -0.7802
   64MOL0     N 8555  12.560  -0.096   9.685  0.2000  0.1592 -0.5756
   64MOL0     N 8556  12.466  -0.169   9.657  0.3219  0.0910  0.2400
   64MOL0     C 8557  11.061  -0.352   9.679  0.3301 -0.6980  0.7019
   64MOL0     C 8558  10.945  -0.274   9.718 -0.3337 -0.1204 -0.7434
   64MOL0     C 8559  10.631   0.030   9.694 -0.0320 -0.2593  0.2511
   64MOL0     C 8560  10.585   0.042   9.828  0.3307 -0.2915 -0.6318
   64MOL0     C 8561  10.444   0.064   9.852  0.2162  0.7916 -1.1070
   64MOL0     C 8562  10.354   0.093   9.748 -0.2152 -0.1903 -0.5353
   64MOL0     O 8563  10.231   0.141   9.795  0.5805 -0.3547 -0.7815
   64MOL0     C 8564  10.147   0.201   9.707  0.1240  0.1463 -0.3443
   64MOL0     C 8565  10.044   0.292   9.774  0.1554  0.1268 -0.0082
   64MOL0     C 8566   9.916   0.231   9.818 -0.4571 -0.6988  0.3888
   64MOL0     C 8567   9.922   0.089   9.884 -0.1972 -0.6471  0.3551
   64MOL0     C 8568   9.784   0.068   9.934 -0.9122 -0.5358 -0.0816
   64MOL0     C 8569   9.667   0.059   9.956 -0.3651  0.2025  0.1713
   64MOL0     C 8570  10.395   0.087   9.616 -0.8554 -0.2099 -0.3024
   64MOL0     C 8571  10.536   0.046   9.588  0.0933  0.6863 -0.5342
   64MOL0     C 8572  10.569   0.014   9.441  0.5178 -0.0258 -0.7793
   64MOL0     H 8573  11.086   0.031   9.716 -2.8189  0.5616  2.8417
   64MOL0     H 8574  11.285  -0.106   9.660  2.4673 -2.9992  3.2394
   64MOL0     H 8575  11.452  -0.437   9.541  2.2194  0.3049 -0.3130
   64MOL0     H 8576  11.379  -0.281   9.496 -2.2144 -0.8772  0.4280
   64MOL0     H 8577  11.545  -0.343   9.740  0.3134 -2.6664 -2.9986
   64MOL0     H 8578  11.475  -0.181   9.707 -1.2857  0.1474  0.0454
   64MOL0     H 8579  11.621  -0.194   9.490  2.1355  1.4747  1.1411
   64MOL0     H 8580  11.697  -0.337   9.563 -2.3248 -1.7346  0.3688
   64MOL0     H 8581  11.672  -0.079   9.710  1.6417 -1.2627  2.2794
   64MOL0     H 8582  11.740  -0.229   9.765  1.1848 -0.9529 -0.3340
   64MOL0     H 8583  11.856  -0.130   9.514  1.9341 -1.0536 -0.4812
   64MOL0     H 8584  11.903  -0.023   9.657  2.3722 -0.2591 -1.3206
   64MOL0     H 8585  11.965  -0.261   9.746  0.7949  2.1604  1.4128
   64MOL0     H 8586  11.986  -0.293   9.578  0.1127  0.4234  0.5455
   64MOL0     H 8587  12.127  -0.038   9.697 -1.4301 -0.9003  2.5511
   64MOL0     H 8588  12.151  -0.107   9.547 -1.3500  4.7530  0.6394
   64MOL0     H 8589  12.194  -0.293   9.786  2.5782 -2.8245 -1.6016
   64MOL0     H 8590  12.256  -0.299   9.630 -1.4108 -2.6228  1.5944
   64MOL0     H 8591  12.337  -0.002   9.903  2.7418 -1.9500  3.5961
   64MOL0     H 8592  12.673   0.127   9.822  3.2809  0.7845  4.8415
   64MOL0     H 8593  12.537   0.134   9.934 -2.6001 -1.8208  1.3823
   64MOL0     H 8594  12.627  -0.055  10.059 -0.2564 -3.4324 -1.6968
   64MOL0     H 8595  12.737  -0.108   9.931  0.1242  1.0166 -0.5053
   64MOL0     H 8596  12.781   0.147  10.082  0.3660 -1.1827  2.3677
   64MOL0     H 8597  12.889   0.073   9.978 -1.4531 -1.0103 -0.1821
   64MOL0     H 8598  12.876  -0.136  10.153  0.5802  0.6104  0.3979
   64MOL0     H 8599  12.798  -0.009  10.248  0.6454 -1.0103  1.0454
   64MOL0     H 8600  13.036  -0.173  10.032 -0.1376 -0.0394 -0.6047
   64MOL0     H 8601  13.249  -0.260   9.978 -0.3728 -0.8890 -0.3596
   64MOL0     H 8602  13.784   0.086  10.182 -1.2571 -0.2122  0.1194
   64MOL0     H 8603  14.035   0.066  10.167 -1.7253  0.4944  1.4316
   64MOL0     H 8604  14.187  -0.270  10.139  0.2944 -4.3001 -1.8180
   64MOL0     H 8605  14.178  -0.334   9.980  2.7040 -0.3893 -0.8078
   64MOL0     H 8606  14.418  -0.308  10.061 -2.4482 -3.0928 -3.6853
   64MOL0     H 8607  14.405  -0.207   9.932  3.5933 -1.6571  1.2038
   64MOL0     H 8608  14.319  -0.036  10.149  0.2330  0.5296 -1.2163
   64MOL0     H 8609  14.453  -0.124  10.218  2.2038 -0.7106 -0.8026
   64MOL0     H 8610  14.498   0.099  10.083 -1.4932 -0.4727  0.0001
   64MOL0     H 8611  14.498  -0.008   9.940  1.4913 -1.4201 -0.3447
   64MOL0     H 8612  14.701  -0.017  10.163 -2.2678  0.8384  0.5511
   64MOL0     H 8613  14.719   0.015  10.003  0.0206  2.0689  2.2209
   64MOL0     H 8614  14.633  -0.260  10.097 -0.0373  2.3821  3.0921
   64MOL0     H 8615  14.629  -0.191   9.928  0.3362 -0.7661 -0.5275
   64MOL0     H 8616  14.846  -0.252  10.132 -1.1759  0.3633  0.4729
   64MOL0     H 8617  14.886  -0.151   9.981 -3.1774  1.1445 -0.8712
   64MOL0     H 8618  14.843  -0.335   9.836 -0.8917  0.7699  0.2242
   64MOL0     H 8619  14.967  -0.365   9.943 -0.3109  0.5575 -1.0434
   64MOL0     H 8620  13.972  -0.266   9.902 -1.3294  1.9566 -0.8673
   64MOL0     H 8621  13.743  -0.279   9.952  1.9804  0.0335 -2.9265
   64MOL0     H 8622  13.432   0.032  10.239 -1.4010  4.1609  0.2756
   64MOL0     H 8623  13.207   0.148  10.261 -0.1286  1.0444 -1.3461
   64MOL0     H 8624  11.045  -0.458   9.665 -0.6237 -0.3037 -1.7746
   64MOL0     H 8625  10.848  -0.322   9.728  0.2134 -0.8614  1.5090
   64MOL0     H 8626  10.650   0.016   9.910  0.0407  0.2216 -0.2386
   64MOL0     H 8627  10.402   0.073   9.952 -2.6972  0.4067 -2.1750
   64MOL0     H 8628  10.093   0.132   9.642  2.3491  0.1134 -2.2543
   64MOL0     H 8629  10.207   0.273   9.651 -1.1675  3.1615  1.8348
   64MOL0     H 8630  10.020   0.369   9.700  3.9478 -0.2989 -1.9221
   64MOL0     H 8631  10.107   0.340   9.850  3.3447  0.8572 -2.8244
   64MOL0     H 8632   9.858   0.224   9.725 -1.6286  0.7485  0.9778
   64MOL0     H 8633   9.862   0.302   9.880  0.7644  0.8327 -0.2419
   64MOL0     H 8634   9.943   0.018   9.803 -2.6772 -1.0635  0.0133
   64MOL0     H 8635  10.005   0.081   9.955 -0.6869 -2.7818  0.7557
   64MOL0     H 8636   9.565   0.066   9.991  0.0765 -0.9086  1.8157
   64MOL0     H 8637  10.329   0.105   9.532 -2.2388 -1.9861  0.3435
   64MOL0     H 8638  10.614  -0.086   9.442 -0.9327 -0.7421  2.0818
   64MOL0     H 8639  10.489   0.015   9.366  0.5638  0.5710 -0.8279
   64MOL0     H 8640  10.637   0.093   9.409  0.8926 -0.7694 -1.8669
   65MOL0     O 8641   9.564   2.831   6.327 -0.0339 -0.0627  0.0837
   65MOL0     C 8642   9.500   2.927   6.280  0.3534  0.3189 -0.0325
   65MOL0     O 8643   9.545   3.035   6.227 -0.1748  0.1122  0.3825
   65MOL0     C 8644   9.685   3.055   6.215  0.8210  0.2964 -1.0169
   65MOL0     C 8645   9.738   3.166   6.280 -0.1484  0.4225  0.6154
   65MOL0     C 8646   9.876   3.187   6.265 -0.2624 -0.2482 -0.1970
   65MOL0     C 8647   9.967   3.099   6.198 -0.2249 -0.9497 -0.7448
   65MOL0     O 8648  10.102   3.124   6.208 -0.2874  0.4185  0.6764
   65MOL0     C 8649  10.197   3.021   6.197  0.2205 -0.2563  0.0941
   65MOL0     C 8650  10.329   3.093   6.210 -0.0349 -0.6157  0.4411
   65MOL0     C 8651  10.439   3.021   6.128 -0.0358 -0.2127 -0.6695
   65MOL0     C 8652  10.563   3.100   6.170 -0.1141  0.7989 -0.3124
   65MOL0     C 8653  10.668   3.045   6.069 -0.7070 -0.5158 -0.2612
   65MOL0     C 8654  10.809   3.100   6.094  0.1701 -0.3486  0.8944
   65MOL0     C 8655  10.909   3.018   6.002 -0.4497 -0.2554 -0.3225
   65MOL0     C 8656  11.015   3.126   5.939  0.2861  1.3900  0.1771
   65MOL0     N 8657  11.111   3.048   5.848  0.0897 -0.3000  0.9754
   65MOL0     C 8658  11.164   3.103   5.728 -0.2784  0.3184  0.3685
   65MOL0     C 8659  11.211   2.993   5.655 -0.1526  0.6091  0.2273
   65MOL0     C 8660  11.272   2.988   5.521 -0.6177  0.2040 -0.4847
   65MOL0     C 8661  11.428   2.963   5.532  0.3096 -0.1616 -0.7388
   65MOL0     C 8662  11.490   3.093   5.591 -0.2239 -0.5612  0.4755
   65MOL0     C 8663  11.641   3.074   5.618 -0.5302  0.3670 -0.5203
   65MOL0     O 8664  11.705   3.203   5.616  0.5301  0.7514  0.0789
   65MOL0     C 8665  11.843   3.207   5.626 -0.3638 -0.0323  0.1361
   65MOL0     C 8666  11.924   3.092   5.638 -0.0426  0.7971  0.4128
   65MOL0     C 8667  12.059   3.110   5.637  0.7998 -0.2278 -0.7577
   65MOL0     C 8668  12.130   3.236   5.617 -0.0246 -0.0168  0.1542
   65MOL0     C 8669  12.284   3.245   5.616  0.1090 -0.1937  0.3587
   65MOL0     O 8670  12.345   3.133   5.670 -0.4779 -0.7373  0.6732
   65MOL0     C 8671  12.476   3.154   5.717  0.8679  0.4067  0.3573
   65MOL0     C 8672  12.583   3.141   5.633  0.3161 -0.7523 -0.6031
   65MOL0     C 8673  12.706   3.192   5.667 -0.4586 -0.2787  0.0938
   65MOL0     C 8674  12.728   3.261   5.791 -0.9216  0.2232  0.1089
   65MOL0     O 8675  12.838   3.322   5.843  0.2690 -0.1327  0.0236
   65MOL0     C 8676  12.964   3.307   5.775  0.1717  0.0584 -0.1155
   65MOL0     C 8677  13.071   3.392   5.843  1.1018  0.1332 -1.0890
   65MOL0     C 8678  13.044   3.546   5.833 -0.6863 -0.5165 -0.2876
   65MOL0     C 8679  13.113   3.614   5.952  0.0303 -0.2101  0.7143
   65MOL0     C 8680  13.082   3.761   5.957 -0.9443 -0.5413 -0.6945
   65MOL0     C 8681  13.175   3.836   6.056  0.8248  1.3635 -0.3032
   65MOL0     C 8682  13.155   3.984   6.064  0.3283  0.2072  0.6635
   65MOL0     C 8683  13.279   4.064   6.038 -0.5201 -0.0228  0.1427
   65MOL0    Cl 8684  13.350   4.047   5.876  0.1869 -0.6339  0.3770
   65MOL0     C 8685  12.617   3.280   5.874  0.9426  0.1368 -0.1293
   65MOL0     C 8686  12.488   3.233   5.835 -0.9639 -0.6870 -0.1661
   65MOL0     O 8687  12.332   3.357   5.581 -0.3207 -0.2268  0.3809
   65MOL0     C 8688  12.048   3.346   5.598 -0.0518 -0.3624  1.6247
   65MOL0     C 8689  11.909   3.329   5.602 -0.1000  0.3775 -0.1898
   65MOL0     N 8690  11.183   2.879   5.727 -0.1810 -0.4967 -0.0947
   65MOL0     N 8691  11.124   2.915   5.834  0.1058  0.3808  0.2035
   65MOL0     C 8692   9.911   2.985   6.154  0.7822 -0.0927  0.2397
   65MOL0     C 8693   9.772   2.956   6.164  0.1237 -0.2316  0.6092
   65MOL0     C 8694   9.354   2.906   6.276 -0.1513  1.1508 -0.2395
   65MOL0     C 8695   9.291   2.869   6.393 -0.3322  0.3479  0.7700
   65MOL0     C 8696   9.150   2.848   6.396  0.5329 -0.2965  0.1900
   65MOL0     C 8697   9.070   2.856   6.275 -0.0834  0.0660  0.9194
   65MOL0     O 8698   8.930   2.837   6.263  0.3892  0.4234 -0.1940
   65MOL0     C 8699   8.853   2.880   6.379 -0.7795 -0.3989  0.0798
   65MOL0     C 8700   8.703   2.882   6.332  0.1994 -0.3587  0.3643
   65MOL0     C 8701   8.669   2.741   6.302  0.6164  0.5932 -0.2110
   65MOL0     C 8702   8.518   2.713   6.294  0.4677 -0.5701 -0.4844
   65MOL0     C 8703   8.457   2.802   6.192 -0.8508  0.5671  0.0384
   65MOL0     C 8704   8.416   2.892   6.114 -0.0243  0.7952  0.1683
   65MOL0     C 8705   9.141   2.884   6.160  0.3641  0.3085  0.4267
   65MOL0     C 8706   9.278   2.907   6.153  0.8002 -0.5519 -0.6060
   65MOL0     C 8707   9.328   2.937   6.021 -0.4767  0.0435  0.2689
   65MOL0     H 8708   9.669   3.237   6.325 -2.8349 -1.0984 -0.8427
   65MOL0     H 8709   9.917   3.280   6.303 -1.4666  1.3440 -2.6018
   65MOL0     H 8710  10.184   2.946   6.276 -2.3354  0.5400  0.5062
   65MOL0     H 8711  10.200   2.966   6.102  0.9376 -1.2017  0.6409
   65MOL0     H 8712  10.357   3.101   6.316  0.6188  0.6257  0.1948
   65MOL0     H 8713  10.328   3.193   6.167  1.2620 -0.9740 -0.4905
   65MOL0     H 8714  10.406   3.024   6.024 -0.9452  1.7602 -0.3713
   65MOL0     H 8715  10.438   2.919   6.167 -1.6058  0.1425  0.3306
   65MOL0     H 8716  10.573   3.209   6.181  0.2551  0.9267 -1.7332
   65MOL0     H 8717  10.597   3.073   6.271  1.1282  0.6116 -0.7709
   65MOL0     H 8718  10.667   2.936   6.063 -1.3613 -0.7488  2.7278
   65MOL0     H 8719  10.644   3.079   5.967  0.9677  0.7252 -0.2741
   65MOL0     H 8720  10.800   3.205   6.066  0.8316 -0.4504  0.2501
   65MOL0     H 8721  10.853   3.086   6.193  1.7997  1.4375  0.4943
   65MOL0     H 8722  10.849   2.965   5.928  0.8697 -0.4361 -1.2930
   65MOL0     H 8723  10.955   2.943   6.067  2.7468  1.3993 -0.4908
   65MOL0     H 8724  10.956   3.190   5.873 -1.5331  0.5209  0.9070
   65MOL0     H 8725  11.057   3.181   6.024 -2.4973  2.5132  0.9384
   65MOL0     H 8726  11.168   3.209   5.704  2.6955  0.4764  1.2272
   65MOL0     H 8727  11.239   2.899   5.466 -0.3970 -1.0113  1.2689
   65MOL0     H 8728  11.263   3.082   5.465 -0.7086 -0.5566 -1.7748
   65MOL0     H 8729  11.453   2.877   5.595 -0.6297  1.1449  1.5221
   65MOL0     H 8730  11.475   2.955   5.433 -0.3023  2.5531 -1.3223
   65MOL0     H 8731  11.438   3.131   5.680  0.3353 -1.8605  1.3845
   65MOL0     H 8732  11.487   3.172   5.515  1.2738 -2.0981 -1.2895
   65MOL0     H 8733  11.696   3.015   5.544  2.5578 -1.7210  3.0747
   65MOL0     H 8734  11.659   3.024   5.714 -1.4938 -1.5128 -1.2618
   65MOL0     H 8735  11.897   2.988   5.652  1.1279  0.6972  2.2840
   65MOL0     H 8736  12.131   3.037   5.674  3.0072  3.0614  2.2029
   65MOL0     H 8737  12.566   3.110   5.530 -1.8861 -1.3850 -0.1056
   65MOL0     H 8738  12.785   3.185   5.593  0.2140 -2.2047  0.9014
   65MOL0     H 8739  13.002   3.206   5.764  0.5410  0.2876 -1.0332
   65MOL0     H 8740  12.951   3.348   5.674  2.4707 -1.8486 -1.2691
   65MOL0     H 8741  13.073   3.353   5.945 -1.4240  1.0309 -0.6246
   65MOL0     H 8742  13.165   3.371   5.791  3.1527 -4.1227  3.4763
   65MOL0     H 8743  13.072   3.599   5.742  1.3469  1.1560  1.1859
   65MOL0     H 8744  12.936   3.553   5.850 -0.5667  1.3791 -0.0739
   65MOL0     H 8745  13.221   3.596   5.950  1.1167  3.9056  4.4996
   65MOL0     H 8746  13.076   3.566   6.043 -1.5030 -1.6751 -0.6283
   65MOL0     H 8747  12.978   3.791   5.977  0.1557  3.3830  0.0688
   65MOL0     H 8748  13.110   3.801   5.860 -1.5496 -0.0823 -0.6884
   65MOL0     H 8749  13.156   3.793   6.155 -0.1761  1.8982 -0.2515
   65MOL0     H 8750  13.280   3.814   6.036  1.1655 -0.4506  2.7801
   65MOL0     H 8751  13.091   4.016   6.147 -1.0114 -2.1592  0.6284
   65MOL0     H 8752  13.095   4.012   5.977  0.0709 -2.6455 -0.1481
   65MOL0     H 8753  13.261   4.171   6.052  2.0229  0.4942 -0.1122
   65MOL0     H 8754  13.357   4.033   6.108 -0.0683  1.0630  0.1394
   65MOL0     H 8755  12.620   3.333   5.969 -0.4104  1.6322 -0.8824
   65MOL0     H 8756  12.396   3.250   5.889 -0.8636 -1.1010  0.1419
   65MOL0     H 8757  12.077   3.449   5.581 -1.1821 -0.0841  1.2942
   65MOL0     H 8758  11.838   3.411   5.592  0.0981  0.7037  0.9194
   65MOL0     H 8759   9.983   2.907   6.132 -0.9173 -1.2665 -1.4577
   65MOL0     H 8760   9.724   2.865   6.131 -0.2845  0.2824 -0.2478
   65MOL0     H 8761   9.336   2.867   6.491 -1.2253  3.5697  1.3502
   65MOL0     H 8762   9.093   2.830   6.486 -1.2918  0.4151 -0.7583
   65MOL0     H 8763   8.889   2.980   6.402  1.5806 -0.9034 -1.1510
   65MOL0     H 8764   8.870   2.817   6.467  0.2979  0.1960  0.3141
   65MOL0     H 8765   8.692   2.944   6.242 -2.6769 -3.4254 -1.6364
   65MOL0     H 8766   8.643   2.923   6.413  0.8274 -1.6779  1.5341
   65MOL0     H 8767   8.712   2.679   6.382 -0.1316 -0.7062 -0.7772
   65MOL0     H 8768   8.720   2.728   6.205 -1.5519  1.4133 -1.5155
   65MOL0     H 8769   8.480   2.611   6.282  1.3300 -0.8172 -1.2675
   65MOL0     H 8770   8.481   2.750   6.390  0.9147  0.3503 -0.6594
   65MOL0     H 8771   8.377   2.960   6.041 -0.8674  3.3307  2.7811
   65MOL0     H 8772   9.085   2.910   6.071  2.0190  3.0378  0.0914
   65MOL0     H 8773   9.360   2.845   5.972 -1.2566  1.0985 -2.3651
   65MOL0     H 8774   9.253   2.993   5.965 -1.5018 -1.8787 -0.3663
   65MOL0     H 8775   9.415   3.003   6.032 -0.2309 -0.5199  2.1759
   66MOL0     O 8776   9.348   3.926   0.091 -0.2795 -0.1062 -0.3013
   66MOL0     C 8777   9.330   3.949  -0.027  0.7603 -0.4394  0.0022
   66MOL0     O 8778   9.430   3.992  -0.112 -0.0298  0.5154 -0.3942
   66MOL0     C 8779   9.561   4.025  -0.079  0.1297  0.2606  0.3102
   66MOL0     C 8780   9.639   3.972   0.019 -0.3547 -1.1917 -0.4980
   66MOL0     C 8781   9.775   4.001   0.031 -0.5572  0.1881  1.1640
   66MOL0     C 8782   9.838   4.076  -0.069  0.1484  0.3342  0.2103
   66MOL0     O 8783   9.966   4.107  -0.077 -0.0695  0.3424  0.3791
   66MOL0     C 8784  10.056   4.111   0.034  0.6453  0.1698 -0.2582
   66MOL0     C 8785  10.199   4.115  -0.033 -0.1987  0.2544  0.8046
   66MOL0     C 8786  10.325   4.101   0.058 -0.0950  0.2794  1.2052
   66MOL0     C 8787  10.468   4.096  -0.015 -0.5688  0.6327  0.8569
   66MOL0     C 8788  10.582   4.052   0.083  0.7721 -0.3318  0.5387
   66MOL0     C 8789  10.631   4.159   0.179  0.5479  0.4551  0.1037
   66MOL0     C 8790  10.730   4.089   0.282 -0.1714  0.3578 -0.5908
   66MOL0     C 8791  10.780   4.190   0.388 -0.5825 -0.1850  0.1047
   66MOL0     N 8792  10.872   4.118   0.476  0.3488  0.9668 -0.7050
   66MOL0     C 8793  11.003   4.091   0.443  0.3424 -0.1073  0.2104
   66MOL0     C 8794  11.058   4.018   0.543  0.3768 -0.3907 -0.4729
   66MOL0     C 8795  11.204   3.975   0.563  0.0479 -0.2013  0.7379
   66MOL0     C 8796  11.229   3.924   0.703 -0.3072  0.4629 -0.1504
   66MOL0     C 8797  11.364   3.857   0.708 -0.2503 -0.4923  0.0310
   66MOL0     C 8798  11.404   3.816   0.852 -1.1656  0.7076 -0.0067
   66MOL0     O 8799  11.548   3.809   0.866  0.2015 -1.2587 -0.3244
   66MOL0     C 8800  11.625   3.756   0.760  0.4925 -0.1312 -0.9289
   66MOL0     C 8801  11.752   3.803   0.755 -0.2498 -0.0077  0.5785
   66MOL0     C 8802  11.846   3.740   0.664  0.2643  0.0829 -0.0342
   66MOL0     C 8803  11.808   3.629   0.590 -0.4666 -0.4924 -0.6218
   66MOL0     C 8804  11.926   3.555   0.531 -0.2438 -0.2260 -0.0918
   66MOL0     O 8805  11.892   3.442   0.451  0.3147  0.6936 -0.4510
   66MOL0     C 8806  11.988   3.358   0.400 -0.1578 -0.6357 -0.3570
   66MOL0     C 8807  11.985   3.222   0.423 -0.2547 -0.3149  0.1142
   66MOL0     C 8808  12.073   3.126   0.362 -0.3437 -1.0790  0.1406
   66MOL0     C 8809  12.175   3.183   0.284  0.1131  1.3410 -0.3061
   66MOL0     O 8810  12.264   3.102   0.227 -0.1436 -0.3114 -0.3542
   66MOL0     C 8811  12.397   3.160   0.213  0.6575  0.2558 -0.2006
   66MOL0     C 8812  12.470   3.043   0.150 -0.6558 -0.2691  0.5561
   66MOL0     C 8813  12.614   3.077   0.145 -0.3110 -1.2458 -0.6287
   66MOL0     C 8814  12.698   2.985   0.056 -0.3332 -0.1050  0.9187
   66MOL0     C 8815  12.850   3.015   0.040  0.5765 -0.1833 -0.0354
   66MOL0     C 8816  12.887   3.141  -0.037 -0.6634  0.4070 -0.5171
   66MOL0     C 8817  13.041   3.136  -0.073  0.6608  0.1272  0.1419
   66MOL0     C 8818  13.062   3.015  -0.163  0.7708  0.6093  0.2882
   66MOL0    Cl 8819  13.190   3.048  -0.266  0.1786 -0.2938  0.1405
   66MOL0     C 8820  12.168   3.317   0.256  0.6745 -0.4745  0.7768
   66MOL0     C 8821  12.072   3.412   0.309  0.1096  0.4765  0.6538
   66MOL0     O 8822  12.039   3.584   0.564 -0.0875  0.0711 -0.2705
   66MOL0     C 8823  11.673   3.582   0.597  0.1455 -0.2724 -0.4254
   66MOL0     C 8824  11.582   3.653   0.680 -0.3023  0.0874 -0.0728
   66MOL0     N 8825  10.946   3.983   0.624  0.2698  0.0096  0.2827
   66MOL0     N 8826  10.841   4.047   0.583 -0.1614  0.9278  0.5345
   66MOL0     C 8827   9.763   4.125  -0.171  0.1588 -0.2245  0.8073
   66MOL0     C 8828   9.625   4.112  -0.165  0.0223  0.0780 -0.3509
   66MOL0     C 8829   9.195   3.937  -0.076 -0.1742  0.8990 -0.8313
   66MOL0     C 8830   9.178   3.897  -0.211 -0.9760 -0.0721  0.0810
   66MOL0     C 8831   9.055   3.877  -0.271 -0.5814  0.3226  0.4327
   66MOL0     C 8832   8.947   3.906  -0.191 -0.3025  0.6387 -0.6632
   66MOL0     O 8833   8.833   3.896  -0.267 -0.0751  0.0265 -0.0878
   66MOL0     C 8834   8.714   3.852  -0.199 -0.2686 -0.6357  0.0053
   66MOL0     C 8835   8.589   3.871  -0.275 -0.4354 -0.0307 -0.5897
   66MOL0     C 8836   8.589   3.822  -0.413 -0.6840  0.1301  0.4541
   66MOL0     C 8837   8.557   3.673  -0.434 -0.1882  0.9623  1.0703
   66MOL0     C 8838   8.560   3.644  -0.584  0.0874 -0.2272  0.0665
   66MOL0     C 8839   8.582   3.638  -0.708 -0.4326  0.1282  0.2021
   66MOL0     C 8840   8.951   3.950  -0.062  0.5384 -0.2996 -0.1417
   66MOL0     C 8841   9.077   3.964  -0.003 -0.0799 -1.1459 -0.5137
   66MOL0     C 8842   9.079   4.015   0.139 -0.2162  0.1788  0.1022
   66MOL0     H 8843   9.584   3.894   0.071 -0.3557 -2.3966 -2.2407
   66MOL0     H 8844   9.825   3.952   0.114 -2.0219  0.0564  1.9950
   66MOL0     H 8845  10.032   4.195   0.099  0.0401 -1.6067  1.9395
   66MOL0     H 8846  10.047   4.019   0.092  0.2482  0.5274  0.2493
   66MOL0     H 8847  10.223   4.210  -0.082  2.3913 -1.7635 -2.2318
   66MOL0     H 8848  10.192   4.035  -0.107 -2.0053 -1.2602  2.4899
   66MOL0     H 8849  10.322   4.015   0.125  2.1902 -1.5332 -0.8167
   66MOL0     H 8850  10.327   4.193   0.117 -1.5604  0.4516  1.0215
   66MOL0     H 8851  10.454   4.020  -0.092  0.9452  3.5363 -2.5979
   66MOL0     H 8852  10.494   4.184  -0.076 -1.9549 -1.4060 -3.0202
   66MOL0     H 8853  10.547   3.969   0.144  0.2599 -0.8994 -0.4957
   66MOL0     H 8854  10.667   4.016   0.023  0.1551 -0.0279 -0.5565
   66MOL0     H 8855  10.681   4.241   0.126  0.2959  0.4140 -0.2030
   66MOL0     H 8856  10.543   4.191   0.235 -0.3200 -0.6502 -0.6023
   66MOL0     H 8857  10.817   4.048   0.230 -0.1965 -2.8085  1.5808
   66MOL0     H 8858  10.674   4.013   0.338  0.6426  0.0490 -0.1723
   66MOL0     H 8859  10.842   4.265   0.338  0.6207 -1.3532 -0.2067
   66MOL0     H 8860  10.689   4.231   0.433 -1.7721  0.9489 -3.0712
   66MOL0     H 8861  11.056   4.138   0.361 -1.1789  0.4363 -0.4929
   66MOL0     H 8862  11.242   3.916   0.479 -0.8125  1.6921 -1.0533
   66MOL0     H 8863  11.250   4.073   0.546 -2.7111  0.5520 -4.1311
   66MOL0     H 8864  11.218   4.006   0.774  1.5650 -0.0346  0.7774
   66MOL0     H 8865  11.162   3.839   0.720  1.9755 -1.3271  0.4892
   66MOL0     H 8866  11.440   3.923   0.665 -0.4494 -0.6172 -0.5266
   66MOL0     H 8867  11.343   3.770   0.645  0.0176 -0.7594  0.3112
   66MOL0     H 8868  11.357   3.719   0.874  0.4967 -0.1437 -0.0478
   66MOL0     H 8869  11.360   3.880   0.929 -0.3506 -2.3711  3.2553
   66MOL0     H 8870  11.783   3.888   0.815 -1.6895 -0.0823  1.4687
   66MOL0     H 8871  11.944   3.785   0.656 -0.1854  0.7779 -2.2144
   66MOL0     H 8872  11.911   3.189   0.496  0.5988  0.8703  1.5833
   66MOL0     H 8873  12.065   3.018   0.367  0.0814 -1.0533  2.3398
   66MOL0     H 8874  12.397   3.255   0.158  0.1860  0.2119 -0.2800
   66MOL0     H 8875  12.438   3.176   0.313 -1.2315  1.7704  0.3885
   66MOL0     H 8876  12.451   2.946   0.197  1.7982 -1.0893 -0.0006
   66MOL0     H 8877  12.438   3.030   0.047  0.4919 -2.1415  0.3851
   66MOL0     H 8878  12.630   3.179   0.111 -0.7959 -1.6403 -2.1277
   66MOL0     H 8879  12.646   3.064   0.249 -1.9386  1.8258  0.3529
   66MOL0     H 8880  12.666   2.991  -0.049  4.9066  1.7313 -0.9551
   66MOL0     H 8881  12.671   2.880   0.066 -1.2128 -0.1736 -1.4913
   66MOL0     H 8882  12.886   2.924  -0.009 -0.9454 -0.8408  0.0219
   66MOL0     H 8883  12.893   3.021   0.140  0.4004 -1.6887  0.1535
   66MOL0     H 8884  12.826   3.148  -0.128 -1.6775 -1.2810 -0.0187
   66MOL0     H 8885  12.875   3.231   0.024 -0.7566 -0.1415  0.2849
   66MOL0     H 8886  13.101   3.138   0.018  1.1735  1.6057 -0.2027
   66MOL0     H 8887  13.072   3.219  -0.137  0.1706 -0.7321 -1.2564
   66MOL0     H 8888  13.091   2.934  -0.095 -0.2532  0.3947  0.4978
   66MOL0     H 8889  12.973   2.982  -0.217  0.8726 -0.4725  0.7459
   66MOL0     H 8890  12.205   3.358   0.163  0.1520 -1.1004  0.2747
   66MOL0     H 8891  12.072   3.512   0.266  1.6563  0.6298  0.9671
   66MOL0     H 8892  11.644   3.498   0.534  1.4068  0.3738 -1.9361
   66MOL0     H 8893  11.487   3.600   0.682 -2.3375  3.3607 -1.6621
   66MOL0     H 8894   9.798   4.207  -0.232 -1.4924 -1.3234 -1.8009
   66MOL0     H 8895   9.559   4.170  -0.230  0.7844  1.4650  0.0580
   66MOL0     H 8896   9.272   3.889  -0.263  0.1580 -0.0911  2.0323
   66MOL0     H 8897   9.029   3.837  -0.369  0.8124  0.8288 -0.1667
   66MOL0     H 8898   8.702   3.908  -0.106 -2.3110  3.0261 -2.2269
   66MOL0     H 8899   8.719   3.746  -0.173 -0.3727 -0.9444 -1.1685
   66MOL0     H 8900   8.563   3.976  -0.288  2.1012  0.7303 -0.0637
   66MOL0     H 8901   8.518   3.824  -0.206  0.1014  1.5871  1.1548
   66MOL0     H 8902   8.687   3.839  -0.457  0.3353 -2.3648  1.5318
   66MOL0     H 8903   8.519   3.884  -0.469  0.6141  0.6816 -0.6192
   66MOL0     H 8904   8.641   3.618  -0.390  2.8465  3.4840 -1.0532
   66MOL0     H 8905   8.460   3.647  -0.391 -0.5384 -1.3514 -0.8817
   66MOL0     H 8906   8.599   3.638  -0.814 -1.3261  1.9726  0.0157
   66MOL0     H 8907   8.862   3.948  -0.001 -0.3119  0.5740 -1.3083
   66MOL0     H 8908   9.154   4.094   0.145 -1.2609  1.0833  2.1023
   66MOL0     H 8909   8.976   4.046   0.162 -1.7787 -4.0301 -0.2664
   66MOL0     H 8910   9.110   3.931   0.203  0.1266 -1.0332 -1.6004
   67MOL0     O 8911   4.577   0.647   5.489  0.6971 -0.1586 -0.4457
   67MOL0     C 8912   4.532   0.691   5.385 -0.8806  0.4902  0.1374
   67MOL0     O 8913   4.607   0.754   5.284 -1.9484 -0.4267  0.5115
   67MOL0     C 8914   4.746   0.749   5.286  1.2066 -0.3903  0.6594
   67MOL0     C 8915   4.828   0.865   5.293 -0.0302 -0.2989 -0.0349
   67MOL0     C 8916   4.965   0.846   5.325  0.3894 -0.3775 -0.4367
   67MOL0     C 8917   5.025   0.725   5.317 -0.1986  0.6450  0.1068
   67MOL0     O 8918   5.161   0.706   5.333  0.2932  0.1684 -0.5456
   67MOL0     C 8919   5.243   0.790   5.414 -0.3083  0.1964  0.8016
   67MOL0     C 8920   5.391   0.780   5.353  0.6069 -0.6488  0.2868
   67MOL0     C 8921   5.454   0.642   5.341  0.6195  0.6513 -0.6140
   67MOL0     C 8922   5.548   0.653   5.215  0.0763 -0.3447 -0.0054
   67MOL0     C 8923   5.641   0.529   5.199  0.9392 -0.0746 -0.7692
   67MOL0     C 8924   5.551   0.401   5.166  0.0486 -0.6825 -0.2736
   67MOL0     C 8925   5.633   0.279   5.187  0.1506  0.7608  0.7814
   67MOL0     C 8926   5.543   0.154   5.206  0.6200 -0.5227 -0.2272
   67MOL0     N 8927   5.440   0.136   5.103 -0.3319 -0.0172 -0.2546
   67MOL0     C 8928   5.485   0.113   4.974  0.5519  0.3628  0.8989
   67MOL0     C 8929   5.374   0.100   4.908 -0.0708 -1.0188  0.1433
   67MOL0     C 8930   5.373   0.080   4.762  0.5215  0.2993 -0.2097
   67MOL0     C 8931   5.354   0.208   4.679 -0.3209 -0.2250 -0.7778
   67MOL0     C 8932   5.356   0.188   4.531 -1.1677 -0.6430 -0.8919
   67MOL0     C 8933   5.328   0.316   4.456  0.0482 -0.2687 -0.0464
   67MOL0     O 8934   5.445   0.403   4.435 -0.7151  0.1019  0.0491
   67MOL0     C 8935   5.419   0.521   4.372  0.3421  0.3616 -0.7498
   67MOL0     C 8936   5.311   0.586   4.422 -0.3950 -0.1344  0.5128
   67MOL0     C 8937   5.267   0.690   4.341 -0.0436 -0.1285  0.7064
   67MOL0     C 8938   5.328   0.733   4.220 -0.0162  0.2990  0.1455
   67MOL0     C 8939   5.285   0.854   4.145  0.4926  0.1264 -0.2656
   67MOL0     O 8940   5.371   0.898   4.048 -0.2951 -0.5848  0.0722
   67MOL0     C 8941   5.359   1.010   3.970 -0.2180  0.9759 -0.0620
   67MOL0     C 8942   5.239   1.074   3.930 -0.4887  0.7378  0.7687
   67MOL0     C 8943   5.234   1.183   3.850 -0.4203  0.8740  0.2222
   67MOL0     C 8944   5.344   1.253   3.796 -0.0339 -0.4988  0.9557
   67MOL0     O 8945   5.338   1.368   3.720 -0.0051  0.0036  0.1462
   67MOL0     C 8946   5.213   1.434   3.692 -0.6367 -0.3232 -0.7031
   67MOL0     C 8947   5.245   1.579   3.651 -0.2257 -0.3424 -0.0374
   67MOL0     C 8948   5.121   1.661   3.629 -0.9692  0.5572 -0.8832
   67MOL0     C 8949   5.159   1.809   3.608  0.2005 -0.0564  0.1348
   67MOL0     C 8950   5.048   1.920   3.650  0.4055  0.4506 -0.2412
   67MOL0     C 8951   4.916   1.890   3.586  0.3921  0.0845 -0.7695
   67MOL0     C 8952   4.804   1.972   3.645  0.9391  1.0236  0.6056
   67MOL0     C 8953   4.864   2.114   3.630 -0.6492 -0.1529  0.1900
   67MOL0    Cl 8954   4.942   2.168   3.484 -0.0252  0.1305  0.1939
   67MOL0     C 8955   5.469   1.194   3.828  0.9553 -0.2884  0.0676
   67MOL0     C 8956   5.475   1.077   3.910 -0.4668  0.5428 -0.9950
   67MOL0     O 8957   5.175   0.905   4.184  0.4152 -1.0150  0.3832
   67MOL0     C 8958   5.433   0.651   4.178  0.3710  0.3239  0.3755
   67MOL0     C 8959   5.485   0.552   4.257  0.0850  0.4223  0.6126
   67MOL0     N 8960   5.260   0.110   4.988 -0.2496 -0.2427  0.2150
   67MOL0     N 8961   5.302   0.143   5.112 -0.0733  0.7207 -0.2960
   67MOL0     C 8962   4.941   0.611   5.294  1.0831  0.0858  1.1867
   67MOL0     C 8963   4.801   0.627   5.280  0.6991  0.9638  0.4921
   67MOL0     C 8964   4.394   0.661   5.347 -0.1047 -0.1418  0.2868
   67MOL0     C 8965   4.306   0.770   5.327 -0.9952  0.4774  0.5048
   67MOL0     C 8966   4.181   0.744   5.284  0.8632 -0.6742 -0.3154
   67MOL0     C 8967   4.133   0.615   5.247 -0.1884 -0.5252 -1.4544
   67MOL0     O 8968   4.013   0.596   5.174 -0.2930  0.2934  0.2713
   67MOL0     C 8969   3.927   0.704   5.159  0.2681 -0.4038  0.0290
   67MOL0     C 8970   3.870   0.751   5.289 -0.5472 -0.2649 -0.5253
   67MOL0     C 8971   3.800   0.645   5.369  0.1750  0.1431 -0.1644
   67MOL0     C 8972   3.766   0.697   5.509  0.4692  0.8031  0.4254
   67MOL0     C 8973   3.639   0.651   5.553  0.4459 -0.6565 -0.3846
   67MOL0     C 8974   3.530   0.625   5.591  0.8798  0.0743  0.2745
   67MOL0     C 8975   4.219   0.508   5.266  0.5321  0.2814 -0.9160
   67MOL0     C 8976   4.339   0.528   5.330 -0.7224  1.3282 -0.4653
   67MOL0     C 8977   4.411   0.396   5.354  0.7895  0.6052  0.7521
   67MOL0     H 8978   4.785   0.965   5.288  3.0226  1.3050  2.0298
   67MOL0     H 8979   5.023   0.937   5.340 -0.2105 -0.2267  1.1895
   67MOL0     H 8980   5.211   0.895   5.409 -3.2838 -0.6486  0.2373
   67MOL0     H 8981   5.241   0.750   5.515  4.8152  0.3697  1.2110
   67MOL0     H 8982   5.449   0.852   5.412  1.0285 -1.1176  0.4495
   67MOL0     H 8983   5.380   0.826   5.254 -0.4577 -0.6649  0.3823
   67MOL0     H 8984   5.370   0.575   5.322 -1.9570  3.0445  1.5892
   67MOL0     H 8985   5.503   0.614   5.435 -0.8707  0.8309  0.2379
   67MOL0     H 8986   5.478   0.647   5.131 -0.5878 -0.5174  0.5512
   67MOL0     H 8987   5.612   0.741   5.220 -0.6643  0.1537  1.0941
   67MOL0     H 8988   5.697   0.551   5.108 -0.1961  2.9028 -0.8851
   67MOL0     H 8989   5.701   0.524   5.290 -0.7985 -0.1380  0.4083
   67MOL0     H 8990   5.461   0.401   5.228 -0.5327  2.0021 -0.9527
   67MOL0     H 8991   5.523   0.399   5.060 -0.8596 -2.7035 -0.0296
   67MOL0     H 8992   5.709   0.288   5.265  3.1906  0.3477 -1.8908
   67MOL0     H 8993   5.699   0.256   5.103  0.7498 -0.7200  1.6120
   67MOL0     H 8994   5.597   0.059   5.208 -0.0895 -1.0126 -2.0407
   67MOL0     H 8995   5.499   0.167   5.305 -0.3988 -0.0593 -0.7214
   67MOL0     H 8996   5.586   0.089   4.942 -1.3185 -2.3801 -3.9592
   67MOL0     H 8997   5.471   0.037   4.738 -0.7791 -2.7537 -0.5485
   67MOL0     H 8998   5.293   0.009   4.738 -0.8143  1.1132  1.6287
   67MOL0     H 8999   5.261   0.255   4.713 -0.7071 -1.7700  0.3749
   67MOL0     H 9000   5.436   0.278   4.699 -1.4512  1.4810 -1.7723
   67MOL0     H 9001   5.283   0.110   4.508 -1.3719 -0.8976  0.5051
   67MOL0     H 9002   5.451   0.142   4.501 -2.1667 -3.0158 -0.6435
   67MOL0     H 9003   5.244   0.359   4.512 -0.1467 -0.5027 -0.1576
   67MOL0     H 9004   5.291   0.293   4.356  0.3204  0.6127 -0.3559
   67MOL0     H 9005   5.263   0.564   4.517 -0.2893 -0.4594  0.4929
   67MOL0     H 9006   5.174   0.738   4.370 -0.1507 -1.9070  3.7880
   67MOL0     H 9007   5.145   1.032   3.967  0.5554 -0.9375  1.6615
   67MOL0     H 9008   5.139   1.202   3.802  0.1234 -1.2244 -1.8312
   67MOL0     H 9009   5.150   1.379   3.621 -0.8304 -0.6714 -0.2708
   67MOL0     H 9010   5.159   1.438   3.787  0.3265  0.2108 -0.1569
   67MOL0     H 9011   5.308   1.617   3.732  2.8448 -1.7685 -1.5445
   67MOL0     H 9012   5.299   1.586   3.556  1.8356  5.1392  1.1486
   67MOL0     H 9013   5.061   1.617   3.548 -0.6258 -1.5304 -0.0739
   67MOL0     H 9014   5.066   1.660   3.724  1.8309  0.1541  0.8652
   67MOL0     H 9015   5.173   1.828   3.501  0.4225  1.6648  0.4463
   67MOL0     H 9016   5.252   1.841   3.657  0.2965 -0.7075  0.3925
   67MOL0     H 9017   5.098   2.010   3.614  1.1349 -0.2949 -1.1044
   67MOL0     H 9018   5.052   1.927   3.759  3.9164  0.2306 -0.2461
   67MOL0     H 9019   4.928   1.892   3.478  0.1772  1.3608 -0.7757
   67MOL0     H 9020   4.893   1.784   3.603 -0.4478  0.6088  1.8976
   67MOL0     H 9021   4.776   1.939   3.746 -1.5762 -1.2539 -0.6838
   67MOL0     H 9022   4.720   1.960   3.575  0.8006 -0.9784  1.0539
   67MOL0     H 9023   4.786   2.191   3.634 -0.0162  0.4550  0.9288
   67MOL0     H 9024   4.926   2.129   3.718 -1.4053  1.0410  0.5367
   67MOL0     H 9025   5.567   1.225   3.794  1.7288 -1.8518  0.7703
   67MOL0     H 9026   5.573   1.035   3.926 -0.1693  0.5151 -2.7051
   67MOL0     H 9027   5.494   0.674   4.091  0.0247 -0.6068 -0.1243
   67MOL0     H 9028   5.571   0.490   4.234 -0.4221 -0.4178  0.9403
   67MOL0     H 9029   4.978   0.509   5.289 -0.1378 -0.3177 -3.2029
   67MOL0     H 9030   4.743   0.537   5.263  0.6209  1.1550 -0.2885
   67MOL0     H 9031   4.339   0.872   5.342  0.6111 -0.1928  1.8326
   67MOL0     H 9032   4.125   0.836   5.268  2.0886  0.2114  0.2747
   67MOL0     H 9033   3.846   0.679   5.089 -0.2499 -1.1448  0.8632
   67MOL0     H 9034   3.978   0.788   5.112  3.0636 -2.6608 -1.2536
   67MOL0     H 9035   3.811   0.838   5.259 -0.0762 -0.6582 -2.7469
   67MOL0     H 9036   3.949   0.781   5.358 -1.1030 -0.8764  0.4003
   67MOL0     H 9037   3.862   0.556   5.382 -0.7193 -0.6702 -1.2436
   67MOL0     H 9038   3.710   0.607   5.320 -0.1909  1.2595 -0.3829
   67MOL0     H 9039   3.835   0.652   5.580  1.4997  2.0734  0.2733
   67MOL0     H 9040   3.759   0.806   5.504  0.9872  0.8989  1.5073
   67MOL0     H 9041   3.432   0.594   5.621  1.1470 -3.7604 -2.0664
   67MOL0     H 9042   4.172   0.413   5.244 -0.4888  1.1628 -2.8359
   67MOL0     H 9043   4.341   0.314   5.374  3.0270 -0.6306  4.4722
   67MOL0     H 9044   4.463   0.367   5.262 -1.3751 -0.1641 -0.2967
   67MOL0     H 9045   4.474   0.405   5.443  1.4185  0.7581  0.2935
   68MOL0     O 9046   3.467   3.259   3.430 -0.4501  0.1623 -0.4373
   68MOL0     C 9047   3.364   3.314   3.464  0.0926  0.9466 -0.2783
   68MOL0     O 9048   3.363   3.434   3.517 -0.1881 -0.0677 -0.4416
   68MOL0     C 9049   3.466   3.471   3.598  0.2107 -0.9723 -1.1413
   68MOL0     C 9050   3.505   3.390   3.706  0.4135 -0.0793 -0.5957
   68MOL0     C 9051   3.630   3.415   3.768 -0.6285  0.2740 -0.6809
   68MOL0     C 9052   3.701   3.529   3.729 -0.4230 -0.4744 -0.4523
   68MOL0     O 9053   3.822   3.562   3.792 -0.3383  0.1224 -1.0667
   68MOL0     C 9054   3.913   3.462   3.849  0.2060 -0.6304  0.2437
   68MOL0     C 9055   3.888   3.430   3.991  0.3747  0.6731 -0.2191
   68MOL0     C 9056   4.006   3.429   4.083  0.7289  0.1678  0.7482
   68MOL0     C 9057   4.022   3.559   4.140 -0.2437 -0.8867 -0.3346
   68MOL0     C 9058   4.160   3.582   4.189  0.0885 -0.1298 -0.8612
   68MOL0     C 9059   4.156   3.718   4.278 -0.1352  0.0059  0.1615
   68MOL0     C 9060   4.287   3.724   4.353 -0.4377 -0.2287  0.6304
   68MOL0     C 9061   4.286   3.849   4.433  0.4186 -0.6993  0.8149
   68MOL0     N 9062   4.238   3.841   4.568 -0.4432  0.3917 -0.4264
   68MOL0     C 9063   4.113   3.807   4.610 -0.2355  0.3193 -0.2892
   68MOL0     C 9064   4.122   3.783   4.745  0.6775 -0.3781 -0.8257
   68MOL0     C 9065   4.005   3.731   4.830  0.2038  0.4689 -0.7706
   68MOL0     C 9066   3.890   3.832   4.842 -0.5957  0.6436 -0.6025
   68MOL0     C 9067   3.780   3.744   4.901  0.6894 -0.4103  0.7346
   68MOL0     C 9068   3.656   3.824   4.942 -0.3770 -0.1216  0.5644
   68MOL0     O 9069   3.595   3.902   4.842 -0.1994 -0.2911  0.5522
   68MOL0     C 9070   3.511   3.838   4.753  0.2963 -0.2219 -0.2572
   68MOL0     C 9071   3.564   3.758   4.648 -0.2373 -0.3014 -0.0933
   68MOL0     C 9072   3.489   3.677   4.564 -0.1948  0.2540 -0.9102
   68MOL0     C 9073   3.349   3.688   4.568  0.0451  0.8351 -0.5459
   68MOL0     C 9074   3.262   3.592   4.492  0.2903  0.4039 -0.0846
   68MOL0     O 9075   3.133   3.611   4.501  0.9934  0.4442 -0.7885
   68MOL0     C 9076   3.046   3.565   4.405  0.0988 -0.7794 -0.0343
   68MOL0     C 9077   3.025   3.435   4.374  0.5584  0.1967  0.0847
   68MOL0     C 9078   2.928   3.388   4.293  1.5458  0.5490 -0.1407
   68MOL0     C 9079   2.834   3.482   4.233 -0.5257  0.6794 -0.4406
   68MOL0     O 9080   2.722   3.452   4.163 -0.5555  0.1244  0.2402
   68MOL0     C 9081   2.658   3.337   4.213  0.2027  0.3577 -0.1847
   68MOL0     C 9082   2.511   3.333   4.168 -0.8822 -0.8744  0.3467
   68MOL0     C 9083   2.433   3.434   4.257 -1.0205  0.3890  0.3607
   68MOL0     C 9084   2.288   3.442   4.216  0.4025  0.1841  0.9447
   68MOL0     C 9085   2.218   3.528   4.320  0.2712 -0.0020  0.4586
   68MOL0     C 9086   2.070   3.532   4.283  0.5324  0.3816  0.5035
   68MOL0     C 9087   1.974   3.614   4.372  0.0090  0.3429  0.9125
   68MOL0     C 9088   1.994   3.769   4.362 -0.9575 -0.8674 -0.2472
   68MOL0    Cl 9089   1.903   3.856   4.226  0.0114 -0.2830 -0.3162
   68MOL0     C 9090   2.852   3.609   4.269  0.7858 -0.5122  0.3694
   68MOL0     C 9091   2.953   3.648   4.353 -0.1510  0.6598  0.0628
   68MOL0     O 9092   3.313   3.503   4.421 -0.3263 -0.9165 -0.0360
   68MOL0     C 9093   3.293   3.779   4.660 -0.4022  1.4160  0.9124
   68MOL0     C 9094   3.374   3.851   4.747 -0.5156 -1.2752 -0.2884
   68MOL0     N 9095   4.246   3.801   4.791  0.3035  0.7554  0.6920
   68MOL0     N 9096   4.317   3.823   4.680 -0.0352  0.1849 -0.4866
   68MOL0     C 9097   3.657   3.613   3.627 -0.5653 -0.4998 -0.2068
   68MOL0     C 9098   3.547   3.579   3.559 -0.3202 -0.3490  0.5489
   68MOL0     C 9099   3.226   3.249   3.436 -0.3787 -0.2257  0.3288
   68MOL0     C 9100   3.112   3.329   3.459  0.0344 -0.0464  0.2439
   68MOL0     C 9101   2.987   3.271   3.443 -0.2564  0.5735 -0.1634
   68MOL0     C 9102   2.979   3.138   3.399  1.0438 -0.1465 -0.3692
   68MOL0     O 9103   2.858   3.080   3.360 -0.4304  0.3886 -0.0475
   68MOL0     C 9104   2.751   3.172   3.336 -0.1199 -0.0467  0.0782
   68MOL0     C 9105   2.755   3.254   3.205 -0.3299  0.2054 -0.2869
   68MOL0     C 9106   2.767   3.172   3.076  0.6227 -0.8381  0.0210
   68MOL0     C 9107   2.680   3.051   3.074 -0.1534  0.6616  0.1063
   68MOL0     C 9108   2.697   2.971   2.949 -0.0896  0.0554 -0.7075
   68MOL0     C 9109   2.683   2.914   2.846 -0.1224  0.1222 -0.9293
   68MOL0     C 9110   3.088   3.061   3.388  0.1385  0.4809 -0.2407
   68MOL0     C 9111   3.218   3.101   3.411  0.0301 -0.6661 -0.6380
   68MOL0     C 9112   3.336   3.010   3.403  0.7755  0.2215  1.2568
   68MOL0     H 9113   3.433   3.314   3.735 -1.0633  0.1878 -3.2508
   68MOL0     H 9114   3.672   3.360   3.852  1.1100  1.5927 -0.6193
   68MOL0     H 9115   3.921   3.376   3.782 -0.7365  0.4903 -1.3827
   68MOL0     H 9116   4.008   3.517   3.842 -1.5946  2.6669 -0.3378
   68MOL0     H 9117   3.847   3.329   4.003  2.7633 -0.3038  0.3103
   68MOL0     H 9118   3.819   3.504   4.032 -0.1331 -0.2808  0.6966
   68MOL0     H 9119   4.091   3.400   4.021  3.1521 -0.6235  4.1057
   68MOL0     H 9120   3.990   3.356   4.163 -2.1247 -1.7884 -1.4111
   68MOL0     H 9121   3.985   3.634   4.071 -4.6155  0.3393  2.8971
   68MOL0     H 9122   3.952   3.576   4.223 -0.0270  1.9017 -0.6445
   68MOL0     H 9123   4.198   3.499   4.248  1.6061  0.5222 -0.8652
   68MOL0     H 9124   4.235   3.577   4.109  0.3674 -1.3837 -0.5472
   68MOL0     H 9125   4.138   3.797   4.204  2.5502 -0.8156 -1.5224
   68MOL0     H 9126   4.077   3.711   4.353  0.8370  2.4095  1.5117
   68MOL0     H 9127   4.365   3.726   4.276 -0.0761 -0.8802  0.9750
   68MOL0     H 9128   4.303   3.638   4.418 -2.4704 -0.0867  1.4085
   68MOL0     H 9129   4.392   3.877   4.435 -0.3805  2.8535  2.7538
   68MOL0     H 9130   4.227   3.926   4.382 -0.1821 -3.1080 -2.4565
   68MOL0     H 9131   4.027   3.796   4.545  1.8284  1.5714 -3.4929
   68MOL0     H 9132   3.977   3.638   4.781 -3.0705  1.4437 -0.9618
   68MOL0     H 9133   4.048   3.710   4.929 -2.1462 -2.1088 -0.1842
   68MOL0     H 9134   3.932   3.914   4.901  1.8455  0.6048 -2.1258
   68MOL0     H 9135   3.856   3.874   4.747 -0.4588  1.8692 -0.1245
   68MOL0     H 9136   3.809   3.691   4.992 -1.5902 -2.5985  0.2895
   68MOL0     H 9137   3.751   3.671   4.824  2.4583  0.4195 -0.8211
   68MOL0     H 9138   3.695   3.891   5.019  0.6444  1.0125 -0.8906
   68MOL0     H 9139   3.590   3.751   4.991  1.0015 -0.5970  1.7827
   68MOL0     H 9140   3.672   3.763   4.642 -0.2546  1.5053  0.4769
   68MOL0     H 9141   3.553   3.621   4.497  1.5755  0.5544  0.4536
   68MOL0     H 9142   3.091   3.379   4.438  1.0447  1.7184  0.9709
   68MOL0     H 9143   2.912   3.283   4.272 -0.1135  0.8252 -0.3389
   68MOL0     H 9144   2.711   3.244   4.190 -1.1943 -0.9551  1.6010
   68MOL0     H 9145   2.666   3.343   4.322  0.6764 -0.5890 -0.1590
   68MOL0     H 9146   2.518   3.351   4.060 -1.6053 -1.0268  0.2704
   68MOL0     H 9147   2.477   3.230   4.179 -1.1165 -0.9843 -1.1662
   68MOL0     H 9148   2.429   3.400   4.360 -0.0585 -0.0884  0.2560
   68MOL0     H 9149   2.480   3.533   4.251 -3.2485  1.6977  2.8142
   68MOL0     H 9150   2.237   3.346   4.202 -0.1057  0.8064 -2.2670
   68MOL0     H 9151   2.278   3.489   4.118  3.3580 -0.0610  0.4427
   68MOL0     H 9152   2.263   3.627   4.308  1.4822 -0.7195 -1.2409
   68MOL0     H 9153   2.220   3.489   4.422 -1.2908  0.0911  0.5465
   68MOL0     H 9154   2.058   3.565   4.179 -0.1363 -1.7509 -0.1430
   68MOL0     H 9155   2.044   3.426   4.280  2.4537 -0.1120 -2.1783
   68MOL0     H 9156   1.990   3.580   4.474  1.7926 -0.6720  0.3251
   68MOL0     H 9157   1.869   3.595   4.348  0.1616 -0.3531  0.7803
   68MOL0     H 9158   1.971   3.830   4.449 -0.1308  0.3970 -0.8858
   68MOL0     H 9159   2.100   3.792   4.349 -0.8153  0.9562  3.1050
   68MOL0     H 9160   2.769   3.675   4.246  1.9724  1.0537  0.4247
   68MOL0     H 9161   2.951   3.755   4.373 -1.4711  0.2573  2.5613
   68MOL0     H 9162   3.186   3.791   4.667 -0.9711 -0.8009 -1.9898
   68MOL0     H 9163   3.337   3.922   4.820 -0.4833 -0.8678 -0.6671
   68MOL0     H 9164   3.710   3.706   3.610 -2.1404  1.0292  2.5564
   68MOL0     H 9165   3.514   3.643   3.477  0.5659 -2.2545 -1.4074
   68MOL0     H 9166   3.125   3.437   3.462 -2.9782  0.6206 -3.3961
   68MOL0     H 9167   2.897   3.331   3.447 -0.8125 -0.2604  0.0311
   68MOL0     H 9168   2.739   3.234   3.425  1.5575 -0.6311  0.7439
   68MOL0     H 9169   2.667   3.102   3.342  1.4471 -1.9002  2.1978
   68MOL0     H 9170   2.847   3.313   3.213  0.6214 -1.2636 -0.1392
   68MOL0     H 9171   2.670   3.324   3.202 -0.3098  0.2236 -0.4652
   68MOL0     H 9172   2.869   3.134   3.080  0.2052 -1.8954  1.3930
   68MOL0     H 9173   2.750   3.234   2.988 -0.4390 -1.1931 -0.0430
   68MOL0     H 9174   2.710   2.980   3.151 -1.2756 -0.5699 -0.5494
   68MOL0     H 9175   2.575   3.075   3.095 -0.2186 -0.4774  1.1750
   68MOL0     H 9176   2.674   2.870   2.749  1.6023  0.9580 -1.5132
   68MOL0     H 9177   3.066   2.959   3.360 -2.5398  1.3332 -1.5184
   68MOL0     H 9178   3.408   3.025   3.484  1.1623  0.6762  0.8370
   68MOL0     H 9179   3.291   2.910   3.412 -0.1429  0.4091 -0.6842
   68MOL0     H 9180   3.382   3.016   3.303 -0.3348  0.1487  0.7236
   69MOL0     O 9181   0.984   9.172   2.202  0.1197  0.8367 -0.3778
   69MOL0     C 9182   1.025   9.157   2.316  0.2563 -0.1459  0.4630
   69MOL0     O 9183   0.943   9.117   2.425 -0.9393  0.3510  0.1822
   69MOL0     C 9184   0.809   9.084   2.409 -0.4542 -0.3052 -0.7764
   69MOL0     C 9185   0.754   9.042   2.531 -0.4661 -0.0790  0.2438
   69MOL0     C 9186   0.618   9.005   2.536 -1.0851  0.3188 -0.0847
   69MOL0     C 9187   0.543   8.984   2.419  0.2903 -0.7235 -0.2322
   69MOL0     O 9188   0.408   8.951   2.425 -1.0365 -0.7952  0.9786
   69MOL0     C 9189   0.327   9.012   2.528 -0.5928 -0.4508 -0.6580
   69MOL0     C 9190   0.186   9.000   2.496  0.8578 -0.7342 -0.1298
   69MOL0     C 9191   0.140   9.108   2.399 -0.1883  0.0458 -0.3836
   69MOL0     C 9192  -0.012   9.124   2.363 -0.5080  0.1218 -0.1497
   69MOL0     C 9193  -0.026   9.263   2.290 -0.5922  0.8677  0.1641
   69MOL0     C 9194  -0.165   9.282   2.240  0.1171  0.6081  0.3318
   69MOL0     C 9195  -0.174   9.371   2.122  0.8386 -0.7188  0.4957
   69MOL0     C 9196  -0.195   9.519   2.169 -0.5341 -0.6332  0.7397
   69MOL0     N 9197  -0.177   9.600   2.041  0.0344 -0.0071 -0.6577
   69MOL0     C 9198  -0.047   9.637   1.995 -0.7292  0.2100  0.0564
   69MOL0     C 9199  -0.080   9.705   1.885 -0.4579 -0.7286 -0.4075
   69MOL0     C 9200   0.022   9.784   1.804 -0.5809  0.0779 -0.6200
   69MOL0     C 9201   0.174   9.755   1.852  0.6188 -0.6179  0.0421
   69MOL0     C 9202   0.252   9.831   1.750  0.1066 -0.0571 -0.0053
   69MOL0     C 9203   0.407   9.817   1.766 -0.6743 -0.0247  0.5104
   69MOL0     O 9204   0.463   9.842   1.632  0.0385 -0.7448 -0.3554
   69MOL0     C 9205   0.593   9.867   1.604 -0.9382  0.5238  0.8535
   69MOL0     C 9206   0.694   9.869   1.692 -0.2788 -0.5007 -1.0731
   69MOL0     C 9207   0.824   9.880   1.643 -0.0225  0.2447 -0.5989
   69MOL0     C 9208   0.845   9.898   1.510  0.3104 -0.6541  0.2751
   69MOL0     C 9209   0.985   9.930   1.467 -0.2705 -0.6424  0.6019
   69MOL0     O 9210   1.067   9.997   1.546  0.4821  0.1692  0.1294
   69MOL0     C 9211   1.186  10.026   1.502 -0.3786 -1.0370  0.1184
   69MOL0     C 9212   1.218  10.148   1.433  0.8931  0.3565  0.1426
   69MOL0     C 9213   1.338  10.193   1.401 -0.5044 -0.6152 -0.4797
   69MOL0     C 9214   1.448  10.125   1.436 -0.6442  0.0010 -0.3366
   69MOL0     O 9215   1.567  10.177   1.387 -0.2308 -0.2816 -0.5426
   69MOL0     C 9216   1.681  10.098   1.408  0.3665 -0.0691 -1.2092
   69MOL0     C 9217   1.744  10.146   1.554 -0.3218 -0.0409  1.2007
   69MOL0     C 9218   1.891  10.082   1.561  0.0414  0.1427 -0.0768
   69MOL0     C 9219   1.948  10.100   1.707  0.1337  0.7970 -0.4897
   69MOL0     C 9220   1.903   9.973   1.773 -0.9725  0.4290  0.4715
   69MOL0     C 9221   1.931   9.974   1.917  0.3219  0.7668 -0.2627
   69MOL0     C 9222   1.832   9.881   1.999  0.2529  0.3444 -0.8589
   69MOL0     C 9223   1.693   9.952   2.013 -0.2140 -0.1431  0.0896
   69MOL0    Cl 9224   1.711  10.104   2.116  0.3054 -0.0947  0.0377
   69MOL0     C 9225   1.435  10.007   1.505 -0.0150  0.1299 -0.6031
   69MOL0     C 9226   1.304   9.957   1.545 -0.2038  1.0689 -0.1154
   69MOL0     O 9227   1.012   9.907   1.352  0.3163 -0.6661  0.6290
   69MOL0     C 9228   0.743   9.896   1.413 -0.8143  0.1522 -0.0777
   69MOL0     C 9229   0.615   9.882   1.461  0.4208 -0.4784 -0.2766
   69MOL0     N 9230  -0.209   9.694   1.858 -0.5213  0.2416 -0.5121
   69MOL0     N 9231  -0.275   9.633   1.953  0.4787 -0.4222  0.4527
   69MOL0     C 9232   0.612   9.001   2.298  0.0147 -0.3227 -0.1165
   69MOL0     C 9233   0.739   9.055   2.292  0.9108 -0.0424  0.4134
   69MOL0     C 9234   1.161   9.199   2.346 -0.6021 -0.1228 -0.1192
   69MOL0     C 9235   1.187   9.233   2.481 -0.1876 -0.1272  0.1606
   69MOL0     C 9236   1.323   9.257   2.522 -0.0423 -0.4035  0.3439
   69MOL0     C 9237   1.427   9.222   2.432 -0.1880 -1.4959 -0.4658
   69MOL0     O 9238   1.551   9.236   2.464 -0.1915  0.8465 -0.0854
   69MOL0     C 9239   1.591   9.297   2.591 -0.4225 -0.3988 -0.6973
   69MOL0     C 9240   1.746   9.314   2.580  0.3412 -0.1721  0.9220
   69MOL0     C 9241   1.814   9.359   2.707 -0.0680 -0.1924  0.0166
   69MOL0     C 9242   1.965   9.355   2.691 -0.2651  0.0132 -0.3973
   69MOL0     C 9243   2.034   9.402   2.815 -0.7356 -0.3677  0.4111
   69MOL0     C 9244   2.109   9.415   2.911  0.6403 -0.7371 -0.3545
   69MOL0     C 9245   1.400   9.179   2.303  0.3786 -0.7179  0.3965
   69MOL0     C 9246   1.273   9.176   2.249  0.9188  0.7194  0.2961
   69MOL0     C 9247   1.257   9.121   2.111  0.2825  0.7843  0.2794
   69MOL0     H 9248   0.805   9.063   2.625 -1.8844 -1.3849  1.3610
   69MOL0     H 9249   0.572   9.001   2.635 -0.9481  0.0841 -0.0299
   69MOL0     H 9250   0.351   8.950   2.614  0.3558 -0.5703 -0.9966
   69MOL0     H 9251   0.349   9.116   2.553 -0.4881 -0.6871  0.2562
   69MOL0     H 9252   0.137   9.009   2.594  3.2851  0.5211  1.0768
   69MOL0     H 9253   0.168   8.902   2.451  1.4997 -2.8831  3.7603
   69MOL0     H 9254   0.202   9.106   2.309  0.1797  2.4755 -0.2506
   69MOL0     H 9255   0.152   9.196   2.462 -0.2995  1.7251 -2.5957
   69MOL0     H 9256  -0.039   9.037   2.302  2.8047  0.2919 -2.1036
   69MOL0     H 9257  -0.078   9.132   2.450 -0.8834  0.1394 -0.4320
   69MOL0     H 9258   0.001   9.343   2.358  0.6560  1.7997 -1.3633
   69MOL0     H 9259   0.038   9.263   2.202  0.3842  1.0232  0.8624
   69MOL0     H 9260  -0.213   9.184   2.224  2.1272 -1.2194  4.1085
   69MOL0     H 9261  -0.212   9.335   2.323 -0.1106 -0.9939  1.2724
   69MOL0     H 9262  -0.259   9.334   2.063  0.4177 -0.8054  1.1406
   69MOL0     H 9263  -0.086   9.363   2.059  0.8185 -0.5466  0.4426
   69MOL0     H 9264  -0.292   9.541   2.216 -0.3120 -1.1361  1.4550
   69MOL0     H 9265  -0.120   9.545   2.245  0.1778 -0.7985  0.0965
   69MOL0     H 9266   0.050   9.620   2.041 -1.0838 -1.8469  0.1661
   69MOL0     H 9267   0.003   9.762   1.699 -3.3476 -0.4019 -0.1049
   69MOL0     H 9268  -0.006   9.889   1.814  1.6612  0.6231  0.4594
   69MOL0     H 9269   0.188   9.799   1.951  0.7880  0.1765 -0.3315
   69MOL0     H 9270   0.196   9.647   1.846  1.4652 -0.4573  0.0276
   69MOL0     H 9271   0.240   9.938   1.726  1.6018 -0.5323 -3.4911
   69MOL0     H 9272   0.222   9.790   1.653 -0.7273  1.6895 -0.5325
   69MOL0     H 9273   0.435   9.716   1.796 -0.7103  0.3502  1.8721
   69MOL0     H 9274   0.443   9.903   1.824 -1.7677  0.3457  0.6668
   69MOL0     H 9275   0.680   9.864   1.799  0.8307  1.9557 -0.7439
   69MOL0     H 9276   0.911   9.882   1.709  0.4033 -3.8575 -0.7642
   69MOL0     H 9277   1.144  10.219   1.399  1.5759  0.8368 -0.3749
   69MOL0     H 9278   1.344  10.293   1.360  1.9016 -0.5436 -0.0713
   69MOL0     H 9279   1.667   9.990   1.397 -0.8160 -0.2373  1.2967
   69MOL0     H 9280   1.755  10.118   1.330 -1.5059 -0.3089 -3.1356
   69MOL0     H 9281   1.746  10.255   1.554 -2.5254  0.0425  2.3827
   69MOL0     H 9282   1.688  10.105   1.639  1.7862  0.3070  2.8537
   69MOL0     H 9283   1.885   9.981   1.520 -4.9654 -1.3498  3.3207
   69MOL0     H 9284   1.953  10.141   1.493 -1.6768  0.1016 -1.7709
   69MOL0     H 9285   1.907  10.190   1.754 -1.6957 -0.0981 -0.2766
   69MOL0     H 9286   2.057  10.105   1.698  0.0098 -0.0866 -3.4317
   69MOL0     H 9287   1.950   9.886   1.725 -0.1078  0.2774  1.5231
   69MOL0     H 9288   1.796   9.962   1.756 -0.4524  0.2414 -3.4045
   69MOL0     H 9289   2.028   9.930   1.944  1.0969  3.2433  1.2985
   69MOL0     H 9290   1.938  10.077   1.953  3.6802  0.9342 -1.0514
   69MOL0     H 9291   1.860   9.872   2.105 -0.6526 -1.4214 -0.7262
   69MOL0     H 9292   1.819   9.782   1.954  0.4193 -0.2516  0.3507
   69MOL0     H 9293   1.632   9.975   1.925 -1.5786 -2.2514  0.4280
   69MOL0     H 9294   1.636   9.887   2.080 -0.2569 -0.0151  0.1763
   69MOL0     H 9295   1.514   9.952   1.554 -1.0502  0.0644  1.1059
   69MOL0     H 9296   1.298   9.861   1.596  3.4503  0.3375 -0.7813
   69MOL0     H 9297   0.768   9.927   1.312 -0.8326 -0.3620 -0.2461
   69MOL0     H 9298   0.534   9.877   1.389 -1.6379 -0.6275  1.9115
   69MOL0     H 9299   0.559   8.994   2.204  0.7506  1.5393 -0.7232
   69MOL0     H 9300   0.770   9.063   2.188 -1.3992 -0.7513 -0.4053
   69MOL0     H 9301   1.109   9.263   2.550  1.7262  0.3289  2.2442
   69MOL0     H 9302   1.326   9.285   2.627 -2.1947 -1.4139  0.7264
   69MOL0     H 9303   1.552   9.227   2.666  1.4798 -0.8051 -0.0459
   69MOL0     H 9304   1.542   9.394   2.599 -1.2416 -0.9198  1.7561
   69MOL0     H 9305   1.768   9.376   2.492 -4.8231  1.3235  0.3887
   69MOL0     H 9306   1.781   9.213   2.557  0.4404 -0.3895  1.9394
   69MOL0     H 9307   1.791   9.291   2.790  0.1575  1.8999  1.8881
   69MOL0     H 9308   1.789   9.462   2.732  0.1225 -0.2736  0.5629
   69MOL0     H 9309   1.999   9.256   2.659  1.3154  0.6904 -0.9258
   69MOL0     H 9310   2.003   9.417   2.610 -2.0612  0.5701 -0.8439
   69MOL0     H 9311   2.157   9.436   3.005 -1.2529 -3.8104  1.4507
   69MOL0     H 9312   1.483   9.147   2.240  0.0944 -0.7997  0.0635
   69MOL0     H 9313   1.353   9.087   2.071 -0.5806 -0.4980 -0.7872
   69MOL0     H 9314   1.210   9.022   2.117  1.2889  0.1240 -1.7246
   69MOL0     H 9315   1.213   9.201   2.050  0.1763 -0.4437 -1.3270
   70MOL0     O 9316   4.234   0.077   6.171  0.2763 -0.8428 -0.1567
   70MOL0     C 9317   4.192  -0.019   6.110  0.2250 -0.5199 -0.2097
   70MOL0     O 9318   4.259  -0.083   6.004  0.2241  0.8834  0.4389
   70MOL0     C 9319   4.398  -0.071   5.997  0.2927  0.9262  0.2904
   70MOL0     C 9320   4.486  -0.056   6.103 -0.4616 -0.2744 -0.3338
   70MOL0     C 9321   4.626  -0.051   6.091 -0.0559 -0.6467  0.0259
   70MOL0     C 9322   4.679  -0.063   5.971  0.3025  0.2243  0.9351
   70MOL0     O 9323   4.809  -0.035   5.959  0.3374 -0.0983  0.6247
   70MOL0     C 9324   4.849   0.059   5.858 -0.4090 -0.2473  0.9523
   70MOL0     C 9325   4.995   0.075   5.866 -1.4549 -0.0680  0.0918
   70MOL0     C 9326   5.016   0.189   5.975 -0.0046  0.2430 -0.1505
   70MOL0     C 9327   5.163   0.198   6.005  0.0493 -0.0950  0.3978
   70MOL0     C 9328   5.189   0.322   6.093 -0.2545 -0.6177 -0.4303
   70MOL0     C 9329   5.336   0.334   6.145 -0.5575 -0.0607 -0.6035
   70MOL0     C 9330   5.379   0.238   6.266 -0.0226 -0.6068  0.1676
   70MOL0     C 9331   5.515   0.264   6.308  0.1503 -0.1304 -0.3350
   70MOL0     N 9332   5.547   0.404   6.351 -1.0719  0.3723 -0.1921
   70MOL0     C 9333   5.648   0.484   6.305 -0.3527  0.7274  0.5394
   70MOL0     C 9334   5.640   0.600   6.368 -1.1371  0.1365 -0.8630
   70MOL0     C 9335   5.732   0.716   6.372 -0.3644  0.4948 -0.6969
   70MOL0     C 9336   5.872   0.674   6.425 -0.2027 -0.4762  0.8199
   70MOL0     C 9337   5.897   0.710   6.567 -0.5853 -1.1687  0.5240
   70MOL0     C 9338   6.038   0.671   6.614 -1.1739 -0.4728 -0.1524
   70MOL0     O 9339   6.047   0.528   6.615  0.1795  0.5491  0.7266
   70MOL0     C 9340   6.168   0.481   6.664 -0.1714 -0.5044  0.2215
   70MOL0     C 9341   6.164   0.354   6.727 -0.2117 -0.8512 -0.0367
   70MOL0     C 9342   6.282   0.295   6.775 -0.6843 -0.7026 -0.0857
   70MOL0     C 9343   6.402   0.373   6.771 -0.6670  1.3962 -0.5634
   70MOL0     C 9344   6.529   0.328   6.840 -0.0941 -0.1050  0.1890
   70MOL0     O 9345   6.646   0.404   6.816  0.4458 -0.3364 -0.6178
   70MOL0     C 9346   6.763   0.387   6.889  0.4505 -0.2757 -0.4833
   70MOL0     C 9347   6.805   0.290   6.980 -0.2968 -0.1897 -0.2617
   70MOL0     C 9348   6.929   0.289   7.034  1.5859  0.5809 -0.6935
   70MOL0     C 9349   7.028   0.374   6.987 -0.0386 -1.1073 -0.0787
   70MOL0     O 9350   7.147   0.360   7.047 -0.3489  1.0349 -0.3683
   70MOL0     C 9351   7.260   0.417   6.975  0.0314  0.7584 -0.2684
   70MOL0     C 9352   7.392   0.370   7.038  0.1108 -0.0035 -0.4705
   70MOL0     C 9353   7.403   0.216   7.054  0.4737 -0.4578 -0.5034
   70MOL0     C 9354   7.411   0.133   6.927  0.3945 -0.5875  1.1743
   70MOL0     C 9355   7.417  -0.018   6.956  0.7104 -0.5104 -0.6820
   70MOL0     C 9356   7.431  -0.107   6.834  0.1244  0.4288 -0.1904
   70MOL0     C 9357   7.379  -0.255   6.858  1.0227  0.4977  0.2878
   70MOL0     C 9358   7.459  -0.328   6.964 -0.0376 -0.3750 -0.2626
   70MOL0    Cl 9359   7.456  -0.499   6.913 -0.1808  0.3519  0.0740
   70MOL0     C 9360   6.993   0.476   6.892 -0.0702 -0.9166 -0.2814
   70MOL0     C 9361   6.860   0.487   6.855  0.4107  0.1011 -0.2316
   70MOL0     O 9362   6.525   0.233   6.908 -0.4308  0.5276  0.2914
   70MOL0     C 9363   6.403   0.494   6.714  0.8044 -0.4537  0.3585
   70MOL0     C 9364   6.293   0.548   6.653 -0.8820 -1.0571 -0.3334
   70MOL0     N 9365   5.523   0.600   6.442 -0.3055  0.2193 -0.1706
   70MOL0     N 9366   5.467   0.487   6.424 -0.2270  0.4740  0.0943
   70MOL0     C 9367   4.601  -0.094   5.859  0.9504  0.7042 -0.7475
   70MOL0     C 9368   4.458  -0.104   5.876  0.2271  1.1008 -0.1643
   70MOL0     C 9369   4.064  -0.067   6.140  0.3263 -0.1116  1.4032
   70MOL0     C 9370   3.983  -0.093   6.030 -0.8117  0.2076 -0.1970
   70MOL0     C 9371   3.856  -0.145   6.041  0.3609  0.4888 -0.1109
   70MOL0     C 9372   3.793  -0.164   6.163  0.3259  1.1889  0.5752
   70MOL0     O 9373   3.666  -0.224   6.180 -0.3043  0.2076 -0.0512
   70MOL0     C 9374   3.607  -0.298   6.069  0.1582 -0.6417 -0.8761
   70MOL0     C 9375   3.470  -0.368   6.116 -0.2316  0.3574  0.2640
   70MOL0     C 9376   3.404  -0.286   6.224 -0.4079  1.4005 -0.1610
   70MOL0     C 9377   3.259  -0.332   6.254  0.4921 -0.1219 -0.3174
   70MOL0     C 9378   3.163  -0.316   6.147  0.2418  1.1385  0.2118
   70MOL0     C 9379   3.079  -0.307   6.056  0.0241 -0.3239 -0.1395
   70MOL0     C 9380   3.868  -0.115   6.276  0.5627  1.3628 -0.2276
   70MOL0     C 9381   4.002  -0.071   6.264 -0.0948 -0.7804 -0.1926
   70MOL0     C 9382   4.085  -0.047   6.388  0.0309  0.2962  0.1815
   70MOL0     H 9383   4.440  -0.034   6.199  1.5310  2.3580  0.1466
   70MOL0     H 9384   4.699  -0.036   6.170  1.5361  0.4153 -1.5649
   70MOL0     H 9385   4.821   0.016   5.762 -0.7876  0.2553  0.8391
   70MOL0     H 9386   4.795   0.154   5.863  0.9373  0.5883  0.2591
   70MOL0     H 9387   5.044   0.109   5.774 -0.5305  2.0182  1.2743
   70MOL0     H 9388   5.027  -0.027   5.886 -1.1561  0.1697  0.8551
   70MOL0     H 9389   4.955   0.174   6.065 -0.3888 -0.2704 -0.4941
   70MOL0     H 9390   4.984   0.280   5.924  0.3454  1.6450  1.9650
   70MOL0     H 9391   5.197   0.113   6.065 -1.1737  0.1823  1.5349
   70MOL0     H 9392   5.222   0.200   5.913 -1.6401  1.7233 -0.7285
   70MOL0     H 9393   5.168   0.416   6.042  1.1355 -0.6664 -1.1460
   70MOL0     H 9394   5.128   0.313   6.183  1.9176 -1.4180  1.0599
   70MOL0     H 9395   5.410   0.329   6.065  2.2771 -0.3901  1.8784
   70MOL0     H 9396   5.326   0.436   6.182 -2.3388  0.0360 -1.2540
   70MOL0     H 9397   5.376   0.135   6.229  5.3844 -1.8664  2.3038
   70MOL0     H 9398   5.315   0.253   6.354  1.6639  0.8945  1.2058
   70MOL0     H 9399   5.533   0.191   6.387 -2.7416 -1.2370 -0.5933
   70MOL0     H 9400   5.581   0.239   6.224  1.5467  0.8065  0.4387
   70MOL0     H 9401   5.719   0.454   6.228 -2.4437 -4.0421  0.1503
   70MOL0     H 9402   5.742   0.745   6.267 -0.7676 -0.5861 -1.0480
   70MOL0     H 9403   5.688   0.799   6.427  0.2654 -0.4362  1.3119
   70MOL0     H 9404   5.887   0.565   6.420  1.1429 -0.3454  1.5454
   70MOL0     H 9405   5.947   0.719   6.359  0.4364 -3.0084 -0.3219
   70MOL0     H 9406   5.822   0.647   6.615 -3.7208  2.8387  1.4063
   70MOL0     H 9407   5.873   0.813   6.594 -3.0689 -1.2149 -1.1950
   70MOL0     H 9408   6.053   0.713   6.714  1.4889  1.6432 -1.3096
   70MOL0     H 9409   6.112   0.709   6.543 -0.7272  1.9198  1.4677
   70MOL0     H 9410   6.066   0.306   6.729 -0.9516  0.5925  1.8154
   70MOL0     H 9411   6.282   0.195   6.816 -0.4271 -0.1386  1.3567
   70MOL0     H 9412   6.729   0.217   7.006  0.8072 -1.8417 -1.4793
   70MOL0     H 9413   6.954   0.208   7.102 -1.9443 -1.5375 -1.6696
   70MOL0     H 9414   7.253   0.392   6.868 -2.8665  2.7458 -0.6638
   70MOL0     H 9415   7.254   0.526   6.980  1.5346  0.9376 -1.4860
   70MOL0     H 9416   7.474   0.410   6.977  0.7542 -1.1275 -0.3772
   70MOL0     H 9417   7.418   0.425   7.129 -0.1509  1.2893 -1.1475
   70MOL0     H 9418   7.494   0.193   7.111 -0.4512 -0.8506  0.8789
   70MOL0     H 9419   7.325   0.178   7.121 -0.8820  0.6801 -1.3924
   70MOL0     H 9420   7.493   0.167   6.863 -0.8438  0.2651 -0.0047
   70MOL0     H 9421   7.322   0.159   6.870 -1.0863 -1.6039  2.9057
   70MOL0     H 9422   7.322  -0.037   7.007 -0.9555 -0.6414 -3.6129
   70MOL0     H 9423   7.499  -0.044   7.023  3.3231  0.1252 -3.4341
   70MOL0     H 9424   7.375  -0.061   6.752  2.0063  3.0050 -0.1411
   70MOL0     H 9425   7.536  -0.117   6.805  0.8335  1.3534  1.8515
   70MOL0     H 9426   7.400  -0.306   6.764  1.2754 -1.5435  1.3860
   70MOL0     H 9427   7.270  -0.251   6.865  1.0653  2.7086  0.3135
   70MOL0     H 9428   7.563  -0.292   6.969 -0.3871  0.4908  1.7953
   70MOL0     H 9429   7.412  -0.309   7.061  2.8178  0.8686  1.0176
   70MOL0     H 9430   7.061   0.553   6.857  0.3151 -1.9290 -1.8653
   70MOL0     H 9431   6.832   0.565   6.785  0.0541  0.2362  0.0582
   70MOL0     H 9432   6.497   0.546   6.730  1.1373 -1.0672  0.4009
   70MOL0     H 9433   6.310   0.655   6.650  1.7331 -1.3497  0.8172
   70MOL0     H 9434   4.628  -0.118   5.756 -0.3182 -0.2750 -0.8853
   70MOL0     H 9435   4.388  -0.132   5.797 -0.7564 -0.1609  1.1138
   70MOL0     H 9436   4.016  -0.065   5.930 -2.0191 -2.9188 -1.6006
   70MOL0     H 9437   3.812  -0.166   5.944  2.3245  1.4625 -1.2833
   70MOL0     H 9438   3.673  -0.377   6.033  0.9037 -0.3228 -0.2447
   70MOL0     H 9439   3.580  -0.236   5.983 -0.2459  0.6371  0.1386
   70MOL0     H 9440   3.485  -0.468   6.158  2.3062  0.2588 -0.7179
   70MOL0     H 9441   3.412  -0.381   6.025  2.0794  4.1209 -1.9947
   70MOL0     H 9442   3.404  -0.178   6.207  0.2922  1.2105 -1.5386
   70MOL0     H 9443   3.459  -0.307   6.316 -2.3329 -1.3893  0.4805
   70MOL0     H 9444   3.263  -0.440   6.271 -1.6436 -0.4351 -1.4103
   70MOL0     H 9445   3.224  -0.289   6.348  0.7320 -1.0296  0.1908
   70MOL0     H 9446   3.013  -0.287   5.973 -2.0860 -2.5087  0.8887
   70MOL0     H 9447   3.822  -0.117   6.374  1.2100 -3.7336  0.2212
   70MOL0     H 9448   4.100   0.061   6.395 -0.2152  0.2552  1.6220
   70MOL0     H 9449   4.042  -0.087   6.481  1.6243  0.9697  1.2471
   70MOL0     H 9450   4.177  -0.105   6.374  0.4110  0.2895  2.3998
   71MOL0     O 9451   0.480   0.185   4.629  0.3943  0.1664  0.2193
   71MOL0     C 9452   0.581   0.165   4.692  0.0323 -0.1408 -0.4716
   71MOL0     O 9453   0.625   0.035   4.739  0.5401 -0.8756  0.1016
   71MOL0     C 9454   0.522  -0.048   4.771  0.8813 -0.5534 -0.5577
   71MOL0     C 9455   0.457  -0.114   4.663 -0.2705 -0.6369  0.0397
   71MOL0     C 9456   0.358  -0.210   4.687  0.2883  0.4852  0.2218
   71MOL0     C 9457   0.304  -0.234   4.817  0.6391  0.9257 -0.3887
   71MOL0     O 9458   0.194  -0.327   4.829  0.8906  0.1506  0.7409
   71MOL0     C 9459   0.113  -0.345   4.960 -0.6090  0.2875  0.4537
   71MOL0     C 9460  -0.016  -0.407   4.920  0.5263  0.0193  0.2280
   71MOL0     C 9461  -0.105  -0.331   4.810 -0.5748  0.2702 -0.8244
   71MOL0     C 9462  -0.222  -0.424   4.794 -0.5648 -0.7931  0.3424
   71MOL0     C 9463  -0.333  -0.362   4.709  0.5249 -0.2178 -0.5975
   71MOL0     C 9464  -0.444  -0.466   4.719  0.8581 -0.5721  1.1147
   71MOL0     C 9465  -0.426  -0.570   4.606 -0.0188  0.1548 -0.1574
   71MOL0     C 9466  -0.456  -0.519   4.465  1.2203  0.5606 -0.3426
   71MOL0     N 9467  -0.606  -0.515   4.438 -0.8185  0.5895  0.3138
   71MOL0     C 9468  -0.681  -0.407   4.433  0.0287  0.1550 -0.1933
   71MOL0     C 9469  -0.792  -0.433   4.359 -0.8852  0.2003 -0.4432
   71MOL0     C 9470  -0.910  -0.345   4.336  1.0149 -0.6693  0.1406
   71MOL0     C 9471  -0.887  -0.208   4.272  0.0492 -0.1560 -0.3019
   71MOL0     C 9472  -1.016  -0.124   4.263 -0.0140  0.2681  0.5286
   71MOL0     C 9473  -0.994  -0.008   4.159 -1.5952  0.7358 -0.2215
   71MOL0     O 9474  -1.123   0.024   4.102 -0.5091  0.0931 -0.2908
   71MOL0     C 9475  -1.151   0.153   4.062  0.1225  0.2170  0.1876
   71MOL0     C 9476  -1.285   0.183   4.032 -1.3578 -0.3588 -0.4116
   71MOL0     C 9477  -1.314   0.300   3.962 -0.4960 -0.5257 -0.4458
   71MOL0     C 9478  -1.210   0.395   3.942 -0.1516  0.4630  0.5692
   71MOL0     C 9479  -1.236   0.526   3.892 -0.1455  0.5086 -1.1838
   71MOL0     O 9480  -1.131   0.620   3.901 -0.5848  0.0118 -1.0255
   71MOL0     C 9481  -1.137   0.738   3.829 -0.6718  0.3075 -1.0002
   71MOL0     C 9482  -1.181   0.744   3.700  0.0769  0.2591  0.4139
   71MOL0     C 9483  -1.175   0.864   3.644 -0.7982 -0.4671  0.7016
   71MOL0     C 9484  -1.115   0.979   3.703  0.1410 -0.4710  0.4395
   71MOL0     O 9485  -1.105   1.101   3.639  0.1491 -0.3447  0.1616
   71MOL0     C 9486  -1.223   1.190   3.646 -0.0549  0.8157 -0.4228
   71MOL0     C 9487  -1.207   1.300   3.755  0.3173  0.4766  0.3259
   71MOL0     C 9488  -1.324   1.394   3.742 -0.7599 -0.4362 -0.2580
   71MOL0     C 9489  -1.337   1.506   3.842 -0.5297  0.1953  0.3697
   71MOL0     C 9490  -1.245   1.628   3.834  0.2527  0.2648  0.5993
   71MOL0     C 9491  -1.281   1.740   3.930  0.1222 -0.1671 -0.4826
   71MOL0     C 9492  -1.186   1.860   3.929 -0.1495 -0.5166  0.6242
   71MOL0     C 9493  -1.250   2.000   3.944  0.3225  0.2573 -0.7490
   71MOL0    Cl 9494  -1.295   2.036   4.105  0.4391  0.0324  0.6187
   71MOL0     C 9495  -1.060   0.966   3.825 -0.4149  0.0770 -0.2901
   71MOL0     C 9496  -1.073   0.839   3.886 -0.5323  0.0256 -0.3446
   71MOL0     O 9497  -1.349   0.549   3.852  0.2420 -0.0887 -0.0100
   71MOL0     C 9498  -1.078   0.359   3.975  0.7901  0.5658  1.0555
   71MOL0     C 9499  -1.045   0.235   4.026  0.3352 -1.1380 -0.3051
   71MOL0     N 9500  -0.783  -0.568   4.335  0.3039  0.3479  0.7851
   71MOL0     N 9501  -0.672  -0.614   4.379 -0.4136 -1.4093 -0.4909
   71MOL0     C 9502   0.361  -0.164   4.926 -0.7898 -0.5330  0.0959
   71MOL0     C 9503   0.473  -0.077   4.898 -0.4867 -0.3654  0.1288
   71MOL0     C 9504   0.650   0.284   4.738 -0.8469 -0.1095 -0.4187
   71MOL0     C 9505   0.742   0.259   4.846 -0.2433 -0.9059  0.2999
   71MOL0     C 9506   0.813   0.362   4.903 -0.3782  0.2279  0.9447
   71MOL0     C 9507   0.804   0.499   4.852 -0.3331  0.4794  0.5437
   71MOL0     O 9508   0.877   0.609   4.890 -0.3548 -0.7793 -0.1755
   71MOL0     C 9509   0.996   0.589   4.968  0.6242  0.4315 -0.0178
   71MOL0     C 9510   1.117   0.547   4.893  0.4041  0.3932 -1.1098
   71MOL0     C 9511   1.251   0.577   4.972 -0.1482  1.3489  0.0583
   71MOL0     C 9512   1.306   0.722   4.949  1.2205 -0.5056 -0.1826
   71MOL0     C 9513   1.342   0.737   4.805 -0.0590 -0.5586  0.1202
   71MOL0     C 9514   1.384   0.776   4.692 -0.4355  0.1106 -0.0348
   71MOL0     C 9515   0.709   0.522   4.758 -0.6776 -0.5126  0.1932
   71MOL0     C 9516   0.644   0.417   4.692  0.2361  0.5065  0.2157
   71MOL0     C 9517   0.548   0.457   4.577  0.5383 -0.2235  0.1141
   71MOL0     H 9518   0.483  -0.098   4.559  1.0670 -0.0862  0.4417
   71MOL0     H 9519   0.310  -0.274   4.614  0.9413 -1.4054  1.3740
   71MOL0     H 9520   0.181  -0.398   5.028 -0.9344  0.8251  1.2112
   71MOL0     H 9521   0.091  -0.248   5.006  2.3992  0.0738  2.6542
   71MOL0     H 9522  -0.074  -0.430   5.009  1.3324  1.9129  1.3071
   71MOL0     H 9523   0.009  -0.508   4.885 -1.5041  0.9067 -4.6981
   71MOL0     H 9524  -0.051  -0.317   4.716 -2.1393  1.2751 -1.6162
   71MOL0     H 9525  -0.130  -0.228   4.837  2.8049  1.5708 -2.1031
   71MOL0     H 9526  -0.181  -0.519   4.759 -1.4426  0.2842 -4.3299
   71MOL0     H 9527  -0.266  -0.421   4.894  3.3085  2.4656  2.2287
   71MOL0     H 9528  -0.370  -0.261   4.727 -1.1644 -0.6732 -1.3538
   71MOL0     H 9529  -0.290  -0.344   4.610 -2.7287  1.3358 -1.8747
   71MOL0     H 9530  -0.440  -0.509   4.820 -1.0503 -0.5014  1.2707
   71MOL0     H 9531  -0.542  -0.420   4.701  0.8434 -1.5117 -1.5912
   71MOL0     H 9532  -0.482  -0.660   4.634  0.8389  0.3608  2.3878
   71MOL0     H 9533  -0.324  -0.609   4.598 -0.1683 -0.4743  0.8670
   71MOL0     H 9534  -0.413  -0.421   4.441  1.1654  1.2181  2.0412
   71MOL0     H 9535  -0.414  -0.584   4.388 -1.6965 -1.7498 -0.1474
   71MOL0     H 9536  -0.680  -0.304   4.467  0.7704  0.4509 -1.0526
   71MOL0     H 9537  -0.981  -0.401   4.274  2.8398  0.1280 -2.8628
   71MOL0     H 9538  -0.962  -0.324   4.431 -0.2821  3.1904 -1.2207
   71MOL0     H 9539  -0.812  -0.155   4.332 -0.1074 -2.6972  2.3228
   71MOL0     H 9540  -0.844  -0.219   4.172  0.7599  2.3062 -0.3287
   71MOL0     H 9541  -1.036  -0.093   4.366  3.6616  0.2143  1.4015
   71MOL0     H 9542  -1.094  -0.188   4.222  0.1945  0.8692 -0.8580
   71MOL0     H 9543  -0.935  -0.057   4.081 -1.3164  1.1592 -0.2759
   71MOL0     H 9544  -0.946   0.075   4.211  0.3043 -0.1773 -0.4486
   71MOL0     H 9545  -1.357   0.105   4.054  0.0589 -1.8481 -0.8626
   71MOL0     H 9546  -1.418   0.315   3.932 -0.2891 -1.4844 -1.7632
   71MOL0     H 9547  -1.221   0.657   3.649 -2.7015  2.1857 -1.0328
   71MOL0     H 9548  -1.199   0.880   3.539  2.0868  0.0938  0.0384
   71MOL0     H 9549  -1.234   1.245   3.552  1.9826  1.1934 -0.4917
   71MOL0     H 9550  -1.312   1.128   3.665  0.3867  0.0821 -0.6935
   71MOL0     H 9551  -1.195   1.253   3.853 -0.3941 -0.7414 -0.1418
   71MOL0     H 9552  -1.112   1.351   3.738  0.0062  0.5357 -1.3866
   71MOL0     H 9553  -1.314   1.445   3.646  0.9198  1.3093  0.7736
   71MOL0     H 9554  -1.415   1.335   3.738 -0.0424 -1.6078  0.1553
   71MOL0     H 9555  -1.323   1.460   3.941  1.1787 -0.4054 -0.1211
   71MOL0     H 9556  -1.441   1.539   3.835 -0.3575  1.1601  1.8781
   71MOL0     H 9557  -1.241   1.666   3.731 -1.0741  0.1307  0.4828
   71MOL0     H 9558  -1.147   1.594   3.870 -0.9391  0.7349  4.8490
   71MOL0     H 9559  -1.383   1.770   3.908 -0.9760 -3.2279  0.0449
   71MOL0     H 9560  -1.272   1.699   4.031  1.6567 -2.8409 -1.5951
   71MOL0     H 9561  -1.149   1.863   3.826  1.6884  2.7386  1.2492
   71MOL0     H 9562  -1.104   1.852   4.000 -0.1520 -3.1577  0.4120
   71MOL0     H 9563  -1.183   2.082   3.917 -0.3666  1.2788  0.5106
   71MOL0     H 9564  -1.338   2.014   3.881 -0.4220 -0.8489 -0.0071
   71MOL0     H 9565  -1.025   1.054   3.878  3.1220 -1.1190 -0.4456
   71MOL0     H 9566  -1.036   0.830   3.987  2.4221  2.8696 -1.0105
   71MOL0     H 9567  -0.994   0.423   3.951  0.1275  1.0634 -0.0328
   71MOL0     H 9568  -0.944   0.198   4.029  0.3792 -1.4429 -3.1622
   71MOL0     H 9569   0.304  -0.182   5.016 -2.9488  2.9927 -0.3388
   71MOL0     H 9570   0.516  -0.013   4.975  2.1915 -0.5995 -1.0866
   71MOL0     H 9571   0.749   0.157   4.884 -2.1260 -1.0281  0.4031
   71MOL0     H 9572   0.885   0.333   4.978  0.9230 -1.0696 -0.7021
   71MOL0     H 9573   0.981   0.518   5.050  0.3195 -0.8361 -1.1367
   71MOL0     H 9574   1.023   0.687   5.008  0.4865  0.4564  0.0166
   71MOL0     H 9575   1.123   0.597   4.796 -2.5270  1.1839 -0.9847
   71MOL0     H 9576   1.113   0.439   4.876  2.0887  0.1310 -0.0737
   71MOL0     H 9577   1.327   0.505   4.940  0.1612  1.5197  0.3974
   71MOL0     H 9578   1.233   0.558   5.078  2.3494 -1.7673  0.0743
   71MOL0     H 9579   1.224   0.789   4.977  1.9457  1.7470 -2.8847
   71MOL0     H 9580   1.397   0.738   5.007  1.6674 -0.9907 -0.7360
   71MOL0     H 9581   1.426   0.812   4.600  3.3252 -0.2968  1.3443
   71MOL0     H 9582   0.689   0.618   4.711  0.7293 -0.0847  0.4128
   71MOL0     H 9583   0.565   0.391   4.492  1.0925 -2.8442  2.1211
   71MOL0     H 9584   0.449   0.442   4.620  0.8545 -1.3088  0.5048
   71MOL0     H 9585   0.558   0.558   4.536  1.6370 -1.3680 -2.6939
   72MOL0     O 9586   9.078   4.108  10.807 -0.0038 -0.1269 -0.0419
   72MOL0     C 9587   9.131   4.206  10.746  0.0199 -0.1669  0.4595
   72MOL0     O 9588   9.264   4.223  10.736 -0.0922 -1.0320  0.3911
   72MOL0     C 9589   9.357   4.132  10.781 -1.2991  0.4543 -0.3694
   72MOL0     C 9590   9.483   4.191  10.773  0.3192  0.2347  0.6389
   72MOL0     C 9591   9.594   4.139  10.821 -0.1273  0.5112  0.1464
   72MOL0     C 9592   9.588   4.023  10.904  0.1492 -0.2042 -0.1741
   72MOL0     O 9593   9.692   3.956  10.962  1.1695  0.2894  0.5833
   72MOL0     C 9594   9.818   3.976  10.897 -0.8903  1.3709 -0.4141
   72MOL0     C 9595   9.933   3.945  10.995 -0.0267 -1.0342 -0.5680
   72MOL0     C 9596  10.062   3.913  10.914 -0.2920  0.3052  0.1706
   72MOL0     C 9597  10.179   3.883  11.007  0.7219 -0.5683 -0.8324
   72MOL0     C 9598  10.299   3.830  10.930  0.1788 -0.1061 -0.8338
   72MOL0     C 9599  10.415   3.812  11.024 -0.1661  0.5530  0.4196
   72MOL0     C 9600  10.396   3.734  11.154  0.8636 -0.2703 -0.7358
   72MOL0     C 9601  10.519   3.706  11.239 -0.2044  0.0130  0.3161
   72MOL0     N 9602  10.624   3.624  11.178  0.3707  0.6847  0.1981
   72MOL0     C 9603  10.635   3.487  11.187 -0.3815 -0.0122  0.0093
   72MOL0     C 9604  10.742   3.462  11.104 -0.2471 -0.4817  0.5617
   72MOL0     C 9605  10.775   3.314  11.074 -0.4601 -0.0653 -0.2396
   72MOL0     C 9606  10.897   3.304  10.981 -0.1710  0.0223  0.2150
   72MOL0     C 9607  10.912   3.166  10.915  0.2236 -0.7605 -0.2639
   72MOL0     C 9608  11.008   3.173  10.800  0.1730 -0.3618  0.0680
   72MOL0     O 9609  11.131   3.214  10.854 -0.4390 -0.1713  0.3541
   72MOL0     C 9610  11.247   3.209  10.782 -0.6691  0.1016  0.2885
   72MOL0     C 9611  11.262   3.175  10.646  0.0902 -1.0907 -0.3827
   72MOL0     C 9612  11.373   3.201  10.569 -0.3512 -0.3566 -0.2309
   72MOL0     C 9613  11.484   3.240  10.637 -0.4174  0.0742 -0.3970
   72MOL0     C 9614  11.615   3.263  10.562  0.6041  0.8053 -0.0823
   72MOL0     O 9615  11.624   3.206  10.440  0.3801 -0.5830  0.4379
   72MOL0     C 9616  11.746   3.218  10.385 -0.5286 -0.3471 -0.1227
   72MOL0     C 9617  11.796   3.106  10.320  0.4523  0.4376 -1.2802
   72MOL0     C 9618  11.920   3.117  10.250 -0.9095  0.7122 -0.1904
   72MOL0     C 9619  11.994   3.240  10.235 -0.5215 -0.0219  0.4657
   72MOL0     O 9620  12.110   3.252  10.162 -0.0991  0.6743 -0.0427
   72MOL0     C 9621  12.222   3.187  10.232 -0.3337 -0.4457  0.4760
   72MOL0     C 9622  12.361   3.246  10.188  0.2042 -0.1230 -0.0673
   72MOL0     C 9623  12.478   3.236  10.286 -0.6739  0.2443 -0.0729
   72MOL0     C 9624  12.543   3.098  10.309  0.1063 -0.2710 -0.3332
   72MOL0     C 9625  12.594   3.071  10.446 -0.5705 -0.0947  0.1765
   72MOL0     C 9626  12.725   3.155  10.475 -0.9910 -0.4122  0.4549
   72MOL0     C 9627  12.819   3.082  10.573  0.5852  0.1329  0.4188
   72MOL0     C 9628  12.778   3.100  10.714  0.6551  0.7539  0.2206
   72MOL0    Cl 9629  12.639   3.003  10.762 -0.2317  0.2069 -0.1755
   72MOL0     C 9630  11.927   3.350  10.297 -0.6773 -0.1689  0.2579
   72MOL0     C 9631  11.814   3.338  10.374  0.1782  0.6646  0.1011
   72MOL0     O 9632  11.707   3.306  10.625 -0.7032  0.1857 -0.2655
   72MOL0     C 9633  11.483   3.258  10.778  0.2643 -1.1992  0.9648
   72MOL0     C 9634  11.361   3.249  10.847 -0.2345  0.2844  0.6911
   72MOL0     N 9635  10.785   3.574  11.035  0.5083  0.1465 -0.2785
   72MOL0     N 9636  10.717   3.670  11.081 -0.5793 -0.1982 -0.4739
   72MOL0     C 9637   9.463   3.960  10.922  0.1255  0.6637 -0.0430
   72MOL0     C 9638   9.349   4.019  10.866  0.0376  0.6402  0.6945
   72MOL0     C 9639   9.043   4.306  10.684 -0.5538 -0.2993  0.4529
   72MOL0     C 9640   8.934   4.249  10.622  0.6137  0.2105  0.0040
   72MOL0     C 9641   8.830   4.335  10.571  0.2879  0.3730  0.8480
   72MOL0     C 9642   8.844   4.476  10.593 -0.2717  0.1242 -0.1967
   72MOL0     O 9643   8.734   4.531  10.539  0.3174 -0.3090 -0.4610
   72MOL0     C 9644   8.704   4.675  10.573 -0.8720 -0.5885 -0.3775
   72MOL0     C 9645   8.591   4.708  10.487  0.6769 -0.1124  0.7059
   72MOL0     C 9646   8.508   4.830  10.529 -0.1621  0.6143 -0.3844
   72MOL0     C 9647   8.418   4.816  10.653 -0.0360  0.7942  0.5052
   72MOL0     C 9648   8.501   4.828  10.768  0.5221  0.0367  0.0202
   72MOL0     C 9649   8.572   4.844  10.867  0.2028  0.7639  0.1832
   72MOL0     C 9650   8.954   4.530  10.650 -0.4044  0.2731  0.3197
   72MOL0     C 9651   9.056   4.444  10.695  0.6113 -0.5085  0.1137
   72MOL0     C 9652   9.184   4.505  10.756  0.6242  0.0754 -0.7310
   72MOL0     H 9653   9.468   4.290  10.729 -1.9752 -0.6282 -0.7485
   72MOL0     H 9654   9.674   4.210  10.804 -0.9156  1.4515  0.2348
   72MOL0     H 9655   9.816   3.907  10.812  0.3070  1.3399 -0.4340
   72MOL0     H 9656   9.831   4.077  10.856 -3.4144  2.1002  0.4196
   72MOL0     H 9657   9.910   3.860  11.060  4.1077 -1.2076  0.9962
   72MOL0     H 9658   9.946   4.033  11.059  0.0792 -1.5392  0.1203
   72MOL0     H 9659  10.085   3.982  10.832  2.4771 -0.1692  0.4575
   72MOL0     H 9660  10.040   3.819  10.862 -1.7284  1.9491 -2.4314
   72MOL0     H 9661  10.209   3.970  11.066 -4.5607 -0.5257  2.3984
   72MOL0     H 9662  10.144   3.809  11.080 -0.5028  1.5975  0.9005
   72MOL0     H 9663  10.267   3.743  10.873 -3.9226  0.2387  0.6580
   72MOL0     H 9664  10.326   3.908  10.858  1.0174  2.2221  1.8155
   72MOL0     H 9665  10.478   3.744  10.966  1.0881  0.8558  1.3715
   72MOL0     H 9666  10.479   3.901  11.020  0.0520  0.3555 -2.1468
   72MOL0     H 9667  10.339   3.643  11.136 -0.6032  0.6383 -0.9015
   72MOL0     H 9668  10.330   3.795  11.218  2.5630  0.2946  0.5528
   72MOL0     H 9669  10.562   3.803  11.264  1.2585  0.2840 -2.7649
   72MOL0     H 9670  10.504   3.657  11.336  2.5543  1.1647  1.4362
   72MOL0     H 9671  10.582   3.410  11.242  0.1043  0.2459  0.8542
   72MOL0     H 9672  10.771   3.248  11.162  1.6416 -2.0650 -1.5225
   72MOL0     H 9673  10.691   3.286  11.011  0.6011  5.5717 -4.9742
   72MOL0     H 9674  10.890   3.374  10.897  1.0810 -1.8516 -1.5431
   72MOL0     H 9675  10.985   3.325  11.042 -2.5246 -0.4482  4.1530
   72MOL0     H 9676  10.826   3.108  10.880  2.0818 -3.1358 -1.1313
   72MOL0     H 9677  10.964   3.099  10.985  0.9074 -1.7823 -1.7051
   72MOL0     H 9678  10.983   3.241  10.718  3.5766 -0.3726 -1.1127
   72MOL0     H 9679  11.024   3.073  10.757  0.3639 -0.9364  1.4395
   72MOL0     H 9680  11.187   3.131  10.581  1.8014 -0.5100 -2.8763
   72MOL0     H 9681  11.370   3.168  10.466  1.6704 -1.5113  0.0395
   72MOL0     H 9682  11.730   3.019  10.324  1.0765  0.0089  0.7857
   72MOL0     H 9683  11.952   3.035  10.187  0.0501  0.6966  0.2982
   72MOL0     H 9684  12.193   3.201  10.337 -0.9618 -2.6252  0.6460
   72MOL0     H 9685  12.205   3.082  10.210 -1.7657  0.0311 -0.8643
   72MOL0     H 9686  12.398   3.202  10.095 -2.6150 -0.4150 -1.1349
   72MOL0     H 9687  12.343   3.351  10.168  0.0383  0.4391  2.6111
   72MOL0     H 9688  12.559   3.302  10.253 -1.9591  1.2832 -1.2754
   72MOL0     H 9689  12.448   3.280  10.382 -1.5314 -2.5950  1.0402
   72MOL0     H 9690  12.620   3.079  10.234  0.2255 -5.5235  0.7002
   72MOL0     H 9691  12.457   3.030  10.304 -1.1026  0.7555  3.0843
   72MOL0     H 9692  12.608   2.964  10.458 -1.1417 -0.2421 -0.3949
   72MOL0     H 9693  12.514   3.091  10.518 -0.6429 -0.2222  0.1323
   72MOL0     H 9694  12.785   3.157  10.383 -0.2177  0.2657  0.9594
   72MOL0     H 9695  12.700   3.259  10.499  0.3454  0.2709 -0.8951
   72MOL0     H 9696  12.914   3.134  10.559  1.0776 -1.1994 -1.3828
   72MOL0     H 9697  12.836   2.979  10.543 -2.7163 -0.5902  0.7088
   72MOL0     H 9698  12.855   3.066  10.784 -0.1881  1.5614  1.5974
   72MOL0     H 9699  12.759   3.205  10.738  1.5855  1.7981 -3.0457
   72MOL0     H 9700  11.963   3.450  10.276 -2.3825 -0.2670 -4.2059
   72MOL0     H 9701  11.780   3.435  10.412  3.2653  1.2610  1.7045
   72MOL0     H 9702  11.567   3.287  10.840  1.4134 -3.7739  0.7923
   72MOL0     H 9703  11.353   3.271  10.953 -2.2813  2.8746  0.0966
   72MOL0     H 9704   9.458   3.860  10.964 -1.7854  0.6497 -0.2033
   72MOL0     H 9705   9.256   3.962  10.867  0.5900 -0.2945  0.2271
   72MOL0     H 9706   8.921   4.141  10.621  0.7527  0.1923  0.1268
   72MOL0     H 9707   8.740   4.293  10.527  0.3965  1.8169 -0.8537
   72MOL0     H 9708   8.787   4.745  10.573 -1.6625  0.6474  3.7479
   72MOL0     H 9709   8.677   4.660  10.678 -0.1203 -0.8518 -0.2173
   72MOL0     H 9710   8.531   4.617  10.487 -1.5041  1.1147 -3.0739
   72MOL0     H 9711   8.636   4.722  10.388  3.0923  1.0679  1.8529
   72MOL0     H 9712   8.437   4.853  10.450 -1.5176 -3.7372 -0.6810
   72MOL0     H 9713   8.576   4.916  10.533 -1.1364  1.3790  2.1913
   72MOL0     H 9714   8.354   4.904  10.663 -0.9994  0.1242  0.4083
   72MOL0     H 9715   8.361   4.723  10.651 -0.3466  0.9876 -0.0127
   72MOL0     H 9716   8.643   4.844  10.947 -0.8037  0.8740  1.1026
   72MOL0     H 9717   8.979   4.636  10.660 -0.3128  0.1453  1.5907
   72MOL0     H 9718   9.187   4.481  10.862  0.9429 -1.6026 -1.0875
   72MOL0     H 9719   9.273   4.470  10.703  0.1584 -1.7008 -0.3911
   72MOL0     H 9720   9.175   4.614  10.745 -2.0186 -0.0554 -0.5866
   73MOL0     O 9721   3.045   6.790   1.336  0.0493 -0.3553 -0.5358
   73MOL0     C 9722   2.965   6.722   1.274  1.2856  0.3056 -0.2497
   73MOL0     O 9723   2.835   6.766   1.233  0.2026  0.5030 -1.2033
   73MOL0     C 9724   2.768   6.850   1.314 -0.0428  0.1953  0.1811
   73MOL0     C 9725   2.798   6.871   1.451  0.6902 -0.3845 -0.3753
   73MOL0     C 9726   2.699   6.938   1.526  0.3609 -1.2274  0.5671
   73MOL0     C 9727   2.578   6.984   1.468  0.8652 -0.5953 -0.4075
   73MOL0     O 9728   2.485   7.044   1.555  0.4599 -0.4719 -0.5766
   73MOL0     C 9729   2.351   7.066   1.514 -0.6944  0.0230 -0.4331
   73MOL0     C 9730   2.264   7.102   1.644  0.8186 -0.3181  0.6983
   73MOL0     C 9731   2.124   7.050   1.623 -0.0329 -0.3095  0.0256
   73MOL0     C 9732   2.117   6.919   1.697  0.2410 -0.3855  0.3239
   73MOL0     C 9733   1.987   6.851   1.676  0.2083 -0.3576 -0.0938
   73MOL0     C 9734   1.967   6.723   1.767 -0.6007  0.3921  0.2692
   73MOL0     C 9735   1.838   6.645   1.724 -0.5673 -1.0608 -0.0781
   73MOL0     C 9736   1.831   6.525   1.810  0.4854  0.4798  0.3938
   73MOL0     N 9737   1.711   6.446   1.776  0.1910 -1.0424  0.2360
   73MOL0     C 9738   1.585   6.462   1.821  0.3983  0.5259 -0.1503
   73MOL0     C 9739   1.500   6.373   1.760 -0.1723 -0.7438  0.1423
   73MOL0     C 9740   1.357   6.361   1.789  0.8417 -0.0790  0.2595
   73MOL0     C 9741   1.268   6.454   1.702 -0.7866  0.2246  0.6715
   73MOL0     C 9742   1.177   6.540   1.787  0.4325 -0.3108  0.8751
   73MOL0     C 9743   1.095   6.642   1.696 -0.0928  0.2626 -0.1443
   73MOL0     O 9744   1.187   6.733   1.637 -0.0434 -0.0750  0.9112
   73MOL0     C 9745   1.131   6.860   1.613 -0.3557 -0.1837 -0.0236
   73MOL0     C 9746   1.214   6.957   1.567 -0.1256  0.3677  0.6391
   73MOL0     C 9747   1.175   7.087   1.531  0.7160  0.0292 -0.0827
   73MOL0     C 9748   1.045   7.125   1.561 -0.3608  0.3499  0.3026
   73MOL0     C 9749   0.997   7.266   1.543 -0.6038 -0.6790 -1.7441
   73MOL0     O 9750   0.869   7.306   1.589  0.0673  0.3327  0.2778
   73MOL0     C 9751   0.827   7.431   1.561 -0.1995 -0.3286 -1.1316
   73MOL0     C 9752   0.903   7.542   1.609 -0.0205 -0.7406 -0.4783
   73MOL0     C 9753   0.867   7.674   1.576  0.2208 -0.3792  0.6931
   73MOL0     C 9754   0.759   7.696   1.496  0.5615 -0.5647 -0.2237
   73MOL0     O 9755   0.720   7.820   1.463  0.0232 -0.2642  0.2575
   73MOL0     C 9756   0.785   7.944   1.485 -0.0748  1.1715  0.8618
   73MOL0     C 9757   0.922   7.965   1.404  0.0779 -0.3199 -0.2360
   73MOL0     C 9758   1.000   8.088   1.441 -0.0935  0.0269 -0.6823
   73MOL0     C 9759   0.936   8.220   1.388 -0.1726 -0.1689  0.7927
   73MOL0     C 9760   1.027   8.340   1.421  0.8635 -0.0189  0.2480
   73MOL0     C 9761   0.964   8.464   1.360 -0.4843  0.0968  0.5326
   73MOL0     C 9762   0.836   8.518   1.430  0.6191 -0.1144 -0.4019
   73MOL0     C 9763   0.834   8.676   1.404  0.3730 -0.2020 -0.7411
   73MOL0    Cl 9764   0.711   8.754   1.514  0.0539 -0.1373  0.1574
   73MOL0     C 9765   0.675   7.584   1.448 -0.8421  0.0224  0.3206
   73MOL0     C 9766   0.717   7.453   1.476 -0.3574  0.1325  0.1872
   73MOL0     O 9767   1.080   7.343   1.488  0.2554 -0.2459 -0.5702
   73MOL0     C 9768   0.951   7.034   1.596  0.3928  0.0977 -0.1143
   73MOL0     C 9769   0.994   6.906   1.636  0.2761 -0.2488  0.3478
   73MOL0     N 9770   1.574   6.294   1.672 -0.0541 -0.0615  0.0579
   73MOL0     N 9771   1.696   6.343   1.681 -0.0992  0.7821 -1.3517
   73MOL0     C 9772   2.555   6.968   1.327 -0.7525 -0.2191 -0.2303
   73MOL0     C 9773   2.658   6.910   1.248 -0.3353  0.0296 -0.3677
   73MOL0     C 9774   3.008   6.582   1.234 -0.4582 -0.2379 -1.0414
   73MOL0     C 9775   2.914   6.486   1.189 -0.4663  0.1237 -0.5336
   73MOL0     C 9776   2.940   6.357   1.146 -0.3307  0.0761  0.9056
   73MOL0     C 9777   3.074   6.306   1.143 -0.7327 -0.5854 -1.6235
   73MOL0     O 9778   3.123   6.193   1.080  0.2269  0.1067 -0.3764
   73MOL0     C 9779   3.039   6.076   1.098 -0.2979 -1.0424 -0.4112
   73MOL0     C 9780   3.098   5.964   1.023  0.1965 -0.2734 -0.3616
   73MOL0     C 9781   3.065   5.987   0.868 -0.4581 -0.1707  0.3636
   73MOL0     C 9782   2.946   5.911   0.814 -0.1080 -0.3164  0.7856
   73MOL0     C 9783   2.960   5.886   0.668 -0.8631 -0.7985 -0.1712
   73MOL0     C 9784   2.948   5.860   0.552 -0.0723  0.1887  0.2464
   73MOL0     C 9785   3.160   6.407   1.170 -0.3238 -0.6474  0.4701
   73MOL0     C 9786   3.141   6.535   1.234 -0.5415 -0.3866  0.1363
   73MOL0     C 9787   3.267   6.595   1.277 -0.0392 -0.2349  0.7757
   73MOL0     H 9788   2.873   6.813   1.505 -0.2168 -2.7149 -1.4754
   73MOL0     H 9789   2.699   6.936   1.634  1.6174 -0.2465  0.6015
   73MOL0     H 9790   2.352   7.144   1.438  1.0131 -1.0510 -1.5641
   73MOL0     H 9791   2.302   6.983   1.463 -1.9016 -0.6439  1.6633
   73MOL0     H 9792   2.253   7.209   1.667 -0.6900 -0.6678  1.6930
   73MOL0     H 9793   2.304   7.053   1.733  2.3380 -0.1197  0.1595
   73MOL0     H 9794   2.111   7.028   1.517 -0.1432 -2.7628  0.4822
   73MOL0     H 9795   2.052   7.125   1.658 -2.1650 -1.1514 -2.2583
   73MOL0     H 9796   2.194   6.854   1.655  0.8926  0.5396  0.0610
   73MOL0     H 9797   2.141   6.935   1.802 -0.1625 -1.6228  0.6229
   73MOL0     H 9798   1.906   6.924   1.680  1.5223  1.2838 -2.0316
   73MOL0     H 9799   1.985   6.826   1.570  0.7801  2.4729 -0.8327
   73MOL0     H 9800   2.054   6.658   1.753  0.3514  1.8849 -1.3332
   73MOL0     H 9801   1.960   6.763   1.868  0.8184  1.6409 -0.0807
   73MOL0     H 9802   1.845   6.607   1.622  0.8197 -0.0667 -0.3927
   73MOL0     H 9803   1.751   6.708   1.744  0.1503 -0.8487  2.7473
   73MOL0     H 9804   1.918   6.464   1.783  0.4434  1.5728 -2.5137
   73MOL0     H 9805   1.846   6.548   1.916  0.5723  1.7830  0.1107
   73MOL0     H 9806   1.551   6.533   1.896 -2.5092 -0.1756 -0.6716
   73MOL0     H 9807   1.320   6.260   1.770  1.1256 -0.1711  0.1897
   73MOL0     H 9808   1.331   6.387   1.892 -1.8143  0.1787 -0.4085
   73MOL0     H 9809   1.328   6.520   1.638 -0.5674  0.8329  1.4822
   73MOL0     H 9810   1.206   6.397   1.632  0.7802  1.3686 -1.7660
   73MOL0     H 9811   1.236   6.595   1.860  0.3554  0.7159  0.1880
   73MOL0     H 9812   1.117   6.475   1.851  0.1162 -0.7994  0.0943
   73MOL0     H 9813   1.029   6.690   1.768  1.3626 -1.6093  2.6022
   73MOL0     H 9814   1.037   6.582   1.625  0.6499 -0.3474 -0.2536
   73MOL0     H 9815   1.319   6.933   1.554 -0.2931  0.8125 -1.8731
   73MOL0     H 9816   1.247   7.160   1.494  0.4681 -0.1899 -1.0200
   73MOL0     H 9817   0.993   7.527   1.666 -0.9037  0.9863  1.5022
   73MOL0     H 9818   0.931   7.753   1.614  1.9121 -0.0835 -2.4110
   73MOL0     H 9819   0.717   8.013   1.434  1.4567 -0.2974 -3.7508
   73MOL0     H 9820   0.796   7.973   1.590 -3.3013 -0.5983  1.8320
   73MOL0     H 9821   0.979   7.872   1.402 -1.8887 -1.5806  0.0241
   73MOL0     H 9822   0.889   7.992   1.303 -0.4874  0.3978  0.1247
   73MOL0     H 9823   1.017   8.090   1.549  3.2611 -1.4177 -1.0456
   73MOL0     H 9824   1.103   8.080   1.404 -0.3825 -3.3321 -1.0339
   73MOL0     H 9825   0.840   8.231   1.441 -0.3061 -1.8359  0.9499
   73MOL0     H 9826   0.908   8.214   1.283  4.3432  1.6370 -0.7541
   73MOL0     H 9827   1.131   8.318   1.392  1.9058  4.4906 -0.1132
   73MOL0     H 9828   1.022   8.355   1.529  0.9669 -1.8136  0.5384
   73MOL0     H 9829   1.042   8.539   1.375 -1.7035  1.0636  2.3940
   73MOL0     H 9830   0.954   8.449   1.252 -1.3084 -0.3286  0.6630
   73MOL0     H 9831   0.841   8.491   1.536 -1.7108  0.9971  0.0726
   73MOL0     H 9832   0.746   8.473   1.387  2.5048 -1.9438 -2.7087
   73MOL0     H 9833   0.937   8.710   1.420  0.8303 -2.3289  1.3252
   73MOL0     H 9834   0.804   8.693   1.301 -1.0259 -3.5749 -1.0239
   73MOL0     H 9835   0.584   7.602   1.392 -0.3651  2.0970  0.1317
   73MOL0     H 9836   0.665   7.366   1.435  0.1074  0.5837 -1.4331
   73MOL0     H 9837   0.846   7.058   1.609  1.1039  2.9626  1.2188
   73MOL0     H 9838   0.925   6.838   1.684  2.5084 -1.3302  2.2223
   73MOL0     H 9839   2.455   6.981   1.287 -1.4170 -3.3421  0.1609
   73MOL0     H 9840   2.646   6.891   1.142  2.4834 -1.2004 -0.5570
   73MOL0     H 9841   2.812   6.521   1.202 -0.2182  0.6867 -0.0622
   73MOL0     H 9842   2.866   6.292   1.101  2.1635 -0.6653 -2.4771
   73MOL0     H 9843   2.934   6.101   1.081 -0.2997 -0.7249  0.0602
   73MOL0     H 9844   3.030   6.058   1.206 -2.6643 -0.2174 -0.4202
   73MOL0     H 9845   3.055   5.871   1.062  2.2331 -1.1710 -0.1255
   73MOL0     H 9846   3.203   5.948   1.049 -0.0861  0.9707  1.7488
   73MOL0     H 9847   3.154   5.952   0.815 -0.0041  2.2077 -0.6082
   73MOL0     H 9848   3.050   6.090   0.834  2.1980 -0.5183 -2.3247
   73MOL0     H 9849   2.931   5.813   0.861  2.7751 -0.5195  1.4583
   73MOL0     H 9850   2.855   5.970   0.817 -2.0740 -3.0902 -0.0399
   73MOL0     H 9851   2.926   5.824   0.454  1.7663 -1.3986  0.3494
   73MOL0     H 9852   3.263   6.375   1.166  0.2524  0.8990  1.6854
   73MOL0     H 9853   3.354   6.583   1.211 -1.4371 -3.1316 -0.7460
   73MOL0     H 9854   3.263   6.703   1.290 -1.6070 -0.2805  0.8358
   73MOL0     H 9855   3.290   6.556   1.376 -0.4555  1.8232  1.7355
   74MOL0     O 9856   4.899  10.938   4.723  0.2926 -0.1174  0.2347
   74MOL0     C 9857   4.868  11.048   4.756 -0.2303 -0.5266 -1.3277
   74MOL0     O 9858   4.961  11.145   4.804  0.3872 -0.0954  0.0902
   74MOL0     C 9859   5.094  11.112   4.799 -0.9381  0.6311  0.2105
   74MOL0     C 9860   5.146  10.988   4.857 -0.6756  0.3907  0.1881
   74MOL0     C 9861   5.285  10.960   4.826  0.0922  0.0537  0.5651
   74MOL0     C 9862   5.365  11.038   4.751 -0.0566 -0.5791 -0.3294
   74MOL0     O 9863   5.496  11.022   4.743 -0.6405  0.0018 -0.2466
   74MOL0     C 9864   5.555  10.922   4.828  0.3728  0.0396  0.3438
   74MOL0     C 9865   5.701  10.952   4.815 -0.3841  0.5135  0.4445
   74MOL0     C 9866   5.802  10.830   4.823  1.0778  0.0867 -0.2499
   74MOL0     C 9867   5.941  10.866   4.804 -0.9109 -0.4229 -0.5222
   74MOL0     C 9868   6.032  10.740   4.798 -0.3089 -0.8961 -1.2077
   74MOL0     C 9869   6.180  10.767   4.774 -0.0059 -0.2203  0.0746
   74MOL0     C 9870   6.238  10.666   4.674  0.7386 -0.4658 -0.1329
   74MOL0     C 9871   6.382  10.694   4.644 -0.0257  0.1630 -0.7390
   74MOL0     N 9872   6.419  10.633   4.519  0.6261 -0.2255 -0.4481
   74MOL0     C 9873   6.403  10.505   4.489 -0.4065 -0.0039 -0.0038
   74MOL0     C 9874   6.437  10.490   4.359 -0.6696 -0.1409  0.2092
   74MOL0     C 9875   6.439  10.367   4.277  0.2056  0.7010  0.8099
   74MOL0     C 9876   6.584  10.311   4.284  0.0249 -0.6806  0.0494
   74MOL0     C 9877   6.617  10.194   4.184  0.0668  0.5741  0.8878
   74MOL0     C 9878   6.635  10.249   4.038 -0.5107  0.2154  0.4970
   74MOL0     O 9879   6.630  10.137   3.950 -0.2051 -0.0840  0.5106
   74MOL0     C 9880   6.516  10.096   3.878 -0.1197 -1.6466  0.0355
   74MOL0     C 9881   6.398  10.184   3.891 -0.7745  1.0156 -0.1110
   74MOL0     C 9882   6.286  10.145   3.816 -0.5431 -0.3306  0.3003
   74MOL0     C 9883   6.277  10.026   3.741  1.0479 -0.6536  0.4900
   74MOL0     C 9884   6.166   9.978   3.658  0.2268  0.3718  0.0658
   74MOL0     O 9885   6.179   9.850   3.604 -0.1121 -0.5650 -0.9682
   74MOL0     C 9886   6.097   9.810   3.500 -0.9581  0.5173  0.4423
   74MOL0     C 9887   6.071   9.893   3.386  0.0261  0.9346  0.7298
   74MOL0     C 9888   5.977   9.848   3.288  0.2374  0.8639  0.1956
   74MOL0     C 9889   5.916   9.722   3.293  0.0274 -0.3000 -0.3171
   74MOL0     O 9890   5.840   9.656   3.198  0.2577  0.2951 -0.0555
   74MOL0     C 9891   5.783   9.735   3.098  0.1145  0.6933  0.1332
   74MOL0     C 9892   5.678   9.652   3.023 -0.9461 -0.8103  0.4464
   74MOL0     C 9893   5.571   9.741   2.959  0.2860 -0.0064  0.5676
   74MOL0     C 9894   5.464   9.669   2.880  0.3373 -0.1957 -0.1632
   74MOL0     C 9895   5.338   9.643   2.964 -0.0584  0.4238 -1.5664
   74MOL0     C 9896   5.249   9.783   2.980  0.4593  0.5733 -0.3356
   74MOL0     C 9897   5.117   9.772   3.057  0.8712  0.7149  0.1259
   74MOL0     C 9898   5.004   9.700   2.979  0.4019 -0.1623  0.0233
   74MOL0    Cl 9899   4.928   9.792   2.843 -0.0285 -0.0899 -0.2897
   74MOL0     C 9900   5.949   9.641   3.404  0.3678  0.2582  0.5093
   74MOL0     C 9901   6.039   9.688   3.504 -0.0221  0.1013  1.4783
   74MOL0     O 9902   6.080  10.056   3.622 -0.1414  0.3628 -0.2015
   74MOL0     C 9903   6.391   9.944   3.750  1.0895  0.0628 -0.4508
   74MOL0     C 9904   6.508   9.982   3.811 -0.1858 -0.1612 -0.3475
   74MOL0     N 9905   6.456  10.617   4.311 -0.0178 -0.2890  0.1055
   74MOL0     N 9906   6.433  10.702   4.407  0.7826 -0.3737 -0.2070
   74MOL0     C 9907   5.310  11.151   4.707  0.9649  1.3875  0.2791
   74MOL0     C 9908   5.178  11.178   4.714  1.4369 -0.0157 -0.2372
   74MOL0     C 9909   4.732  11.094   4.732 -0.7470 -0.2918 -0.4538
   74MOL0     C 9910   4.660  11.149   4.839  0.9034  0.9088 -1.1686
   74MOL0     C 9911   4.527  11.201   4.825  0.3487  0.2259 -0.5693
   74MOL0     C 9912   4.461  11.189   4.706  0.0168 -0.7957  0.2109
   74MOL0     O 9913   4.332  11.239   4.688  0.1839  0.8793 -0.0693
   74MOL0     C 9914   4.289  11.361   4.741 -0.1373  0.3916 -0.2380
   74MOL0     C 9915   4.220  11.441   4.641 -0.2995  0.3972 -0.4047
   74MOL0     C 9916   4.179  11.375   4.513 -0.0373  0.7987  0.0075
   74MOL0     C 9917   4.068  11.268   4.526  0.7564  0.3266  0.6112
   74MOL0     C 9918   3.966  11.288   4.636 -0.0008  0.4674  0.0885
   74MOL0     C 9919   3.875  11.290   4.725 -0.3767 -0.6788  0.0193
   74MOL0     C 9920   4.528  11.115   4.604  0.1403  0.3267  0.0400
   74MOL0     C 9921   4.666  11.084   4.611  0.7464  0.5708 -0.4764
   74MOL0     C 9922   4.727  11.041   4.479 -0.6086 -0.1690  0.3409
   74MOL0     H 9923   5.088  10.920   4.918 -1.3539 -0.2439 -1.1122
   74MOL0     H 9924   5.326  10.872   4.876 -0.0993 -0.1352  0.3930
   74MOL0     H 9925   5.517  10.923   4.930  1.2257 -1.4501  0.6944
   74MOL0     H 9926   5.533  10.825   4.784  0.4716  0.6412 -1.1037
   74MOL0     H 9927   5.737  11.025   4.888  1.6132 -0.2265  0.2416
   74MOL0     H 9928   5.717  11.000   4.717 -0.2312  0.2052  0.3176
   74MOL0     H 9929   5.772  10.754   4.750  1.7366 -0.4411  0.0234
   74MOL0     H 9930   5.800  10.784   4.922 -3.4413  0.2600 -0.0695
   74MOL0     H 9931   5.955  10.910   4.705 -0.0459  2.0842  0.6433
   74MOL0     H 9932   5.979  10.927   4.886  5.3963  0.4646 -3.5190
   74MOL0     H 9933   6.026  10.690   4.895  1.0810  4.1052  1.8416
   74MOL0     H 9934   5.981  10.681   4.721 -1.0271 -2.3924  0.3618
   74MOL0     H 9935   6.185  10.870   4.737 -0.0214  0.3626  1.6165
   74MOL0     H 9936   6.236  10.761   4.867 -0.4280 -0.2435  0.3286
   74MOL0     H 9937   6.183  10.663   4.579  2.4448 -0.9084 -1.1590
   74MOL0     H 9938   6.221  10.564   4.711 -3.9684 -0.3062 -1.2335
   74MOL0     H 9939   6.394  10.802   4.635  3.4332  0.5163  4.2611
   74MOL0     H 9940   6.445  10.671   4.731  0.7401  2.4882 -0.6103
   74MOL0     H 9941   6.387  10.414   4.547  3.0634  0.3301  1.7731
   74MOL0     H 9942   6.374  10.290   4.320  0.7705 -1.1843 -1.5197
   74MOL0     H 9943   6.414  10.398   4.175  1.0289 -0.7077  0.1564
   74MOL0     H 9944   6.651  10.396   4.265  1.2963 -1.6661  0.0129
   74MOL0     H 9945   6.594  10.266   4.383 -0.0244 -1.1211 -0.1434
   74MOL0     H 9946   6.541  10.116   4.181 -0.2486  0.7921  2.4331
   74MOL0     H 9947   6.707  10.143   4.219  0.6237  1.1184  0.2832
   74MOL0     H 9948   6.731  10.302   4.038  0.5342 -1.3440  4.4625
   74MOL0     H 9949   6.563  10.330   4.019 -0.0167  1.1670  2.3864
   74MOL0     H 9950   6.384  10.281   3.937 -1.2488  0.4898  0.8829
   74MOL0     H 9951   6.205  10.217   3.809  2.2425  2.9334 -1.4858
   74MOL0     H 9952   6.114   9.993   3.387 -1.8160  1.7842 -0.0776
   74MOL0     H 9953   5.974   9.915   3.202  1.2874  2.2262  1.1863
   74MOL0     H 9954   5.727   9.818   3.142  2.9655  3.4295 -1.0310
   74MOL0     H 9955   5.864   9.781   3.040  0.3321  0.4013  0.2010
   74MOL0     H 9956   5.732   9.581   2.959  0.1131 -2.7587  3.2985
   74MOL0     H 9957   5.625   9.585   3.092  0.4292 -3.0692 -0.5624
   74MOL0     H 9958   5.529   9.822   3.019 -3.0682 -1.1648 -0.0226
   74MOL0     H 9959   5.625   9.790   2.878  1.4729 -0.8509  0.8092
   74MOL0     H 9960   5.498   9.576   2.833  0.7511  0.0483 -0.3576
   74MOL0     H 9961   5.431   9.720   2.789  1.5478  0.8014 -0.0697
   74MOL0     H 9962   5.368   9.606   3.062  1.2285  2.3903 -1.1546
   74MOL0     H 9963   5.272   9.572   2.914  0.4605 -0.8442 -0.4804
   74MOL0     H 9964   5.307   9.856   3.037 -2.2946  2.8532 -0.2259
   74MOL0     H 9965   5.231   9.820   2.879  0.8819  0.5623 -0.4176
   74MOL0     H 9966   5.084   9.873   3.083  0.1362  0.2391  1.1261
   74MOL0     H 9967   5.144   9.712   3.145 -1.1823 -0.6552 -0.1106
   74MOL0     H 9968   5.043   9.601   2.955  1.5480  1.1718 -4.4938
   74MOL0     H 9969   4.916   9.683   3.041 -0.3665  0.7733 -0.7772
   74MOL0     H 9970   5.916   9.538   3.416  1.5363 -0.2354 -0.2207
   74MOL0     H 9971   6.041   9.620   3.588  0.9751 -0.0782  1.3167
   74MOL0     H 9972   6.397   9.851   3.694 -1.6614  1.1945 -2.9000
   74MOL0     H 9973   6.596   9.920   3.807  0.0666  0.2319 -1.2151
   74MOL0     H 9974   5.375  11.221   4.656  0.3092  2.0862  0.3992
   74MOL0     H 9975   5.137  11.267   4.666  0.8042  0.1207  0.5248
   74MOL0     H 9976   4.704  11.161   4.938  0.5909  0.6669 -0.9978
   74MOL0     H 9977   4.483  11.259   4.906  0.8167 -0.1934 -0.0083
   74MOL0     H 9978   4.373  11.413   4.788  0.9260 -0.2338 -1.3877
   74MOL0     H 9979   4.223  11.331   4.823  1.8520  1.9508  2.0957
   74MOL0     H 9980   4.294  11.519   4.618  2.6554 -2.0820  0.0074
   74MOL0     H 9981   4.132  11.483   4.688 -2.4626 -2.7776 -1.3126
   74MOL0     H 9982   4.268  11.343   4.458 -0.4258  0.2906 -0.3348
   74MOL0     H 9983   4.130  11.456   4.458 -1.0975  0.5188  0.5243
   74MOL0     H 9984   4.024  11.255   4.427  0.9085 -1.8436  0.7838
   74MOL0     H 9985   4.112  11.170   4.548 -2.1642 -2.1909 -3.4079
   74MOL0     H 9986   3.806  11.301   4.807 -2.6039  2.9821 -2.0475
   74MOL0     H 9987   4.475  11.085   4.514 -1.4060 -0.6019  1.2148
   74MOL0     H 9988   4.817  11.097   4.450  0.4242 -2.5500 -1.4208
   74MOL0     H 9989   4.758  10.938   4.499  1.0117  0.4764  1.4316
   74MOL0     H 9990   4.653  11.050   4.399  0.0311  0.9835 -0.1447
   75MOL0     O 9991  10.713   5.284   9.202  0.0899  0.0692 -0.5346
   75MOL0     C 9992  10.628   5.342   9.135 -0.5182  0.1102  0.2150
   75MOL0     O 9993  10.654   5.415   9.025  0.1173  0.0117 -0.4747
   75MOL0     C 9994  10.763   5.398   8.944  0.6211 -0.5374 -0.1760
   75MOL0     C 9995  10.891   5.361   8.980 -0.3550 -0.4200 -0.1161
   75MOL0     C 9996  10.997   5.355   8.890  0.4571  0.0233 -0.1689
   75MOL0     C 9997  10.968   5.371   8.755 -0.6644  0.6699  0.3765
   75MOL0     O 9998  11.054   5.389   8.652 -0.0592 -0.3226 -0.3297
   75MOL0     C 9999  11.191   5.383   8.678 -0.2833 -0.6496 -0.4165
   75MOL0     C10000  11.267   5.438   8.558  0.6245 -0.5688  0.1636
   75MOL0     C10001  11.418   5.443   8.587  0.0258 -0.5914  0.1330
   75MOL0     C10002  11.488   5.313   8.623 -0.3074  0.0020  0.7116
   75MOL0     C10003  11.638   5.341   8.640 -0.3741  0.0378  0.3806
   75MOL0     C10004  11.709   5.232   8.710 -0.2970  0.3780 -0.1562
   75MOL0     C10005  11.752   5.117   8.615  0.4301  0.7602  0.6444
   75MOL0     C10006  11.847   5.020   8.691  0.8726  0.3122 -0.4246
   75MOL0     N10007  11.983   5.067   8.718 -0.2391 -0.3098  0.3239
   75MOL0     C10008  12.094   5.020   8.658  0.7111  0.9467 -0.0517
   75MOL0     C10009  12.195   5.093   8.705 -0.0912 -0.3746  0.4157
   75MOL0     C10010  12.342   5.079   8.659  0.6419  0.4849 -0.8760
   75MOL0     C10011  12.417   5.210   8.644  0.6905  0.4449  0.2998
   75MOL0     C10012  12.428   5.300   8.771  0.6223 -0.0144 -0.1509
   75MOL0     C10013  12.486   5.233   8.899  0.4291  0.5645  0.7150
   75MOL0     O10014  12.516   5.330   8.997  0.1398  0.1694 -0.2117
   75MOL0     C10015  12.630   5.403   8.984  0.7711  0.9321  0.1207
   75MOL0     C10016  12.718   5.384   8.878  0.5200  0.1794  0.4430
   75MOL0     C10017  12.826   5.471   8.879  0.0420 -0.4310  0.8627
   75MOL0     C10018  12.856   5.555   8.988 -0.3163 -0.3992 -0.8857
   75MOL0     C10019  12.987   5.626   8.994  0.1848 -0.4041  0.2618
   75MOL0     O10020  13.012   5.707   9.106 -0.9994 -0.0247 -0.1738
   75MOL0     C10021  13.135   5.776   9.113  0.8736 -0.2367  0.2954
   75MOL0     C10022  13.261   5.712   9.117  0.8229  0.4538 -0.4340
   75MOL0     C10023  13.378   5.791   9.122 -0.5260 -0.0174  0.0600
   75MOL0     C10024  13.371   5.928   9.134 -0.8906  0.5101  0.1476
   75MOL0     O10025  13.495   5.982   9.103  0.3006  0.3024 -0.0262
   75MOL0     C10026  13.512   6.117   9.115 -0.1296  0.1329  0.9431
   75MOL0     C10027  13.641   6.143   9.042 -0.6695  0.0414 -0.0869
   75MOL0     C10028  13.686   6.281   9.090  0.4368 -0.5302 -0.3206
   75MOL0     C10029  13.790   6.347   9.004 -0.5403  0.1021 -0.1210
   75MOL0     C10030  13.757   6.381   8.857  0.0104  0.1192  0.1165
   75MOL0     C10031  13.868   6.468   8.785  0.5620 -0.5796  0.1852
   75MOL0     C10032  13.822   6.535   8.651  0.1466  0.3753 -0.6490
   75MOL0     C10033  13.939   6.594   8.592 -0.2656  0.1511  0.0337
   75MOL0    Cl10034  14.051   6.474   8.518 -0.1276  0.4299 -0.5670
   75MOL0     C10035  13.248   5.993   9.141 -0.6746 -0.0722  0.3719
   75MOL0     C10036  13.132   5.915   9.134  0.5824 -0.0235  0.3194
   75MOL0     O10037  13.061   5.617   8.899  0.2481  0.4673 -0.5012
   75MOL0     C10038  12.765   5.563   9.099  0.3628  0.0400 -0.0264
   75MOL0     C10039  12.656   5.484   9.096  0.1437 -0.9061 -0.5130
   75MOL0     N10040  12.147   5.170   8.807  0.2050 -0.0162  0.3616
   75MOL0     N10041  12.017   5.160   8.810 -0.0696  0.3774 -0.3370
   75MOL0     C10042  10.841   5.377   8.708  0.1102  0.1664  0.3092
   75MOL0     C10043  10.740   5.397   8.807  0.0540  0.2734 -0.2650
   75MOL0     C10044  10.489   5.351   9.207 -1.2467  0.0105 -0.5320
   75MOL0     C10045  10.494   5.345   9.353  0.6134 -0.0186  0.1559
   75MOL0     C10046  10.375   5.355   9.435 -0.0488  1.0255 -0.4062
   75MOL0     C10047  10.253   5.333   9.372 -0.6530 -0.2173 -0.3914
   75MOL0     O10048  10.155   5.346   9.463 -0.5227  0.2778  0.0973
   75MOL0     C10049  10.077   5.232   9.488  1.0300  0.5654  0.5436
   75MOL0     C10050  10.118   5.184   9.627 -0.0663 -0.1726 -0.3252
   75MOL0     C10051  10.093   5.279   9.753  0.3312  0.7958 -0.4738
   75MOL0     C10052  10.162   5.228   9.884 -0.1681 -0.3622  0.9916
   75MOL0     C10053  10.150   5.342   9.969 -0.4181 -0.4874 -0.2897
   75MOL0     C10054  10.133   5.439  10.035 -0.4102 -0.2971  0.1465
   75MOL0     C10055  10.243   5.337   9.232  0.0154  0.3443 -0.2226
   75MOL0     C10056  10.363   5.335   9.152 -0.2769 -0.3075  0.0425
   75MOL0     C10057  10.341   5.308   9.007  0.4783  0.3076  1.0235
   75MOL0     H10058  10.912   5.352   9.086  0.0514  0.4829 -0.1118
   75MOL0     H10059  11.100   5.348   8.921  0.2379  3.2686  1.7343
   75MOL0     H10060  11.222   5.454   8.756  1.0436 -0.3075 -1.2302
   75MOL0     H10061  11.226   5.281   8.697  2.7458  0.3554  0.0005
   75MOL0     H10062  11.220   5.535   8.538  1.8187 -0.2506 -1.2530
   75MOL0     H10063  11.249   5.378   8.469  2.0338  0.1231 -0.6306
   75MOL0     H10064  11.423   5.508   8.675 -3.2504  0.4353 -0.3085
   75MOL0     H10065  11.458   5.488   8.496 -1.0623  1.8031  0.7601
   75MOL0     H10066  11.444   5.280   8.717 -0.9886  5.4270  2.6871
   75MOL0     H10067  11.464   5.237   8.548 -0.7011  0.3134  0.5150
   75MOL0     H10068  11.671   5.371   8.540 -0.1248  0.2308  0.5189
   75MOL0     H10069  11.654   5.427   8.705  0.0604  0.4995 -0.3270
   75MOL0     H10070  11.797   5.274   8.760 -1.0557  1.8850 -0.0504
   75MOL0     H10071  11.646   5.184   8.785  0.2687  1.8533  1.3017
   75MOL0     H10072  11.809   5.164   8.534 -0.8019 -0.5966 -1.0850
   75MOL0     H10073  11.664   5.071   8.568  1.5392 -0.3870 -0.3629
   75MOL0     H10074  11.794   4.999   8.784  0.7737  0.2162 -0.5014
   75MOL0     H10075  11.854   4.927   8.633  3.3485 -0.1345  0.4812
   75MOL0     H10076  12.108   4.944   8.581 -0.9998 -1.7005  2.0679
   75MOL0     H10077  12.384   5.019   8.741 -0.2400 -0.5987 -1.1794
   75MOL0     H10078  12.344   5.013   8.571 -1.0041  0.6110 -1.0477
   75MOL0     H10079  12.520   5.184   8.621 -0.6269 -2.6489 -2.9410
   75MOL0     H10080  12.386   5.264   8.554  0.7829  1.2525  0.7430
   75MOL0     H10081  12.329   5.335   8.803 -0.0920 -0.8834 -1.3335
   75MOL0     H10082  12.485   5.390   8.744  1.7290 -0.8486 -0.6780
   75MOL0     H10083  12.563   5.162   8.869  0.0220  0.1267  0.6953
   75MOL0     H10084  12.405   5.169   8.936  0.8582  0.4971  1.5477
   75MOL0     H10085  12.709   5.307   8.802  0.5355  1.0169 -0.4189
   75MOL0     H10086  12.897   5.483   8.798  0.0702 -1.8874  0.6514
   75MOL0     H10087  13.266   5.604   9.116  1.4379  0.3761  2.7230
   75MOL0     H10088  13.479   5.751   9.118 -1.1640 -1.5917 -1.8712
   75MOL0     H10089  13.434   6.180   9.071  0.5606  0.9677  0.8782
   75MOL0     H10090  13.529   6.139   9.220  0.6825  0.2630  0.7944
   75MOL0     H10091  13.714   6.066   9.068  0.5886  1.3750  0.4963
   75MOL0     H10092  13.628   6.132   8.934 -2.2698 -1.3207  0.2044
   75MOL0     H10093  13.594   6.341   9.087  0.7352 -0.0297 -3.6484
   75MOL0     H10094  13.735   6.278   9.188  0.7133  0.2384 -0.4313
   75MOL0     H10095  13.883   6.290   9.003  0.2976  1.4266 -0.9836
   75MOL0     H10096  13.821   6.437   9.057 -0.9302 -1.1331  2.3839
   75MOL0     H10097  13.653   6.414   8.847 -1.1813 -3.0173  0.9340
   75MOL0     H10098  13.748   6.292   8.793 -2.1312  2.6269 -3.4218
   75MOL0     H10099  13.902   6.555   8.842  1.6395 -1.3283  0.7204
   75MOL0     H10100  13.961   6.414   8.763  0.7346  0.3571 -1.5501
   75MOL0     H10101  13.744   6.610   8.665 -0.2944 -0.5430  2.7137
   75MOL0     H10102  13.778   6.452   8.594  0.2846 -1.1937  1.3717
   75MOL0     H10103  13.886   6.662   8.525 -2.1929  0.5441  1.8521
   75MOL0     H10104  14.003   6.649   8.661  1.1274  0.8169 -1.7051
   75MOL0     H10105  13.252   6.100   9.160  2.7699  0.3144 -1.7595
   75MOL0     H10106  13.036   5.965   9.141  0.0188 -1.1994  1.2123
   75MOL0     H10107  12.764   5.625   9.188 -2.9046 -0.5105  0.4426
   75MOL0     H10108  12.579   5.502   9.171 -3.1572  0.1679 -3.8264
   75MOL0     H10109  10.808   5.382   8.605  0.1826 -1.0925  0.2061
   75MOL0     H10110  10.638   5.403   8.770  0.6694  0.8491 -1.9531
   75MOL0     H10111  10.587   5.353   9.408  1.6804 -1.1294 -1.3839
   75MOL0     H10112  10.390   5.369   9.542  0.6711  2.3666 -0.6582
   75MOL0     H10113  10.096   5.154   9.415  1.5069  0.9710  0.2284
   75MOL0     H10114   9.973   5.264   9.486  0.7440 -0.1347  2.1878
   75MOL0     H10115  10.225   5.162   9.629  0.2364  1.2243  0.2555
   75MOL0     H10116  10.064   5.091   9.641 -1.3281  0.5327 -0.3870
   75MOL0     H10117   9.985   5.282   9.769  0.1543  0.2662 -1.5112
   75MOL0     H10118  10.131   5.380   9.732  2.3854  0.0927 -0.3656
   75MOL0     H10119  10.105   5.145   9.925  1.4626 -1.5175  0.9818
   75MOL0     H10120  10.266   5.198   9.871 -0.2422 -0.5787  0.8862
   75MOL0     H10121  10.097   5.527  10.084 -3.5456 -1.7441  0.6891
   75MOL0     H10122  10.150   5.336   9.176  0.6455  2.6390 -1.4469
   75MOL0     H10123  10.340   5.199   8.998 -0.9600 -0.2161  5.3068
   75MOL0     H10124  10.247   5.349   8.967  0.2308 -2.1131 -1.1373
   75MOL0     H10125  10.418   5.361   8.951 -0.8283  3.4958  2.0005
   76MOL0     O10126   8.400  10.787   2.912  0.3215 -0.1808 -0.0834
   76MOL0     C10127   8.389  10.852   2.813 -0.8569 -0.3359  0.0521
   76MOL0     O10128   8.494  10.895   2.747  0.1750  0.0291  0.6050
   76MOL0     C10129   8.631  10.882   2.785  0.0301  0.0785 -0.4591
   76MOL0     C10130   8.676  10.803   2.894  0.1392  0.0617  0.2495
   76MOL0     C10131   8.810  10.772   2.899 -0.3506 -0.4433  0.6392
   76MOL0     C10132   8.905  10.828   2.806  0.1632 -0.2236  0.3679
   76MOL0     O10133   9.044  10.812   2.815  0.8447  0.1588  0.3921
   76MOL0     C10134   9.094  10.694   2.862  0.5799  0.6623  0.4363
   76MOL0     C10135   9.242  10.668   2.810 -0.0107  0.2697 -0.0545
   76MOL0     C10136   9.247  10.671   2.654  0.1825  0.2787 -0.2402
   76MOL0     C10137   9.374  10.609   2.581 -0.0935 -0.4342 -0.1106
   76MOL0     C10138   9.378  10.460   2.577  1.0189 -0.0011 -0.8643
   76MOL0     C10139   9.467  10.398   2.476 -0.3343  0.2780  0.0146
   76MOL0     C10140   9.424  10.425   2.328  0.6493  1.2758  0.9145
   76MOL0     C10141   9.501  10.331   2.237 -0.7035 -1.1681  0.1838
   76MOL0     N10142   9.488  10.367   2.092  0.1337 -0.4225  0.5919
   76MOL0     C10143   9.590  10.398   2.007  0.6855  0.1566 -0.8866
   76MOL0     C10144   9.526  10.439   1.896  1.0637  0.2533  0.1583
   76MOL0     C10145   9.579  10.504   1.777 -0.3074 -0.2628 -0.3077
   76MOL0     C10146   9.723  10.461   1.714  0.8636 -0.4041  0.4135
   76MOL0     C10147   9.781  10.548   1.598 -0.2808  0.0440  0.0715
   76MOL0     C10148   9.890  10.460   1.538  0.1377 -0.1724 -0.1149
   76MOL0     O10149   9.957  10.519   1.424  0.3369 -0.4041 -0.1180
   76MOL0     C10150  10.056  10.464   1.361 -0.1224 -0.0431  1.4967
   76MOL0     C10151  10.090  10.321   1.363  0.2174 -1.0864  1.1439
   76MOL0     C10152  10.183  10.266   1.272 -0.0417  1.0580 -0.5892
   76MOL0     C10153  10.257  10.347   1.189 -0.3934  0.2738 -0.4018
   76MOL0     C10154  10.353  10.279   1.090 -0.9824 -0.1435  0.0146
   76MOL0     O10155  10.374  10.138   1.110  0.0953 -0.7541  0.0070
   76MOL0     C10156  10.463  10.081   1.023 -0.4639 -0.5117 -0.8365
   76MOL0     C10157  10.412   9.970   0.939  0.0556  0.0631  0.6140
   76MOL0     C10158  10.497   9.884   0.865 -0.2345 -1.6217  0.1017
   76MOL0     C10159  10.639   9.900   0.885 -0.2650 -0.2837  0.7996
   76MOL0     O10160  10.719   9.805   0.828  0.7023  0.0946  0.0064
   76MOL0     C10161  10.858   9.825   0.855 -0.0008 -0.5447  0.0089
   76MOL0     C10162  10.929   9.694   0.834  0.2852  1.0386 -0.6262
   76MOL0     C10163  11.079   9.714   0.797 -0.2732  1.2434 -0.9960
   76MOL0     C10164  11.132   9.569   0.787  0.2366  0.8058  0.3278
   76MOL0     C10165  11.262   9.569   0.702 -0.4930 -0.4990 -1.4347
   76MOL0     C10166  11.381   9.624   0.784  0.2892  1.5207 -0.7996
   76MOL0     C10167  11.422   9.521   0.894  0.4605 -0.1130 -0.0351
   76MOL0     C10168  11.557   9.547   0.964  0.1693 -0.3655 -0.4909
   76MOL0    Cl10169  11.695   9.512   0.877 -0.2174  0.0443 -0.2556
   76MOL0     C10170  10.686  10.007   0.965  0.2393 -0.1378 -0.1703
   76MOL0     C10171  10.600  10.099   1.028 -0.1457  0.2830  0.3177
   76MOL0     O10172  10.378  10.343   0.985 -0.1937 -0.3155 -0.2988
   76MOL0     C10173  10.214  10.481   1.173 -0.5572  0.1652 -0.0495
   76MOL0     C10174  10.121  10.547   1.262 -1.1119  1.1764 -0.8626
   76MOL0     N10175   9.391  10.430   1.917 -0.2880  0.6051  0.3758
   76MOL0     N10176   9.365  10.387   2.030 -0.7073 -0.6156  0.5406
   76MOL0     C10177   8.858  10.906   2.705 -0.0066 -0.0329  0.1595
   76MOL0     C10178   8.726  10.943   2.705  0.4053  0.1053 -0.7559
   76MOL0     C10179   8.253  10.873   2.767 -0.2867  0.0392 -0.5737
   76MOL0     C10180   8.147  10.871   2.855 -0.2905 -0.9187 -0.1124
   76MOL0     C10181   8.012  10.901   2.811 -0.3193 -0.5255  0.7150
   76MOL0     C10182   7.994  10.955   2.683  0.3927 -0.1393 -0.3958
   76MOL0     O10183   7.868  10.983   2.636  0.2415 -0.1723 -0.3723
   76MOL0     C10184   7.740  10.996   2.711  0.3448  0.0355  0.5834
   76MOL0     C10185   7.663  11.099   2.620 -0.2705  0.3867  0.6573
   76MOL0     C10186   7.521  11.113   2.654 -0.4385  0.2318  0.1114
   76MOL0     C10187   7.436  10.991   2.659  0.4853  0.2253 -0.0052
   76MOL0     C10188   7.306  11.018   2.719  0.3236 -0.7862 -0.0632
   76MOL0     C10189   7.206  11.054   2.780  1.0691 -0.2070  0.6922
   76MOL0     C10190   8.104  10.952   2.592 -0.0261 -0.9143 -0.5243
   76MOL0     C10191   8.227  10.897   2.630  0.4220 -0.0740 -0.0739
   76MOL0     C10192   8.317  10.865   2.507  0.5536  0.3669 -0.2459
   76MOL0     H10193   8.619  10.752   2.971  1.1676  1.0267  1.7093
   76MOL0     H10194   8.838  10.707   2.982 -0.5286 -0.8671  0.3703
   76MOL0     H10195   9.089  10.698   2.971  1.1391 -3.1945  0.7445
   76MOL0     H10196   9.034  10.606   2.836 -1.5419  1.6545  1.7961
   76MOL0     H10197   9.270  10.567   2.841 -2.6590 -0.2497  0.8927
   76MOL0     H10198   9.309  10.747   2.847  0.1255  0.5839 -0.9404
   76MOL0     H10199   9.216  10.768   2.613  0.2573  0.1138 -0.6949
   76MOL0     H10200   9.161  10.614   2.618  0.7334  0.2201 -1.5167
   76MOL0     H10201   9.366  10.649   2.480  2.3574  1.3465  0.2932
   76MOL0     H10202   9.466  10.651   2.624 -1.0319  0.9744  0.5859
   76MOL0     H10203   9.410  10.422   2.674 -2.2571 -1.1129 -0.0793
   76MOL0     H10204   9.276  10.426   2.557  0.2758  0.9215  1.0755
   76MOL0     H10205   9.574  10.421   2.488  0.1306 -0.5119 -2.1877
   76MOL0     H10206   9.460  10.291   2.496  1.7739  0.4192  1.9596
   76MOL0     H10207   9.456  10.525   2.301  1.3298  1.0915  1.0324
   76MOL0     H10208   9.315  10.413   2.321  0.7917  0.7327 -0.9727
   76MOL0     H10209   9.606  10.332   2.266 -0.3515 -1.7427 -0.9789
   76MOL0     H10210   9.475  10.225   2.243 -2.2185 -0.7733  1.2061
   76MOL0     H10211   9.694  10.400   2.036  0.2433 -0.7618  0.8832
   76MOL0     H10212   9.500  10.503   1.702 -0.0017  1.6289 -0.7198
   76MOL0     H10213   9.587  10.608   1.813  0.1789 -0.8161  1.2865
   76MOL0     H10214   9.788  10.459   1.802  0.6082  0.3365  0.6205
   76MOL0     H10215   9.702  10.362   1.673 -0.3346 -1.3995  3.1528
   76MOL0     H10216   9.827  10.643   1.624 -1.4455  0.4381  0.7376
   76MOL0     H10217   9.712  10.552   1.514  3.1642 -1.3328 -3.1286
   76MOL0     H10218   9.841  10.368   1.502 -0.4280 -0.4938  1.3682
   76MOL0     H10219   9.955  10.428   1.620 -2.0319  2.0988  2.6882
   76MOL0     H10220  10.034  10.260   1.432  0.5725 -2.9353 -0.1487
   76MOL0     H10221  10.200  10.159   1.275  0.8677  1.1189 -2.2434
   76MOL0     H10222  10.304   9.964   0.950  0.1928 -3.7695  0.9081
   76MOL0     H10223  10.468   9.807   0.794  1.4266  0.3669 -2.8944
   76MOL0     H10224  10.908   9.889   0.782 -1.8846 -0.2182 -1.0626
   76MOL0     H10225  10.881   9.864   0.955  1.1176 -0.4670 -0.2642
   76MOL0     H10226  10.924   9.629   0.921  1.9650  0.0872 -1.1793
   76MOL0     H10227  10.880   9.632   0.759 -0.0514  0.2182  0.2559
   76MOL0     H10228  11.083   9.769   0.702 -1.0276 -0.8701 -2.3347
   76MOL0     H10229  11.140   9.761   0.874 -1.8475  1.3674  0.2337
   76MOL0     H10230  11.061   9.499   0.741  0.5426  0.3735  0.5127
   76MOL0     H10231  11.155   9.520   0.882  0.6777 -3.1010 -1.5907
   76MOL0     H10232  11.245   9.629   0.612  1.2255  2.4580  0.0796
   76MOL0     H10233  11.287   9.468   0.666  1.1404 -0.2461 -1.1185
   76MOL0     H10234  11.472   9.626   0.724 -0.3422 -1.7925 -2.0713
   76MOL0     H10235  11.347   9.716   0.833 -4.4086 -0.2190 -0.3720
   76MOL0     H10236  11.441   9.424   0.848  0.6887  0.8491 -2.0938
   76MOL0     H10237  11.345   9.507   0.970 -0.5582 -0.3914 -1.0923
   76MOL0     H10238  11.552   9.654   0.986 -1.4294 -0.0562 -2.1144
   76MOL0     H10239  11.555   9.496   1.061 -2.1893 -0.1496 -0.3477
   76MOL0     H10240  10.791  10.028   0.980  0.8464 -2.6936 -0.3745
   76MOL0     H10241  10.632  10.190   1.078 -2.5841  1.5031 -0.1736
   76MOL0     H10242  10.264  10.541   1.097  0.5758 -2.1425 -1.2535
   76MOL0     H10243  10.114  10.655   1.263  0.2643  1.2765  0.0206
   76MOL0     H10244   8.928  10.955   2.639  1.0790 -0.6695  0.8141
   76MOL0     H10245   8.685  11.006   2.626 -2.1632 -1.1921 -0.5560
   76MOL0     H10246   8.157  10.832   2.956 -2.4512 -1.7743 -0.1748
   76MOL0     H10247   7.930  10.901   2.882 -1.3475 -0.9297 -0.4500
   76MOL0     H10248   7.749  11.032   2.813 -0.6189  0.5521  0.4956
   76MOL0     H10249   7.691  10.898   2.717 -2.1999  1.1905 -0.1024
   76MOL0     H10250   7.665  11.068   2.515  1.6949  1.0064  0.4596
   76MOL0     H10251   7.715  11.195   2.619 -1.9829  1.3565 -0.2691
   76MOL0     H10252   7.487  11.191   2.585  1.8773  0.9698 -0.2916
   76MOL0     H10253   7.536  11.165   2.749  1.4964 -1.1691  0.6401
   76MOL0     H10254   7.426  10.957   2.555 -0.2371  1.7629 -0.4562
   76MOL0     H10255   7.471  10.900   2.709 -1.1360  1.2129  3.1893
   76MOL0     H10256   7.119  11.082   2.836  0.3349 -0.1146 -0.4538
   76MOL0     H10257   8.091  10.982   2.488 -0.6933  1.7573  0.2527
   76MOL0     H10258   8.363  10.960   2.478 -4.2898  2.7601 -1.2720
   76MOL0     H10259   8.397  10.797   2.535 -0.5358 -0.6812  0.4029
   76MOL0     H10260   8.257  10.836   2.420 -2.0051  1.9850  0.8484
   77MOL0     O10261  10.994   9.168   1.758  0.1111  0.3083 -0.7514
   77MOL0     C10262  11.009   9.080   1.674 -0.1923  0.2306  0.3682
   77MOL0     O10263  10.925   9.051   1.563  0.2789 -0.2320 -0.4424
   77MOL0     C10264  10.806   9.120   1.544 -0.0853 -0.5406  0.4449
   77MOL0     C10265  10.691   9.095   1.613  0.0307  0.3385  0.1678
   77MOL0     C10266  10.569   9.154   1.571  0.7066 -0.3928 -0.0250
   77MOL0     C10267  10.564   9.249   1.470  0.1798 -0.5347 -0.3370
   77MOL0     O10268  10.449   9.304   1.418  0.4438 -0.1903  0.2391
   77MOL0     C10269  10.318   9.288   1.485 -1.1665 -1.1025 -0.2694
   77MOL0     C10270  10.230   9.396   1.426 -0.3847 -0.7535 -0.6349
   77MOL0     C10271  10.286   9.532   1.448  0.7026 -0.5881 -0.3991
   77MOL0     C10272  10.260   9.582   1.594  0.8865 -0.1661 -0.4491
   77MOL0     C10273  10.309   9.712   1.629  0.0502 -1.1276 -0.2382
   77MOL0     C10274  10.241   9.836   1.567  0.3890  0.2427  0.1782
   77MOL0     C10275  10.326   9.962   1.592  0.2704 -0.3275 -0.4302
   77MOL0     C10276  10.264  10.047   1.713 -0.3239 -0.2084  0.2084
   77MOL0     N10277  10.333  10.022   1.841  0.1306  0.3877  0.1107
   77MOL0     C10278  10.462  10.055   1.872  0.1875 -0.1549  0.2172
   77MOL0     C10279  10.482  10.007   2.000  0.8802 -0.7188 -0.1506
   77MOL0     C10280  10.603   9.992   2.087  1.5160 -0.0500 -0.1951
   77MOL0     C10281  10.599   9.844   2.145  0.5572 -0.6472 -0.2487
   77MOL0     C10282  10.745   9.800   2.165  0.0124  0.7459 -0.8184
   77MOL0     C10283  10.804   9.870   2.290  1.1343  0.3046 -0.3196
   77MOL0     O10284  10.862  10.003   2.284 -0.1580  0.1356  0.2752
   77MOL0     C10285  10.984  10.030   2.225 -0.3713  1.2545 -0.4324
   77MOL0     C10286  11.057   9.949   2.134 -0.3210  0.2368 -1.0924
   77MOL0     C10287  11.177   9.991   2.082  0.0607 -0.1674  0.1022
   77MOL0     C10288  11.224  10.126   2.091  0.7688 -1.0997  0.5249
   77MOL0     C10289  11.333  10.169   2.012 -0.8637  0.2603 -0.5279
   77MOL0     O10290  11.380  10.298   2.030 -0.1273  0.1776  0.6049
   77MOL0     C10291  11.502  10.327   1.966  0.5965 -0.0279 -0.7783
   77MOL0     C10292  11.606  10.381   2.045  0.0137  0.5055 -0.2504
   77MOL0     C10293  11.715  10.424   1.972 -0.2307 -1.1006  0.7115
   77MOL0     C10294  11.728  10.419   1.832  0.3754 -0.0322 -0.6873
   77MOL0     O10295  11.831  10.468   1.760 -0.2754 -0.4076 -0.0072
   77MOL0     C10296  11.952  10.516   1.826  1.0768 -0.6837  0.3875
   77MOL0     C10297  12.076  10.494   1.733  0.5103  0.0657 -0.2476
   77MOL0     C10298  12.219  10.509   1.793  0.2355 -0.5469 -0.4346
   77MOL0     C10299  12.214  10.595   1.916 -1.2295  0.2197  0.8434
   77MOL0     C10300  12.347  10.632   1.987 -0.4274  0.5700  0.2242
   77MOL0     C10301  12.442  10.516   2.033  0.1904  1.0434  1.0012
   77MOL0     C10302  12.574  10.564   2.091  0.5861  0.6266 -0.3883
   77MOL0     C10303  12.557  10.638   2.222  0.6494  0.2697 -0.2210
   77MOL0    Cl10304  12.465  10.577   2.353  0.0400 -0.1217 -0.1990
   77MOL0     C10305  11.621  10.353   1.771  0.9546  0.7063  0.8644
   77MOL0     C10306  11.506  10.315   1.829  0.2455 -0.0207 -0.3526
   77MOL0     O10307  11.386  10.084   1.943  0.2026  0.0299 -0.1911
   77MOL0     C10308  11.158  10.208   2.183  0.3886  0.4334  0.0557
   77MOL0     C10309  11.037  10.158   2.245  0.2242  0.1206 -0.7665
   77MOL0     N10310  10.364   9.956   2.041 -0.1050  0.1937  0.2638
   77MOL0     N10311  10.274   9.971   1.948 -0.3407  0.9005  0.8320
   77MOL0     C10312  10.676   9.278   1.403 -0.8815  0.2243 -0.1129
   77MOL0     C10313  10.800   9.209   1.437  0.1311 -0.0400  0.1087
   77MOL0     C10314  11.130   8.997   1.683 -0.2092 -0.5971 -0.2886
   77MOL0     C10315  11.151   8.879   1.606  0.0031  0.0934  0.1146
   77MOL0     C10316  11.258   8.788   1.615  0.6153  0.5253  0.5154
   77MOL0     C10317  11.369   8.830   1.688 -0.4000 -0.6739  0.5750
   77MOL0     O10318  11.489   8.761   1.698  0.6535  0.2273  0.5592
   77MOL0     C10319  11.573   8.793   1.585 -0.4135 -0.0259 -0.1313
   77MOL0     C10320  11.687   8.694   1.580  0.0300 -0.1609  0.5852
   77MOL0     C10321  11.779   8.695   1.452 -0.6684 -0.2842  0.9337
   77MOL0     C10322  11.721   8.603   1.353  0.0113  0.6034  0.5470
   77MOL0     C10323  11.812   8.591   1.239  0.2588 -0.2303 -0.5948
   77MOL0     C10324  11.876   8.576   1.142 -0.1641  0.3392  0.3761
   77MOL0     C10325  11.361   8.946   1.759  1.0204 -0.3001 -1.0872
   77MOL0     C10326  11.239   9.025   1.768  0.0061  0.0992  0.7979
   77MOL0     C10327  11.248   9.146   1.857 -1.3351  0.1609  0.8433
   77MOL0     H10328  10.708   9.041   1.705  0.3092  0.9106  0.4578
   77MOL0     H10329  10.483   9.121   1.629  0.8674  1.6209  1.4871
   77MOL0     H10330  10.279   9.187   1.474  1.5939 -2.3828  0.7631
   77MOL0     H10331  10.324   9.305   1.593 -2.9429 -0.1107 -0.2843
   77MOL0     H10332  10.131   9.391   1.472 -0.4625  1.1700 -0.4998
   77MOL0     H10333  10.218   9.376   1.319  0.5528 -0.4714 -0.8019
   77MOL0     H10334  10.253   9.601   1.370  2.5875  0.8947  0.0365
   77MOL0     H10335  10.391   9.548   1.424  0.1501  3.1950 -0.9489
   77MOL0     H10336  10.156   9.571   1.624  1.1484  0.3439  0.6987
   77MOL0     H10337  10.321   9.515   1.655  0.9167  0.3820  0.1297
   77MOL0     H10338  10.309   9.732   1.737  1.2762  1.0715 -0.5830
   77MOL0     H10339  10.411   9.720   1.589 -1.4899  4.2349 -4.2260
   77MOL0     H10340  10.229   9.835   1.458 -0.3862 -0.6202  0.2610
   77MOL0     H10341  10.142   9.859   1.609 -0.6903 -4.2404  0.5947
   77MOL0     H10342  10.332  10.033   1.509  1.9758  0.3610  0.2232
   77MOL0     H10343  10.427   9.922   1.608 -0.2989 -1.3201  0.9289
   77MOL0     H10344  10.266  10.154   1.692 -0.5308 -0.3498 -0.5729
   77MOL0     H10345  10.158  10.025   1.728 -0.4658  0.6416  0.4546
   77MOL0     H10346  10.535  10.109   1.814  1.5270 -5.0787 -3.2854
   77MOL0     H10347  10.694  10.014   2.030  0.7808  0.9550 -1.0194
   77MOL0     H10348  10.592  10.064   2.169  0.8424  0.4476 -0.7168
   77MOL0     H10349  10.545   9.855   2.239 -1.1739 -3.5642 -0.7865
   77MOL0     H10350  10.555   9.761   2.089 -1.0014 -2.0100  2.7513
   77MOL0     H10351  10.809   9.831   2.081 -0.6581  1.5071 -1.0679
   77MOL0     H10352  10.745   9.691   2.159  4.5138  0.2515  2.6253
   77MOL0     H10353  10.884   9.806   2.331  1.6922  1.8868  1.1917
   77MOL0     H10354  10.720   9.862   2.359 -0.6076 -1.8931 -2.5480
   77MOL0     H10355  11.025   9.847   2.113 -0.0017 -0.4788  1.6022
   77MOL0     H10356  11.235   9.915   2.031  1.8332  0.8340  0.5328
   77MOL0     H10357  11.598  10.393   2.152 -1.2726 -2.5702  0.0853
   77MOL0     H10358  11.781  10.491   2.025 -0.7354  0.1228 -0.1391
   77MOL0     H10359  11.934  10.619   1.858 -0.8818 -0.4882 -1.1921
   77MOL0     H10360  11.974  10.454   1.914 -0.1792 -1.9179 -0.1462
   77MOL0     H10361  12.062  10.387   1.714 -1.8728 -0.3855  3.2667
   77MOL0     H10362  12.060  10.567   1.654 -0.9288  1.1543  1.0138
   77MOL0     H10363  12.261  10.410   1.814 -2.6582 -1.2719  2.8269
   77MOL0     H10364  12.298  10.543   1.725  0.2106  1.6692  0.5409
   77MOL0     H10365  12.154  10.547   1.995 -1.0965 -1.2536  0.0762
   77MOL0     H10366  12.163  10.687   1.887 -0.7324  0.0023 -0.8304
   77MOL0     H10367  12.305  10.673   2.079 -0.2994  1.5416 -0.1356
   77MOL0     H10368  12.403  10.711   1.936 -2.5488  0.6164 -2.2584
   77MOL0     H10369  12.383  10.456   2.103 -0.7616  0.2862 -0.3983
   77MOL0     H10370  12.473  10.455   1.947  0.2112  3.1284 -0.5349
   77MOL0     H10371  12.625  10.630   2.020 -0.5942  1.5477 -0.3961
   77MOL0     H10372  12.635  10.476   2.116  1.5283  1.0371 -1.1615
   77MOL0     H10373  12.657  10.660   2.261  1.2224 -0.5022 -1.2189
   77MOL0     H10374  12.506  10.733   2.201 -2.8842 -1.5676 -0.6074
   77MOL0     H10375  11.622  10.349   1.662 -2.1094 -3.3116  0.7094
   77MOL0     H10376  11.415  10.272   1.789 -1.2725  0.1169  2.7330
   77MOL0     H10377  11.170  10.315   2.194  0.6643  0.2882  1.3496
   77MOL0     H10378  10.972  10.221   2.305  0.7586  0.3990 -0.4732
   77MOL0     H10379  10.675   9.345   1.318 -1.1686  1.0832  0.5558
   77MOL0     H10380  10.887   9.215   1.373  0.8121 -6.5473 -0.1981
   77MOL0     H10381  11.074   8.848   1.536 -0.0241  4.0965 -1.9327
   77MOL0     H10382  11.269   8.688   1.573 -2.2941 -0.1293  1.1485
   77MOL0     H10383  11.602   8.898   1.584  1.4894 -0.4820  1.1578
   77MOL0     H10384  11.503   8.793   1.502 -1.3882 -0.1625  0.6635
   77MOL0     H10385  11.635   8.598   1.591 -0.8630  0.2927  0.4388
   77MOL0     H10386  11.759   8.709   1.661  0.7411  0.6992 -0.1804
   77MOL0     H10387  11.877   8.664   1.491 -1.1900 -0.3412  2.2715
   77MOL0     H10388  11.786   8.796   1.410 -0.0736 -0.7165 -0.0499
   77MOL0     H10389  11.715   8.499   1.388 -1.1921  0.1071 -1.0225
   77MOL0     H10390  11.627   8.644   1.318  0.5169 -0.2462 -2.0145
   77MOL0     H10391  11.933   8.591   1.053  1.3528  0.9973  1.4177
   77MOL0     H10392  11.453   8.976   1.809  1.6315  0.3674 -2.5583
   77MOL0     H10393  11.343   9.150   1.911 -1.5269  0.8035  1.1498
   77MOL0     H10394  11.249   9.237   1.796 -0.0758  0.5132  1.3614
   77MOL0     H10395  11.168   9.145   1.931 -1.2871  0.4591  0.8987
   78MOL0     O10396  10.969   3.575   9.455 -0.0387  0.3145  0.8283
   78MOL0     C10397  10.937   3.681   9.398 -0.3764  0.0558 -0.2803
   78MOL0     O10398  11.022   3.774   9.335 -0.2296 -0.2208 -0.4732
   78MOL0     C10399  11.157   3.740   9.323  0.1533  0.0414  0.1148
   78MOL0     C10400  11.207   3.668   9.205 -0.4324  0.4887 -0.1471
   78MOL0     C10401  11.343   3.635   9.190  0.8533  1.2053 -0.4324
   78MOL0     C10402  11.438   3.685   9.289  0.7488  0.8202  0.0059
   78MOL0     O10403  11.573   3.651   9.293  0.0766  0.0645  0.2887
   78MOL0     C10404  11.625   3.566   9.192  0.0222  0.8634 -0.0959
   78MOL0     C10405  11.770   3.508   9.222 -0.2005  0.6776  0.3356
   78MOL0     C10406  11.876   3.619   9.218  0.9634 -0.0420  0.5153
   78MOL0     C10407  12.017   3.572   9.235  1.0353 -0.5655 -0.2998
   78MOL0     C10408  12.116   3.687   9.209  0.3922  0.5171  0.3295
   78MOL0     C10409  12.264   3.641   9.201  0.1294  0.1992 -0.1309
   78MOL0     C10410  12.298   3.542   9.312  0.4325  0.3352 -0.1640
   78MOL0     C10411  12.451   3.551   9.352  0.5343  0.0946 -0.2623
   78MOL0     N10412  12.529   3.492   9.240  0.0394  0.6338  0.0338
   78MOL0     C10413  12.540   3.354   9.219 -0.0993 -0.0319 -1.4329
   78MOL0     C10414  12.631   3.347   9.115  0.1757  0.0059 -0.0282
   78MOL0     C10415  12.664   3.224   9.031  0.2897  0.4259  0.8715
   78MOL0     C10416  12.796   3.233   8.947 -0.1427  0.1081 -0.9316
   78MOL0     C10417  12.820   3.112   8.858 -0.4693  0.0374 -1.0302
   78MOL0     C10418  12.949   3.126   8.776  0.3204  0.5256 -0.2898
   78MOL0     O10419  13.060   3.060   8.837 -0.3157  0.0906 -0.0169
   78MOL0     C10420  13.181   3.045   8.769 -0.1373 -0.4571 -0.4221
   78MOL0     C10421  13.293   2.971   8.811 -0.2125 -0.5184  0.2364
   78MOL0     C10422  13.408   2.977   8.741  0.1816  0.7512  0.4350
   78MOL0     C10423  13.433   3.061   8.633  0.8343  0.2206  0.5316
   78MOL0     C10424  13.567   3.094   8.581  0.4896 -0.4127 -0.5684
   78MOL0     O10425  13.659   3.015   8.644 -0.7988 -0.4004  0.3187
   78MOL0     C10426  13.792   3.009   8.617 -1.8460 -0.1197 -0.3581
   78MOL0     C10427  13.860   2.902   8.674 -0.4046  0.0717  0.0129
   78MOL0     C10428  13.998   2.886   8.653 -0.8867  0.3599 -0.0669
   78MOL0     C10429  14.073   2.971   8.571  0.6362 -0.0524 -0.3070
   78MOL0     O10430  14.204   2.914   8.533 -0.4576 -0.4154 -0.2987
   78MOL0     C10431  14.303   3.004   8.484  0.7950  0.3700 -0.1816
   78MOL0     C10432  14.373   3.081   8.598  0.6097 -0.3929 -0.2389
   78MOL0     C10433  14.440   3.205   8.550 -0.0312  0.3361 -0.1653
   78MOL0     C10434  14.463   3.303   8.675  0.8545 -0.3375  0.1460
   78MOL0     C10435  14.558   3.411   8.617  0.0618 -0.4353 -0.6354
   78MOL0     C10436  14.585   3.524   8.717  0.2555 -0.9318 -0.0496
   78MOL0     C10437  14.697   3.618   8.679 -2.0394 -0.1602  0.1801
   78MOL0     C10438  14.741   3.729   8.784  0.1304 -0.3619  0.7952
   78MOL0    Cl10439  14.598   3.827   8.807 -0.1561  0.3601 -0.6947
   78MOL0     C10440  14.007   3.077   8.514  0.5264 -0.1486 -0.6884
   78MOL0     C10441  13.869   3.095   8.539  0.3666  0.2938  0.4118
   78MOL0     O10442  13.585   3.177   8.492 -0.2094  0.1126 -0.1338
   78MOL0     C10443  13.323   3.134   8.597  0.8505 -1.0380 -0.4321
   78MOL0     C10444  13.198   3.131   8.656 -0.0892  0.1381  0.0378
   78MOL0     N10445  12.665   3.479   9.084 -0.3282  0.1475  0.8903
   78MOL0     N10446  12.606   3.562   9.157  0.6882  0.3051 -0.0016
   78MOL0     C10447  11.391   3.752   9.397  0.7972 -0.0726 -0.2238
   78MOL0     C10448  11.251   3.778   9.418  0.1536  0.3172 -0.1062
   78MOL0     C10449  10.796   3.716   9.380  0.4099  0.4366 -0.0820
   78MOL0     C10450  10.764   3.802   9.283  0.4344 -1.0216  1.2050
   78MOL0     C10451  10.633   3.839   9.269  0.5340 -0.7307  0.0502
   78MOL0     C10452  10.530   3.802   9.352 -0.1560 -0.6012 -0.7640
   78MOL0     O10453  10.406   3.845   9.334 -0.2386  0.0779  0.0281
   78MOL0     C10454  10.332   3.874   9.451 -0.1915 -0.0698 -0.0166
   78MOL0     C10455  10.329   4.030   9.472  0.0787  0.3614  0.4245
   78MOL0     C10456  10.456   4.099   9.457 -0.8526 -0.4141 -0.5600
   78MOL0     C10457  10.452   4.248   9.478  0.2957  0.2174 -0.2209
   78MOL0     C10458  10.587   4.304   9.487 -0.7968 -0.2165  0.4660
   78MOL0     C10459  10.698   4.359   9.488  0.5092  0.3295 -0.3795
   78MOL0     C10460  10.569   3.708   9.454  1.4709 -0.5282 -0.0397
   78MOL0     C10461  10.694   3.666   9.465  0.1764  0.5621 -0.2339
   78MOL0     C10462  10.723   3.555   9.571  0.7172  0.3299  0.0837
   78MOL0     H10463  11.133   3.645   9.129 -0.5049 -1.2537  0.4159
   78MOL0     H10464  11.372   3.573   9.106  0.9599  2.0644 -1.0469
   78MOL0     H10465  11.562   3.478   9.181 -0.7387  1.1112  1.9586
   78MOL0     H10466  11.645   3.625   9.101 -0.5248  0.9811 -0.1464
   78MOL0     H10467  11.782   3.430   9.145 -4.8024 -1.2039  1.1823
   78MOL0     H10468  11.778   3.459   9.320 -0.4238 -0.1742 -0.0566
   78MOL0     H10469  11.850   3.698   9.288 -2.5332 -1.0994  0.6077
   78MOL0     H10470  11.860   3.659   9.117  1.0113  1.7682  1.2000
   78MOL0     H10471  12.029   3.541   9.339  1.5867  0.6527  0.0318
   78MOL0     H10472  12.029   3.492   9.161 -0.9119 -0.1098 -1.1596
   78MOL0     H10473  12.086   3.747   9.123  0.4655  1.3281  0.8632
   78MOL0     H10474  12.117   3.761   9.290  0.8777  1.8465 -0.8465
   78MOL0     H10475  12.277   3.591   9.105  1.0327  1.2292 -0.5669
   78MOL0     H10476  12.322   3.733   9.215  0.7366 -0.0098 -1.1820
   78MOL0     H10477  12.256   3.447   9.279 -0.8715 -0.2307  2.7506
   78MOL0     H10478  12.244   3.564   9.405 -0.5450 -1.0545 -0.3756
   78MOL0     H10479  12.485   3.653   9.374  1.2856 -0.4190  1.1080
   78MOL0     H10480  12.465   3.496   9.445  3.0325  1.2661  0.1394
   78MOL0     H10481  12.473   3.283   9.267  2.2869 -0.9877  0.8113
   78MOL0     H10482  12.681   3.146   9.106  1.4569 -1.5535 -1.3126
   78MOL0     H10483  12.578   3.202   8.968 -1.4530  2.6265  2.3095
   78MOL0     H10484  12.791   3.324   8.886 -0.9879  1.3001  0.8506
   78MOL0     H10485  12.869   3.241   9.028 -2.8853  1.2224  1.6337
   78MOL0     H10486  12.744   3.102   8.780  0.2861 -0.5314 -1.7310
   78MOL0     H10487  12.822   3.018   8.914 -0.9436  0.8686  0.4160
   78MOL0     H10488  12.963   3.234   8.763  0.9995  0.5691  0.7563
   78MOL0     H10489  12.927   3.089   8.675  1.9847  1.5046 -1.0557
   78MOL0     H10490  13.283   2.897   8.890  0.1070 -1.2263 -0.3737
   78MOL0     H10491  13.494   2.929   8.786 -1.0566  0.3999  2.5476
   78MOL0     H10492  13.806   2.823   8.727 -0.3495 -0.6438 -0.9741
   78MOL0     H10493  14.052   2.793   8.674  0.7873  0.1999 -4.0501
   78MOL0     H10494  14.385   2.946   8.439 -1.5960 -2.1135 -1.7124
   78MOL0     H10495  14.255   3.076   8.417 -3.7720  1.1603  3.4199
   78MOL0     H10496  14.299   3.115   8.671  0.7109  0.2573 -0.4332
   78MOL0     H10497  14.448   3.011   8.637  0.0674 -0.6481  0.3515
   78MOL0     H10498  14.536   3.169   8.511 -0.1049 -1.2570  1.0050
   78MOL0     H10499  14.387   3.259   8.471  2.2334  0.4602 -1.7162
   78MOL0     H10500  14.514   3.251   8.757  1.2507  2.2018  1.5939
   78MOL0     H10501  14.369   3.341   8.714  1.0344 -3.3658  4.1513
   78MOL0     H10502  14.515   3.457   8.528 -0.2720 -0.0334 -0.2710
   78MOL0     H10503  14.653   3.371   8.579  2.5297  1.2721  3.0814
   78MOL0     H10504  14.500   3.589   8.737  0.4139 -0.8003  0.2000
   78MOL0     H10505  14.611   3.471   8.809 -0.0714  1.8383  1.7562
   78MOL0     H10506  14.663   3.674   8.591 -0.7867  1.4516  0.6628
   78MOL0     H10507  14.786   3.559   8.653  0.4395  3.6517 -0.8839
   78MOL0     H10508  14.774   3.692   8.881 -1.2793 -0.2660  1.3292
   78MOL0     H10509  14.817   3.801   8.754 -2.1778  0.3792 -4.5314
   78MOL0     H10510  14.052   3.144   8.442  1.3413 -0.7289 -0.7339
   78MOL0     H10511  13.818   3.181   8.496  0.5359  0.5495  0.7144
   78MOL0     H10512  13.331   3.199   8.511  2.8847  1.2916  1.3994
   78MOL0     H10513  13.125   3.197   8.612  0.1901  1.4487  1.4365
   78MOL0     H10514  11.462   3.773   9.476  2.1379  2.3242 -1.9385
   78MOL0     H10515  11.212   3.825   9.508 -1.8853 -0.2222 -0.6491
   78MOL0     H10516  10.830   3.860   9.220 -2.5716 -0.5201 -1.7883
   78MOL0     H10517  10.614   3.920   9.199  0.2657  0.2372  1.2182
   78MOL0     H10518  10.368   3.823   9.541  0.4998 -1.5910 -1.1031
   78MOL0     H10519  10.229   3.842   9.433 -0.1233 -2.1983  2.7288
   78MOL0     H10520  10.280   4.044   9.569  1.7094  1.5286  1.1248
   78MOL0     H10521  10.260   4.064   9.394 -1.6421 -1.1053  1.2348
   78MOL0     H10522  10.503   4.077   9.360 -0.9449 -2.2701 -0.2296
   78MOL0     H10523  10.526   4.051   9.526 -1.3075 -1.0540 -0.5319
   78MOL0     H10524  10.388   4.295   9.403 -0.7374  0.9043  1.0441
   78MOL0     H10525  10.401   4.256   9.574 -2.3781 -1.2554 -1.3980
   78MOL0     H10526  10.793   4.410   9.493 -0.5187  2.3374 -0.4170
   78MOL0     H10527  10.489   3.672   9.518  0.1998  3.3260  0.8276
   78MOL0     H10528  10.768   3.464   9.531  1.3161 -0.7109  2.9251
   78MOL0     H10529  10.790   3.587   9.651 -0.6744 -4.1165  3.4134
   78MOL0     H10530  10.635   3.525   9.628  1.2069 -1.0240  0.1732
   79MOL0     O10531   6.769   7.563   7.080 -0.6301 -1.0854 -0.1574
   79MOL0     C10532   6.659   7.546   7.129  0.9749  0.7264  0.8459
   79MOL0     O10533   6.556   7.642   7.155 -0.0036 -0.1450 -1.5278
   79MOL0     C10534   6.583   7.770   7.131  0.3840 -0.2659 -0.0631
   79MOL0     C10535   6.536   7.858   7.231 -0.0530  0.1088 -0.6313
   79MOL0     C10536   6.553   7.993   7.202  0.1310 -0.2730  0.5381
   79MOL0     C10537   6.610   8.045   7.082 -0.4621 -0.1652  0.3109
   79MOL0     O10538   6.634   8.183   7.073 -0.3865 -0.0199  1.0758
   79MOL0     C10539   6.608   8.251   6.946 -0.3129 -1.0042 -0.0580
   79MOL0     C10540   6.541   8.389   6.973  0.1918  0.1517 -0.2870
   79MOL0     C10541   6.419   8.378   7.054  0.0406 -0.5389 -0.7453
   79MOL0     C10542   6.372   8.529   7.079  0.3919  1.0869 -0.3224
   79MOL0     C10543   6.292   8.544   7.213 -0.7384 -0.3252  0.0220
   79MOL0     C10544   6.164   8.613   7.181  0.0711 -0.0098 -0.3016
   79MOL0     C10545   6.174   8.766   7.167 -0.4527 -0.1332  0.0968
   79MOL0     C10546   6.234   8.826   7.301 -0.8844 -0.0230 -0.8488
   79MOL0     N10547   6.205   8.962   7.308  0.1201 -0.3958 -0.2708
   79MOL0     C10548   6.091   9.012   7.378 -0.3753 -0.6401  0.0120
   79MOL0     C10549   6.114   9.142   7.334  0.5398  0.5920 -0.7569
   79MOL0     C10550   6.029   9.261   7.387 -0.9741  0.6905 -0.0960
   79MOL0     C10551   6.052   9.305   7.533 -0.1573 -0.8426  1.1170
   79MOL0     C10552   6.195   9.322   7.579  0.6954  0.1833  0.3082
   79MOL0     C10553   6.224   9.295   7.715  0.0827  0.8658 -1.1553
   79MOL0     O10554   6.143   9.190   7.776 -0.1213 -0.2512  0.1075
   79MOL0     C10555   6.152   9.057   7.738 -0.5079 -0.7782  0.3824
   79MOL0     C10556   6.049   8.976   7.786 -0.1476  0.4742 -0.2781
   79MOL0     C10557   6.039   8.839   7.772 -0.2680  0.0095  0.7531
   79MOL0     C10558   6.145   8.781   7.691  0.7902  0.4856  1.3844
   79MOL0     C10559   6.136   8.631   7.663  0.2012  0.2001 -0.9042
   79MOL0     O10560   6.035   8.560   7.731  0.1929 -0.0662 -0.2621
   79MOL0     C10561   6.034   8.427   7.723  0.1660  0.8078  0.4330
   79MOL0     C10562   6.007   8.364   7.608  0.2380  0.1528  0.8061
   79MOL0     C10563   5.982   8.224   7.613 -0.4666  0.2545  0.0382
   79MOL0     C10564   6.012   8.153   7.732  0.9732  1.0195  0.3543
   79MOL0     O10565   5.987   8.010   7.734  0.2011  0.8561 -0.8092
   79MOL0     C10566   6.021   7.930   7.628  0.1433 -0.5744 -0.3170
   79MOL0     C10567   5.963   7.786   7.622 -0.1871 -0.2532 -0.3110
   79MOL0     C10568   5.962   7.716   7.756  0.6370  0.2295  0.0653
   79MOL0     C10569   5.898   7.578   7.735 -0.2158 -0.6301  0.6105
   79MOL0     C10570   5.906   7.494   7.862  0.2645  0.4372 -0.3325
   79MOL0     C10571   5.826   7.351   7.850  0.0466  0.0937 -0.0738
   79MOL0     C10572   5.900   7.237   7.770 -0.3825  0.7258  0.8172
   79MOL0     C10573   5.813   7.115   7.739  0.0123 -0.8277 -0.6349
   79MOL0    Cl10574   5.913   6.981   7.655  0.1046 -0.6630 -0.2895
   79MOL0     C10575   6.049   8.222   7.845 -0.0649  0.0336 -0.0021
   79MOL0     C10576   6.050   8.362   7.846  0.9794  0.1129 -0.3240
   79MOL0     O10577   6.231   8.582   7.604  0.6201  0.0032 -0.3093
   79MOL0     C10578   6.240   8.868   7.631 -0.2569  0.1622 -1.2702
   79MOL0     C10579   6.248   9.001   7.663 -0.5437 -0.9642  0.4731
   79MOL0     N10580   6.221   9.168   7.253 -0.6288 -0.3499  0.0683
   79MOL0     N10581   6.282   9.062   7.252  0.0726 -0.2329 -0.3089
   79MOL0     C10582   6.652   7.953   6.986 -0.5601  0.7325 -0.8842
   79MOL0     C10583   6.637   7.815   7.010  0.6880 -0.0885 -0.1893
   79MOL0     C10584   6.629   7.408   7.180  0.7585  0.1362 -0.0857
   79MOL0     C10585   6.549   7.389   7.293  0.1642 -0.0567  0.3570
   79MOL0     C10586   6.522   7.265   7.345 -0.2717 -0.1888  0.9799
   79MOL0     C10587   6.576   7.155   7.294  0.0898  0.5819 -0.3222
   79MOL0     O10588   6.551   7.028   7.346  0.4266 -0.8597  0.2511
   79MOL0     C10589   6.639   6.923   7.324  0.2496 -0.4767 -0.6189
   79MOL0     C10590   6.611   6.818   7.430  0.3492 -0.1665 -0.4146
   79MOL0     C10591   6.709   6.698   7.428  0.3353 -0.3194 -1.1563
   79MOL0     C10592   6.645   6.568   7.475  0.0932  0.6152  0.7535
   79MOL0     C10593   6.748   6.461   7.477 -0.2378  0.3636 -0.0168
   79MOL0     C10594   6.831   6.371   7.499  0.3269 -0.3308  0.3182
   79MOL0     C10595   6.659   7.169   7.179 -0.6154  0.1443  0.1604
   79MOL0     C10596   6.684   7.293   7.117 -0.1904  0.6821 -0.6062
   79MOL0     C10597   6.788   7.292   7.002  0.0255 -0.2681  0.2245
   79MOL0     H10598   6.503   7.814   7.324  1.2369  0.9445  0.2588
   79MOL0     H10599   6.536   8.058   7.288  1.9948 -1.1570  1.6483
   79MOL0     H10600   6.704   8.258   6.894  1.1928 -1.8003  2.4270
   79MOL0     H10601   6.538   8.192   6.886  1.2363 -1.6539 -1.3130
   79MOL0     H10602   6.520   8.433   6.875  3.4512 -2.0120 -2.1435
   79MOL0     H10603   6.604   8.448   7.040  0.9078 -0.9462  0.0288
   79MOL0     H10604   6.442   8.334   7.152 -0.6742 -0.8895 -0.7299
   79MOL0     H10605   6.333   8.325   7.013 -2.2019  2.8517 -0.8257
   79MOL0     H10606   6.462   8.590   7.080  0.8193  0.4642 -0.1695
   79MOL0     H10607   6.317   8.559   6.989  0.1609 -3.4371 -1.9574
   79MOL0     H10608   6.255   8.445   7.243 -1.1907 -0.1115  0.1741
   79MOL0     H10609   6.360   8.581   7.290 -0.8510  1.2764 -0.6047
   79MOL0     H10610   6.131   8.576   7.084  0.5339 -0.2605 -0.3688
   79MOL0     H10611   6.091   8.579   7.255  0.2521  0.0160 -0.1072
   79MOL0     H10612   6.071   8.802   7.156 -0.1505  0.6820 -0.1322
   79MOL0     H10613   6.226   8.803   7.078  0.3639  0.5216  0.8303
   79MOL0     H10614   6.195   8.766   7.384  0.4921  0.7426  0.4080
   79MOL0     H10615   6.339   8.799   7.284 -0.8708 -1.2062  0.8300
   79MOL0     H10616   6.021   8.985   7.457  3.0896 -1.1415  3.2137
   79MOL0     H10617   6.022   9.342   7.315  0.0334  1.7804  0.9899
   79MOL0     H10618   5.925   9.228   7.396 -0.1998 -1.3330  2.8860
   79MOL0     H10619   6.008   9.405   7.535  0.8654 -0.3739  0.8691
   79MOL0     H10620   5.996   9.240   7.602  2.1548 -3.2029  0.9465
   79MOL0     H10621   6.218   9.428   7.566 -2.6082  0.8165 -1.4887
   79MOL0     H10622   6.259   9.261   7.515 -0.9903 -0.4168 -0.8857
   79MOL0     H10623   6.207   9.391   7.765  0.7546  2.0126 -3.0434
   79MOL0     H10624   6.330   9.272   7.735 -0.4501 -1.2495 -0.4377
   79MOL0     H10625   5.982   9.022   7.859  0.9207 -2.6294  2.9471
   79MOL0     H10626   5.958   8.773   7.802 -0.6396  0.5467  0.9454
   79MOL0     H10627   5.983   8.434   7.528  2.2548  2.3175  1.9768
   79MOL0     H10628   5.940   8.170   7.529 -2.0899 -0.3287  1.1705
   79MOL0     H10629   5.989   7.968   7.531  2.6956 -1.5629 -1.6579
   79MOL0     H10630   6.130   7.931   7.635  0.1684  0.2479 -0.7512
   79MOL0     H10631   5.862   7.798   7.581  0.8857  0.3881 -2.9400
   79MOL0     H10632   6.019   7.722   7.554 -1.3355 -3.2809  1.4095
   79MOL0     H10633   6.065   7.694   7.785 -0.2313 -2.9784  1.1368
   79MOL0     H10634   5.921   7.777   7.837  2.3873  0.4374  0.8407
   79MOL0     H10635   5.939   7.537   7.642 -0.1346  0.8596 -0.0523
   79MOL0     H10636   5.791   7.596   7.716 -0.4074 -1.9779  0.3301
   79MOL0     H10637   5.855   7.556   7.936 -2.2590 -2.6134  0.7104
   79MOL0     H10638   6.008   7.481   7.899  0.4987  1.4828 -0.5707
   79MOL0     H10639   5.800   7.311   7.949 -0.8365  2.0885  0.5349
   79MOL0     H10640   5.744   7.388   7.788  0.7788 -1.0402 -1.8019
   79MOL0     H10641   5.979   7.199   7.835  1.9601  0.7052 -1.8255
   79MOL0     H10642   5.959   7.283   7.690  0.9795 -1.1351  0.6881
   79MOL0     H10643   5.761   7.072   7.825 -0.8973  1.5295  0.0762
   79MOL0     H10644   5.736   7.152   7.671 -1.1647 -1.4618  0.3096
   79MOL0     H10645   6.069   8.167   7.936 -2.4161 -1.8479 -0.5067
   79MOL0     H10646   6.078   8.424   7.931  0.4813  0.0811 -0.1372
   79MOL0     H10647   6.310   8.824   7.561  0.0068 -1.6508  0.0443
   79MOL0     H10648   6.333   9.056   7.624 -2.4577  0.9569 -1.1975
   79MOL0     H10649   6.700   8.004   6.903 -1.2836  0.2602 -1.6072
   79MOL0     H10650   6.660   7.738   6.937 -1.4807  0.4726 -1.5995
   79MOL0     H10651   6.514   7.476   7.349 -0.4309 -1.1032  1.6875
   79MOL0     H10652   6.461   7.249   7.433 -3.1239  3.6110 -0.0192
   79MOL0     H10653   6.744   6.952   7.336  1.3950 -3.8013 -1.3349
   79MOL0     H10654   6.628   6.877   7.225  1.3212 -1.1253 -0.4543
   79MOL0     H10655   6.505   6.799   7.411 -0.2863 -0.2739  2.6580
   79MOL0     H10656   6.631   6.855   7.531  0.5845 -1.7648  0.1437
   79MOL0     H10657   6.805   6.713   7.478  0.7493 -1.7017 -1.5080
   79MOL0     H10658   6.728   6.679   7.322  0.6707 -0.2437 -1.1105
   79MOL0     H10659   6.597   6.580   7.572 -0.1837  0.2739  0.6612
   79MOL0     H10660   6.575   6.537   7.396  0.4299  0.3550  0.5522
   79MOL0     H10661   6.896   6.289   7.525  0.9292 -0.0739 -0.3750
   79MOL0     H10662   6.696   7.079   7.131 -0.0957 -0.3967  1.5217
   79MOL0     H10663   6.794   7.196   6.951  0.0857  0.0844 -0.4474
   79MOL0     H10664   6.764   7.362   6.921  0.1222  0.1245  0.5325
   79MOL0     H10665   6.879   7.325   7.054 -0.2298 -2.1939  2.0080
   80MOL0     O10666  10.120   0.661   8.425 -0.2069 -0.1108 -0.7175
   80MOL0     C10667  10.029   0.583   8.400 -0.1013 -0.6107  0.9978
   80MOL0     O10668  10.034   0.483   8.306 -0.1096  0.4891 -0.2004
   80MOL0     C10669  10.162   0.466   8.252  0.8936 -0.1469 -0.3984
   80MOL0     C10670  10.173   0.456   8.116 -0.0842  0.0737  0.2805
   80MOL0     C10671  10.298   0.452   8.052  0.7697 -0.0450 -0.4395
   80MOL0     C10672  10.417   0.456   8.127  0.1425  0.8375  0.3722
   80MOL0     O10673  10.528   0.459   8.047 -0.3988  0.7435 -0.1488
   80MOL0     C10674  10.655   0.414   8.103 -0.6942  0.1325 -0.3438
   80MOL0     C10675  10.778   0.433   8.014 -0.2424  0.2024  0.1712
   80MOL0     C10676  10.915   0.408   8.089  0.2696 -0.8535 -0.1237
   80MOL0     C10677  11.027   0.448   8.002 -1.2692  0.2493  0.0768
   80MOL0     C10678  11.166   0.455   8.077 -0.1964  0.2920  1.0609
   80MOL0     C10679  11.268   0.497   7.967  0.1852  0.4613  0.1397
   80MOL0     C10680  11.410   0.519   8.033  0.1259  0.9501 -0.1464
   80MOL0     C10681  11.530   0.568   7.941  0.0329  0.2363  0.4204
   80MOL0     N10682  11.595   0.450   7.871  0.4195  0.6003 -0.5485
   80MOL0     C10683  11.651   0.353   7.953 -0.0114 -0.3082  0.1382
   80MOL0     C10684  11.665   0.249   7.872 -1.4292 -0.2582 -0.1005
   80MOL0     C10685  11.717   0.118   7.905  0.0535 -0.3910 -0.2129
   80MOL0     C10686  11.593   0.019   7.917 -0.4226  0.5618 -0.1221
   80MOL0     C10687  11.643  -0.126   7.938  0.1134 -0.1308 -0.0826
   80MOL0     C10688  11.525  -0.215   7.973  0.6769 -0.0911 -0.5691
   80MOL0     O10689  11.567  -0.331   8.034  0.4872  0.0024 -0.0658
   80MOL0     C10690  11.490  -0.401   8.127 -0.0324 -0.1696 -0.0744
   80MOL0     C10691  11.539  -0.516   8.194  0.3019 -0.1314  0.4277
   80MOL0     C10692  11.463  -0.574   8.294 -0.1673  0.7637  0.6631
   80MOL0     C10693  11.340  -0.528   8.331  0.9753  0.3381 -0.2321
   80MOL0     C10694  11.253  -0.609   8.426 -0.3090 -0.0633 -0.7278
   80MOL0     O10695  11.124  -0.568   8.447  0.3707  0.4068 -0.2425
   80MOL0     C10696  11.022  -0.647   8.481  0.2104 -0.0126 -0.1414
   80MOL0     C10697  10.888  -0.597   8.503 -0.7305 -0.2151  0.0624
   80MOL0     C10698  10.774  -0.683   8.525 -0.4571  0.6969 -0.7082
   80MOL0     C10699  10.782  -0.815   8.561 -0.2919 -0.1950  0.3766
   80MOL0     O10700  10.676  -0.891   8.605 -0.2840  0.6284  0.0562
   80MOL0     C10701  10.560  -0.809   8.656 -0.2806  0.1682 -0.3322
   80MOL0     C10702  10.468  -0.895   8.735 -1.3074 -0.0017 -0.7640
   80MOL0     C10703  10.327  -0.835   8.761  0.3385  1.1728  0.1906
   80MOL0     C10704  10.220  -0.876   8.659 -1.0382 -0.0245  0.5557
   80MOL0     C10705  10.093  -0.800   8.679  0.0325 -0.1884  0.0799
   80MOL0     C10706   9.992  -0.850   8.567  0.3373  0.1433  0.2197
   80MOL0     C10707   9.922  -0.984   8.584  0.5906 -0.2659  0.1376
   80MOL0     C10708   9.824  -1.021   8.478 -0.2420  1.8810  0.3575
   80MOL0    Cl10709   9.663  -0.944   8.475  0.2337 -0.0816  0.1273
   80MOL0     C10710  10.913  -0.864   8.540  0.4028  0.9228  0.7650
   80MOL0     C10711  11.022  -0.785   8.496 -0.5596 -0.0204  0.8860
   80MOL0     O10712  11.305  -0.703   8.485 -0.2707  0.8594 -0.9178
   80MOL0     C10713  11.285  -0.420   8.263 -0.6614 -0.7765  0.5518
   80MOL0     C10714  11.367  -0.352   8.172 -0.0299 -0.1117 -0.6428
   80MOL0     N10715  11.625   0.278   7.743 -0.7550 -0.8861 -0.4743
   80MOL0     N10716  11.571   0.401   7.745 -0.6379 -0.1721 -0.1611
   80MOL0     C10717  10.402   0.464   8.271  0.3911 -0.2473  0.6313
   80MOL0     C10718  10.278   0.455   8.327 -1.4503 -0.3297  0.2507
   80MOL0     C10719   9.905   0.591   8.484 -0.1642  0.3460  0.4420
   80MOL0     C10720   9.794   0.522   8.445 -0.1017  0.1476 -0.4531
   80MOL0     C10721   9.674   0.514   8.503 -0.2139 -0.3061 -0.9395
   80MOL0     C10722   9.667   0.568   8.630  0.0999 -0.8320 -1.1447
   80MOL0     O10723   9.552   0.574   8.708 -0.3890 -0.2505 -0.8891
   80MOL0     C10724   9.431   0.519   8.651 -0.6277  0.6703  0.1163
   80MOL0     C10725   9.323   0.544   8.756 -0.7081  0.2095 -0.3873
   80MOL0     C10726   9.202   0.457   8.714  0.1880  0.3713  0.0905
   80MOL0     C10727   9.097   0.471   8.825  0.1844  0.3552  0.8066
   80MOL0     C10728   9.003   0.585   8.808  0.6492 -0.2875  0.4149
   80MOL0     C10729   8.931   0.683   8.803 -0.2984 -0.2501  0.6862
   80MOL0     C10730   9.777   0.641   8.685  0.3647  0.1904  0.3981
   80MOL0     C10731   9.897   0.652   8.612 -0.4214  0.3272  0.1611
   80MOL0     C10732  10.009   0.711   8.683  0.4044  0.2457 -0.3753
   80MOL0     H10733  10.083   0.440   8.058  1.3814 -1.4893 -1.7166
   80MOL0     H10734  10.321   0.453   7.946  0.7077  1.8669 -0.4730
   80MOL0     H10735  10.668   0.473   8.195 -2.7047 -1.3842  1.0032
   80MOL0     H10736  10.651   0.308   8.129  1.8006  0.3585  1.2476
   80MOL0     H10737  10.769   0.529   7.961 -0.8231 -0.4870 -1.0012
   80MOL0     H10738  10.777   0.353   7.940 -1.1457  1.5393 -1.3310
   80MOL0     H10739  10.906   0.305   8.126 -0.0205 -0.8723 -0.2438
   80MOL0     H10740  10.924   0.475   8.174  2.2952  0.2532 -1.1360
   80MOL0     H10741  11.038   0.378   7.918  0.5777 -2.6229  2.4806
   80MOL0     H10742  11.019   0.548   7.959  1.2221  0.3698 -0.2769
   80MOL0     H10743  11.164   0.526   8.160 -0.9824  1.3633  0.1555
   80MOL0     H10744  11.192   0.355   8.113 -2.6009 -0.6375  0.4203
   80MOL0     H10745  11.277   0.419   7.891 -2.2697  2.0774 -1.9362
   80MOL0     H10746  11.244   0.598   7.935 -0.5086  0.4525  0.6241
   80MOL0     H10747  11.441   0.428   8.084 -0.0602  1.2228  0.4594
   80MOL0     H10748  11.394   0.599   8.106 -0.7367 -0.6868  1.5094
   80MOL0     H10749  11.487   0.635   7.866  0.1540  2.2383  2.0198
   80MOL0     H10750  11.595   0.623   8.010  0.8821 -1.2318  0.8299
   80MOL0     H10751  11.680   0.358   8.057 -1.7786 -1.0562  0.7093
   80MOL0     H10752  11.774   0.080   7.820 -0.1336 -1.9122  0.3272
   80MOL0     H10753  11.780   0.120   7.994 -1.7869  0.1059  1.1115
   80MOL0     H10754  11.541   0.032   8.012  0.8043  0.5225  0.5721
   80MOL0     H10755  11.527   0.031   7.831 -1.5623 -1.6511  0.3762
   80MOL0     H10756  11.706  -0.128   8.027  2.8492 -1.5029 -1.9010
   80MOL0     H10757  11.699  -0.163   7.852 -0.4130  0.1371 -0.5540
   80MOL0     H10758  11.465  -0.229   7.883 -0.6145 -1.8110  0.4805
   80MOL0     H10759  11.460  -0.160   8.042  0.4013 -0.2841 -0.6718
   80MOL0     H10760  11.637  -0.557   8.173  0.1049 -2.1117  2.8787
   80MOL0     H10761  11.502  -0.661   8.345  0.8499  0.5947 -0.3543
   80MOL0     H10762  10.866  -0.495   8.474 -0.7944 -0.1179  0.4481
   80MOL0     H10763  10.678  -0.635   8.544 -1.3955 -1.2888 -0.2248
   80MOL0     H10764  10.595  -0.724   8.715  0.3595 -0.5366  0.3227
   80MOL0     H10765  10.513  -0.764   8.568 -0.6793  0.2286 -0.0896
   80MOL0     H10766  10.458  -0.988   8.677 -0.4901  0.2829 -1.3951
   80MOL0     H10767  10.526  -0.922   8.824 -0.1136  0.0718 -1.4853
   80MOL0     H10768  10.306  -0.876   8.860  1.5180  0.8585  0.3246
   80MOL0     H10769  10.341  -0.727   8.777  1.2474  1.2278 -0.8198
   80MOL0     H10770  10.211  -0.985   8.656  1.8488 -0.3220 -0.1429
   80MOL0     H10771  10.263  -0.867   8.558 -1.6869 -2.9330 -0.0668
   80MOL0     H10772  10.127  -0.699   8.654  2.0287 -0.8809 -0.1565
   80MOL0     H10773  10.046  -0.812   8.777 -2.3689  0.0681 -0.9552
   80MOL0     H10774   9.911  -0.779   8.550 -1.3373 -2.1136 -1.8912
   80MOL0     H10775  10.041  -0.853   8.469  0.3281 -0.8740  0.2372
   80MOL0     H10776   9.870  -0.980   8.680  0.2199 -0.4576 -0.0560
   80MOL0     H10777   9.985  -1.073   8.597 -1.0642 -1.7744 -1.5732
   80MOL0     H10778   9.860  -1.003   8.376 -1.1998 -0.0545 -0.3755
   80MOL0     H10779   9.801  -1.127   8.494 -3.3130  2.3641 -0.2350
   80MOL0     H10780  10.929  -0.966   8.572 -3.0046 -0.0776 -0.2825
   80MOL0     H10781  11.117  -0.838   8.505  0.0194  1.2226  2.4374
   80MOL0     H10782  11.183  -0.384   8.274  0.5308  3.0177  0.7131
   80MOL0     H10783  11.316  -0.270   8.122  2.0421  0.6338 -1.6441
   80MOL0     H10784  10.489   0.466   8.335  1.7280  1.1534 -1.1184
   80MOL0     H10785  10.275   0.470   8.435 -1.2187  3.6239 -0.1190
   80MOL0     H10786   9.800   0.461   8.355 -1.3723  2.3073 -2.1175
   80MOL0     H10787   9.589   0.469   8.453 -0.4884 -0.4911 -0.3104
   80MOL0     H10788   9.437   0.414   8.623 -0.2775  1.2169 -2.0448
   80MOL0     H10789   9.418   0.572   8.556 -0.9703 -1.0914 -0.8569
   80MOL0     H10790   9.276   0.641   8.775 -4.2882 -1.5606  0.6738
   80MOL0     H10791   9.371   0.500   8.844 -0.7207 -0.0918 -0.5293
   80MOL0     H10792   9.217   0.350   8.699 -2.4402  0.0642 -0.8830
   80MOL0     H10793   9.155   0.490   8.621  3.1347 -0.7340 -1.9231
   80MOL0     H10794   9.030   0.385   8.828  0.3197  0.2406  0.5147
   80MOL0     H10795   9.152   0.465   8.920  0.1422  1.3789  0.8992
   80MOL0     H10796   8.862   0.764   8.812  1.5918  1.3192  1.8654
   80MOL0     H10797   9.770   0.695   8.779  0.9551 -1.6840  1.5815
   80MOL0     H10798   9.982   0.766   8.773  0.9098  2.1230 -1.3287
   80MOL0     H10799  10.096   0.652   8.714  0.2091  0.6331  0.9526
   80MOL0     H10800  10.049   0.791   8.620  0.7722  0.0520 -0.3906
   81MOL0     O10801   1.047   0.935   0.146 -0.8911 -0.7194  0.0844
   81MOL0     C10802   1.051   0.894   0.262 -0.2566 -0.1263 -0.4350
   81MOL0     O10803   1.170   0.858   0.331 -0.2879 -0.8719 -0.7595
   81MOL0     C10804   1.294   0.831   0.271  0.4774 -0.7423  0.8528
   81MOL0     C10805   1.307   0.761   0.150 -0.8268 -0.7344  0.2970
   81MOL0     C10806   1.440   0.742   0.098 -0.2311 -0.0719 -0.1036
   81MOL0     C10807   1.551   0.779   0.173 -0.3242  0.7675 -0.7150
   81MOL0     O10808   1.682   0.739   0.152  0.1886  0.1489  0.7136
   81MOL0     C10809   1.703   0.717   0.007  0.3108 -0.2494  0.8711
   81MOL0     C10810   1.859   0.721  -0.017 -0.6043 -0.7737 -0.2096
   81MOL0     C10811   1.933   0.851   0.031 -0.2930  0.2815  0.5224
   81MOL0     C10812   2.080   0.843  -0.001 -1.0145 -0.0382 -0.4494
   81MOL0     C10813   2.143   0.977   0.024 -0.2442  0.6116 -1.5924
   81MOL0     C10814   2.137   1.027   0.164 -0.2008 -0.1053  0.7303
   81MOL0     C10815   2.250   0.963   0.243 -0.4077 -0.0862  0.5331
   81MOL0     C10816   2.240   0.986   0.393 -0.3346  0.3408 -0.0431
   81MOL0     N10817   2.278   1.123   0.435 -0.1123 -0.4028 -0.3638
   81MOL0     C10818   2.397   1.182   0.409 -0.0892 -0.9539 -0.1532
   81MOL0     C10819   2.398   1.308   0.466  0.3757  0.2594  0.3416
   81MOL0     C10820   2.509   1.405   0.478 -0.0465 -0.8878  1.1152
   81MOL0     C10821   2.565   1.413   0.615 -0.5051  0.6065  0.1028
   81MOL0     C10822   2.643   1.285   0.640 -0.5281  0.2031 -0.8586
   81MOL0     C10823   2.717   1.288   0.778  0.7248 -0.0033 -0.5824
   81MOL0     O10824   2.753   1.159   0.823  0.0568  0.3296  0.0165
   81MOL0     C10825   2.832   1.133   0.934  0.7199 -0.8923  0.0748
   81MOL0     C10826   2.854   1.002   0.961 -0.9811 -0.4780  0.7194
   81MOL0     C10827   2.959   0.968   1.045  0.8410 -0.5229  0.7512
   81MOL0     C10828   3.026   1.071   1.119 -1.5336 -1.0143  0.1329
   81MOL0     C10829   3.108   1.039   1.231 -0.0994  0.3249 -0.7796
   81MOL0     O10830   3.204   1.132   1.283  0.1143 -0.2376  0.5006
   81MOL0     C10831   3.278   1.109   1.398 -0.5876  0.4371 -0.9576
   81MOL0     C10832   3.395   1.175   1.412  0.1063  0.0786 -0.1833
   81MOL0     C10833   3.491   1.139   1.504  0.2849 -0.8514  0.2596
   81MOL0     C10834   3.478   1.033   1.592  0.9473 -0.0691  0.3320
   81MOL0     O10835   3.566   1.010   1.694  0.1431  0.5010  0.0002
   81MOL0     C10836   3.701   1.019   1.654 -0.9454  0.9281 -0.0314
   81MOL0     C10837   3.800   0.943   1.753 -0.0706  0.4220 -0.5221
   81MOL0     C10838   3.917   0.874   1.691 -0.3807  0.4411  0.0825
   81MOL0     C10839   4.017   0.976   1.642 -0.0805 -0.3362 -0.1131
   81MOL0     C10840   4.111   0.939   1.532 -0.9451  0.6843 -0.0051
   81MOL0     C10841   4.222   0.838   1.570  0.3439 -0.5728 -0.3705
   81MOL0     C10842   4.307   0.881   1.692 -0.3286 -0.0489 -0.2033
   81MOL0     C10843   4.426   0.786   1.699  0.3588 -0.1380 -0.3612
   81MOL0    Cl10844   4.580   0.879   1.733  0.2579 -0.0432 -0.1556
   81MOL0     C10845   3.348   0.981   1.599 -0.0610  0.5886  0.1505
   81MOL0     C10846   3.256   1.009   1.493 -0.5051 -0.4030 -0.3398
   81MOL0     O10847   3.073   0.932   1.285 -0.6027  0.6249 -0.2771
   81MOL0     C10848   3.001   1.209   1.093  0.1492  0.4908 -0.3244
   81MOL0     C10849   2.904   1.235   1.002  0.6310  1.4734  0.6199
   81MOL0     N10850   2.268   1.321   0.512  0.2188  0.8782 -0.1127
   81MOL0     N10851   2.196   1.211   0.496 -0.4313 -0.4908  0.8190
   81MOL0     C10852   1.526   0.841   0.293 -0.9556 -0.4325 -0.1941
   81MOL0     C10853   1.404   0.878   0.341 -0.2134  0.3748  0.9604
   81MOL0     C10854   0.926   0.897   0.335  0.2685  0.2835  0.5924
   81MOL0     C10855   0.924   0.934   0.479 -0.2849  0.1957  0.1162
   81MOL0     C10856   0.800   0.917   0.548  0.2889  0.0077 -0.0475
   81MOL0     C10857   0.679   0.870   0.491 -0.4874 -0.4222 -1.0289
   81MOL0     O10858   0.571   0.863   0.569 -0.1724 -0.3823 -0.4693
   81MOL0     C10859   0.442   0.831   0.512 -0.2403  0.1189 -0.8792
   81MOL0     C10860   0.338   0.858   0.622  0.4030  0.3188  0.2122
   81MOL0     C10861   0.197   0.871   0.554 -0.5541  0.2612 -0.4008
   81MOL0     C10862   0.100   0.905   0.664  0.4194 -0.6629  0.5501
   81MOL0     C10863  -0.031   0.856   0.619 -0.2471  1.1337  0.0337
   81MOL0     C10864  -0.138   0.818   0.575  0.8484  0.1862 -0.2448
   81MOL0     C10865   0.688   0.843   0.350  0.3198  0.4539  0.2064
   81MOL0     C10866   0.803   0.845   0.279 -0.0788 -0.6230 -0.2635
   81MOL0     C10867   0.804   0.789   0.133  0.9388  0.7189  0.3799
   81MOL0     H10868   1.229   0.712   0.092 -3.2386  0.7512  2.1159
   81MOL0     H10869   1.448   0.703  -0.003  0.4029 -0.0009 -0.0847
   81MOL0     H10870   1.661   0.618  -0.013  0.5098 -0.1383 -0.1070
   81MOL0     H10871   1.644   0.789  -0.050  1.9051 -0.8404 -1.7044
   81MOL0     H10872   1.886   0.710  -0.122  4.6964  3.1881  0.3101
   81MOL0     H10873   1.909   0.642   0.039 -1.6272 -0.8719  0.5960
   81MOL0     H10874   1.913   0.874   0.136 -0.4298 -3.0585  1.3336
   81MOL0     H10875   1.885   0.921  -0.039  0.1315 -1.7872 -1.9966
   81MOL0     H10876   2.126   0.766   0.062  0.9015 -0.4611 -2.2673
   81MOL0     H10877   2.088   0.823  -0.108 -1.4381  0.2459 -0.5359
   81MOL0     H10878   2.250   0.972  -0.000  0.1329 -0.8073  0.1326
   81MOL0     H10879   2.090   1.049  -0.040  0.3734  3.1957  0.6109
   81MOL0     H10880   2.150   1.135   0.176 -0.7235  0.2219 -1.2588
   81MOL0     H10881   2.040   1.013   0.214  1.5270 -2.3831  3.7665
   81MOL0     H10882   2.353   0.987   0.214 -0.3711 -1.1844 -0.3234
   81MOL0     H10883   2.253   0.854   0.231  4.2816 -0.0935 -0.0123
   81MOL0     H10884   2.141   0.952   0.422 -0.7273 -1.5367 -3.1630
   81MOL0     H10885   2.306   0.918   0.447 -2.2519 -2.5579 -1.1321
   81MOL0     H10886   2.483   1.124   0.375  1.0728  1.0890 -0.9097
   81MOL0     H10887   2.593   1.382   0.412 -0.8142  0.2193 -0.3241
   81MOL0     H10888   2.466   1.505   0.463 -2.2318 -1.5514  2.3590
   81MOL0     H10889   2.646   1.487   0.613  0.9806 -0.9132 -2.7383
   81MOL0     H10890   2.484   1.423   0.687  1.3209 -1.4982  2.6438
   81MOL0     H10891   2.714   1.263   0.560 -0.8211  1.3873 -1.4624
   81MOL0     H10892   2.574   1.200   0.640 -0.9173  0.5021 -2.1032
   81MOL0     H10893   2.650   1.326   0.856  1.0330 -0.0859 -0.2713
   81MOL0     H10894   2.810   1.344   0.766  0.1227  1.6524  1.7335
   81MOL0     H10895   2.782   0.932   0.919 -1.2423  1.4150 -2.2882
   81MOL0     H10896   2.980   0.865   1.071 -0.8813 -0.6605  1.7078
   81MOL0     H10897   3.411   1.261   1.347 -1.4234  0.9984  0.5998
   81MOL0     H10898   3.580   1.202   1.513 -0.1113  0.3938 -3.1630
   81MOL0     H10899   3.713   0.981   1.552 -0.2237  0.4190  0.2327
   81MOL0     H10900   3.743   1.120   1.647  0.5088  0.5037  1.8953
   81MOL0     H10901   3.826   0.999   1.843  0.5216 -2.2705  1.0923
   81MOL0     H10902   3.738   0.863   1.793 -1.2320  1.0093 -1.0952
   81MOL0     H10903   3.963   0.802   1.759  0.2358  0.8010  0.0600
   81MOL0     H10904   3.861   0.822   1.613 -3.1458 -1.4447  3.0801
   81MOL0     H10905   4.071   1.020   1.727  0.2477 -0.9946  0.0282
   81MOL0     H10906   3.962   1.058   1.595 -2.4607 -2.0961 -0.5694
   81MOL0     H10907   4.159   1.031   1.499 -0.2640  0.1286 -0.5813
   81MOL0     H10908   4.050   0.899   1.451 -3.4417  0.3526  1.8936
   81MOL0     H10909   4.171   0.742   1.580  0.8559 -0.7157  1.0736
   81MOL0     H10910   4.288   0.828   1.483  0.2132  0.8898 -0.6739
   81MOL0     H10911   4.247   0.864   1.782  0.9910  3.0040  1.4307
   81MOL0     H10912   4.327   0.989   1.691 -0.8526  0.0486 -0.3481
   81MOL0     H10913   4.408   0.712   1.778  4.3330  0.8073  1.7191
   81MOL0     H10914   4.441   0.734   1.604 -1.8024 -0.7423 -0.4098
   81MOL0     H10915   3.319   0.912   1.677  0.8824 -0.0708 -0.0673
   81MOL0     H10916   3.162   0.955   1.491 -0.5471 -0.3134 -1.5219
   81MOL0     H10917   3.062   1.290   1.133 -2.3034  1.1791  2.2894
   81MOL0     H10918   2.872   1.335   0.976 -2.6700  1.1535  2.8819
   81MOL0     H10919   1.611   0.870   0.355  0.1636 -0.3521 -1.7109
   81MOL0     H10920   1.395   0.934   0.433  0.3382  3.9783 -0.9788
   81MOL0     H10921   1.004   0.985   0.531 -1.8669  2.9538  0.0341
   81MOL0     H10922   0.794   0.939   0.654  1.2535  0.1921 -0.0206
   81MOL0     H10923   0.445   0.726   0.480  3.4460 -1.3625  3.2417
   81MOL0     H10924   0.423   0.898   0.428 -2.7150  0.9908  0.2554
   81MOL0     H10925   0.363   0.954   0.668  0.3326  0.4137  0.0517
   81MOL0     H10926   0.328   0.777   0.695  0.2204 -0.5788 -0.7808
   81MOL0     H10927   0.173   0.783   0.494 -0.8801 -1.4395  2.0684
   81MOL0     H10928   0.204   0.959   0.490  0.1774  0.0450 -0.6330
   81MOL0     H10929   0.122   0.861   0.762 -4.4999  3.1078  3.7873
   81MOL0     H10930   0.103   1.014   0.668  1.9613 -0.4058 -3.3609
   81MOL0     H10931  -0.235   0.788   0.542  0.7444  1.9986 -1.7760
   81MOL0     H10932   0.603   0.816   0.288 -0.3488  1.1431  0.8021
   81MOL0     H10933   0.884   0.719   0.108  0.0391 -0.0883 -0.3414
   81MOL0     H10934   0.715   0.727   0.121  1.1103  0.7346 -1.2584
   81MOL0     H10935   0.790   0.867   0.058 -3.9277  0.3665  0.5682
   82MOL0     O10936   9.644   5.094  10.673  0.3397  0.5537  0.3055
   82MOL0     C10937   9.697   4.979  10.674  0.1197 -0.3173  0.2547
   82MOL0     O10938   9.631   4.859  10.641  0.5633  0.0070 -0.1200
   82MOL0     C10939   9.496   4.862  10.631 -0.1365  0.8511 -0.3558
   82MOL0     C10940   9.425   4.815  10.512  0.0424  0.3553  0.3025
   82MOL0     C10941   9.282   4.828  10.490 -0.0659  0.1071  0.8929
   82MOL0     C10942   9.207   4.885  10.595  0.5446  0.4108 -0.6659
   82MOL0     O10943   9.073   4.906  10.599  1.1760  0.5698 -0.2404
   82MOL0     C10944   9.024   4.989  10.497  0.7356 -0.0878 -0.4627
   82MOL0     C10945   9.014   5.142  10.535 -0.7504  1.2021  0.6913
   82MOL0     C10946   9.037   5.241  10.420  0.3700 -0.0047  0.3629
   82MOL0     C10947   8.910   5.233  10.328 -0.6108 -0.0968 -0.8905
   82MOL0     C10948   8.943   5.326  10.213  0.6555 -0.6470 -0.4309
   82MOL0     C10949   8.824   5.335  10.121 -0.7796 -0.6822  0.2765
   82MOL0     C10950   8.843   5.458  10.021 -0.2129  0.0137 -0.8833
   82MOL0     C10951   8.741   5.434   9.911  0.0442 -0.0297 -0.0690
   82MOL0     N10952   8.606   5.481   9.948 -0.1805  0.6085  0.0218
   82MOL0     C10953   8.480   5.407   9.917  0.1966  0.4465  0.7839
   82MOL0     C10954   8.385   5.494   9.951  0.0240  0.1500 -0.4089
   82MOL0     C10955   8.240   5.470   9.927  0.3396  0.7119 -0.2785
   82MOL0     C10956   8.176   5.360  10.022 -0.4848 -0.4563  0.3310
   82MOL0     C10957   8.034   5.308   9.983 -0.5259  0.8038  0.5876
   82MOL0     C10958   7.934   5.415  10.008  0.5298 -0.2593 -0.2535
   82MOL0     O10959   7.923   5.460  10.151  0.4730  0.5088 -0.0654
   82MOL0     C10960   7.867   5.582  10.181  0.3739 -0.2890 -0.2722
   82MOL0     C10961   7.911   5.644  10.300  0.0369 -1.1135  0.0102
   82MOL0     C10962   7.854   5.765  10.332 -0.4586  0.3159  0.4075
   82MOL0     C10963   7.763   5.830  10.243 -0.3382  0.0518 -0.0287
   82MOL0     C10964   7.720   5.976  10.259 -0.3121  0.6900  0.1249
   82MOL0     O10965   7.663   6.041  10.147  0.3276 -0.0029 -0.2521
   82MOL0     C10966   7.617   6.171  10.148 -0.0186 -0.5389  0.2632
   82MOL0     C10967   7.592   6.209  10.021  1.2852 -0.0452  0.0498
   82MOL0     C10968   7.561   6.339   9.986 -0.3648  0.1623 -0.4398
   82MOL0     C10969   7.532   6.428  10.086  0.2589  0.5545  1.3619
   82MOL0     O10970   7.492   6.549  10.044  0.0454  0.1517 -0.1260
   82MOL0     C10971   7.416   6.630  10.131 -0.4017  0.4881 -0.5984
   82MOL0     C10972   7.359   6.747  10.058 -0.7551  0.3352  0.3122
   82MOL0     C10973   7.271   6.699   9.943 -0.2718 -0.1863  0.6981
   82MOL0     C10974   7.172   6.803   9.895  0.1741  0.6497  0.7385
   82MOL0     C10975   7.100   6.745   9.775  0.0935 -0.1743 -0.3357
   82MOL0     C10976   6.967   6.818   9.734  0.3776 -0.3831 -0.3741
   82MOL0     C10977   6.877   6.756   9.620  0.0609  0.1534  0.4199
   82MOL0     C10978   6.760   6.854   9.602  0.2179 -0.2377 -0.8313
   82MOL0    Cl10979   6.665   6.815   9.455  0.2878 -0.1431  0.0306
   82MOL0     C10980   7.572   6.396  10.220  0.3684 -0.0482 -0.4534
   82MOL0     C10981   7.608   6.262  10.253  0.4565 -1.0902 -0.5515
   82MOL0     O10982   7.742   6.029  10.373 -0.1518 -0.4103  0.9190
   82MOL0     C10983   7.721   5.770  10.125  0.5521  0.5778  0.1582
   82MOL0     C10984   7.775   5.645  10.098  0.4078 -0.6381  1.1114
   82MOL0     N10985   8.448   5.614   9.974  0.7078  0.2230  0.1970
   82MOL0     N10986   8.578   5.610   9.974 -0.0836 -1.1216 -0.0436
   82MOL0     C10987   9.273   4.924  10.711  0.7362 -0.2525  0.8960
   82MOL0     C10988   9.412   4.916  10.727 -0.2649  0.0238  1.3045
   82MOL0     C10989   9.830   4.965  10.719  0.5767 -0.1099  0.1701
   82MOL0     C10990   9.856   4.835  10.789  1.0026 -0.3488 -0.2087
   82MOL0     C10991   9.982   4.822  10.847  0.6332 -0.3110  0.2233
   82MOL0     C10992  10.078   4.922  10.839 -0.0748 -0.1375 -0.1533
   82MOL0     O10993  10.204   4.922  10.901  1.2581  0.4409  0.8053
   82MOL0     C10994  10.227   4.804  10.988  0.6985  0.1171  0.5635
   82MOL0     C10995  10.349   4.826  11.070 -0.0780  0.8177 -0.4330
   82MOL0     C10996  10.318   4.928  11.177 -0.5152  0.0519  0.8479
   82MOL0     C10997  10.439   4.980  11.255  0.3854  0.7240  0.4850
   82MOL0     C10998  10.526   4.874  11.299  0.1149 -0.9528 -0.2459
   82MOL0     C10999  10.600   4.779  11.326  0.2536  0.1649  0.6945
   82MOL0     C11000  10.049   5.039  10.777  0.0617  0.4116 -1.1121
   82MOL0     C11001   9.931   5.071  10.710 -0.1710  0.3395 -0.2227
   82MOL0     C11002   9.914   5.198  10.644  0.2386 -0.6203  0.2156
   82MOL0     H11003   9.483   4.772  10.431 -0.3891  0.5362 -0.1055
   82MOL0     H11004   9.240   4.801  10.394  0.6067  0.0734  0.5997
   82MOL0     H11005   9.087   4.976  10.408  1.8864  0.4760  0.2541
   82MOL0     H11006   8.924   4.952  10.473  1.7630 -1.4837 -3.0446
   82MOL0     H11007   9.100   5.158  10.601 -1.1091  0.2347  1.4262
   82MOL0     H11008   8.924   5.163  10.593 -0.4907  1.8364  0.8748
   82MOL0     H11009   9.126   5.211  10.366 -2.1673 -2.0611 -3.0849
   82MOL0     H11010   9.062   5.337  10.465  4.3231 -1.4866  1.7343
   82MOL0     H11011   8.873   5.140  10.282  0.1552  0.5475 -2.9427
   82MOL0     H11012   8.829   5.274  10.389  0.3463 -0.3370  0.5799
   82MOL0     H11013   8.984   5.415  10.261  3.5209 -1.6275 -0.8622
   82MOL0     H11014   9.020   5.274  10.155  1.1012 -0.4588 -0.0133
   82MOL0     H11015   8.803   5.241  10.070  0.5445 -0.4931 -0.6470
   82MOL0     H11016   8.733   5.346  10.181 -2.2548  2.6868 -2.2600
   82MOL0     H11017   8.947   5.461   9.988  0.7386  0.0667  1.8377
   82MOL0     H11018   8.809   5.533  10.094 -0.5312 -1.6342  0.7419
   82MOL0     H11019   8.760   5.505   9.829  0.6253 -0.6580 -0.4837
   82MOL0     H11020   8.747   5.332   9.872  0.2566 -0.1894  0.3785
   82MOL0     H11021   8.472   5.305   9.882 -2.4011  1.1424 -0.8811
   82MOL0     H11022   8.182   5.562   9.938 -2.1842 -0.6234 -1.3983
   82MOL0     H11023   8.228   5.421   9.829  0.6861 -0.9001  0.4441
   82MOL0     H11024   8.254   5.284  10.030  1.7820  1.2963 -2.8608
   82MOL0     H11025   8.170   5.411  10.119  0.3380 -0.8294  0.5918
   82MOL0     H11026   8.017   5.228  10.056  2.5600 -2.1237 -1.5996
   82MOL0     H11027   8.023   5.249   9.892  1.0141  0.5974  0.5223
   82MOL0     H11028   7.844   5.369   9.965 -0.8700  1.3427  0.7932
   82MOL0     H11029   7.948   5.504   9.947 -2.8744  1.0624  0.6473
   82MOL0     H11030   7.988   5.598  10.362  0.6253  2.2553  1.9928
   82MOL0     H11031   7.876   5.826  10.418 -3.6936  3.4042 -0.6954
   82MOL0     H11032   7.593   6.133   9.944  1.1910  0.5892 -0.5837
   82MOL0     H11033   7.536   6.370   9.885 -1.7243  0.2567 -0.0793
   82MOL0     H11034   7.337   6.566  10.170 -1.1427  2.1914  0.8697
   82MOL0     H11035   7.482   6.681  10.203  1.2213  2.0686 -3.0568
   82MOL0     H11036   7.298   6.813  10.121 -0.0397  1.7651 -0.4202
   82MOL0     H11037   7.437   6.810  10.013  1.3746 -2.3768 -0.0116
   82MOL0     H11038   7.339   6.670   9.862 -1.5198 -0.8024 -0.1484
   82MOL0     H11039   7.218   6.610   9.977  1.9060 -2.9273 -2.4362
   82MOL0     H11040   7.218   6.897   9.862 -1.5486  0.8507 -1.2865
   82MOL0     H11041   7.114   6.822   9.986 -1.9542 -2.4560  0.1631
   82MOL0     H11042   7.080   6.639   9.795  2.2277 -0.3171  1.3673
   82MOL0     H11043   7.157   6.757   9.682  1.7026  0.1804  0.6764
   82MOL0     H11044   6.911   6.823   9.828 -0.9874  2.2000 -1.2229
   82MOL0     H11045   6.987   6.917   9.693 -2.1479  0.4717  0.3210
   82MOL0     H11046   6.843   6.656   9.649  1.0467 -0.6459 -1.0846
   82MOL0     H11047   6.936   6.741   9.530  0.4134  0.9279  0.5140
   82MOL0     H11048   6.698   6.851   9.692  1.9435 -3.0671  0.4212
   82MOL0     H11049   6.800   6.956   9.598 -1.3904  0.4017 -1.4809
   82MOL0     H11050   7.569   6.475  10.295  1.2015  0.2879 -0.7736
   82MOL0     H11051   7.626   6.243  10.359  0.6803  2.8442  0.2691
   82MOL0     H11052   7.660   5.824  10.054  2.1055 -0.2123 -1.8657
   82MOL0     H11053   7.745   5.595  10.006  1.9671 -3.5042  2.0301
   82MOL0     H11054   9.209   4.972  10.784 -0.0787 -0.8199  0.5725
   82MOL0     H11055   9.463   4.963  10.811  1.8554 -1.1507  0.7558
   82MOL0     H11056   9.777   4.763  10.805 -0.3233  0.8474 -1.0522
   82MOL0     H11057  10.006   4.726  10.893  1.2151 -2.0143 -3.2628
   82MOL0     H11058  10.228   4.719  10.919 -2.7693  2.2454 -2.4790
   82MOL0     H11059  10.152   4.779  11.063 -0.7739  2.6979  0.0569
   82MOL0     H11060  10.432   4.863  11.010  1.6856  2.6767  2.8593
   82MOL0     H11061  10.372   4.724  11.102  1.4170  0.5728 -2.1366
   82MOL0     H11062  10.241   4.890  11.245 -0.5250 -0.3689  0.6117
   82MOL0     H11063  10.272   5.014  11.128 -1.3596  0.3213  2.0834
   82MOL0     H11064  10.501   5.037  11.185  0.3495 -2.4109 -2.3629
   82MOL0     H11065  10.401   5.034  11.341 -0.5845 -2.0674  1.9349
   82MOL0     H11066  10.665   4.698  11.349 -0.6133 -0.8267 -0.2075
   82MOL0     H11067  10.120   5.121  10.770  0.3956  1.1766  5.4339
   82MOL0     H11068   9.994   5.209  10.569  1.8455 -0.3605  1.9026
   82MOL0     H11069   9.823   5.216  10.586  0.4580 -1.6204 -0.4737
   82MOL0     H11070   9.945   5.280  10.709 -2.0135 -0.4261  1.1332
   83MOL0     O11071   0.990   6.885   4.101 -0.1693 -0.1564  0.5878
   83MOL0     C11072   0.928   6.933   4.193  0.0589 -0.0051 -0.1725
   83MOL0     O11073   0.983   7.009   4.292 -0.1064 -0.9273  0.6681
   83MOL0     C11074   1.118   6.993   4.303  0.1070  0.0030 -0.9948
   83MOL0     C11075   1.210   7.105   4.289  0.0861 -0.1397  0.1550
   83MOL0     C11076   1.350   7.087   4.301  1.0128 -0.0741  0.3329
   83MOL0     C11077   1.400   6.956   4.334  0.4434 -0.0139  1.0192
   83MOL0     O11078   1.536   6.924   4.335  0.2107 -0.3889 -0.3587
   83MOL0     C11079   1.622   7.035   4.339 -0.4520 -0.4791  0.9162
   83MOL0     C11080   1.759   6.985   4.398 -0.6650 -0.2213  0.3897
   83MOL0     C11081   1.812   7.084   4.516  0.0168  0.7333 -0.6584
   83MOL0     C11082   1.943   7.030   4.564 -0.0426 -0.6269  0.5643
   83MOL0     C11083   1.993   7.120   4.681  0.2738  0.5129  0.3406
   83MOL0     C11084   2.134   7.097   4.731  0.1469  0.8371 -0.2495
   83MOL0     C11085   2.144   6.963   4.810  0.3595 -0.2726  0.4498
   83MOL0     C11086   2.288   6.937   4.837  0.0541 -0.5946  0.3340
   83MOL0     N11087   2.352   7.044   4.917  0.5329 -0.1042 -0.0367
   83MOL0     C11088   2.302   7.077   5.042 -0.1256  0.6190  0.2983
   83MOL0     C11089   2.352   7.195   5.082 -0.8681 -0.3761  0.6166
   83MOL0     C11090   2.323   7.265   5.214 -0.0314  0.0616  0.0310
   83MOL0     C11091   2.172   7.314   5.238 -0.1557  0.1169  0.4402
   83MOL0     C11092   2.070   7.197   5.223  0.4314 -0.4394 -0.8644
   83MOL0     C11093   1.929   7.248   5.260 -0.6449  0.3941 -0.0287
   83MOL0     O11094   1.861   7.127   5.245 -0.5645 -0.4024 -0.0925
   83MOL0     C11095   1.731   7.130   5.210  1.1781 -0.4791 -0.3180
   83MOL0     C11096   1.649   7.244   5.216  0.2619  0.5714  0.0756
   83MOL0     C11097   1.513   7.235   5.211  0.7499 -0.3968 -0.4343
   83MOL0     C11098   1.457   7.109   5.178  0.7777 -0.8233 -0.6223
   83MOL0     C11099   1.307   7.102   5.146 -0.5223 -0.0411  0.0326
   83MOL0     O11100   1.249   7.224   5.152  0.1351  0.0485  0.0834
   83MOL0     C11101   1.119   7.236   5.190 -0.9080 -0.0941  0.7034
   83MOL0     C11102   1.014   7.166   5.119 -1.5206  0.7632  0.0608
   83MOL0     C11103   0.886   7.190   5.169  0.8208 -0.3909 -0.7215
   83MOL0     C11104   0.860   7.305   5.251  0.6233 -0.3256  0.0827
   83MOL0     O11105   0.733   7.338   5.283  0.0446 -0.1835 -1.2940
   83MOL0     C11106   0.645   7.381   5.175 -0.0540  0.5761 -0.1749
   83MOL0     C11107   0.522   7.452   5.226  0.4100  0.7114  0.2279
   83MOL0     C11108   0.388   7.386   5.209 -0.1149  0.1006 -0.0641
   83MOL0     C11109   0.375   7.261   5.294  0.0386 -0.3731 -0.4026
   83MOL0     C11110   0.240   7.191   5.264 -0.3893  0.6033  0.6714
   83MOL0     C11111   0.130   7.251   5.351 -0.0597 -0.0343  0.0976
   83MOL0     C11112   0.137   7.249   5.501  0.6407 -0.1911  1.0092
   83MOL0     C11113   0.192   7.112   5.561  0.1427 -0.6299 -0.2591
   83MOL0    Cl11114   0.104   7.062   5.717  0.2551 -0.0909 -0.0055
   83MOL0     C11115   0.959   7.372   5.312  0.8114 -0.4392  0.2313
   83MOL0     C11116   1.089   7.334   5.290 -0.0712 -0.2744  0.0186
   83MOL0     O11117   1.257   6.986   5.140 -0.0486 -0.0611  0.0874
   83MOL0     C11118   1.538   6.994   5.185  1.0106 -0.7150 -0.7541
   83MOL0     C11119   1.674   7.004   5.209 -0.0420 -0.5555 -0.0107
   83MOL0     N11120   2.451   7.226   4.984  0.5907 -0.6373 -0.1256
   83MOL0     N11121   2.433   7.147   4.886  0.6441 -0.4627  0.2127
   83MOL0     C11122   1.312   6.856   4.348  0.1104  0.7710 -0.0906
   83MOL0     C11123   1.173   6.866   4.332 -0.9875 -0.5960 -0.0535
   83MOL0     C11124   0.778   6.927   4.196 -0.5668  0.5906 -0.2845
   83MOL0     C11125   0.718   6.840   4.098 -0.9699 -0.1556  0.8040
   83MOL0     C11126   0.582   6.801   4.101  0.1293 -0.1455  0.5826
   83MOL0     C11127   0.498   6.872   4.184 -0.6043  0.5499 -1.3611
   83MOL0     O11128   0.355   6.865   4.182 -0.6702 -0.1855  0.5867
   83MOL0     C11129   0.295   6.783   4.084 -0.2837 -0.7223 -0.5167
   83MOL0     C11130   0.140   6.782   4.097 -0.4030 -0.2684 -1.0217
   83MOL0     C11131   0.071   6.914   4.042 -0.0536 -0.7425  0.2747
   83MOL0     C11132  -0.044   6.963   4.125 -0.5030  0.8588  0.1689
   83MOL0     C11133  -0.165   6.882   4.118 -0.5778  0.5513 -0.2885
   83MOL0     C11134  -0.261   6.806   4.131  0.1518 -0.0944  0.6869
   83MOL0     C11135   0.553   6.967   4.280 -0.3942 -0.2067 -0.5748
   83MOL0     C11136   0.686   6.991   4.284 -0.2037 -1.0362 -0.5553
   83MOL0     C11137   0.726   7.096   4.387  0.4379  0.3113  0.3903
   83MOL0     H11138   1.179   7.207   4.269  0.1349  0.5314  3.0870
   83MOL0     H11139   1.411   7.175   4.284 -0.3574  0.3515 -3.2096
   83MOL0     H11140   1.638   7.094   4.248 -3.3912 -2.9816 -1.4700
   83MOL0     H11141   1.583   7.109   4.410 -0.6353  1.3723 -0.9815
   83MOL0     H11142   1.827   6.976   4.313  0.2846 -2.2061  1.2877
   83MOL0     H11143   1.745   6.883   4.435 -3.2412  0.0195  0.3065
   83MOL0     H11144   1.748   7.079   4.605  1.2424 -1.6736  0.1669
   83MOL0     H11145   1.812   7.188   4.482 -1.1259  0.6342 -1.0304
   83MOL0     H11146   1.944   6.926   4.597  1.8671 -0.3767  1.4192
   83MOL0     H11147   2.012   7.034   4.479 -0.5267 -3.2571 -0.0632
   83MOL0     H11148   2.000   7.226   4.655  0.0435  0.5944  0.6094
   83MOL0     H11149   1.919   7.091   4.756 -0.4228 -1.8871 -1.1506
   83MOL0     H11150   2.215   7.100   4.658 -2.0784 -2.0118 -3.0912
   83MOL0     H11151   2.153   7.171   4.810 -1.1176  0.7010  0.2122
   83MOL0     H11152   2.110   6.883   4.744 -2.5144 -0.2638  1.7446
   83MOL0     H11153   2.084   6.947   4.901 -0.2650  2.5127  0.6322
   83MOL0     H11154   2.293   6.834   4.874 -1.6653 -1.4605 -1.6381
   83MOL0     H11155   2.337   6.939   4.740 -0.1204 -0.8016  0.2384
   83MOL0     H11156   2.232   7.023   5.105  4.0759 -2.7294  2.6745
   83MOL0     H11157   2.361   7.200   5.293  1.9025  1.1430  0.0330
   83MOL0     H11158   2.386   7.354   5.210 -0.1981  0.1358 -1.1578
   83MOL0     H11159   2.167   7.362   5.336  0.7619 -1.4662  1.3025
   83MOL0     H11160   2.148   7.389   5.162  0.2790  0.1534  0.3352
   83MOL0     H11161   2.105   7.122   5.294  2.8977  1.5596  0.1832
   83MOL0     H11162   2.063   7.168   5.118 -0.9857  0.9435 -1.1989
   83MOL0     H11163   1.906   7.334   5.196 -0.5559 -1.0465 -2.1018
   83MOL0     H11164   1.937   7.285   5.362  0.2908 -1.4078  0.5873
   83MOL0     H11165   1.681   7.347   5.232 -4.3270  1.7295  3.8226
   83MOL0     H11166   1.453   7.325   5.218  4.1644  2.1456 -1.4837
   83MOL0     H11167   1.034   7.092   5.042 -0.8211  0.3166  0.6599
   83MOL0     H11168   0.806   7.129   5.128 -1.1938  2.4282 -1.3272
   83MOL0     H11169   0.708   7.452   5.120 -0.0871  0.7936  0.0705
   83MOL0     H11170   0.631   7.301   5.102  0.2522  0.9258 -0.6217
   83MOL0     H11171   0.530   7.484   5.331  0.0678  1.5324  0.0080
   83MOL0     H11172   0.512   7.537   5.159  0.4898 -0.2947 -1.0916
   83MOL0     H11173   0.309   7.454   5.243  1.1360  0.6280  1.9766
   83MOL0     H11174   0.367   7.368   5.103 -0.0879 -0.3605  0.0073
   83MOL0     H11175   0.390   7.291   5.399  1.2003 -1.5893 -0.1911
   83MOL0     H11176   0.446   7.180   5.274 -3.0906 -3.7777  1.1472
   83MOL0     H11177   0.249   7.086   5.291 -3.2042  0.0346 -0.3000
   83MOL0     H11178   0.209   7.206   5.160  1.5364  1.2363  0.1398
   83MOL0     H11179   0.120   7.356   5.323 -2.0811 -0.0452  0.6030
   83MOL0     H11180   0.035   7.205   5.322 -0.8228  1.8924 -0.6120
   83MOL0     H11181   0.041   7.268   5.550  0.0456 -0.3118 -0.0757
   83MOL0     H11182   0.206   7.329   5.528  0.3418  0.3687  0.1593
   83MOL0     H11183   0.183   7.036   5.483 -1.8157  0.3852 -1.0958
   83MOL0     H11184   0.298   7.123   5.584  0.1552  0.6587 -0.8371
   83MOL0     H11185   0.946   7.457   5.378  2.3655  0.5759 -0.7151
   83MOL0     H11186   1.165   7.391   5.343 -0.3244  2.2157 -2.0869
   83MOL0     H11187   1.498   6.893   5.175  2.1644 -1.5421  1.9413
   83MOL0     H11188   1.751   6.929   5.227  1.7144 -0.4234 -5.2271
   83MOL0     H11189   1.354   6.756   4.359 -2.0396 -0.1537  0.2212
   83MOL0     H11190   1.125   6.769   4.340 -1.0753 -0.6144 -0.7526
   83MOL0     H11191   0.780   6.806   4.017  0.4843 -0.1339  1.8773
   83MOL0     H11192   0.560   6.728   4.024  0.9904  1.1216 -0.9179
   83MOL0     H11193   0.332   6.683   4.105 -2.1388 -1.1235  1.1172
   83MOL0     H11194   0.317   6.820   3.983 -1.9839 -1.2686 -1.1247
   83MOL0     H11195   0.105   6.764   4.199 -1.4273  0.4330 -1.2261
   83MOL0     H11196   0.109   6.688   4.050  0.4929 -0.4761 -1.2234
   83MOL0     H11197   0.021   6.886   3.949 -1.2962  1.1694  0.3108
   83MOL0     H11198   0.140   6.996   4.024 -1.6387  1.0339  1.7773
   83MOL0     H11199  -0.007   6.969   4.228 -2.2615  0.4824  0.8535
   83MOL0     H11200  -0.065   7.064   4.090  0.2618  0.3064 -2.0681
   83MOL0     H11201  -0.346   6.742   4.145  0.6209 -0.7756  0.5184
   83MOL0     H11202   0.472   7.000   4.344 -0.2506 -0.1471 -0.4238
   83MOL0     H11203   0.793   7.051   4.461  1.3718 -2.8127 -2.1400
   83MOL0     H11204   0.775   7.177   4.331 -1.6999  0.6242 -1.1775
   83MOL0     H11205   0.636   7.130   4.440 -1.2485 -1.5880 -1.0956
   84MOL0     O11206   0.720   9.544   3.082  0.1024  0.3550 -0.8006
   84MOL0     C11207   0.669   9.625   3.157 -0.0113  0.2375 -0.6191
   84MOL0     O11208   0.740   9.698   3.256  1.1605 -0.8923  0.6330
   84MOL0     C11209   0.879   9.697   3.237  0.4415  0.5749  0.0624
   84MOL0     C11210   0.944   9.761   3.128 -0.0594  0.1209 -0.4361
   84MOL0     C11211   1.076   9.749   3.107 -0.2451  0.1831 -0.3239
   84MOL0     C11212   1.160   9.677   3.202 -0.4589 -0.5887  0.4878
   84MOL0     O11213   1.298   9.679   3.193 -0.2528 -0.5334  0.8974
   84MOL0     C11214   1.377   9.619   3.305 -0.8084 -1.1369 -0.3119
   84MOL0     C11215   1.532   9.667   3.280  1.5532 -0.3779 -0.4281
   84MOL0     C11216   1.620   9.602   3.382 -0.3488  0.5556 -0.2302
   84MOL0     C11217   1.772   9.627   3.365  0.7747  0.2672 -0.4677
   84MOL0     C11218   1.844   9.555   3.477 -0.0024 -0.5472 -0.1250
   84MOL0     C11219   1.998   9.534   3.454 -0.2743  0.0293 -1.1804
   84MOL0     C11220   2.078   9.490   3.580  0.0658  0.4853  0.1157
   84MOL0     C11221   2.097   9.337   3.602 -0.0224  0.5137  0.3218
   84MOL0     N11222   2.177   9.300   3.714  0.0694  0.7045  0.3759
   84MOL0     C11223   2.130   9.274   3.838  0.2235 -0.1405 -0.6459
   84MOL0     C11224   2.242   9.239   3.910  0.7286 -0.1990 -0.3974
   84MOL0     C11225   2.231   9.185   4.055  0.0919 -0.0337  0.0592
   84MOL0     C11226   2.238   9.291   4.171  0.8554  0.4477  0.4941
   84MOL0     C11227   2.366   9.358   4.202  0.2271 -0.1527 -0.2575
   84MOL0     C11228   2.477   9.268   4.250  0.4908  0.2714 -0.0388
   84MOL0     O11229   2.587   9.354   4.291  0.2916  0.0828 -0.3718
   84MOL0     C11230   2.704   9.306   4.249 -0.1621 -0.3782 -0.3240
   84MOL0     C11231   2.751   9.183   4.285 -0.4298  1.0887  0.0833
   84MOL0     C11232   2.885   9.144   4.253  0.2233  0.1730  0.1061
   84MOL0     C11233   2.974   9.235   4.192 -0.0867  0.9370  0.0372
   84MOL0     C11234   3.110   9.202   4.169 -0.8858  0.2355  0.2243
   84MOL0     O11235   3.155   9.069   4.162  0.0652 -0.5057 -0.8870
   84MOL0     C11236   3.285   9.025   4.146  1.0344  0.1187  0.1871
   84MOL0     C11237   3.305   8.921   4.057 -0.2886  0.0265  0.6674
   84MOL0     C11238   3.429   8.857   4.039 -0.9161  0.1275  0.5156
   84MOL0     C11239   3.533   8.893   4.118 -0.8133 -0.1086  0.4443
   84MOL0     O11240   3.660   8.839   4.117 -0.1913 -0.0122  0.0046
   84MOL0     C11241   3.719   8.749   4.028  0.3489  0.1771  0.2638
   84MOL0     C11242   3.854   8.701   4.085 -0.0704  0.0357  0.0241
   84MOL0     C11243   3.821   8.599   4.192  0.0992 -0.2155 -0.9135
   84MOL0     C11244   3.794   8.462   4.142  0.4130  0.0829  0.3309
   84MOL0     C11245   3.771   8.358   4.256  0.3201  0.1135 -0.0931
   84MOL0     C11246   3.697   8.228   4.201 -0.1642 -0.3863  0.1230
   84MOL0     C11247   3.642   8.149   4.316  0.3842 -0.7135 -0.3208
   84MOL0     C11248   3.747   8.111   4.418  0.3940  0.1671 -0.7356
   84MOL0    Cl11249   3.905   8.081   4.342  0.1157  0.0670 -0.3158
   84MOL0     C11250   3.509   8.990   4.216 -0.4987 -0.7737 -0.1160
   84MOL0     C11251   3.389   9.056   4.233  0.5304  1.4881 -1.3070
   84MOL0     O11252   3.183   9.295   4.149 -0.4132 -0.2811 -0.0593
   84MOL0     C11253   2.926   9.357   4.163  0.4359  0.4834 -0.9197
   84MOL0     C11254   2.798   9.398   4.205  0.3474 -0.9347 -0.0334
   84MOL0     N11255   2.356   9.255   3.835  0.6108  1.1658  0.6902
   84MOL0     N11256   2.315   9.295   3.714 -0.1232  0.1254 -0.7130
   84MOL0     C11257   1.093   9.614   3.307 -0.0522 -0.3306  0.6816
   84MOL0     C11258   0.955   9.631   3.328  0.2176 -0.3042  0.3554
   84MOL0     C11259   0.521   9.631   3.146 -0.0063 -0.1297 -0.3461
   84MOL0     C11260   0.449   9.504   3.134  0.5852 -0.1785 -0.6639
   84MOL0     C11261   0.314   9.500   3.128  0.4300 -0.3839 -0.7448
   84MOL0     C11262   0.239   9.620   3.138  0.0663  0.6158  0.1550
   84MOL0     O11263   0.101   9.606   3.128 -0.5776  0.5510  0.2475
   84MOL0     C11264   0.035   9.690   3.224 -0.1297  0.0356  0.3675
   84MOL0     C11265  -0.104   9.624   3.256  0.9742 -1.2302 -0.8636
   84MOL0     C11266  -0.079   9.479   3.288 -0.3791 -0.6851 -0.5468
   84MOL0     C11267  -0.202   9.409   3.344 -0.2338 -0.1784  0.9949
   84MOL0     C11268  -0.185   9.266   3.306  0.5088  0.4986  0.2998
   84MOL0     C11269  -0.154   9.156   3.268 -0.1173 -0.6496 -0.6057
   84MOL0     C11270   0.311   9.745   3.143  0.1492  0.6937 -0.2791
   84MOL0     C11271   0.449   9.749   3.141  0.3873 -0.1764  0.2386
   84MOL0     C11272   0.511   9.881   3.107  0.2450  0.7034 -0.2343
   84MOL0     H11273   0.891   9.818   3.052  0.4470 -0.8093 -1.5154
   84MOL0     H11274   1.127   9.794   3.022  0.3490 -1.4475 -0.8780
   84MOL0     H11275   1.356   9.641   3.410  2.0518  1.2777 -0.1091
   84MOL0     H11276   1.374   9.511   3.289  0.8379 -1.1833 -0.5260
   84MOL0     H11277   1.561   9.771   3.294  3.9740 -0.5983 -2.9661
   84MOL0     H11278   1.555   9.642   3.176  1.4286 -1.1278 -0.2807
   84MOL0     H11279   1.611   9.493   3.385  0.2674  0.4028 -2.4306
   84MOL0     H11280   1.586   9.631   3.482  0.9386 -0.7894  0.6308
   84MOL0     H11281   1.819   9.582   3.278  1.0810 -1.3313  0.4767
   84MOL0     H11282   1.787   9.735   3.361  1.8859  0.1271 -0.3961
   84MOL0     H11283   1.827   9.599   3.576  1.9312  0.5287 -0.2331
   84MOL0     H11284   1.806   9.452   3.480  0.3067 -0.6868 -0.8195
   84MOL0     H11285   2.030   9.470   3.371 -2.2476  0.4057 -2.2865
   84MOL0     H11286   2.034   9.633   3.426 -1.0220  0.6092 -0.1773
   84MOL0     H11287   2.036   9.544   3.666  0.1460  1.2173 -0.2957
   84MOL0     H11288   2.180   9.525   3.565  0.1997 -0.7392 -2.2582
   84MOL0     H11289   2.005   9.281   3.623 -0.3926  1.1751  0.5250
   84MOL0     H11290   2.131   9.284   3.513 -3.2598 -1.0178 -0.1377
   84MOL0     H11291   2.024   9.272   3.858  0.0369 -1.9013 -1.6427
   84MOL0     H11292   2.136   9.132   4.064 -2.2410  3.6537 -0.6396
   84MOL0     H11293   2.306   9.105   4.065 -1.1817 -1.3746 -0.8491
   84MOL0     H11294   2.169   9.370   4.137  0.1893 -0.3498 -0.0405
   84MOL0     H11295   2.181   9.251   4.255  0.2717  1.0229  0.3883
   84MOL0     H11296   2.361   9.441   4.273  3.8088  1.0234 -1.1602
   84MOL0     H11297   2.422   9.390   4.113  0.2033 -1.9802 -0.9741
   84MOL0     H11298   2.511   9.202   4.170  0.9259  0.1144  0.2740
   84MOL0     H11299   2.440   9.212   4.336  0.5517 -1.0931 -0.8739
   84MOL0     H11300   2.680   9.109   4.320  0.5958  0.6106  1.2565
   84MOL0     H11301   2.923   9.053   4.298 -1.9912 -0.9273 -0.0663
   84MOL0     H11302   3.217   8.898   3.998 -1.1680  5.3848 -0.6227
   84MOL0     H11303   3.437   8.778   3.965  0.2518 -0.9853  1.7675
   84MOL0     H11304   3.654   8.666   3.999 -0.6102  0.8918  0.3258
   84MOL0     H11305   3.739   8.804   3.935  0.5072 -1.4756 -0.7143
   84MOL0     H11306   3.901   8.647   4.002  0.4903 -0.7452  0.8262
   84MOL0     H11307   3.921   8.784   4.110  2.3510 -0.5921 -3.6497
   84MOL0     H11308   3.908   8.583   4.255  0.8158  1.0967 -1.5344
   84MOL0     H11309   3.744   8.643   4.256  2.1516  2.0464  0.1651
   84MOL0     H11310   3.873   8.427   4.076  1.0556 -0.5862  1.4177
   84MOL0     H11311   3.705   8.466   4.079  0.2389  1.1994  0.6285
   84MOL0     H11312   3.708   8.415   4.325 -0.4824  1.6274 -1.9669
   84MOL0     H11313   3.862   8.326   4.306  1.3675 -0.6260 -2.3499
   84MOL0     H11314   3.611   8.257   4.140  0.5639 -0.6763 -1.0974
   84MOL0     H11315   3.770   8.174   4.138  1.6231 -0.7415  2.3650
   84MOL0     H11316   3.589   8.062   4.278  2.1235 -2.1678  0.4151
   84MOL0     H11317   3.563   8.209   4.363  1.7116 -1.0972  2.6235
   84MOL0     H11318   3.760   8.195   4.488 -0.6529 -0.1797 -0.1134
   84MOL0     H11319   3.722   8.019   4.472 -2.0168  1.3872  0.3907
   84MOL0     H11320   3.588   9.020   4.284 -0.0955 -0.9873 -0.4832
   84MOL0     H11321   3.383   9.128   4.314  1.1127 -0.2354  0.3235
   84MOL0     H11322   2.992   9.433   4.122 -2.0707  3.7692  0.6678
   84MOL0     H11323   2.772   9.503   4.197 -1.6089 -1.2635  1.2690
   84MOL0     H11324   1.148   9.546   3.371  0.0170 -1.2838 -0.3600
   84MOL0     H11325   0.918   9.577   3.415  2.7229 -1.0511  1.0434
   84MOL0     H11326   0.493   9.405   3.142  1.0239 -0.1168 -2.0191
   84MOL0     H11327   0.261   9.405   3.136 -0.6699  0.1908 -1.0438
   84MOL0     H11328   0.040   9.795   3.193  1.1195  0.3138  1.4533
   84MOL0     H11329   0.086   9.688   3.320  0.9233  1.5173 -0.1168
   84MOL0     H11330  -0.190   9.634   3.189 -2.3253 -1.4383  2.9856
   84MOL0     H11331  -0.134   9.679   3.345  1.5009 -0.3816 -1.2051
   84MOL0     H11332   0.006   9.475   3.358 -2.9759  0.5188  2.9803
   84MOL0     H11333  -0.052   9.443   3.188  1.4431 -2.4332  0.4996
   84MOL0     H11334  -0.220   9.408   3.452 -0.8487  1.2041  0.9314
   84MOL0     H11335  -0.299   9.432   3.299 -0.1040 -3.4710 -1.2748
   84MOL0     H11336  -0.131   9.055   3.241  0.0979 -0.2790 -1.8711
   84MOL0     H11337   0.271   9.845   3.152  0.8362  0.7831  3.3927
   84MOL0     H11338   0.447   9.967   3.131 -0.6964 -0.2292  0.6818
   84MOL0     H11339   0.609   9.893   3.155 -0.1228 -0.0970  0.7569
   84MOL0     H11340   0.532   9.893   3.001 -0.7340 -0.6907 -0.6193
   85MOL0     O11341   2.257   2.934   6.495  0.2845 -0.2116 -0.2724
   85MOL0     C11342   2.355   2.915   6.562  0.4199  0.4027 -0.6234
   85MOL0     O11343   2.352   2.870   6.687  0.3420 -0.3330 -0.4218
   85MOL0     C11344   2.238   2.805   6.736  0.6929 -0.3053 -0.2876
   85MOL0     C11345   2.181   2.703   6.665  0.0060 -0.7298  0.3793
   85MOL0     C11346   2.090   2.620   6.726  0.7257 -0.6669 -1.0162
   85MOL0     C11347   2.036   2.637   6.851 -0.2937 -0.5221 -0.3281
   85MOL0     O11348   1.941   2.547   6.894 -0.1193  0.0715  0.4419
   85MOL0     C11349   1.954   2.493   7.026  1.1529 -0.5128 -0.5941
   85MOL0     C11350   2.084   2.426   7.059  0.0557 -0.2609 -0.0660
   85MOL0     C11351   2.099   2.357   7.194  0.7992  0.2634 -0.5209
   85MOL0     C11352   2.203   2.422   7.282  0.5073  0.1636  0.0154
   85MOL0     C11353   2.184   2.373   7.432  1.0866 -0.5600  0.3950
   85MOL0     C11354   2.198   2.226   7.451 -0.6184 -0.1207  0.0220
   85MOL0     C11355   2.252   2.214   7.592  0.1597 -0.2213 -0.1106
   85MOL0     C11356   2.258   2.067   7.621  0.8713  0.3375 -0.5408
   85MOL0     N11357   2.347   2.058   7.742  0.4244 -0.0379 -0.3940
   85MOL0     C11358   2.479   2.068   7.748 -0.0053  1.2149  0.6013
   85MOL0     C11359   2.503   2.045   7.883 -0.3843  0.1302  0.1343
   85MOL0     C11360   2.628   2.027   7.953  0.3098 -0.2117 -0.7123
   85MOL0     C11361   2.659   1.883   7.935 -0.7573 -0.0490 -0.3128
   85MOL0     C11362   2.712   1.841   7.795 -0.1459  0.0509  0.3458
   85MOL0     C11363   2.861   1.870   7.788 -0.6020  0.3421  0.6318
   85MOL0     O11364   2.921   1.806   7.672 -0.1001  0.0127  0.4118
   85MOL0     C11365   3.049   1.845   7.638  0.2203 -1.0402  0.6868
   85MOL0     C11366   3.092   1.812   7.512  0.7415  0.2279 -0.7747
   85MOL0     C11367   3.225   1.855   7.469 -0.4160  0.4705 -0.3885
   85MOL0     C11368   3.306   1.926   7.562 -1.0303  0.3616  0.1703
   85MOL0     C11369   3.439   1.969   7.512 -0.2127  0.1516  0.7708
   85MOL0     O11370   3.518   2.043   7.597 -0.1317  1.3803 -0.3601
   85MOL0     C11371   3.634   2.088   7.542  1.3417 -0.3069  0.3057
   85MOL0     C11372   3.739   1.996   7.507 -0.4707  0.0323  0.4819
   85MOL0     C11373   3.858   2.053   7.441  0.4019  0.1152 -0.1550
   85MOL0     C11374   3.876   2.193   7.448 -0.1702  0.7423  0.1442
   85MOL0     O11375   4.002   2.239   7.410 -0.3588  0.2523  0.0792
   85MOL0     C11376   4.020   2.374   7.394 -0.7424  0.0862  0.4223
   85MOL0     C11377   4.171   2.402   7.391  0.8038 -0.0935 -0.0727
   85MOL0     C11378   4.207   2.532   7.320  0.7136 -0.8489 -0.4425
   85MOL0     C11379   4.194   2.507   7.166 -0.4222  0.5082 -0.8649
   85MOL0     C11380   4.212   2.628   7.071 -0.1302 -0.0000 -0.0411
   85MOL0     C11381   4.247   2.567   6.936 -0.4907  0.4337 -0.1704
   85MOL0     C11382   4.233   2.672   6.818 -0.0623  0.0572 -0.2029
   85MOL0     C11383   4.294   2.808   6.840 -0.3793 -0.7004  0.1857
   85MOL0    Cl11384   4.324   2.895   6.674  0.3273  0.4663  0.0174
   85MOL0     C11385   3.774   2.273   7.498  0.2123  0.2143  0.5744
   85MOL0     C11386   3.648   2.225   7.527 -0.0770  0.3208 -0.0940
   85MOL0     O11387   3.469   1.931   7.394 -0.2366  0.3619 -1.4559
   85MOL0     C11388   3.266   1.949   7.693 -0.2775 -0.0961  0.4503
   85MOL0     C11389   3.136   1.909   7.729 -0.1733 -1.4105 -0.4418
   85MOL0     N11390   2.388   2.032   7.955  0.2968  0.0375  0.8079
   85MOL0     N11391   2.294   2.038   7.865 -0.5677  0.2744 -0.4150
   85MOL0     C11392   2.101   2.737   6.928 -0.0686 -0.0470 -0.4033
   85MOL0     C11393   2.199   2.818   6.875  0.2102 -1.1291  0.4924
   85MOL0     C11394   2.503   2.949   6.513  0.7740 -0.9617  0.0358
   85MOL0     C11395   2.610   2.954   6.599  0.5958  0.1866  0.1830
   85MOL0     C11396   2.734   2.992   6.550 -0.0255 -0.6285  0.0408
   85MOL0     C11397   2.768   3.013   6.413 -0.4511  0.6520  0.1315
   85MOL0     O11398   2.901   3.037   6.382  0.6423 -0.1909  0.0646
   85MOL0     C11399   2.945   3.049   6.248  0.4305  0.6077 -0.1513
   85MOL0     C11400   3.095   3.040   6.229 -0.5920 -0.9503  0.1828
   85MOL0     C11401   3.132   2.882   6.248  0.5506 -1.0267  0.0144
   85MOL0     C11402   3.269   2.857   6.182  0.5087  0.2648  0.1891
   85MOL0     C11403   3.373   2.926   6.254 -0.4211  1.0655 -0.3698
   85MOL0     C11404   3.469   2.994   6.291 -0.3615 -0.5749  0.1352
   85MOL0     C11405   2.658   3.003   6.329 -0.2808 -0.0180 -0.3179
   85MOL0     C11406   2.531   2.973   6.373  0.4495 -0.1658  0.4459
   85MOL0     C11407   2.426   2.961   6.269 -0.0872 -0.8072  0.9094
   85MOL0     H11408   2.227   2.685   6.568 -1.7093 -0.3483 -0.5438
   85MOL0     H11409   2.057   2.537   6.665 -1.2657 -0.8552  0.2593
   85MOL0     H11410   1.932   2.570   7.100  2.6718  0.2087 -0.8433
   85MOL0     H11411   1.871   2.422   7.030 -2.2618  3.2416  0.4601
   85MOL0     H11412   2.159   2.504   7.045  0.3918 -0.2659  1.4424
   85MOL0     H11413   2.103   2.339   6.995  1.9083  0.4388 -0.5401
   85MOL0     H11414   2.118   2.250   7.183  0.9288  0.2238  0.0465
   85MOL0     H11415   2.006   2.364   7.250 -0.3427  1.7648 -2.4832
   85MOL0     H11416   2.300   2.389   7.245 -0.4037 -1.3922 -1.0820
   85MOL0     H11417   2.188   2.530   7.287  0.9066  0.3715 -2.2334
   85MOL0     H11418   2.264   2.423   7.487 -1.8012  2.8162  1.9291
   85MOL0     H11419   2.091   2.409   7.477  0.4384 -0.8701 -0.6566
   85MOL0     H11420   2.102   2.173   7.443  0.9847 -3.0797 -1.1277
   85MOL0     H11421   2.266   2.173   7.383  0.8877  1.1013  0.5235
   85MOL0     H11422   2.177   2.258   7.658 -1.9955 -0.9972 -1.9189
   85MOL0     H11423   2.350   2.261   7.605 -0.0504 -0.4208  2.7807
   85MOL0     H11424   2.156   2.034   7.641  0.5917  0.7842 -1.1999
   85MOL0     H11425   2.286   2.003   7.536  1.4713 -1.4644  0.9386
   85MOL0     H11426   2.533   2.079   7.654 -2.9347  1.8903 -1.1498
   85MOL0     H11427   2.700   2.097   7.910 -0.0880 -0.3087 -1.5682
   85MOL0     H11428   2.608   2.060   8.055  1.1517  0.8518 -0.8719
   85MOL0     H11429   2.732   1.856   8.012 -1.2684  1.1527  0.6151
   85MOL0     H11430   2.567   1.825   7.948 -0.1432 -0.3368  4.1049
   85MOL0     H11431   2.654   1.900   7.723 -1.5455 -0.8424  0.6895
   85MOL0     H11432   2.701   1.733   7.786  0.6570 -0.0051 -0.0179
   85MOL0     H11433   2.914   1.834   7.877  0.5661 -2.5251 -1.0818
   85MOL0     H11434   2.878   1.978   7.785  0.8189  0.1358  1.0148
   85MOL0     H11435   3.022   1.748   7.459  0.4409 -0.6144  0.5767
   85MOL0     H11436   3.262   1.836   7.369 -1.2045  2.1519 -1.0238
   85MOL0     H11437   3.750   1.889   7.518  5.1884  0.3006  0.4916
   85MOL0     H11438   3.935   1.988   7.402 -1.1491 -2.2885  0.5807
   85MOL0     H11439   3.983   2.395   7.293 -0.3376  0.4780  0.3495
   85MOL0     H11440   3.992   2.444   7.473  0.6773  0.9572  0.1990
   85MOL0     H11441   4.213   2.405   7.492  0.7317  1.8163 -0.0608
   85MOL0     H11442   4.218   2.315   7.344 -3.1311 -1.9684 -0.9648
   85MOL0     H11443   4.141   2.611   7.354 -0.6406 -1.9911 -0.3332
   85MOL0     H11444   4.310   2.563   7.339  1.4388  0.3862 -5.0938
   85MOL0     H11445   4.096   2.462   7.149 -0.9207  0.7830  1.0843
   85MOL0     H11446   4.276   2.438   7.145 -0.0683  0.6395  0.0359
   85MOL0     H11447   4.294   2.697   7.093 -0.5756  0.5848 -0.1923
   85MOL0     H11448   4.123   2.691   7.059  0.7336  1.7629  2.0662
   85MOL0     H11449   4.346   2.522   6.938 -0.8816 -0.4760  2.1044
   85MOL0     H11450   4.176   2.484   6.929 -1.5713  1.0773  2.1254
   85MOL0     H11451   4.132   2.694   6.783 -0.0888 -0.9131 -0.7977
   85MOL0     H11452   4.275   2.629   6.726  0.0153  1.0452 -0.6467
   85MOL0     H11453   4.234   2.874   6.904 -0.0228 -0.5396  0.3555
   85MOL0     H11454   4.389   2.796   6.894 -1.8053 -2.3336  2.5485
   85MOL0     H11455   3.795   2.376   7.524  0.6615  0.3298 -0.2028
   85MOL0     H11456   3.571   2.301   7.542 -2.0293 -0.9650 -2.6911
   85MOL0     H11457   3.341   1.998   7.755  0.9688  1.2970 -2.0091
   85MOL0     H11458   3.097   1.942   7.825 -3.5823 -2.2763 -1.3786
   85MOL0     H11459   2.068   2.749   7.031 -0.0522  0.0442 -0.4090
   85MOL0     H11460   2.247   2.896   6.933 -0.5059  0.8328 -1.4610
   85MOL0     H11461   2.588   2.927   6.702 -1.3081 -1.8531 -0.6774
   85MOL0     H11462   2.812   2.982   6.625  0.8621  1.2862 -0.5520
   85MOL0     H11463   2.900   3.146   6.222 -0.0198  0.6365  0.7002
   85MOL0     H11464   2.905   2.973   6.180  1.8268 -2.6827  2.4706
   85MOL0     H11465   3.138   3.105   6.306 -0.0564 -3.4090  2.0865
   85MOL0     H11466   3.115   3.071   6.126  1.1103 -0.9356  0.4788
   85MOL0     H11467   3.052   2.820   6.205  1.7194 -1.4940 -1.5882
   85MOL0     H11468   3.146   2.863   6.355  0.6410  0.3352  0.2557
   85MOL0     H11469   3.294   2.751   6.191 -0.2771  0.1722  1.4439
   85MOL0     H11470   3.265   2.897   6.080  1.6828  1.0238  0.4093
   85MOL0     H11471   3.556   3.053   6.311 -1.4714  1.4623 -0.7063
   85MOL0     H11472   2.670   3.014   6.221 -0.9032 -2.2006 -0.6678
   85MOL0     H11473   2.368   3.052   6.253 -1.0488 -1.2004  2.0840
   85MOL0     H11474   2.460   2.940   6.167 -1.7200  1.3345 -0.1598
   85MOL0     H11475   2.359   2.877   6.289  0.2261 -1.3996 -0.3852
   86MOL0     O11476   4.221   5.155   9.905 -0.3698  0.2163 -0.3963
   86MOL0     C11477   4.165   5.258   9.861 -0.0722  0.1411 -0.6612
   86MOL0     O11478   4.222   5.350   9.781 -1.1199 -0.3562  0.7708
   86MOL0     C11479   4.367   5.347   9.781 -0.3755 -0.4337  0.9189
   86MOL0     C11480   4.441   5.444   9.854  0.0818 -0.4846  0.2577
   86MOL0     C11481   4.583   5.449   9.861  0.5729  0.9520  0.2733
   86MOL0     C11482   4.649   5.357   9.785  0.8506 -1.3963 -0.5151
   86MOL0     O11483   4.778   5.359   9.790 -0.5595 -0.7737 -0.5898
   86MOL0     C11484   4.848   5.244   9.742 -0.6928  0.4741 -0.0279
   86MOL0     C11485   4.990   5.266   9.803 -1.6109  0.5570  0.1894
   86MOL0     C11486   5.057   5.134   9.781 -0.0573 -0.8269 -0.2483
   86MOL0     C11487   5.211   5.163   9.758  0.2818  1.1325 -0.4934
   86MOL0     C11488   5.274   5.026   9.716  0.0647 -0.5589  0.9218
   86MOL0     C11489   5.251   4.973   9.570 -0.7307 -0.2482  0.0286
   86MOL0     C11490   5.352   4.871   9.523  0.3231 -0.9330  0.2914
   86MOL0     C11491   5.295   4.783   9.410 -0.0627  0.6307 -0.1436
   86MOL0     N11492   5.402   4.706   9.345 -0.0943  0.8521 -0.1076
   86MOL0     C11493   5.464   4.726   9.221 -0.0845  0.5590 -0.0376
   86MOL0     C11494   5.568   4.643   9.230 -0.7372  0.4634  0.9707
   86MOL0     C11495   5.659   4.618   9.118 -0.3581  0.9562 -0.3551
   86MOL0     C11496   5.769   4.725   9.119 -0.5531 -0.2275 -0.4869
   86MOL0     C11497   5.881   4.692   9.021  0.0261  0.1061 -0.1740
   86MOL0     C11498   5.997   4.775   9.045  0.1992 -0.1841  0.7669
   86MOL0     O11499   6.099   4.720   8.965  1.5520  0.1090  0.6564
   86MOL0     C11500   6.182   4.810   8.914 -0.7818 -0.3491  0.3970
   86MOL0     C11501   6.172   4.860   8.783  0.1833  0.1471  0.1775
   86MOL0     C11502   6.258   4.966   8.741  0.3578 -0.6417 -1.1926
   86MOL0     C11503   6.364   5.004   8.829 -0.5589 -0.4111 -0.5400
   86MOL0     C11504   6.476   5.093   8.780  0.1181 -0.3770  0.8469
   86MOL0     O11505   6.574   5.131   8.865  0.3029  0.0245  0.3265
   86MOL0     C11506   6.680   5.192   8.812 -0.5811  1.0712 -0.2891
   86MOL0     C11507   6.678   5.309   8.752  0.7286  0.1399  0.6856
   86MOL0     C11508   6.795   5.371   8.707 -0.3331  0.0800 -0.5566
   86MOL0     C11509   6.921   5.310   8.733  0.3838 -0.5227  0.2156
   86MOL0     O11510   7.033   5.366   8.687 -0.0512  0.5943 -0.1982
   86MOL0     C11511   7.048   5.501   8.628  0.6245  0.2522  0.2180
   86MOL0     C11512   7.183   5.558   8.641 -0.0214 -0.4895  0.5583
   86MOL0     C11513   7.252   5.494   8.765  0.3793  0.5719  0.6072
   86MOL0     C11514   7.388   5.542   8.795 -0.1771 -0.7312 -0.2921
   86MOL0     C11515   7.389   5.693   8.847 -0.0479  0.6340  0.8344
   86MOL0     C11516   7.521   5.729   8.923  1.1348 -0.5649 -0.0544
   86MOL0     C11517   7.639   5.712   8.826 -0.0829 -0.5812  0.3160
   86MOL0     C11518   7.626   5.824   8.713  0.3340  0.6453 -0.3135
   86MOL0    Cl11519   7.528   5.769   8.563 -0.0326  0.0599  0.4900
   86MOL0     C11520   6.927   5.194   8.810 -0.7766  0.7031 -0.6187
   86MOL0     C11521   6.808   5.135   8.847  0.6645  0.7462  0.0576
   86MOL0     O11522   6.479   5.109   8.656 -0.5230  0.9023 -0.2203
   86MOL0     C11523   6.378   4.938   8.950 -1.3750 -0.1986  0.6211
   86MOL0     C11524   6.282   4.850   8.993 -0.5158  0.1091 -1.4082
   86MOL0     N11525   5.577   4.579   9.349 -0.1041  0.0049 -0.3460
   86MOL0     N11526   5.471   4.605   9.409 -0.4985 -0.4320  0.5238
   86MOL0     C11527   4.579   5.270   9.695  0.2598  0.4465 -0.2767
   86MOL0     C11528   4.437   5.262   9.696 -0.6704 -0.0250  0.8414
   86MOL0     C11529   4.017   5.268   9.878 -0.4707  0.0682  0.0093
   86MOL0     C11530   3.932   5.359   9.800 -0.6635  0.3286  0.5010
   86MOL0     C11531   3.806   5.391   9.842  0.5536 -0.1127  0.8434
   86MOL0     C11532   3.752   5.348   9.955 -0.0859 -0.0809 -0.5537
   86MOL0     O11533   3.627   5.386   9.996 -0.5433  0.3743  0.7172
   86MOL0     C11534   3.533   5.451   9.902  0.3870 -0.1753  0.2536
   86MOL0     C11535   3.387   5.425   9.942 -0.0849 -0.0179 -1.1705
   86MOL0     C11536   3.374   5.447  10.099  0.1524 -0.2829 -0.5818
   86MOL0     C11537   3.432   5.575  10.169  0.6984  0.5326  0.4494
   86MOL0     C11538   3.349   5.622  10.281  0.2679  0.0903  0.3536
   86MOL0     C11539   3.263   5.645  10.367  0.3481 -0.0344 -0.3025
   86MOL0     C11540   3.821   5.260  10.025 -0.4544 -0.5778 -0.3501
   86MOL0     C11541   3.961   5.224  10.004  0.6362  0.0868 -0.0782
   86MOL0     C11542   4.024   5.131  10.105  0.1975  0.2615  0.2659
   86MOL0     H11543   4.382   5.514   9.913  0.0384  0.5346 -0.9764
   86MOL0     H11544   4.644   5.519   9.918 -1.7928  0.7868  3.3137
   86MOL0     H11545   4.816   5.154   9.795  0.0670  1.2665  1.8540
   86MOL0     H11546   4.855   5.229   9.634  1.4389  0.2612  0.0966
   86MOL0     H11547   4.987   5.290   9.910  0.4718  0.4225  0.3031
   86MOL0     H11548   5.045   5.351   9.762  0.2084 -1.5704 -2.0451
   86MOL0     H11549   5.024   5.088   9.687 -0.8268  1.3576 -1.1246
   86MOL0     H11550   5.025   5.070   9.863  0.0412  1.8136  2.0094
   86MOL0     H11551   5.234   5.248   9.693  0.3635  2.2035  0.8923
   86MOL0     H11552   5.255   5.195   9.853  0.7541  0.5132 -0.4958
   86MOL0     H11553   5.382   5.025   9.730  0.2310  0.6435 -0.0414
   86MOL0     H11554   5.237   4.940   9.772  2.2568 -2.5234 -0.4570
   86MOL0     H11555   5.146   4.941   9.575 -0.7172 -0.2878  0.0638
   86MOL0     H11556   5.249   5.061   9.505 -0.4836  2.3152  3.2500
   86MOL0     H11557   5.383   4.815   9.612  0.8524  0.6623  1.1608
   86MOL0     H11558   5.444   4.920   9.491  0.6742 -0.0961  2.3921
   86MOL0     H11559   5.224   4.714   9.458  2.2530 -0.5225  1.8638
   86MOL0     H11560   5.239   4.835   9.332 -0.6482 -0.1030 -0.2268
   86MOL0     H11561   5.436   4.792   9.140  0.0863  0.0701 -0.4967
   86MOL0     H11562   5.697   4.520   9.149  2.0227  2.4703  2.0601
   86MOL0     H11563   5.612   4.614   9.020 -0.7908 -3.7370 -0.1726
   86MOL0     H11564   5.722   4.822   9.098 -3.3099 -1.0483  1.3046
   86MOL0     H11565   5.807   4.726   9.222 -3.0552  0.4643  0.5229
   86MOL0     H11566   5.842   4.695   8.919 -2.8271  2.3544  0.8285
   86MOL0     H11567   5.909   4.589   9.046 -0.9833  0.7218  4.1920
   86MOL0     H11568   6.022   4.774   9.151 -1.1201 -0.6095  1.0840
   86MOL0     H11569   5.982   4.878   9.011  1.1939 -0.4631 -0.6014
   86MOL0     H11570   6.101   4.815   8.715  0.1268  0.6141 -0.0731
   86MOL0     H11571   6.254   4.997   8.637  0.0058  4.2101  0.0356
   86MOL0     H11572   6.591   5.367   8.725  1.8528  1.5708 -0.0124
   86MOL0     H11573   6.798   5.462   8.649  0.8807 -1.0847 -2.4367
   86MOL0     H11574   7.019   5.504   8.523  2.7067 -2.6816 -0.5636
   86MOL0     H11575   6.982   5.565   8.688 -2.2427 -3.3661  1.2966
   86MOL0     H11576   7.246   5.519   8.560  0.4401 -0.6162  0.9728
   86MOL0     H11577   7.183   5.667   8.628 -1.4461 -0.2714  2.1160
   86MOL0     H11578   7.187   5.507   8.852 -0.5762  0.4200 -0.0745
   86MOL0     H11579   7.258   5.387   8.743 -1.5227  0.6942 -0.7883
   86MOL0     H11580   7.451   5.526   8.707 -2.6731  0.8015 -2.4767
   86MOL0     H11581   7.416   5.480   8.881 -2.2989 -3.0657 -1.1792
   86MOL0     H11582   7.308   5.705   8.919 -1.3577  0.2897 -0.5193
   86MOL0     H11583   7.374   5.764   8.765  1.0348  0.3892  0.4106
   86MOL0     H11584   7.515   5.830   8.966  0.1046 -0.9303  0.7130
   86MOL0     H11585   7.531   5.655   9.003  0.2859 -2.5755 -1.7448
   86MOL0     H11586   7.649   5.622   8.765 -1.3323  1.6751 -3.5771
   86MOL0     H11587   7.732   5.735   8.880  0.3304 -0.6984 -0.3261
   86MOL0     H11588   7.596   5.920   8.754 -0.5516 -0.7540  2.6017
   86MOL0     H11589   7.725   5.829   8.667 -0.1805  0.0557 -1.5493
   86MOL0     H11590   7.018   5.144   8.842 -0.7226  0.1512 -1.5873
   86MOL0     H11591   6.797   5.044   8.906  2.3025 -0.1171 -0.8750
   86MOL0     H11592   6.472   4.957   9.000  0.3528 -0.6478 -2.2264
   86MOL0     H11593   6.286   4.796   9.088  1.6675 -1.1129 -2.1271
   86MOL0     H11594   4.636   5.197   9.638  1.0025  0.8323 -0.0404
   86MOL0     H11595   4.385   5.200   9.624  0.3046  0.7548 -0.5977
   86MOL0     H11596   3.979   5.414   9.719  3.6413 -0.1871  2.3836
   86MOL0     H11597   3.761   5.465   9.776  1.5543 -0.8083 -0.6892
   86MOL0     H11598   3.549   5.430   9.796  1.2145  0.5467  0.2183
   86MOL0     H11599   3.542   5.560   9.912 -0.0044 -0.1309  0.1241
   86MOL0     H11600   3.364   5.324   9.907  1.0449 -0.0355 -1.9069
   86MOL0     H11601   3.328   5.503   9.891 -0.9862  0.4677  0.5499
   86MOL0     H11602   3.413   5.361  10.153 -1.7097  0.0325  1.4015
   86MOL0     H11603   3.268   5.447  10.127 -0.3931  2.9867 -2.2088
   86MOL0     H11604   3.537   5.558  10.197  0.5554  1.0927  1.3639
   86MOL0     H11605   3.433   5.654  10.094 -1.9093  0.3834  0.1735
   86MOL0     H11606   3.181   5.660  10.434 -1.2440 -1.0571 -1.9274
   86MOL0     H11607   3.772   5.216  10.111 -0.2061  0.7168  0.4882
   86MOL0     H11608   3.966   5.125  10.197  0.2151 -2.4409  0.1846
   86MOL0     H11609   4.030   5.034  10.055 -1.8305  0.2948 -0.0962
   86MOL0     H11610   4.121   5.162  10.146  0.6494 -2.1442  1.1958
   87MOL0     O11611   4.891   0.200   8.854 -0.1671  0.5210 -0.6180
   87MOL0     C11612   4.871   0.228   8.736  0.2991  1.0054 -0.6188
   87MOL0     O11613   4.958   0.290   8.653  0.5008  0.0802 -0.3386
   87MOL0     C11614   5.083   0.290   8.691  0.5646  0.2524  0.0497
   87MOL0     C11615   5.157   0.171   8.730  0.4576  0.7431 -0.2039
   87MOL0     C11616   5.290   0.177   8.776  0.6756 -0.1334  0.4294
   87MOL0     C11617   5.343   0.300   8.802  0.0346  0.5350 -0.4415
   87MOL0     O11618   5.459   0.329   8.857  0.4639  0.7513 -0.1202
   87MOL0     C11619   5.545   0.218   8.879 -0.1153 -0.2025  1.0993
   87MOL0     C11620   5.684   0.255   8.934 -0.4049  0.1057  0.8582
   87MOL0     C11621   5.770   0.131   8.955  0.2741  0.0756  0.3074
   87MOL0     C11622   5.896   0.152   9.036 -0.3232 -0.9114  0.2244
   87MOL0     C11623   5.998   0.222   8.940  0.0221 -0.7047  0.6781
   87MOL0     C11624   6.127   0.261   9.015  0.2667  0.2277  0.1843
   87MOL0     C11625   6.216   0.362   8.941  0.2720 -0.8978 -0.0257
   87MOL0     C11626   6.360   0.367   9.017 -0.0769 -0.2370  0.0106
   87MOL0     N11627   6.449   0.249   8.995  0.7459  0.0665 -0.6332
   87MOL0     C11628   6.521   0.234   8.883 -0.4439 -0.3701  0.6170
   87MOL0     C11629   6.595   0.119   8.891 -0.0811  0.2985 -0.0932
   87MOL0     C11630   6.681   0.056   8.786  0.2589 -1.0253  0.2420
   87MOL0     C11631   6.818   0.130   8.774  1.2701  0.2086  0.1039
   87MOL0     C11632   6.921   0.117   8.891  0.5855  0.2111  0.3489
   87MOL0     C11633   7.054   0.155   8.844  0.1630  0.0491  0.0825
   87MOL0     O11634   7.082   0.296   8.836 -0.4156  0.3493  0.1952
   87MOL0     C11635   7.204   0.327   8.781 -0.0884 -0.9396 -0.3052
   87MOL0     C11636   7.321   0.239   8.777  0.1128 -0.2210  0.3727
   87MOL0     C11637   7.442   0.290   8.720  0.0503 -0.4188  1.0838
   87MOL0     C11638   7.451   0.426   8.674  0.0231  1.7467 -0.9538
   87MOL0     C11639   7.579   0.481   8.623 -0.1770 -0.5078  0.2652
   87MOL0     O11640   7.578   0.616   8.582  1.0614 -0.2344  0.3407
   87MOL0     C11641   7.695   0.664   8.520  0.2729  0.3571  0.1031
   87MOL0     C11642   7.769   0.762   8.591  0.9754  1.9627 -0.8820
   87MOL0     C11643   7.882   0.818   8.544 -0.1467  0.5000  0.5682
   87MOL0     C11644   7.943   0.771   8.421 -1.3351 -0.2211  0.6332
   87MOL0     O11645   8.054   0.817   8.363 -0.5991  0.7455  0.6388
   87MOL0     C11646   8.154   0.880   8.435 -0.2855 -0.0608 -0.3345
   87MOL0     C11647   8.275   0.926   8.356  0.1840  0.0369 -0.0699
   87MOL0     C11648   8.351   0.796   8.327 -1.4491 -0.1149  0.5214
   87MOL0     C11649   8.436   0.754   8.445 -0.9819 -0.0186  0.0625
   87MOL0     C11650   8.473   0.617   8.433 -0.0000  0.3927 -0.0193
   87MOL0     C11651   8.554   0.559   8.552  0.1612  0.6199  0.7062
   87MOL0     C11652   8.473   0.542   8.682 -0.7914  0.5525  0.3995
   87MOL0     C11653   8.572   0.506   8.796  0.1945 -0.2407  0.6882
   87MOL0    Cl11654   8.632   0.325   8.770 -0.3909 -0.3138 -0.1256
   87MOL0     C11655   7.871   0.678   8.349  0.2417  0.4450  0.2789
   87MOL0     C11656   7.743   0.634   8.392 -0.6707  0.5624 -0.0806
   87MOL0     O11657   7.672   0.404   8.611  0.9179 -0.2608 -0.4477
   87MOL0     C11658   7.341   0.512   8.697  0.6691  0.6122  0.1336
   87MOL0     C11659   7.220   0.460   8.746 -0.6402 -0.3240  1.0895
   87MOL0     N11660   6.576   0.075   9.020 -0.3531  0.1570 -0.2050
   87MOL0     N11661   6.490   0.151   9.079  0.4318  0.3748 -0.4605
   87MOL0     C11662   5.281   0.412   8.768  0.4823 -0.8486 -0.0653
   87MOL0     C11663   5.150   0.415   8.719 -0.0050 -0.1983 -0.0312
   87MOL0     C11664   4.735   0.200   8.681 -0.2345 -0.1285 -1.2307
   87MOL0     C11665   4.698   0.263   8.563 -0.3800 -0.3173 -0.4868
   87MOL0     C11666   4.572   0.261   8.509 -0.0032  0.2059 -0.1550
   87MOL0     C11667   4.474   0.184   8.579  1.0371  0.5640  0.3501
   87MOL0     O11668   4.352   0.166   8.517  0.0695  0.3844  0.7573
   87MOL0     C11669   4.251   0.260   8.552  0.6045 -0.7700 -0.4824
   87MOL0     C11670   4.151   0.275   8.428  0.5256 -0.1820 -0.0847
   87MOL0     C11671   4.090   0.139   8.396  0.2586 -0.2884  0.6984
   87MOL0     C11672   3.969   0.152   8.299  0.2265  0.6127 -0.3774
   87MOL0     C11673   4.001   0.246   8.194 -0.4105  0.3722  0.1913
   87MOL0     C11674   4.027   0.330   8.115 -0.1342 -0.5236  0.6098
   87MOL0     C11675   4.504   0.122   8.696 -1.1201 -0.1515  0.6144
   87MOL0     C11676   4.634   0.129   8.744 -0.2714 -0.5102  0.2567
   87MOL0     C11677   4.639   0.077   8.882 -0.4777  0.1656  0.2729
   87MOL0     H11678   5.115   0.075   8.700 -1.5263  2.2247 -2.4866
   87MOL0     H11679   5.333   0.078   8.787 -0.5114 -0.6811  0.2719
   87MOL0     H11680   5.506   0.139   8.944  1.2299 -0.4937  1.5912
   87MOL0     H11681   5.573   0.176   8.782  2.5060  4.6946 -0.6002
   87MOL0     H11682   5.674   0.302   9.032  0.1729  2.1951 -0.0347
   87MOL0     H11683   5.735   0.326   8.869 -1.6531  2.1705  2.0241
   87MOL0     H11684   5.789   0.109   8.849 -0.8164  0.8119 -0.0523
   87MOL0     H11685   5.724   0.049   9.010 -0.1843  0.6433  0.7852
   87MOL0     H11686   5.879   0.205   9.130 -2.4118  0.9780 -1.1294
   87MOL0     H11687   5.946   0.056   9.055 -1.3777 -1.7648 -1.1840
   87MOL0     H11688   6.020   0.157   8.855 -1.8285 -2.7672  1.6914
   87MOL0     H11689   5.945   0.311   8.904  0.3059 -0.9959 -0.5131
   87MOL0     H11690   6.088   0.290   9.113 -0.3934 -1.7929  0.5679
   87MOL0     H11691   6.170   0.160   9.026 -1.4760 -0.7192 -1.1855
   87MOL0     H11692   6.172   0.462   8.946  0.9314 -0.6653  3.2310
   87MOL0     H11693   6.227   0.328   8.837  0.7882 -0.7123 -0.0343
   87MOL0     H11694   6.419   0.456   8.994  2.1098 -1.8321 -0.8549
   87MOL0     H11695   6.331   0.369   9.123  1.9399  0.1412  0.5908
   87MOL0     H11696   6.516   0.294   8.792 -1.0850 -3.0552 -1.2314
   87MOL0     H11697   6.690  -0.050   8.814  2.4979 -0.6922  0.9210
   87MOL0     H11698   6.624   0.064   8.693 -1.8348 -0.0822  1.5178
   87MOL0     H11699   6.859   0.087   8.682 -0.2343 -1.4265  0.1171
   87MOL0     H11700   6.803   0.237   8.760  3.8690  0.9729  2.4979
   87MOL0     H11701   6.922   0.012   8.924  0.7170  0.8817  2.6546
   87MOL0     H11702   6.885   0.183   8.970  2.5613  2.6374 -0.6797
   87MOL0     H11703   7.078   0.117   8.745  2.2758  1.5514 -0.0478
   87MOL0     H11704   7.119   0.108   8.918 -0.5973 -1.1016  0.0510
   87MOL0     H11705   7.316   0.142   8.825 -0.4423  0.3027  1.3961
   87MOL0     H11706   7.526   0.223   8.702  1.8187  2.1508 -0.9253
   87MOL0     H11707   7.721   0.807   8.678  0.0248  1.8701 -1.3377
   87MOL0     H11708   7.923   0.905   8.595 -2.0077  1.3367  0.7223
   87MOL0     H11709   8.114   0.968   8.485  1.7045  0.4513  0.4462
   87MOL0     H11710   8.188   0.817   8.517 -3.4617 -0.0730  1.1045
   87MOL0     H11711   8.242   0.970   8.261  0.7716 -2.0490 -1.3051
   87MOL0     H11712   8.331   1.002   8.411 -0.9238  0.1732  0.8972
   87MOL0     H11713   8.284   0.719   8.289 -1.2063 -0.0555 -0.0478
   87MOL0     H11714   8.418   0.818   8.243  0.3435  0.4892  2.0362
   87MOL0     H11715   8.385   0.756   8.541  1.2786 -1.6657  1.3929
   87MOL0     H11716   8.527   0.814   8.443 -0.3439 -0.9602  0.2460
   87MOL0     H11717   8.531   0.606   8.340  0.6561  0.7220  0.3398
   87MOL0     H11718   8.383   0.556   8.427  0.5593 -1.0907  3.9071
   87MOL0     H11719   8.577   0.456   8.521 -1.1901  0.1744  1.1121
   87MOL0     H11720   8.646   0.617   8.560  1.5387 -1.1195 -1.3216
   87MOL0     H11721   8.384   0.479   8.675 -0.8859  0.8767 -3.0510
   87MOL0     H11722   8.441   0.643   8.710  2.6898  1.8086  0.3798
   87MOL0     H11723   8.654   0.579   8.795  1.5891 -1.7180 -1.7535
   87MOL0     H11724   8.511   0.520   8.886  0.5190  0.1985  0.8443
   87MOL0     H11725   7.915   0.649   8.254 -1.2472  2.7186 -1.2129
   87MOL0     H11726   7.674   0.571   8.336  0.2723 -0.9345  0.3632
   87MOL0     H11727   7.327   0.616   8.670 -0.1370  0.5216  0.1567
   87MOL0     H11728   7.134   0.526   8.747  0.9948  1.9952 -0.3948
   87MOL0     H11729   5.330   0.507   8.785  0.0774 -0.8909  1.4743
   87MOL0     H11730   5.088   0.494   8.678 -0.2473 -0.7451 -0.7390
   87MOL0     H11731   4.773   0.317   8.507  0.0103 -0.7524 -0.3949
   87MOL0     H11732   4.558   0.317   8.417  1.1115 -0.4832 -0.7687
   87MOL0     H11733   4.303   0.357   8.558  0.2625 -0.5678 -0.7276
   87MOL0     H11734   4.210   0.239   8.651  2.1091 -3.2117 -0.2869
   87MOL0     H11735   4.209   0.317   8.345  2.9012 -2.1192  0.4963
   87MOL0     H11736   4.068   0.339   8.461 -0.7889 -2.0625  0.4132
   87MOL0     H11737   4.065   0.083   8.486 -0.1524 -1.8015 -0.3118
   87MOL0     H11738   4.171   0.087   8.344 -1.8983 -0.9965 -2.1714
   87MOL0     H11739   3.946   0.056   8.252 -0.9514 -1.0702  3.2395
   87MOL0     H11740   3.882   0.182   8.359  1.4987  2.5662  0.6109
   87MOL0     H11741   4.028   0.414   8.048  2.8203 -1.0399 -0.1414
   87MOL0     H11742   4.419   0.083   8.752 -1.3724 -1.8053 -0.8519
   87MOL0     H11743   4.627   0.164   8.947 -4.3118  0.8227 -1.0417
   87MOL0     H11744   4.553   0.014   8.903 -1.5667  1.0227 -1.3738
   87MOL0     H11745   4.730   0.018   8.894 -2.3386 -2.4722  2.4312
   88MOL0     O11746   6.851   9.376   8.330 -0.4804  0.3594  0.4203
   88MOL0     C11747   6.934   9.308   8.275  0.8172 -0.1819  0.4795
   88MOL0     O11748   7.049   9.358   8.227  0.1163  0.3374  0.1250
   88MOL0     C11749   7.099   9.479   8.275  0.5317  0.5081 -0.6908
   88MOL0     C11750   7.128   9.503   8.416 -0.4981 -1.2348  0.0115
   88MOL0     C11751   7.181   9.628   8.465  0.0462 -0.7913 -0.0317
   88MOL0     C11752   7.213   9.727   8.369  0.8878  0.5997 -0.1335
   88MOL0     O11753   7.262   9.847   8.404 -0.3024 -0.5714  0.1023
   88MOL0     C11754   7.367   9.852   8.501  0.5684 -0.8892  0.6412
   88MOL0     C11755   7.396  10.004   8.510  0.1698 -0.0074 -0.1157
   88MOL0     C11756   7.274  10.087   8.547 -0.0686  0.5583 -0.8703
   88MOL0     C11757   7.303  10.211   8.622 -1.1380  0.3995 -0.8613
   88MOL0     C11758   7.369  10.319   8.542 -0.1263 -0.2442  0.0629
   88MOL0     C11759   7.407  10.440   8.623 -0.1708 -0.3174  0.2150
   88MOL0     C11760   7.515  10.427   8.727  0.5871  0.3877 -0.1698
   88MOL0     C11761   7.533  10.552   8.809  0.6726  0.3309  0.5704
   88MOL0     N11762   7.629  10.648   8.741 -0.1920  0.5122 -0.3446
   88MOL0     C11763   7.591  10.754   8.659 -0.3257  0.1139 -0.6534
   88MOL0     C11764   7.714  10.824   8.657 -0.2590 -0.0070 -0.7219
   88MOL0     C11765   7.739  10.958   8.583 -0.3624  0.3028  1.0411
   88MOL0     C11766   7.888  10.997   8.562  0.4090  0.9565 -0.4292
   88MOL0     C11767   7.975  10.892   8.492  0.1058 -1.4493  0.4388
   88MOL0     C11768   8.117  10.938   8.477  0.0312  0.0844  0.3839
   88MOL0     O11769   8.137  11.075   8.462  0.5200  0.2691 -0.4263
   88MOL0     C11770   8.263  11.130   8.463  1.6771 -1.1250 -0.3614
   88MOL0     C11771   8.277  11.265   8.442  0.4326  0.2488  1.3872
   88MOL0     C11772   8.406  11.317   8.443 -0.2958 -0.0411 -0.0393
   88MOL0     C11773   8.522  11.237   8.464  0.3911 -0.7564  0.4462
   88MOL0     C11774   8.661  11.290   8.469 -1.5251 -0.0650 -0.0140
   88MOL0     O11775   8.680  11.423   8.429  0.7948  0.2426 -0.5134
   88MOL0     C11776   8.811  11.482   8.415 -0.0078 -0.0924 -0.3482
   88MOL0     C11777   8.942  11.425   8.405 -0.2734  0.0837  0.0538
   88MOL0     C11778   9.058  11.495   8.389 -0.0931 -0.4884  0.4837
   88MOL0     C11779   9.048  11.636   8.378 -0.4848  0.0258 -0.1682
   88MOL0     O11780   9.163  11.711   8.366 -0.5815 -0.2238  0.6144
   88MOL0     C11781   9.288  11.652   8.333 -0.0762 -0.3588 -0.1168
   88MOL0     C11782   9.364  11.765   8.283  0.2575  0.3140  0.4156
   88MOL0     C11783   9.483  11.733   8.201  0.8290  0.0216 -0.0774
   88MOL0     C11784   9.588  11.654   8.267  0.4842 -0.0399 -0.4735
   88MOL0     C11785   9.719  11.652   8.188  0.4335  0.1138 -0.3617
   88MOL0     C11786   9.703  11.572   8.057  0.4634  0.3074 -0.5074
   88MOL0     C11787   9.828  11.547   7.970  0.4860 -0.4125 -0.1339
   88MOL0     C11788   9.955  11.547   8.050 -0.4672  0.2807  0.1634
   88MOL0    Cl11789  10.091  11.572   7.938 -0.2702 -0.4101 -0.1655
   88MOL0     C11790   8.926  11.691   8.389 -0.1782  0.5220 -0.6720
   88MOL0     C11791   8.809  11.616   8.429 -1.0415 -0.3874  1.8033
   88MOL0     O11792   8.747  11.220   8.525 -0.4196  0.9895 -0.5873
   88MOL0     C11793   8.500  11.099   8.488  0.5667  1.0623 -0.1101
   88MOL0     C11794   8.370  11.049   8.489 -0.5303  1.1627 -0.5379
   88MOL0     N11795   7.815  10.768   8.738 -0.3636  0.4077 -0.2304
   88MOL0     N11796   7.760  10.655   8.782 -0.5443  0.8426  0.3505
   88MOL0     C11797   7.185   9.703   8.233  0.1166  0.5318  0.2377
   88MOL0     C11798   7.142   9.573   8.189  0.5708 -1.3883 -0.1137
   88MOL0     C11799   6.904   9.168   8.226  0.8880 -0.1658  0.6124
   88MOL0     C11800   7.005   9.101   8.160  0.0871  0.1514 -0.2508
   88MOL0     C11801   6.986   8.971   8.123  0.0958 -0.1219  0.6323
   88MOL0     C11802   6.874   8.892   8.147 -0.6385 -0.0514 -0.3243
   88MOL0     O11803   6.880   8.753   8.123 -0.1148 -0.5432  0.2891
   88MOL0     C11804   6.758   8.676   8.139 -0.5407 -0.7470 -0.3547
   88MOL0     C11805   6.796   8.531   8.144  0.0354 -0.5719 -0.0609
   88MOL0     C11806   6.694   8.430   8.185 -0.5377  0.0148  0.3751
   88MOL0     C11807   6.598   8.408   8.066  0.5865  0.2582  0.1646
   88MOL0     C11808   6.456   8.391   8.099  0.2958 -0.2540 -0.4267
   88MOL0     C11809   6.347   8.347   8.127 -0.1020  0.7308 -0.4231
   88MOL0     C11810   6.780   8.961   8.215  0.9217  1.0861 -0.3892
   88MOL0     C11811   6.788   9.093   8.255  0.0061  0.3416 -0.9283
   88MOL0     C11812   6.668   9.153   8.326 -0.6201 -0.3376  0.0607
   88MOL0     H11813   7.098   9.431   8.492 -2.3737 -2.4419 -1.7662
   88MOL0     H11814   7.194   9.642   8.572 -1.9531  0.7656  0.0718
   88MOL0     H11815   7.323   9.812   8.592 -3.8024 -0.1618 -0.9283
   88MOL0     H11816   7.459   9.807   8.462 -1.0041 -2.1386 -1.9538
   88MOL0     H11817   7.435  10.048   8.418 -1.1084 -0.4571 -0.8766
   88MOL0     H11818   7.472  10.015   8.589 -1.4471 -1.4326  1.7325
   88MOL0     H11819   7.217  10.028   8.619  2.5178  1.7649  2.4467
   88MOL0     H11820   7.211  10.115   8.463  1.2443 -0.8257 -2.3771
   88MOL0     H11821   7.215  10.251   8.673 -0.8845  2.2027 -1.7484
   88MOL0     H11822   7.373  10.181   8.700 -0.0831  0.1330 -1.8761
   88MOL0     H11823   7.451  10.292   8.475  0.7931 -0.1766  1.1238
   88MOL0     H11824   7.293  10.356   8.472 -2.8670 -0.9895  2.4653
   88MOL0     H11825   7.440  10.518   8.554 -3.6266  0.4467 -0.7819
   88MOL0     H11826   7.321  10.481   8.678  0.1242 -1.8926  1.9253
   88MOL0     H11827   7.615  10.398   8.694  1.0520  1.2652  0.4401
   88MOL0     H11828   7.482  10.348   8.795 -0.4237 -0.7143 -1.8703
   88MOL0     H11829   7.436  10.601   8.808 -0.1352 -1.1905 -0.6483
   88MOL0     H11830   7.558  10.533   8.914 -1.1691  4.2184  1.9058
   88MOL0     H11831   7.492  10.783   8.626 -0.0312  0.5145 -1.1884
   88MOL0     H11832   7.683  10.950   8.490  2.8818 -0.8600 -0.9779
   88MOL0     H11833   7.706  11.051   8.630  0.9627  0.1467  2.3545
   88MOL0     H11834   7.876  11.085   8.498  2.9362 -0.4099 -3.0068
   88MOL0     H11835   7.932  11.024   8.658  1.2546 -2.1909  0.1781
   88MOL0     H11836   7.947  10.877   8.387  4.8696  1.9485 -1.7128
   88MOL0     H11837   7.982  10.793   8.539  0.7245 -1.5328  0.1915
   88MOL0     H11838   8.143  10.884   8.386 -0.1088 -1.3591  1.1763
   88MOL0     H11839   8.182  10.901   8.557  0.6764  2.5735  1.1233
   88MOL0     H11840   8.187  11.320   8.416  2.5855  2.5544 -2.0536
   88MOL0     H11841   8.422  11.424   8.431  0.6514  0.1081  2.0674
   88MOL0     H11842   8.959  11.318   8.406  1.2000 -0.0338 -5.4610
   88MOL0     H11843   9.156  11.448   8.386  0.7773  1.2840 -1.3661
   88MOL0     H11844   9.333  11.619   8.427 -0.3711  3.1908  1.4427
   88MOL0     H11845   9.280  11.573   8.258 -0.2947 -1.9456  1.5001
   88MOL0     H11846   9.304  11.832   8.220  3.1380  2.9583  0.2396
   88MOL0     H11847   9.385  11.828   8.370 -0.5365  1.2564 -0.0550
   88MOL0     H11848   9.444  11.684   8.112 -1.0245  0.5033  0.4337
   88MOL0     H11849   9.528  11.826   8.164  2.2296 -0.8210 -0.5929
   88MOL0     H11850   9.548  11.552   8.264 -1.9497  0.8376  0.0818
   88MOL0     H11851   9.609  11.689   8.369  1.4672  0.7838 -0.9432
   88MOL0     H11852   9.789  11.609   8.260 -1.3170  1.0246  2.0486
   88MOL0     H11853   9.745  11.757   8.167 -0.6083  0.5001  0.1870
   88MOL0     H11854   9.673  11.470   8.083  0.7602  0.1780 -0.6654
   88MOL0     H11855   9.632  11.619   7.987 -0.3814  0.0899  0.1819
   88MOL0     H11856   9.831  11.630   7.898 -0.7082  3.3210  3.7254
   88MOL0     H11857   9.815  11.455   7.912  0.8409 -1.4445  1.3619
   88MOL0     H11858   9.962  11.629   8.122  1.2328  0.5076 -0.2011
   88MOL0     H11859   9.967  11.453   8.104 -2.5753  1.3456  2.6642
   88MOL0     H11860   8.921  11.800   8.384  1.1099  0.6033 -0.4388
   88MOL0     H11861   8.712  11.663   8.433 -1.6749 -1.6997  2.2961
   88MOL0     H11862   8.574  11.026   8.519 -2.3642 -1.3159  1.7773
   88MOL0     H11863   8.367  10.941   8.496  0.4834  1.1798  0.3630
   88MOL0     H11864   7.217   9.779   8.163  4.4267  0.8749  2.2393
   88MOL0     H11865   7.137   9.540   8.086 -0.3354 -2.7578  0.3363
   88MOL0     H11866   7.096   9.144   8.119  0.7999 -1.3800 -0.3296
   88MOL0     H11867   7.054   8.924   8.053 -2.1161 -2.1688 -0.2965
   88MOL0     H11868   6.697   8.702   8.053  1.3801 -3.0643 -2.5821
   88MOL0     H11869   6.715   8.704   8.236 -1.7065 -3.9409  0.1760
   88MOL0     H11870   6.881   8.522   8.211 -0.9923 -0.9303  1.2263
   88MOL0     H11871   6.837   8.510   8.044  4.5086  1.1417  1.1680
   88MOL0     H11872   6.643   8.470   8.273 -1.5659 -0.3188 -0.0545
   88MOL0     H11873   6.735   8.332   8.212 -1.3891 -0.0922  1.3185
   88MOL0     H11874   6.603   8.498   8.004 -1.7433  1.5032  1.6649
   88MOL0     H11875   6.626   8.317   8.011  2.8638  0.8047  0.2943
   88MOL0     H11876   6.248   8.314   8.150  1.5711 -2.6997  3.0771
   88MOL0     H11877   6.699   8.898   8.250  1.9966  0.1341  0.4794
   88MOL0     H11878   6.623   9.242   8.283  0.6731  0.0067 -0.6168
   88MOL0     H11879   6.594   9.072   8.327 -3.6953  2.2393  1.3788
   88MOL0     H11880   6.698   9.183   8.427  1.4485  0.1756 -0.6556
   89MOL0     O11881   3.789   5.583   0.596  0.5562  0.1338  0.0319
   89MOL0     C11882   3.890   5.515   0.567 -0.0150  0.0210 -1.0803
   89MOL0     O11883   3.887   5.402   0.491 -0.1446 -0.1138  0.3084
   89MOL0     C11884   3.764   5.351   0.451 -0.2198 -0.1027  0.1566
   89MOL0     C11885   3.710   5.378   0.336  0.4812 -0.5553  0.0239
   89MOL0     C11886   3.600   5.304   0.284  0.0330  0.2208  0.0194
   89MOL0     C11887   3.547   5.200   0.354 -0.0362 -0.4854 -0.4122
   89MOL0     O11888   3.446   5.135   0.300  0.4459 -0.4490  0.1795
   89MOL0     C11889   3.386   5.017   0.360  0.1772  0.9411 -0.9378
   89MOL0     C11890   3.237   4.983   0.315 -0.8323 -0.4117 -0.3283
   89MOL0     C11891   3.225   4.960   0.163 -0.5634  0.2122  0.1987
   89MOL0     C11892   3.094   4.886   0.123 -0.0323 -0.6733 -0.2805
   89MOL0     C11893   3.125   4.737   0.080  0.2523 -0.7959  0.3054
   89MOL0     C11894   2.998   4.649   0.092  0.3721  0.1227 -0.4497
   89MOL0     C11895   2.878   4.689   0.005 -0.0673  0.0158  0.2734
   89MOL0     C11896   2.907   4.671  -0.147  0.0255  0.5591  0.8049
   89MOL0     N11897   2.796   4.714  -0.229  0.7320  0.3592 -0.2588
   89MOL0     C11898   2.788   4.839  -0.290  0.8797  0.2624 -0.3531
   89MOL0     C11899   2.687   4.829  -0.381  0.8597 -0.0337  0.7220
   89MOL0     C11900   2.635   4.935  -0.474  0.0275  0.2635 -0.2082
   89MOL0     C11901   2.664   4.896  -0.619  0.4744 -0.2134 -0.1964
   89MOL0     C11902   2.577   4.989  -0.706 -0.5403 -0.4771  0.5036
   89MOL0     C11903   2.606   4.982  -0.854 -0.5319  0.6608 -0.2566
   89MOL0     O11904   2.514   5.063  -0.933  0.4139 -0.1069  0.2849
   89MOL0     C11905   2.576   5.137  -1.031  0.9832 -0.8800 -0.0063
   89MOL0     C11906   2.507   5.145  -1.154 -0.1124  0.3529 -0.4205
   89MOL0     C11907   2.565   5.222  -1.257  0.0928  1.2638  0.6585
   89MOL0     C11908   2.679   5.305  -1.242 -0.6305 -0.7073  0.5986
   89MOL0     C11909   2.726   5.398  -1.348 -0.8524 -0.2142 -0.3577
   89MOL0     O11910   2.834   5.474  -1.317 -0.6655 -0.9184 -0.1819
   89MOL0     C11911   2.881   5.569  -1.403 -0.8071 -0.5850 -0.8265
   89MOL0     C11912   3.007   5.610  -1.396  0.4088 -0.3656 -0.1889
   89MOL0     C11913   3.057   5.721  -1.457  0.0676 -0.2822 -0.1664
   89MOL0     C11914   2.975   5.796  -1.537 -0.7606  0.2672 -0.3702
   89MOL0     O11915   3.044   5.895  -1.607  0.0563  0.0431  0.0628
   89MOL0     C11916   2.977   5.948  -1.722 -1.0620 -0.3321 -0.0803
   89MOL0     C11917   2.971   5.862  -1.853 -0.4701  0.0276  0.4608
   89MOL0     C11918   3.108   5.808  -1.891  0.3248  0.4407  0.2769
   89MOL0     C11919   3.100   5.761  -2.037 -0.2554 -0.6097  1.0651
   89MOL0     C11920   3.205   5.834  -2.122  0.8829  0.3804 -0.6421
   89MOL0     C11921   3.223   5.782  -2.268 -1.1557  0.8843 -0.2593
   89MOL0     C11922   3.101   5.779  -2.355  0.1163  0.2057 -0.4134
   89MOL0     C11923   3.119   5.706  -2.487  0.0732 -0.3844  0.0184
   89MOL0    Cl11924   2.971   5.743  -2.599 -0.1914  0.6156 -0.0723
   89MOL0     C11925   2.844   5.754  -1.561  0.3396  0.3053  0.1001
   89MOL0     C11926   2.795   5.645  -1.489 -0.8059  0.1861 -0.1003
   89MOL0     O11927   2.654   5.397  -1.446 -0.2294  0.3049 -0.6675
   89MOL0     C11928   2.745   5.292  -1.118 -0.0578 -0.4748 -0.8138
   89MOL0     C11929   2.696   5.206  -1.017  0.2925 -0.3381 -1.0024
   89MOL0     N11930   2.619   4.701  -0.356  0.1811  0.3961  0.4197
   89MOL0     N11931   2.691   4.635  -0.265 -0.3814 -0.2266  0.4389
   89MOL0     C11932   3.607   5.173   0.482  0.1619 -0.2141 -0.5786
   89MOL0     C11933   3.706   5.251   0.530  0.0829 -0.0136 -1.0034
   89MOL0     C11934   4.031   5.547   0.627  0.2891 -0.0740  0.3858
   89MOL0     C11935   4.143   5.474   0.583  0.2322 -0.4317 -1.2988
   89MOL0     C11936   4.270   5.499   0.631 -0.3687 -0.0763 -0.1807
   89MOL0     C11937   4.299   5.594   0.730  0.1502  0.0170  1.0632
   89MOL0     O11938   4.436   5.610   0.756  0.5698  0.1691 -0.8207
   89MOL0     C11939   4.471   5.709   0.855 -0.2801  0.0461 -0.5918
   89MOL0     C11940   4.600   5.669   0.926  1.0525  0.4271  0.6346
   89MOL0     C11941   4.715   5.659   0.824  0.5226  0.6322  0.3253
   89MOL0     C11942   4.831   5.594   0.906 -0.5045  0.2211  0.9616
   89MOL0     C11943   4.822   5.451   0.874 -0.4227  1.1286  0.2165
   89MOL0     C11944   4.829   5.342   0.827  0.0026 -0.3973 -0.2248
   89MOL0     C11945   4.189   5.657   0.777  0.8401 -0.0455  0.0355
   89MOL0     C11946   4.057   5.636   0.740 -0.1028  0.1662  0.2201
   89MOL0     C11947   3.950   5.708   0.829  0.1612 -0.0353  0.0544
   89MOL0     H11948   3.755   5.454   0.274 -0.4739  0.6695  0.7888
   89MOL0     H11949   3.564   5.315   0.181  0.4422 -1.1609 -0.2874
   89MOL0     H11950   3.451   4.935   0.328 -1.6504  0.0097 -2.4381
   89MOL0     H11951   3.377   5.017   0.469 -1.0753 -0.0627 -1.0284
   89MOL0     H11952   3.182   5.075   0.335 -1.2970 -0.9551  0.9519
   89MOL0     H11953   3.192   4.903   0.374 -0.2106  0.5777  1.5747
   89MOL0     H11954   3.308   4.903   0.122 -1.7687 -1.4524 -0.0180
   89MOL0     H11955   3.225   5.058   0.115  0.1725  0.2619  0.3019
   89MOL0     H11956   3.005   4.900   0.184 -0.8950 -1.3758 -1.3266
   89MOL0     H11957   3.056   4.936   0.033 -0.5877  0.1201  0.3778
   89MOL0     H11958   3.147   4.743  -0.027 -0.3356  3.4692  0.2457
   89MOL0     H11959   3.209   4.702   0.141 -0.9528  1.4753  3.6207
   89MOL0     H11960   3.027   4.545   0.073 -1.3754 -0.6165  0.6638
   89MOL0     H11961   2.957   4.657   0.193 -1.5639 -0.3288 -1.1582
   89MOL0     H11962   2.846   4.793   0.019 -1.1155 -0.3489  0.6928
   89MOL0     H11963   2.794   4.631   0.045  1.0412  1.2687  5.2060
   89MOL0     H11964   2.998   4.727  -0.173  1.1436 -0.2638  2.6898
   89MOL0     H11965   2.935   4.567  -0.165 -0.8823  0.3605  0.5073
   89MOL0     H11966   2.869   4.909  -0.276  0.6083  0.2490  1.6004
   89MOL0     H11967   2.526   4.945  -0.473 -0.2006 -1.7016 -0.8026
   89MOL0     H11968   2.670   5.033  -0.441  2.3956 -0.4092 -0.5032
   89MOL0     H11969   2.769   4.890  -0.649 -0.4822 -4.9971 -3.7119
   89MOL0     H11970   2.634   4.794  -0.644  0.5603  0.2245 -2.3015
   89MOL0     H11971   2.592   5.094  -0.679  1.5438 -0.0231 -2.0245
   89MOL0     H11972   2.470   4.970  -0.707  0.0861 -5.3716 -0.9919
   89MOL0     H11973   2.592   4.877  -0.883 -1.2248  1.1245 -1.7199
   89MOL0     H11974   2.708   5.014  -0.874  0.1287 -1.5002 -0.5542
   89MOL0     H11975   2.412   5.096  -1.173  0.0628  0.8660 -3.0569
   89MOL0     H11976   2.516   5.233  -1.353  1.7754 -1.4198 -0.6090
   89MOL0     H11977   3.077   5.551  -1.339 -0.1283 -0.5173  0.3289
   89MOL0     H11978   3.162   5.746  -1.456  0.4848 -1.9219 -0.3067
   89MOL0     H11979   2.880   5.994  -1.698  0.3652  1.9118  1.8005
   89MOL0     H11980   3.032   6.034  -1.763  2.2129 -2.4502 -0.4944
   89MOL0     H11981   2.906   5.777  -1.832 -0.6364 -0.4728 -1.7852
   89MOL0     H11982   2.934   5.916  -1.941  2.7477 -1.3321 -1.9592
   89MOL0     H11983   3.178   5.891  -1.875  2.7404 -1.4801  0.4195
   89MOL0     H11984   3.145   5.725  -1.829 -0.3803  0.8067  1.2165
   89MOL0     H11985   3.006   5.791  -2.085  1.8205 -0.1681 -3.1596
   89MOL0     H11986   3.101   5.652  -2.041  1.0259 -0.5563 -1.5261
   89MOL0     H11987   3.301   5.829  -2.069  0.4790  0.8773  0.1605
   89MOL0     H11988   3.172   5.938  -2.124 -1.2006  0.0619  4.2682
   89MOL0     H11989   3.298   5.844  -2.319 -0.7227  0.3234 -0.3118
   89MOL0     H11990   3.258   5.678  -2.271  2.8460  2.0620 -1.2849
   89MOL0     H11991   3.073   5.884  -2.372  0.0458  0.4897  1.2455
   89MOL0     H11992   3.018   5.748  -2.291 -1.2136  4.0995  0.0341
   89MOL0     H11993   3.205   5.738  -2.547 -0.9788  0.3120 -1.1603
   89MOL0     H11994   3.144   5.602  -2.464  1.2823 -0.2795 -0.7213
   89MOL0     H11995   2.767   5.797  -1.624  0.9175  0.1095 -0.7494
   89MOL0     H11996   2.687   5.636  -1.481 -0.6616 -0.0009  4.0682
   89MOL0     H11997   2.835   5.346  -1.091  0.5234 -1.1643 -1.3268
   89MOL0     H11998   2.752   5.207  -0.923 -0.4105  1.3974 -0.5726
   89MOL0     H11999   3.569   5.091   0.543 -2.2440  0.4232 -1.1142
   89MOL0     H12000   3.753   5.222   0.624  1.1437 -0.1837 -1.5801
   89MOL0     H12001   4.115   5.396   0.513 -2.1191  0.4584 -1.4439
   89MOL0     H12002   4.351   5.440   0.591  0.8387  0.1759  1.7856
   89MOL0     H12003   4.393   5.716   0.931  0.5396  0.0939  0.2635
   89MOL0     H12004   4.487   5.803   0.801  1.0074  0.5999  0.6719
   89MOL0     H12005   4.582   5.571   0.971 -0.8776 -0.1256 -1.1601
   89MOL0     H12006   4.620   5.738   1.008  2.2639  0.5300  0.2698
   89MOL0     H12007   4.742   5.763   0.801  2.6263 -0.0699 -0.5693
   89MOL0     H12008   4.691   5.600   0.736 -0.2201 -0.1397  1.0235
   89MOL0     H12009   4.927   5.626   0.865 -0.8102  1.9900  1.5661
   89MOL0     H12010   4.822   5.619   1.012 -0.9659  1.0471  0.7357
   89MOL0     H12011   4.801   5.248   0.783 -3.8594 -0.2139  1.4269
   89MOL0     H12012   4.205   5.732   0.853  0.3102  0.8509 -0.7212
   89MOL0     H12013   3.885   5.649   0.894 -1.2826  0.6666 -0.7133
   89MOL0     H12014   3.988   5.783   0.898  0.5396  0.3496 -0.5681
   89MOL0     H12015   3.885   5.757   0.756 -0.8595  1.2164  1.7403
   90MOL0     O12016   0.799   4.360   9.133 -0.0598  0.9497  0.1253
   90MOL0     C12017   0.897   4.289   9.132 -0.2249 -0.2974 -0.6935
   90MOL0     O12018   0.899   4.164   9.090 -0.5110 -0.7992  0.1649
   90MOL0     C12019   0.781   4.121   9.043  0.4433  0.3714  0.1738
   90MOL0     C12020   0.682   4.054   9.123 -0.6541  0.0938  0.5328
   90MOL0     C12021   0.571   3.998   9.054  0.3207 -0.0404 -0.2376
   90MOL0     C12022   0.551   4.002   8.919 -1.4132  0.1257 -0.5057
   90MOL0     O12023   0.449   3.931   8.870  0.0601 -0.2743  0.6502
   90MOL0     C12024   0.396   3.958   8.734 -0.2328  0.6411  0.5262
   90MOL0     C12025   0.268   3.869   8.715 -0.2230 -0.9835 -0.9137
   90MOL0     C12026   0.234   3.882   8.570  0.0482 -0.6818 -1.2254
   90MOL0     C12027   0.089   3.831   8.569  0.0402  0.5407  0.3873
   90MOL0     C12028   0.030   3.819   8.432 -1.3035  0.7406 -0.0585
   90MOL0     C12029  -0.114   3.840   8.411  0.6040 -0.8637  0.6375
   90MOL0     C12030  -0.184   3.741   8.499  0.8544 -0.1251  0.6428
   90MOL0     C12031  -0.337   3.737   8.470  0.2534 -0.2284 -0.5230
   90MOL0     N12032  -0.376   3.707   8.326  0.6925 -0.0922  0.2356
   90MOL0     C12033  -0.441   3.800   8.246  0.0265  0.4114 -0.2935
   90MOL0     C12034  -0.469   3.733   8.134 -0.0158  0.1881 -0.6343
   90MOL0     C12035  -0.556   3.770   8.021 -0.4616  0.6361  0.2194
   90MOL0     C12036  -0.482   3.829   7.900  0.2407 -0.8338 -0.3230
   90MOL0     C12037  -0.410   3.955   7.943  0.0403 -0.2601  1.0010
   90MOL0     C12038  -0.504   4.075   7.912 -0.6035 -0.0445  0.3607
   90MOL0     O12039  -0.639   4.065   7.976 -0.5015 -0.1208 -0.1068
   90MOL0     C12040  -0.671   4.102   8.104 -0.5297 -0.1748 -0.2301
   90MOL0     C12041  -0.806   4.095   8.133 -0.3179  0.0185  0.3587
   90MOL0     C12042  -0.861   4.123   8.256 -0.2506 -0.5719  0.4248
   90MOL0     C12043  -0.777   4.177   8.357  0.4380  0.5997  0.5098
   90MOL0     C12044  -0.840   4.225   8.479 -0.0837  0.7361  0.7017
   90MOL0     O12045  -0.970   4.266   8.472  0.1947 -0.8778 -0.3201
   90MOL0     C12046  -1.009   4.356   8.566 -1.0748 -0.7728  0.2694
   90MOL0     C12047  -0.928   4.470   8.590  0.1212 -0.1033 -0.4762
   90MOL0     C12048  -0.959   4.568   8.679  0.3357 -0.2658  0.0256
   90MOL0     C12049  -1.090   4.565   8.741  0.8628  0.6158 -0.4402
   90MOL0     O12050  -1.138   4.658   8.830 -0.0088 -0.6008 -0.3053
   90MOL0     C12051  -1.051   4.760   8.882  0.6030 -0.1020 -1.2589
   90MOL0     C12052  -1.123   4.861   8.977  0.7182 -0.2108  1.4824
   90MOL0     C12053  -1.236   4.933   8.891 -0.6122  0.2982  0.5464
   90MOL0     C12054  -1.319   5.019   8.974  0.3168  0.2736  0.4683
   90MOL0     C12055  -1.464   4.956   8.998 -0.2378 -0.5310  0.9128
   90MOL0     C12056  -1.552   5.004   9.105  0.0211 -0.2332  0.3345
   90MOL0     C12057  -1.694   4.945   9.110 -0.1953 -0.5388  0.5219
   90MOL0     C12058  -1.792   5.014   9.211 -0.9319  0.2830  0.4050
   90MOL0    Cl12059  -1.731   4.989   9.366 -0.2939  0.3964 -0.7584
   90MOL0     C12060  -1.170   4.449   8.715 -0.7240  0.1637 -0.3475
   90MOL0     C12061  -1.139   4.350   8.628 -0.7895  0.8177  0.2434
   90MOL0     O12062  -0.763   4.228   8.573  0.2130 -1.1420 -0.1991
   90MOL0     C12063  -0.635   4.171   8.337 -0.5076 -0.8546  0.4055
   90MOL0     C12064  -0.582   4.143   8.205 -0.1705  0.4191 -0.4591
   90MOL0     N12065  -0.422   3.599   8.149 -0.2087 -0.0305 -0.6938
   90MOL0     N12066  -0.382   3.585   8.271  0.6912 -0.0979 -0.1087
   90MOL0     C12067   0.643   4.085   8.848 -0.0437  0.4517  0.6322
   90MOL0     C12068   0.748   4.153   8.909  0.1550  0.3241 -0.5726
   90MOL0     C12069   1.036   4.352   9.154  0.1541  0.9401 -0.1337
   90MOL0     C12070   1.153   4.274   9.112 -0.0872  0.1608 -1.0267
   90MOL0     C12071   1.284   4.322   9.105 -1.0154 -0.4668 -0.5416
   90MOL0     C12072   1.313   4.455   9.139  0.8012 -0.1130  0.3658
   90MOL0     O12073   1.440   4.505   9.126  0.5502  0.0651  0.1863
   90MOL0     C12074   1.495   4.608   9.213 -0.0519  0.0592  0.1876
   90MOL0     C12075   1.641   4.643   9.177  0.0780  0.6298  0.2146
   90MOL0     C12076   1.697   4.756   9.266  0.8539  0.0432 -0.1259
   90MOL0     C12077   1.834   4.805   9.215  0.1725 -0.0595  0.8893
   90MOL0     C12078   1.848   4.861   9.083  0.6707  0.1512  0.2815
   90MOL0     C12079   1.875   4.909   8.980  0.4200 -0.4134 -0.2263
   90MOL0     C12080   1.200   4.532   9.187  0.2714  0.0348  0.6566
   90MOL0     C12081   1.065   4.479   9.194 -0.0583 -0.5131  0.7673
   90MOL0     C12082   0.959   4.575   9.250  0.0886  0.0184 -0.4126
   90MOL0     H12083   0.711   4.048   9.228 -0.3813 -1.1800  0.4047
   90MOL0     H12084   0.508   3.927   9.107  1.7601 -1.0412  0.1697
   90MOL0     H12085   0.360   4.061   8.734 -1.0427  0.3845  1.8852
   90MOL0     H12086   0.467   3.929   8.655 -1.0897 -2.1924  0.6676
   90MOL0     H12087   0.190   3.897   8.786 -0.3562 -0.1656 -1.3646
   90MOL0     H12088   0.297   3.765   8.733 -2.1931 -1.3814  0.1486
   90MOL0     H12089   0.301   3.825   8.505  1.0776 -0.6411 -0.2317
   90MOL0     H12090   0.236   3.986   8.536  1.5267  0.7033  2.6173
   90MOL0     H12091   0.088   3.734   8.619 -2.4385  0.7100  0.7947
   90MOL0     H12092   0.023   3.898   8.624 -3.0559  2.1157 -4.5501
   90MOL0     H12093   0.084   3.890   8.370  0.2255  0.9613  1.4198
   90MOL0     H12094   0.046   3.722   8.383  0.3622 -0.8150  3.2087
   90MOL0     H12095  -0.141   3.941   8.445 -0.6602 -0.9112 -0.1500
   90MOL0     H12096  -0.137   3.832   8.304  1.6639  0.8258  0.2353
   90MOL0     H12097  -0.176   3.762   8.606 -3.4000 -1.2266  1.3459
   90MOL0     H12098  -0.144   3.641   8.479 -0.5627 -0.7301  0.7671
   90MOL0     H12099  -0.380   3.648   8.519  0.2837  0.1314  0.1724
   90MOL0     H12100  -0.401   3.818   8.506  0.2499 -0.6411  0.4535
   90MOL0     H12101  -0.474   3.897   8.279 -0.2801  0.5011 -0.8564
   90MOL0     H12102  -0.603   3.673   8.000  0.9079 -0.2991  1.3025
   90MOL0     H12103  -0.632   3.839   8.059 -1.4664 -0.5638  0.4576
   90MOL0     H12104  -0.419   3.750   7.861 -0.7812 -2.1745  0.6345
   90MOL0     H12105  -0.560   3.858   7.829 -0.2704  1.7792  1.1741
   90MOL0     H12106  -0.315   3.960   7.891  0.6115  1.5015  2.1004
   90MOL0     H12107  -0.394   3.964   8.051 -0.6061  0.2769  1.0638
   90MOL0     H12108  -0.524   4.079   7.805 -1.0134  2.5392  0.4728
   90MOL0     H12109  -0.460   4.172   7.939  1.3585 -0.9363  0.5555
   90MOL0     H12110  -0.875   4.083   8.050 -0.3538  0.9662  0.2385
   90MOL0     H12111  -0.970   4.121   8.260 -0.3533  1.4983  0.0477
   90MOL0     H12112  -0.841   4.484   8.527 -0.0282  0.8713 -0.4874
   90MOL0     H12113  -0.904   4.660   8.695  0.6096 -0.7836  2.3263
   90MOL0     H12114  -0.972   4.707   8.935 -1.1550  0.9559  2.7878
   90MOL0     H12115  -0.998   4.818   8.805  4.6357 -0.3812  1.0037
   90MOL0     H12116  -1.172   4.805   9.057  0.9003 -2.9326 -0.1815
   90MOL0     H12117  -1.049   4.933   9.013 -0.8470  1.3751  1.6671
   90MOL0     H12118  -1.181   5.006   8.831 -3.2583  3.1393  1.3021
   90MOL0     H12119  -1.299   4.869   8.828 -0.8643  0.3104  0.7838
   90MOL0     H12120  -1.327   5.118   8.928 -1.0278 -0.2754 -0.5838
   90MOL0     H12121  -1.285   5.037   9.076 -0.7882  1.7507  0.6033
   90MOL0     H12122  -1.454   4.847   9.007  1.6687 -0.5659 -0.8072
   90MOL0     H12123  -1.523   4.963   8.906 -1.2110 -0.3286  1.5354
   90MOL0     H12124  -1.500   4.996   9.201  1.6722  4.0046  0.0194
   90MOL0     H12125  -1.564   5.113   9.104 -3.1264 -0.4555  1.1775
   90MOL0     H12126  -1.681   4.838   9.127  2.2356 -0.5483 -0.8951
   90MOL0     H12127  -1.748   4.956   9.015  0.5194 -0.0458  0.1607
   90MOL0     H12128  -1.794   5.121   9.189  1.7269 -0.1300 -2.5385
   90MOL0     H12129  -1.889   4.965   9.201  0.0839 -1.7474  0.1517
   90MOL0     H12130  -1.266   4.450   8.764 -0.2879  2.2201  0.5827
   90MOL0     H12131  -1.204   4.266   8.608  0.6393  0.3185 -3.0329
   90MOL0     H12132  -0.564   4.205   8.411 -0.3781  2.3339 -0.9982
   90MOL0     H12133  -0.474   4.146   8.191  0.4136 -2.1208  2.3021
   90MOL0     H12134   0.641   4.087   8.740  2.6442 -3.5089  0.3168
   90MOL0     H12135   0.812   4.213   8.845  3.9149 -1.2931  1.3449
   90MOL0     H12136   1.135   4.169   9.092 -0.3644  0.3700 -1.9093
   90MOL0     H12137   1.368   4.264   9.068  0.4933  0.2684  1.5525
   90MOL0     H12138   1.481   4.584   9.318 -2.9631  3.7486  0.8630
   90MOL0     H12139   1.438   4.701   9.208  2.5859  1.8581  1.2236
   90MOL0     H12140   1.644   4.664   9.070 -0.8046  0.0110  0.0671
   90MOL0     H12141   1.694   4.549   9.195  1.0668  1.4669  1.9523
   90MOL0     H12142   1.719   4.726   9.368  3.5721 -0.7160 -0.8393
   90MOL0     H12143   1.634   4.843   9.282  2.0406  1.0890 -0.9317
   90MOL0     H12144   1.860   4.873   9.296 -1.9337 -1.5105  2.8903
   90MOL0     H12145   1.904   4.722   9.222  0.3873  0.0101 -0.1559
   90MOL0     H12146   1.888   4.958   8.886 -2.6477  0.4509 -0.3112
   90MOL0     H12147   1.222   4.636   9.205  1.6502  0.6797 -3.6443
   90MOL0     H12148   1.018   4.659   9.288 -0.4539 -0.6568  2.1839
   90MOL0     H12149   0.895   4.600   9.166  0.0182 -2.0689 -1.0556
   90MOL0     H12150   0.917   4.525   9.338 -0.1411 -1.1574 -1.1701
   91MOL0     O12151   0.651   0.623   2.176 -0.0135 -0.7875 -0.5183
   91MOL0     C12152   0.720   0.621   2.079  0.0120  0.3264  0.5572
   91MOL0     O12153   0.682   0.592   1.955 -0.0873 -0.2323 -0.2201
   91MOL0     C12154   0.556   0.587   1.904  0.0322 -0.3589 -0.1019
   91MOL0     C12155   0.546   0.516   1.778 -0.4851 -0.8728 -0.7324
   91MOL0     C12156   0.419   0.513   1.708  0.1703 -0.7529 -0.6526
   91MOL0     C12157   0.305   0.571   1.769 -1.1471  0.7127 -0.0257
   91MOL0     O12158   0.189   0.548   1.708 -0.0175  0.2699 -0.2137
   91MOL0     C12159   0.093   0.453   1.767 -0.1238  0.0561  0.6077
   91MOL0     C12160   0.157   0.314   1.784 -0.1139 -0.2278  0.3512
   91MOL0     C12161   0.144   0.224   1.666 -0.7726  0.2864  0.0815
   91MOL0     C12162   0.004   0.182   1.622  0.4277  0.1831 -0.1824
   91MOL0     C12163  -0.006   0.079   1.513 -1.1328  0.3072  0.3043
   91MOL0     C12164   0.087  -0.049   1.531 -0.4351 -1.1237 -0.5177
   91MOL0     C12165   0.057  -0.137   1.661 -0.3073 -0.3616  0.2458
   91MOL0     C12166  -0.083  -0.196   1.650  0.3059  0.6740 -0.2356
   91MOL0     N12167  -0.081  -0.334   1.701 -0.5234 -0.7717 -0.0150
   91MOL0     C12168  -0.089  -0.447   1.615 -0.7246  0.1860 -0.3834
   91MOL0     C12169  -0.013  -0.541   1.677  0.7880  0.0665 -0.3230
   91MOL0     C12170   0.010  -0.687   1.643  1.6182 -0.7867 -0.0216
   91MOL0     C12171   0.164  -0.709   1.650 -0.2864 -0.7876  0.7822
   91MOL0     C12172   0.245  -0.615   1.560 -0.8590 -0.6413  0.1914
   91MOL0     C12173   0.392  -0.655   1.565  0.4944  0.6485 -0.7250
   91MOL0     O12174   0.485  -0.568   1.493 -0.6747 -0.4963 -0.2528
   91MOL0     C12175   0.620  -0.592   1.525  0.6892  0.4750 -0.6180
   91MOL0     C12176   0.701  -0.601   1.412 -0.6053  0.2130  0.5461
   91MOL0     C12177   0.836  -0.596   1.439 -0.2685 -1.0760  0.1543
   91MOL0     C12178   0.890  -0.577   1.560  0.5867  0.0059  0.2226
   91MOL0     C12179   1.044  -0.571   1.563  0.6087 -0.2708 -0.8902
   91MOL0     O12180   1.103  -0.564   1.685  0.1839 -0.0336  0.0951
   91MOL0     C12181   1.234  -0.532   1.701 -0.8268  0.8477 -0.0709
   91MOL0     C12182   1.294  -0.418   1.650 -0.5209 -0.0227  0.4268
   91MOL0     C12183   1.425  -0.388   1.651  0.7948 -0.4606 -0.0306
   91MOL0     C12184   1.510  -0.465   1.722 -0.0481 -0.0829 -0.1665
   91MOL0     O12185   1.640  -0.416   1.737  0.5511  0.4326  0.7683
   91MOL0     C12186   1.746  -0.503   1.784  0.5731 -0.0463  0.0991
   91MOL0     C12187   1.882  -0.449   1.724  0.2487  0.4084 -0.9613
   91MOL0     C12188   1.862  -0.423   1.570  0.3104 -0.3722 -1.0343
   91MOL0     C12189   2.003  -0.392   1.508  0.3803  0.0366 -0.1078
   91MOL0     C12190   1.996  -0.394   1.357  0.2106  0.3300  0.8528
   91MOL0     C12191   2.119  -0.349   1.284 -0.3053  1.2056  0.8138
   91MOL0     C12192   2.102  -0.381   1.131  0.7363 -0.0932  0.0385
   91MOL0     C12193   2.236  -0.399   1.065 -0.0062  0.4802  0.6162
   91MOL0    Cl12194   2.337  -0.251   1.053  0.1366  0.2082 -0.0434
   91MOL0     C12195   1.457  -0.568   1.796  0.1930  0.0713  0.2772
   91MOL0     C12196   1.319  -0.608   1.786 -0.5284 -0.0765  0.6442
   91MOL0     O12197   1.108  -0.564   1.456 -0.1631 -0.0911 -0.2870
   91MOL0     C12198   0.805  -0.570   1.666  0.4489  0.0809 -0.8283
   91MOL0     C12199   0.671  -0.576   1.654 -0.9956  0.8790  0.4871
   91MOL0     N12200   0.030  -0.486   1.791 -0.4929 -0.0455  0.3452
   91MOL0     N12201  -0.016  -0.371   1.809  0.2949  0.4095 -1.2997
   91MOL0     C12202   0.316   0.624   1.900 -0.1897  0.1232 -0.0195
   91MOL0     C12203   0.438   0.647   1.966  0.3623  0.0192 -0.5349
   91MOL0     C12204   0.860   0.629   2.115 -0.2752  0.4341  0.1807
   91MOL0     C12205   0.955   0.547   2.035  0.2708 -0.5953  0.2402
   91MOL0     C12206   1.098   0.557   2.056  0.4572 -0.9422  0.8333
   91MOL0     C12207   1.140   0.645   2.157 -0.1025  0.4591 -0.3496
   91MOL0     O12208   1.265   0.669   2.195 -0.7696 -0.2285 -0.6360
   91MOL0     C12209   1.382   0.620   2.130  0.5659 -0.0960  0.4815
   91MOL0     C12210   1.502   0.703   2.123  0.3973  0.4004 -0.0897
   91MOL0     C12211   1.544   0.717   2.268  0.3484  0.2431  0.2278
   91MOL0     C12212   1.691   0.778   2.278  0.4596 -0.5701 -0.4806
   91MOL0     C12213   1.733   0.833   2.408 -0.5604  0.9927 -0.4449
   91MOL0     C12214   1.740   0.862   2.523  0.3524  0.5943  0.5260
   91MOL0     C12215   1.051   0.718   2.234  0.0154 -0.0165 -1.0499
   91MOL0     C12216   0.912   0.715   2.215 -0.4511  1.7650  0.5282
   91MOL0     C12217   0.826   0.805   2.305  0.8809  0.3189  1.2097
   91MOL0     H12218   0.643   0.473   1.755 -0.3092 -1.2712  0.6748
   91MOL0     H12219   0.399   0.472   1.609 -2.5018 -0.3665 -0.3401
   91MOL0     H12220   0.052   0.486   1.862  0.7149 -0.0631  1.0248
   91MOL0     H12221   0.005   0.448   1.702  0.4501  2.1231 -0.4119
   91MOL0     H12222   0.116   0.264   1.873  0.8841 -0.6641  0.5762
   91MOL0     H12223   0.264   0.330   1.796 -0.2865  2.8723 -1.1506
   91MOL0     H12224   0.191   0.130   1.696 -1.5359 -0.6443 -1.4877
   91MOL0     H12225   0.204   0.267   1.585  1.6727 -0.7314  1.2579
   91MOL0     H12226  -0.043   0.129   1.705  1.2600  1.6773  1.3100
   91MOL0     H12227  -0.058   0.270   1.603 -0.5968  0.5816  3.9848
   91MOL0     H12228  -0.110   0.045   1.516 -0.8237 -0.7277 -0.0170
   91MOL0     H12229   0.020   0.126   1.418  2.8087 -3.0423 -0.5624
   91MOL0     H12230   0.068  -0.113   1.444 -0.6899 -1.4283 -0.2382
   91MOL0     H12231   0.194  -0.029   1.525 -0.2736 -2.3638 -2.5047
   91MOL0     H12232   0.069  -0.084   1.756 -1.5616 -0.0024  0.2236
   91MOL0     H12233   0.131  -0.217   1.652  0.0128  0.0673 -1.2898
   91MOL0     H12234  -0.156  -0.138   1.708 -0.5870  0.9030 -1.5252
   91MOL0     H12235  -0.112  -0.194   1.544 -0.5809  2.7814 -0.0131
   91MOL0     H12236  -0.145  -0.449   1.522 -1.6603  1.1208  0.1362
   91MOL0     H12237  -0.030  -0.763   1.711  3.3294 -0.6674  1.2002
   91MOL0     H12238  -0.032  -0.694   1.543  0.4458 -0.2284  0.4168
   91MOL0     H12239   0.197  -0.702   1.754  0.6015 -1.5946  0.5683
   91MOL0     H12240   0.178  -0.811   1.612  0.4714  0.7671 -3.8297
   91MOL0     H12241   0.242  -0.509   1.588 -0.4774 -0.2459 -1.2186
   91MOL0     H12242   0.213  -0.615   1.456  0.0768  2.1884 -0.1767
   91MOL0     H12243   0.417  -0.757   1.533  1.2009  1.0303 -1.4190
   91MOL0     H12244   0.418  -0.651   1.672  0.4427 -0.4529 -0.6511
   91MOL0     H12245   0.674  -0.612   1.308 -0.0423 -0.8660  0.4908
   91MOL0     H12246   0.893  -0.604   1.346 -0.4583 -0.8033  0.0123
   91MOL0     H12247   1.244  -0.343   1.589 -3.0872 -0.8238  1.4082
   91MOL0     H12248   1.459  -0.295   1.607  2.3131 -2.0805 -2.5372
   91MOL0     H12249   1.749  -0.494   1.893  1.3641  0.4552  0.0426
   91MOL0     H12250   1.723  -0.607   1.758  1.7710 -0.3176  0.0601
   91MOL0     H12251   1.907  -0.351   1.764 -0.2446  0.6938 -1.3319
   91MOL0     H12252   1.964  -0.516   1.750  0.2011 -0.0478 -1.9435
   91MOL0     H12253   1.809  -0.515   1.542 -0.0990 -0.8389  1.0474
   91MOL0     H12254   1.795  -0.337   1.563  1.2514  0.4850  0.0113
   91MOL0     H12255   2.080  -0.462   1.539  2.0167  0.1018 -3.5683
   91MOL0     H12256   2.035  -0.291   1.534 -0.7489  0.4113 -0.0837
   91MOL0     H12257   1.912  -0.339   1.312 -0.3921 -1.4349 -0.2607
   91MOL0     H12258   1.978  -0.498   1.329  2.0753  0.1219  0.3177
   91MOL0     H12259   2.129  -0.240   1.294 -1.9300  1.4153  0.4316
   91MOL0     H12260   2.207  -0.402   1.322 -2.1753 -1.6669  1.4107
   91MOL0     H12261   2.058  -0.286   1.098 -0.3592 -0.8462 -0.7392
   91MOL0     H12262   2.025  -0.457   1.112  0.1475 -0.4066  3.0706
   91MOL0     H12263   2.283  -0.490   1.103 -0.7720 -1.3436 -2.4440
   91MOL0     H12264   2.205  -0.428   0.964 -0.1337 -1.1243  1.1016
   91MOL0     H12265   1.520  -0.614   1.871 -1.1771  2.9527  3.4367
   91MOL0     H12266   1.285  -0.699   1.835  0.8049 -2.1290 -2.0021
   91MOL0     H12267   0.828  -0.556   1.771 -4.0638 -2.5090  0.8237
   91MOL0     H12268   0.608  -0.551   1.738 -0.4291 -1.7407  1.7991
   91MOL0     H12269   0.222   0.658   1.941 -0.8024 -2.6447  1.0512
   91MOL0     H12270   0.444   0.712   2.053 -0.6781  2.4934 -2.1908
   91MOL0     H12271   0.921   0.486   1.952 -0.2450  1.4016 -1.0836
   91MOL0     H12272   1.165   0.501   1.992  3.1791  2.1771  0.7394
   91MOL0     H12273   1.367   0.586   2.027  2.0670 -3.8276  1.3506
   91MOL0     H12274   1.405   0.535   2.195  1.8179 -0.5695 -0.5245
   91MOL0     H12275   1.491   0.799   2.071  1.7284  0.5148 -0.2111
   91MOL0     H12276   1.576   0.634   2.081  2.5545  0.9443  2.5199
   91MOL0     H12277   1.551   0.619   2.315 -3.9519  0.6676  2.2551
   91MOL0     H12278   1.475   0.779   2.327  2.7755  1.8458  1.5421
   91MOL0     H12279   1.767   0.706   2.247  1.6799  0.2901  0.4008
   91MOL0     H12280   1.708   0.868   2.217 -0.2474  1.0861  1.6453
   91MOL0     H12281   1.751   0.872   2.629 -0.5091  0.3608  0.6401
   91MOL0     H12282   1.088   0.768   2.323 -1.1267  1.0922 -1.1773
   91MOL0     H12283   0.744   0.749   2.350 -0.6564 -0.9540 -2.7841
   91MOL0     H12284   0.882   0.868   2.374 -2.2835  2.7466  1.7959
   91MOL0     H12285   0.766   0.866   2.237  0.5135 -0.2050  1.0558
   92MOL0     O12286   9.597   2.100   5.641  0.1993 -0.0905 -0.2483
   92MOL0     C12287   9.559   2.207   5.587  0.3786  0.3424 -0.0373
   92MOL0     O12288   9.640   2.302   5.542  0.6483  1.4856 -0.8852
   92MOL0     C12289   9.771   2.301   5.591  0.0737  0.2254 -0.2892
   92MOL0     C12290   9.800   2.325   5.726  0.1753  0.8560  0.4711
   92MOL0     C12291   9.931   2.345   5.766  0.1979 -1.0080 -0.2379
   92MOL0     C12292  10.038   2.325   5.677  0.6361  0.3593 -1.8836
   92MOL0     O12293  10.168   2.344   5.714  0.5363 -0.2469  0.2505
   92MOL0     C12294  10.208   2.364   5.850  0.0843  0.6496  0.1394
   92MOL0     C12295  10.357   2.396   5.867 -0.2662 -0.1978 -1.0199
   92MOL0     C12296  10.454   2.273   5.855  0.6642 -0.0953 -0.2637
   92MOL0     C12297  10.598   2.312   5.902  0.6283  1.6407  0.1213
   92MOL0     C12298  10.704   2.198   5.867 -0.5996 -0.5539 -0.0489
   92MOL0     C12299  10.827   2.248   5.800  0.2286 -0.2828  0.2351
   92MOL0     C12300  10.944   2.157   5.787 -0.0796  0.2139 -0.6137
   92MOL0     C12301  11.059   2.238   5.719 -0.0715  0.0815 -0.2860
   92MOL0     N12302  11.189   2.179   5.745  0.6416  0.0835 -0.5018
   92MOL0     C12303  11.236   2.067   5.694 -0.1876  0.0389  0.3711
   92MOL0     C12304  11.357   2.041   5.763  0.0338  0.6497  0.9868
   92MOL0     C12305  11.447   1.926   5.729 -0.0884 -0.0581 -0.3561
   92MOL0     C12306  11.540   1.976   5.624 -0.7682  0.1395  0.1970
   92MOL0     C12307  11.614   1.865   5.558  0.2279 -0.2175 -0.1113
   92MOL0     C12308  11.737   1.914   5.484 -0.1535  0.3552  0.3118
   92MOL0     O12309  11.833   1.949   5.580  0.1823 -0.3300  0.2304
   92MOL0     C12310  11.956   1.995   5.540  0.0955 -0.2932 -0.1828
   92MOL0     C12311  12.045   2.030   5.635 -0.6142  0.2182 -1.1926
   92MOL0     C12312  12.169   2.083   5.604 -0.3254  0.1800  0.5329
   92MOL0     C12313  12.209   2.096   5.464  0.0086  0.5485 -0.2554
   92MOL0     C12314  12.343   2.145   5.432 -0.6368 -0.8690  0.6210
   92MOL0     O12315  12.431   2.201   5.527  0.4294  0.3585  1.0463
   92MOL0     C12316  12.556   2.247   5.492 -0.3727  0.5387  0.5633
   92MOL0     C12317  12.553   2.378   5.441  0.6330  0.1611  1.1252
   92MOL0     C12318  12.670   2.447   5.418  0.7897 -0.3347 -0.3285
   92MOL0     C12319  12.791   2.396   5.459 -0.8913  0.1264 -0.0376
   92MOL0     O12320  12.910   2.461   5.423  0.1747 -0.1070  0.9263
   92MOL0     C12321  13.044   2.410   5.451 -0.3125 -0.2610  0.0355
   92MOL0     C12322  13.131   2.517   5.365  0.5543  0.5816 -0.1348
   92MOL0     C12323  13.289   2.474   5.375 -0.2191 -0.3512 -0.0424
   92MOL0     C12324  13.334   2.390   5.251  0.1779  0.0335  0.4571
   92MOL0     C12325  13.483   2.357   5.253  0.0012 -0.0169 -0.0311
   92MOL0     C12326  13.561   2.484   5.206  0.2988 -0.5359  0.1583
   92MOL0     C12327  13.702   2.446   5.182  0.0728  1.4322  0.3594
   92MOL0     C12328  13.765   2.394   5.310 -0.0429 -0.1075  0.0181
   92MOL0    Cl12329  13.931   2.367   5.288 -0.0920  0.3683 -0.2830
   92MOL0     C12330  12.797   2.273   5.520 -0.7666 -0.9561  1.1382
   92MOL0     C12331  12.678   2.194   5.533  0.7374 -0.5122 -0.0827
   92MOL0     O12332  12.374   2.141   5.311 -0.1743 -0.3919  1.1631
   92MOL0     C12333  12.114   2.059   5.371 -0.0927  1.8632 -0.2998
   92MOL0     C12334  11.987   2.017   5.402  0.0723 -0.2317  0.6722
   92MOL0     N12335  11.368   2.136   5.853  0.2270 -0.4596 -0.0140
   92MOL0     N12336  11.271   2.218   5.842  0.6431 -0.4404 -0.2809
   92MOL0     C12337  10.009   2.308   5.539 -0.5794  0.5568 -0.8534
   92MOL0     C12338   9.874   2.288   5.498  0.3809  0.1919  0.2365
   92MOL0     C12339   9.409   2.218   5.554 -0.6764  0.1338 -0.5479
   92MOL0     C12340   9.368   2.318   5.463  0.0231  0.4966 -0.3385
   92MOL0     C12341   9.240   2.344   5.429  0.3420  0.3244 -0.0900
   92MOL0     C12342   9.137   2.260   5.476  0.1611 -0.8573  0.8253
   92MOL0     O12343   9.000   2.279   5.441 -0.6171 -0.4647  0.6219
   92MOL0     C12344   8.961   2.414   5.416  0.4503  0.3841  0.0461
   92MOL0     C12345   8.816   2.437   5.442  0.8468 -0.6260  1.1099
   92MOL0     C12346   8.773   2.396   5.578  0.0607  0.4679 -0.1987
   92MOL0     C12347   8.627   2.338   5.573 -0.7692 -0.1690  0.2460
   92MOL0     C12348   8.529   2.432   5.522  0.3392 -0.2094  0.3720
   92MOL0     C12349   8.448   2.505   5.473 -0.7407  1.0284  0.1951
   92MOL0     C12350   9.171   2.162   5.571 -0.2613 -1.0867  0.1536
   92MOL0     C12351   9.300   2.139   5.611  0.1406  0.5591 -0.3850
   92MOL0     C12352   9.327   2.053   5.738  0.3408  0.1006 -0.3437
   92MOL0     H12353   9.728   2.353   5.803  0.7798  0.1225  1.3191
   92MOL0     H12354   9.941   2.366   5.872 -2.0161 -1.7286  0.1682
   92MOL0     H12355  10.143   2.445   5.882  1.3651  2.6768 -2.0183
   92MOL0     H12356  10.181   2.277   5.910 -0.8948  2.5384  2.5983
   92MOL0     H12357  10.364   2.433   5.969  3.7811  2.4593 -2.0308
   92MOL0     H12358  10.391   2.478   5.803  0.3862  0.4043  0.0695
   92MOL0     H12359  10.447   2.241   5.750  2.7210 -0.7502 -0.2583
   92MOL0     H12360  10.415   2.188   5.911  0.1736 -2.2353 -3.5335
   92MOL0     H12361  10.633   2.399   5.846 -1.1703  1.3494 -1.5802
   92MOL0     H12362  10.593   2.324   6.011  0.1868 -4.4807  1.1384
   92MOL0     H12363  10.729   2.147   5.960  0.5398  1.8793  1.0708
   92MOL0     H12364  10.661   2.126   5.797 -1.5341 -1.5458  1.4954
   92MOL0     H12365  10.799   2.292   5.704 -3.1006 -0.3286  1.0925
   92MOL0     H12366  10.858   2.330   5.865 -1.7408 -0.7261  1.8051
   92MOL0     H12367  10.917   2.070   5.725  1.8428 -0.3058 -0.7905
   92MOL0     H12368  10.978   2.112   5.881  0.5052 -2.4632 -1.9765
   92MOL0     H12369  11.037   2.236   5.612  1.2782 -0.8296 -0.5706
   92MOL0     H12370  11.060   2.337   5.765 -0.1315 -0.5712  1.1808
   92MOL0     H12371  11.179   2.008   5.623 -1.8243  1.1807  0.6928
   92MOL0     H12372  11.503   1.893   5.817  0.7192  0.4599 -0.6588
   92MOL0     H12373  11.390   1.840   5.692  0.9953 -0.2896 -1.5966
   92MOL0     H12374  11.487   2.037   5.550 -1.6399 -0.6055  0.1850
   92MOL0     H12375  11.619   2.026   5.680 -0.8362  0.8648 -0.3397
   92MOL0     H12376  11.558   1.827   5.472 -0.4152 -0.1831  0.2810
   92MOL0     H12377  11.636   1.790   5.634  0.4187 -1.0452 -0.9653
   92MOL0     H12378  11.722   1.998   5.415 -1.2760  1.0450  1.3689
   92MOL0     H12379  11.776   1.829   5.427  1.1370  1.5499 -0.6763
   92MOL0     H12380  12.015   2.022   5.739  0.9097  0.1027 -0.7371
   92MOL0     H12381  12.240   2.108   5.682 -0.0649  0.8190  0.0961
   92MOL0     H12382  12.457   2.413   5.405  1.4497  0.8519 -0.5075
   92MOL0     H12383  12.671   2.545   5.371  1.8735  0.3417  1.0298
   92MOL0     H12384  13.062   2.411   5.559 -1.2894  1.1257  0.2191
   92MOL0     H12385  13.049   2.311   5.405 -2.7158  0.8507 -3.0756
   92MOL0     H12386  13.103   2.509   5.259  0.3282  0.0743 -0.0375
   92MOL0     H12387  13.113   2.612   5.416 -2.5352  0.1791 -0.2454
   92MOL0     H12388  13.347   2.567   5.368 -1.5682  0.4844 -0.5208
   92MOL0     H12389  13.325   2.427   5.467  0.0982  0.2006  0.1237
   92MOL0     H12390  13.313   2.449   5.161  1.0860 -0.5915 -0.1869
   92MOL0     H12391  13.272   2.300   5.245 -2.0116  1.5794 -2.5363
   92MOL0     H12392  13.504   2.278   5.180  0.8383  1.9236 -1.9843
   92MOL0     H12393  13.504   2.328   5.357 -0.8599  2.7116  0.9966
   92MOL0     H12394  13.522   2.526   5.112  0.7594 -2.6719 -1.0410
   92MOL0     H12395  13.562   2.562   5.283  2.3747  1.1113 -1.4087
   92MOL0     H12396  13.761   2.530   5.143 -0.9629  1.8975 -0.2640
   92MOL0     H12397  13.704   2.365   5.108  4.0716  0.6639  1.0964
   92MOL0     H12398  13.744   2.461   5.393 -0.7812 -0.1661 -0.1154
   92MOL0     H12399  13.730   2.296   5.344  0.0506  0.6132  2.3382
   92MOL0     H12400  12.891   2.233   5.559 -0.3072  2.7346  4.4876
   92MOL0     H12401  12.660   2.094   5.572  3.2984 -0.4585  1.4449
   92MOL0     H12402  12.123   2.071   5.263 -2.2823 -0.2739 -0.8006
   92MOL0     H12403  11.922   1.996   5.318 -2.7121  0.1848  2.5796
   92MOL0     H12404  10.084   2.284   5.465  1.3809  0.6061  1.0300
   92MOL0     H12405   9.866   2.283   5.390  0.5578  1.3336  0.1564
   92MOL0     H12406   9.445   2.383   5.422  0.5887 -0.7616 -1.3286
   92MOL0     H12407   9.225   2.432   5.366 -0.9854  0.0841 -0.1402
   92MOL0     H12408   8.983   2.438   5.311 -1.0389  0.1265 -0.3555
   92MOL0     H12409   9.022   2.483   5.475  1.3050  1.3395 -1.8628
   92MOL0     H12410   8.776   2.377   5.360 -0.7410  2.7192 -0.7870
   92MOL0     H12411   8.795   2.542   5.420 -0.1753 -0.7105  1.6244
   92MOL0     H12412   8.790   2.482   5.643  0.7237 -0.3989  0.8025
   92MOL0     H12413   8.827   2.312   5.622 -1.1292  1.3589  3.2727
   92MOL0     H12414   8.631   2.250   5.509  0.6646  1.4957 -2.1254
   92MOL0     H12415   8.594   2.308   5.673  0.0535 -2.5122 -0.1267
   92MOL0     H12416   8.385   2.571   5.417 -2.6497 -0.4193  0.5347
   92MOL0     H12417   9.087   2.114   5.620 -1.1323  0.0748 -0.1378
   92MOL0     H12418   9.391   1.971   5.704  0.4675 -1.2233  2.8123
   92MOL0     H12419   9.379   2.102   5.820  2.5721 -1.2717 -0.8527
   92MOL0     H12420   9.233   2.021   5.782  1.4333  1.7167  3.5533
   93MOL0     O12421   0.659   7.352   2.471  0.4751 -0.9040 -0.2929
   93MOL0     C12422   0.646   7.230   2.429  0.3863 -1.1534  0.2131
   93MOL0     O12423   0.693   7.182   2.307 -0.1582 -0.1789  0.0786
   93MOL0     C12424   0.780   7.262   2.230  0.2417 -0.3996 -0.9352
   93MOL0     C12425   0.767   7.246   2.093  0.0610  0.2093  0.3717
   93MOL0     C12426   0.846   7.322   2.000  1.2582  0.3456  0.4438
   93MOL0     C12427   0.929   7.422   2.044 -0.7952  0.2310 -0.0197
   93MOL0     O12428   1.019   7.486   1.954  0.7201  0.4109 -0.8657
   93MOL0     C12429   1.138   7.553   2.016 -0.4597  0.3554 -0.1684
   93MOL0     C12430   1.229   7.578   1.904  0.7660  0.0602  0.8665
   93MOL0     C12431   1.272   7.452   1.824  0.4005  1.3736  0.0174
   93MOL0     C12432   1.373   7.365   1.911  0.0234  1.4648 -0.8507
   93MOL0     C12433   1.424   7.261   1.804  0.1084  0.0916  0.0124
   93MOL0     C12434   1.524   7.181   1.888  0.8070 -0.1815 -0.8554
   93MOL0     C12435   1.586   7.055   1.811 -0.0918  0.2417  0.1376
   93MOL0     C12436   1.528   6.907   1.831  0.0605  0.2090 -0.1899
   93MOL0     N12437   1.566   6.819   1.943  0.0157  0.6788  0.3993
   93MOL0     C12438   1.692   6.831   2.000  0.2986 -0.3063  0.3884
   93MOL0     C12439   1.674   6.749   2.109  0.1892  0.2752 -0.1991
   93MOL0     C12440   1.778   6.733   2.220 -0.0890 -0.0297 -0.3826
   93MOL0     C12441   1.902   6.648   2.205  0.4321  0.6390  0.2113
   93MOL0     C12442   2.019   6.703   2.285  0.7588 -1.2878  0.6658
   93MOL0     C12443   2.153   6.659   2.228 -1.0156  0.3182 -0.5689
   93MOL0     O12444   2.167   6.688   2.075  0.3759 -0.0321 -0.6673
   93MOL0     C12445   2.286   6.657   2.018  0.3472 -0.1162  0.1040
   93MOL0     C12446   2.355   6.543   2.032 -0.9931  0.7544 -0.0411
   93MOL0     C12447   2.478   6.532   1.975 -0.2209  0.4234 -0.2281
   93MOL0     C12448   2.540   6.625   1.902 -0.2014  0.2575  0.5473
   93MOL0     C12449   2.670   6.604   1.844 -0.2488 -0.3869  0.3692
   93MOL0     O12450   2.722   6.478   1.865  0.1170 -0.3199  0.4533
   93MOL0     C12451   2.834   6.430   1.803  0.0085 -0.1693  0.0666
   93MOL0     C12452   2.909   6.345   1.885 -0.2213 -0.4124  0.2097
   93MOL0     C12453   3.024   6.300   1.828 -0.4536  0.4981 -0.3890
   93MOL0     C12454   3.063   6.334   1.696  0.3734 -0.3396 -0.2171
   93MOL0     O12455   3.163   6.260   1.642  0.0817  0.7436 -0.7851
   93MOL0     C12456   3.205   6.273   1.509  0.3928 -0.1182  1.2615
   93MOL0     C12457   3.308   6.179   1.483  0.4660 -0.1414 -0.8257
   93MOL0     C12458   3.371   6.211   1.340 -0.1259  0.3031  0.0504
   93MOL0     C12459   3.492   6.117   1.309  0.1577  0.0499  0.3877
   93MOL0     C12460   3.560   6.160   1.175  0.4418  0.0064 -0.0257
   93MOL0     C12461   3.639   6.049   1.130  0.4386  0.2962  0.7006
   93MOL0     C12462   3.747   5.997   1.225  0.5281  0.2272  0.3765
   93MOL0     C12463   3.828   5.885   1.155 -0.0621 -0.3121 -0.2712
   93MOL0    Cl12464   3.712   5.748   1.117  0.0495  0.1914 -0.5788
   93MOL0     C12465   2.978   6.420   1.620 -0.4922  0.0291  0.3784
   93MOL0     C12466   2.861   6.465   1.670 -0.4566 -0.3280 -0.0559
   93MOL0     O12467   2.727   6.703   1.789 -0.0850  0.0590  0.1975
   93MOL0     C12468   2.459   6.742   1.869 -0.2163 -0.2361 -0.4061
   93MOL0     C12469   2.343   6.759   1.938  0.4208  0.3731  0.5313
   93MOL0     N12470   1.551   6.687   2.105  0.3365 -0.2673  0.3408
   93MOL0     N12471   1.486   6.726   2.005  0.5176  0.2876  0.3319
   93MOL0     C12472   0.950   7.431   2.181  0.1773  0.5398 -0.3682
   93MOL0     C12473   0.882   7.350   2.269 -0.3234 -0.2902 -0.2411
   93MOL0     C12474   0.562   7.132   2.499 -0.3145 -0.5107 -0.0526
   93MOL0     C12475   0.560   7.003   2.446  0.6317 -0.1830  0.2020
   93MOL0     C12476   0.493   6.899   2.508 -0.8969  0.3448 -0.2879
   93MOL0     C12477   0.411   6.918   2.618  0.6862  0.0291  0.3200
   93MOL0     O12478   0.353   6.811   2.676 -0.1808  0.1997  0.7954
   93MOL0     C12479   0.269   6.829   2.782  0.1643 -0.3187 -0.2536
   93MOL0     C12480   0.351   6.838   2.923  0.4896 -0.6621  0.7906
   93MOL0     C12481   0.248   6.854   3.041 -0.3989 -0.1622  0.0793
   93MOL0     C12482   0.244   6.738   3.149  0.1217 -0.0702  0.2161
   93MOL0     C12483   0.213   6.786   3.283  0.5848  0.4954 -0.9193
   93MOL0     C12484   0.162   6.829   3.385 -0.1400  0.6056 -0.6182
   93MOL0     C12485   0.414   7.052   2.667  1.1113  0.6910 -0.3798
   93MOL0     C12486   0.481   7.152   2.613 -0.7225  0.5335 -0.2905
   93MOL0     C12487   0.480   7.274   2.691 -0.1177 -0.4903  0.7181
   93MOL0     H12488   0.677   7.194   2.059 -0.8642  0.8818  1.6849
   93MOL0     H12489   0.833   7.286   1.898  0.9140 -0.2853  0.7014
   93MOL0     H12490   1.097   7.644   2.060 -2.0561 -0.2192 -0.3732
   93MOL0     H12491   1.188   7.494   2.093  2.1702  1.2646 -1.0928
   93MOL0     H12492   1.318   7.641   1.919  0.0723  1.3243 -0.0815
   93MOL0     H12493   1.159   7.627   1.835  0.7933  0.0742  0.8490
   93MOL0     H12494   1.327   7.490   1.737  0.4699  1.2731  0.0180
   93MOL0     H12495   1.187   7.388   1.801  0.9858 -0.3583  2.3276
   93MOL0     H12496   1.462   7.421   1.942  0.8621  0.0184 -0.5224
   93MOL0     H12497   1.325   7.303   1.987  1.1382 -1.8145 -2.6403
   93MOL0     H12498   1.336   7.203   1.775  1.2114 -1.3354 -0.6367
   93MOL0     H12499   1.467   7.306   1.714  0.8064  2.1128  1.3058
   93MOL0     H12500   1.609   7.248   1.902 -0.0915  0.6929  0.7315
   93MOL0     H12501   1.500   7.154   1.992  2.1641 -0.3947 -0.5757
   93MOL0     H12502   1.689   7.048   1.845 -1.2879 -3.5136  3.8699
   93MOL0     H12503   1.588   7.077   1.704 -0.6428  2.6430  0.5490
   93MOL0     H12504   1.420   6.913   1.845 -0.3162 -4.1679  0.1704
   93MOL0     H12505   1.547   6.855   1.737  1.2050  2.8301 -1.5070
   93MOL0     H12506   1.777   6.888   1.965 -1.0523  1.0258 -0.8420
   93MOL0     H12507   1.805   6.836   2.244  0.1218  0.1415 -1.2911
   93MOL0     H12508   1.716   6.702   2.304 -0.5233  3.2253  0.6552
   93MOL0     H12509   1.882   6.547   2.244  1.0988  0.5754  0.4065
   93MOL0     H12510   1.937   6.650   2.102 -0.0433  4.2663  0.0269
   93MOL0     H12511   2.018   6.669   2.389 -0.9963 -2.9666  0.1669
   93MOL0     H12512   2.019   6.812   2.295 -1.7492 -0.7936 -2.7051
   93MOL0     H12513   2.170   6.554   2.253 -1.3152  0.5508  0.6911
   93MOL0     H12514   2.233   6.702   2.290 -1.0370 -1.2627  0.5835
   93MOL0     H12515   2.315   6.456   2.085  1.3848  1.1838  2.6884
   93MOL0     H12516   2.521   6.435   2.000 -1.5030  0.0808  0.7377
   93MOL0     H12517   2.883   6.337   1.990  0.5175 -0.7545  0.3743
   93MOL0     H12518   3.082   6.237   1.895 -0.3772  1.0607  0.0768
   93MOL0     H12519   3.128   6.254   1.434  2.6536  1.0083 -1.5364
   93MOL0     H12520   3.238   6.376   1.493  2.1137 -0.8411 -0.1139
   93MOL0     H12521   3.393   6.179   1.552  0.5254 -1.1494 -0.8811
   93MOL0     H12522   3.272   6.076   1.489 -1.0705  0.3946 -0.3525
   93MOL0     H12523   3.302   6.196   1.257  1.4025  0.1286 -1.2402
   93MOL0     H12524   3.394   6.318   1.338  1.1035  0.1238  1.7695
   93MOL0     H12525   3.452   6.017   1.289  0.9175 -0.6804  2.2584
   93MOL0     H12526   3.562   6.105   1.392  1.2910 -2.1249 -0.7986
   93MOL0     H12527   3.622   6.245   1.203 -0.3074  0.0980  1.4414
   93MOL0     H12528   3.489   6.177   1.093 -1.1705 -3.1071  0.5479
   93MOL0     H12529   3.576   5.965   1.101  0.5411 -0.5193  2.7007
   93MOL0     H12530   3.688   6.090   1.041 -1.5724 -0.9734 -1.1185
   93MOL0     H12531   3.704   5.952   1.315  0.5634  0.3781  0.4703
   93MOL0     H12532   3.820   6.076   1.248 -0.4767  2.2167 -2.6821
   93MOL0     H12533   3.871   5.927   1.063 -0.0546  2.1857  0.8004
   93MOL0     H12534   3.912   5.848   1.215  0.5943  1.8862  0.2581
   93MOL0     H12535   3.005   6.443   1.518  1.4853 -1.2858  0.5443
   93MOL0     H12536   2.793   6.513   1.601 -1.4353 -2.1455 -0.4302
   93MOL0     H12537   2.493   6.826   1.809 -1.2345  0.8685  0.5144
   93MOL0     H12538   2.289   6.852   1.924  0.5928  0.0412 -3.2590
   93MOL0     H12539   1.019   7.494   2.234 -1.0701  0.0210  1.9940
   93MOL0     H12540   0.892   7.372   2.375 -0.2259  0.7044 -0.4388
   93MOL0     H12541   0.599   6.986   2.346  1.1342 -0.3388  0.4188
   93MOL0     H12542   0.505   6.795   2.480  2.9072  0.9456 -1.4169
   93MOL0     H12543   0.221   6.733   2.804  3.3775 -1.9767  0.1548
   93MOL0     H12544   0.188   6.900   2.767  1.7620  1.8218  0.6162
   93MOL0     H12545   0.413   6.928   2.918  0.8679 -0.9316  0.5293
   93MOL0     H12546   0.422   6.754   2.933  1.8805  0.7009  3.2707
   93MOL0     H12547   0.145   6.848   3.004 -1.6789 -0.7255  3.3710
   93MOL0     H12548   0.251   6.954   3.086 -0.5715 -0.1331  0.0293
   93MOL0     H12549   0.181   6.652   3.127  0.8373 -0.9007  1.3039
   93MOL0     H12550   0.346   6.697   3.155  0.0040 -0.2946  0.7042
   93MOL0     H12551   0.137   6.869   3.482  1.2666 -1.0650  0.4870
   93MOL0     H12552   0.350   7.078   2.750 -1.3511 -3.4749 -0.6871
   93MOL0     H12553   0.433   7.348   2.626  0.2396 -1.6060 -0.8598
   93MOL0     H12554   0.424   7.277   2.785 -0.8575  2.1057  0.2758
   93MOL0     H12555   0.585   7.290   2.716 -0.4058 -1.6154  2.8425
   94MOL0     O12556   6.080   2.487   2.736 -0.1509  0.1604 -0.3275
   94MOL0     C12557   6.003   2.580   2.715 -0.2899 -0.2642 -0.0768
   94MOL0     O12558   6.018   2.685   2.626 -0.3828 -0.2552 -0.7462
   94MOL0     C12559   6.131   2.710   2.555  0.4269  0.0271  0.1153
   94MOL0     C12560   6.110   2.804   2.460 -1.1101  0.3391  1.1185
   94MOL0     C12561   6.220   2.842   2.366 -0.0793  0.9204 -0.8960
   94MOL0     C12562   6.345   2.781   2.380  0.1133  0.2114  0.1110
   94MOL0     O12563   6.438   2.825   2.290  0.1088  0.1485 -0.0903
   94MOL0     C12564   6.546   2.898   2.336 -0.0901 -0.0574 -0.4318
   94MOL0     C12565   6.676   2.853   2.285  0.0706  0.0734  0.7644
   94MOL0     C12566   6.718   2.710   2.334  0.3249 -0.8080  0.2862
   94MOL0     C12567   6.862   2.673   2.335  0.1999 -0.3803  0.7188
   94MOL0     C12568   6.959   2.769   2.407 -0.0540  1.0746  0.4630
   94MOL0     C12569   7.111   2.737   2.385  0.2721 -0.0621  0.2923
   94MOL0     C12570   7.164   2.629   2.479 -0.7004  0.3589 -0.6402
   94MOL0     C12571   7.303   2.576   2.433  0.4210 -0.6334  0.4284
   94MOL0     N12572   7.349   2.453   2.497 -0.2205 -0.5820 -0.0987
   94MOL0     C12573   7.421   2.353   2.436  1.0191  0.4258 -0.6441
   94MOL0     C12574   7.450   2.270   2.538 -0.1737 -0.4859  0.5745
   94MOL0     C12575   7.527   2.144   2.522  0.5223  0.4112 -0.7661
   94MOL0     C12576   7.681   2.162   2.550 -0.5734  0.2398  0.4886
   94MOL0     C12577   7.699   2.237   2.684  0.4940  0.8307 -0.3129
   94MOL0     C12578   7.845   2.259   2.710  0.7888  0.9723  0.1780
   94MOL0     O12579   7.895   2.334   2.599 -0.0766  0.1895 -0.2159
   94MOL0     C12580   8.018   2.388   2.616  0.8107  0.1716  0.3603
   94MOL0     C12581   8.082   2.431   2.500 -0.1126 -0.6107  0.6043
   94MOL0     C12582   8.209   2.491   2.503  0.5645  0.0591 -0.1477
   94MOL0     C12583   8.281   2.494   2.621 -0.1636 -0.0141  0.0053
   94MOL0     C12584   8.415   2.566   2.626 -0.1275 -0.0572  0.8849
   94MOL0     O12585   8.471   2.590   2.499 -0.0979 -0.4782 -0.5647
   94MOL0     C12586   8.590   2.660   2.499 -0.9397  0.9462 -0.3858
   94MOL0     C12587   8.603   2.784   2.441  1.3149  0.2370  0.0421
   94MOL0     C12588   8.724   2.849   2.443  0.0581  0.0296 -1.2251
   94MOL0     C12589   8.836   2.798   2.505  0.2523 -0.4745  0.0247
   94MOL0     O12590   8.950   2.870   2.493  0.1892  0.2587 -0.1833
   94MOL0     C12591   9.073   2.797   2.461  1.1764 -0.4941 -0.9358
   94MOL0     C12592   9.169   2.905   2.425  0.0640 -0.0459 -0.7841
   94MOL0     C12593   9.320   2.872   2.416  0.2230 -0.1976 -0.4589
   94MOL0     C12594   9.405   3.007   2.394  0.8568 -0.5501 -0.6199
   94MOL0     C12595   9.549   2.986   2.424  0.1900 -0.3310  0.8804
   94MOL0     C12596   9.587   3.015   2.568  0.3385  0.8060  0.1534
   94MOL0     C12597   9.737   3.002   2.607  0.5683  0.5567  0.6905
   94MOL0     C12598   9.775   3.056   2.741  0.0375 -0.4783 -0.5330
   94MOL0    Cl12599   9.946   3.038   2.777 -0.1169  0.3550 -0.0030
   94MOL0     C12600   8.825   2.670   2.560 -0.2829  1.0882  0.4997
   94MOL0     C12601   8.702   2.599   2.553  0.5838  0.7049  0.4568
   94MOL0     O12602   8.462   2.600   2.733  0.0959 -0.7475  0.2681
   94MOL0     C12603   8.222   2.448   2.737  0.2765 -1.4997  0.2330
   94MOL0     C12604   8.093   2.386   2.737 -0.0485 -0.2184  0.5215
   94MOL0     N12605   7.403   2.321   2.658  0.1508  0.4554  0.1262
   94MOL0     N12606   7.339   2.429   2.631  0.2277  0.7376 -0.1941
   94MOL0     C12607   6.362   2.686   2.483 -0.9269  0.3526 -0.0980
   94MOL0     C12608   6.260   2.658   2.574 -1.3747 -0.0839  0.0900
   94MOL0     C12609   5.873   2.557   2.783  0.8273  0.0506 -0.0008
   94MOL0     C12610   5.883   2.534   2.920  0.5207  0.0863  0.7194
   94MOL0     C12611   5.772   2.489   2.983 -0.3568 -0.1431  0.7320
   94MOL0     C12612   5.650   2.466   2.914 -0.2937  0.4221  0.2431
   94MOL0     O12613   5.546   2.421   2.993  0.5406  0.3973 -0.1090
   94MOL0     C12614   5.409   2.410   2.938  0.6052  0.5332 -0.5854
   94MOL0     C12615   5.383   2.277   2.868  0.3778 -0.1648 -0.4440
   94MOL0     C12616   5.232   2.270   2.821  0.1112 -0.3833 -0.7628
   94MOL0     C12617   5.203   2.137   2.788 -0.1105 -0.1362 -0.4425
   94MOL0     C12618   5.091   2.126   2.697 -0.2712 -0.5186  0.1915
   94MOL0     C12619   5.009   2.119   2.610  0.0657  0.4041 -1.0027
   94MOL0     C12620   5.643   2.493   2.779  0.0342  0.4129  0.1151
   94MOL0     C12621   5.754   2.540   2.713 -1.1285  0.5403 -0.1188
   94MOL0     C12622   5.744   2.584   2.566 -0.1057  0.3577 -1.2246
   94MOL0     H12623   6.011   2.847   2.451 -0.4756  1.6657  0.1649
   94MOL0     H12624   6.191   2.913   2.289 -1.6690 -0.6692 -1.8376
   94MOL0     H12625   6.536   3.001   2.302  2.5663  0.5620  0.4097
   94MOL0     H12626   6.550   2.901   2.445  0.5036  0.8166 -0.4683
   94MOL0     H12627   6.743   2.934   2.316  2.7368 -0.9394 -1.8546
   94MOL0     H12628   6.665   2.849   2.176 -0.4180  3.1436  0.6300
   94MOL0     H12629   6.671   2.646   2.259 -1.9867  3.0539 -1.8480
   94MOL0     H12630   6.670   2.686   2.429  0.7414 -3.1668 -0.0199
   94MOL0     H12631   6.875   2.569   2.364  0.1085 -0.3162  0.9936
   94MOL0     H12632   6.887   2.677   2.228 -0.6196  2.3414  0.5407
   94MOL0     H12633   6.945   2.870   2.365  3.1295  1.3282 -0.2326
   94MOL0     H12634   6.922   2.767   2.510 -2.8676 -2.3525 -0.4167
   94MOL0     H12635   7.138   2.715   2.281  3.7400  0.6724  0.9324
   94MOL0     H12636   7.158   2.827   2.424 -0.9655  0.9093 -0.3732
   94MOL0     H12637   7.098   2.542   2.475 -1.0030  0.2415  2.9788
   94MOL0     H12638   7.172   2.660   2.584  1.3000 -2.9379  0.3247
   94MOL0     H12639   7.293   2.556   2.326  0.1111  1.4633  0.0162
   94MOL0     H12640   7.372   2.660   2.444  2.9061 -2.5931  0.6838
   94MOL0     H12641   7.452   2.341   2.333 -2.9451 -2.4300 -1.7457
   94MOL0     H12642   7.478   2.073   2.590  2.5944  1.0337  1.5268
   94MOL0     H12643   7.515   2.107   2.420 -2.2036 -1.1396  0.0202
   94MOL0     H12644   7.733   2.066   2.543 -1.0949 -0.0722  0.7864
   94MOL0     H12645   7.718   2.225   2.469 -1.9469 -0.1709 -0.4993
   94MOL0     H12646   7.659   2.179   2.768  4.4939 -1.1631  0.4819
   94MOL0     H12647   7.654   2.336   2.687 -1.7815 -0.1487 -0.0987
   94MOL0     H12648   7.905   2.170   2.733 -1.8696 -1.3550 -1.2265
   94MOL0     H12649   7.846   2.311   2.806 -2.2900  1.6471 -0.0377
   94MOL0     H12650   8.027   2.429   2.406  0.8157 -0.1115  0.0302
   94MOL0     H12651   8.250   2.541   2.415 -0.4826  1.2498  0.0032
   94MOL0     H12652   8.518   2.820   2.384 -0.0194 -2.6059  0.0478
   94MOL0     H12653   8.748   2.950   2.412  0.9277  1.0313  2.2542
   94MOL0     H12654   9.118   2.737   2.541 -1.4659 -1.5141 -0.0954
   94MOL0     H12655   9.047   2.728   2.380  0.6343  0.3012 -1.4427
   94MOL0     H12656   9.143   2.950   2.329 -1.1036  2.6857  0.7268
   94MOL0     H12657   9.155   2.979   2.504  1.0894  0.6222 -1.2076
   94MOL0     H12658   9.341   2.831   2.516 -4.4023  4.0913  2.7655
   94MOL0     H12659   9.340   2.804   2.333  1.1078 -2.4152  1.4610
   94MOL0     H12660   9.353   3.084   2.452  0.7360 -1.0169 -0.0963
   94MOL0     H12661   9.405   3.030   2.287  0.2290 -2.1590 -1.0012
   94MOL0     H12662   9.618   3.037   2.355 -2.0547 -0.2799 -1.5074
   94MOL0     H12663   9.570   2.879   2.420  1.1982 -0.1335  0.6817
   94MOL0     H12664   9.550   3.113   2.599 -1.1454 -0.0225  1.1400
   94MOL0     H12665   9.531   2.939   2.624 -0.6751  1.5165  0.1256
   94MOL0     H12666   9.799   3.053   2.533  1.7018 -0.5252  0.8515
   94MOL0     H12667   9.764   2.896   2.597 -2.1476 -0.1980  0.6165
   94MOL0     H12668   9.754   3.164   2.744  0.0349 -0.4991  0.3222
   94MOL0     H12669   9.711   3.005   2.813 -0.6185 -2.2328 -2.2864
   94MOL0     H12670   8.916   2.629   2.603 -1.3642  0.3164  2.1493
   94MOL0     H12671   8.703   2.502   2.600  2.8666 -1.0110 -2.7381
   94MOL0     H12672   8.270   2.448   2.835  1.6032 -1.0461 -0.3983
   94MOL0     H12673   8.059   2.341   2.829 -0.5035  0.2147  0.5717
   94MOL0     H12674   6.461   2.644   2.494 -0.3723  1.8827  1.1667
   94MOL0     H12675   6.286   2.593   2.656  0.1173  0.6225  0.2183
   94MOL0     H12676   5.976   2.554   2.972  0.3669 -0.9981  1.4280
   94MOL0     H12677   5.788   2.471   3.089 -2.7136 -0.1659  1.1505
   94MOL0     H12678   5.380   2.491   2.870  0.7056 -0.1297 -1.4364
   94MOL0     H12679   5.345   2.422   3.026 -0.5475  2.1405 -1.5981
   94MOL0     H12680   5.420   2.205   2.941  1.3855  0.5241 -0.2491
   94MOL0     H12681   5.448   2.259   2.782  0.0853 -3.0830 -0.1378
   94MOL0     H12682   5.210   2.334   2.736 -1.7308  0.5602  0.3553
   94MOL0     H12683   5.161   2.300   2.900 -1.7208 -2.3077 -1.5832
   94MOL0     H12684   5.293   2.092   2.743 -0.7128 -0.8570 -0.9532
   94MOL0     H12685   5.178   2.088   2.883 -2.2262  2.4588  0.4338
   94MOL0     H12686   4.929   2.120   2.539 -1.4088  0.7433  0.5933
   94MOL0     H12687   5.552   2.469   2.724  0.9121 -2.2428 -0.2833
   94MOL0     H12688   5.642   2.557   2.535 -0.5789 -0.2948  0.7589
   94MOL0     H12689   5.754   2.693   2.565 -2.3522  0.6613  0.5782
   94MOL0     H12690   5.817   2.530   2.505  0.5364  0.2226 -0.3511
   95MOL0     O12691   1.279   6.692   8.941 -0.7218 -0.3970 -0.0425
   95MOL0     C12692   1.158   6.659   8.928 -0.0670 -0.0542 -0.5905
   95MOL0     O12693   1.057   6.741   8.945 -0.2372 -0.1977  0.5625
   95MOL0     C12694   1.073   6.877   8.941 -0.0875  0.0010 -0.8183
   95MOL0     C12695   1.087   6.947   9.065 -0.3695 -0.5168 -0.5425
   95MOL0     C12696   1.088   7.087   9.067 -0.3372  0.8701 -0.2392
   95MOL0     C12697   1.096   7.156   8.944 -0.0113  0.2887  0.2321
   95MOL0     O12698   1.115   7.289   8.945  0.6280  0.5523 -0.6857
   95MOL0     C12699   1.178   7.348   8.833 -0.3714  0.6674 -0.1663
   95MOL0     C12700   1.084   7.404   8.731  0.5061 -0.1529  0.9552
   95MOL0     C12701   1.160   7.478   8.618  0.2658  0.2974 -0.1657
   95MOL0     C12702   1.261   7.374   8.564  0.1701 -0.7525  0.1771
   95MOL0     C12703   1.317   7.397   8.422  0.3768  0.2717 -0.3870
   95MOL0     C12704   1.401   7.518   8.399  0.3884 -1.0429 -0.2246
   95MOL0     C12705   1.460   7.516   8.252 -1.0590 -0.2508  0.5961
   95MOL0     C12706   1.533   7.648   8.212  0.3788  0.3738  0.1960
   95MOL0     N12707   1.610   7.621   8.091 -0.8342 -1.4238  0.3002
   95MOL0     C12708   1.746   7.641   8.081  0.4989  1.3245  0.2542
   95MOL0     C12709   1.771   7.616   7.952  0.5256  0.0034 -0.0874
   95MOL0     C12710   1.899   7.647   7.882 -0.3765  0.1699  0.6437
   95MOL0     C12711   2.013   7.538   7.902  0.5178  0.0446  0.8082
   95MOL0     C12712   2.111   7.557   8.019 -0.6322 -0.4431  0.9022
   95MOL0     C12713   2.189   7.689   8.009 -0.0318 -0.2840 -0.0983
   95MOL0     O12714   2.296   7.671   8.102  0.3497 -0.2913  0.4322
   95MOL0     C12715   2.378   7.783   8.128 -0.4488  0.9922 -1.3842
   95MOL0     C12716   2.499   7.756   8.190  0.3325  0.1758  0.1191
   95MOL0     C12717   2.601   7.849   8.221  0.2349 -0.6639  1.0252
   95MOL0     C12718   2.589   7.984   8.182  0.2711  0.4099  0.7134
   95MOL0     C12719   2.697   8.083   8.197  0.0845  0.4808 -0.0001
   95MOL0     O12720   2.814   8.038   8.231 -0.5954 -0.2151  0.1820
   95MOL0     C12721   2.927   8.127   8.243 -0.2333 -0.1462  0.2981
   95MOL0     C12722   2.994   8.128   8.371 -0.6763 -0.1720  0.3850
   95MOL0     C12723   3.107   8.213   8.377  0.2654  0.3438 -0.2663
   95MOL0     C12724   3.151   8.293   8.275 -0.6957  0.4268  1.0885
   95MOL0     O12725   3.263   8.365   8.297  0.0795 -0.0051  0.2089
   95MOL0     C12726   3.227   8.491   8.364 -0.6717 -0.0864 -1.1489
   95MOL0     C12727   3.143   8.598   8.290 -1.1315 -0.1531 -0.6579
   95MOL0     C12728   3.211   8.646   8.160 -0.9279  0.4698 -0.8774
   95MOL0     C12729   3.245   8.793   8.158 -1.0243 -0.3579 -0.4629
   95MOL0     C12730   3.314   8.816   8.021 -0.3481 -0.6894  0.5012
   95MOL0     C12731   3.304   8.964   7.980 -0.1893  0.6260  0.4265
   95MOL0     C12732   3.169   9.000   7.918  0.2743 -0.5966 -0.0904
   95MOL0     C12733   3.180   8.980   7.769  0.0529  0.4821  0.3390
   95MOL0    Cl12734   3.303   9.080   7.686  0.0132  0.3439  0.8834
   95MOL0     C12735   3.096   8.278   8.151  0.7437 -0.2907  0.2123
   95MOL0     C12736   2.982   8.197   8.136  0.3605  0.3850 -0.2950
   95MOL0     O12737   2.664   8.200   8.173  0.1865  0.0072  0.6108
   95MOL0     C12738   2.469   8.011   8.105  0.1449  1.1324 -0.0296
   95MOL0     C12739   2.358   7.919   8.089  0.7551  0.3950 -0.0640
   95MOL0     N12740   1.650   7.579   7.893 -0.3185  0.1929 -0.2227
   95MOL0     N12741   1.559   7.570   7.976 -0.3725 -0.1654  0.5848
   95MOL0     C12742   1.068   7.086   8.828  0.3502 -0.7270 -0.6267
   95MOL0     C12743   1.057   6.949   8.832  0.1504 -0.1340  0.1699
   95MOL0     C12744   1.116   6.530   8.865 -0.0843 -0.6670 -0.9193
   95MOL0     C12745   0.997   6.532   8.796  0.3177 -0.1955 -0.0327
   95MOL0     C12746   0.928   6.419   8.754 -0.2552 -0.2019 -0.4110
   95MOL0     C12747   0.988   6.292   8.771  0.2133  0.5066 -0.1540
   95MOL0     O12748   0.911   6.195   8.723 -0.1680 -0.0542  0.4375
   95MOL0     C12749   0.951   6.056   8.754  0.0453  0.4016  0.5498
   95MOL0     C12750   0.870   5.958   8.678  0.5018 -0.2619  0.2336
   95MOL0     C12751   0.726   5.964   8.742 -0.1581 -0.6171 -0.2559
   95MOL0     C12752   0.642   5.852   8.681  0.1241 -0.3995  0.3273
   95MOL0     C12753   0.646   5.853   8.532 -0.6358 -0.4634 -1.2932
   95MOL0     C12754   0.669   5.863   8.415  0.3733  0.1573  0.3823
   95MOL0     C12755   1.106   6.284   8.848  0.0773  0.2867 -0.3082
   95MOL0     C12756   1.166   6.405   8.900  0.5611  0.2789  0.2507
   95MOL0     C12757   1.283   6.398   8.994  0.6721 -0.2732 -0.6705
   95MOL0     H12758   1.111   6.897   9.159 -2.2590  1.2491  0.9868
   95MOL0     H12759   1.098   7.138   9.162  1.5895  0.2079 -0.0469
   95MOL0     H12760   1.238   7.429   8.876 -0.2898 -0.4939  2.0745
   95MOL0     H12761   1.243   7.277   8.781  1.5648  1.5303  0.9733
   95MOL0     H12762   1.022   7.478   8.784  2.4824  2.9687 -0.7717
   95MOL0     H12763   1.020   7.327   8.687 -0.7133  1.3297 -0.0060
   95MOL0     H12764   1.211   7.568   8.657  0.7591  0.5751 -1.4093
   95MOL0     H12765   1.085   7.500   8.542  0.2968  4.5140  0.7718
   95MOL0     H12766   1.348   7.354   8.628  0.5252  0.7136  0.1865
   95MOL0     H12767   1.213   7.276   8.552 -2.0633  0.4933 -1.9781
   95MOL0     H12768   1.381   7.309   8.414 -1.7496 -1.6478  2.1695
   95MOL0     H12769   1.237   7.402   8.347 -0.1363  0.8023  0.1904
   95MOL0     H12770   1.343   7.608   8.421 -0.7993 -1.5166 -1.2739
   95MOL0     H12771   1.470   7.513   8.484  0.0528  2.8884  0.4410
   95MOL0     H12772   1.379   7.505   8.180  0.8546  1.0485 -1.9402
   95MOL0     H12773   1.526   7.429   8.241 -3.5996 -2.0791 -1.1817
   95MOL0     H12774   1.463   7.729   8.192  3.0961  2.4165 -1.7346
   95MOL0     H12775   1.589   7.664   8.305 -2.0412 -4.6496  2.9347
   95MOL0     H12776   1.816   7.685   8.152  0.4598  2.9343 -0.6629
   95MOL0     H12777   1.868   7.651   7.777 -1.1621 -0.2060  0.8505
   95MOL0     H12778   1.938   7.739   7.928 -3.0778  0.3693  2.8345
   95MOL0     H12779   1.959   7.443   7.898 -1.2115  0.9782  0.8118
   95MOL0     H12780   2.071   7.530   7.810  1.2147 -1.7956  1.3649
   95MOL0     H12781   2.188   7.481   8.002 -1.3826 -1.3181  1.2689
   95MOL0     H12782   2.068   7.542   8.119  1.5822  0.9152  2.1436
   95MOL0     H12783   2.127   7.773   8.041  0.9737  0.5191 -0.2266
   95MOL0     H12784   2.221   7.703   7.905 -1.5497  0.3016 -0.5100
   95MOL0     H12785   2.526   7.657   8.226  2.4882  0.9159  0.7181
   95MOL0     H12786   2.693   7.822   8.272  0.1385  0.1265  1.6388
   95MOL0     H12787   2.977   8.067   8.460  0.4766  1.7605  2.0056
   95MOL0     H12788   3.166   8.197   8.466 -2.8311 -2.1049  1.5636
   95MOL0     H12789   3.171   8.466   8.455 -2.0207 -0.2317 -1.9914
   95MOL0     H12790   3.322   8.540   8.387  0.5964 -2.5533 -0.7381
   95MOL0     H12791   3.043   8.559   8.272 -1.7856  1.1442 -0.0024
   95MOL0     H12792   3.113   8.683   8.353 -0.2012 -0.2992  0.0035
   95MOL0     H12793   3.307   8.596   8.146 -0.5899  0.4079  1.2821
   95MOL0     H12794   3.144   8.631   8.075 -3.0598  2.9053  0.2308
   95MOL0     H12795   3.309   8.826   8.240 -0.3456  1.3338 -1.6183
   95MOL0     H12796   3.152   8.851   8.165  1.0399  3.0674  1.5698
   95MOL0     H12797   3.266   8.747   7.951 -0.7308 -1.2116  1.2723
   95MOL0     H12798   3.418   8.785   8.037  0.2754  1.2085  0.4603
   95MOL0     H12799   3.317   9.031   8.065  0.6556  1.3347 -0.2451
   95MOL0     H12800   3.388   8.986   7.914  1.7488 -0.8637  2.2544
   95MOL0     H12801   3.151   9.105   7.942 -1.3748 -0.9297  0.2432
   95MOL0     H12802   3.090   8.953   7.976  0.7342 -1.0194  0.2001
   95MOL0     H12803   3.202   8.873   7.756 -0.5775  0.5402 -1.3319
   95MOL0     H12804   3.086   8.998   7.717  1.7657 -0.3378 -3.3953
   95MOL0     H12805   3.140   8.322   8.062 -1.5515 -0.7325 -1.2108
   95MOL0     H12806   2.953   8.162   8.038  2.9620 -2.5753 -0.1756
   95MOL0     H12807   2.455   8.114   8.075 -0.0207  0.9253 -0.6828
   95MOL0     H12808   2.269   7.955   8.039 -1.1536  0.0232  2.8290
   95MOL0     H12809   1.072   7.134   8.730  1.3706  0.9864  0.1999
   95MOL0     H12810   1.028   6.898   8.741 -0.4099  0.5803 -0.0569
   95MOL0     H12811   0.953   6.625   8.762 -0.0254  0.2773  1.6247
   95MOL0     H12812   0.842   6.438   8.691 -0.5978  0.0975  0.1431
   95MOL0     H12813   0.932   6.042   8.861  3.2701 -0.2033  1.1317
   95MOL0     H12814   1.056   6.038   8.733  0.1329  0.1488  1.1826
   95MOL0     H12815   0.926   5.866   8.697 -0.9901 -1.3966 -0.7107
   95MOL0     H12816   0.869   5.983   8.572 -0.6590  2.1721  0.7441
   95MOL0     H12817   0.673   6.057   8.717 -1.9333 -0.9499  1.9632
   95MOL0     H12818   0.728   5.948   8.850  1.7868 -2.9415 -0.5664
   95MOL0     H12819   0.678   5.756   8.721  0.0319 -1.4874 -2.0582
   95MOL0     H12820   0.537   5.856   8.710 -0.1246 -0.8860 -0.4647
   95MOL0     H12821   0.696   5.859   8.311 -2.0040  0.5214 -0.2939
   95MOL0     H12822   1.158   6.192   8.872  0.7040  1.3022  2.6913
   95MOL0     H12823   1.341   6.488   9.016 -0.0370  0.4289 -1.6011
   95MOL0     H12824   1.240   6.364   9.089 -2.6375  3.2309 -0.6864
   95MOL0     H12825   1.355   6.322   8.961  1.0766  0.0248 -0.4798
   96MOL0     O12826  10.878   5.860   2.060 -0.4760  0.8468 -0.1627
   96MOL0     C12827  10.843   5.863   2.180  1.7284  0.3283  0.2929
   96MOL0     O12828  10.917   5.884   2.284 -0.0664  0.3499  0.0593
   96MOL0     C12829  11.046   5.935   2.276  0.4185 -0.7303  0.9531
   96MOL0     C12830  11.076   6.052   2.205 -0.5871  0.2713 -0.1456
   96MOL0     C12831  11.202   6.114   2.208  0.6306  0.1047  0.1173
   96MOL0     C12832  11.307   6.058   2.288 -0.7724  0.2647 -0.2867
   96MOL0     O12833  11.436   6.118   2.288  0.4030 -0.5995  1.0317
   96MOL0     C12834  11.545   6.048   2.350 -0.2639 -0.3570 -0.3370
   96MOL0     C12835  11.679   6.106   2.320 -0.0290 -0.3993  0.4602
   96MOL0     C12836  11.698   6.121   2.167 -0.2760  0.1060 -0.6365
   96MOL0     C12837  11.825   6.212   2.155 -0.6529 -0.7466  0.5539
   96MOL0     C12838  11.905   6.151   2.043 -0.9235 -0.3427 -0.4537
   96MOL0     C12839  12.027   6.232   1.993  0.1392  0.3619  0.3117
   96MOL0     C12840  12.150   6.212   2.079  1.3460 -0.5716  0.0148
   96MOL0     C12841  12.266   6.314   2.064 -0.1160  0.1627 -0.3626
   96MOL0     N12842  12.320   6.297   1.927 -0.6600  0.4862  0.5132
   96MOL0     C12843  12.370   6.186   1.876 -0.3892  0.5372 -0.5602
   96MOL0     C12844  12.399   6.204   1.745 -0.3187 -0.0404  0.6502
   96MOL0     C12845  12.488   6.115   1.664  0.0237 -0.7156 -0.5307
   96MOL0     C12846  12.400   6.016   1.583 -0.4668 -0.9395  0.3455
   96MOL0     C12847  12.483   5.943   1.476 -0.6355  0.4460  0.4246
   96MOL0     C12848  12.394   5.927   1.350  0.2644 -0.6933 -0.2160
   96MOL0     O12849  12.450   5.842   1.251 -0.0307  0.5301 -0.7248
   96MOL0     C12850  12.566   5.884   1.200  0.4526 -0.1298  0.5427
   96MOL0     C12851  12.679   5.809   1.235 -1.1254 -0.1762 -0.5162
   96MOL0     C12852  12.801   5.850   1.177 -0.7680  0.3400  0.3060
   96MOL0     C12853  12.813   5.960   1.085 -0.0039  0.8244 -0.5138
   96MOL0     C12854  12.938   5.993   1.014  0.3093  0.3796 -0.2578
   96MOL0     O12855  13.051   5.911   1.034  1.0582 -0.1385 -0.4306
   96MOL0     C12856  13.158   5.933   0.957 -0.7057 -0.0723  0.2673
   96MOL0     C12857  13.199   5.834   0.864 -0.8584  1.6314  0.2097
   96MOL0     C12858  13.327   5.838   0.808  0.4167 -0.5066  0.5762
   96MOL0     C12859  13.430   5.926   0.852  1.0590 -0.1222 -0.4575
   96MOL0     O12860  13.558   5.919   0.791 -0.7765  0.5780 -0.1280
   96MOL0     C12861  13.675   5.988   0.841  0.2158 -0.1879  0.4553
   96MOL0     C12862  13.805   5.947   0.777  0.1898  0.2587 -0.3718
   96MOL0     C12863  13.913   5.978   0.870 -0.2200  0.1580 -0.7160
   96MOL0     C12864  13.960   5.858   0.952  0.2699  0.6064  0.3522
   96MOL0     C12865  14.045   5.902   1.077 -1.1602  1.1035 -0.3767
   96MOL0     C12866  14.119   5.776   1.135  1.2081 -0.0735  0.6994
   96MOL0     C12867  14.194   5.824   1.266 -0.6301 -0.0967  0.5643
   96MOL0     C12868  14.241   5.711   1.363  0.5233 -0.5595 -0.4024
   96MOL0    Cl12869  14.345   5.596   1.279  0.0747 -0.0672 -0.4350
   96MOL0     C12870  13.387   6.031   0.941  0.3263  0.3908  0.0124
   96MOL0     C12871  13.258   6.029   1.003 -0.4440  0.2704  0.1042
   96MOL0     O12872  12.938   6.088   0.934  0.2451  0.3089 -0.4846
   96MOL0     C12873  12.692   6.010   1.039  0.3537 -0.4889  0.1284
   96MOL0     C12874  12.570   5.970   1.078  1.1144  0.9974 -0.5745
   96MOL0     N12875  12.346   6.331   1.710 -0.4023  0.4386 -0.6800
   96MOL0     N12876  12.283   6.378   1.818 -0.3200 -0.1890 -0.4868
   96MOL0     C12877  11.276   5.941   2.358 -0.2206 -0.2447 -0.5529
   96MOL0     C12878  11.146   5.887   2.358 -0.3207 -0.7503 -0.9560
   96MOL0     C12879  10.708   5.813   2.204 -0.1909  0.2348 -0.3528
   96MOL0     C12880  10.653   5.722   2.115 -0.7532  1.0293 -0.4843
   96MOL0     C12881  10.529   5.675   2.139 -0.4190 -0.2292  0.3087
   96MOL0     C12882  10.455   5.723   2.248 -0.1190  0.4151  0.2812
   96MOL0     O12883  10.326   5.675   2.249 -0.0791  1.0066 -0.4337
   96MOL0     C12884  10.249   5.715   2.366  0.1524 -0.2001  0.3657
   96MOL0     C12885  10.109   5.638   2.357  0.6832  0.0075 -0.2942
   96MOL0     C12886  10.009   5.678   2.476 -1.4409  0.3539 -1.2107
   96MOL0     C12887   9.873   5.618   2.477 -0.0377  0.5333  0.6564
   96MOL0     C12888   9.785   5.667   2.370 -0.0306 -1.0490  0.3593
   96MOL0     C12889   9.707   5.691   2.287 -0.6661  0.2022 -0.9912
   96MOL0     C12890  10.509   5.815   2.331 -0.8812  0.9932 -0.0152
   96MOL0     C12891  10.639   5.864   2.314 -0.2285  0.2328 -0.1487
   96MOL0     C12892  10.677   5.990   2.399  0.0642  0.4760 -0.1572
   96MOL0     H12893  10.986   6.080   2.152  1.0790 -0.1627 -3.4593
   96MOL0     H12894  11.225   6.209   2.162  0.6879  0.1564  0.2524
   96MOL0     H12895  11.537   6.044   2.459  0.7479  2.4069 -0.0883
   96MOL0     H12896  11.555   5.944   2.318  2.1416 -0.6554  1.0944
   96MOL0     H12897  11.758   6.053   2.375 -0.6391 -0.3045  1.4367
   96MOL0     H12898  11.668   6.210   2.352 -0.3062 -0.8087  1.7441
   96MOL0     H12899  11.616   6.173   2.119  0.1992  1.0752 -0.4254
   96MOL0     H12900  11.713   6.021   2.124  0.1760 -0.2083  0.2143
   96MOL0     H12901  11.810   6.319   2.135  2.4990  0.0737  1.9821
   96MOL0     H12902  11.894   6.214   2.240  0.9809 -1.8361 -0.6907
   96MOL0     H12903  11.933   6.052   2.079 -0.0609 -0.3205 -1.0384
   96MOL0     H12904  11.843   6.150   1.952 -1.0719 -2.4597 -0.3615
   96MOL0     H12905  12.053   6.210   1.889  1.4539 -1.0095  0.8951
   96MOL0     H12906  11.988   6.334   1.988  1.2182  0.8296  1.0595
   96MOL0     H12907  12.196   6.113   2.067 -1.0589 -1.6429 -0.9823
   96MOL0     H12908  12.109   6.218   2.180  0.1224 -2.9682 -0.2603
   96MOL0     H12909  12.225   6.415   2.054  0.7470  0.4958 -0.6706
   96MOL0     H12910  12.340   6.309   2.144  0.3683  3.7598 -0.3830
   96MOL0     H12911  12.398   6.094   1.926  0.0331  0.7059 -0.4838
   96MOL0     H12912  12.548   6.173   1.594  1.7586 -2.0768 -0.2438
   96MOL0     H12913  12.562   6.061   1.724 -1.5760  0.9003  3.2663
   96MOL0     H12914  12.367   5.934   1.647 -2.9675 -1.3863 -1.3344
   96MOL0     H12915  12.310   6.069   1.549 -1.1230 -2.5782 -0.5885
   96MOL0     H12916  12.514   5.842   1.505 -2.1396 -0.9519 -2.3832
   96MOL0     H12917  12.573   5.998   1.448 -1.4948  2.1120  0.8135
   96MOL0     H12918  12.381   6.030   1.315 -0.5111  0.3893  2.9236
   96MOL0     H12919  12.302   5.876   1.380 -0.0564 -0.5148 -0.8743
   96MOL0     H12920  12.675   5.737   1.316 -0.7203  0.3378 -0.0291
   96MOL0     H12921  12.886   5.785   1.198 -2.6055 -2.9469 -1.5773
   96MOL0     H12922  13.122   5.761   0.841  1.0270 -0.8007  1.1762
   96MOL0     H12923  13.340   5.772   0.722  2.3466  0.4456  0.0704
   96MOL0     H12924  13.650   6.094   0.835 -1.7919 -0.5913  0.9668
   96MOL0     H12925  13.684   5.960   0.946  2.5055  0.0198  0.3675
   96MOL0     H12926  13.820   5.845   0.739  0.9088  0.2491 -0.0892
   96MOL0     H12927  13.827   6.004   0.687  0.9987  0.3597 -0.1220
   96MOL0     H12928  14.007   6.001   0.818  0.7797  1.6719  1.5957
   96MOL0     H12929  13.892   6.063   0.936  3.2618  0.3518  0.3332
   96MOL0     H12930  14.023   5.793   0.890 -0.5181 -0.6104  0.7975
   96MOL0     H12931  13.873   5.799   0.982  2.7729 -3.0052  1.1625
   96MOL0     H12932  13.981   5.955   1.149 -3.1370  2.0387 -2.6792
   96MOL0     H12933  14.119   5.972   1.036 -0.9467  0.0669 -1.8133
   96MOL0     H12934  14.056   5.690   1.161  0.5276 -0.0701 -0.8130
   96MOL0     H12935  14.191   5.731   1.067 -0.0702 -3.0971  1.2151
   96MOL0     H12936  14.132   5.896   1.320 -0.2418  0.6945 -0.0328
   96MOL0     H12937  14.289   5.875   1.246  0.5877 -2.2314  0.5953
   96MOL0     H12938  14.293   5.766   1.442  0.2080 -0.0154 -0.5730
   96MOL0     H12939  14.152   5.665   1.407 -0.2678  1.0698 -0.2442
   96MOL0     H12940  13.454   6.107   0.978  2.1188 -0.4118 -1.3883
   96MOL0     H12941  13.238   6.102   1.080 -0.9578  1.3659 -1.0195
   96MOL0     H12942  12.687   6.081   0.957 -3.0602  1.5103  1.8817
   96MOL0     H12943  12.477   6.015   1.044  0.6523  1.0148  0.6768
   96MOL0     H12944  11.344   5.882   2.419 -1.7814 -0.7129  0.8311
   96MOL0     H12945  11.121   5.798   2.414  2.3748 -1.0447 -0.0912
   96MOL0     H12946  10.712   5.687   2.031 -0.6804  2.8800 -1.2554
   96MOL0     H12947  10.480   5.614   2.064  2.2737 -2.6203  0.3269
   96MOL0     H12948  10.229   5.822   2.372  0.3030 -0.1851  0.6235
   96MOL0     H12949  10.301   5.687   2.458 -0.4317 -0.7033  0.5514
   96MOL0     H12950  10.113   5.530   2.341  1.3803 -0.2470  1.4509
   96MOL0     H12951  10.060   5.681   2.268  0.3481 -0.7245 -0.4722
   96MOL0     H12952  10.007   5.787   2.478  2.3844  0.5617 -1.1732
   96MOL0     H12953  10.057   5.647   2.570 -0.9810  1.6334 -1.0041
   96MOL0     H12954   9.881   5.511   2.453 -0.8411  0.5409  0.3224
   96MOL0     H12955   9.833   5.636   2.577  1.2437  0.5823  1.1690
   96MOL0     H12956   9.646   5.727   2.207 -0.9651  1.3037 -0.2908
   96MOL0     H12957  10.457   5.855   2.417 -1.0597  0.1568  0.2807
   96MOL0     H12958  10.722   5.956   2.492  0.3811 -0.0186 -0.4877
   96MOL0     H12959  10.748   6.047   2.337 -0.4991  0.2853 -0.9980
   96MOL0     H12960  10.595   6.060   2.417  0.6171  0.9793  0.4423
   97MOL0     O12961  10.751   6.425   9.015  0.4322 -0.5810 -0.0950
   97MOL0     C12962  10.832   6.396   8.930 -0.3084  1.1906 -0.2832
   97MOL0     O12963  10.816   6.399   8.797  0.0942 -0.2658 -0.1809
   97MOL0     C12964  10.694   6.409   8.732  0.6162 -0.1308 -0.3184
   97MOL0     C12965  10.571   6.359   8.787 -0.8786  0.5696  0.1983
   97MOL0     C12966  10.451   6.362   8.724  0.6252 -0.3695  0.0086
   97MOL0     C12967  10.428   6.441   8.604 -1.1304  0.0113  0.0206
   97MOL0     O12968  10.305   6.462   8.553  0.1940  0.3531  0.6363
   97MOL0     C12969  10.271   6.597   8.551 -0.1121 -0.3467 -0.5589
   97MOL0     C12970  10.131   6.610   8.499  0.0021 -0.3969  0.4931
   97MOL0     C12971  10.076   6.508   8.400  0.7255 -0.6934 -0.6552
   97MOL0     C12972   9.980   6.410   8.476 -1.6066 -0.8262  0.6476
   97MOL0     C12973   9.915   6.303   8.385  0.3663 -0.8536  0.1546
   97MOL0     C12974   9.772   6.260   8.437 -0.0436 -0.1849 -0.0923
   97MOL0     C12975   9.664   6.364   8.398 -0.4620 -0.5797 -0.7690
   97MOL0     C12976   9.531   6.290   8.419  0.8704 -0.6727  0.5935
   97MOL0     N12977   9.412   6.365   8.382 -1.0716 -0.3127  0.7839
   97MOL0     C12978   9.398   6.502   8.398  0.2013  0.4326  0.4615
   97MOL0     C12979   9.283   6.531   8.332  0.5130  0.4660 -0.8922
   97MOL0     C12980   9.209   6.656   8.335  0.0042  0.3073 -0.4416
   97MOL0     C12981   9.084   6.664   8.430 -0.1628  0.0108  0.4903
   97MOL0     C12982   9.025   6.806   8.412  1.0441 -0.0500 -0.5169
   97MOL0     C12983   8.910   6.830   8.508 -0.6620 -0.6182  0.0612
   97MOL0     O12984   8.807   6.894   8.438  0.2325 -0.1802  1.1001
   97MOL0     C12985   8.690   6.925   8.500 -0.0464 -0.9479 -0.2358
   97MOL0     C12986   8.587   6.966   8.413  0.7963 -0.0509 -0.2593
   97MOL0     C12987   8.456   7.004   8.457 -0.2109 -0.3684  0.9142
   97MOL0     C12988   8.423   6.986   8.592 -0.8539 -0.0186 -0.0387
   97MOL0     C12989   8.287   7.010   8.636  0.3736  0.3153  1.0913
   97MOL0     O12990   8.260   6.975   8.766 -0.6774 -0.7246  0.7499
   97MOL0     C12991   8.129   6.962   8.813 -0.4760 -0.2468  0.3850
   97MOL0     C12992   8.130   6.961   8.955  0.2105 -0.5729  0.8467
   97MOL0     C12993   8.011   6.949   9.033 -0.0019  0.9456  0.2886
   97MOL0     C12994   7.891   6.928   8.964  0.0763  0.2388 -0.1550
   97MOL0     O12995   7.769   6.904   9.027  0.3043 -0.9210 -0.1919
   97MOL0     C12996   7.757   6.925   9.161  0.4292 -0.3271  0.0113
   97MOL0     C12997   7.605   6.962   9.176  0.1479 -0.3813 -0.7657
   97MOL0     C12998   7.553   7.011   9.314  0.3647  0.4867 -0.5820
   97MOL0     C12999   7.401   7.038   9.298  0.1098 -0.7382 -0.6274
   97MOL0     C13000   7.328   7.005   9.434  0.5687  0.2524  0.4842
   97MOL0     C13001   7.172   7.035   9.437 -0.1557  0.5804  0.1109
   97MOL0     C13002   7.136   7.163   9.365 -0.9018 -0.2929  0.2877
   97MOL0     C13003   6.982   7.207   9.380 -0.1454 -0.0961 -0.1068
   97MOL0    Cl13004   6.879   7.085   9.288  0.2258  0.0040 -0.0152
   97MOL0     C13005   7.892   6.914   8.821  0.2889 -0.2905 -0.7940
   97MOL0     C13006   8.012   6.930   8.751  0.6208  0.3562 -0.4608
   97MOL0     O13007   8.206   7.073   8.565 -0.0066  0.3275 -0.3079
   97MOL0     C13008   8.527   6.946   8.685  0.6522 -0.0021  0.2633
   97MOL0     C13009   8.658   6.917   8.636 -0.6778  0.0200 -0.3389
   97MOL0     N13010   9.232   6.410   8.285 -0.2278  0.0182  0.1694
   97MOL0     N13011   9.308   6.314   8.311  0.5377  0.8150  0.1738
   97MOL0     C13012  10.555   6.488   8.544 -0.0703 -0.4976 -0.1922
   97MOL0     C13013  10.683   6.465   8.602 -0.2555 -0.2518 -0.3610
   97MOL0     C13014  10.956   6.342   8.988 -0.8385 -0.7104 -0.7208
   97MOL0     C13015  10.941   6.259   9.101  0.5886  0.6987 -0.6420
   97MOL0     C13016  11.044   6.182   9.149  0.1009  0.0228  0.1423
   97MOL0     C13017  11.172   6.202   9.101 -0.3859  0.3395  0.2588
   97MOL0     O13018  11.294   6.144   9.148  0.0133  0.1020  0.1559
   97MOL0     C13019  11.290   6.051   9.263 -0.6498  0.0344  0.7232
   97MOL0     C13020  11.316   6.142   9.382  1.0100 -0.0283  0.2717
   97MOL0     C13021  11.455   6.200   9.382 -1.0252 -0.7260  0.7662
   97MOL0     C13022  11.458   6.348   9.352 -0.1961  0.6783 -0.2237
   97MOL0     C13023  11.398   6.428   9.464  0.2445  0.6845 -0.2766
   97MOL0     C13024  11.345   6.498   9.544  0.0167  0.8236 -0.4892
   97MOL0     C13025  11.197   6.289   8.997  0.2224 -0.3545  0.4162
   97MOL0     C13026  11.091   6.361   8.936 -0.6860 -0.0466 -0.6616
   97MOL0     C13027  11.133   6.467   8.831 -0.0402 -0.1788  0.1156
   97MOL0     H13028  10.570   6.303   8.880  0.9395  1.4058  0.7740
   97MOL0     H13029  10.378   6.302   8.777  0.4675 -1.9286 -1.8545
   97MOL0     H13030  10.277   6.618   8.658 -1.4037 -0.0436 -0.5361
   97MOL0     H13031  10.340   6.651   8.486 -2.3531  1.1425 -1.8011
   97MOL0     H13032  10.125   6.715   8.470 -1.2093 -0.2350  1.2452
   97MOL0     H13033  10.075   6.606   8.593 -0.2551 -2.3198  0.2981
   97MOL0     H13034  10.151   6.445   8.352  0.4365 -1.8380  0.3660
   97MOL0     H13035  10.017   6.563   8.325  1.0153 -1.5047 -1.4914
   97MOL0     H13036  10.048   6.370   8.552  2.9404  3.5072 -0.5259
   97MOL0     H13037   9.898   6.447   8.538  0.0766  2.7266  1.0292
   97MOL0     H13038   9.925   6.349   8.286  5.0228  1.2006  1.2742
   97MOL0     H13039   9.974   6.210   8.390  1.2363 -0.3488 -0.3653
   97MOL0     H13040   9.748   6.168   8.383 -0.2047 -1.6820  2.3651
   97MOL0     H13041   9.767   6.239   8.544  0.7472 -2.5097 -0.4579
   97MOL0     H13042   9.672   6.400   8.295  1.8888 -2.6138 -1.4069
   97MOL0     H13043   9.674   6.453   8.460 -1.4700 -0.1039 -1.2756
   97MOL0     H13044   9.529   6.191   8.372  2.4285  0.3173 -1.7191
   97MOL0     H13045   9.515   6.272   8.526  0.1265 -1.0410  0.4276
   97MOL0     H13046   9.454   6.579   8.449  0.3636  0.6344 -0.0154
   97MOL0     H13047   9.278   6.734   8.367  0.1887  0.0329 -0.1712
   97MOL0     H13048   9.169   6.671   8.234 -0.6333 -1.7950 -0.5395
   97MOL0     H13049   9.014   6.583   8.410 -1.3989  0.9026  1.0982
   97MOL0     H13050   9.105   6.651   8.537 -0.7089 -2.2234  0.3654
   97MOL0     H13051   8.997   6.818   8.307 -0.0789 -1.5525 -0.4258
   97MOL0     H13052   9.108   6.873   8.435  3.0262 -2.5732  0.0732
   97MOL0     H13053   8.944   6.871   8.604  0.5452  3.4158 -1.8527
   97MOL0     H13054   8.877   6.728   8.527  0.6194 -1.0057  0.2786
   97MOL0     H13055   8.616   6.958   8.308  1.3116  0.8728 -0.2015
   97MOL0     H13056   8.371   7.015   8.391 -2.0898  2.4826  3.5158
   97MOL0     H13057   8.220   6.988   9.008 -0.9544  3.0810  1.2274
   97MOL0     H13058   8.011   6.949   9.141 -0.0639  0.0704  0.2957
   97MOL0     H13059   7.781   6.836   9.219 -0.9232  0.1109  1.3294
   97MOL0     H13060   7.820   7.006   9.200  2.0236 -0.8716 -1.3047
   97MOL0     H13061   7.577   7.036   9.101  0.6024 -0.4656 -1.0189
   97MOL0     H13062   7.551   6.868   9.160  1.2041 -1.3705  1.1591
   97MOL0     H13063   7.564   6.931   9.388 -1.8952 -0.8075 -1.5575
   97MOL0     H13064   7.614   7.092   9.356 -1.4591  1.1325  0.9895
   97MOL0     H13065   7.361   6.970   9.223 -4.2871 -0.1981  0.9145
   97MOL0     H13066   7.396   7.146   9.281  0.3539 -0.1196  2.6334
   97MOL0     H13067   7.368   7.069   9.513 -2.3164  0.1738  2.1496
   97MOL0     H13068   7.341   6.902   9.467  2.5647  0.7334  1.3605
   97MOL0     H13069   7.127   6.948   9.389  2.1483 -1.2535  1.1172
   97MOL0     H13070   7.133   7.050   9.538  1.2292  1.6208  0.5169
   97MOL0     H13071   7.148   7.157   9.256 -0.1182  0.3608  0.3284
   97MOL0     H13072   7.204   7.245   9.391 -1.5279 -0.2740  1.9804
   97MOL0     H13073   6.955   7.206   9.486 -1.9987 -0.3540 -0.5386
   97MOL0     H13074   6.974   7.311   9.345  2.0729  1.0682  2.5586
   97MOL0     H13075   7.800   6.890   8.769 -1.8199  2.4698  1.3325
   97MOL0     H13076   8.020   6.931   8.643 -1.3865 -0.8298 -0.6777
   97MOL0     H13077   8.496   6.942   8.789 -1.8826 -1.8823 -0.4704
   97MOL0     H13078   8.737   6.879   8.701  1.2788 -2.0379 -3.6175
   97MOL0     H13079  10.553   6.540   8.449  0.9232 -1.3828 -0.7153
   97MOL0     H13080  10.771   6.516   8.565 -1.1625  2.1489  0.5515
   97MOL0     H13081  10.853   6.224   9.154  2.2609 -1.1092  1.1038
   97MOL0     H13082  11.030   6.106   9.225 -1.5670 -1.6387 -1.7118
   97MOL0     H13083  11.369   5.977   9.245 -0.2480  1.3650 -4.7256
   97MOL0     H13084  11.192   6.004   9.264 -0.6742 -0.0125 -0.7601
   97MOL0     H13085  11.306   6.085   9.475  1.3123  2.5288  1.9620
   97MOL0     H13086  11.239   6.219   9.389  1.6288  0.8198 -1.5841
   97MOL0     H13087  11.520   6.139   9.318 -2.3064 -0.6844 -0.6172
   97MOL0     H13088  11.493   6.185   9.484 -3.1009  1.9772  2.0602
   97MOL0     H13089  11.564   6.371   9.336 -0.6666  3.6656  0.3456
   97MOL0     H13090  11.405   6.375   9.260  0.8656 -0.8319 -1.3314
   97MOL0     H13091  11.311   6.560   9.625  0.7935  0.3957  0.1821
   97MOL0     H13092  11.298   6.298   8.957  0.5169  1.4680  1.4480
   97MOL0     H13093  11.230   6.441   8.787 -0.7460 -1.8934 -0.5377
   97MOL0     H13094  11.049   6.471   8.761 -1.3378 -0.8028  1.5630
   97MOL0     H13095  11.148   6.567   8.870  0.2549 -0.6343  1.2020
   98MOL0     O13096   1.030   3.706   2.840  0.0670 -0.1478 -0.0798
   98MOL0     C13097   1.124   3.777   2.799  0.0679 -0.4685 -0.2093
   98MOL0     O13098   1.123   3.819   2.670 -0.5951 -0.5329 -0.2732
   98MOL0     C13099   1.023   3.780   2.589 -0.0902  0.9324  0.2053
   98MOL0     C13100   0.896   3.852   2.582 -0.2005  0.2637  0.7070
   98MOL0     C13101   0.799   3.807   2.484 -0.3326 -0.2708 -0.4754
   98MOL0     C13102   0.825   3.700   2.396  0.5987 -0.2691  0.6162
   98MOL0     O13103   0.714   3.645   2.330 -0.3257 -0.1910  0.3833
   98MOL0     C13104   0.741   3.582   2.206  0.1057 -0.3553  0.2120
   98MOL0     C13105   0.617   3.545   2.121  0.4518 -1.0384  0.2629
   98MOL0     C13106   0.552   3.670   2.056  0.2594  0.6802 -0.9920
   98MOL0     C13107   0.484   3.624   1.931 -0.7039 -0.7256  0.8436
   98MOL0     C13108   0.416   3.745   1.873  0.2354  0.0972  0.1890
   98MOL0     C13109   0.302   3.814   1.961 -0.0219 -0.5388  0.1549
   98MOL0     C13110   0.240   3.943   1.903 -0.3950 -1.2123  0.9817
   98MOL0     C13111   0.146   3.920   1.782  0.2487 -0.4018  0.7625
   98MOL0     N13112   0.151   4.036   1.697  0.2448  0.3733 -0.5409
   98MOL0     C13113   0.268   4.068   1.627 -0.7508 -0.1899 -0.3167
   98MOL0     C13114   0.244   4.180   1.561 -0.2726 -0.5628  0.0525
   98MOL0     C13115   0.334   4.251   1.462  1.0393 -0.0395 -0.4560
   98MOL0     C13116   0.360   4.399   1.483  0.2284  0.3157 -0.3952
   98MOL0     C13117   0.418   4.427   1.623  0.9031 -1.0343 -0.1525
   98MOL0     C13118   0.535   4.338   1.667  0.4129  0.0536  0.4013
   98MOL0     O13119   0.610   4.387   1.788 -0.0386  0.4187 -0.2658
   98MOL0     C13120   0.698   4.493   1.783  0.6579 -0.2816  0.0796
   98MOL0     C13121   0.733   4.578   1.669 -0.0426  0.6760 -0.9331
   98MOL0     C13122   0.821   4.681   1.696 -0.2554 -0.0989 -0.4715
   98MOL0     C13123   0.884   4.708   1.818  0.5959 -0.0910  1.0718
   98MOL0     C13124   0.981   4.815   1.825  0.0887  0.2909  0.2378
   98MOL0     O13125   1.030   4.841   1.955 -0.0747 -0.0622 -0.4987
   98MOL0     C13126   1.088   4.956   1.994 -0.2481  0.1263 -0.0109
   98MOL0     C13127   1.051   5.084   1.951 -0.8483  0.0361 -0.2638
   98MOL0     C13128   1.125   5.194   1.986  0.1656  0.0802 -0.1721
   98MOL0     C13129   1.222   5.191   2.088  0.3920  0.6217  0.3878
   98MOL0     O13130   1.289   5.314   2.117  0.0543  0.4162  0.3552
   98MOL0     C13131   1.423   5.312   2.177  1.0610 -0.0115  0.2552
   98MOL0     C13132   1.466   5.463   2.187  0.4213  0.4388  0.3603
   98MOL0     C13133   1.600   5.476   2.259 -0.5223 -0.5264 -0.1172
   98MOL0     C13134   1.609   5.487   2.409 -0.2977 -0.7618  0.0451
   98MOL0     C13135   1.513   5.394   2.482 -0.3805  0.5286  0.1157
   98MOL0     C13136   1.522   5.408   2.639  0.1244 -0.1727 -0.0869
   98MOL0     C13137   1.463   5.533   2.709  0.1276  0.1606 -0.5353
   98MOL0     C13138   1.456   5.531   2.860 -0.2471  0.6746  0.6627
   98MOL0    Cl13139   1.627   5.538   2.926  0.1396  0.5262  0.2910
   98MOL0     C13140   1.255   5.066   2.139 -0.5270  0.7798  0.1112
   98MOL0     C13141   1.192   4.949   2.096  0.1267  0.0747 -0.6554
   98MOL0     O13142   1.008   4.879   1.728 -1.0814 -0.1459  0.7128
   98MOL0     C13143   0.855   4.616   1.925 -0.1194 -0.1935 -0.8038
   98MOL0     C13144   0.768   4.509   1.913 -0.6963 -0.1384  0.3516
   98MOL0     N13145   0.113   4.215   1.593  0.2567 -0.0853 -0.2060
   98MOL0     N13146   0.055   4.132   1.675  0.2143 -0.3450 -0.1671
   98MOL0     C13147   0.955   3.634   2.395 -0.1201 -1.1759 -0.0913
   98MOL0     C13148   1.052   3.679   2.496  0.2713 -0.5623 -0.8555
   98MOL0     C13149   1.231   3.842   2.883  0.7242 -0.4033  0.3074
   98MOL0     C13150   1.324   3.939   2.826  0.4087  0.4975 -0.4757
   98MOL0     C13151   1.418   4.002   2.911 -0.9465  0.3992 -0.1485
   98MOL0     C13152   1.452   3.965   3.040 -0.1696 -0.6874  0.4231
   98MOL0     O13153   1.553   4.033   3.096 -0.4484 -0.5618  0.6880
   98MOL0     C13154   1.586   4.011   3.232 -0.4236  0.1635 -0.2289
   98MOL0     C13155   1.708   4.092   3.276  0.3588 -0.0103 -0.7635
   98MOL0     C13156   1.681   4.247   3.259  0.6948  0.2116  0.1744
   98MOL0     C13157   1.806   4.317   3.307  0.6320  0.1914  0.5037
   98MOL0     C13158   1.922   4.283   3.223  1.1336 -1.1754  0.3174
   98MOL0     C13159   2.017   4.269   3.146 -0.4193 -0.5169  0.2300
   98MOL0     C13160   1.368   3.871   3.099  0.1682  0.4494 -0.0649
   98MOL0     C13161   1.257   3.811   3.024 -0.4989 -0.1978 -0.0941
   98MOL0     C13162   1.154   3.739   3.105 -0.7179  0.0852  0.4437
   98MOL0     H13163   0.887   3.933   2.653 -0.5388  1.3838 -0.5864
   98MOL0     H13164   0.704   3.858   2.488  0.3629  1.0335 -0.1057
   98MOL0     H13165   0.806   3.648   2.148 -1.6994  0.5523 -0.8834
   98MOL0     H13166   0.798   3.491   2.227  0.6997  0.6009  3.1189
   98MOL0     H13167   0.548   3.491   2.187  1.3580  0.0383  2.1780
   98MOL0     H13168   0.646   3.475   2.042 -0.6969 -1.5452  0.2595
   98MOL0     H13169   0.635   3.739   2.032  0.5820 -0.0184 -1.9566
   98MOL0     H13170   0.489   3.714   2.134  2.2610 -1.2208  1.8887
   98MOL0     H13171   0.564   3.586   1.868 -0.1289  1.3493  0.2490
   98MOL0     H13172   0.411   3.546   1.956  2.3059 -4.0504 -0.0841
   98MOL0     H13173   0.484   3.828   1.852 -0.0427  0.3341  0.2247
   98MOL0     H13174   0.394   3.709   1.773 -2.1810 -0.6973  0.9366
   98MOL0     H13175   0.231   3.732   1.976 -2.0932  0.5518 -2.7006
   98MOL0     H13176   0.346   3.853   2.053 -0.2966 -2.7567  1.2681
   98MOL0     H13177   0.316   4.018   1.880 -1.1266 -0.4005  1.1427
   98MOL0     H13178   0.178   3.995   1.976 -0.1242  3.7121 -1.8071
   98MOL0     H13179   0.172   3.830   1.726 -0.2989 -0.1532  0.1057
   98MOL0     H13180   0.048   3.910   1.829 -0.0184  1.3708  0.6571
   98MOL0     H13181   0.359   4.009   1.627 -0.8038 -0.2793 -1.3866
   98MOL0     H13182   0.429   4.197   1.456  1.1335  0.0287  0.3435
   98MOL0     H13183   0.284   4.237   1.366  1.4820  1.4594 -0.9343
   98MOL0     H13184   0.427   4.443   1.409  1.6262 -0.6547  0.2607
   98MOL0     H13185   0.266   4.455   1.484 -0.0866 -0.0983  2.8131
   98MOL0     H13186   0.337   4.420   1.697  0.3721 -0.5985 -0.6811
   98MOL0     H13187   0.460   4.528   1.626  3.7074 -2.0286 -2.0470
   98MOL0     H13188   0.607   4.338   1.585 -0.3792 -0.7652 -0.3161
   98MOL0     H13189   0.500   4.235   1.680  1.7985 -0.5694 -0.5118
   98MOL0     H13190   0.698   4.557   1.569 -1.6899 -1.0194 -0.0568
   98MOL0     H13191   0.830   4.736   1.603 -1.3105 -3.8887 -3.0536
   98MOL0     H13192   0.965   5.101   1.886 -0.2837 -0.9326 -1.2890
   98MOL0     H13193   1.098   5.296   1.960  0.9351  0.0361 -1.1883
   98MOL0     H13194   1.413   5.267   2.276 -4.7731  0.9264  0.4668
   98MOL0     H13195   1.493   5.257   2.113  0.5303 -0.9635  0.4792
   98MOL0     H13196   1.469   5.511   2.089 -2.6122  1.2045  0.5661
   98MOL0     H13197   1.382   5.508   2.241 -1.2298 -1.9062 -0.1286
   98MOL0     H13198   1.667   5.393   2.235 -2.3921 -1.9785 -0.4702
   98MOL0     H13199   1.654   5.566   2.226 -1.2090  1.8980  4.4625
   98MOL0     H13200   1.578   5.587   2.440 -1.6791 -1.4320  0.9356
   98MOL0     H13201   1.709   5.462   2.445  0.4577  1.8675  0.0071
   98MOL0     H13202   1.528   5.289   2.460  3.1807 -0.4085  5.1487
   98MOL0     H13203   1.413   5.428   2.452  0.4921  1.0605 -2.3678
   98MOL0     H13204   1.492   5.315   2.689  0.9252 -1.0027 -1.0996
   98MOL0     H13205   1.629   5.402   2.664  0.3543  1.4087 -0.6276
   98MOL0     H13206   1.363   5.553   2.669  0.3031  0.8552 -0.6453
   98MOL0     H13207   1.529   5.615   2.680 -1.4057  0.9853 -1.8309
   98MOL0     H13208   1.417   5.626   2.896 -1.6740  1.6005 -2.9392
   98MOL0     H13209   1.388   5.452   2.893  1.3517 -1.0979 -0.0820
   98MOL0     H13210   1.325   5.044   2.219 -0.3679  0.7300 -0.0417
   98MOL0     H13211   1.225   4.854   2.138 -0.0697  0.3814  0.2185
   98MOL0     H13212   0.903   4.641   2.019  1.9187  1.4028 -2.1721
   98MOL0     H13213   0.752   4.435   1.992 -0.3881  1.7177  2.2584
   98MOL0     H13214   0.976   3.550   2.328  2.3272 -0.4063 -0.3775
   98MOL0     H13215   1.150   3.632   2.500 -0.9138 -3.1502  1.3663
   98MOL0     H13216   1.314   3.973   2.724 -0.8855  1.8964  0.0878
   98MOL0     H13217   1.479   4.080   2.866 -1.2352  0.1389 -1.0081
   98MOL0     H13218   1.599   3.903   3.244  0.8826  0.5645  2.6124
   98MOL0     H13219   1.510   4.045   3.302  0.9579 -1.7188  2.3234
   98MOL0     H13220   1.801   4.065   3.226  1.0913 -1.0763  1.1028
   98MOL0     H13221   1.735   4.081   3.381 -1.1226  1.8882 -0.1242
   98MOL0     H13222   1.589   4.265   3.315 -0.9469 -1.6974 -1.7554
   98MOL0     H13223   1.668   4.283   3.157 -3.4517  0.2311  0.5279
   98MOL0     H13224   1.786   4.424   3.299  0.1402  0.0391 -0.4210
   98MOL0     H13225   1.827   4.278   3.407 -0.9195 -1.0552  0.3975
   98MOL0     H13226   2.108   4.252   3.092  0.0509 -0.2893  0.9283
   98MOL0     H13227   1.364   3.829   3.199 -2.3857 -0.0606 -0.3025
   98MOL0     H13228   1.165   3.631   3.099  0.1899  0.2092 -0.3294
   98MOL0     H13229   1.154   3.767   3.210 -3.1746 -1.0431  0.8155
   98MOL0     H13230   1.054   3.777   3.079 -0.1693  2.7559  1.8550
   99MOL0     O13231   6.288   3.074   0.276  0.0016 -0.4384 -0.0020
   99MOL0     C13232   6.212   3.083   0.372  0.4820 -0.8826 -0.1678
   99MOL0     O13233   6.250   3.067   0.501 -0.3135 -0.5860  0.3393
   99MOL0     C13234   6.377   3.042   0.536  0.0189  0.7464  0.3518
   99MOL0     C13235   6.429   3.109   0.647  0.0924 -0.2276 -0.2616
   99MOL0     C13236   6.550   3.065   0.708  0.5144  0.7022  0.1009
   99MOL0     C13237   6.628   2.957   0.653 -0.2393 -0.1062 -0.4360
   99MOL0     O13238   6.754   2.922   0.690  0.2406  0.4115 -0.4740
   99MOL0     C13239   6.821   2.979   0.799 -0.2315  0.4279 -0.5580
   99MOL0     C13240   6.950   2.887   0.812  0.4417 -0.0891  0.1594
   99MOL0     C13241   7.037   2.918   0.693 -0.5267 -0.0367 -0.1252
   99MOL0     C13242   7.181   2.867   0.726  0.2737 -0.5706 -0.1951
   99MOL0     C13243   7.264   2.913   0.594 -0.4399  0.3554 -0.3290
   99MOL0     C13244   7.409   2.905   0.623 -1.0996 -0.5718 -0.2009
   99MOL0     C13245   7.480   2.770   0.628  0.3361 -0.2761  0.4337
   99MOL0     C13246   7.559   2.748   0.765 -0.2646 -0.2637  0.3812
   99MOL0     N13247   7.689   2.817   0.762 -0.1684 -1.5173  1.3772
   99MOL0     C13248   7.703   2.953   0.722 -0.6680 -0.2153 -0.8532
   99MOL0     C13249   7.839   2.969   0.724  0.0314 -0.2421  0.7812
   99MOL0     C13250   7.891   3.108   0.683  1.1616  0.2811 -0.4702
   99MOL0     C13251   8.029   3.132   0.741 -1.2174  0.0869 -0.2976
   99MOL0     C13252   8.082   3.273   0.713 -0.0058 -0.3563  0.7297
   99MOL0     C13253   8.094   3.309   0.568 -0.5032 -0.8371 -0.1574
   99MOL0     O13254   8.210   3.388   0.533 -0.4213 -0.3337  0.4181
   99MOL0     C13255   8.340   3.350   0.570  0.1433  0.6722 -0.0653
   99MOL0     C13256   8.442   3.438   0.531  0.6901 -0.2838 -0.4061
   99MOL0     C13257   8.582   3.410   0.545  0.6040  0.1829  0.0938
   99MOL0     C13258   8.622   3.289   0.602 -0.7530 -0.0765  0.5175
   99MOL0     C13259   8.766   3.243   0.599  0.3988 -0.8766  0.3314
   99MOL0     O13260   8.857   3.318   0.536 -0.2504  0.3330 -0.1270
   99MOL0     C13261   8.990   3.296   0.544 -0.3887 -0.9878 -0.1168
   99MOL0     C13262   9.065   3.410   0.568 -0.3241 -0.3621 -0.2848
   99MOL0     C13263   9.204   3.391   0.557 -0.2154  0.1288  0.2925
   99MOL0     C13264   9.263   3.270   0.521  0.4230 -0.5367 -0.6079
   99MOL0     O13265   9.401   3.246   0.514  0.3946 -0.8940 -0.4010
   99MOL0     C13266   9.492   3.339   0.574 -1.0711 -0.2037 -0.2314
   99MOL0     C13267   9.595   3.246   0.626 -0.9150  0.3451 -0.3392
   99MOL0     C13268   9.683   3.326   0.715  0.9483  0.3828 -0.3562
   99MOL0     C13269   9.807   3.245   0.751  0.1582  0.2060 -0.1035
   99MOL0     C13270   9.926   3.291   0.667 -1.3136 -0.1426  0.2050
   99MOL0     C13271  10.050   3.198   0.686 -0.2534  0.1635 -0.5668
   99MOL0     C13272  10.174   3.281   0.668  0.1681  0.8906 -0.5851
   99MOL0     C13273  10.202   3.289   0.513 -0.0897 -0.1352 -0.8761
   99MOL0    Cl13274  10.310   3.161   0.463  0.0883  0.1202  0.5105
   99MOL0     C13275   9.184   3.161   0.499 -0.3673  0.5262  0.0576
   99MOL0     C13276   9.048   3.176   0.509  0.4789  0.6340 -0.2382
   99MOL0     O13277   8.781   3.126   0.633  0.1112  0.0314 -1.3097
   99MOL0     C13278   8.519   3.202   0.639  0.0953 -0.7645 -0.6662
   99MOL0     C13279   8.385   3.232   0.624  0.6166 -0.0948  0.1959
   99MOL0     N13280   7.898   2.846   0.758 -0.4957 -0.5545 -0.7644
   99MOL0     N13281   7.804   2.759   0.777  0.8202  0.1401  0.0592
   99MOL0     C13282   6.573   2.897   0.542  0.3213  0.4361  0.0615
   99MOL0     C13283   6.445   2.934   0.486 -0.0372 -1.0788 -0.1657
   99MOL0     C13284   6.068   3.118   0.341 -0.5822  0.7735  0.0834
   99MOL0     C13285   5.999   3.203   0.429  0.2787 -0.5885  0.0669
   99MOL0     C13286   5.864   3.230   0.417 -0.0075  0.0988 -0.5366
   99MOL0     C13287   5.801   3.194   0.306 -0.0389 -0.9988  0.6884
   99MOL0     O13288   5.671   3.216   0.281 -0.4837 -0.8860  0.7543
   99MOL0     C13289   5.575   3.263   0.376 -0.0047 -0.0717 -0.7463
   99MOL0     C13290   5.530   3.143   0.460  0.1445  0.3522  0.3365
   99MOL0     C13291   5.408   3.189   0.547 -0.0820  0.6486 -0.0558
   99MOL0     C13292   5.355   3.078   0.631 -0.7147  0.3331 -0.7597
   99MOL0     C13293   5.280   3.126   0.752 -0.8815  0.2690  0.0289
   99MOL0     C13294   5.216   3.166   0.841 -0.8125 -0.1072 -0.0602
   99MOL0     C13295   5.868   3.124   0.204  0.3035 -0.6426  0.1114
   99MOL0     C13296   5.998   3.071   0.224 -0.1792  0.1276 -0.2046
   99MOL0     C13297   6.077   2.992   0.121  0.8823  0.4417  0.1481
   99MOL0     H13298   6.381   3.197   0.689  1.7595  1.3492 -1.5280
   99MOL0     H13299   6.580   3.115   0.800  3.1358 -2.7845  1.3477
   99MOL0     H13300   6.850   3.083   0.785  0.9457  0.1354 -0.4515
   99MOL0     H13301   6.767   2.966   0.894  1.3723 -0.2350  0.3066
   99MOL0     H13302   6.924   2.781   0.814  2.4477 -0.6087  0.6323
   99MOL0     H13303   6.992   2.915   0.909 -2.3013 -0.6858  1.6441
   99MOL0     H13304   7.038   3.025   0.674 -2.9294  0.2220  0.8137
   99MOL0     H13305   6.999   2.863   0.606  0.2693 -0.9607  0.0930
   99MOL0     H13306   7.229   2.919   0.810 -1.6842  2.7372 -0.9284
   99MOL0     H13307   7.178   2.760   0.749 -1.8032 -0.5867 -0.3719
   99MOL0     H13308   7.242   2.844   0.512  1.2646 -1.4348  0.6610
   99MOL0     H13309   7.223   3.009   0.560  1.4443  1.0714 -0.7113
   99MOL0     H13310   7.464   2.952   0.541 -0.2501 -1.7567 -0.3343
   99MOL0     H13311   7.430   2.959   0.716  0.5782 -1.5968  0.0377
   99MOL0     H13312   7.553   2.756   0.548  1.1585  0.3702  1.0492
   99MOL0     H13313   7.399   2.699   0.613 -0.4360  0.7717 -0.5335
   99MOL0     H13314   7.496   2.780   0.849  3.9272  3.0859  2.6398
   99MOL0     H13315   7.587   2.643   0.773 -2.3871 -0.8652  0.5112
   99MOL0     H13316   7.617   3.019   0.711 -0.5039  0.7305  2.4210
   99MOL0     H13317   7.883   3.107   0.573  0.5406  3.7479 -0.5551
   99MOL0     H13318   7.827   3.188   0.720  1.1896  0.5766 -1.0439
   99MOL0     H13319   8.021   3.119   0.849 -0.7839  1.2097 -0.1108
   99MOL0     H13320   8.104   3.068   0.695 -0.4181  0.1682  0.8553
   99MOL0     H13321   8.178   3.300   0.759  0.4979  1.9191 -1.4326
   99MOL0     H13322   8.015   3.347   0.758  1.8339  1.7011  0.2799
   99MOL0     H13323   8.000   3.358   0.538 -0.9907 -2.0223 -0.6059
   99MOL0     H13324   8.101   3.212   0.518 -0.0717 -2.4596  2.8525
   99MOL0     H13325   8.412   3.527   0.476  0.6509 -0.1987 -0.2475
   99MOL0     H13326   8.659   3.479   0.513 -0.2152  0.1616 -2.1156
   99MOL0     H13327   9.030   3.511   0.590 -1.5214 -0.2115 -2.4990
   99MOL0     H13328   9.271   3.472   0.585  1.8634  0.0276 -3.7340
   99MOL0     H13329   9.536   3.408   0.501 -3.8767 -0.0481 -1.9460
   99MOL0     H13330   9.458   3.399   0.659  0.2463 -0.1899  0.3058
   99MOL0     H13331   9.559   3.166   0.691  1.0216  1.1010  1.8339
   99MOL0     H13332   9.650   3.197   0.545  0.3783  1.7718 -0.3679
   99MOL0     H13333   9.703   3.417   0.657 -1.9653  0.6478 -1.1027
   99MOL0     H13334   9.616   3.343   0.800  1.4262 -0.8780  0.2883
   99MOL0     H13335   9.782   3.140   0.735 -0.3161  0.3459 -0.3322
   99MOL0     H13336   9.849   3.252   0.852  1.2738 -0.7551 -0.4841
   99MOL0     H13337   9.942   3.399   0.671  1.2895 -0.2684 -2.8190
   99MOL0     H13338   9.907   3.281   0.560  0.9079  1.1767 -0.3903
   99MOL0     H13339  10.064   3.153   0.785  0.3439 -0.0577 -0.7493
   99MOL0     H13340  10.045   3.111   0.620  1.8948 -1.0915  0.8042
   99MOL0     H13341  10.256   3.229   0.718 -2.1638 -0.8690  1.6896
   99MOL0     H13342  10.174   3.383   0.709 -3.0950  0.2085  1.4638
   99MOL0     H13343  10.106   3.273   0.462 -0.7433  1.6263 -0.2885
   99MOL0     H13344  10.254   3.379   0.480 -1.0642  1.3690  1.4146
   99MOL0     H13345   9.227   3.070   0.459 -0.1557  1.4960 -2.0714
   99MOL0     H13346   8.980   3.097   0.480 -0.9965  1.5589  0.5401
   99MOL0     H13347   8.545   3.110   0.690 -0.1546 -0.8137 -0.6304
   99MOL0     H13348   8.311   3.154   0.637  0.6492 -0.0885  0.4121
   99MOL0     H13349   6.625   2.817   0.491  0.5831 -0.6841  2.0120
   99MOL0     H13350   6.405   2.879   0.401  0.3392 -0.4465 -0.7603
   99MOL0     H13351   6.049   3.254   0.511 -0.9472  0.9722 -0.1031
   99MOL0     H13352   5.817   3.288   0.495 -0.5763 -2.2691  0.9856
   99MOL0     H13353   5.483   3.300   0.329  1.2958  2.0398 -1.7340
   99MOL0     H13354   5.608   3.346   0.438 -0.5716 -0.0331 -0.4913
   99MOL0     H13355   5.610   3.103   0.522  1.6219 -0.2079 -1.8227
   99MOL0     H13356   5.501   3.066   0.387  1.2262  0.4952 -0.2716
   99MOL0     H13357   5.323   3.223   0.488 -1.2092 -0.3865  0.9160
   99MOL0     H13358   5.431   3.276   0.608 -0.2299  0.6866 -0.0555
   99MOL0     H13359   5.294   3.010   0.570  0.3661 -1.0665 -0.3219
   99MOL0     H13360   5.426   3.006   0.671 -1.5077 -1.2333 -2.0782
   99MOL0     H13361   5.163   3.212   0.922  3.5902  2.0009  1.9766
   99MOL0     H13362   5.826   3.104   0.106  3.5639 -1.2996 -1.2876
   99MOL0     H13363   6.131   2.900   0.143 -2.0212 -1.3319  0.3334
   99MOL0     H13364   6.003   2.961   0.047 -0.4613  1.2469  1.1065
   99MOL0     H13365   6.151   3.058   0.073 -0.5331  2.7342  0.9473
  100MOL0     O13366   2.754   5.575   7.035  0.0998  0.7403  0.2102
  100MOL0     C13367   2.644   5.625   7.044  0.0899  0.3483 -0.1654
  100MOL0     O13368   2.609   5.756   7.029 -0.3395 -0.3587 -0.0255
  100MOL0     C13369   2.706   5.849   7.007  0.4438  0.0067 -0.5582
  100MOL0     C13370   2.665   5.968   6.936  0.5808 -0.6359 -0.6801
  100MOL0     C13371   2.753   6.077   6.915 -0.1966 -0.2371  0.7921
  100MOL0     C13372   2.891   6.070   6.968 -0.3304 -0.0079  0.2265
  100MOL0     O13373   2.981   6.169   6.933 -0.1280  0.2862  0.1239
  100MOL0     C13374   2.925   6.307   6.916 -1.1895 -0.0021 -0.2304
  100MOL0     C13375   3.035   6.414   6.954 -0.7574  0.2349 -0.2126
  100MOL0     C13376   3.156   6.381   6.866  0.7125  0.2335 -0.0893
  100MOL0     C13377   3.242   6.501   6.827 -0.0588 -0.3467  0.4464
  100MOL0     C13378   3.353   6.465   6.723  0.2856  0.8526 -0.1479
  100MOL0     C13379   3.457   6.575   6.692 -0.5324 -0.2768  0.0020
  100MOL0     C13380   3.540   6.551   6.555 -0.2586 -0.6422 -0.1347
  100MOL0     C13381   3.620   6.418   6.564  0.8396  0.1190  0.4147
  100MOL0     N13382   3.737   6.409   6.475 -0.1335 -1.2728  0.0053
  100MOL0     C13383   3.732   6.350   6.351  0.1281 -0.4336  0.2355
  100MOL0     C13384   3.853   6.372   6.291  0.3746  0.1495  0.0489
  100MOL0     C13385   3.906   6.333   6.156  0.4420  0.1293 -0.4026
  100MOL0     C13386   3.883   6.422   6.024  0.2871 -0.1610  0.0690
  100MOL0     C13387   3.903   6.579   6.048 -0.3570  0.0784  0.1781
  100MOL0     C13388   3.800   6.654   6.132 -0.9537  0.1044  0.7414
  100MOL0     O13389   3.680   6.693   6.061  0.3979  0.3167  0.2701
  100MOL0     C13390   3.582   6.735   6.146 -0.1248  0.3475 -0.0864
  100MOL0     C13391   3.450   6.712   6.115 -1.4873 -0.1753 -0.2328
  100MOL0     C13392   3.341   6.745   6.201  0.1212 -0.0007 -0.4235
  100MOL0     C13393   3.369   6.814   6.322  0.5640 -0.4486  1.4835
  100MOL0     C13394   3.261   6.835   6.419  0.7209  0.2211  0.6255
  100MOL0     O13395   3.134   6.822   6.380 -0.1991 -0.1846 -0.4957
  100MOL0     C13396   3.046   6.777   6.475  0.0311 -0.4970 -0.7666
  100MOL0     C13397   3.066   6.649   6.536 -0.5289  1.1640 -0.1881
  100MOL0     C13398   2.966   6.598   6.626  0.7237 -0.1013 -1.3010
  100MOL0     C13399   2.858   6.685   6.667 -0.2567  0.1021 -0.8320
  100MOL0     O13400   2.775   6.630   6.761  0.5216  0.3612 -0.4396
  100MOL0     C13401   2.636   6.680   6.752  0.5027 -0.0651  0.2299
  100MOL0     C13402   2.553   6.607   6.855 -0.3555 -0.0640 -0.6378
  100MOL0     C13403   2.500   6.471   6.806  0.5636  0.8886  0.0678
  100MOL0     C13404   2.415   6.410   6.925 -0.9617 -0.2625  0.1336
  100MOL0     C13405   2.317   6.310   6.875 -0.4154 -0.7371 -0.4857
  100MOL0     C13406   2.269   6.223   6.988 -0.6258  0.7059 -0.0954
  100MOL0     C13407   2.179   6.117   6.930  0.4190  0.4326 -1.0782
  100MOL0     C13408   2.186   5.997   7.019  0.0598 -0.1743 -0.2228
  100MOL0    Cl13409   2.034   5.892   6.977  0.1631 -0.3865  0.3840
  100MOL0     C13410   2.856   6.817   6.613  0.0350  0.9201  0.1662
  100MOL0     C13411   2.946   6.858   6.521  0.2659 -0.2347 -0.6485
  100MOL0     O13412   3.289   6.873   6.529 -0.1147  0.1833  0.1964
  100MOL0     C13413   3.503   6.851   6.342 -0.0221 -0.4026 -0.7697
  100MOL0     C13414   3.606   6.805   6.261 -0.4485  0.1407 -0.3328
  100MOL0     N13415   3.927   6.442   6.384  0.5724 -0.6752  0.9144
  100MOL0     N13416   3.858   6.474   6.489 -0.2515  1.2455  0.2524
  100MOL0     C13417   2.930   5.959   7.038  0.2015  0.4687  0.1656
  100MOL0     C13418   2.845   5.850   7.054  0.7289  0.1682  0.2726
  100MOL0     C13419   2.533   5.541   7.096 -0.2662  0.1963 -0.3888
  100MOL0     C13420   2.550   5.486   7.220 -0.6906 -0.1871  0.2075
  100MOL0     C13421   2.462   5.395   7.275  1.0518 -0.1301 -0.4692
  100MOL0     C13422   2.350   5.353   7.204 -0.2601  0.1374  0.2276
  100MOL0     O13423   2.276   5.260   7.267 -0.2798  0.7482  0.1954
  100MOL0     C13424   2.221   5.160   7.180 -0.1310  0.3594  0.2475
  100MOL0     C13425   2.206   5.028   7.271  1.3609 -0.3801 -0.7194
  100MOL0     C13426   2.344   4.956   7.299  0.0819  0.5781  0.3047
  100MOL0     C13427   2.445   5.040   7.379 -0.8461 -0.3407  0.2928
  100MOL0     C13428   2.565   4.961   7.427 -0.9324 -0.1178 -0.3251
  100MOL0     C13429   2.648   4.884   7.467  0.4159 -0.5409  0.0508
  100MOL0     C13430   2.320   5.423   7.089  0.1611  0.4106 -0.2120
  100MOL0     C13431   2.415   5.515   7.031  0.8727  0.0016  0.7688
  100MOL0     C13432   2.375   5.590   6.905 -1.0089 -0.2446 -0.3684
  100MOL0     H13433   2.561   5.966   6.905  0.6976 -0.9198 -1.0547
  100MOL0     H13434   2.721   6.150   6.841 -2.5673 -0.4387  1.5247
  100MOL0     H13435   2.889   6.329   6.815 -1.0581  0.3655 -0.2001
  100MOL0     H13436   2.836   6.319   6.980  0.1456  2.7621  1.3324
  100MOL0     H13437   3.067   6.407   7.059  2.6712  3.6825 -0.7928
  100MOL0     H13438   2.997   6.514   6.935 -1.4527  0.1906  0.8624
  100MOL0     H13439   3.117   6.344   6.771  2.2676 -3.5068  0.5506
  100MOL0     H13440   3.229   6.309   6.906 -0.9034 -2.0358 -1.0302
  100MOL0     H13441   3.182   6.587   6.795  1.5430  1.0425  1.0298
  100MOL0     H13442   3.290   6.537   6.919 -0.3915  2.6416 -0.4559
  100MOL0     H13443   3.404   6.373   6.754 -0.0604  0.9546  0.7653
  100MOL0     H13444   3.300   6.461   6.627 -1.6046  1.6096  0.8058
  100MOL0     H13445   3.391   6.661   6.680 -2.5108 -0.6318  5.6235
  100MOL0     H13446   3.535   6.593   6.767 -0.9333  0.0422  0.3478
  100MOL0     H13447   3.608   6.634   6.535  0.8127 -1.5021 -0.1866
  100MOL0     H13448   3.487   6.528   6.461 -0.2257  3.8919 -1.4766
  100MOL0     H13449   3.649   6.404   6.669  0.8905 -0.7444  0.2915
  100MOL0     H13450   3.539   6.346   6.545 -0.4064  1.4705  0.4372
  100MOL0     H13451   3.650   6.305   6.296  2.5795 -2.2741 -2.1521
  100MOL0     H13452   4.013   6.314   6.168  0.3792  0.4678  0.7499
  100MOL0     H13453   3.873   6.230   6.138  1.4629 -0.7740  2.4225
  100MOL0     H13454   3.956   6.392   5.948  0.4084 -0.7021  0.3980
  100MOL0     H13455   3.793   6.407   5.964 -0.1094  2.5813 -0.1767
  100MOL0     H13456   3.910   6.633   5.953 -1.4172  0.6668  0.4223
  100MOL0     H13457   3.999   6.600   6.097 -0.8485  1.6657  0.5207
  100MOL0     H13458   3.849   6.744   6.172  0.3022  0.0829 -0.6596
  100MOL0     H13459   3.774   6.598   6.222  0.1390  0.0363  1.0284
  100MOL0     H13460   3.431   6.660   6.022  1.5011 -0.1900 -0.9172
  100MOL0     H13461   3.242   6.713   6.171 -0.3777 -0.9916  2.0045
  100MOL0     H13462   3.140   6.581   6.496 -1.0312  1.5411 -1.8398
  100MOL0     H13463   2.977   6.501   6.675 -0.8830  0.0870 -0.5054
  100MOL0     H13464   2.620   6.788   6.760  0.5137  0.1594 -2.0583
  100MOL0     H13465   2.596   6.644   6.656 -1.1228  1.8386  0.1268
  100MOL0     H13466   2.615   6.589   6.944 -3.3294 -1.9717  1.2318
  100MOL0     H13467   2.475   6.679   6.883  1.9198  1.3207  2.8907
  100MOL0     H13468   2.442   6.487   6.715  1.5033 -0.4376 -0.7842
  100MOL0     H13469   2.573   6.394   6.780 -0.7924 -1.1706  1.9261
  100MOL0     H13470   2.369   6.490   6.984  0.3704  1.9099 -1.6231
  100MOL0     H13471   2.479   6.363   7.000 -0.5076  2.3269  1.4974
  100MOL0     H13472   2.362   6.241   6.803  3.3405 -0.8453  1.6904
  100MOL0     H13473   2.237   6.368   6.829  2.0564  2.8085 -0.7677
  100MOL0     H13474   2.359   6.175   7.030  0.6860  1.5281 -1.8231
  100MOL0     H13475   2.214   6.281   7.062  2.7534  1.5419  1.9691
  100MOL0     H13476   2.201   6.082   6.828 -3.0238  1.4711 -2.3077
  100MOL0     H13477   2.074   6.144   6.915 -0.3868 -1.1892  1.0900
  100MOL0     H13478   2.283   5.947   7.019 -0.5716 -1.5297  1.3088
  100MOL0     H13479   2.168   6.019   7.125  0.0392 -2.6160  0.3537
  100MOL0     H13480   2.780   6.889   6.641  0.5897  0.4340  3.3962
  100MOL0     H13481   2.938   6.958   6.479 -2.1392  0.5858  1.5332
  100MOL0     H13482   3.530   6.894   6.437  1.1657  0.1026 -1.3086
  100MOL0     H13483   3.701   6.817   6.311 -0.4630  1.0649 -0.5000
  100MOL0     H13484   3.030   5.980   7.074 -0.6555  3.4611  1.1109
  100MOL0     H13485   2.885   5.760   7.099  3.6769  0.9359 -0.5791
  100MOL0     H13486   2.636   5.518   7.280  0.1621  1.0231 -1.5742
  100MOL0     H13487   2.484   5.349   7.371  1.3599  1.9335  0.5147
  100MOL0     H13488   2.287   5.132   7.096 -0.6538  2.1738 -0.8248
  100MOL0     H13489   2.125   5.196   7.144  0.7956  2.2668 -0.4691
  100MOL0     H13490   2.140   4.956   7.223 -1.8857 -0.4683  3.3663
  100MOL0     H13491   2.156   5.045   7.367  0.2626 -0.5613 -1.2442
  100MOL0     H13492   2.391   4.922   7.206  0.2540 -0.0569  0.6176
  100MOL0     H13493   2.315   4.864   7.351  2.3208  1.9358  4.2832
  100MOL0     H13494   2.487   5.118   7.314 -1.4452  0.1990  0.5451
  100MOL0     H13495   2.396   5.087   7.465  0.2798 -0.6893  1.1522
  100MOL0     H13496   2.715   4.805   7.497 -1.7588 -1.9793  1.3765
  100MOL0     H13497   2.222   5.392   7.053  0.6208 -1.6425  0.1607
  100MOL0     H13498   2.442   5.568   6.822 -1.0060 -0.9002 -0.1960
  100MOL0     H13499   2.272   5.561   6.879 -1.2775  0.0665  0.3072
  100MOL0     H13500   2.357   5.695   6.931 -1.9949 -0.4716 -0.0652
  101MOL0     O13501   9.472   6.844   0.827  0.0209  0.0106 -0.8423
  101MOL0     C13502   9.470   6.967   0.840 -1.1074 -0.5180  0.2046
  101MOL0     O13503   9.573   7.058   0.847  0.3297 -0.1911  0.7450
  101MOL0     C13504   9.703   7.040   0.828  0.0199  1.0207 -0.5880
  101MOL0     C13505   9.775   7.143   0.778  0.3537 -0.6297 -0.5344
  101MOL0     C13506   9.911   7.139   0.753  0.3328  0.1234  1.1756
  101MOL0     C13507   9.977   7.015   0.761  0.5778 -0.2859  0.6819
  101MOL0     O13508  10.109   7.027   0.744 -0.3515  0.5167 -0.1649
  101MOL0     C13509  10.198   6.933   0.810 -0.0168 -0.5088 -1.1373
  101MOL0     C13510  10.232   7.004   0.948  1.1364 -0.3581  0.8128
  101MOL0     C13511  10.350   6.933   1.011 -0.6812 -0.5187 -0.3484
  101MOL0     C13512  10.410   7.014   1.129  0.6024  0.1755 -0.2270
  101MOL0     C13513  10.543   6.956   1.173  0.5533 -0.2034  0.1870
  101MOL0     C13514  10.591   7.039   1.282 -0.3210 -0.2243  0.1520
  101MOL0     C13515  10.738   7.017   1.297  0.0825  0.5668 -0.6818
  101MOL0     C13516  10.778   7.098   1.424 -0.9785 -0.4614 -0.0632
  101MOL0     N13517  10.924   7.133   1.424  0.8164  0.3601 -0.1460
  101MOL0     C13518  11.008   7.119   1.320  0.0395 -0.7254 -0.3713
  101MOL0     C13519  11.127   7.147   1.373  0.6906  0.0273  0.8528
  101MOL0     C13520  11.261   7.124   1.302 -0.1168 -0.2042  0.2689
  101MOL0     C13521  11.293   6.979   1.272 -0.4864 -0.0124 -0.2174
  101MOL0     C13522  11.438   6.951   1.232 -0.2518 -0.1420  0.2426
  101MOL0     C13523  11.449   6.800   1.203  1.0560 -0.1704 -0.0424
  101MOL0     O13524  11.429   6.719   1.318  0.2202  0.5522  0.2571
  101MOL0     C13525  11.457   6.581   1.316 -0.7313 -0.1645 -0.9788
  101MOL0     C13526  11.430   6.503   1.431  0.1829 -0.1632  0.8436
  101MOL0     C13527  11.435   6.365   1.431  0.1670  0.5661  0.8429
  101MOL0     C13528  11.481   6.294   1.316  0.4636 -0.5068 -0.1543
  101MOL0     C13529  11.499   6.146   1.306  0.1064  0.3346  0.5928
  101MOL0     O13530  11.586   6.098   1.203 -1.1767  0.2726 -0.4899
  101MOL0     C13531  11.624   5.966   1.184 -0.5572 -0.0842 -0.7975
  101MOL0     C13532  11.728   5.946   1.094 -0.4512 -0.3278 -0.0705
  101MOL0     C13533  11.788   5.821   1.080  0.0408  0.2469  0.3136
  101MOL0     C13534  11.735   5.710   1.150 -1.9162 -0.8221  0.7743
  101MOL0     O13535  11.794   5.582   1.154  0.8683  0.3542 -0.6051
  101MOL0     C13536  11.825   5.518   1.032 -0.0422  0.3943 -0.1857
  101MOL0     C13537  11.965   5.455   1.019 -0.2319 -0.2224  1.1743
  101MOL0     C13538  12.004   5.426   0.871 -0.3972  0.8827 -0.6571
  101MOL0     C13539  11.898   5.346   0.792 -0.0573  0.0480  0.1009
  101MOL0     C13540  11.949   5.268   0.663 -0.5433  0.6389  0.3206
  101MOL0     C13541  11.833   5.169   0.622  0.1715 -0.0813 -0.0975
  101MOL0     C13542  11.892   5.052   0.554  0.4748 -0.6693 -0.0780
  101MOL0     C13543  11.934   5.078   0.411  0.4818  0.6550 -0.1716
  101MOL0    Cl13544  11.805   5.167   0.316  0.3297 -0.0662 -0.5443
  101MOL0     C13545  11.628   5.730   1.232 -0.2165 -0.7281  0.1606
  101MOL0     C13546  11.573   5.857   1.250  1.3221 -0.1932  0.2522
  101MOL0     O13547  11.439   6.083   1.384  0.3643  0.3645 -0.1349
  101MOL0     C13548  11.516   6.374   1.202  1.0408 -0.3014  0.1227
  101MOL0     C13549  11.501   6.514   1.203 -0.5915  0.0869 -0.5631
  101MOL0     N13550  11.114   7.185   1.506 -1.0044 -0.3223 -0.4999
  101MOL0     N13551  10.993   7.164   1.541  0.3760  0.7070 -0.4668
  101MOL0     C13552   9.900   6.894   0.796 -0.2869 -0.2498  0.1514
  101MOL0     C13553   9.767   6.910   0.837 -0.5561 -0.5843  0.1359
  101MOL0     C13554   9.337   7.022   0.878  0.1705  0.2607 -0.1001
  101MOL0     C13555   9.241   6.942   0.942 -0.5178  0.1608  0.6576
  101MOL0     C13556   9.121   6.996   0.985 -0.8719  1.1126 -0.4757
  101MOL0     C13557   9.081   7.133   0.965 -0.2272 -0.1228  0.7197
  101MOL0     O13558   8.955   7.166   1.011  0.2388 -0.0048 -0.1713
  101MOL0     C13559   8.839   7.079   1.001 -0.4625  0.2718 -0.3901
  101MOL0     C13560   8.759   7.083   1.137  0.7420  0.0802  0.6869
  101MOL0     C13561   8.619   7.010   1.133  0.3235 -0.1251  0.1893
  101MOL0     C13562   8.506   7.094   1.057 -0.3140  0.7071  0.4043
  101MOL0     C13563   8.374   7.040   1.077 -1.1765  0.4297 -0.5002
  101MOL0     C13564   8.264   6.988   1.096 -0.2004 -0.5189 -0.1159
  101MOL0     C13565   9.169   7.203   0.881  0.3530 -0.2222 -0.8671
  101MOL0     C13566   9.287   7.150   0.832 -0.7890  0.3612 -0.4526
  101MOL0     C13567   9.391   7.232   0.752 -0.7633 -0.0828  1.0578
  101MOL0     H13568   9.734   7.243   0.771  2.2298  0.5526  3.0433
  101MOL0     H13569   9.967   7.226   0.721  1.7693 -0.6958  1.4142
  101MOL0     H13570  10.169   6.830   0.832  3.5663 -1.1533  1.6365
  101MOL0     H13571  10.287   6.915   0.749  0.1855  0.5721 -1.1861
  101MOL0     H13572  10.147   7.002   1.017  3.2211 -0.8853  3.5661
  101MOL0     H13573  10.264   7.104   0.919 -0.5412 -0.1530 -0.4938
  101MOL0     H13574  10.426   6.885   0.949  0.2613 -1.0821  1.2021
  101MOL0     H13575  10.303   6.849   1.063 -3.1082  1.4956  0.9132
  101MOL0     H13576  10.439   7.112   1.090  0.0867 -0.0703 -1.2530
  101MOL0     H13577  10.333   7.021   1.207 -0.2651 -1.5936 -0.8681
  101MOL0     H13578  10.525   6.851   1.200  1.9632 -0.2890  0.8932
  101MOL0     H13579  10.604   6.966   1.083  0.3395  1.8378  0.2351
  101MOL0     H13580  10.590   7.142   1.244  0.5275 -0.4049 -0.3763
  101MOL0     H13581  10.528   7.024   1.371 -1.2579  0.4574 -0.3723
  101MOL0     H13582  10.796   7.051   1.211  1.6475 -1.3969 -0.4817
  101MOL0     H13583  10.759   6.911   1.317 -2.2697  0.1322 -0.1979
  101MOL0     H13584  10.726   7.194   1.435  1.0355  0.8158 -1.0546
  101MOL0     H13585  10.756   7.034   1.509 -0.5150  2.6179  2.5807
  101MOL0     H13586  10.990   7.068   1.226  2.0894 -0.8234 -0.7623
  101MOL0     H13587  11.261   7.190   1.214  3.7880  0.1346  0.3762
  101MOL0     H13588  11.339   7.148   1.375 -1.6849 -0.4125  2.1021
  101MOL0     H13589  11.271   6.924   1.363 -0.5868 -1.5548 -1.1362
  101MOL0     H13590  11.224   6.944   1.194 -1.0615  1.1945 -0.2735
  101MOL0     H13591  11.505   6.981   1.313 -2.4204 -0.0284  2.1044
  101MOL0     H13592  11.466   7.002   1.139 -2.9444 -0.0864 -0.6169
  101MOL0     H13593  11.545   6.791   1.151  0.8397  4.1417 -1.5762
  101MOL0     H13594  11.375   6.776   1.126  2.4070  0.5826 -1.6353
  101MOL0     H13595  11.395   6.564   1.513 -0.8390  0.0255  0.2864
  101MOL0     H13596  11.404   6.303   1.514 -0.4590 -0.7124 -0.3006
  101MOL0     H13597  11.765   6.038   1.050 -0.6484  0.2436  0.9314
  101MOL0     H13598  11.873   5.812   1.012 -0.9618 -2.6392 -0.7014
  101MOL0     H13599  11.749   5.441   1.018  1.4611 -1.1109 -0.3822
  101MOL0     H13600  11.812   5.592   0.952 -1.8546 -0.0266 -0.3334
  101MOL0     H13601  12.037   5.525   1.062  0.2977 -1.9123  3.2259
  101MOL0     H13602  11.970   5.363   1.078 -2.9913 -0.5061  1.1137
  101MOL0     H13603  12.014   5.515   0.809  0.0587 -0.9440 -3.3507
  101MOL0     H13604  12.098   5.371   0.870 -1.4825 -1.0583 -0.2074
  101MOL0     H13605  11.821   5.418   0.761  0.5314  0.9801  0.7380
  101MOL0     H13606  11.843   5.275   0.855 -1.0953 -0.5826 -1.4596
  101MOL0     H13607  12.041   5.216   0.689 -0.3973  0.6970 -0.0788
  101MOL0     H13608  11.968   5.335   0.579 -0.2952 -0.7717 -0.7792
  101MOL0     H13609  11.788   5.139   0.717  0.0689  1.0662  0.2344
  101MOL0     H13610  11.762   5.224   0.559  1.9268 -0.1589 -2.2682
  101MOL0     H13611  11.813   4.978   0.546 -1.1790  1.2253 -2.9618
  101MOL0     H13612  11.971   4.999   0.609  1.7882  1.1111 -0.1496
  101MOL0     H13613  12.028   5.133   0.398 -0.1281  1.7106 -0.2166
  101MOL0     H13614  11.951   4.982   0.361  2.8572  2.1885 -2.5311
  101MOL0     H13615  11.571   5.660   1.293 -1.5353  1.6725  1.8602
  101MOL0     H13616  11.491   5.860   1.321  2.6363 -0.2270  1.8278
  101MOL0     H13617  11.549   6.321   1.113 -1.3987 -1.8507  0.0600
  101MOL0     H13618  11.515   6.573   1.113 -0.0467  1.9446  0.6818
  101MOL0     H13619   9.940   6.795   0.813 -3.1636 -1.7616 -1.1647
  101MOL0     H13620   9.713   6.828   0.885 -1.2765  0.3449  0.9541
  101MOL0     H13621   9.267   6.837   0.951  3.6153  1.0695  1.4735
  101MOL0     H13622   9.057   6.931   1.044  1.6769 -0.9422  0.2170
  101MOL0     H13623   8.863   6.979   0.963 -0.6743  0.3956 -0.8680
  101MOL0     H13624   8.772   7.122   0.925 -1.2130  3.5225  1.9095
  101MOL0     H13625   8.728   7.183   1.167  0.2779 -0.5755  2.5514
  101MOL0     H13626   8.829   7.047   1.213  3.1752  1.3251 -0.8298
  101MOL0     H13627   8.587   6.994   1.236 -2.1104 -2.6355 -0.8221
  101MOL0     H13628   8.629   6.909   1.091  0.5206 -1.0955  2.4344
  101MOL0     H13629   8.498   7.191   1.107 -3.2638  0.1887  1.1221
  101MOL0     H13630   8.535   7.122   0.955 -0.5284  2.2523  0.7366
  101MOL0     H13631   8.169   6.942   1.114 -1.6484  1.4347 -2.2078
  101MOL0     H13632   9.137   7.305   0.862  1.8530  1.4286  4.0847
  101MOL0     H13633   9.325   7.313   0.719 -0.2019 -0.7452 -1.8860
  101MOL0     H13634   9.473   7.279   0.807  0.6015 -0.0528 -0.9344
  101MOL0     H13635   9.422   7.172   0.667 -0.9526  0.9837  0.2173
  102MOL0     O13636   4.082   9.563  10.897 -0.0180 -0.5778  0.5478
  102MOL0     C13637   4.065   9.673  10.949  0.5605  0.4379  0.7563
  102MOL0     O13638   3.953   9.758  10.921 -1.0452 -0.3438 -0.4451
  102MOL0     C13639   3.869   9.713  10.824  0.0313 -0.5563  0.0333
  102MOL0     C13640   3.780   9.610  10.850  0.1678 -0.3654 -0.3377
  102MOL0     C13641   3.688   9.574  10.760  0.5629 -0.3681  1.0969
  102MOL0     C13642   3.690   9.638  10.626  0.8265  0.1470 -0.4113
  102MOL0     O13643   3.608   9.601  10.522  0.5584  0.2681  0.6740
  102MOL0     C13644   3.512   9.492  10.531 -0.9239 -1.1876 -0.9493
  102MOL0     C13645   3.583   9.358  10.508  0.4385  0.0894 -0.5009
  102MOL0     C13646   3.480   9.244  10.508 -0.1906  0.7545 -0.3135
  102MOL0     C13647   3.557   9.113  10.484  0.3383 -0.1896 -0.8472
  102MOL0     C13648   3.478   8.991  10.515  0.1176  0.1284 -0.8743
  102MOL0     C13649   3.552   8.864  10.472 -0.5841 -0.1741 -0.5539
  102MOL0     C13650   3.496   8.732  10.536 -0.0113  0.1113  0.3046
  102MOL0     C13651   3.349   8.710  10.485  0.1748  0.2267 -1.3612
  102MOL0     N13652   3.274   8.604  10.561 -0.6911  1.2780  0.2409
  102MOL0     C13653   3.326   8.477  10.592  0.0802 -0.7708  0.3517
  102MOL0     C13654   3.242   8.427  10.681  0.6812  0.5906 -0.1722
  102MOL0     C13655   3.252   8.298  10.747  0.4523 -0.0362  0.6393
  102MOL0     C13656   3.237   8.288  10.903 -0.1130 -0.4867 -0.6381
  102MOL0     C13657   3.122   8.363  10.967 -0.3772 -0.0234  0.1859
  102MOL0     C13658   2.990   8.303  10.932  0.5462  0.8526  0.1700
  102MOL0     O13659   2.969   8.186  11.022  0.1556 -0.6058 -0.6458
  102MOL0     C13660   2.890   8.085  10.968  0.0345  0.3895 -0.0046
  102MOL0     C13661   2.919   7.950  11.005 -0.0586 -0.0217 -0.1298
  102MOL0     C13662   2.847   7.844  10.956  0.6235  0.1514 -0.2532
  102MOL0     C13663   2.730   7.870  10.883  0.2600 -0.3066 -0.9672
  102MOL0     C13664   2.642   7.757  10.824 -0.5950 -0.4376  0.3729
  102MOL0     O13665   2.702   7.642  10.837 -1.1309  0.5424  0.5720
  102MOL0     C13666   2.654   7.548  10.745 -0.0923  0.1951 -0.3878
  102MOL0     C13667   2.552   7.454  10.777  0.8139  0.2253  0.3905
  102MOL0     C13668   2.517   7.359  10.682 -0.5430  0.2750 -0.4042
  102MOL0     C13669   2.573   7.353  10.556 -0.5015 -0.1792  0.0561
  102MOL0     O13670   2.535   7.253  10.462 -0.4288 -0.1399 -0.1568
  102MOL0     C13671   2.400   7.231  10.441  0.9626 -0.2968  0.1333
  102MOL0     C13672   2.370   7.147  10.318  0.0075 -0.2549 -0.6294
  102MOL0     C13673   2.375   7.225  10.192  0.3054  0.0298  0.9389
  102MOL0     C13674   2.314   7.159  10.064  0.4092 -0.2762 -0.5062
  102MOL0     C13675   2.379   7.027  10.030 -0.5187  0.5345 -0.8503
  102MOL0     C13676   2.309   6.967   9.911 -0.8566  0.1089  0.6707
  102MOL0     C13677   2.199   6.867   9.954  0.1975  0.8127 -0.7229
  102MOL0     C13678   2.114   6.842   9.828  0.0389  0.0548 -0.3664
  102MOL0    Cl13679   2.010   6.703   9.860  0.0405  0.5447 -0.1105
  102MOL0     C13680   2.671   7.449  10.524 -0.3474 -0.3909 -0.4633
  102MOL0     C13681   2.710   7.550  10.615 -0.4607 -1.1632 -0.5443
  102MOL0     O13682   2.547   7.781  10.753  0.4238  0.3658 -0.3424
  102MOL0     C13683   2.688   8.010  10.853 -0.1535 -1.1705  0.4458
  102MOL0     C13684   2.767   8.107  10.896 -0.3931 -0.1554 -0.1830
  102MOL0     N13685   3.132   8.507  10.682  0.7264 -0.0867 -0.0555
  102MOL0     N13686   3.161   8.614  10.621  0.2983  0.2038  0.5516
  102MOL0     C13687   3.771   9.748  10.606  0.3445  0.2267 -0.2721
  102MOL0     C13688   3.853   9.787  10.706 -0.8224 -0.1647  0.2214
  102MOL0     C13689   4.156   9.718  11.048  0.3449  0.3123  0.9104
  102MOL0     C13690   4.285   9.684  11.033 -0.0269  0.2228 -1.0817
  102MOL0     C13691   4.379   9.740  11.111  0.2808 -1.0988  0.4937
  102MOL0     C13692   4.352   9.832  11.210  0.3527 -0.1210  0.4068
  102MOL0     O13693   4.457   9.887  11.282  0.0227 -0.1629  0.7280
  102MOL0     C13694   4.446   9.989  11.385 -0.1029 -0.8075 -0.8844
  102MOL0     C13695   4.579  10.007  11.467 -0.1758 -0.4164  0.7191
  102MOL0     C13696   4.700   9.988  11.390  0.0199  0.5966 -0.1637
  102MOL0     C13697   4.816  10.061  11.460  0.4918 -0.2943  0.6606
  102MOL0     C13698   4.938  10.026  11.390  0.4317  0.1836  0.2392
  102MOL0     C13699   5.045  10.006  11.342  0.9475 -0.0794 -0.4313
  102MOL0     C13700   4.222   9.861  11.240  0.4700 -0.1143  0.7372
  102MOL0     C13701   4.124   9.810  11.151 -0.0908  0.6275 -1.6048
  102MOL0     C13702   3.982   9.823  11.199 -0.0454 -0.3387  0.4621
  102MOL0     H13703   3.777   9.563  10.948 -2.3587 -0.2586 -0.2985
  102MOL0     H13704   3.611   9.502  10.783 -0.9919  0.8847  0.0385
  102MOL0     H13705   3.469   9.508  10.630  4.4323  1.1141  1.4296
  102MOL0     H13706   3.431   9.505  10.458 -0.9772 -4.0148 -1.5418
  102MOL0     H13707   3.658   9.343  10.586  0.9419  0.6782 -0.8621
  102MOL0     H13708   3.632   9.353  10.410 -2.5472 -0.1909 -2.1126
  102MOL0     H13709   3.409   9.255  10.425 -0.6343 -1.0901 -0.2126
  102MOL0     H13710   3.431   9.244  10.605  2.6548 -0.0296  1.2240
  102MOL0     H13711   3.590   9.106  10.380  0.4598  1.3660 -0.9332
  102MOL0     H13712   3.649   9.111  10.544  1.4127 -1.2838 -2.4326
  102MOL0     H13713   3.453   8.986  10.621 -0.6762  1.8684 -0.9350
  102MOL0     H13714   3.382   8.999  10.463 -0.2027 -0.4324 -0.3761
  102MOL0     H13715   3.554   8.844  10.364  0.3929 -2.0632 -0.2245
  102MOL0     H13716   3.654   8.883  10.505 -0.1309 -0.9193 -1.4711
  102MOL0     H13717   3.509   8.745  10.644  0.0774 -2.0685  0.5948
  102MOL0     H13718   3.562   8.649  10.509 -0.7310  0.1544 -1.8383
  102MOL0     H13719   3.303   8.807  10.509  2.6662  0.8205  1.6953
  102MOL0     H13720   3.342   8.680  10.381 -5.2019 -3.1741 -0.4224
  102MOL0     H13721   3.422   8.442  10.557  0.1830  0.2280 -0.4253
  102MOL0     H13722   3.163   8.243  10.715 -0.3556  0.0870  2.5361
  102MOL0     H13723   3.349   8.249  10.736  0.7748 -0.9854  5.3050
  102MOL0     H13724   3.251   8.188  10.946  0.7903  0.1550  0.6352
  102MOL0     H13725   3.327   8.343  10.933 -1.4997  1.6317 -0.1159
  102MOL0     H13726   3.129   8.469  10.941  1.8830  0.3582  1.9708
  102MOL0     H13727   3.131   8.361  11.076 -1.6096 -1.5069  0.2866
  102MOL0     H13728   2.982   8.282  10.825 -0.6096  1.9922  0.0059
  102MOL0     H13729   2.914   8.378  10.955 -1.4166 -0.7761 -0.6928
  102MOL0     H13730   3.010   7.949  11.065 -1.3403 -1.2115  1.9385
  102MOL0     H13731   2.884   7.748  10.989  0.7613  0.3608  0.2090
  102MOL0     H13732   2.515   7.444  10.879  1.9415  1.2262  0.9148
  102MOL0     H13733   2.432   7.299  10.714 -0.3470  1.9181  3.8235
  102MOL0     H13734   2.360   7.176  10.527 -0.7784  0.5953 -0.0616
  102MOL0     H13735   2.346   7.326  10.443  0.8026 -0.3997  1.0275
  102MOL0     H13736   2.456   7.080  10.313  1.4631  1.5971 -1.8008
  102MOL0     H13737   2.273   7.098  10.322 -1.0518  1.3781 -3.6489
  102MOL0     H13738   2.341   7.327  10.209  0.7027  0.1354  1.1154
  102MOL0     H13739   2.484   7.235  10.182  0.5717 -0.8533  2.5261
  102MOL0     H13740   2.307   7.220   9.974 -1.3666 -0.1654 -0.3212
  102MOL0     H13741   2.209   7.147  10.093  0.3573 -1.4565 -1.1020
  102MOL0     H13742   2.379   6.964  10.119 -2.7150  0.0331 -1.1429
  102MOL0     H13743   2.481   7.051   9.998  0.0106 -0.0936  0.3247
  102MOL0     H13744   2.267   7.053   9.857  1.2897  0.9352  0.2041
  102MOL0     H13745   2.385   6.914   9.854  0.2542  0.7710  1.5025
  102MOL0     H13746   2.126   6.889  10.033  1.2826 -1.6479  1.0680
  102MOL0     H13747   2.232   6.767   9.980 -1.8357  0.7323  2.0473
  102MOL0     H13748   2.049   6.926   9.803 -1.1185 -0.4380  0.8632
  102MOL0     H13749   2.179   6.828   9.741 -2.0545 -0.3459 -1.9354
  102MOL0     H13750   2.709   7.435  10.423 -2.7088 -3.7240 -1.0462
  102MOL0     H13751   2.782   7.624  10.582  1.1011 -2.2048  0.3895
  102MOL0     H13752   2.593   8.031  10.806  0.7676  0.1715 -0.9208
  102MOL0     H13753   2.744   8.212  10.877 -1.9456 -0.7663 -2.0255
  102MOL0     H13754   3.759   9.806  10.515 -4.3346  4.9557  2.8108
  102MOL0     H13755   3.913   9.877  10.693 -0.1780 -0.6555 -0.2688
  102MOL0     H13756   4.316   9.610  10.960 -0.4402 -1.0709  0.0095
  102MOL0     H13757   4.481   9.707  11.095  0.7419  1.0535 -1.4610
  102MOL0     H13758   4.369   9.966  11.459  1.7725  0.7851  1.7242
  102MOL0     H13759   4.416  10.081  11.334  3.1719  2.1932  2.1122
  102MOL0     H13760   4.574   9.941  11.555 -1.2450 -0.0256  0.9700
  102MOL0     H13761   4.580  10.113  11.494  1.6810 -0.3752  0.6479
  102MOL0     H13762   4.689  10.033  11.291  1.1697  1.2566 -0.0096
  102MOL0     H13763   4.712   9.880  11.374  3.8566  0.7105  0.8659
  102MOL0     H13764   4.803  10.170  11.471  0.4490 -0.3879  1.6261
  102MOL0     H13765   4.826  10.023  11.562  0.2711  2.2733  1.7167
  102MOL0     H13766   5.145   9.996  11.305  2.4365  0.5521  3.0096
  102MOL0     H13767   4.192   9.935  11.315  0.1198 -0.3221  0.8076
  102MOL0     H13768   3.926   9.900  11.145 -0.8370  0.3090  2.1645
  102MOL0     H13769   3.932   9.727  11.181  3.1465 -1.7499 -1.9928
  102MOL0     H13770   3.973   9.846  11.305 -2.1045  1.2898 -0.0103
  103MOL0     O13771   4.148   4.465   1.391  0.0055  0.1704 -0.0806
  103MOL0     C13772   4.116   4.563   1.455  0.0773 -0.1215  0.4636
  103MOL0     O13773   4.199   4.664   1.492  0.0707 -0.3268  0.6310
  103MOL0     C13774   4.338   4.654   1.486 -0.1250 -0.4575  0.3169
  103MOL0     C13775   4.414   4.538   1.516  0.1405 -0.7963  0.3379
  103MOL0     C13776   4.555   4.552   1.529 -0.8067 -0.3307 -0.1326
  103MOL0     C13777   4.612   4.680   1.508  1.3121 -0.5508 -0.7269
  103MOL0     O13778   4.744   4.719   1.532 -0.4532  1.2810  0.3457
  103MOL0     C13779   4.797   4.678   1.659  0.6778  0.4842 -0.6802
  103MOL0     C13780   4.938   4.731   1.683 -0.4208 -0.2505  1.1150
  103MOL0     C13781   4.993   4.720   1.826 -0.4477  0.9321  0.1123
  103MOL0     C13782   5.114   4.811   1.829  0.7341 -0.0656 -0.7428
  103MOL0     C13783   5.176   4.787   1.969 -0.1534 -0.4086  0.4913
  103MOL0     C13784   5.259   4.914   2.016 -0.1959 -1.0884 -0.5534
  103MOL0     C13785   5.332   4.923   2.150  0.3603 -0.6046 -1.4122
  103MOL0     C13786   5.462   4.840   2.167  0.7209  0.6289  1.1747
  103MOL0     N13787   5.562   4.871   2.069 -0.1672  0.4171 -1.1754
  103MOL0     C13788   5.682   4.801   2.058 -0.4880 -0.0031 -0.6143
  103MOL0     C13789   5.769   4.878   1.990 -0.5974  0.6737 -0.2809
  103MOL0     C13790   5.916   4.839   1.967  0.3669 -0.3086 -0.3611
  103MOL0     C13791   5.924   4.727   1.862 -0.4194  0.2085  0.8112
  103MOL0     C13792   6.069   4.678   1.869 -0.6716 -0.7488 -0.7515
  103MOL0     C13793   6.105   4.566   1.771 -0.2557 -0.7028  0.1594
  103MOL0     O13794   6.241   4.587   1.718  0.0916  0.4589 -0.1008
  103MOL0     C13795   6.341   4.549   1.794  0.1943  1.3831 -1.1729
  103MOL0     C13796   6.389   4.618   1.903  0.4555  0.0496 -0.1157
  103MOL0     C13797   6.502   4.566   1.974  0.2462 -0.5892 -0.0481
  103MOL0     C13798   6.566   4.448   1.940 -1.1133 -0.6287  0.2988
  103MOL0     C13799   6.683   4.407   2.015 -0.0688 -0.1800  0.3434
  103MOL0     O13800   6.732   4.278   2.011  0.1772 -0.4025  0.1055
  103MOL0     C13801   6.848   4.235   2.079  0.0899 -0.7161 -0.0903
  103MOL0     C13802   6.918   4.122   2.032 -0.2128 -0.2878  0.7442
  103MOL0     C13803   7.024   4.071   2.105 -0.2144  0.1540  0.6508
  103MOL0     C13804   7.071   4.119   2.224 -0.0479 -0.3608 -0.4931
  103MOL0     O13805   7.159   4.028   2.290 -0.4508  0.1857 -0.7277
  103MOL0     C13806   7.184   4.061   2.426  0.5859 -0.2301 -1.1352
  103MOL0     C13807   7.297   3.985   2.483 -0.5096  0.2586 -1.3185
  103MOL0     C13808   7.321   4.009   2.636  0.3327  0.3651 -0.7306
  103MOL0     C13809   7.435   3.914   2.680 -0.3874 -0.0915 -0.1488
  103MOL0     C13810   7.404   3.771   2.699 -0.3032 -0.0425  1.3248
  103MOL0     C13811   7.517   3.692   2.744  0.1016 -0.5402 -0.5280
  103MOL0     C13812   7.564   3.725   2.881 -0.2819 -0.6512 -0.9803
  103MOL0     C13813   7.661   3.634   2.958  0.3231 -0.4151 -0.1136
  103MOL0    Cl13814   7.798   3.599   2.856 -0.2063 -0.2011  0.2307
  103MOL0     C13815   7.006   4.230   2.272  0.8363 -0.6983  0.3304
  103MOL0     C13816   6.902   4.296   2.197  1.4135 -0.2962 -0.3779
  103MOL0     O13817   6.739   4.502   2.069 -0.4059  0.6226  0.1050
  103MOL0     C13818   6.527   4.383   1.823  0.3327  0.1099  0.3972
  103MOL0     C13819   6.415   4.430   1.754 -0.0913  0.1926  0.8815
  103MOL0     N13820   5.688   4.987   1.942  0.2987 -0.1266  0.0904
  103MOL0     N13821   5.570   4.983   1.987 -0.3260 -0.7854 -0.2890
  103MOL0     C13822   4.531   4.787   1.482  0.0782 -0.5544  0.5484
  103MOL0     C13823   4.397   4.774   1.468  0.2074 -0.1857  0.1410
  103MOL0     C13824   3.977   4.583   1.498  0.5110  0.6596  0.3540
  103MOL0     C13825   3.936   4.706   1.552  0.4886  0.2358  0.5928
  103MOL0     C13826   3.814   4.727   1.622 -0.1707  0.5789  0.5096
  103MOL0     C13827   3.720   4.621   1.614  0.2023  0.2760 -0.5517
  103MOL0     O13828   3.613   4.639   1.690  0.4826  1.0747 -0.3872
  103MOL0     C13829   3.503   4.551   1.680 -0.6229  0.2388  0.5696
  103MOL0     C13830   3.411   4.580   1.800 -0.6187  1.0228  0.0850
  103MOL0     C13831   3.336   4.703   1.763 -0.1038  0.4381  0.0328
  103MOL0     C13832   3.213   4.720   1.860 -0.1020 -0.1768  0.7047
  103MOL0     C13833   3.257   4.800   1.976 -0.1584  1.0732 -0.1877
  103MOL0     C13834   3.289   4.856   2.080 -0.3813 -0.2158 -0.6570
  103MOL0     C13835   3.754   4.497   1.545 -0.2199 -0.4893  1.0114
  103MOL0     C13836   3.879   4.481   1.488 -0.6565  0.8371 -0.1467
  103MOL0     C13837   3.909   4.345   1.431  0.7884 -0.0964 -0.5765
  103MOL0     H13838   4.360   4.447   1.540 -1.3858  0.4591  1.8276
  103MOL0     H13839   4.626   4.473   1.552 -0.6620  0.0430  0.7802
  103MOL0     H13840   4.738   4.739   1.728  1.4781  1.0090 -0.4488
  103MOL0     H13841   4.776   4.575   1.689  1.7077  1.4010  3.8807
  103MOL0     H13842   4.930   4.838   1.662  2.9446 -0.1054 -0.0141
  103MOL0     H13843   5.016   4.688   1.620 -1.8541  1.2543 -1.9417
  103MOL0     H13844   5.024   4.618   1.850  1.0251  0.8664 -1.7969
  103MOL0     H13845   4.919   4.766   1.893 -0.8025  1.5612 -0.6883
  103MOL0     H13846   5.185   4.781   1.752  1.7153 -0.1111  0.1529
  103MOL0     H13847   5.079   4.913   1.816  1.1180  0.5145  2.1307
  103MOL0     H13848   5.096   4.770   2.042 -0.4297  2.3016  0.9195
  103MOL0     H13849   5.242   4.700   1.960 -1.4239 -1.6587  2.4181
  103MOL0     H13850   5.327   4.943   1.935  1.7062  0.3169  1.4462
  103MOL0     H13851   5.177   4.985   2.031 -1.0007 -2.2722  0.8926
  103MOL0     H13852   5.259   4.901   2.230  0.3711  1.3472 -0.8110
  103MOL0     H13853   5.355   5.027   2.175  1.2386 -1.2590  0.8301
  103MOL0     H13854   5.501   4.859   2.268  2.0008  0.4701  0.7136
  103MOL0     H13855   5.430   4.736   2.157  4.3028 -0.5100  0.0671
  103MOL0     H13856   5.714   4.706   2.099  1.2660 -0.5465 -3.0661
  103MOL0     H13857   5.971   4.929   1.939 -0.9025  1.5405  2.5839
  103MOL0     H13858   5.955   4.814   2.066  1.7564  2.4983 -0.0979
  103MOL0     H13859   5.857   4.643   1.884  2.4360 -2.7648 -0.9930
  103MOL0     H13860   5.894   4.766   1.764  1.0651  0.6832  0.5283
  103MOL0     H13861   6.077   4.642   1.972  0.1069  0.3503 -0.4162
  103MOL0     H13862   6.147   4.754   1.869  0.1281 -1.5036  1.2953
  103MOL0     H13863   6.032   4.563   1.689 -3.5497  1.3881  2.7227
  103MOL0     H13864   6.090   4.466   1.813 -0.7973  0.1343  2.0905
  103MOL0     H13865   6.340   4.705   1.945  2.1647  1.6905 -1.3075
  103MOL0     H13866   6.526   4.627   2.061 -1.2472  0.4990 -0.3563
  103MOL0     H13867   6.875   4.079   1.942 -2.4590  1.4888  0.8652
  103MOL0     H13868   7.063   3.985   2.052 -2.6311  0.8845 -2.5886
  103MOL0     H13869   7.222   4.163   2.440  1.6099 -0.2045 -3.5794
  103MOL0     H13870   7.091   4.058   2.484  1.0078  0.7164 -0.3773
  103MOL0     H13871   7.284   3.878   2.465 -2.3721 -0.0194  1.1567
  103MOL0     H13872   7.385   4.015   2.426  1.1969 -1.7727  0.0689
  103MOL0     H13873   7.366   4.109   2.639 -0.8933  0.9558 -1.2070
  103MOL0     H13874   7.236   3.995   2.704  0.7222 -1.8894 -0.6423
  103MOL0     H13875   7.475   3.953   2.774 -0.4992  2.0175 -0.9173
  103MOL0     H13876   7.524   3.935   2.619  1.4529  0.6652  2.5661
  103MOL0     H13877   7.375   3.730   2.601 -0.8256 -0.4221  1.6331
  103MOL0     H13878   7.324   3.754   2.772 -0.9145  1.6579  1.0986
  103MOL0     H13879   7.483   3.589   2.730 -1.7142  0.1755 -1.7034
  103MOL0     H13880   7.596   3.710   2.671  0.0280  1.0878 -0.2251
  103MOL0     H13881   7.473   3.726   2.940  1.5233 -1.1122  2.0239
  103MOL0     H13882   7.610   3.824   2.886  1.5356 -1.4335 -1.3638
  103MOL0     H13883   7.675   3.677   3.057 -0.8796 -0.6029  0.1498
  103MOL0     H13884   7.604   3.542   2.974  0.7797 -1.1102 -2.1544
  103MOL0     H13885   7.041   4.276   2.363 -3.1965  1.0545  1.2251
  103MOL0     H13886   6.847   4.375   2.246  0.9474 -0.7248 -0.2037
  103MOL0     H13887   6.561   4.284   1.792  1.2211  0.9870 -1.5499
  103MOL0     H13888   6.377   4.386   1.663  1.1157 -0.4371  0.6597
  103MOL0     H13889   4.582   4.880   1.459  0.7384 -1.2018 -0.7050
  103MOL0     H13890   4.333   4.855   1.435  1.7003  1.3682  0.8886
  103MOL0     H13891   4.011   4.785   1.558  2.3061 -1.5036  2.0650
  103MOL0     H13892   3.786   4.811   1.686  0.2845 -0.0550  1.5712
  103MOL0     H13893   3.540   4.448   1.688 -2.0035 -0.1511  3.3275
  103MOL0     H13894   3.454   4.567   1.584  0.4080 -1.4645 -0.2876
  103MOL0     H13895   3.468   4.605   1.890 -3.4272  1.2761  1.9235
  103MOL0     H13896   3.343   4.494   1.808  1.1808 -0.3780  1.1988
  103MOL0     H13897   3.304   4.708   1.659 -2.7241  0.0314  0.7344
  103MOL0     H13898   3.404   4.789   1.764 -1.5982  1.6791 -1.3550
  103MOL0     H13899   3.139   4.787   1.814  3.3534  3.6248  0.1383
  103MOL0     H13900   3.176   4.625   1.899 -0.7644  0.6257  2.0895
  103MOL0     H13901   3.321   4.884   2.178  0.4892  0.8477 -1.2246
  103MOL0     H13902   3.677   4.421   1.538  0.7400 -1.3062 -2.2079
  103MOL0     H13903   3.942   4.355   1.327  0.4432  0.1375 -0.6656
  103MOL0     H13904   3.980   4.296   1.498  1.9004  0.9041 -0.9997
  103MOL0     H13905   3.820   4.281   1.429  1.5871 -1.2829  0.4935
  104MOL0     O13906   6.489   2.163   6.297 -0.4229 -0.4925  0.2746
  104MOL0     C13907   6.520   2.244   6.391  0.3160  0.4395 -0.1815
  104MOL0     O13908   6.626   2.324   6.394 -0.5953  0.4215 -0.4622
  104MOL0     C13909   6.735   2.289   6.320 -0.3560  0.0424  0.3204
  104MOL0     C13910   6.846   2.211   6.359  0.5461  0.9456 -0.6890
  104MOL0     C13911   6.944   2.166   6.266  0.3895  0.0145  1.2712
  104MOL0     C13912   6.950   2.211   6.135 -0.6199  0.1578 -0.4774
  104MOL0     O13913   7.065   2.176   6.063 -0.4877 -0.4659  0.3702
  104MOL0     C13914   7.102   2.273   5.967 -1.2539  1.0957  0.2994
  104MOL0     C13915   7.256   2.277   5.944 -1.3166  0.1334  0.2251
  104MOL0     C13916   7.302   2.233   5.800 -0.1091  0.2276  0.2311
  104MOL0     C13917   7.447   2.265   5.769  0.6492 -0.1721  0.4875
  104MOL0     C13918   7.480   2.241   5.625 -0.0606  0.7650  0.1960
  104MOL0     C13919   7.494   2.088   5.606  0.8497 -0.9339 -0.2406
  104MOL0     C13920   7.586   2.049   5.493  0.6714  0.9827 -0.0124
  104MOL0     C13921   7.514   2.082   5.362 -0.2560 -0.3431  0.7936
  104MOL0     N13922   7.599   2.048   5.254 -0.4744  0.5631 -0.0191
  104MOL0     C13923   7.642   1.919   5.218 -0.9663  0.6743  0.8444
  104MOL0     C13924   7.733   1.955   5.119  0.1784 -0.0263  0.1965
  104MOL0     C13925   7.814   1.857   5.047 -0.2246 -0.6048 -0.5260
  104MOL0     C13926   7.863   1.906   4.910  0.3231 -0.2612 -0.9427
  104MOL0     C13927   8.015   1.917   4.895  0.7383  0.9785  0.5391
  104MOL0     C13928   8.095   2.001   4.989  0.0321 -0.1566 -0.5030
  104MOL0     O13929   8.186   2.091   4.917  0.2206 -0.2465 -0.1380
  104MOL0     C13930   8.148   2.197   4.843  0.6161  0.2851 -0.2955
  104MOL0     C13931   8.011   2.240   4.837  0.1345  0.4132  0.0111
  104MOL0     C13932   7.981   2.352   4.759  0.1384 -1.0080  0.4935
  104MOL0     C13933   8.077   2.416   4.687 -0.7602  0.0093 -0.2334
  104MOL0     C13934   8.041   2.535   4.606  0.8878  0.8109 -0.5512
  104MOL0     O13935   7.908   2.547   4.584  0.1193  0.2751  0.2047
  104MOL0     C13936   7.862   2.666   4.532 -0.4474 -0.1288  0.1952
  104MOL0     C13937   7.890   2.793   4.596  0.6471  0.6915  0.0253
  104MOL0     C13938   7.849   2.912   4.525 -0.5377 -0.6286  0.0263
  104MOL0     C13939   7.793   2.906   4.399  0.1384 -0.3982  0.0517
  104MOL0     O13940   7.794   3.031   4.332  0.1852 -0.0101  0.0743
  104MOL0     C13941   7.735   3.041   4.206  0.3554  0.9672  0.6257
  104MOL0     C13942   7.744   3.184   4.153 -0.2208 -0.0608  0.0473
  104MOL0     C13943   7.697   3.303   4.242  0.0136  0.3719  0.2469
  104MOL0     C13944   7.688   3.417   4.141  0.1787 -0.0561  0.0360
  104MOL0     C13945   7.645   3.528   4.222  0.8948  0.2195 -0.4481
  104MOL0     C13946   7.612   3.642   4.124 -0.3929 -0.6455  0.3925
  104MOL0     C13947   7.567   3.765   4.197 -0.0697  0.3763  0.5123
  104MOL0     C13948   7.575   3.894   4.118  0.0947 -0.4855 -0.1241
  104MOL0    Cl13949   7.434   3.941   4.012  0.1018 -0.0882  0.2188
  104MOL0     C13950   7.746   2.784   4.350  0.6229  0.4146 -0.9001
  104MOL0     C13951   7.772   2.660   4.421 -1.0210 -0.0958  0.0414
  104MOL0     O13952   8.119   2.617   4.589 -0.9327  0.2385 -0.0049
  104MOL0     C13953   8.213   2.383   4.708 -0.2371  0.5074 -0.0240
  104MOL0     C13954   8.240   2.264   4.769 -0.1705 -0.2748 -0.1218
  104MOL0     N13955   7.749   2.093   5.115  0.3955  0.0679 -0.5032
  104MOL0     N13956   7.661   2.150   5.188  0.6782  0.3306  0.7127
  104MOL0     C13957   6.844   2.307   6.099  0.4162  0.2846  0.3471
  104MOL0     C13958   6.743   2.334   6.187  0.3735 -0.8003  0.2445
  104MOL0     C13959   6.412   2.277   6.497 -0.3324  0.3385 -0.0197
  104MOL0     C13960   6.445   2.379   6.586  0.3272 -0.4132  0.1167
  104MOL0     C13961   6.362   2.429   6.689  0.1013 -0.6572  0.4676
  104MOL0     C13962   6.231   2.369   6.703  0.7724 -1.0826 -1.1734
  104MOL0     O13963   6.132   2.408   6.789  0.5818 -0.1231 -0.4189
  104MOL0     C13964   6.166   2.503   6.895 -0.3384 -0.4055 -0.4112
  104MOL0     C13965   6.042   2.507   6.982 -0.9860  1.0488  0.1412
  104MOL0     C13966   6.010   2.386   7.071  0.1340  0.2726  0.2777
  104MOL0     C13967   6.107   2.378   7.194  0.1651 -0.1596  0.3976
  104MOL0     C13968   6.075   2.257   7.268 -0.7901 -0.7326 -0.3138
  104MOL0     C13969   6.073   2.151   7.336  0.0671 -0.2842  0.2318
  104MOL0     C13970   6.214   2.259   6.627 -0.1685  0.4505  0.5435
  104MOL0     C13971   6.290   2.206   6.523  0.4201 -0.8800  0.9229
  104MOL0     C13972   6.245   2.081   6.449 -0.4257 -0.1464 -0.0342
  104MOL0     H13973   6.855   2.181   6.463 -3.8747  0.8584 -0.1292
  104MOL0     H13974   7.014   2.091   6.302 -1.7968 -0.8322  4.1679
  104MOL0     H13975   7.067   2.234   5.871  2.8188  1.0831 -1.3778
  104MOL0     H13976   7.066   2.373   5.994  2.9165  3.0380 -0.6247
  104MOL0     H13977   7.317   2.225   6.018 -2.3314 -1.1305  0.2051
  104MOL0     H13978   7.293   2.379   5.954  0.5892 -0.7350  3.4531
  104MOL0     H13979   7.238   2.282   5.727 -0.1220  0.0608  0.1308
  104MOL0     H13980   7.287   2.126   5.788  3.7769 -0.3691 -0.5829
  104MOL0     H13981   7.465   2.372   5.786 -0.1347  0.7338 -3.3819
  104MOL0     H13982   7.518   2.220   5.839  1.6156  1.1913  0.4172
  104MOL0     H13983   7.403   2.280   5.558 -0.2785  0.0685  0.0339
  104MOL0     H13984   7.568   2.303   5.608 -0.9134  2.1219  0.5207
  104MOL0     H13985   7.532   2.051   5.702 -3.6219 -1.3501  1.5749
  104MOL0     H13986   7.401   2.032   5.602 -0.6147  1.3789 -0.3214
  104MOL0     H13987   7.621   1.947   5.513  1.4643  1.3684  0.6188
  104MOL0     H13988   7.680   2.104   5.498  1.0612  0.3246 -0.0726
  104MOL0     H13989   7.417   2.032   5.362 -0.9809  1.0133  0.1176
  104MOL0     H13990   7.491   2.188   5.370 -1.7972 -0.1395 -3.7526
  104MOL0     H13991   7.611   1.821   5.251 -0.4281 -0.1174 -0.8427
  104MOL0     H13992   7.898   1.831   5.111  1.2267  4.1151 -0.1590
  104MOL0     H13993   7.753   1.767   5.031  1.1846 -1.2849 -2.4248
  104MOL0     H13994   7.807   1.840   4.842 -1.8724 -1.0957  1.5065
  104MOL0     H13995   7.831   2.008   4.887  1.2381  0.6017  1.3025
  104MOL0     H13996   8.037   1.934   4.790  1.9397  0.8803  0.7563
  104MOL0     H13997   8.049   1.815   4.915 -0.8268  0.1753 -0.7278
  104MOL0     H13998   8.155   1.930   5.045  0.6735  1.1692  0.5491
  104MOL0     H13999   8.035   2.058   5.060  2.4441  2.2692 -0.2229
  104MOL0     H14000   7.936   2.180   4.888  0.4217 -0.0132 -0.0668
  104MOL0     H14001   7.877   2.382   4.752  0.4838  0.7517  2.0705
  104MOL0     H14002   7.947   2.800   4.688  2.1937  0.3466 -0.8776
  104MOL0     H14003   7.870   3.013   4.557  1.7071 -0.7716 -0.8544
  104MOL0     H14004   7.790   2.974   4.140 -0.1463  2.1932 -1.1097
  104MOL0     H14005   7.630   3.015   4.218  0.2220  0.3625 -1.5175
  104MOL0     H14006   7.846   3.217   4.128 -1.1940  4.5406  1.1449
  104MOL0     H14007   7.686   3.179   4.061  0.7781 -2.5790 -0.5389
  104MOL0     H14008   7.601   3.278   4.289  0.3196 -1.7725 -0.1472
  104MOL0     H14009   7.769   3.319   4.324 -2.6071  0.2761  2.7328
  104MOL0     H14010   7.608   3.396   4.070 -0.2458  0.8557  0.2362
  104MOL0     H14011   7.785   3.453   4.104 -1.1427  5.9799  1.4046
  104MOL0     H14012   7.718   3.570   4.292  1.0707  2.2974 -1.7882
  104MOL0     H14013   7.554   3.497   4.273  1.8858 -0.7079  0.8136
  104MOL0     H14014   7.699   3.668   4.062  1.5590 -4.1363  1.4391
  104MOL0     H14015   7.529   3.607   4.062 -1.0458  1.5744 -0.0966
  104MOL0     H14016   7.638   3.782   4.279  1.5578  1.9249 -1.1421
  104MOL0     H14017   7.465   3.743   4.232 -0.0173 -0.0383  0.4089
  104MOL0     H14018   7.597   3.974   4.189  3.5187 -1.2585 -0.1534
  104MOL0     H14019   7.665   3.906   4.057  0.3755  1.6703  0.6462
  104MOL0     H14020   7.701   2.783   4.251 -2.1863 -0.6025  0.3125
  104MOL0     H14021   7.721   2.575   4.378  1.4372 -1.4952 -0.2644
  104MOL0     H14022   8.289   2.434   4.650  0.8120 -0.1407  0.7596
  104MOL0     H14023   8.344   2.233   4.767 -0.0693  0.0285 -2.6688
  104MOL0     H14024   6.817   2.353   6.005 -2.5875  1.9528  1.8612
  104MOL0     H14025   6.658   2.388   6.146  1.0455 -1.0804 -1.6257
  104MOL0     H14026   6.541   2.431   6.593 -0.0378  0.4584 -1.0851
  104MOL0     H14027   6.391   2.507   6.757  1.8157 -2.1381  1.5079
  104MOL0     H14028   6.203   2.595   6.850 -0.3873 -0.2362 -0.1107
  104MOL0     H14029   6.251   2.461   6.948  0.9073  0.9566 -1.2609
  104MOL0     H14030   5.952   2.515   6.919 -1.7104 -2.4390  0.5041
  104MOL0     H14031   6.059   2.601   7.034  2.9582  1.2976 -1.3183
  104MOL0     H14032   6.036   2.299   7.010 -2.2758  0.5697 -1.2911
  104MOL0     H14033   5.905   2.375   7.099 -0.2341 -1.3545 -1.5374
  104MOL0     H14034   6.211   2.387   7.164  0.1974 -1.7204 -0.0809
  104MOL0     H14035   6.097   2.461   7.264  0.8306  2.1001 -1.9931
  104MOL0     H14036   6.065   2.060   7.391 -0.9244  1.2670  2.8666
  104MOL0     H14037   6.124   2.203   6.651 -0.6709  1.3927  0.9220
  104MOL0     H14038   6.142   2.065   6.482  0.3598 -3.5116  1.1647
  104MOL0     H14039   6.256   2.075   6.341 -4.3141 -0.3181 -0.5865
  104MOL0     H14040   6.293   1.994   6.494 -1.5572  1.1210  4.1393
  105MOL0     O14041  10.523   3.323   5.258  0.3216 -0.3638 -0.0789
  105MOL0     C14042  10.442   3.385   5.193  0.3220  0.6742  0.0900
  105MOL0     O14043  10.473   3.462   5.088  0.3152  0.3808 -0.1111
  105MOL0     C14044  10.607   3.479   5.056  0.0184 -0.0392  0.3688
  105MOL0     C14045  10.709   3.518   5.142  0.7265 -0.1311  0.4076
  105MOL0     C14046  10.846   3.521   5.107 -0.1306  0.0878 -0.4956
  105MOL0     C14047  10.888   3.481   4.972  0.4260 -0.9309  0.0577
  105MOL0     O14048  11.018   3.473   4.952 -0.6617 -0.2875  0.1367
  105MOL0     C14049  11.060   3.410   4.829 -0.3036  0.1421  0.9025
  105MOL0     C14050  11.205   3.368   4.829  0.8687 -0.7407 -0.0289
  105MOL0     C14051  11.324   3.468   4.841 -0.5100  0.3698  0.1042
  105MOL0     C14052  11.446   3.393   4.790  0.2108  0.2709  0.4343
  105MOL0     C14053  11.585   3.462   4.805 -0.5758  0.3980  0.3534
  105MOL0     C14054  11.693   3.409   4.704  0.1292  0.0873 -0.7614
  105MOL0     C14055  11.836   3.455   4.755  0.5546 -0.1944  0.3883
  105MOL0     C14056  11.959   3.414   4.673 -0.4326 -0.5189  0.0275
  105MOL0     N14057  11.976   3.270   4.686 -0.6713  0.1923  0.2436
  105MOL0     C14058  12.043   3.205   4.796  0.7302  0.1617  0.6019
  105MOL0     C14059  12.034   3.075   4.772  0.8902  0.0692 -0.3846
  105MOL0     C14060  12.105   2.970   4.854 -0.3662 -0.1026  0.4970
  105MOL0     C14061  12.257   2.967   4.823 -0.1049 -0.2712  0.6294
  105MOL0     C14062  12.291   3.002   4.677 -0.2210  0.6977  0.3690
  105MOL0     C14063  12.434   2.978   4.649 -1.0377 -0.4928  1.0780
  105MOL0     O14064  12.532   3.044   4.740  0.1160 -0.0345  0.2644
  105MOL0     C14065  12.653   2.986   4.739 -0.2416 -0.8968 -0.4511
  105MOL0     C14066  12.705   2.899   4.641  0.0600 -0.6394 -0.0285
  105MOL0     C14067  12.839   2.864   4.642  0.6590  0.5715 -0.5986
  105MOL0     C14068  12.934   2.907   4.734 -0.1352 -0.0556 -0.5583
  105MOL0     C14069  13.083   2.872   4.732  0.3884 -0.6764 -0.2132
  105MOL0     O14070  13.158   2.956   4.797 -0.1580 -0.8258 -0.6616
  105MOL0     C14071  13.289   2.919   4.830  1.0232 -0.7728 -0.4460
  105MOL0     C14072  13.382   2.902   4.733  0.1747 -0.7688  0.1954
  105MOL0     C14073  13.518   2.872   4.769  0.5551  1.0406  0.3753
  105MOL0     C14074  13.563   2.884   4.903  0.0488 -0.0140 -0.1682
  105MOL0     O14075  13.698   2.877   4.922 -0.3536 -0.2935  0.1063
  105MOL0     C14076  13.753   2.824   5.038 -0.2454 -1.0991 -0.5704
  105MOL0     C14077  13.890   2.771   4.995 -0.4846  0.0108 -0.9219
  105MOL0     C14078  13.992   2.741   5.117 -0.4069  0.6314 -0.3313
  105MOL0     C14079  14.049   2.869   5.193  0.5887  0.5165 -0.6942
  105MOL0     C14080  14.150   2.826   5.312  0.3501  0.0807 -0.4327
  105MOL0     C14081  14.169   2.948   5.402 -0.2192 -0.1205  0.5101
  105MOL0     C14082  14.287   2.924   5.500  0.2351  0.6817 -0.0960
  105MOL0     C14083  14.267   3.017   5.619 -0.6507 -0.1799  0.1868
  105MOL0    Cl14084  14.162   2.942   5.736  0.0387 -0.4145  0.1812
  105MOL0     C14085  13.469   2.907   5.003 -0.3455 -0.3630  0.3805
  105MOL0     C14086  13.330   2.917   4.965  0.3516 -0.5641 -0.5100
  105MOL0     O14087  13.122   2.770   4.672 -0.3258 -0.5355 -0.0851
  105MOL0     C14088  12.884   2.981   4.839  0.1615  0.4422 -0.3024
  105MOL0     C14089  12.746   3.019   4.842 -0.2337 -0.3123  0.1115
  105MOL0     N14090  11.954   3.060   4.662  0.3938 -0.0823  0.2983
  105MOL0     N14091  11.917   3.173   4.609 -0.9600 -0.2356 -0.0439
  105MOL0     C14092  10.781   3.453   4.882  0.6736 -0.1105  0.4743
  105MOL0     C14093  10.645   3.460   4.920 -0.5207  0.1494 -0.2799
  105MOL0     C14094  10.295   3.388   5.236 -0.1626  0.1523  0.3970
  105MOL0     C14095  10.213   3.478   5.159  0.0075 -0.9353 -0.0088
  105MOL0     C14096  10.080   3.494   5.193 -0.2415 -0.2740  0.3047
  105MOL0     C14097  10.010   3.426   5.289 -0.1933  0.2326  0.0394
  105MOL0     O14098   9.883   3.452   5.303  0.1523  0.2044  0.4769
  105MOL0     C14099   9.803   3.396   5.408  1.5838 -0.1699 -0.6521
  105MOL0     C14100   9.659   3.447   5.378 -1.0207 -0.2997  0.1003
  105MOL0     C14101   9.644   3.599   5.424  0.1381  0.6101 -0.6596
  105MOL0     C14102   9.513   3.663   5.368  0.2796  0.9604  0.2119
  105MOL0     C14103   9.395   3.599   5.431  0.4467  0.5858 -0.1107
  105MOL0     C14104   9.313   3.535   5.484  0.9782  0.1781  0.2061
  105MOL0     C14105  10.089   3.341   5.361  0.2306  0.6507 -0.5572
  105MOL0     C14106  10.231   3.322   5.351  0.6684  0.3932  0.7961
  105MOL0     C14107  10.303   3.216   5.430  0.0247 -0.7568 -0.1017
  105MOL0     H14108  10.670   3.544   5.240  1.9994  1.7521  0.4682
  105MOL0     H14109  10.925   3.546   5.176  1.9390  1.6274 -3.2401
  105MOL0     H14110  10.997   3.326   4.801  2.9067 -1.2181 -3.3548
  105MOL0     H14111  11.051   3.476   4.742  0.5710  0.0586  0.7417
  105MOL0     H14112  11.225   3.311   4.738 -0.2029 -1.3117  0.0752
  105MOL0     H14113  11.215   3.292   4.908  1.2181 -0.1389  0.5142
  105MOL0     H14114  11.338   3.489   4.948 -1.9034 -1.2028  0.6442
  105MOL0     H14115  11.321   3.556   4.776 -0.7245  0.8046  0.6862
  105MOL0     H14116  11.445   3.300   4.848  1.3717 -0.6298 -0.9118
  105MOL0     H14117  11.434   3.362   4.686 -0.9540  0.3676  0.5308
  105MOL0     H14118  11.571   3.567   4.781 -2.0594  0.0349 -0.4750
  105MOL0     H14119  11.621   3.445   4.907  0.5118  2.2896  0.3249
  105MOL0     H14120  11.691   3.299   4.713  2.3260 -0.0181 -1.0369
  105MOL0     H14121  11.661   3.435   4.603 -0.6759  4.5302  0.4313
  105MOL0     H14122  11.846   3.421   4.858 -0.3948  2.4015  1.4070
  105MOL0     H14123  11.839   3.564   4.764 -2.8895  0.0782 -0.4904
  105MOL0     H14124  11.939   3.440   4.569 -0.7832 -0.6436  0.0636
  105MOL0     H14125  12.052   3.458   4.710  0.5323 -0.1480 -2.6628
  105MOL0     H14126  12.096   3.260   4.873  2.3537  0.7662 -0.8828
  105MOL0     H14127  12.103   2.989   4.962  1.8019  1.8111  0.2714
  105MOL0     H14128  12.055   2.878   4.822  2.9724 -0.6809 -4.0678
  105MOL0     H14129  12.304   3.040   4.890  0.6118 -0.9421  0.8765
  105MOL0     H14130  12.294   2.868   4.849  2.9878  0.4599 -0.4943
  105MOL0     H14131  12.276   3.109   4.663 -1.3461  0.7715  1.8329
  105MOL0     H14132  12.227   2.953   4.603  2.1804  0.0223 -1.3830
  105MOL0     H14133  12.452   3.011   4.546 -0.7039 -2.6132  0.4005
  105MOL0     H14134  12.445   2.869   4.650  0.9419 -0.6339 -4.2968
  105MOL0     H14135  12.655   2.865   4.551  3.5417 -1.3916 -1.8164
  105MOL0     H14136  12.861   2.821   4.545  1.3677  2.5479 -1.3544
  105MOL0     H14137  13.351   2.926   4.632 -0.5034 -0.9445  0.3560
  105MOL0     H14138  13.594   2.844   4.696  0.3386 -2.2920  1.2744
  105MOL0     H14139  13.765   2.900   5.116  0.2802 -0.7859 -0.9496
  105MOL0     H14140  13.687   2.745   5.077  2.6792 -1.6036  4.0750
  105MOL0     H14141  13.873   2.677   4.943  1.6243 -0.5203 -0.7346
  105MOL0     H14142  13.930   2.841   4.921 -0.6670  0.5774 -0.4970
  105MOL0     H14143  13.937   2.677   5.187  1.4895 -0.6698  0.0460
  105MOL0     H14144  14.081   2.691   5.079 -0.1108 -0.2300  1.3839
  105MOL0     H14145  13.962   2.921   5.235 -0.0426  0.3443 -1.7548
  105MOL0     H14146  14.091   2.944   5.126  0.2717  0.0385 -1.4335
  105MOL0     H14147  14.240   2.785   5.265  0.2017 -1.0907  0.2686
  105MOL0     H14148  14.113   2.744   5.374 -1.5849  1.6468  0.6180
  105MOL0     H14149  14.194   3.031   5.335 -1.1437  0.3070  0.6747
  105MOL0     H14150  14.073   2.964   5.452 -0.5600 -1.2231  0.2410
  105MOL0     H14151  14.383   2.948   5.452  0.2594 -3.5558 -2.6851
  105MOL0     H14152  14.287   2.823   5.541 -0.5311  1.5859  2.2570
  105MOL0     H14153  14.360   3.053   5.665 -0.6583 -0.0785  0.1224
  105MOL0     H14154  14.211   3.108   5.597 -0.5356  0.1449  1.1889
  105MOL0     H14155  13.504   2.915   5.105 -0.5952 -1.3466  0.5521
  105MOL0     H14156  13.253   2.934   5.040 -1.6923 -3.4162 -1.7438
  105MOL0     H14157  12.943   3.025   4.918  0.5842  0.1096 -0.4253
  105MOL0     H14158  12.723   3.096   4.916 -0.4481  0.1339 -0.4071
  105MOL0     H14159  10.810   3.438   4.779  1.7575  4.7771 -0.1716
  105MOL0     H14160  10.572   3.437   4.844 -0.0373 -0.8790 -0.4506
  105MOL0     H14161  10.247   3.499   5.058  0.5464 -2.7940 -0.2582
  105MOL0     H14162  10.021   3.550   5.121  0.8873  0.7318  0.1163
  105MOL0     H14163   9.831   3.432   5.507  1.8362 -1.8742 -0.0819
  105MOL0     H14164   9.814   3.287   5.411  1.6691 -0.1729 -1.0338
  105MOL0     H14165   9.577   3.388   5.418 -0.2404 -0.0452  2.1496
  105MOL0     H14166   9.639   3.446   5.270 -2.4660  3.7503  0.1459
  105MOL0     H14167   9.737   3.650   5.396  1.7024 -1.6311  0.1536
  105MOL0     H14168   9.639   3.612   5.532 -0.8920 -0.7174 -0.5180
  105MOL0     H14169   9.506   3.771   5.383 -1.6786  0.8700  0.1605
  105MOL0     H14170   9.519   3.659   5.259  0.1082  5.4341 -0.1537
  105MOL0     H14171   9.237   3.486   5.542  4.8350 -2.5529  3.5770
  105MOL0     H14172  10.039   3.295   5.446  0.1434 -1.1610 -1.5515
  105MOL0     H14173  10.231   3.167   5.496 -1.4225 -0.7778 -1.6480
  105MOL0     H14174  10.363   3.145   5.372  2.7398  0.2359  1.2778
  105MOL0     H14175  10.380   3.263   5.493  2.4933  1.2527 -4.1598
  106MOL0     O14176   2.009   1.728   0.726  0.3260  0.4765 -0.1324
  106MOL0     C14177   1.986   1.712   0.844  0.5249 -0.2622  0.1039
  106MOL0     O14178   2.081   1.723   0.941  0.6310  0.4263  0.1851
  106MOL0     C14179   2.215   1.717   0.917  0.1227 -0.0479 -0.4150
  106MOL0     C14180   2.274   1.807   1.011  0.4867 -0.7134  0.4186
  106MOL0     C14181   2.408   1.838   0.996 -0.3178  0.1807  0.0435
  106MOL0     C14182   2.487   1.773   0.900  0.4213  0.2881 -0.0830
  106MOL0     O14183   2.620   1.813   0.881 -0.3734  0.2009 -0.1324
  106MOL0     C14184   2.714   1.714   0.845  0.5069  0.2755 -0.7972
  106MOL0     C14185   2.854   1.755   0.875 -0.6570  0.0697 -0.6153
  106MOL0     C14186   2.953   1.646   0.846 -0.7979 -0.0596 -0.7997
  106MOL0     C14187   3.102   1.688   0.876 -0.9789 -0.3982 -0.3893
  106MOL0     C14188   3.128   1.736   1.025  0.3256 -0.6628  0.0565
  106MOL0     C14189   3.270   1.758   1.032 -0.4484  0.2084 -0.5598
  106MOL0     C14190   3.357   1.627   1.052 -1.2641 -0.1338 -0.9374
  106MOL0     C14191   3.508   1.664   1.095  0.4748  0.6157 -0.6296
  106MOL0     N14192   3.587   1.565   1.176 -0.1617  0.3360 -0.6597
  106MOL0     C14193   3.713   1.521   1.161  0.5612  0.3791 -0.1271
  106MOL0     C14194   3.728   1.429   1.251 -0.2134 -0.1906 -0.0383
  106MOL0     C14195   3.862   1.356   1.266  0.7650  0.4298  0.7589
  106MOL0     C14196   3.846   1.200   1.283 -0.3833  0.7206  0.0976
  106MOL0     C14197   3.729   1.137   1.207  0.1895  0.4236  0.1598
  106MOL0     C14198   3.753   0.983   1.192  0.3157  1.2061  0.0929
  106MOL0     O14199   3.847   0.955   1.077 -0.6772 -0.2498 -0.5590
  106MOL0     C14200   3.946   0.862   1.105 -0.2228  1.0098  0.3210
  106MOL0     C14201   4.065   0.887   1.177  0.2151 -0.6659 -0.4691
  106MOL0     C14202   4.158   0.786   1.187 -0.4314 -0.3451 -0.0296
  106MOL0     C14203   4.137   0.659   1.134 -0.8719 -0.5676 -0.5442
  106MOL0     C14204   4.246   0.559   1.155  0.0673 -0.8893 -0.8624
  106MOL0     O14205   4.338   0.584   1.260 -0.1472 -0.2717  0.8848
  106MOL0     C14206   4.425   0.487   1.306 -0.3107 -0.0911  0.8357
  106MOL0     C14207   4.563   0.500   1.291 -0.0837 -1.4797  0.4984
  106MOL0     C14208   4.653   0.403   1.336  0.2199  0.5372 -0.2952
  106MOL0     C14209   4.597   0.282   1.391 -0.3849 -0.0645  0.3024
  106MOL0     O14210   4.674   0.176   1.423  0.0454 -0.3476 -0.3944
  106MOL0     C14211   4.810   0.185   1.469 -0.3880 -0.3586  0.7887
  106MOL0     C14212   4.835   0.062   1.560  0.2347 -0.2733  0.0325
  106MOL0     C14213   4.984   0.068   1.620  0.6339 -0.2664  0.2828
  106MOL0     C14214   4.993  -0.053   1.704 -0.5206 -0.1329  0.3890
  106MOL0     C14215   5.135  -0.094   1.736 -0.1276  0.7507 -0.1641
  106MOL0     C14216   5.192   0.015   1.823 -0.0910  0.7046 -0.0494
  106MOL0     C14217   5.325  -0.032   1.880 -0.4726 -0.5587  0.1348
  106MOL0     C14218   5.324  -0.095   2.018 -0.1562 -0.0160 -0.5650
  106MOL0    Cl14219   5.230  -0.249   2.022 -0.5326 -0.1229 -0.1024
  106MOL0     C14220   4.464   0.272   1.409  0.5866  1.3355 -0.2506
  106MOL0     C14221   4.373   0.372   1.364 -0.1725  0.5549  0.5139
  106MOL0     O14222   4.234   0.455   1.100  0.0480 -0.0848 -0.0594
  106MOL0     C14223   4.024   0.641   1.057  1.7763 -0.4983  1.1169
  106MOL0     C14224   3.929   0.743   1.039  0.1658  0.1175 -0.4626
  106MOL0     N14225   3.618   1.411   1.319  0.6289  0.7864  0.5252
  106MOL0     N14226   3.529   1.498   1.275  0.3226  1.2824 -0.3411
  106MOL0     C14227   2.430   1.682   0.813 -0.5690  0.0064 -0.4397
  106MOL0     C14228   2.291   1.653   0.818 -0.3341  0.1350 -0.6334
  106MOL0     C14229   1.839   1.693   0.888 -0.3556  0.0900 -0.0906
  106MOL0     C14230   1.743   1.671   0.789  0.4228  0.3840 -0.4222
  106MOL0     C14231   1.607   1.680   0.832 -0.7663  0.0340 -0.2950
  106MOL0     C14232   1.570   1.689   0.967 -0.6449 -0.3596  0.2519
  106MOL0     O14233   1.444   1.693   1.022  0.1569 -0.6726  0.4000
  106MOL0     C14234   1.343   1.754   0.934 -0.3432  0.7477  0.1505
  106MOL0     C14235   1.209   1.709   0.971  0.4272 -0.8349 -0.3858
  106MOL0     C14236   1.156   1.713   1.115  1.2092 -0.9470  0.0694
  106MOL0     C14237   1.236   1.821   1.203  0.1533 -0.7693 -0.7053
  106MOL0     C14238   1.174   1.817   1.339  0.0965 -0.5907  0.1691
  106MOL0     C14239   1.141   1.809   1.454 -0.8642 -0.2536 -0.0078
  106MOL0     C14240   1.671   1.677   1.061 -0.5465  0.4480  1.3225
  106MOL0     C14241   1.805   1.686   1.026  0.4506  0.0118  0.4094
  106MOL0     C14242   1.900   1.689   1.144  0.3727 -0.6612 -0.2092
  106MOL0     H14243   2.215   1.870   1.077  0.2521  0.2878 -0.7099
  106MOL0     H14244   2.450   1.910   1.065 -2.4505 -0.9883  2.7835
  106MOL0     H14245   2.695   1.624   0.904 -0.4351  1.8780  1.4417
  106MOL0     H14246   2.707   1.689   0.739  0.0306 -2.3510 -0.2075
  106MOL0     H14247   2.882   1.779   0.978  2.1219  1.5202 -1.6194
  106MOL0     H14248   2.867   1.843   0.812 -0.2962  0.4356 -0.0333
  106MOL0     H14249   2.947   1.615   0.741  1.4261  2.1158 -1.6945
  106MOL0     H14250   2.937   1.559   0.910  0.7436  0.5335  0.4753
  106MOL0     H14251   3.167   1.601   0.864 -0.1118  0.0817  0.6782
  106MOL0     H14252   3.130   1.772   0.813  3.4279 -0.3935  1.2603
  106MOL0     H14253   3.082   1.833   1.048  0.7421 -0.7697  1.3883
  106MOL0     H14254   3.084   1.674   1.103  2.0585 -1.1423  0.6841
  106MOL0     H14255   3.307   1.806   0.941 -0.0638 -0.6464 -0.8740
  106MOL0     H14256   3.290   1.816   1.122  1.2050 -1.5232  0.2605
  106MOL0     H14257   3.354   1.573   0.957 -0.9149 -3.4812  0.8156
  106MOL0     H14258   3.311   1.561   1.127  0.9836  0.1234  0.7720
  106MOL0     H14259   3.556   1.689   1.000 -1.6089 -0.4789 -2.0548
  106MOL0     H14260   3.498   1.753   1.157  1.9675  1.2277 -1.2364
  106MOL0     H14261   3.786   1.559   1.090  1.9086  3.8632  2.8048
  106MOL0     H14262   3.919   1.385   1.178 -2.0128  0.9817 -1.0109
  106MOL0     H14263   3.922   1.399   1.347 -2.1318  1.6860  2.4039
  106MOL0     H14264   3.946   1.159   1.264 -0.4574 -0.1378  1.3964
  106MOL0     H14265   3.819   1.177   1.387  0.1813  2.4475  0.6623
  106MOL0     H14266   3.715   1.167   1.102  1.2092  1.1465  0.2232
  106MOL0     H14267   3.637   1.158   1.261  0.3943  0.9556  0.3064
  106MOL0     H14268   3.660   0.930   1.171  0.8121  0.9831 -1.8011
  106MOL0     H14269   3.797   0.951   1.287 -0.3171 -0.1825 -0.0534
  106MOL0     H14270   4.090   0.987   1.209  0.9251 -0.8083 -0.5557
  106MOL0     H14271   4.248   0.815   1.240 -0.5582 -0.6523  0.3627
  106MOL0     H14272   4.590   0.585   1.229  0.2279 -0.2050  2.3011
  106MOL0     H14273   4.759   0.407   1.310  0.2862  2.0446  0.1275
  106MOL0     H14274   4.878   0.186   1.384 -3.1561  3.2760 -1.7227
  106MOL0     H14275   4.820   0.276   1.530  1.8899 -0.8035  1.1480
  106MOL0     H14276   4.760   0.070   1.639 -2.1954 -0.4576 -2.1195
  106MOL0     H14277   4.822  -0.035   1.510  0.9465 -0.5170  0.3009
  106MOL0     H14278   5.057   0.070   1.538 -2.2976  3.8290 -2.6867
  106MOL0     H14279   4.990   0.160   1.678 -2.8722  0.0188  0.4022
  106MOL0     H14280   4.947  -0.137   1.650 -1.4118  0.3854  0.3250
  106MOL0     H14281   4.933  -0.037   1.794 -0.4212  1.6302  0.1680
  106MOL0     H14282   5.203  -0.102   1.651 -0.0877 -1.8737  0.0339
  106MOL0     H14283   5.129  -0.194   1.779  1.4562  0.0142 -1.5748
  106MOL0     H14284   5.206   0.101   1.758  2.9034 -0.5269 -1.2161
  106MOL0     H14285   5.128   0.047   1.906  0.6560  2.7585 -0.2209
  106MOL0     H14286   5.382   0.061   1.884 -0.3247 -0.4855 -2.1690
  106MOL0     H14287   5.378  -0.097   1.810 -1.4061 -0.4083 -0.7380
  106MOL0     H14288   5.428  -0.104   2.051 -0.5517 -0.2357  0.6616
  106MOL0     H14289   5.277  -0.030   2.092  0.2489  2.0663 -2.0485
  106MOL0     H14290   4.430   0.186   1.466  0.6502  1.4048 -0.1086
  106MOL0     H14291   4.268   0.344   1.365  0.1730 -0.9887 -0.9747
  106MOL0     H14292   4.027   0.553   0.994 -3.1528 -0.5709  0.6251
  106MOL0     H14293   3.854   0.741   0.962  1.2546 -0.1668 -1.5483
  106MOL0     H14294   2.483   1.630   0.733 -0.5013 -2.6560  1.2447
  106MOL0     H14295   2.245   1.585   0.747 -2.1551 -2.1504  2.5078
  106MOL0     H14296   1.766   1.639   0.688  1.7362 -0.1513  0.0102
  106MOL0     H14297   1.532   1.661   0.756  0.0463 -1.1747 -0.8415
  106MOL0     H14298   1.350   1.730   0.827 -1.4421  0.5625  0.1059
  106MOL0     H14299   1.357   1.861   0.948  0.6065  0.7019 -0.3439
  106MOL0     H14300   1.190   1.606   0.940 -2.0571 -0.8298  0.9025
  106MOL0     H14301   1.131   1.772   0.928  0.4525  0.5914  1.5375
  106MOL0     H14302   1.177   1.615   1.158 -1.0356 -2.3341 -1.7685
  106MOL0     H14303   1.051   1.739   1.103  1.6211  1.0413  0.3649
  106MOL0     H14304   1.343   1.798   1.205 -0.2446 -2.9115 -1.7495
  106MOL0     H14305   1.222   1.926   1.174 -0.4217 -0.8628 -0.7649
  106MOL0     H14306   1.111   1.805   1.557 -0.2189  1.0220  0.2483
  106MOL0     H14307   1.644   1.677   1.166 -3.9519  0.1127  0.5714
  106MOL0     H14308   1.849   1.679   1.240 -1.6166 -2.7875 -1.3955
  106MOL0     H14309   1.982   1.617   1.133  0.5607 -0.4192 -0.4344
  106MOL0     H14310   1.934   1.793   1.143 -0.0233 -0.4453  2.5218
  107MOL0     O14311   0.078   2.032   5.215  0.6184  0.5667  0.7298
  107MOL0     C14312   0.065   2.151   5.224  0.9172 -0.5819  0.1259
  107MOL0     O14313   0.163   2.244   5.186 -0.0297 -0.2755  0.7634
  107MOL0     C14314   0.280   2.203   5.136  0.3377  0.6402 -0.3982
  107MOL0     C14315   0.299   2.143   5.010  0.3594  0.3236 -0.8422
  107MOL0     C14316   0.426   2.114   4.954  0.5975  0.0078  0.2048
  107MOL0     C14317   0.539   2.161   5.022 -0.4456 -0.9533 -0.0007
  107MOL0     O14318   0.668   2.131   4.993 -0.6148  1.0440  0.5657
  107MOL0     C14319   0.692   2.049   4.878  0.5385 -0.6156 -0.3538
  107MOL0     C14320   0.841   2.063   4.845 -0.7514 -0.2674 -0.8784
  107MOL0     C14321   0.876   1.996   4.712 -0.0169  0.2716  0.1614
  107MOL0     C14322   1.021   1.981   4.681  0.2448 -0.9971  0.4743
  107MOL0     C14323   1.029   1.903   4.550 -0.5357  0.3866  0.2231
  107MOL0     C14324   1.164   1.884   4.507 -0.0531 -0.5345  0.8782
  107MOL0     C14325   1.250   1.811   4.613 -0.3488  0.1256  0.3253
  107MOL0     C14326   1.380   1.751   4.556  0.1104 -0.4494 -0.5152
  107MOL0     N14327   1.426   1.663   4.655 -0.8056  0.6365 -0.0988
  107MOL0     C14328   1.444   1.526   4.640 -0.8748 -0.1505 -1.2198
  107MOL0     C14329   1.537   1.486   4.733  0.8981  0.1000  0.4434
  107MOL0     C14330   1.569   1.347   4.758  0.9898 -0.8273 -0.4323
  107MOL0     C14331   1.495   1.309   4.888 -0.1928  0.0324  0.2463
  107MOL0     C14332   1.456   1.156   4.893  0.1317  0.5554 -1.4723
  107MOL0     C14333   1.581   1.066   4.888 -0.1203  0.4265  0.7142
  107MOL0     O14334   1.651   1.099   5.008  0.0826 -0.0046 -0.4577
  107MOL0     C14335   1.787   1.117   4.993  0.3910 -0.0333 -0.4382
  107MOL0     C14336   1.847   1.238   5.034 -0.1474  0.5543 -0.1267
  107MOL0     C14337   1.987   1.253   5.046 -0.5984 -0.4924 -0.0808
  107MOL0     C14338   2.075   1.144   5.019  0.7301  0.3702  0.3547
  107MOL0     C14339   2.221   1.159   5.033  0.5477  0.6683 -0.6220
  107MOL0     O14340   2.299   1.086   4.956 -0.2105  0.4129 -0.4976
  107MOL0     C14341   2.425   1.124   4.941  0.3943  0.5091  0.9347
  107MOL0     C14342   2.531   1.027   4.928 -0.0901 -0.0794 -0.7000
  107MOL0     C14343   2.661   1.063   4.901  0.6655  0.7251 -0.0904
  107MOL0     C14344   2.691   1.196   4.855  0.7475 -0.8172 -0.0289
  107MOL0     O14345   2.820   1.223   4.812 -0.2581  0.1398 -0.3355
  107MOL0     C14346   2.830   1.332   4.734 -0.6135 -0.5924 -0.3873
  107MOL0     C14347   2.959   1.322   4.649  0.0113  0.1258 -0.1053
  107MOL0     C14348   2.949   1.205   4.560 -0.5515  0.3679 -0.1017
  107MOL0     C14349   2.835   1.210   4.469 -0.2441  0.5612 -0.1931
  107MOL0     C14350   2.852   1.139   4.327  0.0930 -0.9761 -0.4641
  107MOL0     C14351   2.739   1.157   4.236  0.0124 -0.9465  0.1063
  107MOL0     C14352   2.792   1.142   4.087  0.0709  0.4708 -0.8828
  107MOL0     C14353   2.707   1.183   3.978 -0.5578  0.6821  0.3777
  107MOL0    Cl14354   2.573   1.056   3.969 -0.2642 -0.2360 -0.0457
  107MOL0     C14355   2.588   1.292   4.873 -0.2533 -0.1411  0.1981
  107MOL0     C14356   2.464   1.259   4.913  0.2400  0.1245  0.2250
  107MOL0     O14357   2.258   1.240   5.114  0.4744 -0.2468  0.0611
  107MOL0     C14358   2.010   1.031   4.968 -0.0529  0.9641  0.9086
  107MOL0     C14359   1.869   1.011   4.964 -0.6809 -0.3419  0.0529
  107MOL0     N14360   1.579   1.600   4.803 -1.1631 -0.0913 -0.0087
  107MOL0     N14361   1.511   1.702   4.763 -0.0866 -0.3237  0.7694
  107MOL0     C14362   0.523   2.222   5.146 -0.8145 -0.1299  0.4791
  107MOL0     C14363   0.401   2.231   5.206 -0.1272 -0.4869  1.0051
  107MOL0     C14364  -0.053   2.213   5.286  0.1869 -1.1075  0.3613
  107MOL0     C14365  -0.038   2.347   5.345  0.6039 -0.0312  0.5792
  107MOL0     C14366  -0.157   2.408   5.391  0.5542  0.1958  0.7791
  107MOL0     C14367  -0.279   2.339   5.383 -0.1529 -0.2749  0.7566
  107MOL0     O14368  -0.396   2.399   5.407 -0.7639 -1.0605  0.1085
  107MOL0     C14369  -0.427   2.527   5.354 -0.7920 -0.4388 -0.2810
  107MOL0     C14370  -0.426   2.635   5.464  0.2970  0.1666  0.1615
  107MOL0     C14371  -0.517   2.586   5.582 -0.6072  0.1648 -0.0785
  107MOL0     C14372  -0.513   2.692   5.696  0.0707 -0.3637  0.1078
  107MOL0     C14373  -0.623   2.664   5.798 -0.7658 -0.4361  0.3730
  107MOL0     C14374  -0.723   2.644   5.867  0.2023 -0.9034 -0.6368
  107MOL0     C14375  -0.292   2.208   5.339  0.1316 -0.3195 -0.8499
  107MOL0     C14376  -0.181   2.139   5.303 -0.4818  0.4404  0.2691
  107MOL0     C14377  -0.204   2.000   5.260  0.4425  0.4849 -1.1791
  107MOL0     H14378   0.204   2.125   4.960 -1.8302  4.2609  1.3876
  107MOL0     H14379   0.441   2.054   4.865  0.8636  0.0591  0.2130
  107MOL0     H14380   0.657   1.949   4.904 -0.9708 -0.8473 -2.9712
  107MOL0     H14381   0.639   2.086   4.791 -2.1281 -2.2931  0.4556
  107MOL0     H14382   0.886   2.007   4.927 -2.0042  3.0135  2.3226
  107MOL0     H14383   0.876   2.167   4.849 -0.0442 -0.5201 -0.3540
  107MOL0     H14384   0.825   2.052   4.634 -1.8454  2.0276  2.5016
  107MOL0     H14385   0.834   1.895   4.711  0.7919 -0.0806  0.2394
  107MOL0     H14386   1.073   2.077   4.683 -0.9384 -0.1794 -2.5976
  107MOL0     H14387   1.064   1.916   4.758  0.1604 -2.8139 -0.9437
  107MOL0     H14388   0.984   1.804   4.560  3.8892 -1.7377  2.2768
  107MOL0     H14389   0.978   1.955   4.469  1.2188  0.7498 -0.6997
  107MOL0     H14390   1.152   1.834   4.411  0.0945  0.0364  0.5584
  107MOL0     H14391   1.222   1.977   4.494 -2.1115  1.0390  2.2442
  107MOL0     H14392   1.181   1.738   4.656 -0.4516  1.1022  1.8875
  107MOL0     H14393   1.264   1.885   4.692 -1.7127  0.1767  0.5390
  107MOL0     H14394   1.366   1.691   4.466  2.0532  0.7806 -1.7133
  107MOL0     H14395   1.456   1.826   4.534  1.2426 -1.3718  0.1443
  107MOL0     H14396   1.387   1.466   4.571 -2.7731  2.5256 -2.1543
  107MOL0     H14397   1.535   1.284   4.675  0.7074 -2.3763  0.7909
  107MOL0     H14398   1.675   1.319   4.765  0.5637 -2.1362  2.8459
  107MOL0     H14399   1.546   1.341   4.979 -0.1316  1.9738 -0.4231
  107MOL0     H14400   1.399   1.360   4.901 -0.1071 -0.3281  2.6613
  107MOL0     H14401   1.393   1.133   4.806 -1.1244  2.4799 -1.1139
  107MOL0     H14402   1.399   1.148   4.986  1.0957 -1.5725 -0.9858
  107MOL0     H14403   1.649   1.083   4.804  1.5693 -1.0679  1.7017
  107MOL0     H14404   1.550   0.961   4.887 -0.4197  0.3111 -4.2046
  107MOL0     H14405   1.769   1.312   5.048 -1.5704 -1.2306  1.9379
  107MOL0     H14406   2.022   1.349   5.083  2.0900 -1.9539  1.6335
  107MOL0     H14407   2.519   0.923   4.957  0.1288  0.2868  0.7955
  107MOL0     H14408   2.737   0.986   4.895 -0.1393 -0.0389 -0.7748
  107MOL0     H14409   2.751   1.351   4.661  0.3726  1.1545 -1.0597
  107MOL0     H14410   2.830   1.422   4.795  1.8612 -0.4850 -0.4372
  107MOL0     H14411   2.965   1.411   4.587  1.3801  1.5633  1.9695
  107MOL0     H14412   3.046   1.318   4.715 -0.8344  0.9929  1.1128
  107MOL0     H14413   3.046   1.199   4.509  0.4622  0.5203  1.7503
  107MOL0     H14414   2.931   1.112   4.615 -0.9248 -1.3530 -2.8755
  107MOL0     H14415   2.800   1.313   4.456 -1.8737 -0.2704 -3.5968
  107MOL0     H14416   2.748   1.167   4.518  0.3530  0.8182  1.1381
  107MOL0     H14417   2.861   1.031   4.334 -1.1934 -1.0297  0.8473
  107MOL0     H14418   2.945   1.179   4.284  0.3896 -0.9741  0.1743
  107MOL0     H14419   2.661   1.082   4.255 -0.7383  0.2495  2.1210
  107MOL0     H14420   2.689   1.253   4.251  1.1872  0.4857 -3.9020
  107MOL0     H14421   2.799   1.033   4.079  1.6947  0.6296 -2.0770
  107MOL0     H14422   2.886   1.191   4.063  1.0650 -1.0556 -0.2493
  107MOL0     H14423   2.671   1.287   3.975 -0.3956  0.8886  3.2101
  107MOL0     H14424   2.770   1.174   3.889 -1.4207  0.1133 -0.1854
  107MOL0     H14425   2.618   1.393   4.847 -1.1753  0.0480 -0.1657
  107MOL0     H14426   2.390   1.339   4.913  0.6231  0.5347  2.2421
  107MOL0     H14427   2.064   0.954   4.914  0.8083  2.4426 -0.4175
  107MOL0     H14428   1.824   0.916   4.936 -1.0154  0.1171 -1.0167
  107MOL0     H14429   0.617   2.247   5.196 -0.6906  1.3934 -0.4361
  107MOL0     H14430   0.384   2.247   5.312  0.4643 -1.9656  1.3498
  107MOL0     H14431   0.060   2.392   5.359  1.2392 -0.7034 -1.3353
  107MOL0     H14432  -0.157   2.510   5.430 -0.0312 -0.0448  1.4455
  107MOL0     H14433  -0.530   2.514   5.321 -0.9607 -1.7544  0.6800
  107MOL0     H14434  -0.366   2.558   5.269 -0.4310  2.1464  0.8018
  107MOL0     H14435  -0.464   2.728   5.420 -2.6137 -1.2567 -0.6488
  107MOL0     H14436  -0.321   2.652   5.489  1.0350 -1.1920 -1.7683
  107MOL0     H14437  -0.491   2.488   5.623 -2.1913 -0.2320  0.0428
  107MOL0     H14438  -0.622   2.582   5.549 -0.0331  0.0332 -2.0492
  107MOL0     H14439  -0.418   2.687   5.751 -0.1876 -0.8124  0.5244
  107MOL0     H14440  -0.517   2.791   5.650 -0.3435 -1.5560 -2.6233
  107MOL0     H14441  -0.803   2.624   5.935  1.0114  2.8371  1.7273
  107MOL0     H14442  -0.389   2.159   5.342  0.4538 -0.9521 -0.5758
  107MOL0     H14443  -0.179   1.984   5.155  1.8909 -0.7311 -0.6922
  107MOL0     H14444  -0.131   1.936   5.311 -0.2975 -1.1619 -2.1288
  107MOL0     H14445  -0.307   1.967   5.275  1.3291 -2.6107 -1.2066
  108MOL0     O14446   8.938   9.745   3.842 -0.6294 -0.4695  0.2393
  108MOL0     C14447   8.907   9.804   3.739  0.1560 -0.3739 -0.0821
  108MOL0     O14448   8.968   9.917   3.700  0.0841  0.1691  0.2919
  108MOL0     C14449   9.103   9.923   3.678  0.1708  0.9215  0.1967
  108MOL0     C14450   9.184   9.809   3.666  0.0042 -0.3790  0.7811
  108MOL0     C14451   9.322   9.815   3.639  0.1484  0.1867  1.0060
  108MOL0     C14452   9.382   9.946   3.638 -0.5142  0.5990 -0.3679
  108MOL0     O14453   9.511   9.952   3.620  0.0686 -0.2234  0.3871
  108MOL0     C14454   9.593   9.935   3.737 -0.4538  0.0760 -0.0707
  108MOL0     C14455   9.688   9.820   3.703 -0.0338 -0.0636 -0.1450
  108MOL0     C14456   9.777   9.781   3.820  0.5450  0.2377 -0.4902
  108MOL0     C14457   9.906   9.719   3.758 -0.8095 -0.2821 -0.3875
  108MOL0     C14458  10.021   9.712   3.866  0.2456  0.5200  0.0077
  108MOL0     C14459  10.140   9.640   3.798 -0.3420  0.0113 -1.1569
  108MOL0     C14460  10.282   9.677   3.848  0.5210 -0.2836 -0.8230
  108MOL0     C14461  10.396   9.609   3.777  1.3532  0.2805 -0.9339
  108MOL0     N14462  10.453   9.701   3.678 -0.7042  0.5458 -0.4707
  108MOL0     C14463  10.408   9.728   3.552 -0.2197  0.0767 -0.1375
  108MOL0     C14464  10.508   9.800   3.493 -0.2969 -0.5425  0.1682
  108MOL0     C14465  10.500   9.865   3.350 -0.3124  0.1565 -0.3465
  108MOL0     C14466  10.419   9.996   3.340 -0.6522  0.3008  0.4097
  108MOL0     C14467  10.420  10.077   3.209 -0.2982 -0.3131  0.3404
  108MOL0     C14468  10.545  10.087   3.133 -0.2237  0.6103 -0.2946
  108MOL0     O14469  10.583   9.960   3.078 -0.4406 -0.4389 -0.3629
  108MOL0     C14470  10.717   9.944   3.039  0.3983  0.2820 -0.4190
  108MOL0     C14471  10.803  10.046   2.996 -0.3843  0.3065 -0.4800
  108MOL0     C14472  10.934  10.023   2.972 -0.7710 -0.4282 -1.2357
  108MOL0     C14473  10.995   9.896   2.978  0.0268 -0.9249  0.6122
  108MOL0     C14474  11.138   9.892   2.933  0.1288 -0.7198  0.3900
  108MOL0     O14475  11.207  10.015   2.892  0.2243  0.2627 -0.4257
  108MOL0     C14476  11.337  10.021   2.852 -0.4172 -0.3803 -0.2236
  108MOL0     C14477  11.437   9.933   2.905  0.0703  0.0498  0.4022
  108MOL0     C14478  11.570   9.959   2.871  1.6107 -0.4827 -0.2290
  108MOL0     C14479  11.603  10.058   2.783  0.2719 -0.7735  0.3837
  108MOL0     O14480  11.736  10.066   2.758  0.4802  0.5985 -0.3439
  108MOL0     C14481  11.770  10.148   2.642  0.7152  0.0776  0.1972
  108MOL0     C14482  11.922  10.149   2.610  0.0201  0.0689 -0.2683
  108MOL0     C14483  11.963  10.182   2.461 -0.5428  0.2757 -0.5904
  108MOL0     C14484  12.082  10.275   2.447 -0.1820  0.4903  0.5805
  108MOL0     C14485  12.209  10.218   2.529 -0.1685 -0.6288  0.1033
  108MOL0     C14486  12.323  10.323   2.508 -0.1001  0.8111  0.6701
  108MOL0     C14487  12.463  10.255   2.538  0.9239 -0.6862  0.2005
  108MOL0     C14488  12.456  10.175   2.670 -0.4917  0.4007  0.6093
  108MOL0    Cl14489  12.419  10.273   2.812  0.0691  0.0870 -0.0358
  108MOL0     C14490  11.505  10.142   2.725  1.2763 -0.7606 -0.8935
  108MOL0     C14491  11.372  10.125   2.764  1.0319  0.6222  0.0459
  108MOL0     O14492  11.183   9.785   2.945  0.0603  0.1408 -0.1340
  108MOL0     C14493  10.913   9.792   3.032  0.4633 -0.4036  0.3129
  108MOL0     C14494  10.780   9.818   3.057  0.5546 -0.0571 -0.3138
  108MOL0     N14495  10.610   9.826   3.588 -0.1149 -0.0107 -0.1453
  108MOL0     N14496  10.580   9.764   3.703  0.9860 -0.5186  0.1701
  108MOL0     C14497   9.296  10.060   3.660 -0.7468 -0.0473 -0.0131
  108MOL0     C14498   9.163  10.055   3.677  0.6181 -0.2644  0.2418
  108MOL0     C14499   8.805   9.748   3.647 -0.9008 -0.0508 -0.4099
  108MOL0     C14500   8.758   9.828   3.541  0.7757  0.5531 -0.5848
  108MOL0     C14501   8.653   9.796   3.457  0.5634 -0.7221 -0.7438
  108MOL0     C14502   8.587   9.675   3.482  0.5098 -0.1522 -0.2094
  108MOL0     O14503   8.490   9.620   3.402  0.3513 -0.3314 -0.3809
  108MOL0     C14504   8.466   9.678   3.268 -1.1308 -0.6038 -0.0638
  108MOL0     C14505   8.365   9.794   3.245  0.5073 -0.8990 -0.8536
  108MOL0     C14506   8.238   9.780   3.336 -0.4326 -0.8976 -0.2013
  108MOL0     C14507   8.176   9.634   3.344 -0.0396 -0.6405  0.2091
  108MOL0     C14508   8.134   9.594   3.211  0.7724  0.1770  0.9682
  108MOL0     C14509   8.103   9.559   3.099 -0.1823  0.9398 -0.7872
  108MOL0     C14510   8.632   9.589   3.582  0.1453 -0.4114  0.5021
  108MOL0     C14511   8.735   9.622   3.670 -0.1081 -0.2602  0.0799
  108MOL0     C14512   8.783   9.516   3.769 -0.0951  0.0851  0.0401
  108MOL0     H14513   9.137   9.711   3.661  0.2528 -0.5146  1.0388
  108MOL0     H14514   9.384   9.727   3.629 -1.2660 -0.7266 -0.2524
  108MOL0     H14515   9.657  10.020   3.762 -1.6469  0.5536  1.5541
  108MOL0     H14516   9.538   9.914   3.829 -0.4191  3.3548  0.8213
  108MOL0     H14517   9.749   9.854   3.619 -0.3654 -2.0114 -1.2347
  108MOL0     H14518   9.638   9.726   3.679  0.7810 -0.9660  1.5597
  108MOL0     H14519   9.731   9.712   3.891  0.6418 -1.4869 -2.0274
  108MOL0     H14520   9.807   9.865   3.885 -1.7649 -0.6188  1.8744
  108MOL0     H14521   9.879   9.624   3.711  0.8938 -1.5693  1.1039
  108MOL0     H14522   9.941   9.778   3.673  1.7137  0.7687  1.2481
  108MOL0     H14523  10.046   9.807   3.915 -4.4362  1.0308  1.9089
  108MOL0     H14524   9.985   9.657   3.953  1.1251  1.1137  0.7762
  108MOL0     H14525  10.125   9.533   3.788  2.2457 -0.4111 -1.1519
  108MOL0     H14526  10.147   9.676   3.695  0.4379  1.1681 -0.7212
  108MOL0     H14527  10.286   9.633   3.948  0.9158 -1.0445 -1.1706
  108MOL0     H14528  10.293   9.786   3.842  2.1901 -0.4941 -2.1513
  108MOL0     H14529  10.468   9.573   3.851  0.1331  2.2123  1.3260
  108MOL0     H14530  10.347   9.518   3.741 -1.5383  1.3961 -0.0490
  108MOL0     H14531  10.321   9.685   3.503 -0.3635  0.2796 -0.0603
  108MOL0     H14532  10.599   9.859   3.304 -0.6214 -2.8851 -0.8132
  108MOL0     H14533  10.440   9.799   3.286 -1.7452  1.2505 -0.1830
  108MOL0     H14534  10.314   9.972   3.359 -0.2506  0.1544  2.7358
  108MOL0     H14535  10.450  10.070   3.415 -0.3805  3.4391 -2.5400
  108MOL0     H14536  10.393  10.179   3.236 -0.1631 -0.2241  0.1448
  108MOL0     H14537  10.348  10.037   3.136  0.0371  0.0166 -0.1813
  108MOL0     H14538  10.607  10.116   3.219 -0.7742  1.9793 -0.3340
  108MOL0     H14539  10.556  10.168   3.061  1.1215 -0.1793 -1.0136
  108MOL0     H14540  10.757  10.144   2.986  1.4267  1.3906  1.1655
  108MOL0     H14541  11.001  10.105   2.946 -0.0963 -0.4382  0.3286
  108MOL0     H14542  11.400   9.853   2.967 -2.6956 -0.6032 -1.8921
  108MOL0     H14543  11.638   9.886   2.913  1.3090 -0.3722  0.4776
  108MOL0     H14544  11.710  10.110   2.559 -4.3061 -1.1306  3.9227
  108MOL0     H14545  11.735  10.251   2.645 -1.8546 -0.7136 -0.1928
  108MOL0     H14546  11.959  10.230   2.673 -3.6697  3.7638 -2.4010
  108MOL0     H14547  11.946  10.046   2.638 -0.5095 -0.3357 -1.2337
  108MOL0     H14548  11.986  10.086   2.415 -0.1998  1.0139 -2.0061
  108MOL0     H14549  11.875  10.222   2.410 -0.1571  0.1180 -1.3911
  108MOL0     H14550  12.058  10.378   2.472 -1.4046 -0.0554  1.8629
  108MOL0     H14551  12.127  10.274   2.348  4.7022 -2.0414  2.4335
  108MOL0     H14552  12.234  10.125   2.477 -2.9022 -0.4727 -1.7105
  108MOL0     H14553  12.183  10.191   2.632 -0.7410  0.3548  0.2271
  108MOL0     H14554  12.323  10.360   2.405  0.0681  0.8912  0.6982
  108MOL0     H14555  12.307  10.409   2.574 -0.3911  1.0261  0.3282
  108MOL0     H14556  12.541  10.331   2.549  1.3768 -0.2917 -4.1066
  108MOL0     H14557  12.500  10.201   2.451  2.4582  4.6440 -2.8905
  108MOL0     H14558  12.389  10.090   2.659 -0.0151 -0.0439  1.0660
  108MOL0     H14559  12.558  10.137   2.678  1.3859  4.1330 -2.2409
  108MOL0     H14560  11.532  10.220   2.655  0.0677  0.7551  0.2548
  108MOL0     H14561  11.292  10.184   2.720 -0.4351  0.2513  2.0913
  108MOL0     H14562  10.967   9.699   3.020  0.8920  0.0736 -2.0860
  108MOL0     H14563  10.714   9.737   3.084 -0.8399  0.4065 -2.1233
  108MOL0     H14564   9.348  10.152   3.684 -0.6818 -0.2529  0.6697
  108MOL0     H14565   9.104  10.146   3.686 -0.1677 -0.7631  0.2404
  108MOL0     H14566   8.797   9.929   3.533 -0.7901  1.2179 -0.2657
  108MOL0     H14567   8.633   9.855   3.368 -0.9264  0.1184  0.0969
  108MOL0     H14568   8.425   9.597   3.207 -0.5383 -2.1067  1.4269
  108MOL0     H14569   8.565   9.704   3.230 -0.8615 -0.8976  0.4278
  108MOL0     H14570   8.332   9.781   3.141  0.5552 -1.0757 -0.8459
  108MOL0     H14571   8.407   9.895   3.250 -0.0964 -0.7023  0.7376
  108MOL0     H14572   8.159   9.846   3.299 -1.0902 -0.6752  1.5180
  108MOL0     H14573   8.275   9.820   3.430 -2.9314  0.0932  0.4299
  108MOL0     H14574   8.238   9.573   3.411 -1.2973 -0.3823  1.6648
  108MOL0     H14575   8.079   9.646   3.394 -0.2020  0.6901 -0.4006
  108MOL0     H14576   8.056   9.539   3.005 -1.3745  2.8059 -0.6568
  108MOL0     H14577   8.576   9.496   3.577 -0.2537 -0.1841  0.6935
  108MOL0     H14578   8.738   9.421   3.738  1.6778 -1.0447  0.8132
  108MOL0     H14579   8.890   9.502   3.753 -0.5552 -3.4240 -0.7533
  108MOL0     H14580   8.774   9.539   3.875 -0.8739 -1.4871  0.3464
  109MOL0     O14581   3.984   9.366   9.857 -0.0019  0.4422  0.1368
  109MOL0     C14582   3.962   9.265   9.783 -0.0339 -0.4069 -0.4730
  109MOL0     O14583   3.839   9.237   9.727  0.0009 -0.2406  0.1767
  109MOL0     C14584   3.754   9.345   9.710  0.1792 -0.1919  0.1884
  109MOL0     C14585   3.626   9.337   9.765  0.6811 -0.9106 -0.3908
  109MOL0     C14586   3.547   9.449   9.751 -0.3693 -0.3805 -1.0415
  109MOL0     C14587   3.577   9.561   9.675 -0.0463 -0.1340  0.8715
  109MOL0     O14588   3.490   9.670   9.667  0.6261 -0.7237  0.2453
  109MOL0     C14589   3.345   9.642   9.645  0.4575  0.1152  0.1910
  109MOL0     C14590   3.268   9.757   9.568 -0.5386  0.1220  0.4428
  109MOL0     C14591   3.269   9.896   9.646 -0.2736 -0.7934  0.3228
  109MOL0     C14592   3.144   9.942   9.728 -0.4466  0.0283  1.2247
  109MOL0     C14593   3.154  10.090   9.770  0.1687  0.8384  0.0046
  109MOL0     C14594   3.279  10.143   9.844  0.5536 -1.2914 -0.4108
  109MOL0     C14595   3.329  10.052   9.959 -0.6165  0.3332  0.0502
  109MOL0     C14596   3.474  10.109  10.007  0.5154 -0.0548  0.1384
  109MOL0     N14597   3.575  10.102   9.906  0.2186  0.4536  0.3832
  109MOL0     C14598   3.593   9.995   9.815  0.5536  0.6718  0.2111
  109MOL0     C14599   3.678  10.047   9.724  0.6701  0.7106 -0.5390
  109MOL0     C14600   3.753   9.960   9.633 -0.2416  0.5173 -0.6104
  109MOL0     C14601   3.896   9.934   9.699  0.4652 -0.1091  0.1170
  109MOL0     C14602   3.982   9.832   9.626 -0.1651 -0.0550 -0.7077
  109MOL0     C14603   4.086   9.761   9.707 -0.2102  0.6198 -1.5953
  109MOL0     O14604   4.179   9.856   9.743  0.0632 -0.8947  0.4163
  109MOL0     C14605   4.301   9.830   9.789  0.0028 -0.4959 -0.0763
  109MOL0     C14606   4.342   9.707   9.828 -0.1828  0.9671  0.1431
  109MOL0     C14607   4.472   9.694   9.880 -0.2979 -0.3195  0.8076
  109MOL0     C14608   4.552   9.807   9.898 -0.6275 -0.2312 -0.1294
  109MOL0     C14609   4.687   9.792   9.965 -0.5843 -0.0492  0.4378
  109MOL0     O14610   4.723   9.672  10.014 -0.1718  0.3356  0.0498
  109MOL0     C14611   4.858   9.664  10.065  0.3137  0.5074 -0.5288
  109MOL0     C14612   4.913   9.723  10.170 -0.1379 -0.4865 -0.5907
  109MOL0     C14613   5.056   9.725  10.182  0.7817 -0.6913  0.4697
  109MOL0     C14614   5.126   9.642  10.099  0.6284  1.0437 -0.0696
  109MOL0     O14615   5.264   9.641  10.112  0.0465  0.4007 -0.0728
  109MOL0     C14616   5.331   9.765  10.120 -0.0834 -0.3248  0.1838
  109MOL0     C14617   5.473   9.739  10.059  0.6758  0.0363 -0.8350
  109MOL0     C14618   5.574   9.838  10.111 -0.1996  0.0532  0.7382
  109MOL0     C14619   5.716   9.813  10.050  0.2206 -0.4430 -0.3582
  109MOL0     C14620   5.824   9.822  10.162  0.4245 -0.6031  0.1481
  109MOL0     C14621   5.969   9.818  10.098 -0.0511  0.0692 -0.2378
  109MOL0     C14622   6.082   9.798  10.207  0.0482 -0.8957 -0.1076
  109MOL0     C14623   6.107   9.923  10.293 -0.5506  0.9111  0.0379
  109MOL0    Cl14624   6.156  10.066  10.193 -0.1176 -0.2199  0.5977
  109MOL0     C14625   5.065   9.560  10.001 -0.0566 -0.4991  0.8299
  109MOL0     C14626   4.931   9.574   9.975  0.5178 -0.7275  0.3334
  109MOL0     O14627   4.759   9.890   9.961  0.0592 -0.0545  0.3989
  109MOL0     C14628   4.512   9.925   9.854 -1.1147  0.0390  0.2468
  109MOL0     C14629   4.389   9.939   9.798 -0.3951  0.3053 -0.5822
  109MOL0     N14630   3.718  10.166   9.775  0.5176 -0.3876  0.1538
  109MOL0     N14631   3.656  10.208   9.878  0.4934  0.3134 -0.3189
  109MOL0     C14632   3.700   9.566   9.617 -0.7448 -0.4159 -0.2767
  109MOL0     C14633   3.793   9.465   9.640  0.2292  0.1915 -0.0387
  109MOL0     C14634   4.057   9.155   9.750 -0.9401  1.0105  0.0857
  109MOL0     C14635   4.016   9.047   9.667  0.4611 -0.5708 -0.2709
  109MOL0     C14636   4.105   8.951   9.639  0.8074  0.7250  0.8095
  109MOL0     C14637   4.236   8.951   9.681 -0.1101  0.1915 -0.4371
  109MOL0     O14638   4.306   8.844   9.633  0.6085 -0.0418  0.5934
  109MOL0     C14639   4.447   8.845   9.618 -0.7208 -0.5719  0.1401
  109MOL0     C14640   4.499   8.943   9.519  0.3327 -0.9952 -0.0765
  109MOL0     C14641   4.651   8.915   9.485  0.4534 -0.1918 -0.7052
  109MOL0     C14642   4.687   9.020   9.384 -0.0652 -0.2749  1.3121
  109MOL0     C14643   4.622   8.973   9.255 -0.7111 -0.2879  0.5131
  109MOL0     C14644   4.559   8.924   9.164  1.3534 -0.5789  0.7900
  109MOL0     C14645   4.296   9.060   9.753 -0.5631  0.4116 -0.0729
  109MOL0     C14646   4.192   9.153   9.802 -1.2756  0.2648  0.3896
  109MOL0     C14647   4.238   9.249   9.913  0.9435 -0.2287  0.1624
  109MOL0     H14648   3.594   9.259   9.833 -1.0742  1.2205  1.3767
  109MOL0     H14649   3.454   9.437   9.806 -0.3147  0.0902 -0.8416
  109MOL0     H14650   3.341   9.546   9.593  0.9978 -0.8973  1.9211
  109MOL0     H14651   3.298   9.622   9.742  3.9252  0.8085  2.1847
  109MOL0     H14652   3.165   9.731   9.540 -0.7354  1.2660  0.0540
  109MOL0     H14653   3.339   9.755   9.485  0.8963 -0.5137  1.6433
  109MOL0     H14654   3.285   9.980   9.577 -3.3760 -0.6793 -0.3946
  109MOL0     H14655   3.345   9.894   9.725 -0.1056 -0.6806  0.1654
  109MOL0     H14656   3.054   9.925   9.668  0.4955  3.4222 -1.5055
  109MOL0     H14657   3.144   9.877   9.816  0.6576 -0.8744  0.5764
  109MOL0     H14658   3.151  10.155   9.682  1.6434  0.0646 -0.6578
  109MOL0     H14659   3.064  10.113   9.829 -0.1273  2.9221 -1.1254
  109MOL0     H14660   3.353  10.170   9.769 -2.1926  0.0264 -2.8541
  109MOL0     H14661   3.244  10.239   9.882  2.0176 -0.1591 -1.8127
  109MOL0     H14662   3.334   9.947   9.929 -0.1405  0.8241 -1.6838
  109MOL0     H14663   3.255  10.056  10.039 -0.7186 -0.3400 -0.0050
  109MOL0     H14664   3.452  10.213  10.031 -0.3331 -0.3863  0.8402
  109MOL0     H14665   3.509  10.075  10.105 -0.3841  0.4278  0.6392
  109MOL0     H14666   3.560   9.892   9.813  0.6309  0.6241 -2.3398
  109MOL0     H14667   3.684   9.879   9.608 -3.7913  2.6850  1.3811
  109MOL0     H14668   3.788  10.010   9.543  1.3534  1.4318  0.4736
  109MOL0     H14669   3.957  10.022   9.720  2.3562 -1.4309  0.3540
  109MOL0     H14670   3.864   9.904   9.799 -1.7618  3.6029  0.7260
  109MOL0     H14671   4.036   9.884   9.546 -0.0463  2.3522  0.8298
  109MOL0     H14672   3.914   9.756   9.588 -1.1568 -0.2761  1.3794
  109MOL0     H14673   4.134   9.669   9.672  4.2366  0.6365  3.3082
  109MOL0     H14674   4.044   9.735   9.805  2.7222  1.4457 -0.0185
  109MOL0     H14675   4.281   9.618   9.819  0.4266  0.3224  2.0187
  109MOL0     H14676   4.516   9.597   9.902 -0.7807 -1.6668 -3.2704
  109MOL0     H14677   4.844   9.785  10.226  0.2260 -1.7709  1.4155
  109MOL0     H14678   5.102   9.792  10.253 -0.3553  2.3664 -1.4771
  109MOL0     H14679   5.274   9.842  10.067  3.1554  3.3970  1.6092
  109MOL0     H14680   5.335   9.798  10.224 -1.2133  3.8794 -0.9097
  109MOL0     H14681   5.514   9.640  10.081  0.6141  0.8811  4.3318
  109MOL0     H14682   5.467   9.756   9.952 -1.0213 -0.5300 -0.8572
  109MOL0     H14683   5.540   9.931  10.064 -0.8568 -1.8201 -2.8201
  109MOL0     H14684   5.561   9.837  10.219 -0.0996 -4.7657  0.9250
  109MOL0     H14685   5.741   9.882   9.969  2.4386  2.3085  2.4063
  109MOL0     H14686   5.724   9.712  10.009  0.8093 -0.8284  0.6829
  109MOL0     H14687   5.813   9.741  10.235 -3.6950  0.4283  0.9425
  109MOL0     H14688   5.815   9.922  10.205  2.5159 -0.0492 -0.5420
  109MOL0     H14689   5.976   9.730  10.033 -1.3161 -0.8338  0.8055
  109MOL0     H14690   5.985   9.902  10.031  1.1800 -3.6960 -5.3019
  109MOL0     H14691   6.177   9.789  10.153  0.1320 -1.4089  0.1183
  109MOL0     H14692   6.058   9.717  10.276 -0.7205  0.8307  1.7607
  109MOL0     H14693   6.014   9.944  10.346 -0.6819 -1.5914  0.9158
  109MOL0     H14694   6.179   9.890  10.367 -1.2977 -4.3022 -1.1546
  109MOL0     H14695   5.118   9.495   9.933 -0.8357  1.3672 -1.7229
  109MOL0     H14696   4.879   9.531   9.890  0.4872  0.9876 -0.5657
  109MOL0     H14697   4.574  10.014   9.852  0.9734 -1.3640 -0.8097
  109MOL0     H14698   4.348  10.028   9.752 -1.9100 -0.6171 -1.0943
  109MOL0     H14699   3.724   9.658   9.565 -0.7100 -0.9172 -1.1647
  109MOL0     H14700   3.897   9.480   9.613 -0.3408  2.9201 -1.1540
  109MOL0     H14701   3.913   9.043   9.633 -0.0607 -0.8116  1.2674
  109MOL0     H14702   4.073   8.863   9.583 -0.4888  0.5153  1.8348
  109MOL0     H14703   4.474   8.742   9.591 -0.9559 -0.9260  1.2366
  109MOL0     H14704   4.498   8.860   9.713 -0.1986  0.5810 -0.2993
  109MOL0     H14705   4.498   9.045   9.558  2.3979  0.3682 -3.1643
  109MOL0     H14706   4.444   8.934   9.425  0.1079 -0.5916  0.0122
  109MOL0     H14707   4.676   8.812   9.459 -0.3230 -1.8154  3.9017
  109MOL0     H14708   4.711   8.947   9.571 -0.4928 -1.3274  0.4131
  109MOL0     H14709   4.651   9.118   9.416  4.0112  2.4328 -1.4494
  109MOL0     H14710   4.793   9.047   9.378 -1.0508  3.9614 -0.0498
  109MOL0     H14711   4.499   8.881   9.086 -0.3992  3.4514 -0.3237
  109MOL0     H14712   4.401   9.071   9.781 -0.1557  3.3731 -2.2217
  109MOL0     H14713   4.337   9.226   9.955  1.4038 -0.5521 -1.0444
  109MOL0     H14714   4.249   9.349   9.870 -0.5946 -0.2705 -0.3843
  109MOL0     H14715   4.161   9.244   9.989 -1.8893  0.9271 -2.4314
  110MOL0     O14716   7.737  11.361   3.833  0.6051 -0.4146  0.1687
  110MOL0     C14717   7.800  11.305   3.741 -0.3075  0.0981 -0.8254
  110MOL0     O14718   7.747  11.211   3.651 -0.7159 -0.4478 -0.7306
  110MOL0     C14719   7.614  11.190   3.644 -0.2365 -0.0513 -0.2964
  110MOL0     C14720   7.514  11.220   3.746 -0.3998  0.1881  0.0799
  110MOL0     C14721   7.382  11.193   3.715  0.3802 -0.0716  0.2520
  110MOL0     C14722   7.345  11.125   3.590  0.3773 -0.4910 -0.7090
  110MOL0     O14723   7.217  11.092   3.568  0.7408  0.9666  0.0008
  110MOL0     C14724   7.110  11.052   3.659  0.9294 -0.0926  0.0009
  110MOL0     C14725   7.155  10.973   3.781  0.1641  0.0701  0.0765
  110MOL0     C14726   7.048  10.954   3.895 -0.1311 -0.7750  0.7303
  110MOL0     C14727   6.920  10.901   3.837 -0.8177  0.1570 -0.6941
  110MOL0     C14728   6.822  10.853   3.950 -1.3698  0.1863  0.5197
  110MOL0     C14729   6.783  10.960   4.054 -0.0872 -0.4082  0.2882
  110MOL0     C14730   6.729  10.880   4.178 -0.3251 -0.4873  0.3983
  110MOL0     C14731   6.708  10.963   4.303  0.3666 -0.5353 -0.0372
  110MOL0     N14732   6.603  11.068   4.299  0.7392  0.5806  0.3364
  110MOL0     C14733   6.468  11.048   4.283  0.1983 -0.2903 -0.3857
  110MOL0     C14734   6.420  11.174   4.260 -0.6619 -0.9801  0.0148
  110MOL0     C14735   6.281  11.205   4.229 -0.1291 -0.3917 -0.8006
  110MOL0     C14736   6.251  11.174   4.083 -1.0917  0.3801  0.0589
  110MOL0     C14737   6.116  11.223   4.043 -0.1653 -0.2656 -0.6084
  110MOL0     C14738   6.102  11.186   3.898 -0.1621  0.1318 -0.3255
  110MOL0     O14739   6.127  11.050   3.878  0.4351 -0.1744  0.0999
  110MOL0     C14740   6.116  11.009   3.746 -0.6991 -0.6883 -0.3817
  110MOL0     C14741   6.034  11.071   3.647  0.0168 -0.0984 -0.2146
  110MOL0     C14742   6.027  11.009   3.529  0.5907 -0.8780 -0.2499
  110MOL0     C14743   6.098  10.900   3.481  0.0305  0.0431  0.3545
  110MOL0     C14744   6.067  10.832   3.355  0.1762  0.5716  0.0299
  110MOL0     O14745   5.950  10.863   3.295  0.3832  0.4768 -0.2351
  110MOL0     C14746   5.906  10.777   3.203 -0.0895  0.4997  0.6273
  110MOL0     C14747   5.848  10.654   3.247  0.3935 -0.6557  0.0712
  110MOL0     C14748   5.824  10.555   3.154  1.1166 -0.0332  0.3491
  110MOL0     C14749   5.852  10.579   3.019  0.5675 -0.2079 -0.2205
  110MOL0     O14750   5.830  10.474   2.930  0.9639 -0.5248  0.0433
  110MOL0     C14751   5.685  10.459   2.907  0.7010 -0.2619  0.3117
  110MOL0     C14752   5.639  10.545   2.783 -0.4652  0.2268 -0.5782
  110MOL0     C14753   5.726  10.549   2.656 -0.3807  0.5149 -0.2642
  110MOL0     C14754   5.660  10.644   2.544 -0.7450 -0.7594  0.0727
  110MOL0     C14755   5.682  10.798   2.559  0.7146  0.2055  0.5176
  110MOL0     C14756   5.606  10.868   2.433  0.1714  0.5006  0.2825
  110MOL0     C14757   5.619  11.027   2.438  0.0407  0.8880  0.1164
  110MOL0     C14758   5.547  11.081   2.316  0.1681 -0.5431  0.5969
  110MOL0    Cl14759   5.526  11.255   2.326 -0.0753 -0.1037 -0.3344
  110MOL0     C14760   5.887  10.704   2.975 -0.8306  0.4115  0.0242
  110MOL0     C14761   5.919  10.800   3.061 -0.8467 -0.2190  0.3691
  110MOL0     O14762   6.135  10.734   3.325 -0.1970 -0.3301 -0.4781
  110MOL0     C14763   6.171  10.836   3.585 -0.2492  0.2547 -0.5563
  110MOL0     C14764   6.175  10.884   3.721  0.3950 -1.2506 -0.1007
  110MOL0     N14765   6.525  11.265   4.262  0.1031  0.5456 -0.5139
  110MOL0     N14766   6.631  11.194   4.296  0.1631 -0.0840 -0.7599
  110MOL0     C14767   7.450  11.076   3.503  0.2600 -0.7995  1.0965
  110MOL0     C14768   7.575  11.119   3.531  0.1034  0.9290 -0.0911
  110MOL0     C14769   7.941  11.366   3.717  1.0766  0.2413  0.3787
  110MOL0     C14770   7.988  11.461   3.809  0.4357 -0.7245 -1.2423
  110MOL0     C14771   8.111  11.512   3.809  0.1296 -1.4204 -0.4008
  110MOL0     C14772   8.194  11.485   3.701 -0.1260 -0.2896 -0.1435
  110MOL0     O14773   8.326  11.535   3.682  0.5083 -0.2739 -0.4383
  110MOL0     C14774   8.358  11.652   3.761 -0.1447 -0.9127  0.3005
  110MOL0     C14775   8.508  11.691   3.749 -0.3950  0.2487 -0.7580
  110MOL0     C14776   8.561  11.687   3.609 -0.8158  0.4805 -0.8441
  110MOL0     C14777   8.665  11.794   3.585 -0.9340 -1.2234  0.2547
  110MOL0     C14778   8.795  11.787   3.656  0.1491 -0.6841  0.7388
  110MOL0     C14779   8.910  11.767   3.692 -0.5800 -0.0576 -0.7162
  110MOL0     C14780   8.145  11.394   3.607  0.3464  0.0362  0.2203
  110MOL0     C14781   8.022  11.330   3.614 -0.5377 -0.2691  0.0592
  110MOL0     C14782   7.975  11.255   3.493  0.4780  0.7935 -0.1029
  110MOL0     H14783   7.542  11.254   3.845  0.8119  1.7173 -0.7280
  110MOL0     H14784   7.309  11.240   3.780  1.5026 -0.2393  1.7020
  110MOL0     H14785   7.061  11.138   3.707 -1.5177 -0.6837 -1.2885
  110MOL0     H14786   7.046  10.993   3.593 -0.5205 -0.9691  2.1149
  110MOL0     H14787   7.237  11.033   3.821 -1.6992  3.7722 -1.1299
  110MOL0     H14788   7.195  10.874   3.757  0.0342 -0.6754  2.6676
  110MOL0     H14789   7.034  11.050   3.945  2.5421 -1.1872  2.5132
  110MOL0     H14790   7.078  10.883   3.973  0.0670  0.7362  2.0744
  110MOL0     H14791   6.866  10.967   3.769 -1.1069 -1.5235 -2.1663
  110MOL0     H14792   6.958  10.811   3.787  1.8092 -1.1658  3.2047
  110MOL0     H14793   6.727  10.811   3.915 -2.1853 -1.5499  4.2193
  110MOL0     H14794   6.868  10.768   4.003 -0.8111  1.2367  1.7782
  110MOL0     H14795   6.871  11.016   4.089  0.4804 -0.4887 -0.9653
  110MOL0     H14796   6.710  11.035   4.022 -2.3213 -2.7893 -0.5043
  110MOL0     H14797   6.798  10.803   4.213 -2.8054 -2.4768  1.2595
  110MOL0     H14798   6.639  10.821   4.156 -0.2004 -1.3441  2.0059
  110MOL0     H14799   6.667  10.907   4.388 -3.0883  1.3027 -0.3001
  110MOL0     H14800   6.806  11.006   4.324  0.9272 -0.8957 -1.7742
  110MOL0     H14801   6.412  10.957   4.269  0.9340 -0.4442 -2.8099
  110MOL0     H14802   6.218  11.134   4.284  0.2226 -1.1301 -1.3281
  110MOL0     H14803   6.252  11.307   4.254  0.9512 -0.3670  0.4145
  110MOL0     H14804   6.334  11.214   4.025  0.9057 -2.4292  0.7910
  110MOL0     H14805   6.258  11.067   4.060  1.1601  1.1951 -3.9612
  110MOL0     H14806   6.120  11.331   4.061  2.3378 -0.1283 -1.5075
  110MOL0     H14807   6.040  11.175   4.105 -0.6175 -1.6049 -2.1220
  110MOL0     H14808   6.167  11.250   3.838 -4.2068  2.4478 -2.6830
  110MOL0     H14809   6.000  11.208   3.864  0.0981 -0.0551 -1.2622
  110MOL0     H14810   5.969  11.152   3.677 -0.0000 -1.2927  3.4215
  110MOL0     H14811   5.944  11.028   3.461 -2.1372 -0.5002  2.9363
  110MOL0     H14812   5.829  10.637   3.352  2.0163 -0.6997  0.3928
  110MOL0     H14813   5.788  10.456   3.180 -0.2885  0.4532  0.3412
  110MOL0     H14814   5.675  10.357   2.868 -0.2570 -0.7438  1.7211
  110MOL0     H14815   5.616  10.465   2.992  0.2764 -2.1588  0.1445
  110MOL0     H14816   5.540  10.509   2.752  0.1220 -1.2030 -0.8943
  110MOL0     H14817   5.632  10.650   2.812  2.9867  0.8455 -1.6008
  110MOL0     H14818   5.828  10.581   2.681 -0.3054 -0.2531  0.4575
  110MOL0     H14819   5.740  10.450   2.612 -0.1827  0.0100  0.8943
  110MOL0     H14820   5.552  10.627   2.541 -1.1525  1.3602  0.7877
  110MOL0     H14821   5.698  10.599   2.452  0.5896 -0.5266  0.4992
  110MOL0     H14822   5.789  10.820   2.554  0.9571 -1.0769 -0.7938
  110MOL0     H14823   5.649  10.850   2.649  0.6919  3.3322 -1.1596
  110MOL0     H14824   5.663  10.828   2.348  3.2710  2.7478  1.1149
  110MOL0     H14825   5.503  10.832   2.432  0.3146  0.0893 -0.0624
  110MOL0     H14826   5.722  11.062   2.441 -0.2613  1.7682  0.3051
  110MOL0     H14827   5.565  11.061   2.527  0.3381 -0.6628  0.9357
  110MOL0     H14828   5.604  11.054   2.227 -2.2066 -2.4561 -0.4596
  110MOL0     H14829   5.445  11.042   2.308 -1.7722  2.8413  4.7110
  110MOL0     H14830   5.896  10.721   2.868 -1.6865  5.0929  0.5139
  110MOL0     H14831   5.952  10.898   3.030  0.1479 -1.1023 -1.5844
  110MOL0     H14832   6.215  10.741   3.557 -1.2701  0.2864 -2.4555
  110MOL0     H14833   6.230  10.843   3.805  2.7233  2.2405  0.2512
  110MOL0     H14834   7.433  11.018   3.413  3.8465 -0.9512  0.3779
  110MOL0     H14835   7.655  11.102   3.460 -0.5489  1.0846 -0.8808
  110MOL0     H14836   7.932  11.493   3.897  1.4321 -0.1949 -0.7852
  110MOL0     H14837   8.155  11.590   3.871  0.0455  1.0761 -3.2727
  110MOL0     H14838   8.358  11.633   3.868  1.8558  3.9838  1.4574
  110MOL0     H14839   8.288  11.734   3.746  0.2097 -0.1099  2.6560
  110MOL0     H14840   8.558  11.617   3.812 -1.6498  0.6332  0.7619
  110MOL0     H14841   8.538  11.785   3.795  3.4522 -1.2462  0.2154
  110MOL0     H14842   8.484  11.699   3.533 -0.7382  1.8022 -0.7320
  110MOL0     H14843   8.611  11.590   3.594 -3.0515 -1.2230  1.6742
  110MOL0     H14844   8.684  11.805   3.478 -1.3520  0.3684  0.3125
  110MOL0     H14845   8.622  11.891   3.612  0.0843 -0.7725  0.3295
  110MOL0     H14846   9.015  11.745   3.702  0.1943  2.7319 -1.7170
  110MOL0     H14847   8.211  11.375   3.522  1.7222 -2.4405  1.7104
  110MOL0     H14848   8.048  11.253   3.412  0.3840 -1.3300 -0.1838
  110MOL0     H14849   7.960  11.149   3.515 -0.1032  0.3997 -2.1757
  110MOL0     H14850   7.892  11.303   3.441  0.0684 -1.4447 -1.6389
  111MOL0     O14851   2.086   2.279  10.638  0.3303 -0.0696  0.3842
  111MOL0     C14852   1.996   2.366  10.624  0.6490 -0.0276  0.3768
  111MOL0     O14853   2.008   2.496  10.653  0.3639 -0.7983  0.1014
  111MOL0     C14854   2.128   2.555  10.694  0.3733  0.3031  0.0412
  111MOL0     C14855   2.107   2.678  10.758 -0.7217  0.3132 -0.1063
  111MOL0     C14856   2.214   2.755  10.797 -0.7711  0.7867  0.0096
  111MOL0     C14857   2.353   2.706  10.788  0.3951 -0.5758  1.0543
  111MOL0     O14858   2.453   2.780  10.850  0.0548  0.1971  0.5687
  111MOL0     C14859   2.574   2.722  10.908  0.3065  0.1646  0.0725
  111MOL0     C14860   2.660   2.827  10.976  0.2277 -0.3326  0.3316
  111MOL0     C14861   2.797   2.771  11.020  0.4594  1.0742 -1.0273
  111MOL0     C14862   2.901   2.878  11.059  0.6029 -0.5413  1.0001
  111MOL0     C14863   2.974   2.923  10.941 -0.2637 -0.2275  0.0496
  111MOL0     C14864   3.098   3.006  10.967 -0.1255  0.3168  0.8121
  111MOL0     C14865   3.158   3.052  10.836 -0.8772 -0.1764  0.5278
  111MOL0     C14866   3.275   3.155  10.863  0.0466  0.3652 -0.1516
  111MOL0     N14867   3.354   3.174  10.741 -0.6653  0.1501 -0.3870
  111MOL0     C14868   3.493   3.159  10.734 -0.4736 -0.6799  0.5291
  111MOL0     C14869   3.519   3.195  10.604  0.2196  0.5688 -0.3071
  111MOL0     C14870   3.645   3.206  10.529 -0.4073 -0.1487  0.0355
  111MOL0     C14871   3.765   3.248  10.616  0.5882 -0.2994 -0.5943
  111MOL0     C14872   3.763   3.400  10.614  0.3322 -1.2611 -0.3723
  111MOL0     C14873   3.861   3.466  10.710  0.4633 -0.0325  0.0910
  111MOL0     O14874   3.919   3.589  10.661 -0.0661 -0.0969 -0.2194
  111MOL0     C14875   3.985   3.675  10.748  0.3691 -0.5843  0.0159
  111MOL0     C14876   3.985   3.674  10.890 -0.0277 -0.1355  0.0600
  111MOL0     C14877   4.053   3.769  10.966  0.4404  0.5376 -0.6020
  111MOL0     C14878   4.133   3.869  10.897 -0.0457  0.9220 -0.3309
  111MOL0     C14879   4.213   3.965  10.970 -0.1043 -0.2496 -0.7446
  111MOL0     O14880   4.294   4.033  10.888  0.0751 -0.4032  0.3722
  111MOL0     C14881   4.372   4.138  10.935  0.0125  0.4647  0.3703
  111MOL0     C14882   4.485   4.169  10.865 -0.1106 -0.0667 -0.5404
  111MOL0     C14883   4.562   4.277  10.888  0.4028  0.7120  0.3593
  111MOL0     C14884   4.521   4.379  10.978  0.1324  0.5262  0.1415
  111MOL0     O14885   4.586   4.493  11.006 -0.3049  0.2632 -0.1517
  111MOL0     C14886   4.664   4.551  10.898 -0.0460 -0.3930 -0.1169
  111MOL0     C14887   4.579   4.645  10.813  0.1593  0.0931 -0.8865
  111MOL0     C14888   4.656   4.703  10.701 -0.5622 -0.2349  0.2695
  111MOL0     C14889   4.550   4.772  10.593  0.3275 -0.1554  0.0478
  111MOL0     C14890   4.616   4.842  10.482  0.3545  0.1423 -0.6647
  111MOL0     C14891   4.691   4.748  10.389  0.3104  0.2766 -0.2996
  111MOL0     C14892   4.737   4.831  10.269 -0.0424 -0.5384  0.1220
  111MOL0     C14893   4.889   4.873  10.291 -0.3094 -0.4516 -0.1317
  111MOL0    Cl14894   5.000   4.735  10.292 -0.3185  0.1108 -0.1458
  111MOL0     C14895   4.406   4.352  11.054 -0.4838 -0.9268 -0.5125
  111MOL0     C14896   4.340   4.233  11.030  0.5401  0.1189 -0.8199
  111MOL0     O14897   4.214   3.974  11.094  1.0641 -0.4347 -0.3084
  111MOL0     C14898   4.120   3.879  10.755  0.5054 -0.1307 -0.3923
  111MOL0     C14899   4.062   3.776  10.681  0.0623  0.1738  0.2395
  111MOL0     N14900   3.396   3.225  10.543 -0.1811 -0.2913 -0.3235
  111MOL0     N14901   3.305   3.215  10.620 -0.0901 -0.7429 -0.4334
  111MOL0     C14902   2.370   2.584  10.729 -0.7919 -0.0216  1.5598
  111MOL0     C14903   2.263   2.503  10.682 -1.0537  0.0677 -0.2689
  111MOL0     C14904   1.863   2.328  10.565  0.7207 -0.5795  0.4539
  111MOL0     C14905   1.742   2.405  10.603  0.2033  0.4886 -0.4904
  111MOL0     C14906   1.618   2.387  10.540 -0.5231  0.1611 -0.0907
  111MOL0     C14907   1.617   2.286  10.444  0.2967  0.0116  0.1724
  111MOL0     O14908   1.503   2.265  10.368 -0.1991  0.6198 -0.7990
  111MOL0     C14909   1.422   2.156  10.426  1.4657 -0.1262  0.1005
  111MOL0     C14910   1.329   2.097  10.324 -0.5197 -0.5577 -0.0564
  111MOL0     C14911   1.410   2.032  10.215 -0.1698  0.1135  0.5974
  111MOL0     C14912   1.329   1.979  10.098  0.5677  0.1173  0.4520
  111MOL0     C14913   1.215   1.907  10.141  0.0409  0.1167  0.3822
  111MOL0     C14914   1.114   1.838  10.164 -0.5728 -0.5207 -1.0304
  111MOL0     C14915   1.727   2.203  10.408  0.3966 -1.1110 -0.4373
  111MOL0     C14916   1.856   2.230  10.463 -0.0733 -0.4829 -0.3968
  111MOL0     C14917   1.961   2.146  10.410  0.0213 -0.4561  0.4275
  111MOL0     H14918   2.005   2.708  10.779 -1.3539 -0.7769 -1.4217
  111MOL0     H14919   2.194   2.840  10.860  0.7525 -1.0648  3.2486
  111MOL0     H14920   2.546   2.644  10.979 -0.4335  1.3521  1.1179
  111MOL0     H14921   2.639   2.678  10.831  0.0318 -1.3892  0.6876
  111MOL0     H14922   2.612   2.875  11.063 -2.1605 -1.1182 -0.4649
  111MOL0     H14923   2.654   2.898  10.893 -1.9142 -0.7750  0.0441
  111MOL0     H14924   2.840   2.720  10.933  1.7126  0.9307 -0.3509
  111MOL0     H14925   2.797   2.699  11.103  2.2115  3.2236  0.9595
  111MOL0     H14926   2.856   2.963  11.110  1.7674  0.5480  0.2873
  111MOL0     H14927   2.968   2.833  11.132  1.9975 -0.0588  0.0735
  111MOL0     H14928   3.009   2.834  10.886  0.4086  0.2625 -0.3299
  111MOL0     H14929   2.915   2.977  10.867 -0.1809 -0.5503 -0.2567
  111MOL0     H14930   3.070   3.092  11.029 -1.7729  0.8070 -0.5554
  111MOL0     H14931   3.168   2.948  11.029  0.8672  0.3497 -0.2482
  111MOL0     H14932   3.080   3.109  10.784 -1.8509 -0.8824  1.1863
  111MOL0     H14933   3.187   2.964  10.779 -2.8734  0.1410 -1.1016
  111MOL0     H14934   3.243   3.248  10.911  1.8612 -0.1482  2.2389
  111MOL0     H14935   3.350   3.102  10.922 -0.7448 -0.5772  0.0497
  111MOL0     H14936   3.560   3.131  10.816  0.7694  1.1420  0.1966
  111MOL0     H14937   3.659   3.115  10.469 -0.0140 -0.5469  0.7133
  111MOL0     H14938   3.627   3.280  10.451  0.5361  0.5300  0.4408
  111MOL0     H14939   3.749   3.202  10.714  0.4753 -1.5211 -1.1751
  111MOL0     H14940   3.854   3.206  10.569  1.8454  2.3101 -0.7391
  111MOL0     H14941   3.664   3.446  10.624 -0.8608 -3.5568 -0.8294
  111MOL0     H14942   3.789   3.435  10.513  0.8297 -0.4384  0.0283
  111MOL0     H14943   3.944   3.397  10.729  0.7222 -0.4236 -2.2083
  111MOL0     H14944   3.802   3.487  10.800 -3.7744  2.9785 -2.9416
  111MOL0     H14945   3.925   3.591  10.925 -0.3209  0.3083  0.6345
  111MOL0     H14946   4.061   3.755  11.073 -2.6033  1.0181 -0.2423
  111MOL0     H14947   4.513   4.097  10.788  0.7849 -0.8420  0.4787
  111MOL0     H14948   4.650   4.284  10.825 -0.8875  2.9674 -1.3321
  111MOL0     H14949   4.738   4.618  10.942 -1.0258  0.2326  0.6208
  111MOL0     H14950   4.717   4.472  10.843  3.2658 -0.3607  2.6802
  111MOL0     H14951   4.499   4.583  10.772  1.1581 -1.6353 -0.2994
  111MOL0     H14952   4.539   4.724  10.878  1.6427  0.5966 -0.5450
  111MOL0     H14953   4.732   4.769  10.744  0.0045 -1.5523  1.3590
  111MOL0     H14954   4.722   4.621  10.670  0.5135 -0.2013  2.3115
  111MOL0     H14955   4.493   4.848  10.646 -0.3208  0.4980 -1.5435
  111MOL0     H14956   4.481   4.698  10.552  1.4061  0.2616 -2.7647
  111MOL0     H14957   4.682   4.913  10.533  0.1964 -1.2311  1.6120
  111MOL0     H14958   4.527   4.889  10.438 -0.1646  0.4894  0.6876
  111MOL0     H14959   4.771   4.695  10.442 -0.3204 -0.5967 -0.2147
  111MOL0     H14960   4.627   4.665  10.360 -0.2347 -0.2078  2.0737
  111MOL0     H14961   4.667   4.915  10.260 -2.7479 -2.4168  2.0350
  111MOL0     H14962   4.724   4.769  10.180 -2.2202  2.0319 -1.5077
  111MOL0     H14963   4.914   4.946  10.213 -0.1521 -1.4864 -1.0773
  111MOL0     H14964   4.893   4.926  10.386 -2.8495  1.1265 -0.7779
  111MOL0     H14965   4.384   4.425  11.131  1.8273  1.7198 -2.1583
  111MOL0     H14966   4.247   4.222  11.085  0.8944  0.2807 -0.1767
  111MOL0     H14967   4.157   3.965  10.700 -0.9937  0.7744 -0.0339
  111MOL0     H14968   4.051   3.780  10.573 -0.3318 -3.5579 -0.0031
  111MOL0     H14969   2.470   2.550  10.705 -0.5158  1.8697 -0.3233
  111MOL0     H14970   2.285   2.414  10.624 -2.5104  1.0803 -2.5259
  111MOL0     H14971   1.753   2.482  10.680  0.0581 -1.5708  1.6989
  111MOL0     H14972   1.535   2.449  10.572 -0.0605  0.4917  0.4902
  111MOL0     H14973   1.371   2.197  10.514  1.4847  0.3222 -0.0921
  111MOL0     H14974   1.491   2.074  10.448  1.5852 -0.1932 -0.5296
  111MOL0     H14975   1.284   2.184  10.276  0.7557  0.5478  0.6917
  111MOL0     H14976   1.244   2.036  10.359 -0.1017 -0.2320  1.5976
  111MOL0     H14977   1.450   1.943  10.265 -0.1408  0.5998  1.4502
  111MOL0     H14978   1.486   2.105  10.184 -1.2003  0.2363 -1.8907
  111MOL0     H14979   1.303   2.073  10.049 -2.0690  0.9785  3.2160
  111MOL0     H14980   1.397   1.910  10.046 -0.0058 -0.7778  0.8736
  111MOL0     H14981   1.035   1.770  10.187  2.0690 -4.1572 -1.8814
  111MOL0     H14982   1.719   2.125  10.332  1.2971 -0.4518 -1.2194
  111MOL0     H14983   1.991   2.088  10.497  0.0432 -1.7513 -0.4219
  111MOL0     H14984   1.924   2.083  10.329  1.4286  0.3569 -0.9189
  111MOL0     H14985   2.046   2.202  10.370  0.0873  0.0580  1.2541
  112MOL0     O14986   7.735   8.868   1.519  1.1494 -0.2793  0.5111
  112MOL0     C14987   7.648   8.930   1.455 -0.5787  0.0174  0.0342
  112MOL0     O14988   7.677   9.008   1.348 -0.8369  0.7093  0.6396
  112MOL0     C14989   7.811   9.008   1.302  0.3551 -0.3139  0.0693
  112MOL0     C14990   7.845   9.123   1.233  0.6100  0.1447  0.0250
  112MOL0     C14991   7.967   9.142   1.164 -0.1931 -0.1196 -0.3560
  112MOL0     C14992   8.072   9.045   1.176  0.2791 -0.6228  0.2714
  112MOL0     O14993   8.203   9.078   1.135  0.2543 -0.3609  0.0697
  112MOL0     C14994   8.286   8.964   1.101 -0.1839 -0.3598 -0.4610
  112MOL0     C14995   8.430   8.989   1.074  0.6661 -0.5688 -0.4310
  112MOL0     C14996   8.518   9.011   1.207 -0.0792 -1.1200  0.5493
  112MOL0     C14997   8.662   9.046   1.156  0.6807  0.3716  0.4608
  112MOL0     C14998   8.764   9.025   1.262  0.3250  0.0329 -0.8110
  112MOL0     C14999   8.772   9.142   1.358  0.2773 -0.8858 -0.3333
  112MOL0     C15000   8.855   9.104   1.488 -1.1003 -0.2890 -0.1104
  112MOL0     C15001   9.011   9.102   1.457  1.7404  0.4644  0.7240
  112MOL0     N15002   9.096   9.135   1.575  0.0479  0.6357 -0.1110
  112MOL0     C15003   9.167   9.034   1.632  0.9634 -0.7748 -0.3047
  112MOL0     C15004   9.230   9.094   1.731 -0.8958  0.2780  0.2124
  112MOL0     C15005   9.306   9.016   1.835  0.3726 -0.6164 -0.5367
  112MOL0     C15006   9.454   9.026   1.819  0.1060  0.6620 -0.1174
  112MOL0     C15007   9.507   8.896   1.891  0.0347  0.9847  0.3062
  112MOL0     C15008   9.655   8.858   1.869 -0.5229  0.6548 -0.3128
  112MOL0     O15009   9.675   8.731   1.921 -0.1036  0.8094  0.2757
  112MOL0     C15010   9.807   8.688   1.924 -0.8280 -0.4577  0.1937
  112MOL0     C15011   9.850   8.603   1.830  0.1419 -0.0155  0.8275
  112MOL0     C15012   9.980   8.556   1.838 -0.1438 -0.4498  0.5009
  112MOL0     C15013  10.070   8.602   1.942 -0.2319  0.7439  0.0659
  112MOL0     C15014  10.211   8.556   1.942  0.0931  0.2367  0.7485
  112MOL0     O15015  10.257   8.489   1.838  0.9584  0.4521  0.7302
  112MOL0     C15016  10.386   8.430   1.848  0.5724  0.0673 -0.9767
  112MOL0     C15017  10.397   8.291   1.819 -0.4880 -0.5730  0.0302
  112MOL0     C15018  10.524   8.232   1.818 -0.4866  0.3982  0.6343
  112MOL0     C15019  10.641   8.308   1.844 -0.1254 -0.1226 -1.3077
  112MOL0     O15020  10.774   8.252   1.857  0.1705  1.0569  0.0841
  112MOL0     C15021  10.811   8.143   1.775  0.4250  0.8790  0.3911
  112MOL0     C15022  10.904   8.071   1.856 -0.2976  1.2886  0.0062
  112MOL0     C15023  10.852   8.018   1.990 -0.4236  0.2242 -0.3552
  112MOL0     C15024  10.949   7.924   2.061  0.2234  0.0504 -0.0784
  112MOL0     C15025  10.910   7.902   2.213 -0.4130  0.1483 -0.0997
  112MOL0     C15026  11.027   7.833   2.279 -0.4286  0.1671  0.0351
  112MOL0     C15027  10.986   7.781   2.419  0.5249  0.4772 -0.3925
  112MOL0     C15028  11.094   7.821   2.531  0.6099 -0.1433  0.5017
  112MOL0    Cl15029  11.241   7.757   2.481  0.1884 -0.3045 -0.1304
  112MOL0     C15030  10.627   8.442   1.891  0.5331  0.1286  0.4863
  112MOL0     C15031  10.498   8.506   1.875  0.1496  0.6472 -0.8498
  112MOL0     O15032  10.279   8.588   2.035 -0.3442  0.4631  0.0964
  112MOL0     C15033  10.025   8.689   2.047  0.5374  0.5335 -0.9664
  112MOL0     C15034   9.889   8.731   2.037 -0.3952  0.1664  0.4827
  112MOL0     N15035   9.222   9.233   1.724 -0.0784 -0.2424 -0.1898
  112MOL0     N15036   9.144   9.251   1.627 -0.1673 -0.2439  0.4531
  112MOL0     C15037   8.032   8.923   1.238 -0.3489  1.2338  0.4648
  112MOL0     C15038   7.906   8.907   1.302 -0.6330 -0.2476  0.7636
  112MOL0     C15039   7.508   8.906   1.489  0.0714 -0.7963  0.5025
  112MOL0     C15040   7.412   8.888   1.388  0.7288  0.1548  0.3623
  112MOL0     C15041   7.276   8.862   1.422 -1.2227  0.3993 -0.5180
  112MOL0     C15042   7.234   8.857   1.553  1.3265 -0.3779 -0.0227
  112MOL0     O15043   7.099   8.830   1.573 -0.6203 -0.3536  0.2076
  112MOL0     C15044   7.061   8.828   1.717 -0.1821  0.2029  0.6986
  112MOL0     C15045   6.907   8.799   1.722  0.3841 -0.1564 -0.1998
  112MOL0     C15046   6.825   8.930   1.680 -1.2134  1.1116 -0.5417
  112MOL0     C15047   6.838   9.037   1.784  0.5628  0.1246 -0.7816
  112MOL0     C15048   6.734   9.019   1.893  0.6231  0.0380  0.1116
  112MOL0     C15049   6.629   9.013   1.950  0.2932  0.0183  0.3970
  112MOL0     C15050   7.329   8.876   1.649 -0.4071 -0.3903 -0.4274
  112MOL0     C15051   7.461   8.895   1.623 -0.8058 -0.3555  0.3767
  112MOL0     C15052   7.558   8.891   1.743  0.4361 -0.1194 -0.1715
  112MOL0     H15053   7.772   9.203   1.236  0.7813  0.2941  2.7078
  112MOL0     H15054   7.999   9.229   1.108  2.4138 -1.7469 -1.5791
  112MOL0     H15055   8.287   8.898   1.188 -0.2840 -1.2321 -1.1117
  112MOL0     H15056   8.242   8.914   1.015 -0.3068 -0.2702 -0.4507
  112MOL0     H15057   8.439   9.078   1.011  1.9883  1.8389  2.8579
  112MOL0     H15058   8.457   8.900   1.016 -1.0823 -1.8090  0.5773
  112MOL0     H15059   8.519   8.922   1.271 -1.7227 -1.3897  0.2491
  112MOL0     H15060   8.469   9.092   1.261  0.9288  1.0641 -1.6253
  112MOL0     H15061   8.682   8.973   1.077  2.1435  0.9748  0.2323
  112MOL0     H15062   8.671   9.145   1.111 -1.2431  1.1313  1.6192
  112MOL0     H15063   8.736   8.933   1.314 -1.9968  0.7961 -0.5534
  112MOL0     H15064   8.863   9.024   1.217 -0.0231  2.1939 -1.7598
  112MOL0     H15065   8.804   9.237   1.313  0.4859 -0.3254  0.9458
  112MOL0     H15066   8.669   9.160   1.389  0.2727 -0.3674 -0.6483
  112MOL0     H15067   8.825   9.007   1.530  1.3311 -2.1367 -2.2789
  112MOL0     H15068   8.830   9.178   1.564 -2.2935  0.4975 -1.2231
  112MOL0     H15069   9.034   9.006   1.410 -0.8844 -0.9685  2.1203
  112MOL0     H15070   9.036   9.184   1.390  0.8139 -0.2997 -0.5828
  112MOL0     H15071   9.165   8.930   1.600 -0.3072 -0.8245 -0.1168
  112MOL0     H15072   9.283   9.055   1.935  1.9663 -0.7644 -0.0821
  112MOL0     H15073   9.266   8.914   1.843 -1.5188  0.1352 -0.0511
  112MOL0     H15074   9.484   9.020   1.714  0.3126 -0.1697 -0.0206
  112MOL0     H15075   9.495   9.116   1.866 -2.9445  2.0906  0.0050
  112MOL0     H15076   9.444   8.807   1.884 -1.6915  2.0434  1.5472
  112MOL0     H15077   9.504   8.927   1.996 -2.3051  2.1124 -0.0398
  112MOL0     H15078   9.722   8.934   1.912  0.6585 -0.0205 -0.9030
  112MOL0     H15079   9.685   8.867   1.764  4.7659  2.2100  1.0049
  112MOL0     H15080   9.793   8.574   1.743  1.2747  3.4579 -1.2906
  112MOL0     H15081  10.011   8.489   1.758  1.6122 -1.4038  1.9018
  112MOL0     H15082  10.314   8.225   1.797  0.1897 -0.9530 -1.5333
  112MOL0     H15083  10.540   8.130   1.786 -1.8787  0.3764 -0.0429
  112MOL0     H15084  10.728   8.073   1.760  1.1701 -0.3298  1.6479
  112MOL0     H15085  10.850   8.177   1.679 -1.8657  0.8103 -0.6242
  112MOL0     H15086  10.931   7.983   1.798 -4.4681  0.7592 -1.4829
  112MOL0     H15087  10.991   8.137   1.868  0.7833 -0.6003  4.3376
  112MOL0     H15088  10.841   8.099   2.062 -1.2967 -0.5761  0.4373
  112MOL0     H15089  10.752   7.973   1.988 -1.2347  1.8507 -3.4158
  112MOL0     H15090  11.040   7.984   2.062  0.0441  0.3225  1.1018
  112MOL0     H15091  10.982   7.837   2.004  1.4634 -0.1684  0.9419
  112MOL0     H15092  10.820   7.840   2.208 -1.5341  1.6573  0.3697
  112MOL0     H15093  10.882   7.996   2.262  1.1576 -0.3028  1.7774
  112MOL0     H15094  11.060   7.749   2.217 -2.0155 -1.7955  1.6976
  112MOL0     H15095  11.112   7.901   2.283 -1.5415  1.5817  0.2519
  112MOL0     H15096  10.970   7.673   2.418 -1.7197  0.7811 -0.6906
  112MOL0     H15097  10.887   7.822   2.439  1.4416  5.0583 -3.6811
  112MOL0     H15098  11.109   7.929   2.536 -0.5645  0.0491  0.2808
  112MOL0     H15099  11.073   7.772   2.627  3.4626  1.3884  2.0401
  112MOL0     H15100  10.710   8.507   1.920  0.1001  1.4832 -1.1751
  112MOL0     H15101  10.482   8.611   1.898 -1.9440  0.1353  0.3010
  112MOL0     H15102  10.089   8.733   2.122 -2.1690  1.1477  1.1326
  112MOL0     H15103   9.839   8.780   2.120  1.1132 -1.3566  2.3994
  112MOL0     H15104   8.097   8.836   1.246 -3.6729 -1.5861 -0.8854
  112MOL0     H15105   7.887   8.802   1.324 -2.4556 -1.1169 -3.8441
  112MOL0     H15106   7.447   8.881   1.285 -0.4690  2.7509 -0.2951
  112MOL0     H15107   7.213   8.820   1.344 -0.6963 -0.0449 -0.7122
  112MOL0     H15108   7.078   8.930   1.755 -1.7462  1.1053 -0.9155
  112MOL0     H15109   7.122   8.751   1.766  0.8370  1.3107  1.2490
  112MOL0     H15110   6.880   8.750   1.817 -0.6405 -1.2787 -1.0216
  112MOL0     H15111   6.893   8.724   1.644  2.3468  1.5508 -2.3114
  112MOL0     H15112   6.722   8.909   1.652 -0.8018  1.8017 -2.7906
  112MOL0     H15113   6.871   8.962   1.585 -0.6654 -0.9076 -1.0340
  112MOL0     H15114   6.935   9.035   1.835  0.9485 -0.8454 -1.5286
  112MOL0     H15115   6.843   9.137   1.740 -0.1802  0.4267 -0.1925
  112MOL0     H15116   6.528   9.005   1.986 -0.3071  0.1894 -1.1858
  112MOL0     H15117   7.306   8.877   1.755  0.5528  1.8033 -0.1602
  112MOL0     H15118   7.497   8.889   1.834  0.9772  2.2956  0.3161
  112MOL0     H15119   7.611   8.796   1.755  0.0502 -0.2458  0.5484
  112MOL0     H15120   7.620   8.981   1.745  0.5256 -0.1919  0.3542
  113MOL0     O15121   6.261  10.648   7.297  0.8446  0.0892  0.4627
  113MOL0     C15122   6.303  10.573   7.387  0.9652 -0.4926 -0.0206
  113MOL0     O15123   6.231  10.531   7.493  0.0848 -0.3233 -0.0580
  113MOL0     C15124   6.097  10.531   7.465  0.1753 -0.1437  0.1036
  113MOL0     C15125   6.027  10.422   7.411  0.4510 -0.6586  0.0594
  113MOL0     C15126   5.886  10.430   7.409  0.7808  0.6073 -0.0353
  113MOL0     C15127   5.823  10.531   7.486  0.4584 -0.1793  0.3491
  113MOL0     O15128   5.690  10.523   7.524  0.6365 -0.9479  0.3008
  113MOL0     C15129   5.595  10.527   7.411  0.6078  0.1906 -0.7713
  113MOL0     C15130   5.443  10.539   7.448 -0.0590  0.4162 -0.4381
  113MOL0     C15131   5.348  10.558   7.332 -0.4478 -0.0134  0.6290
  113MOL0     C15132   5.248  10.674   7.361  0.6475  0.3131 -0.2579
  113MOL0     C15133   5.138  10.697   7.259 -0.3960 -0.2069 -0.7109
  113MOL0     C15134   5.165  10.826   7.187 -0.0036  0.3243  0.8684
  113MOL0     C15135   5.059  10.842   7.082  0.2359 -0.4541  0.3384
  113MOL0     C15136   5.098  10.915   6.966 -0.2009  0.1624 -0.9951
  113MOL0     N15137   5.157  11.048   6.994 -0.3219 -0.0842 -0.1577
  113MOL0     C15138   5.292  11.073   7.015 -0.1244 -0.2906  0.6365
  113MOL0     C15139   5.295  11.205   7.060 -0.3819  0.5339  0.3693
  113MOL0     C15140   5.410  11.287   7.113  0.3527 -0.6757  0.3758
  113MOL0     C15141   5.446  11.246   7.246  0.5537  0.1596 -0.9401
  113MOL0     C15142   5.530  11.121   7.242 -0.4328  0.1683  0.1690
  113MOL0     C15143   5.524  11.045   7.384  0.5101 -0.9374  0.5116
  113MOL0     O15144   5.600  10.927   7.384  0.3526  0.5965  0.7142
  113MOL0     C15145   5.735  10.948   7.376 -0.9187 -0.2077 -0.1651
  113MOL0     C15146   5.806  10.928   7.257  0.7430  0.3504  0.4281
  113MOL0     C15147   5.941  10.956   7.251 -0.0196  0.5043 -0.8076
  113MOL0     C15148   6.014  11.000   7.362 -0.4681  0.2073 -0.3303
  113MOL0     C15149   6.160  11.025   7.351 -0.5823 -0.1628  0.3590
  113MOL0     O15150   6.213  11.037   7.220 -0.6706  0.2585 -0.5221
  113MOL0     C15151   6.344  11.090   7.202  0.2435 -0.4962 -0.3970
  113MOL0     C15152   6.445  11.010   7.226 -0.3715 -0.4972 -0.0739
  113MOL0     C15153   6.579  11.049   7.205  0.0363 -0.9717  0.5478
  113MOL0     C15154   6.598  11.180   7.155 -0.8168  0.0396  0.3496
  113MOL0     O15155   6.724  11.235   7.149 -0.1984  0.5551  0.6589
  113MOL0     C15156   6.851  11.155   7.130  1.4774 -0.6585  1.3652
  113MOL0     C15157   6.973  11.246   7.163 -1.0375  0.6457 -0.2882
  113MOL0     C15158   6.994  11.271   7.317  0.5418  0.4556  0.2988
  113MOL0     C15159   7.115  11.363   7.349 -0.3738 -0.2923  0.8897
  113MOL0     C15160   7.252  11.301   7.310 -0.0376  0.0668  0.8239
  113MOL0     C15161   7.298  11.197   7.423  0.5123 -0.0197 -0.8595
  113MOL0     C15162   7.438  11.146   7.389 -0.3157  0.2793  1.0532
  113MOL0     C15163   7.556  11.242   7.397 -0.0232  0.0182  0.0965
  113MOL0    Cl15164   7.583  11.285   7.566 -0.1678 -0.3507  0.1759
  113MOL0     C15165   6.494  11.265   7.125  0.2822  0.8212  0.0174
  113MOL0     C15166   6.363  11.216   7.138  0.6383  0.4176 -0.3306
  113MOL0     O15167   6.226  11.049   7.452  0.1272  0.8429 -0.2575
  113MOL0     C15168   5.939  11.018   7.480 -0.0406  0.7184  0.3047
  113MOL0     C15169   5.801  10.984   7.490 -0.0275  0.0811  0.2018
  113MOL0     N15170   5.168  11.261   7.040 -0.9457  0.1502 -0.4687
  113MOL0     N15171   5.087  11.165   7.010  0.2514  1.1945  0.2765
  113MOL0     C15172   5.893  10.628   7.544 -0.8593  0.1118  1.4349
  113MOL0     C15173   6.027  10.637   7.527  0.4130  0.7776  0.0374
  113MOL0     C15174   6.448  10.533   7.381 -0.1889  0.2276  0.8215
  113MOL0     C15175   6.512  10.505   7.256 -1.9174  0.2621 -0.0153
  113MOL0     C15176   6.650  10.466   7.248 -0.4386 -0.4219  0.2490
  113MOL0     C15177   6.725  10.448   7.366  0.0165  0.6063  0.0168
  113MOL0     O15178   6.859  10.412   7.355  0.7979  0.0253 -0.8818
  113MOL0     C15179   6.890  10.277   7.402  0.5757 -0.4854  0.1836
  113MOL0     C15180   7.023  10.282   7.475 -0.7365  0.0640  0.3843
  113MOL0     C15181   7.133  10.331   7.373  1.0465  0.5168  0.7443
  113MOL0     C15182   7.281  10.288   7.395  0.1949  0.0420  0.2514
  113MOL0     C15183   7.296  10.140   7.396 -0.2152  0.8002 -0.0282
  113MOL0     C15184   7.286  10.022   7.406 -0.1101  0.6684  0.0768
  113MOL0     C15185   6.668  10.476   7.487 -0.2039 -0.4127 -0.3092
  113MOL0     C15186   6.530  10.505   7.493 -0.3853 -0.1719 -0.5796
  113MOL0     C15187   6.486  10.507   7.637 -0.1998  0.6712 -0.8009
  113MOL0     H15188   6.081  10.342   7.361 -0.1149 -1.5615  0.8671
  113MOL0     H15189   5.825  10.351   7.366 -1.2898  3.1963 -2.1972
  113MOL0     H15190   5.614  10.610   7.343 -0.1974  1.0152 -0.0103
  113MOL0     H15191   5.601  10.428   7.364  0.6347  0.3795 -1.1616
  113MOL0     H15192   5.429  10.616   7.524  0.2950 -0.9145  1.0160
  113MOL0     H15193   5.421  10.443   7.495  1.0827  0.8105  0.9539
  113MOL0     H15194   5.290  10.465   7.325 -1.0306  0.2880  1.3449
  113MOL0     H15195   5.396  10.578   7.236  0.8449  0.1668  1.2949
  113MOL0     H15196   5.201  10.641   7.454 -1.5311 -2.0115 -2.0456
  113MOL0     H15197   5.308  10.763   7.382  0.8256 -0.3502  2.5008
  113MOL0     H15198   5.139  10.610   7.193 -0.4759 -1.2610  0.6273
  113MOL0     H15199   5.044  10.721   7.309  1.0604 -0.2988  2.2896
  113MOL0     H15200   5.171  10.908   7.260 -1.1312  1.1656  0.0541
  113MOL0     H15201   5.263  10.827   7.139  0.6797 -0.9644  2.1585
  113MOL0     H15202   4.971  10.889   7.125 -0.6078 -0.3824 -1.3969
  113MOL0     H15203   5.018  10.748   7.044 -1.5433 -1.0666  3.4418
  113MOL0     H15204   5.173  10.854   6.914  0.7270  1.4086 -1.1559
  113MOL0     H15205   5.011  10.909   6.899  0.7341 -3.5439 -2.1175
  113MOL0     H15206   5.374  11.003   7.018 -0.2230 -0.4048  0.7472
  113MOL0     H15207   5.493  11.293   7.042 -0.2348  2.1326 -0.2033
  113MOL0     H15208   5.377  11.391   7.118 -1.0039 -0.8031 -3.1819
  113MOL0     H15209   5.504  11.328   7.290 -0.9034  0.2819  0.8434
  113MOL0     H15210   5.355  11.236   7.305  0.8942 -2.7642 -0.7714
  113MOL0     H15211   5.629  11.161   7.223 -0.5825 -0.3129 -1.8220
  113MOL0     H15212   5.505  11.051   7.162 -0.9374  1.9356 -1.2777
  113MOL0     H15213   5.421  11.014   7.406 -0.1811 -2.5840 -4.0711
  113MOL0     H15214   5.564  11.120   7.454  2.2297 -1.0153 -0.3489
  113MOL0     H15215   5.750  10.899   7.168 -0.4039 -0.1831  1.3048
  113MOL0     H15216   5.987  10.920   7.160  0.1145 -1.0266 -0.1657
  113MOL0     H15217   6.400  10.913   7.246 -2.7695  0.7330  0.9416
  113MOL0     H15218   6.657  10.979   7.232 -1.5939 -2.6425  1.1735
  113MOL0     H15219   6.853  11.059   7.183 -1.9113 -1.8137 -0.3023
  113MOL0     H15220   6.860  11.129   7.024  1.8298  0.1514  1.1964
  113MOL0     H15221   7.065  11.210   7.116 -1.6867 -1.5784  0.0180
  113MOL0     H15222   6.961  11.338   7.105 -0.3403 -0.4536 -2.2591
  113MOL0     H15223   6.896  11.307   7.351 -1.1243 -2.7378 -0.6589
  113MOL0     H15224   7.010  11.173   7.362  2.4350  0.6442  0.1093
  113MOL0     H15225   7.125  11.386   7.455  0.9508  0.7859  0.5452
  113MOL0     H15226   7.098  11.455   7.292  0.2075 -0.6479  0.1231
  113MOL0     H15227   7.324  11.382   7.296  0.9970 -1.0201 -0.3664
  113MOL0     H15228   7.248  11.257   7.211 -1.1278  3.2893 -0.7037
  113MOL0     H15229   7.311  11.249   7.518  0.2325 -0.4451 -0.5844
  113MOL0     H15230   7.224  11.117   7.433  0.3433  0.3115  0.8851
  113MOL0     H15231   7.438  11.114   7.284  1.1558 -3.4425  2.0427
  113MOL0     H15232   7.457  11.051   7.438  1.6046 -0.7309 -1.4021
  113MOL0     H15233   7.650  11.202   7.357 -0.5432 -0.8784 -0.2558
  113MOL0     H15234   7.542  11.337   7.344 -0.8100  0.6589  1.4080
  113MOL0     H15235   6.508  11.364   7.084  0.4914  1.0886  0.7202
  113MOL0     H15236   6.268  11.265   7.115  0.6632  2.1048  2.6055
  113MOL0     H15237   5.993  11.052   7.567 -0.8884 -0.9263  1.5239
  113MOL0     H15238   5.740  10.994   7.579 -1.9873 -0.7727 -0.9819
  113MOL0     H15239   5.838  10.706   7.595 -2.2732 -0.7438  1.2937
  113MOL0     H15240   6.091  10.714   7.570  1.1410  0.5439 -0.5876
  113MOL0     H15241   6.456  10.508   7.163  1.0653  0.5344 -1.9010
  113MOL0     H15242   6.698  10.437   7.155  1.6550  0.1198  1.0859
  113MOL0     H15243   6.881  10.198   7.327  1.1708 -0.8262  0.4625
  113MOL0     H15244   6.803  10.250   7.462 -0.7928  2.7856 -0.1114
  113MOL0     H15245   7.057  10.186   7.517  0.0560 -0.6449 -1.7193
  113MOL0     H15246   7.036  10.358   7.552  1.1569  3.0992 -2.6636
  113MOL0     H15247   7.125  10.440   7.377 -2.8155  0.3862  0.6134
  113MOL0     H15248   7.092  10.299   7.277  0.6602  1.7400  0.4734
  113MOL0     H15249   7.350  10.323   7.318 -1.9795  1.6382 -1.0549
  113MOL0     H15250   7.310  10.323   7.495 -0.7704 -0.4909  0.7392
  113MOL0     H15251   7.294   9.915   7.410  2.3117  0.8212  1.9224
  113MOL0     H15252   6.734  10.452   7.569 -1.1396  0.9376  0.8891
  113MOL0     H15253   6.417  10.590   7.654 -0.9628 -0.3646  1.5798
  113MOL0     H15254   6.440  10.414   7.670  2.7521 -0.5221  0.3252
  113MOL0     H15255   6.572  10.534   7.700  0.0221  1.1240 -1.2879
  114MOL0     O15256   4.189   5.803   2.933  0.1396  0.2458 -0.5877
  114MOL0     C15257   4.063   5.799   2.927 -0.1416  0.3235  0.9706
  114MOL0     O15258   3.992   5.814   2.805  0.1126 -0.8208  0.1266
  114MOL0     C15259   4.040   5.871   2.691 -0.1395  0.1967  0.0272
  114MOL0     C15260   4.163   5.934   2.672 -0.0359  0.1012  0.2558
  114MOL0     C15261   4.198   5.982   2.543  0.0788 -0.0745 -0.1972
  114MOL0     C15262   4.103   5.977   2.433 -0.0956  1.2000 -0.4005
  114MOL0     O15263   4.126   6.030   2.310 -0.2937  0.3561 -0.2434
  114MOL0     C15264   4.245   6.097   2.286 -0.0742  0.2484 -0.7677
  114MOL0     C15265   4.367   6.006   2.262 -0.4312 -0.8332  0.3596
  114MOL0     C15266   4.370   5.911   2.137 -0.3778 -0.0167 -0.1399
  114MOL0     C15267   4.282   5.785   2.144 -0.3671  0.0378  0.8212
  114MOL0     C15268   4.319   5.661   2.061 -0.5302 -0.0575  0.2285
  114MOL0     C15269   4.305   5.698   1.908 -0.2359 -0.3721 -0.2767
  114MOL0     C15270   4.173   5.653   1.841  1.1824 -0.5402 -0.0433
  114MOL0     C15271   4.164   5.504   1.781  0.0100 -0.0095  0.4822
  114MOL0     N15272   4.222   5.396   1.871  0.2026 -1.5543  0.3427
  114MOL0     C15273   4.351   5.366   1.897 -0.6828 -0.4179 -0.4717
  114MOL0     C15274   4.354   5.273   1.998  0.8366  0.4136 -0.2476
  114MOL0     C15275   4.466   5.222   2.077  0.3032  0.4816 -0.9356
  114MOL0     C15276   4.512   5.326   2.185 -0.0229  0.5583  0.1388
  114MOL0     C15277   4.600   5.263   2.298 -0.3202  0.1524 -0.1063
  114MOL0     C15278   4.671   5.365   2.379 -0.0270  0.1602 -0.3989
  114MOL0     O15279   4.724   5.305   2.496 -0.2967  0.3753 -0.2161
  114MOL0     C15280   4.783   5.379   2.598 -0.6531  0.2669 -0.1264
  114MOL0     C15281   4.812   5.317   2.714 -0.4432 -0.3450 -0.1862
  114MOL0     C15282   4.875   5.385   2.828 -0.7275 -0.0147  0.9963
  114MOL0     C15283   4.896   5.523   2.812  0.6971 -0.0950  0.0283
  114MOL0     C15284   4.951   5.601   2.919  0.1744 -0.2975  0.4522
  114MOL0     O15285   5.003   5.536   3.029  0.3673  0.4100 -0.2941
  114MOL0     C15286   5.040   5.625   3.132  1.2727 -0.4476  0.2090
  114MOL0     C15287   5.167   5.667   3.148 -0.1529 -0.9425 -0.9221
  114MOL0     C15288   5.205   5.743   3.257 -0.7937  0.2559 -0.8041
  114MOL0     C15289   5.111   5.792   3.350 -0.3002  0.1968 -0.3106
  114MOL0     O15290   5.164   5.865   3.451  0.4467 -0.3818 -0.0143
  114MOL0     C15291   5.091   5.975   3.487 -0.1954  0.4644  0.2135
  114MOL0     C15292   5.167   6.065   3.573  0.4466  0.4782 -0.9858
  114MOL0     C15293   5.204   5.985   3.706  0.9334 -0.3671 -0.4343
  114MOL0     C15294   5.262   6.073   3.816  0.2124  0.8233  0.8525
  114MOL0     C15295   5.251   5.988   3.946 -0.2912 -0.1055 -0.3088
  114MOL0     C15296   5.309   6.073   4.065  0.6925  0.2123  0.4325
  114MOL0     C15297   5.279   5.999   4.195  0.1932 -0.1187 -0.0097
  114MOL0     C15298   5.337   6.080   4.308  0.5119 -1.2794  0.0614
  114MOL0    Cl15299   5.289   6.005   4.473 -0.2519  0.4621 -0.3305
  114MOL0     C15300   4.976   5.761   3.331  0.1200  0.5305 -0.4007
  114MOL0     C15301   4.942   5.675   3.228  0.4917  0.3870 -1.4360
  114MOL0     O15302   4.951   5.729   2.910 -0.2676 -0.3551 -0.1408
  114MOL0     C15303   4.876   5.584   2.690  0.7719 -0.4617 -0.5245
  114MOL0     C15304   4.807   5.515   2.588 -0.3070 -0.2086  0.4446
  114MOL0     N15305   4.222   5.238   2.022 -0.4937 -0.5866  0.2782
  114MOL0     N15306   4.145   5.315   1.949 -0.6964 -0.4043  0.8894
  114MOL0     C15307   3.980   5.924   2.456  0.7237  0.7821 -0.3342
  114MOL0     C15308   3.945   5.875   2.584  0.6776  0.6351  1.2130
  114MOL0     C15309   3.984   5.770   3.050  0.3519  0.5924 -0.0516
  114MOL0     C15310   4.055   5.754   3.168 -0.4289 -0.0590 -0.2750
  114MOL0     C15311   3.993   5.720   3.289 -0.9437 -0.1628  0.5054
  114MOL0     C15312   3.859   5.701   3.296 -0.2852 -0.0094  0.9772
  114MOL0     O15313   3.793   5.702   3.420  0.6611  0.2091  0.8567
  114MOL0     C15314   3.859   5.727   3.544 -0.0035  0.2086  0.2812
  114MOL0     C15315   3.759   5.701   3.658  0.4897  0.9074  0.0365
  114MOL0     C15316   3.729   5.550   3.665 -0.6102 -0.1606 -0.8624
  114MOL0     C15317   3.612   5.531   3.755 -0.2457 -0.4148  0.1934
  114MOL0     C15318   3.631   5.566   3.898  0.3918 -0.1025 -0.3332
  114MOL0     C15319   3.620   5.605   4.012 -0.2739  0.1275 -0.4788
  114MOL0     C15320   3.784   5.721   3.186 -0.7430 -0.2961 -0.0021
  114MOL0     C15321   3.838   5.759   3.066  0.1969  0.4429  1.0748
  114MOL0     C15322   3.742   5.792   2.962  0.7115  0.0303  0.0552
  114MOL0     H15323   4.240   5.938   2.748  1.3003 -0.0887 -1.0515
  114MOL0     H15324   4.297   6.026   2.537 -0.4626  1.2939  0.5117
  114MOL0     H15325   4.234   6.169   2.204 -0.4933  1.3003  0.1817
  114MOL0     H15326   4.266   6.174   2.360  1.0634  0.0904 -0.8984
  114MOL0     H15327   4.388   5.943   2.349 -1.2738 -2.6939 -0.7242
  114MOL0     H15328   4.451   6.074   2.249 -1.7997  1.2605  1.7547
  114MOL0     H15329   4.471   5.872   2.120  0.5935  1.0301  2.6738
  114MOL0     H15330   4.330   5.969   2.053  0.5096  2.1460  0.8644
  114MOL0     H15331   4.293   5.753   2.249  2.5412 -1.2175  0.2261
  114MOL0     H15332   4.176   5.798   2.120 -1.2827 -0.1355  4.1526
  114MOL0     H15333   4.421   5.624   2.077  1.1490  2.8637 -2.6435
  114MOL0     H15334   4.256   5.574   2.083  1.4338 -1.8490 -0.8306
  114MOL0     H15335   4.322   5.805   1.897 -2.2666 -0.1944 -2.5966
  114MOL0     H15336   4.394   5.658   1.858  1.6618  1.9997  0.9997
  114MOL0     H15337   4.136   5.726   1.768 -1.9692 -4.3296 -2.6897
  114MOL0     H15338   4.099   5.651   1.922  3.0124  0.6489  1.7682
  114MOL0     H15339   4.058   5.501   1.753 -0.4557  1.6150  1.8505
  114MOL0     H15340   4.221   5.507   1.688  2.1134 -1.5551  1.6325
  114MOL0     H15341   4.439   5.414   1.855  0.8381 -3.3155 -0.8611
  114MOL0     H15342   4.435   5.133   2.135  0.2747  1.8094  1.2090
  114MOL0     H15343   4.551   5.193   2.015  0.2157  1.4390 -1.5179
  114MOL0     H15344   4.568   5.391   2.118  0.7328 -0.7458 -0.5351
  114MOL0     H15345   4.430   5.390   2.220  1.1859  1.7162  0.9593
  114MOL0     H15346   4.662   5.187   2.250 -2.0828 -0.2487 -1.8983
  114MOL0     H15347   4.530   5.200   2.355  0.1908 -0.9550 -0.6867
  114MOL0     H15348   4.604   5.444   2.412 -1.5111 -1.6448  1.0974
  114MOL0     H15349   4.755   5.391   2.313  0.0127 -2.0672 -1.3104
  114MOL0     H15350   4.802   5.209   2.710  2.1484 -0.6489 -0.2802
  114MOL0     H15351   4.901   5.319   2.910 -0.8071 -1.0647  0.2031
  114MOL0     H15352   5.240   5.636   3.075 -0.0113 -1.1012 -0.7150
  114MOL0     H15353   5.301   5.793   3.265 -1.2991  1.1517 -0.2046
  114MOL0     H15354   5.033   6.024   3.407 -2.9975 -2.2080  0.3946
  114MOL0     H15355   5.016   5.931   3.553  1.7180 -3.0079  0.2680
  114MOL0     H15356   5.254   6.104   3.519  0.8132 -1.6817 -2.0840
  114MOL0     H15357   5.110   6.154   3.600  0.8066  0.5939 -0.5824
  114MOL0     H15358   5.103   5.954   3.735 -0.9489  4.5613 -0.7208
  114MOL0     H15359   5.268   5.898   3.690 -0.3680 -1.8018  1.7749
  114MOL0     H15360   5.204   6.166   3.822  0.1346  0.7598  1.1159
  114MOL0     H15361   5.365   6.099   3.791  0.6020 -0.1703  1.3529
  114MOL0     H15362   5.301   5.892   3.929 -0.6551 -0.6534  1.5118
  114MOL0     H15363   5.149   5.962   3.974 -0.6306  0.6274 -0.8257
  114MOL0     H15364   5.414   6.084   4.036  0.3649 -1.2905 -1.5068
  114MOL0     H15365   5.267   6.174   4.071 -1.9062 -0.7972  0.7590
  114MOL0     H15366   5.339   5.908   4.196  3.3169  1.6784  3.8365
  114MOL0     H15367   5.172   5.986   4.217 -0.1042  3.5716  1.4253
  114MOL0     H15368   5.446   6.084   4.297  0.4899  1.4845  0.2009
  114MOL0     H15369   5.309   6.185   4.312  2.3085 -0.6902 -1.2412
  114MOL0     H15370   4.894   5.781   3.398 -1.9137 -2.9123 -1.6079
  114MOL0     H15371   4.839   5.642   3.231  0.6681 -0.1534  1.0350
  114MOL0     H15372   4.900   5.689   2.676 -1.3864  0.5658  2.5254
  114MOL0     H15373   4.792   5.577   2.501  1.5359 -0.0033  0.2201
  114MOL0     H15374   3.916   5.920   2.369  2.3101 -0.9234 -1.5072
  114MOL0     H15375   3.848   5.828   2.600  0.3152  1.4113  1.3538
  114MOL0     H15376   4.162   5.764   3.183 -0.6071 -0.9996  2.1033
  114MOL0     H15377   4.064   5.718   3.371 -1.6279 -3.9771  1.2002
  114MOL0     H15378   3.898   5.829   3.535  1.1643 -0.4296 -3.1523
  114MOL0     H15379   3.951   5.671   3.564  0.5230  1.5905  2.1164
  114MOL0     H15380   3.676   5.764   3.627  1.8834  0.7164 -5.0031
  114MOL0     H15381   3.796   5.729   3.757 -2.1025 -0.0704  1.3764
  114MOL0     H15382   3.815   5.493   3.700 -0.3457 -0.4541 -1.9650
  114MOL0     H15383   3.707   5.521   3.562 -1.4821  2.1276 -1.4054
  114MOL0     H15384   3.526   5.583   3.712 -0.6574  1.6650  3.2943
  114MOL0     H15385   3.590   5.424   3.755 -0.4031 -0.4162  2.6378
  114MOL0     H15386   3.572   5.635   4.103 -3.1711 -1.9261 -1.1837
  114MOL0     H15387   3.678   5.726   3.207 -1.4080 -1.3326 -2.6803
  114MOL0     H15388   3.703   5.894   2.975  0.9714  0.5216 -2.6056
  114MOL0     H15389   3.768   5.767   2.859 -0.7038 -2.3101  0.2239
  114MOL0     H15390   3.664   5.718   2.981  2.6715 -2.4312 -0.9117
  115MOL0     O15391   8.481   2.362   9.658  0.0455 -0.6287  0.3593
  115MOL0     C15392   8.422   2.329   9.558 -0.8271 -0.7442 -0.7932
  115MOL0     O15393   8.484   2.295   9.442 -0.0273 -0.4969 -0.7328
  115MOL0     C15394   8.609   2.344   9.419  0.6443  0.1280  0.3770
  115MOL0     C15395   8.700   2.257   9.360  0.6168 -0.0166  0.3747
  115MOL0     C15396   8.832   2.294   9.319  0.6921 -0.0791 -0.1768
  115MOL0     C15397   8.874   2.423   9.324 -0.3875 -0.3613  0.6171
  115MOL0     O15398   9.002   2.447   9.284  0.4001  0.0166 -0.6806
  115MOL0     C15399   9.009   2.543   9.186 -0.1274 -0.1427 -0.9964
  115MOL0     C15400   9.072   2.494   9.053 -0.5888 -0.2509 -0.4338
  115MOL0     C15401   9.022   2.353   9.001  0.6724 -0.6661 -0.1201
  115MOL0     C15402   8.889   2.348   8.942  0.2658  0.2251  0.7924
  115MOL0     C15403   8.834   2.203   8.937 -0.2106  0.2342  0.1769
  115MOL0     C15404   8.912   2.114   8.833 -0.2763 -0.8835 -0.8925
  115MOL0     C15405   8.842   1.976   8.813 -0.1660  0.1949 -0.9232
  115MOL0     C15406   8.885   1.887   8.932  0.3919  0.6163 -0.6505
  115MOL0     N15407   9.028   1.863   8.944  0.8251 -0.4658  0.0434
  115MOL0     C15408   9.108   1.781   8.876 -0.1808 -0.2804 -1.1452
  115MOL0     C15409   9.235   1.805   8.926  0.2714 -0.9132 -0.6939
  115MOL0     C15410   9.347   1.723   8.887 -0.6402 -0.5496 -0.8712
  115MOL0     C15411   9.353   1.578   8.939  0.0917  0.2486  0.2660
  115MOL0     C15412   9.329   1.586   9.092 -0.9025  0.9404  0.4422
  115MOL0     C15413   9.378   1.464   9.167 -0.2944  0.2419 -0.7073
  115MOL0     O15414   9.488   1.389   9.110  0.4092 -1.0075  0.8658
  115MOL0     C15415   9.614   1.442   9.098 -0.6714 -0.0628 -0.2032
  115MOL0     C15416   9.666   1.569   9.160 -0.7402 -0.8769  1.0849
  115MOL0     C15417   9.796   1.616   9.121  0.7136 -0.7052  0.4974
  115MOL0     C15418   9.886   1.537   9.050 -0.4148  0.4453 -1.4087
  115MOL0     C15419  10.021   1.577   9.005 -0.5053  0.1712 -0.4887
  115MOL0     O15420  10.088   1.488   8.923  0.2513  0.7714  0.2951
  115MOL0     C15421  10.214   1.497   8.878  0.1490 -0.3475  0.1648
  115MOL0     C15422  10.255   1.606   8.796 -0.1969 -0.3881  0.2919
  115MOL0     C15423  10.386   1.626   8.765  0.0685  0.9428  0.2011
  115MOL0     C15424  10.490   1.532   8.806 -0.3450  0.6000  0.7102
  115MOL0     O15425  10.624   1.555   8.790  0.2742 -0.1297  0.6208
  115MOL0     C15426  10.673   1.671   8.712 -1.0102 -0.6055 -0.6989
  115MOL0     C15427  10.829   1.677   8.759 -0.8079  0.2023  0.4547
  115MOL0     C15428  10.909   1.561   8.687  0.0007  0.1053 -0.6501
  115MOL0     C15429  11.044   1.533   8.750 -0.0561 -0.7990 -0.1544
  115MOL0     C15430  11.044   1.408   8.829 -0.2326  0.3234 -0.1288
  115MOL0     C15431  11.174   1.384   8.905  0.4042  0.7786  0.4334
  115MOL0     C15432  11.226   1.503   8.978  0.1778  0.0827 -1.1681
  115MOL0     C15433  11.277   1.461   9.117 -0.2823  0.6020 -0.7664
  115MOL0    Cl15434  11.427   1.358   9.114 -0.3806 -0.1174 -0.4162
  115MOL0     C15435  10.452   1.422   8.885 -0.1842 -0.2574 -1.0254
  115MOL0     C15436  10.314   1.402   8.921  0.0641 -0.4347 -0.1531
  115MOL0     O15437  10.065   1.685   9.036 -0.1684 -0.8215  0.7460
  115MOL0     C15438   9.841   1.412   9.011  0.2544 -0.1574  0.1173
  115MOL0     C15439   9.709   1.373   9.022  0.1768  0.4913 -0.2001
  115MOL0     N15440   9.225   1.893   9.035 -0.1478 -0.6373  0.1413
  115MOL0     N15441   9.101   1.923   9.047  0.5079  0.0562  0.1849
  115MOL0     C15442   8.782   2.516   9.371 -0.1191 -0.8567 -0.3448
  115MOL0     C15443   8.648   2.481   9.414  0.2660  0.5328  0.4886
  115MOL0     C15444   8.289   2.281   9.589 -0.1931 -0.3107 -0.3264
  115MOL0     C15445   8.264   2.147   9.562  0.2522 -0.3749  0.4351
  115MOL0     C15446   8.133   2.103   9.594 -0.7278  0.4171 -0.7003
  115MOL0     C15447   8.032   2.181   9.648 -0.5753 -0.3719  0.6060
  115MOL0     O15448   7.906   2.146   9.687 -0.3933 -0.2925  0.3416
  115MOL0     C15449   7.895   2.014   9.739  0.4177 -0.6066  0.2849
  115MOL0     C15450   7.771   2.011   9.831 -0.6404 -0.4808 -0.3632
  115MOL0     C15451   7.653   2.101   9.785 -0.6652 -0.2463 -0.5193
  115MOL0     C15452   7.611   2.068   9.649 -0.2155 -0.3822  0.3395
  115MOL0     C15453   7.490   2.153   9.620  0.0954  0.3029  0.8311
  115MOL0     C15454   7.395   2.219   9.593  0.5113 -0.0692 -0.2159
  115MOL0     C15455   8.068   2.314   9.665 -1.0171  0.0434 -0.3158
  115MOL0     C15456   8.194   2.357   9.649  0.7136  0.1336  0.7567
  115MOL0     C15457   8.215   2.501   9.700  0.4690  0.5062  0.7801
  115MOL0     H15458   8.662   2.155   9.353 -0.4887  0.3383  0.9608
  115MOL0     H15459   8.903   2.218   9.288  2.4501  0.1142  2.9474
  115MOL0     H15460   8.918   2.598   9.160 -0.7763 -0.4289  0.5981
  115MOL0     H15461   9.066   2.622   9.236 -0.4836 -0.3911 -0.1908
  115MOL0     H15462   9.180   2.500   9.066 -0.9860  3.8830  3.4748
  115MOL0     H15463   9.034   2.563   8.976 -2.1054  1.3442  1.6322
  115MOL0     H15464   9.029   2.278   9.081 -1.8676 -1.5394 -0.6202
  115MOL0     H15465   9.084   2.315   8.919  4.1188 -1.2015  2.5031
  115MOL0     H15466   8.828   2.407   9.011  0.8764  3.3586 -1.1268
  115MOL0     H15467   8.891   2.387   8.840  2.4962 -0.7840  0.3780
  115MOL0     H15468   8.834   2.166   9.040 -2.1591  2.2379  0.9780
  115MOL0     H15469   8.731   2.216   8.903  0.2923  2.4183 -0.6572
  115MOL0     H15470   8.904   2.167   8.737  0.8729 -1.8022 -1.5149
  115MOL0     H15471   9.018   2.105   8.858 -0.8499 -1.3165  1.6491
  115MOL0     H15472   8.862   1.934   8.714 -2.1148  1.4025 -1.8892
  115MOL0     H15473   8.735   1.995   8.820 -0.7622 -1.7589 -3.4206
  115MOL0     H15474   8.849   1.938   9.022 -0.5077 -0.9336 -0.0812
  115MOL0     H15475   8.832   1.792   8.918 -0.0907  0.8090 -0.1763
  115MOL0     H15476   9.075   1.717   8.795 -1.8244  2.0115 -2.3836
  115MOL0     H15477   9.344   1.713   8.778  0.5803 -2.8986 -0.7549
  115MOL0     H15478   9.441   1.772   8.916  0.9058 -2.4006 -2.4304
  115MOL0     H15479   9.262   1.529   8.904  0.1721  0.1267  0.2265
  115MOL0     H15480   9.432   1.516   8.896 -1.5921  0.3097 -3.2623
  115MOL0     H15481   9.222   1.594   9.112 -1.1299  1.9340 -0.9491
  115MOL0     H15482   9.380   1.674   9.134 -0.5344  0.6969  0.5110
  115MOL0     H15483   9.295   1.397   9.187 -0.4612  0.1527 -1.6630
  115MOL0     H15484   9.404   1.509   9.264  3.4042  1.8087 -2.2035
  115MOL0     H15485   9.597   1.630   9.218  0.5947  2.5426 -0.6280
  115MOL0     H15486   9.828   1.714   9.155  2.7474 -1.2111  0.1734
  115MOL0     H15487  10.195   1.689   8.760 -0.3874 -1.9595 -3.4860
  115MOL0     H15488  10.406   1.709   8.698 -3.7730  0.7135 -1.4799
  115MOL0     H15489  10.664   1.665   8.603 -0.7535 -2.9781 -0.6555
  115MOL0     H15490  10.619   1.752   8.761  1.7728  0.1869  1.3289
  115MOL0     H15491  10.873   1.776   8.748 -2.4169  1.3486  3.3024
  115MOL0     H15492  10.837   1.662   8.867  1.9430  0.5000  0.3724
  115MOL0     H15493  10.863   1.463   8.673 -0.2904  0.3470 -1.4996
  115MOL0     H15494  10.921   1.594   8.583 -0.7209 -0.1452 -0.8176
  115MOL0     H15495  11.076   1.623   8.804 -2.8056 -0.6249  1.3584
  115MOL0     H15496  11.105   1.523   8.660 -1.7816 -0.0468 -1.4765
  115MOL0     H15497  11.018   1.323   8.764  0.7265 -1.1106  1.2784
  115MOL0     H15498  10.966   1.407   8.905 -0.2384 -0.6336 -0.1289
  115MOL0     H15499  11.163   1.299   8.973 -1.3792  2.1346  1.9314
  115MOL0     H15500  11.246   1.351   8.830 -1.2495  0.9102 -1.2801
  115MOL0     H15501  11.144   1.571   9.003  1.7064  0.9669  1.9975
  115MOL0     H15502  11.308   1.561   8.935  0.2218 -0.0268 -1.2339
  115MOL0     H15503  11.309   1.552   9.168  1.4403 -1.0211  1.2635
  115MOL0     H15504  11.195   1.402   9.159 -3.2902 -0.0694 -6.5821
  115MOL0     H15505  10.524   1.353   8.928 -1.8713 -0.0655  2.4462
  115MOL0     H15506  10.287   1.318   8.985  1.7349 -0.9887 -0.1221
  115MOL0     H15507   9.907   1.340   8.965 -1.9554 -2.7124  0.7410
  115MOL0     H15508   9.680   1.279   8.976  1.6867  0.3623 -0.9470
  115MOL0     H15509   8.818   2.618   9.374  1.5142 -1.0283 -5.1804
  115MOL0     H15510   8.565   2.547   9.436 -1.1721 -1.3141  0.8637
  115MOL0     H15511   8.329   2.076   9.512  0.0203  0.0923 -0.5456
  115MOL0     H15512   8.112   1.999   9.568 -2.1030  0.4355  0.2525
  115MOL0     H15513   7.979   2.011   9.810 -0.0728 -0.0399  0.9007
  115MOL0     H15514   7.917   1.931   9.671 -0.8033 -2.9649  2.5518
  115MOL0     H15515   7.794   2.062   9.925  0.7119  2.2371 -2.0314
  115MOL0     H15516   7.756   1.906   9.856  1.2549 -0.9236 -0.9579
  115MOL0     H15517   7.689   2.204   9.791  2.6266 -1.2949 -0.4892
  115MOL0     H15518   7.580   2.095   9.866  2.5036  3.3441  3.0415
  115MOL0     H15519   7.692   2.085   9.577  0.4034 -2.1941  0.5721
  115MOL0     H15520   7.569   1.967   9.649 -3.6462  0.8912 -0.4560
  115MOL0     H15521   7.313   2.280   9.562 -2.3366 -3.8612 -0.8938
  115MOL0     H15522   7.986   2.377   9.699  0.0725  1.7394 -0.7104
  115MOL0     H15523   8.252   2.488   9.802  2.0004  2.6401  0.5794
  115MOL0     H15524   8.293   2.556   9.647  1.9284 -1.6825  0.5193
  115MOL0     H15525   8.121   2.556   9.691 -0.6795 -1.6034 -1.1442
  116MOL0     O15526   1.773  10.529   8.196  0.2272  0.5116 -1.2563
  116MOL0     C15527   1.808  10.639   8.237  1.1914 -0.9760  0.9335
  116MOL0     O15528   1.868  10.732   8.166  0.2650 -0.0625  0.1632
  116MOL0     C15529   1.846  10.740   8.034 -0.2308 -0.1293 -0.2749
  116MOL0     C15530   1.718  10.711   7.973 -0.6326 -0.4786  0.0665
  116MOL0     C15531   1.702  10.725   7.833  0.2246  0.1189  0.3152
  116MOL0     C15532   1.806  10.775   7.758 -0.6807  0.1382 -0.5285
  116MOL0     O15533   1.776  10.802   7.628 -0.1977  0.7926 -0.1077
  116MOL0     C15534   1.848  10.897   7.548 -0.7819  0.8907  0.1903
  116MOL0     C15535   1.756  10.937   7.429  0.1179  0.2101  0.5549
  116MOL0     C15536   1.789  11.024   7.312 -0.8033  0.2391 -0.0009
  116MOL0     C15537   1.913  10.967   7.241 -1.0115  0.8479  0.1319
  116MOL0     C15538   1.947  11.051   7.117 -0.4303  0.4594  0.7202
  116MOL0     C15539   2.069  10.995   7.046 -0.5110  0.0468  0.3417
  116MOL0     C15540   2.093  11.058   6.909  0.1901  0.0372 -0.2287
  116MOL0     C15541   2.248  11.082   6.879  0.4966 -0.2738  0.1313
  116MOL0     N15542   2.262  11.161   6.756  0.2019  0.6444  0.7110
  116MOL0     C15543   2.259  11.297   6.740  0.6067 -0.0136 -0.8122
  116MOL0     C15544   2.265  11.322   6.608 -0.1366 -0.0663  0.7857
  116MOL0     C15545   2.291  11.458   6.538 -0.0376  0.8420  0.3466
  116MOL0     C15546   2.429  11.515   6.533  0.1730  0.3523  0.1691
  116MOL0     C15547   2.461  11.619   6.640 -0.4970  0.7714  0.2642
  116MOL0     C15548   2.609  11.670   6.619 -1.0463  0.7258 -0.5030
  116MOL0     O15549   2.613  11.752   6.506 -0.1516 -0.0935 -0.2028
  116MOL0     C15550   2.739  11.790   6.475  0.7500 -0.0911  0.5451
  116MOL0     C15551   2.862  11.766   6.535  0.1383  0.1137  0.7916
  116MOL0     C15552   2.979  11.832   6.498 -0.3393 -0.0390 -1.1326
  116MOL0     C15553   2.975  11.922   6.389 -0.7432 -0.2670  1.1441
  116MOL0     C15554   3.102  11.992   6.341  0.1691 -0.1617  0.0219
  116MOL0     O15555   3.213  11.955   6.407 -0.4626 -0.0760 -0.7735
  116MOL0     C15556   3.326  12.031   6.380 -0.4537 -0.1173  0.7736
  116MOL0     C15557   3.434  11.978   6.312 -0.0476 -0.7038  0.6032
  116MOL0     C15558   3.544  12.052   6.277 -0.7199 -1.1101 -0.3327
  116MOL0     C15559   3.553  12.181   6.318  0.8286 -1.1765 -0.2867
  116MOL0     O15560   3.658  12.252   6.270 -1.0246  0.5117 -0.1633
  116MOL0     C15561   3.662  12.392   6.297  0.2594 -0.1809  0.2519
  116MOL0     C15562   3.777  12.460   6.227 -0.4959 -0.3936  0.5065
  116MOL0     C15563   3.912  12.419   6.277 -0.2387 -0.6459 -0.4616
  116MOL0     C15564   4.011  12.537   6.247 -0.7404 -0.7870  0.0529
  116MOL0     C15565   4.157  12.497   6.279  0.4442 -0.0149 -0.0909
  116MOL0     C15566   4.199  12.381   6.198  0.1154  0.5091  0.6367
  116MOL0     C15567   4.346  12.348   6.197 -0.3944 -0.8957 -1.0750
  116MOL0     C15568   4.389  12.237   6.098  0.3856  0.1227 -0.5800
  116MOL0    Cl15569   4.337  12.084   6.177 -0.2340  0.0733  0.1290
  116MOL0     C15570   3.455  12.236   6.408 -0.5827 -0.0849 -0.1799
  116MOL0     C15571   3.343  12.153   6.437 -0.7100 -0.6355 -0.4457
  116MOL0     O15572   3.096  12.072   6.251 -0.6442  0.4637  0.0484
  116MOL0     C15573   2.855  11.924   6.309  0.3535  0.3302  0.3724
  116MOL0     C15574   2.739  11.870   6.366  0.0467 -0.0275  0.7627
  116MOL0     N15575   2.265  11.195   6.553 -0.5043 -0.3937  0.6893
  116MOL0     N15576   2.251  11.096   6.635 -0.2223 -0.9925  0.6511
  116MOL0     C15577   1.933  10.795   7.816  0.4110  0.2728  0.7204
  116MOL0     C15578   1.952  10.787   7.955 -0.4383  0.4670 -0.7576
  116MOL0     C15579   1.808  10.646   8.384 -1.0492 -0.1456 -2.0936
  116MOL0     C15580   1.912  10.721   8.451 -0.6146 -0.1393 -0.2085
  116MOL0     C15581   1.923  10.740   8.587 -0.5487  0.3359  0.5142
  116MOL0     C15582   1.837  10.681   8.669  0.0871 -0.0204  0.8520
  116MOL0     O15583   1.870  10.706   8.801 -0.4637 -0.3745 -0.3997
  116MOL0     C15584   1.796  10.632   8.899  0.4789 -1.0080  0.3995
  116MOL0     C15585   1.865  10.660   9.026 -1.1212  0.7207 -0.5131
  116MOL0     C15586   1.992  10.574   9.015  0.4799 -0.1993  0.2772
  116MOL0     C15587   2.059  10.584   9.163 -0.9140 -0.1416  0.5735
  116MOL0     C15588   2.204  10.532   9.166 -0.0425 -0.0040  1.0952
  116MOL0     C15589   2.323  10.491   9.172  0.8896  0.5450  0.2477
  116MOL0     C15590   1.741  10.588   8.620 -0.0522 -0.1651  0.7285
  116MOL0     C15591   1.718  10.573   8.475  0.1604 -0.9289 -0.0197
  116MOL0     C15592   1.594  10.492   8.432  0.0500  0.7775 -0.1698
  116MOL0     H15593   1.635  10.661   8.022 -0.0001 -0.7925  0.8500
  116MOL0     H15594   1.608  10.690   7.792  1.0462 -1.5794 -0.2130
  116MOL0     H15595   1.883  10.984   7.603 -3.0475  0.5676  2.3204
  116MOL0     H15596   1.941  10.846   7.519 -2.0827 -1.2842 -0.4022
  116MOL0     H15597   1.670  10.987   7.476  0.5778 -1.9552  4.0553
  116MOL0     H15598   1.711  10.842   7.401  0.6075 -0.2257  1.2289
  116MOL0     H15599   1.807  11.121   7.359  1.1652 -0.1001  0.0145
  116MOL0     H15600   1.710  11.044   7.239 -0.8555 -0.0109 -0.0148
  116MOL0     H15601   1.996  10.973   7.312  0.9624 -0.3093 -1.9282
  116MOL0     H15602   1.908  10.861   7.214  1.9853  0.6828 -0.0793
  116MOL0     H15603   1.868  11.051   7.041 -0.4980  1.0914  0.7845
  116MOL0     H15604   1.966  11.154   7.148  0.6938  0.8390 -1.0664
  116MOL0     H15605   2.154  11.009   7.114 -2.1907  3.1430  2.0064
  116MOL0     H15606   2.059  10.888   7.027 -0.2943 -0.3939  2.4797
  116MOL0     H15607   2.053  11.159   6.916 -3.1608 -1.2387  1.1754
  116MOL0     H15608   2.038  11.001   6.833  0.4931 -2.1872  1.1257
  116MOL0     H15609   2.286  11.139   6.964 -1.2344  1.1836 -0.0112
  116MOL0     H15610   2.294  10.985   6.859  0.4615  0.1192 -2.1068
  116MOL0     H15611   2.258  11.371   6.818 -1.1701 -0.9950  0.1535
  116MOL0     H15612   2.263  11.454   6.433 -0.3580  3.7273  0.2281
  116MOL0     H15613   2.225  11.528   6.591 -1.4728 -0.4436  0.3127
  116MOL0     H15614   2.497  11.430   6.530  0.1818  0.2870  1.4971
  116MOL0     H15615   2.434  11.564   6.436 -1.7814  3.2597  1.3911
  116MOL0     H15616   2.455  11.581   6.742  1.0463 -1.0872 -0.2741
  116MOL0     H15617   2.401  11.709   6.625  0.8102  1.3130 -2.2713
  116MOL0     H15618   2.684  11.592   6.607 -0.9523  0.8329 -0.6167
  116MOL0     H15619   2.656  11.723   6.703  0.4066  0.2510 -0.9846
  116MOL0     H15620   2.870  11.696   6.617  0.0219 -3.0143 -1.7096
  116MOL0     H15621   3.073  11.823   6.551 -2.1084  0.8831  2.4773
  116MOL0     H15622   3.435  11.874   6.280 -3.1264 -1.0878  1.4981
  116MOL0     H15623   3.612  12.016   6.200 -0.6299  1.8557 -1.7614
  116MOL0     H15624   3.568  12.438   6.265 -1.4535 -0.3212  4.4346
  116MOL0     H15625   3.672  12.408   6.405  2.6029  2.4744 -0.2317
  116MOL0     H15626   3.774  12.424   6.124 -0.8551  1.0681 -0.0222
  116MOL0     H15627   3.770  12.568   6.241 -1.4851 -0.4671  0.6941
  116MOL0     H15628   3.924  12.397   6.383  1.8571  3.1292  0.2652
  116MOL0     H15629   3.933  12.332   6.214 -1.1883 -0.6280 -0.8244
  116MOL0     H15630   3.991  12.624   6.311  0.9938  0.9782 -1.6628
  116MOL0     H15631   3.993  12.573   6.146 -0.6440 -0.1323  0.2632
  116MOL0     H15632   4.162  12.468   6.384 -0.4270 -1.5244 -0.4449
  116MOL0     H15633   4.222  12.585   6.268  0.3209 -0.1573 -2.4519
  116MOL0     H15634   4.149  12.284   6.214  2.5908 -1.0687 -0.5152
  116MOL0     H15635   4.172  12.406   6.095  3.9149  0.7432 -0.4670
  116MOL0     H15636   4.375  12.323   6.300 -1.3539 -0.3552 -0.6577
  116MOL0     H15637   4.400  12.436   6.161 -1.0390  0.0922  0.2553
  116MOL0     H15638   4.343  12.244   5.999 -0.4656 -1.8661 -0.3770
  116MOL0     H15639   4.495  12.247   6.072  0.7365 -0.2759  0.6229
  116MOL0     H15640   3.462  12.332   6.456 -0.2548  1.0263 -2.3183
  116MOL0     H15641   3.268  12.182   6.511  1.7636 -0.7171  2.2827
  116MOL0     H15642   2.854  11.981   6.217 -1.8310  0.3791  0.3887
  116MOL0     H15643   2.651  11.890   6.305  1.1048  1.5825 -0.3160
  116MOL0     H15644   2.009  10.820   7.743  3.2872 -0.6632  3.1705
  116MOL0     H15645   2.052  10.797   7.996 -1.0266  1.7282  0.4318
  116MOL0     H15646   1.994  10.767   8.396  1.6783 -1.5200  1.7995
  116MOL0     H15647   2.005  10.800   8.623  0.6770 -0.3171 -1.0766
  116MOL0     H15648   1.792  10.525   8.876 -1.6590 -0.8486 -0.2493
  116MOL0     H15649   1.691  10.663   8.908  0.2009 -2.3860  2.5227
  116MOL0     H15650   1.800  10.639   9.112  0.6256  0.0397  0.7011
  116MOL0     H15651   1.884  10.767   9.020  0.5905  0.5180  0.7207
  116MOL0     H15652   2.076  10.614   8.957  1.3694 -2.4342 -0.0811
  116MOL0     H15653   1.972  10.469   8.990 -0.3223 -0.3051  1.3123
  116MOL0     H15654   2.055  10.690   9.187 -3.5578  0.2603 -1.2117
  116MOL0     H15655   1.997  10.518   9.225 -1.8192  3.0451  3.2960
  116MOL0     H15656   2.424  10.457   9.181  0.7661  0.5103  1.7646
  116MOL0     H15657   1.671  10.537   8.685 -2.1433  0.6783 -0.7627
  116MOL0     H15658   1.585  10.475   8.324  1.0406  1.1425 -0.3261
  116MOL0     H15659   1.598  10.398   8.488 -0.7021  0.1188 -1.1729
  116MOL0     H15660   1.507  10.541   8.475 -0.6923  1.3375 -2.1888
  117MOL0     O15661   0.321   1.742   6.155  1.1937  0.5767  0.0061
  117MOL0     C15662   0.377   1.678   6.245  0.6731  0.7416  0.3003
  117MOL0     O15663   0.517   1.661   6.250 -0.0496  0.9441 -0.7681
  117MOL0     C15664   0.597   1.700   6.146  0.5731  0.1941  0.4383
  117MOL0     C15665   0.665   1.599   6.078  0.5681 -0.8389  0.2709
  117MOL0     C15666   0.748   1.638   5.971 -0.6865 -0.6801 -0.5257
  117MOL0     C15667   0.763   1.770   5.927 -0.4325  0.2365 -0.0052
  117MOL0     O15668   0.852   1.820   5.833  0.1103  0.5641 -0.1148
  117MOL0     C15669   0.951   1.731   5.777 -0.1562  0.5372  0.5254
  117MOL0     C15670   1.085   1.797   5.736  1.0580 -0.0258 -0.1896
  117MOL0     C15671   1.164   1.834   5.860 -0.4692 -1.2032  1.4975
  117MOL0     C15672   1.263   1.948   5.825  0.3958  0.5485 -0.4095
  117MOL0     C15673   1.357   1.993   5.943 -0.3938  0.3987 -1.1509
  117MOL0     C15674   1.436   1.882   6.009  0.0614 -0.6454 -0.0407
  117MOL0     C15675   1.505   1.787   5.915 -0.3903 -0.3208 -1.1850
  117MOL0     C15676   1.624   1.856   5.842  0.3351  0.3548 -0.4112
  117MOL0     N15677   1.719   1.765   5.784  0.1866  0.1634  0.4065
  117MOL0     C15678   1.846   1.750   5.832  0.6136 -0.3115  0.2861
  117MOL0     C15679   1.916   1.683   5.735  0.4229 -0.1239 -0.3272
  117MOL0     C15680   2.062   1.642   5.741 -0.5643 -0.6835  0.3208
  117MOL0     C15681   2.079   1.548   5.854  0.5609  0.7160  0.8741
  117MOL0     C15682   2.229   1.508   5.863  0.3977 -0.6760 -0.0307
  117MOL0     C15683   2.264   1.442   5.993 -0.1214 -0.5166 -0.7915
  117MOL0     O15684   2.401   1.394   5.999 -0.2886 -0.3492 -0.3503
  117MOL0     C15685   2.497   1.477   6.046 -0.1834 -0.8281 -0.8527
  117MOL0     C15686   2.618   1.406   6.069 -0.2572  0.2361 -0.8877
  117MOL0     C15687   2.737   1.466   6.107 -0.9328 -0.8765  0.0292
  117MOL0     C15688   2.739   1.609   6.121 -0.2747  1.5232 -0.4206
  117MOL0     C15689   2.864   1.683   6.158 -0.0364  0.4779 -0.0652
  117MOL0     O15690   2.980   1.618   6.135  0.1663  0.1449 -0.1937
  117MOL0     C15691   3.095   1.682   6.140 -1.1174 -0.1986  0.0059
  117MOL0     C15692   3.187   1.657   6.035  0.1314  0.1645 -0.4069
  117MOL0     C15693   3.297   1.738   6.017 -0.1182 -0.1749 -0.0265
  117MOL0     C15694   3.342   1.813   6.122  0.6123  0.5533  0.0669
  117MOL0     O15695   3.454   1.887   6.118 -0.3403  0.4804  0.6879
  117MOL0     C15696   3.559   1.830   6.036  1.1456 -0.5633 -0.0173
  117MOL0     C15697   3.686   1.886   6.085 -0.6660  0.2222 -1.0027
  117MOL0     C15698   3.811   1.849   6.010 -0.5051  0.8027 -0.8150
  117MOL0     C15699   3.944   1.879   6.088 -0.1676 -0.0437 -0.2332
  117MOL0     C15700   3.965   2.030   6.100 -0.3039  0.5879 -0.8549
  117MOL0     C15701   4.098   2.062   6.169  0.3383  0.6730 -0.1945
  117MOL0     C15702   4.157   2.194   6.133  0.1162 -0.4796  0.3028
  117MOL0     C15703   4.087   2.311   6.194 -0.0188  0.6134 -1.0489
  117MOL0    Cl15704   4.026   2.442   6.079  0.2559  0.2416 -0.0479
  117MOL0     C15705   3.260   1.829   6.233 -0.1720  0.2164 -1.3257
  117MOL0     C15706   3.138   1.769   6.247  0.2706  0.2467 -0.2000
  117MOL0     O15707   2.851   1.798   6.198  0.5696 -0.3995 -0.1155
  117MOL0     C15708   2.622   1.684   6.109 -0.3668  0.9305  0.3608
  117MOL0     C15709   2.497   1.621   6.079  0.2262 -0.6864 -0.0719
  117MOL0     N15710   1.823   1.657   5.633 -0.0703 -0.0489  0.2352
  117MOL0     N15711   1.707   1.710   5.662  0.4424  0.5751 -0.5228
  117MOL0     C15712   0.695   1.865   6.005 -0.3894 -0.2355  0.5142
  117MOL0     C15713   0.611   1.832   6.106 -0.2446  0.1920 -0.5724
  117MOL0     C15714   0.288   1.613   6.356 -0.3404 -0.6267  0.6781
  117MOL0     C15715   0.354   1.538   6.451  0.8850 -1.4236  0.7136
  117MOL0     C15716   0.282   1.481   6.550  0.1994 -0.6160  0.1270
  117MOL0     C15717   0.143   1.461   6.557  0.0594  0.3458 -0.2304
  117MOL0     O15718   0.072   1.380   6.647  0.1964 -0.1292  0.0958
  117MOL0     C15719   0.130   1.334   6.774 -0.3635  0.0196 -0.0083
  117MOL0     C15720   0.013   1.294   6.875 -0.0184  0.8043 -0.1163
  117MOL0     C15721   0.049   1.289   7.016  0.7402  0.0914 -0.2873
  117MOL0     C15722  -0.069   1.339   7.105  0.6860 -0.5759 -0.2540
  117MOL0     C15723  -0.072   1.481   7.120 -0.0724  0.0139  0.3372
  117MOL0     C15724  -0.061   1.599   7.137 -0.4107  0.4154  0.5222
  117MOL0     C15725   0.073   1.527   6.450  0.1882  0.9123 -0.0101
  117MOL0     C15726   0.143   1.595   6.350 -0.5202 -0.1032  0.3781
  117MOL0     C15727   0.051   1.653   6.243 -0.2092  0.7545 -0.0864
  117MOL0     H15728   0.655   1.495   6.108 -0.5902 -1.0264 -0.6803
  117MOL0     H15729   0.813   1.563   5.926 -1.6213 -1.2315 -0.9918
  117MOL0     H15730   0.971   1.653   5.851  2.1477  2.6575  2.2948
  117MOL0     H15731   0.909   1.679   5.690 -1.5195  2.5789 -0.1171
  117MOL0     H15732   1.070   1.886   5.674 -2.2788 -1.9127 -2.4626
  117MOL0     H15733   1.137   1.721   5.677 -0.2325 -0.3331 -0.9812
  117MOL0     H15734   1.203   1.744   5.907 -0.2567 -2.1997 -0.4767
  117MOL0     H15735   1.101   1.886   5.932 -1.5561 -0.1809 -0.1022
  117MOL0     H15736   1.319   1.903   5.742 -2.0964 -0.5015 -1.6593
  117MOL0     H15737   1.206   2.033   5.787  0.6437  1.1878  0.6081
  117MOL0     H15738   1.422   2.072   5.903 -2.6332  2.5252 -0.9078
  117MOL0     H15739   1.295   2.047   6.016 -0.3248  1.5632 -1.9279
  117MOL0     H15740   1.517   1.928   6.067 -2.5285  3.5443  0.6936
  117MOL0     H15741   1.387   1.825   6.088  3.4034 -2.5909  0.8414
  117MOL0     H15742   1.433   1.742   5.846 -0.7891  2.7436 -2.9631
  117MOL0     H15743   1.541   1.700   5.970 -0.6042 -1.4787 -2.8326
  117MOL0     H15744   1.590   1.923   5.762  0.9200 -0.5046 -1.4146
  117MOL0     H15745   1.672   1.923   5.914 -0.4934  0.1438  0.3490
  117MOL0     H15746   1.886   1.803   5.917 -0.4775  1.4042 -0.2253
  117MOL0     H15747   2.086   1.610   5.640 -0.7017 -4.0704  1.2422
  117MOL0     H15748   2.110   1.738   5.764  0.2389 -1.3084  1.3406
  117MOL0     H15749   2.054   1.596   5.950 -2.6509 -0.4503  0.7187
  117MOL0     H15750   2.023   1.458   5.827 -3.0415  2.6087  1.4020
  117MOL0     H15751   2.302   1.590   5.862 -1.5132  1.1178  0.5970
  117MOL0     H15752   2.253   1.443   5.779  0.5139  1.1281 -1.4438
  117MOL0     H15753   2.200   1.354   6.002 -0.4927 -0.1121  0.9468
  117MOL0     H15754   2.236   1.510   6.074 -1.6618 -2.7606  0.6683
  117MOL0     H15755   2.621   1.299   6.048 -0.5601 -0.0075  0.2756
  117MOL0     H15756   2.834   1.418   6.119  0.7108  2.2885  0.5569
  117MOL0     H15757   3.161   1.588   5.955  2.3057  0.0068 -1.0388
  117MOL0     H15758   3.351   1.742   5.922 -3.0202 -1.4640 -1.8619
  117MOL0     H15759   3.572   1.722   6.053  3.4947 -0.5647 -1.3632
  117MOL0     H15760   3.553   1.869   5.934  2.1620 -1.7985 -0.5830
  117MOL0     H15761   3.684   1.996   6.085  1.1919  0.3330  1.5634
  117MOL0     H15762   3.691   1.856   6.190 -1.8459 -2.4720 -1.6336
  117MOL0     H15763   3.811   1.742   5.988 -0.8983  0.6253  0.0511
  117MOL0     H15764   3.813   1.910   5.919  0.3316  0.6188 -0.9349
  117MOL0     H15765   4.030   1.847   6.028 -0.7993  3.2030 -3.1696
  117MOL0     H15766   3.938   1.823   6.182 -1.2938  0.8054  0.2203
  117MOL0     H15767   3.890   2.082   6.160 -0.2040  1.6541 -1.6318
  117MOL0     H15768   3.954   2.076   6.001 -2.7974  0.4783 -0.7094
  117MOL0     H15769   4.087   2.051   6.278  2.3882  0.9151  0.0748
  117MOL0     H15770   4.173   1.987   6.140  0.6126  1.6407 -2.1314
  117MOL0     H15771   4.140   2.196   6.025 -0.8874 -0.7974  0.4446
  117MOL0     H15772   4.262   2.186   6.163 -0.6673 -1.4722  3.0971
  117MOL0     H15773   3.993   2.273   6.234 -0.1679 -0.5973 -2.4779
  117MOL0     H15774   4.135   2.355   6.282  0.8398 -0.8826 -0.7391
  117MOL0     H15775   3.291   1.902   6.308 -1.5620  1.8344 -2.2532
  117MOL0     H15776   3.089   1.784   6.343  0.3070 -1.2040  0.0703
  117MOL0     H15777   2.613   1.792   6.119 -1.0132  1.0185 -0.8961
  117MOL0     H15778   2.407   1.681   6.071  2.7176  3.1606 -2.8947
  117MOL0     H15779   0.683   1.968   5.972  0.3272 -0.8360 -1.8191
  117MOL0     H15780   0.567   1.915   6.160  1.5396 -0.0934  1.4596
  117MOL0     H15781   0.463   1.537   6.450  1.1870  1.0114 -4.6104
  117MOL0     H15782   0.333   1.444   6.638  2.3390  2.2239  0.2030
  117MOL0     H15783   0.174   1.427   6.813  1.2332 -0.2818 -0.9943
  117MOL0     H15784   0.199   1.251   6.758 -2.0695 -1.4317 -0.1442
  117MOL0     H15785  -0.039   1.205   6.840  1.5241 -0.9827  1.8795
  117MOL0     H15786  -0.070   1.365   6.864 -2.2801 -2.0010 -3.1459
  117MOL0     H15787   0.135   1.353   7.037 -0.0980  0.5065  2.1778
  117MOL0     H15788   0.073   1.186   7.045  0.2832 -0.3072 -1.2739
  117MOL0     H15789  -0.155   1.300   7.050  1.3624 -1.8588 -0.4288
  117MOL0     H15790  -0.058   1.294   7.204 -0.6909  0.7449  0.5486
  117MOL0     H15791  -0.044   1.703   7.159  1.3090  0.3337 -0.3229
  117MOL0     H15792  -0.035   1.519   6.452  0.1586  1.2747 -0.1193
  117MOL0     H15793  -0.050   1.677   6.278  0.2860  0.6256  1.5186
  117MOL0     H15794   0.101   1.740   6.199 -0.8230  0.5642 -1.2060
  117MOL0     H15795   0.033   1.576   6.167 -3.6260  0.9382  0.3436
  118MOL0     O15796   7.102   2.765  10.117 -0.1239 -0.5807 -0.6813
  118MOL0     C15797   7.159   2.747  10.012  0.1752  0.4501  0.6862
  118MOL0     O15798   7.291   2.755   9.998 -0.4055 -1.1213 -0.0012
  118MOL0     C15799   7.355   2.780  10.110 -0.1693 -1.0524 -0.2977
  118MOL0     C15800   7.425   2.680  10.178  0.3226  0.7313 -1.0429
  118MOL0     C15801   7.487   2.709  10.298 -1.0312  0.1567 -0.1831
  118MOL0     C15802   7.498   2.838  10.353 -0.1070  0.0306 -0.5173
  118MOL0     O15803   7.585   2.850  10.460 -0.3728 -0.6130  0.3690
  118MOL0     C15804   7.684   2.954  10.451  0.4393  0.0457 -0.4445
  118MOL0     C15805   7.767   2.932  10.578 -1.1880  0.4478 -1.1510
  118MOL0     C15806   7.855   2.809  10.571 -0.3458 -0.7253  0.0270
  118MOL0     C15807   7.950   2.805  10.686  0.7162  0.1105  0.1086
  118MOL0     C15808   8.055   2.694  10.689  0.4626  0.4849 -0.5844
  118MOL0     C15809   8.116   2.648  10.832  0.4824 -0.5638  0.0275
  118MOL0     C15810   8.236   2.550  10.806 -0.0251 -0.4674  0.3004
  118MOL0     C15811   8.322   2.529  10.925 -0.4313 -0.5506 -1.1991
  118MOL0     N15812   8.464   2.508  10.896  0.3307  0.2890 -0.1584
  118MOL0     C15813   8.569   2.500  10.988  0.0968  0.4763  0.0084
  118MOL0     C15814   8.679   2.495  10.908 -0.5161 -0.4039 -0.1065
  118MOL0     C15815   8.808   2.451  10.964 -0.2261  0.1403 -1.0744
  118MOL0     C15816   8.921   2.543  10.910  0.1707 -0.8892 -0.0936
  118MOL0     C15817   8.960   2.535  10.762  0.6995 -0.0981  1.0154
  118MOL0     C15818   9.084   2.618  10.717 -0.5700 -0.5872 -0.0824
  118MOL0     O15819   9.211   2.586  10.761  0.0828 -0.1560  0.3260
  118MOL0     C15820   9.266   2.463  10.745 -0.6397  1.2024  0.2329
  118MOL0     C15821   9.380   2.441  10.826  0.2130 -0.8397  0.0068
  118MOL0     C15822   9.465   2.331  10.808  0.2837 -0.2200 -1.6711
  118MOL0     C15823   9.431   2.241  10.708  0.2851 -0.5240  0.7304
  118MOL0     C15824   9.531   2.129  10.700  0.5468 -0.3092  0.2433
  118MOL0     O15825   9.648   2.156  10.762  0.2022  0.3226  0.4578
  118MOL0     C15826   9.753   2.073  10.722  0.2186  0.5101  0.5384
  118MOL0     C15827   9.845   2.113  10.628  0.1232 -0.2836  0.1364
  118MOL0     C15828   9.953   2.032  10.597 -0.0835 -0.3332 -0.0947
  118MOL0     C15829   9.975   1.909  10.659  0.1416  0.2290 -0.3581
  118MOL0     O15830  10.105   1.852  10.640  0.7602  0.3290 -0.4330
  118MOL0     C15831  10.123   1.718  10.685 -0.0161 -0.1206 -0.1587
  118MOL0     C15832  10.236   1.642  10.621  0.0643 -0.5798 -0.1316
  118MOL0     C15833  10.369   1.721  10.616  0.3323 -0.0843 -0.4549
  118MOL0     C15834  10.455   1.701  10.739  1.2449 -0.4236  0.8871
  118MOL0     C15835  10.550   1.820  10.750  0.4449  0.4078 -0.8378
  118MOL0     C15836  10.647   1.822  10.627 -0.3105  0.0833  0.7122
  118MOL0     C15837  10.750   1.938  10.636 -0.6035  0.1350 -0.5031
  118MOL0     C15838  10.877   1.891  10.709  0.2664 -0.2198  0.6949
  118MOL0    Cl15839  11.000   2.010  10.739  0.8933  0.0392  0.7100
  118MOL0     C15840   9.883   1.863  10.757 -0.3615  0.5993  0.5905
  118MOL0     C15841   9.769   1.950  10.791 -0.9052  0.1214  0.4790
  118MOL0     O15842   9.501   2.052  10.617  0.0830  0.0259 -0.7743
  118MOL0     C15843   9.312   2.252  10.633 -0.8567 -0.3192  0.2544
  118MOL0     C15844   9.228   2.355  10.655 -0.3442 -0.0021 -0.8277
  118MOL0     N15845   8.646   2.486  10.776 -0.2626  0.1436  0.2722
  118MOL0     N15846   8.518   2.491  10.773 -0.4121  0.6957 -0.1638
  118MOL0     C15847   7.425   2.939  10.290  0.8153  0.1132  0.2386
  118MOL0     C15848   7.358   2.909  10.166  0.1589  0.5347 -0.5873
  118MOL0     C15849   7.080   2.726   9.885 -0.2210  0.2402 -0.2776
  118MOL0     C15850   7.134   2.777   9.761  0.6264 -0.1426  0.2794
  118MOL0     C15851   7.072   2.755   9.644  0.1482  0.1660 -0.5673
  118MOL0     C15852   6.959   2.667   9.635 -0.0172 -0.0628 -0.5420
  118MOL0     O15853   6.897   2.627   9.523 -0.6312 -1.0000 -0.5826
  118MOL0     C15854   6.875   2.738   9.430  0.3828 -0.9089 -0.1720
  118MOL0     C15855   6.721   2.756   9.402  1.0139  0.4031  0.1830
  118MOL0     C15856   6.639   2.625   9.381  0.5787  0.2151 -0.2389
  118MOL0     C15857   6.703   2.546   9.271  0.3888  1.1353  0.3318
  118MOL0     C15858   6.609   2.438   9.217  0.0880  0.4607 -0.3459
  118MOL0     C15859   6.549   2.350   9.167  0.6766  0.3069 -0.1458
  118MOL0     C15860   6.893   2.630   9.760 -1.0157  0.4283 -0.2033
  118MOL0     C15861   6.951   2.657   9.884  0.4273 -0.0461 -0.3016
  118MOL0     C15862   6.879   2.608  10.003  0.0827  0.3770 -0.4102
  118MOL0     H15863   7.403   2.581  10.138 -0.5573 -1.8002  4.7036
  118MOL0     H15864   7.539   2.629  10.350 -2.0799 -0.0645  0.5792
  118MOL0     H15865   7.742   2.957  10.358  0.1967  2.3011 -0.5738
  118MOL0     H15866   7.630   3.049  10.448 -0.0273 -0.2296 -3.6165
  118MOL0     H15867   7.705   2.935  10.668  0.1088  2.3051 -0.2615
  118MOL0     H15868   7.826   3.024  10.582 -2.9566  1.6911 -1.9356
  118MOL0     H15869   7.905   2.807  10.473  0.3366 -1.6834  0.3751
  118MOL0     H15870   7.793   2.719  10.573 -1.9207  0.3436  1.1378
  118MOL0     H15871   8.003   2.901  10.683  1.4400 -0.2177  1.3807
  118MOL0     H15872   7.888   2.806  10.776  0.4713  0.4768 -0.0653
  118MOL0     H15873   8.020   2.605  10.637 -0.7289 -0.6720  2.0255
  118MOL0     H15874   8.144   2.722  10.631 -1.2325 -0.7916 -4.1193
  118MOL0     H15875   8.154   2.737  10.884 -0.2600  1.5917 -2.8752
  118MOL0     H15876   8.041   2.598  10.894 -1.4853  0.7663 -1.1709
  118MOL0     H15877   8.295   2.597  10.728  0.6337  1.1301  1.7092
  118MOL0     H15878   8.195   2.452  10.781  2.0856 -1.4497  0.4921
  118MOL0     H15879   8.321   2.614  10.994  1.5151 -3.6042  3.0411
  118MOL0     H15880   8.288   2.446  10.988  0.3669 -0.3670 -0.5053
  118MOL0     H15881   8.569   2.493  11.096 -0.9160  1.8724  0.1183
  118MOL0     H15882   8.803   2.465  11.072 -1.0192  0.9965 -1.2084
  118MOL0     H15883   8.822   2.345  10.944  0.2602  0.1276 -0.7093
  118MOL0     H15884   8.881   2.644  10.924 -0.9857 -1.3531  0.1089
  118MOL0     H15885   9.014   2.526  10.963  1.2701  0.4015 -1.5259
  118MOL0     H15886   8.871   2.564  10.705  1.9993 -0.4747 -1.3102
  118MOL0     H15887   8.980   2.432  10.731  3.2536 -0.6595  3.9973
  118MOL0     H15888   9.064   2.725  10.730 -2.6960 -1.0076  0.5514
  118MOL0     H15889   9.090   2.612  10.608  0.4396  0.9556 -0.1389
  118MOL0     H15890   9.420   2.515  10.895  0.6177 -0.9417 -0.1147
  118MOL0     H15891   9.554   2.323  10.869 -1.2250  0.7139  0.8057
  118MOL0     H15892   9.829   2.212  10.586 -3.3525 -0.2536  1.1513
  118MOL0     H15893  10.016   2.065  10.515 -1.8656 -1.5910 -2.0872
  118MOL0     H15894  10.139   1.715  10.794 -4.3416 -1.0036  0.6359
  118MOL0     H15895  10.032   1.661  10.663  1.0736 -1.0109 -2.6597
  118MOL0     H15896  10.250   1.547  10.674  2.9322 -0.2568 -0.1799
  118MOL0     H15897  10.205   1.616  10.519 -2.1347  0.1273  0.3003
  118MOL0     H15898  10.426   1.700  10.525  1.2650 -1.6019  0.4329
  118MOL0     H15899  10.343   1.827  10.611  1.0589  0.3900  3.0364
  118MOL0     H15900  10.505   1.604  10.735  0.5099 -0.7734 -2.1891
  118MOL0     H15901  10.393   1.705  10.829  0.3860  0.8353  0.2656
  118MOL0     H15902  10.591   1.804  10.850 -0.9341 -1.2942 -0.4912
  118MOL0     H15903  10.487   1.909  10.751 -2.0675 -1.2393 -1.5327
  118MOL0     H15904  10.698   1.726  10.613  0.0107  0.6173 -2.4836
  118MOL0     H15905  10.596   1.832  10.531  0.8533 -1.1139 -0.0637
  118MOL0     H15906  10.715   2.017  10.703 -1.4510  0.0531 -0.8482
  118MOL0     H15907  10.771   1.979  10.537 -0.2579  1.8824  0.2632
  118MOL0     H15908  10.864   1.856  10.812 -0.1003 -0.5925  0.5223
  118MOL0     H15909  10.923   1.815  10.646 -1.6215 -0.6715 -0.1850
  118MOL0     H15910   9.893   1.773  10.817 -1.3421  1.2211  1.7467
  118MOL0     H15911   9.712   1.925  10.879  2.3255 -0.3817  2.6266
  118MOL0     H15912   9.301   2.173  10.559 -0.5757 -1.1530  1.0884
  118MOL0     H15913   9.142   2.365  10.589 -0.5742  0.8782 -0.4109
  118MOL0     H15914   7.410   3.044  10.315 -3.3105 -0.3234  0.1411
  118MOL0     H15915   7.309   2.995  10.120 -0.6352  0.2973 -0.2026
  118MOL0     H15916   7.226   2.834   9.768  0.6939 -0.0297 -1.3072
  118MOL0     H15917   7.123   2.795   9.557  1.3550 -2.6020 -1.2440
  118MOL0     H15918   6.932   2.723   9.338  4.7313  3.5751  1.3555
  118MOL0     H15919   6.910   2.832   9.472  0.1942  0.1422 -2.2104
  118MOL0     H15920   6.702   2.821   9.315 -3.5543 -0.0030  0.6562
  118MOL0     H15921   6.675   2.818   9.479 -0.5056  1.8713 -1.7837
  118MOL0     H15922   6.538   2.660   9.358 -0.1927 -2.0699 -0.5805
  118MOL0     H15923   6.627   2.565   9.471 -1.2259 -0.5830 -0.9451
  118MOL0     H15924   6.743   2.607   9.189  2.9403  2.4599  2.3760
  118MOL0     H15925   6.792   2.492   9.305 -0.2701  0.3374  0.8305
  118MOL0     H15926   6.512   2.266   9.113 -1.1848 -1.7588  3.8980
  118MOL0     H15927   6.800   2.578   9.739 -0.3544 -1.0445  0.3761
  118MOL0     H15928   6.930   2.524  10.052  0.5026  1.6975  1.5213
  118MOL0     H15929   6.871   2.688  10.077  3.1100  1.1209 -0.7566
  118MOL0     H15930   6.780   2.575   9.972  0.4175 -0.9473 -0.1157
  119MOL0     O15931   9.719   1.039   5.078  0.1537  0.1061  0.5270
  119MOL0     C15932   9.762   0.928   5.068 -0.2588  0.4125 -0.0950
  119MOL0     O15933   9.891   0.892   5.070 -0.0792  0.5124  0.8019
  119MOL0     C15934   9.983   0.994   5.050 -0.3561  0.1806  0.7216
  119MOL0     C15935   9.989   1.113   5.118  0.7593  0.2964  0.5643
  119MOL0     C15936  10.093   1.207   5.093  0.0013 -1.1659  0.4598
  119MOL0     C15937  10.188   1.187   4.992 -0.0971  0.2960  0.3795
  119MOL0     O15938  10.294   1.276   4.977 -0.4476 -0.0505 -0.8346
  119MOL0     C15939  10.356   1.276   4.852  0.6236 -0.7979 -0.6728
  119MOL0     C15940  10.438   1.399   4.825  0.0692 -1.1165  0.6064
  119MOL0     C15941  10.325   1.502   4.782 -0.2282 -0.4545  0.8764
  119MOL0     C15942  10.394   1.637   4.740  0.8496  0.6123  0.7512
  119MOL0     C15943  10.422   1.720   4.864  0.0268 -0.6602  0.6423
  119MOL0     C15944  10.429   1.867   4.831  0.0945 -0.5130 -0.8288
  119MOL0     C15945  10.303   1.926   4.787 -0.7259 -0.2154 -0.2061
  119MOL0     C15946  10.313   2.070   4.732 -0.5007  0.2975 -0.7399
  119MOL0     N15947  10.440   2.092   4.650 -0.0434 -0.0977  1.0082
  119MOL0     C15948  10.450   2.053   4.522 -0.4695 -0.6482  0.3205
  119MOL0     C15949  10.576   2.094   4.495  1.0312 -0.6751  1.1812
  119MOL0     C15950  10.632   2.085   4.355 -0.2857  0.0901 -1.2415
  119MOL0     C15951  10.549   2.184   4.269 -1.0090 -0.1152  0.5019
  119MOL0     C15952  10.604   2.188   4.129 -0.5033 -0.8538  0.4532
  119MOL0     C15953  10.525   2.285   4.042 -0.2429  0.8149  0.3681
  119MOL0     O15954  10.582   2.283   3.906  0.5095 -0.8261 -0.0970
  119MOL0     C15955  10.693   2.362   3.871 -0.8897  0.0291 -0.0339
  119MOL0     C15956  10.750   2.455   3.955  0.0161 -0.4304 -0.8592
  119MOL0     C15957  10.857   2.534   3.908 -0.7676 -0.2937  0.2788
  119MOL0     C15958  10.899   2.530   3.774 -0.0163  0.2962  0.4842
  119MOL0     C15959  10.988   2.630   3.710 -0.3188  0.1371 -0.2454
  119MOL0     O15960  11.063   2.708   3.799  0.3981 -0.4957  0.0484
  119MOL0     C15961  11.150   2.797   3.736  0.8136 -0.7866  1.3489
  119MOL0     C15962  11.116   2.926   3.675  0.0032  0.2011 -0.7761
  119MOL0     C15963  11.207   2.994   3.591  0.1971 -0.5394 -0.8526
  119MOL0     C15964  11.335   2.945   3.567 -0.4613 -0.7548 -0.4214
  119MOL0     O15965  11.428   2.994   3.469 -0.0231 -0.0818 -0.2818
  119MOL0     C15966  11.398   3.110   3.399  0.1801 -0.8279  0.6648
  119MOL0     C15967  11.294   3.069   3.284  0.3606  0.2053  0.5339
  119MOL0     C15968  11.359   3.018   3.156  0.2592 -0.7891  0.0850
  119MOL0     C15969  11.255   2.965   3.055  0.3279 -0.2436  0.3107
  119MOL0     C15970  11.303   2.940   2.907 -0.3703  0.6467 -0.2369
  119MOL0     C15971  11.421   2.839   2.906 -0.7118 -0.3881 -0.1913
  119MOL0     C15972  11.454   2.793   2.763 -0.1428 -0.2280 -0.1557
  119MOL0     C15973  11.524   2.653   2.745  0.2283 -0.0201 -0.3290
  119MOL0    Cl15974  11.683   2.658   2.827  0.0638  0.3410 -0.6320
  119MOL0     C15975  11.372   2.826   3.619  0.1158 -0.0777  0.1494
  119MOL0     C15976  11.278   2.752   3.697 -0.2733  0.1742 -0.7857
  119MOL0     O15977  10.995   2.632   3.584  0.0896  0.1303  0.0626
  119MOL0     C15978  10.837   2.437   3.690 -0.4711  0.0073  0.4254
  119MOL0     C15979  10.736   2.350   3.745 -0.2580  0.7986 -0.0073
  119MOL0     N15980  10.638   2.147   4.604 -0.0418 -0.8569  0.4802
  119MOL0     N15981  10.550   2.156   4.697  0.3842 -0.6688 -0.1203
  119MOL0     C15982  10.171   1.069   4.910 -0.4041  0.0435 -0.0034
  119MOL0     C15983  10.075   0.979   4.940 -0.0508  0.7708  0.5709
  119MOL0     C15984   9.657   0.817   5.066  0.0674 -0.6396  0.0748
  119MOL0     C15985   9.699   0.697   5.136  0.0375  0.2341  0.7350
  119MOL0     C15986   9.618   0.589   5.128  0.3497  0.2918  1.0133
  119MOL0     C15987   9.483   0.592   5.090 -0.7252  0.3026 -0.0634
  119MOL0     O15988   9.408   0.491   5.120  0.1354 -0.4828  0.1167
  119MOL0     C15989   9.320   0.492   5.233 -0.1394 -1.0541  0.4744
  119MOL0     C15990   9.183   0.569   5.214 -0.0100 -0.5609 -1.0431
  119MOL0     C15991   9.117   0.541   5.082  0.4516  0.7096  0.7477
  119MOL0     C15992   9.070   0.393   5.075  0.5035 -0.2934  0.3711
  119MOL0     C15993   8.938   0.391   5.137  0.0779 -0.1498  0.6307
  119MOL0     C15994   8.821   0.374   5.156  0.7154 -0.1401 -0.8980
  119MOL0     C15995   9.443   0.717   5.030  0.5535 -0.5307 -0.4466
  119MOL0     C15996   9.526   0.827   5.022  0.2559 -0.3211  0.2166
  119MOL0     C15997   9.462   0.961   4.976 -0.6657 -0.2733 -0.1683
  119MOL0     H15998   9.921   1.136   5.200 -1.7196  3.4506 -2.1298
  119MOL0     H15999  10.097   1.293   5.159  0.7827  0.4177 -1.5347
  119MOL0     H16000  10.427   1.192   4.852 -2.0993 -3.2572  0.8352
  119MOL0     H16001  10.275   1.259   4.781  0.4077  2.8031 -1.4971
  119MOL0     H16002  10.498   1.385   4.735  0.2778 -0.6514  0.6664
  119MOL0     H16003  10.504   1.429   4.907  0.0079 -1.6753  0.8665
  119MOL0     H16004  10.249   1.525   4.858 -1.5862 -1.7978 -0.0398
  119MOL0     H16005  10.263   1.466   4.701 -1.9091 -2.0876  2.7828
  119MOL0     H16006  10.485   1.615   4.682 -0.4659  2.1841 -2.1423
  119MOL0     H16007  10.323   1.690   4.676  0.8698  2.1056  1.9110
  119MOL0     H16008  10.347   1.698   4.940 -2.0703 -0.7363 -1.3552
  119MOL0     H16009  10.516   1.698   4.916 -0.3984 -1.4075  1.1192
  119MOL0     H16010  10.448   1.915   4.928 -4.3914  0.3329 -0.1092
  119MOL0     H16011  10.516   1.872   4.765  1.0642 -1.5144  0.3092
  119MOL0     H16012  10.231   1.937   4.868 -3.3734  0.7535 -2.4974
  119MOL0     H16013  10.250   1.854   4.724  1.6499 -0.4896 -2.0713
  119MOL0     H16014  10.231   2.086   4.662 -0.3973  3.1538 -0.3289
  119MOL0     H16015  10.296   2.136   4.818 -0.2585 -1.4911  0.7664
  119MOL0     H16016  10.379   2.004   4.456  0.3892 -1.0389 -0.3215
  119MOL0     H16017  10.737   2.113   4.367  0.6636 -3.8002  1.2926
  119MOL0     H16018  10.642   1.981   4.322  0.1360 -1.1022  2.2845
  119MOL0     H16019  10.441   2.171   4.276 -0.9726 -0.1230  1.0813
  119MOL0     H16020  10.564   2.286   4.305  1.9486  0.3925 -1.7583
  119MOL0     H16021  10.592   2.094   4.074 -3.0769  0.2484 -1.0646
  119MOL0     H16022  10.712   2.204   4.127 -0.5441 -0.6040  0.1696
  119MOL0     H16023  10.512   2.389   4.072 -3.1200  0.3751  0.9139
  119MOL0     H16024  10.424   2.242   4.039  0.4446 -0.8390 -1.3235
  119MOL0     H16025  10.712   2.464   4.056  4.1350 -2.4831  1.1137
  119MOL0     H16026  10.888   2.623   3.962  1.7863  0.1571 -1.7718
  119MOL0     H16027  11.021   2.972   3.701  1.0564  1.1708  1.6725
  119MOL0     H16028  11.180   3.085   3.539  1.3628  0.9038  0.9615
  119MOL0     H16029  11.365   3.194   3.461  0.6621 -0.5498  0.5526
  119MOL0     H16030  11.495   3.145   3.359  1.3824 -2.1360  2.3137
  119MOL0     H16031  11.227   2.991   3.321 -2.1856  1.3318 -1.3940
  119MOL0     H16032  11.230   3.158   3.272 -0.6219 -0.5193  0.3002
  119MOL0     H16033  11.415   3.098   3.105 -1.7575  0.8304  0.3092
  119MOL0     H16034  11.426   2.939   3.191  1.1746  0.3605  1.0170
  119MOL0     H16035  11.177   3.040   3.037  0.8784 -0.0748 -1.5887
  119MOL0     H16036  11.187   2.889   3.096  0.5657 -0.6137  0.0262
  119MOL0     H16037  11.344   3.030   2.860 -1.7578 -0.3936 -3.7805
  119MOL0     H16038  11.215   2.904   2.853  0.4492  0.1778 -1.2914
  119MOL0     H16039  11.505   2.886   2.959 -2.6818 -0.9243  3.8447
  119MOL0     H16040  11.396   2.758   2.976  1.6984  0.2952  1.6164
  119MOL0     H16041  11.527   2.866   2.727 -1.5412  0.9909 -0.6023
  119MOL0     H16042  11.368   2.778   2.696  1.3367 -2.7545 -1.6522
  119MOL0     H16043  11.454   2.580   2.788 -0.1054  0.7322  0.4439
  119MOL0     H16044  11.537   2.625   2.640  0.3729 -3.9509  0.5707
  119MOL0     H16045  11.466   2.775   3.601  1.6059  0.5974  4.6595
  119MOL0     H16046  11.321   2.661   3.738  0.2540  1.1885  1.0250
  119MOL0     H16047  10.843   2.422   3.583  4.2196  2.5564  0.0965
  119MOL0     H16048  10.686   2.269   3.692  1.7338 -1.5445  1.4549
  119MOL0     H16049  10.234   1.045   4.825 -2.4599  1.6126 -2.1025
  119MOL0     H16050  10.052   0.908   4.862 -0.1074 -1.0355  2.1641
  119MOL0     H16051   9.794   0.690   5.187 -0.0064  2.9765  1.3813
  119MOL0     H16052   9.663   0.496   5.162  1.0721 -0.6444 -2.1595
  119MOL0     H16053   9.367   0.554   5.310  0.6253 -1.2171  0.1449
  119MOL0     H16054   9.307   0.393   5.278 -3.7927 -0.6832  0.5165
  119MOL0     H16055   9.205   0.676   5.211  0.7888 -0.6927 -0.4825
  119MOL0     H16056   9.123   0.542   5.301 -0.7274  2.1931 -0.5934
  119MOL0     H16057   9.194   0.545   5.004 -0.4374 -2.5769 -0.4516
  119MOL0     H16058   9.050   0.624   5.060 -0.5927  0.7098  3.5329
  119MOL0     H16059   9.070   0.365   4.969  1.3246 -1.7771  0.7404
  119MOL0     H16060   9.129   0.327   5.139  1.6031 -0.8848 -1.1961
  119MOL0     H16061   8.719   0.350   5.175  1.0764  0.0406  1.6909
  119MOL0     H16062   9.337   0.715   5.007  0.7515  0.2070 -1.4945
  119MOL0     H16063   9.536   1.020   4.921  0.0591 -1.1074 -0.1122
  119MOL0     H16064   9.377   0.946   4.908  0.4528  0.9573 -1.9128
  119MOL0     H16065   9.438   1.021   5.064 -1.8744 -0.4140 -0.3892
  120MOL0     O16066   2.824   2.514   7.987 -0.4591  0.0629 -0.7399
  120MOL0     C16067   2.813   2.597   8.074  0.5139  0.7369  0.2481
  120MOL0     O16068   2.875   2.717   8.079  0.6074 -0.2231  0.2106
  120MOL0     C16069   2.979   2.735   7.995  0.2590 -0.5298  0.4688
  120MOL0     C16070   2.956   2.814   7.879 -0.1501 -0.0018 -0.0513
  120MOL0     C16071   3.065   2.846   7.806 -0.8934 -0.9145 -0.4761
  120MOL0     C16072   3.185   2.787   7.826 -0.6845  0.2026 -0.7795
  120MOL0     O16073   3.292   2.823   7.745  0.5433 -0.3323  0.4282
  120MOL0     C16074   3.421   2.773   7.764  0.1479  0.2457  1.0745
  120MOL0     C16075   3.510   2.808   7.648  0.5511  0.3647 -0.1281
  120MOL0     C16076   3.557   2.689   7.557 -0.1912  0.9163 -0.0676
  120MOL0     C16077   3.639   2.728   7.423 -0.3237  0.0180  0.1341
  120MOL0     C16078   3.639   2.601   7.325 -0.0493  0.4896 -0.1188
  120MOL0     C16079   3.739   2.613   7.208  0.3251 -0.0728  0.3936
  120MOL0     C16080   3.750   2.471   7.148  0.5408  0.4351 -0.0679
  120MOL0     C16081   3.663   2.438   7.030 -0.8403 -0.1922 -0.4329
  120MOL0     N16082   3.531   2.419   7.077  1.2702  0.6107 -0.4680
  120MOL0     C16083   3.501   2.345   7.187  0.0862 -0.0524  0.1437
  120MOL0     C16084   3.379   2.390   7.226 -0.0466  0.3083 -0.5930
  120MOL0     C16085   3.302   2.340   7.349 -0.3258 -0.9851  0.2076
  120MOL0     C16086   3.313   2.417   7.482 -0.7291  0.0002  0.3589
  120MOL0     C16087   3.263   2.327   7.599 -0.1049 -0.5486 -0.4818
  120MOL0     C16088   3.297   2.395   7.728  0.2769  0.0527 -0.3769
  120MOL0     O16089   3.351   2.287   7.812  0.5904  0.3779 -0.1410
  120MOL0     C16090   3.273   2.259   7.914 -0.0850 -0.4182  0.1838
  120MOL0     C16091   3.323   2.236   8.049  0.2158 -0.5015 -1.0957
  120MOL0     C16092   3.231   2.211   8.151  0.2524 -1.1905  0.2974
  120MOL0     C16093   3.090   2.210   8.136 -0.1007  0.3964  0.9361
  120MOL0     C16094   3.007   2.157   8.248 -0.7118 -0.8355 -0.2975
  120MOL0     O16095   3.057   2.176   8.373  0.2673 -0.2830  0.2198
  120MOL0     C16096   2.982   2.159   8.479  0.3966  0.1566 -0.3240
  120MOL0     C16097   3.026   2.077   8.590  0.4484  0.1942  1.2276
  120MOL0     C16098   2.963   2.061   8.709  0.1431 -0.7844  0.4099
  120MOL0     C16099   2.841   2.123   8.714  0.4003  0.7889 -0.3736
  120MOL0     O16100   2.796   2.127   8.847 -0.3208  0.0996  0.4260
  120MOL0     C16101   2.657   2.091   8.876 -0.6654  1.1116 -0.6387
  120MOL0     C16102   2.641   1.940   8.862  0.2862  1.1695  0.0584
  120MOL0     C16103   2.752   1.857   8.932  0.7616  0.0306  0.2288
  120MOL0     C16104   2.706   1.817   9.073  0.2186 -0.4579 -0.3546
  120MOL0     C16105   2.825   1.762   9.146 -0.0354 -0.3422 -0.1540
  120MOL0     C16106   2.823   1.781   9.300  0.6162 -0.2882 -1.0126
  120MOL0     C16107   2.853   1.925   9.351  0.1769 -0.0179  0.2903
  120MOL0     C16108   3.009   1.946   9.357 -0.6235 -0.2654  0.3917
  120MOL0    Cl16109   3.091   1.863   9.493 -0.5559  0.5177 -0.3019
  120MOL0     C16110   2.776   2.195   8.612 -0.1564  0.2436  0.2983
  120MOL0     C16111   2.849   2.211   8.496 -0.4317  0.4083  0.1819
  120MOL0     O16112   2.895   2.116   8.224 -0.5254 -0.2477 -0.2760
  120MOL0     C16113   3.044   2.219   8.003  0.2035 -0.0561 -0.4130
  120MOL0     C16114   3.134   2.238   7.899  0.2636 -0.9929  0.2181
  120MOL0     N16115   3.327   2.462   7.125  0.2582 -0.0726  0.0595
  120MOL0     N16116   3.422   2.484   7.043  0.1098 -0.3311  0.5723
  120MOL0     C16117   3.211   2.701   7.928  0.1668 -0.1605 -0.4143
  120MOL0     C16118   3.100   2.667   8.013 -0.3639 -0.1771  0.8184
  120MOL0     C16119   2.715   2.570   8.190 -0.0536  0.4066  0.7869
  120MOL0     C16120   2.693   2.673   8.284  0.2850 -0.1685  0.4134
  120MOL0     C16121   2.590   2.676   8.378 -0.1304 -0.1594  0.2034
  120MOL0     C16122   2.509   2.567   8.397 -0.1682 -0.2626 -0.5598
  120MOL0     O16123   2.423   2.553   8.505 -1.0161 -0.6908  0.8221
  120MOL0     C16124   2.489   2.507   8.623  0.7974  0.0600 -1.0245
  120MOL0     C16125   2.386   2.507   8.739  0.0886 -0.0125 -0.0014
  120MOL0     C16126   2.441   2.557   8.868  0.0222 -0.1002 -0.5729
  120MOL0     C16127   2.359   2.494   8.989 -0.0633  0.4138 -0.6691
  120MOL0     C16128   2.226   2.554   8.991  0.2231 -0.5881  0.1905
  120MOL0     C16129   2.127   2.614   8.972 -0.3414  1.0364 -0.1055
  120MOL0     C16130   2.532   2.458   8.309 -0.0229 -0.5743  0.1452
  120MOL0     C16131   2.622   2.466   8.201  0.8319 -0.4221  0.0050
  120MOL0     C16132   2.608   2.358   8.095 -1.0089 -0.7529 -0.4455
  120MOL0     H16133   2.859   2.850   7.845  0.0886  1.1814  0.4729
  120MOL0     H16134   3.047   2.928   7.737  1.9464  0.4278  0.2501
  120MOL0     H16135   3.459   2.825   7.852  1.7559  2.0681 -0.5897
  120MOL0     H16136   3.436   2.666   7.773  1.6725  0.2785 -0.5222
  120MOL0     H16137   3.608   2.830   7.693  1.1975 -2.5506  0.1045
  120MOL0     H16138   3.471   2.888   7.585  0.0890 -0.3124 -0.7264
  120MOL0     H16139   3.462   2.647   7.520 -2.4863  4.0723  1.7542
  120MOL0     H16140   3.614   2.615   7.613 -0.2868 -0.6477 -1.9310
  120MOL0     H16141   3.600   2.816   7.370  1.2987 -0.5000 -2.0497
  120MOL0     H16142   3.740   2.752   7.455 -0.8978  0.5362  1.6510
  120MOL0     H16143   3.660   2.508   7.378 -1.0007  0.2720 -0.1100
  120MOL0     H16144   3.536   2.579   7.295  0.1391 -1.9916  0.8783
  120MOL0     H16145   3.703   2.684   7.132  1.3465 -0.8134 -0.8251
  120MOL0     H16146   3.841   2.642   7.233  0.9885  0.4255 -2.4871
  120MOL0     H16147   3.752   2.391   7.223  2.7667  0.0750 -0.4223
  120MOL0     H16148   3.850   2.452   7.106  0.7407 -0.3087  0.6909
  120MOL0     H16149   3.677   2.517   6.957  1.2463 -1.0701 -1.0467
  120MOL0     H16150   3.702   2.343   6.992  0.5218 -0.3610  1.2733
  120MOL0     H16151   3.562   2.265   7.227 -4.4539 -3.7811  0.4161
  120MOL0     H16152   3.196   2.332   7.324 -0.2609  1.6927 -1.2305
  120MOL0     H16153   3.340   2.239   7.368 -2.5126 -2.0943 -0.9330
  120MOL0     H16154   3.417   2.449   7.490 -0.4838  0.2140 -2.5789
  120MOL0     H16155   3.247   2.504   7.472 -1.8819 -1.0425 -1.9548
  120MOL0     H16156   3.326   2.238   7.589  0.3970  0.1030 -4.9959
  120MOL0     H16157   3.156   2.307   7.589  0.0472 -0.5616 -2.2641
  120MOL0     H16158   3.202   2.438   7.760 -1.8250 -1.6640 -3.7751
  120MOL0     H16159   3.370   2.477   7.728 -1.4325  1.6417 -0.0132
  120MOL0     H16160   3.430   2.235   8.070  0.4850 -1.4124 -2.3990
  120MOL0     H16161   3.270   2.203   8.252 -0.5393 -0.8455  0.6370
  120MOL0     H16162   3.126   2.041   8.571  0.9317  0.6639  2.6998
  120MOL0     H16163   3.005   2.013   8.797  0.3732 -1.8033 -0.2405
  120MOL0     H16164   2.644   2.118   8.981  2.0008  0.7560 -0.1418
  120MOL0     H16165   2.585   2.148   8.815 -0.1193  2.9556  0.3625
  120MOL0     H16166   2.542   1.914   8.900  0.2490  1.0863 -0.0935
  120MOL0     H16167   2.652   1.910   8.757  1.7497 -2.2010  1.0388
  120MOL0     H16168   2.769   1.768   8.871 -0.5825 -0.2894  0.2855
  120MOL0     H16169   2.838   1.924   8.932 -1.1995  2.6991 -0.5028
  120MOL0     H16170   2.629   1.740   9.085  0.7841 -1.6225 -3.3934
  120MOL0     H16171   2.676   1.914   9.115  0.5760  0.4127 -2.0130
  120MOL0     H16172   2.913   1.816   9.111  0.3384 -0.9456 -0.1505
  120MOL0     H16173   2.838   1.657   9.120 -0.2470 -0.3867 -0.0837
  120MOL0     H16174   2.723   1.753   9.335 -0.6571  4.1347 -0.6184
  120MOL0     H16175   2.896   1.716   9.351  1.3339  1.9631  1.0163
  120MOL0     H16176   2.797   1.938   9.444 -1.6434  4.7673 -1.1808
  120MOL0     H16177   2.826   1.999   9.275 -0.0949 -1.6577 -1.2830
  120MOL0     H16178   3.053   1.913   9.262 -1.0974  1.4864 -0.5014
  120MOL0     H16179   3.040   2.050   9.371  2.2634 -1.2782  2.4039
  120MOL0     H16180   2.673   2.227   8.617 -0.5785 -1.0255  0.2787
  120MOL0     H16181   2.790   2.256   8.417  0.5179  1.4461  0.0434
  120MOL0     H16182   2.938   2.214   7.980 -1.1069 -1.5153  4.7152
  120MOL0     H16183   3.083   2.248   7.804  1.7052  0.0933 -0.4706
  120MOL0     H16184   3.303   2.648   7.949 -0.1313 -1.3583 -1.8938
  120MOL0     H16185   3.090   2.602   8.099 -1.3885 -0.1429  0.7332
  120MOL0     H16186   2.751   2.764   8.290  2.4835 -1.5669  1.6838
  120MOL0     H16187   2.573   2.764   8.440  1.5032  0.6523 -0.4371
  120MOL0     H16188   2.567   2.580   8.648  0.6676 -1.0924  3.6731
  120MOL0     H16189   2.524   2.404   8.606 -1.5014 -0.8491 -0.6505
  120MOL0     H16190   2.341   2.407   8.738 -2.2551  0.9797 -0.9638
  120MOL0     H16191   2.303   2.573   8.713  0.2704  0.5232  0.7563
  120MOL0     H16192   2.432   2.666   8.874 -2.4018 -0.1360 -2.0898
  120MOL0     H16193   2.546   2.528   8.869 -0.3337 -1.4901 -0.7962
  120MOL0     H16194   2.353   2.385   8.980 -0.0549  0.3714 -0.1735
  120MOL0     H16195   2.413   2.526   9.078 -0.5088 -1.7601  0.4395
  120MOL0     H16196   2.042   2.676   8.951 -0.4498  2.1883  3.1972
  120MOL0     H16197   2.473   2.368   8.319  0.4701 -0.9725 -0.4436
  120MOL0     H16198   2.703   2.304   8.094 -0.6258 -0.0769 -1.5613
  120MOL0     H16199   2.524   2.293   8.122 -0.5267 -1.4640 -0.6323
  120MOL0     H16200   2.593   2.411   8.001  2.9598  3.5368  0.9660
  121MOL0     O16201   8.254   3.884   5.049 -0.7316 -0.8917 -0.2668
  121MOL0     C16202   8.279   3.993   5.112 -0.3803  0.7993 -0.4865
  121MOL0     O16203   8.397   4.043   5.134 -0.2209 -1.0828  1.0767
  121MOL0     C16204   8.507   3.975   5.080  1.4735  0.8392 -1.0439
  121MOL0     C16205   8.523   3.892   4.965  0.4315  0.0946 -0.0232
  121MOL0     C16206   8.638   3.824   4.938 -0.3991  0.4037  0.3821
  121MOL0     C16207   8.753   3.829   5.019  0.6342 -1.7004  0.0033
  121MOL0     O16208   8.872   3.765   4.996 -0.3691 -0.0441  0.4834
  121MOL0     C16209   8.881   3.660   4.895  0.1897  0.5341 -0.0918
  121MOL0     C16210   9.033   3.615   4.904  0.1328  0.3339  0.0146
  121MOL0     C16211   9.060   3.503   5.005 -0.1678 -0.7442  0.0860
  121MOL0     C16212   9.209   3.471   5.018 -0.4768  0.2398  0.5404
  121MOL0     C16213   9.248   3.413   4.884 -0.2177 -0.5257  0.5184
  121MOL0     C16214   9.162   3.296   4.826 -1.0921  1.0237  0.5554
  121MOL0     C16215   9.226   3.201   4.721 -0.3663 -0.3899  0.7962
  121MOL0     C16216   9.285   3.288   4.611  1.4122 -1.3238 -0.0588
  121MOL0     N16217   9.330   3.201   4.502  0.2831 -0.8032 -0.4652
  121MOL0     C16218   9.444   3.120   4.506 -0.8338 -0.6115  0.1476
  121MOL0     C16219   9.448   3.067   4.381  0.6557 -0.0109  0.2451
  121MOL0     C16220   9.548   2.963   4.327 -0.0928  0.0760  0.1576
  121MOL0     C16221   9.674   3.019   4.258 -0.5702  0.2466  0.4294
  121MOL0     C16222   9.767   2.900   4.217 -0.0873 -0.0236  0.4100
  121MOL0     C16223   9.881   2.951   4.133 -0.2306  0.5582 -0.1012
  121MOL0     O16224   9.961   3.037   4.211 -0.4934  0.6988  0.3638
  121MOL0     C16225  10.068   3.087   4.146 -0.4760  0.4752 -0.3585
  121MOL0     C16226  10.081   3.216   4.171 -0.6838 -0.6296 -0.4345
  121MOL0     C16227  10.173   3.297   4.084  0.0886  0.7347  0.5535
  121MOL0     C16228  10.269   3.224   4.000 -0.0973  0.4060  0.1839
  121MOL0     C16229  10.379   3.299   3.924  0.9755  0.3902 -0.0604
  121MOL0     O16230  10.481   3.214   3.883 -0.1509 -0.3012  0.4762
  121MOL0     C16231  10.570   3.262   3.793  0.4017 -0.4301  0.1169
  121MOL0     C16232  10.585   3.196   3.676  0.7378 -0.3229  0.4474
  121MOL0     C16233  10.695   3.224   3.583  0.4550  1.0178 -0.5173
  121MOL0     C16234  10.793   3.319   3.608 -0.4245 -0.2450 -0.1175
  121MOL0     O16235  10.906   3.325   3.536 -0.5559  0.5154 -0.1038
  121MOL0     C16236  10.862   3.366   3.402  0.1387 -0.1208 -0.4476
  121MOL0     C16237  10.988   3.421   3.347 -0.0014 -0.2283  0.8261
  121MOL0     C16238  10.986   3.463   3.202 -0.1372 -0.2351  0.3676
  121MOL0     C16239  11.113   3.557   3.168 -0.3742  0.4145 -0.2662
  121MOL0     C16240  11.249   3.482   3.160  0.4641  0.6851 -0.6054
  121MOL0     C16241  11.266   3.377   3.047 -0.2458  0.1315  0.1363
  121MOL0     C16242  11.217   3.417   2.910 -0.5471 -0.2536  0.3608
  121MOL0     C16243  11.304   3.530   2.860  0.0777  0.0618  0.1308
  121MOL0    Cl16244  11.466   3.471   2.806  0.2494 -0.2002  0.4368
  121MOL0     C16245  10.767   3.395   3.725 -0.0412 -0.5752  0.6691
  121MOL0     C16246  10.657   3.371   3.811  0.6011 -0.2115 -0.3787
  121MOL0     O16247  10.379   3.423   3.928  0.2203  0.1946  0.8775
  121MOL0     C16248  10.259   3.081   4.002  0.1212 -0.0939  0.9648
  121MOL0     C16249  10.150   3.018   4.062  0.3323 -0.5901  0.1696
  121MOL0     N16250   9.345   3.118   4.309  0.8850  0.3326  0.3338
  121MOL0     N16251   9.267   3.195   4.388 -1.1078  0.2740 -0.2686
  121MOL0     C16252   8.735   3.905   5.138 -0.0307 -0.0644 -0.0023
  121MOL0     C16253   8.615   3.974   5.169  0.0716  0.3393 -0.0457
  121MOL0     C16254   8.163   4.072   5.166  0.4498  0.0257  0.9558
  121MOL0     C16255   8.196   4.194   5.230 -0.0394  0.5310 -0.2191
  121MOL0     C16256   8.101   4.276   5.283 -0.6678 -0.5771 -0.0411
  121MOL0     C16257   7.962   4.250   5.270  0.6262  0.7410  0.0633
  121MOL0     O16258   7.868   4.336   5.324  0.3734  0.2343  0.1986
  121MOL0     C16259   7.732   4.293   5.318  0.1992 -0.2588  0.0567
  121MOL0     C16260   7.639   4.399   5.377  0.5630  0.5470 -0.6538
  121MOL0     C16261   7.666   4.536   5.306 -1.0172 -0.1327 -0.3594
  121MOL0     C16262   7.581   4.643   5.370  0.1756  0.4248  0.1966
  121MOL0     C16263   7.603   4.778   5.314  0.2014  0.1040  0.8970
  121MOL0     C16264   7.613   4.889   5.254  0.2647 -0.0177  0.1001
  121MOL0     C16265   7.938   4.121   5.207 -0.5495 -0.1297  0.8826
  121MOL0     C16266   8.028   4.032   5.158  0.7046  0.4036  0.1509
  121MOL0     C16267   7.972   3.892   5.114  0.6909 -0.3006 -0.8660
  121MOL0     H16268   8.440   3.896   4.895 -0.6671  3.5943  1.2673
  121MOL0     H16269   8.646   3.763   4.848  2.5692 -2.0716  2.1333
  121MOL0     H16270   8.818   3.574   4.921  1.1629 -0.4694 -0.9622
  121MOL0     H16271   8.851   3.716   4.805 -1.6042  1.9709  1.3073
  121MOL0     H16272   9.093   3.703   4.928 -0.3740  0.8768 -0.6777
  121MOL0     H16273   9.059   3.589   4.801  1.0502  0.2512  0.2597
  121MOL0     H16274   9.004   3.411   4.988  0.1701 -0.8619 -0.3830
  121MOL0     H16275   9.027   3.552   5.098 -0.1731 -0.3900 -0.0986
  121MOL0     H16276   9.284   3.544   5.049  0.2972 -0.9237  1.5287
  121MOL0     H16277   9.219   3.395   5.097 -0.1197  0.6484  0.8898
  121MOL0     H16278   9.258   3.487   4.803 -4.7348 -0.6354 -0.3924
  121MOL0     H16279   9.347   3.380   4.917  1.3461  1.3626 -1.8560
  121MOL0     H16280   9.112   3.243   4.907 -3.0603  3.5483  1.1304
  121MOL0     H16281   9.080   3.341   4.768 -0.0621 -1.0858 -2.8444
  121MOL0     H16282   9.153   3.131   4.682 -0.5301 -0.7156  1.6592
  121MOL0     H16283   9.309   3.143   4.764 -0.3160 -0.1922  0.9701
  121MOL0     H16284   9.220   3.373   4.591  2.7832  0.1411  1.4671
  121MOL0     H16285   9.378   3.334   4.645  2.5364 -3.1741 -0.4950
  121MOL0     H16286   9.509   3.101   4.591  2.3146  0.9046 -1.7347
  121MOL0     H16287   9.565   2.894   4.410 -2.4876 -0.8809 -0.0664
  121MOL0     H16288   9.504   2.904   4.246 -2.3624  0.7843  0.7794
  121MOL0     H16289   9.648   3.068   4.164 -1.6630 -0.4852  0.3319
  121MOL0     H16290   9.731   3.079   4.329  0.9471 -1.0512  0.3830
  121MOL0     H16291   9.714   2.832   4.150  0.3837 -2.4810  2.3725
  121MOL0     H16292   9.795   2.842   4.306  1.1016  0.3957  0.3215
  121MOL0     H16293   9.851   3.002   4.041  0.7038  0.3446 -0.5388
  121MOL0     H16294   9.951   2.872   4.103  3.4186  3.8173 -0.9089
  121MOL0     H16295  10.006   3.265   4.233 -1.5650 -1.4677 -0.7966
  121MOL0     H16296  10.160   3.404   4.097 -2.4214  0.6508 -0.6142
  121MOL0     H16297  10.521   3.109   3.673 -0.1916  0.2367  2.5558
  121MOL0     H16298  10.709   3.159   3.498 -2.3744 -0.3374 -0.0717
  121MOL0     H16299  10.829   3.286   3.335 -0.9566  0.1898 -0.3039
  121MOL0     H16300  10.784   3.442   3.410  1.6705  1.3107  2.6408
  121MOL0     H16301  11.017   3.512   3.401  1.7275 -0.8076  0.9409
  121MOL0     H16302  11.061   3.343   3.369  1.4100  0.7484 -0.1479
  121MOL0     H16303  10.992   3.379   3.133  0.9806  2.2921 -2.8310
  121MOL0     H16304  10.896   3.524   3.196  0.5505  1.1985  2.8773
  121MOL0     H16305  11.120   3.624   3.254 -2.5104 -1.5911  1.6034
  121MOL0     H16306  11.095   3.620   3.081 -0.5509 -0.1736 -0.6560
  121MOL0     H16307  11.267   3.431   3.255  0.0332  1.6115 -0.0136
  121MOL0     H16308  11.335   3.551   3.161  4.0181 -3.3082 -1.7419
  121MOL0     H16309  11.369   3.340   3.053  0.1227  1.2968  1.7421
  121MOL0     H16310  11.197   3.296   3.076  1.2163 -1.4644 -0.6635
  121MOL0     H16311  11.111   3.442   2.922 -1.2396 -1.0495 -3.1370
  121MOL0     H16312  11.207   3.347   2.826  0.6171  0.5030 -0.4395
  121MOL0     H16313  11.260   3.592   2.782 -0.0290 -0.0790  0.0781
  121MOL0     H16314  11.320   3.605   2.939  0.9769  2.3713 -2.1139
  121MOL0     H16315  10.846   3.466   3.750  0.6257 -0.0278 -2.5520
  121MOL0     H16316  10.637   3.435   3.897  1.7242 -1.8504  1.1756
  121MOL0     H16317  10.328   3.019   3.946 -1.9031 -0.1877 -1.6396
  121MOL0     H16318  10.150   2.911   4.044  0.4898 -0.5018 -0.3526
  121MOL0     H16319   8.810   3.899   5.216 -0.3591 -0.4083  0.2971
  121MOL0     H16320   8.601   4.030   5.261 -1.2234  0.9581 -0.5975
  121MOL0     H16321   8.299   4.224   5.249  0.0521 -0.1684  0.4510
  121MOL0     H16322   8.134   4.370   5.325  0.2234  1.1914 -4.2334
  121MOL0     H16323   7.723   4.196   5.367  1.9338  0.8987  2.9048
  121MOL0     H16324   7.701   4.291   5.213 -4.6825  2.2486  1.1442
  121MOL0     H16325   7.660   4.406   5.484  1.4440  2.7326 -0.9169
  121MOL0     H16326   7.536   4.365   5.366  0.0099  1.9143  0.0524
  121MOL0     H16327   7.653   4.526   5.198 -2.3526  2.6840 -0.5525
  121MOL0     H16328   7.767   4.575   5.322 -1.4607  1.1140 -0.4577
  121MOL0     H16329   7.475   4.623   5.352  0.1196  0.2969  0.6525
  121MOL0     H16330   7.575   4.640   5.480  0.0706 -0.7551  0.1697
  121MOL0     H16331   7.611   4.989   5.215  3.2863 -0.8744 -2.7708
  121MOL0     H16332   7.832   4.101   5.195 -1.0795  1.9942  1.5203
  121MOL0     H16333   8.003   3.887   5.009  1.5135  2.6790 -0.8688
  121MOL0     H16334   8.011   3.809   5.173  0.0018  0.5064  0.7895
  121MOL0     H16335   7.862   3.897   5.117  0.6930  3.9401 -1.8260
  122MOL0     O16336   3.132  11.045   9.038 -0.4975  0.5270 -0.3875
  122MOL0     C16337   3.075  11.125   8.970  1.4798 -0.0936 -0.2365
  122MOL0     O16338   3.124  11.175   8.852 -0.6787 -0.0228  0.3585
  122MOL0     C16339   3.254  11.131   8.818  0.5642  0.4378 -0.5991
  122MOL0     C16340   3.254  11.015   8.723  0.6366  0.0014  0.5088
  122MOL0     C16341   3.370  10.965   8.671  0.1946  0.3245 -0.3477
  122MOL0     C16342   3.489  11.029   8.688 -0.2511  0.2578 -0.0719
  122MOL0     O16343   3.610  10.980   8.650  1.0924  0.3335  0.4013
  122MOL0     C16344   3.616  10.861   8.578 -0.0240 -0.0132  0.6884
  122MOL0     C16345   3.752  10.823   8.533  0.3298  0.6793  0.0907
  122MOL0     C16346   3.842  10.790   8.646 -0.6769 -0.4303  0.8512
  122MOL0     C16347   3.985  10.765   8.590 -0.4532 -0.6307 -0.7815
  122MOL0     C16348   4.077  10.719   8.703 -0.1739 -0.1954  0.6980
  122MOL0     C16349   4.141  10.837   8.771  0.6891 -0.5728 -0.0901
  122MOL0     C16350   4.234  10.773   8.883 -0.2430 -0.5263 -1.0295
  122MOL0     C16351   4.293  10.890   8.969  0.5232 -0.1086 -0.0132
  122MOL0     N16352   4.188  10.959   9.050  0.5168  0.5624 -0.4727
  122MOL0     C16353   4.135  11.079   9.023  0.3802  0.0228  0.4478
  122MOL0     C16354   4.058  11.112   9.122 -0.2101  0.3276 -0.4947
  122MOL0     C16355   3.978  11.245   9.141  0.1170 -0.0071 -0.9283
  122MOL0     C16356   3.845  11.246   9.065  0.5190  0.4543  0.0956
  122MOL0     C16357   3.748  11.163   9.150  0.5846  0.4872 -0.0855
  122MOL0     C16358   3.602  11.203   9.125 -0.4458 -0.0386 -0.4074
  122MOL0     O16359   3.588  11.329   9.196 -0.5543 -0.9556 -1.2344
  122MOL0     C16360   3.459  11.375   9.212  0.2385 -0.3705 -0.5027
  122MOL0     C16361   3.344  11.314   9.165  0.3608  0.4355 -0.0967
  122MOL0     C16362   3.223  11.378   9.170  0.0847 -0.0529 -0.5956
  122MOL0     C16363   3.206  11.504   9.232 -0.3444  0.2021 -0.1208
  122MOL0     C16364   3.071  11.565   9.232 -0.6301 -0.3812 -1.2779
  122MOL0     O16365   3.052  11.676   9.307  0.4485  0.4340  0.2510
  122MOL0     C16366   2.944  11.757   9.298  0.1064 -0.2490  0.0496
  122MOL0     C16367   2.962  11.880   9.346  0.2632 -0.8164  0.1531
  122MOL0     C16368   2.857  11.973   9.353  0.3301 -0.0208 -0.7849
  122MOL0     C16369   2.721  11.939   9.313  1.2497  0.1263 -0.6642
  122MOL0     O16370   2.607  12.026   9.329 -0.3709 -0.0125  0.4397
  122MOL0     C16371   2.541  12.005   9.458 -0.7864 -0.0113  0.3387
  122MOL0     C16372   2.394  11.963   9.429 -0.3215 -0.0692  0.1076
  122MOL0     C16373   2.315  12.043   9.337 -0.5250  0.2105  0.1578
  122MOL0     C16374   2.180  11.981   9.326  0.7845  0.3085 -0.3338
  122MOL0     C16375   2.095  12.057   9.229  0.4074  0.2552  0.6170
  122MOL0     C16376   1.941  12.024   9.253  0.3077 -0.4142 -1.4076
  122MOL0     C16377   1.924  11.870   9.233 -0.2583  0.6492 -0.4891
  122MOL0     C16378   1.788  11.819   9.282 -0.1043  0.1964  0.0406
  122MOL0    Cl16379   1.775  11.834   9.458  0.0718 -0.1496 -0.6573
  122MOL0     C16380   2.709  11.811   9.251 -0.1422  0.0669  0.3606
  122MOL0     C16381   2.812  11.721   9.248 -0.3611  0.5527 -0.3671
  122MOL0     O16382   3.004  11.534   9.141 -0.5534 -0.2361  0.3257
  122MOL0     C16383   3.324  11.566   9.288  1.3029  0.1119 -0.2173
  122MOL0     C16384   3.445  11.498   9.277 -0.0457  0.2821 -0.1050
  122MOL0     N16385   4.064  11.001   9.211  0.3652  0.3470  0.6371
  122MOL0     N16386   4.140  10.912   9.168 -0.3433  0.1774 -0.0823
  122MOL0     C16387   3.494  11.151   8.767  0.3083  0.1237  0.9872
  122MOL0     C16388   3.374  11.198   8.823  0.4992  0.5328 -0.0749
  122MOL0     C16389   2.939  11.176   9.013  0.2206 -0.8209 -0.0764
  122MOL0     C16390   2.889  11.288   8.952  0.6114 -0.6099 -0.3661
  122MOL0     C16391   2.773  11.359   9.005  0.2686  0.0553  0.3884
  122MOL0     C16392   2.702  11.302   9.106  0.2982 -0.9785  0.0513
  122MOL0     O16393   2.577  11.370   9.135  0.0364 -0.3084 -0.6547
  122MOL0     C16394   2.470  11.273   9.149 -0.3037 -0.1661  0.5139
  122MOL0     C16395   2.331  11.330   9.148  0.8699 -0.2320 -0.5267
  122MOL0     C16396   2.315  11.427   9.270 -0.0644  1.1675  0.0534
  122MOL0     C16397   2.174  11.476   9.271  0.5446 -0.4623  0.9609
  122MOL0     C16398   2.139  11.569   9.381 -0.0357 -0.4559 -0.0178
  122MOL0     C16399   2.104  11.652   9.465  0.5568  0.0938  0.0983
  122MOL0     C16400   2.745  11.184   9.166 -0.5830 -0.8873 -0.8184
  122MOL0     C16401   2.868  11.126   9.124  0.7340 -0.5747  0.0325
  122MOL0     C16402   2.916  11.024   9.226  0.4989  0.3445 -0.2306
  122MOL0     H16403   3.157  10.967   8.712  0.6287 -0.5294  2.4306
  122MOL0     H16404   3.367  10.875   8.610  0.8378 -0.3754  0.6387
  122MOL0     H16405   3.568  10.784   8.640 -0.7884 -1.9920 -2.1849
  122MOL0     H16406   3.554  10.862   8.488 -2.9808  4.8868  2.3678
  122MOL0     H16407   3.797  10.906   8.477  0.7865  0.0331 -0.5205
  122MOL0     H16408   3.748  10.737   8.466 -4.2585  0.3751  0.4866
  122MOL0     H16409   3.799  10.698   8.686 -1.2393 -0.3320  0.4737
  122MOL0     H16410   3.838  10.870   8.720  0.8641  1.0637 -0.5836
  122MOL0     H16411   3.980  10.683   8.518 -0.4177  0.6879 -2.3206
  122MOL0     H16412   4.021  10.859   8.548 -3.6059 -0.4580 -3.4853
  122MOL0     H16413   4.029  10.651   8.773  0.4267 -0.7995  0.5337
  122MOL0     H16414   4.164  10.668   8.661  1.1876  0.5033  2.5100
  122MOL0     H16415   4.212  10.894   8.711  0.4468  0.5984  0.6842
  122MOL0     H16416   4.071  10.910   8.812  1.0859 -0.9023  1.2289
  122MOL0     H16417   4.315  10.721   8.831  1.4557 -0.1738  1.1270
  122MOL0     H16418   4.179  10.704   8.946 -1.1332  3.0149  2.4602
  122MOL0     H16419   4.365  10.853   9.042  0.0218 -0.5734  0.2545
  122MOL0     H16420   4.347  10.964   8.909  1.4935 -1.1078 -0.3983
  122MOL0     H16421   4.153  11.136   8.932 -3.6205  1.4129  0.3485
  122MOL0     H16422   3.955  11.259   9.247  0.7727  0.7720 -0.8781
  122MOL0     H16423   4.044  11.327   9.111  1.3896 -1.2454 -1.6371
  122MOL0     H16424   3.811  11.350   9.075  2.5478  1.1291  0.3136
  122MOL0     H16425   3.857  11.209   8.964 -0.4555  1.7689 -0.5465
  122MOL0     H16426   3.766  11.157   9.258  2.4419  0.2905 -0.3710
  122MOL0     H16427   3.768  11.059   9.121 -2.2301  0.5518 -2.7924
  122MOL0     H16428   3.535  11.129   9.168 -0.2363  0.1072  0.1720
  122MOL0     H16429   3.590  11.211   9.016  1.1890 -2.6031 -0.8808
  122MOL0     H16430   3.345  11.218   9.114  1.6249  0.9105 -1.0215
  122MOL0     H16431   3.140  11.321   9.129 -0.6587 -0.4963  1.4235
  122MOL0     H16432   3.058  11.903   9.392  0.6901 -2.3866  0.0937
  122MOL0     H16433   2.886  12.066   9.401  3.7586  1.1531 -4.5792
  122MOL0     H16434   2.579  11.927   9.524 -0.0208 -1.9867 -2.2726
  122MOL0     H16435   2.555  12.099   9.513 -1.8785  1.0990 -1.1726
  122MOL0     H16436   2.395  11.861   9.390  1.7779 -0.2590  0.5073
  122MOL0     H16437   2.343  11.963   9.526 -1.6082 -0.7308 -0.5485
  122MOL0     H16438   2.306  12.146   9.373  0.9263  0.2413  0.5097
  122MOL0     H16439   2.368  12.048   9.241 -2.3858 -0.5053 -0.9687
  122MOL0     H16440   2.124  11.980   9.419  2.5011 -3.2885  0.8250
  122MOL0     H16441   2.200  11.880   9.289  2.8977  0.7091 -0.4169
  122MOL0     H16442   2.117  12.022   9.128 -0.9963 -0.4291  0.5388
  122MOL0     H16443   2.132  12.159   9.248  3.5009 -0.8821  1.2904
  122MOL0     H16444   1.902  12.049   9.352 -1.0215  2.2856 -2.4913
  122MOL0     H16445   1.873  12.087   9.194 -0.5580 -1.0534 -1.1055
  122MOL0     H16446   2.008  11.823   9.286  0.0899  3.5073  1.7555
  122MOL0     H16447   1.920  11.852   9.125 -1.3170  1.3778 -0.5915
  122MOL0     H16448   1.697  11.864   9.240 -1.2684  1.3944  3.4504
  122MOL0     H16449   1.785  11.713   9.256  0.6238  0.1150  0.2521
  122MOL0     H16450   2.613  11.781   9.212  0.6289 -2.6355  0.3593
  122MOL0     H16451   2.798  11.623   9.203  4.3175 -2.6278  3.9870
  122MOL0     H16452   3.317  11.662   9.336  0.4219 -1.9976  4.4472
  122MOL0     H16453   3.530  11.555   9.316  0.3090  0.2936 -0.8738
  122MOL0     H16454   3.587  11.205   8.775  0.3154  0.2008  0.4155
  122MOL0     H16455   3.369  11.297   8.868  0.4627 -0.1829  1.5364
  122MOL0     H16456   2.941  11.338   8.870 -1.1601 -0.1491 -1.2659
  122MOL0     H16457   2.733  11.447   8.954  0.0446  0.3005  0.9812
  122MOL0     H16458   2.481  11.220   9.244  4.9695  2.9912  2.0469
  122MOL0     H16459   2.478  11.202   9.066 -0.1613  1.0337 -0.5345
  122MOL0     H16460   2.265  11.245   9.168 -0.2144  0.7851  0.3759
  122MOL0     H16461   2.298  11.368   9.051  0.8357 -2.9099 -1.6516
  122MOL0     H16462   2.383  11.511   9.253  1.5086 -0.3764 -1.7739
  122MOL0     H16463   2.334  11.383   9.369 -1.2049  1.3177  0.3565
  122MOL0     H16464   2.151  11.533   9.180  3.2028 -1.8629 -0.7315
  122MOL0     H16465   2.104  11.394   9.285 -1.1148  0.5758 -0.7726
  122MOL0     H16466   2.064  11.708   9.546 -1.4046  2.8160 -2.5320
  122MOL0     H16467   2.687  11.142   9.247  1.1497 -0.5738  0.6315
  122MOL0     H16468   2.835  10.953   9.248  1.2663 -1.7372 -3.4483
  122MOL0     H16469   2.982  10.950   9.180  1.0767  0.8084 -0.1457
  122MOL0     H16470   2.959  11.077   9.311 -0.8876  3.4089 -1.2981
  123MOL0     O16471   4.520  10.305  10.792 -0.3172 -0.1830  0.2025
  123MOL0     C16472   4.425  10.353  10.736  0.7538  0.8056  0.1358
  123MOL0     O16473   4.397  10.489  10.719  0.0630 -0.2533  0.1648
  123MOL0     C16474   4.488  10.581  10.774  0.7055 -0.7210  0.0539
  123MOL0     C16475   4.455  10.673  10.886 -0.1401 -0.1510  0.4737
  123MOL0     C16476   4.545  10.771  10.925  0.8868 -0.5761  0.0903
  123MOL0     C16477   4.658  10.793  10.850  0.7110 -0.2567 -0.1678
  123MOL0     O16478   4.728  10.903  10.895  0.2452 -0.1267 -0.1605
  123MOL0     C16479   4.865  10.902  10.863  0.1451 -0.2454  0.1077
  123MOL0     C16480   4.937  11.024  10.917 -0.0358  0.3991 -0.5655
  123MOL0     C16481   4.883  11.148  10.854  0.4120  0.6959  0.1517
  123MOL0     C16482   4.927  11.284  10.904 -0.2423  0.0340 -0.2345
  123MOL0     C16483   4.916  11.385  10.780  0.5293 -0.3167  0.6112
  123MOL0     C16484   4.928  11.527  10.813  0.5742  0.0318 -0.4769
  123MOL0     C16485   4.944  11.621  10.703 -0.4539 -0.2531  0.1330
  123MOL0     C16486   5.068  11.579  10.614 -0.8189  0.2162 -0.1186
  123MOL0     N16487   5.179  11.551  10.700 -0.7775  1.5462 -0.5891
  123MOL0     C16488   5.247  11.646  10.771 -0.5063  0.6757  0.7962
  123MOL0     C16489   5.358  11.578  10.818  0.3693  0.1946 -0.3479
  123MOL0     C16490   5.463  11.636  10.906  0.6798  0.3142  0.6988
  123MOL0     C16491   5.467  11.528  11.027  1.0000 -0.8487  0.4668
  123MOL0     C16492   5.555  11.570  11.153 -0.3932 -0.1943  0.5771
  123MOL0     C16493   5.707  11.579  11.128  0.6044 -0.0205 -0.4594
  123MOL0     O16494   5.775  11.636  11.246 -0.3214  0.0340 -0.0913
  123MOL0     C16495   5.906  11.602  11.258 -0.5139  0.9257  0.2179
  123MOL0     C16496   6.002  11.585  11.153 -0.0159 -0.6401  0.7130
  123MOL0     C16497   6.134  11.550  11.169 -0.6221  0.3674 -0.2822
  123MOL0     C16498   6.192  11.541  11.295  0.6082  0.5456 -0.4627
  123MOL0     C16499   6.329  11.505  11.321 -0.3424 -0.2153 -0.4539
  123MOL0     O16500   6.407  11.528  11.219  0.5310  0.2191  0.6875
  123MOL0     C16501   6.540  11.513  11.234 -0.5165  0.3772  0.0168
  123MOL0     C16502   6.629  11.472  11.124  1.0336 -0.1819 -0.6737
  123MOL0     C16503   6.768  11.458  11.139  0.4772  0.8960  0.3978
  123MOL0     C16504   6.824  11.486  11.258  0.2868 -0.0624  0.1032
  123MOL0     O16505   6.962  11.477  11.281  0.5505 -0.0807  0.0570
  123MOL0     C16506   6.999  11.346  11.301  0.1382  0.2547  0.6150
  123MOL0     C16507   7.101  11.325  11.411 -0.4050 -0.0883  0.7739
  123MOL0     C16508   7.230  11.397  11.394 -0.1927  0.1744  0.6874
  123MOL0     C16509   7.328  11.328  11.298  0.1057 -0.1759 -0.0254
  123MOL0     C16510   7.436  11.432  11.237  0.9281 -0.2522  0.7403
  123MOL0     C16511   7.554  11.442  11.328 -0.3213 -0.3660 -0.0748
  123MOL0     C16512   7.669  11.525  11.262  0.3967  0.3898 -0.1087
  123MOL0     C16513   7.749  11.435  11.164 -0.3008  0.3055 -0.1171
  123MOL0    Cl16514   7.897  11.506  11.116  0.0277 -0.3684  0.1382
  123MOL0     C16515   6.746  11.539  11.362  0.1313  0.4183  0.4140
  123MOL0     C16516   6.608  11.547  11.355 -0.3490  0.2850  0.3517
  123MOL0     O16517   6.355  11.440  11.423  0.3663  0.3141  0.4444
  123MOL0     C16518   6.104  11.561  11.406 -0.1549 -0.1175  0.4182
  123MOL0     C16519   5.966  11.592  11.385  0.6128  0.4105 -1.4131
  123MOL0     N16520   5.350  11.448  10.779  0.2680 -0.8488  0.2942
  123MOL0     N16521   5.243  11.427  10.711  0.3050 -0.3240  0.5431
  123MOL0     C16522   4.685  10.717  10.736 -0.6521 -0.5332  0.0618
  123MOL0     C16523   4.603  10.607  10.699  0.0741  0.0497 -0.2944
  123MOL0     C16524   4.321  10.255  10.693  0.6208 -0.2594  0.1879
  123MOL0     C16525   4.251  10.298  10.579  0.5370 -0.7224 -0.2686
  123MOL0     C16526   4.149  10.229  10.511 -0.0840 -0.1983  0.4698
  123MOL0     C16527   4.110  10.110  10.561 -1.0536  0.5330  0.1634
  123MOL0     O16528   4.011  10.033  10.512 -1.1176 -0.0504 -0.0710
  123MOL0     C16529   3.930  10.058  10.392 -1.1157 -0.7600 -0.4801
  123MOL0     C16530   4.008  10.034  10.260  0.8073  0.7591  0.5779
  123MOL0     C16531   3.941  10.116  10.153 -1.1184  0.6105  0.3963
  123MOL0     C16532   4.012  10.102  10.015  1.3128 -0.6521 -0.0056
  123MOL0     C16533   4.136  10.170  10.007  0.5129 -0.8803 -0.8249
  123MOL0     C16534   4.241  10.234  10.009 -0.4712 -0.2753 -0.3968
  123MOL0     C16535   4.189  10.059  10.675 -1.0115  0.6486 -0.2398
  123MOL0     C16536   4.287  10.129  10.751 -0.0103 -0.6534  0.3981
  123MOL0     C16537   4.343  10.085  10.879 -0.8692  0.5796 -0.6697
  123MOL0     H16538   4.361  10.652  10.936 -1.6297  4.3711  0.0849
  123MOL0     H16539   4.514  10.844  10.999 -1.7655 -1.0901 -0.3987
  123MOL0     H16540   4.915  10.810  10.894  2.2020  1.0383  0.7783
  123MOL0     H16541   4.872  10.902  10.754  1.8848 -0.1851  0.2008
  123MOL0     H16542   5.042  11.015  10.891 -0.1784 -2.2897 -0.5050
  123MOL0     H16543   4.937  11.029  11.026  0.5297 -0.8800 -0.4802
  123MOL0     H16544   4.774  11.145  10.855  0.4031  0.8417 -0.1977
  123MOL0     H16545   4.906  11.140  10.747  2.8724  2.6490  0.4628
  123MOL0     H16546   4.862  11.316  10.986 -0.9297  1.0664 -1.1417
  123MOL0     H16547   5.031  11.289  10.937 -1.3798  1.4778  3.7066
  123MOL0     H16548   4.988  11.360  10.701  1.6841  2.9827  0.4637
  123MOL0     H16549   4.819  11.373  10.730  0.6545  1.6254 -0.1565
  123MOL0     H16550   4.841  11.561  10.870  0.2288 -0.4848 -0.6878
  123MOL0     H16551   5.001  11.548  10.892 -0.2140  3.7913 -0.5431
  123MOL0     H16552   4.965  11.714  10.756 -2.6833 -0.4852  1.5848
  123MOL0     H16553   4.850  11.624  10.647 -1.8056  0.4867  2.3229
  123MOL0     H16554   5.053  11.489  10.553  5.2131 -2.1261  1.0818
  123MOL0     H16555   5.112  11.658  10.553  2.0327 -0.1248  1.2942
  123MOL0     H16556   5.200  11.743  10.781 -0.8038  1.0215 -2.8414
  123MOL0     H16557   5.555  11.635  10.846  1.1445 -0.1205  1.3897
  123MOL0     H16558   5.441  11.733  10.952  0.8533  0.1085  1.2334
  123MOL0     H16559   5.366  11.505  11.064  0.8455  0.3358  0.8192
  123MOL0     H16560   5.509  11.436  10.984  2.4614  0.8581 -1.9916
  123MOL0     H16561   5.560  11.496  11.234  0.9233  0.1918  0.8760
  123MOL0     H16562   5.519  11.661  11.201  0.7051 -0.9588  3.0377
  123MOL0     H16563   5.724  11.649  11.046  1.4792 -0.0190 -0.2878
  123MOL0     H16564   5.740  11.475  11.120  1.7752  0.3680 -0.8237
  123MOL0     H16565   5.967  11.602  11.052 -0.1841  1.7526  1.1101
  123MOL0     H16566   6.192  11.546  11.076 -3.2117  2.9463 -2.1839
  123MOL0     H16567   6.574  11.445  11.034 -4.1802 -1.2599  2.3850
  123MOL0     H16568   6.829  11.411  11.063  0.5834  1.7132 -0.0245
  123MOL0     H16569   6.914  11.284  11.332  0.3650 -1.3906 -1.7807
  123MOL0     H16570   7.028  11.295  11.209 -1.4451  2.7894 -1.4473
  123MOL0     H16571   7.050  11.357  11.502  0.2355 -0.8930  1.4294
  123MOL0     H16572   7.128  11.220  11.419 -0.0232 -0.2144 -1.4404
  123MOL0     H16573   7.205  11.500  11.367 -0.1359  1.1449  3.8778
  123MOL0     H16574   7.279  11.404  11.492  0.4187  2.7465  0.2668
  123MOL0     H16575   7.267  11.280  11.220  0.9693  2.0577 -2.2030
  123MOL0     H16576   7.383  11.246  11.345  0.5645  0.1225 -0.0455
  123MOL0     H16577   7.388  11.529  11.227  1.4515 -0.0068  0.5742
  123MOL0     H16578   7.472  11.399  11.140 -0.2939 -0.9363  0.5013
  123MOL0     H16579   7.516  11.484  11.422 -0.5437  1.6493 -1.0233
  123MOL0     H16580   7.585  11.342  11.360 -0.6634 -0.7401 -0.8913
  123MOL0     H16581   7.746  11.556  11.333  3.1142 -2.9798 -1.3364
  123MOL0     H16582   7.622  11.609  11.210 -0.2950 -0.2544 -0.5446
  123MOL0     H16583   7.782  11.342  11.212 -1.5219  0.0185  0.1816
  123MOL0     H16584   7.688  11.411  11.076 -0.2700  0.9878 -0.3296
  123MOL0     H16585   6.804  11.567  11.449 -0.1758 -0.8449  1.0595
  123MOL0     H16586   6.539  11.580  11.433 -3.6680 -0.1680 -2.1604
  123MOL0     H16587   6.150  11.561  11.504 -0.1880  1.4435  0.4602
  123MOL0     H16588   5.911  11.619  11.475 -0.3916 -1.6191 -1.3612
  123MOL0     H16589   4.766  10.745  10.670 -0.1532  1.5080  1.4417
  123MOL0     H16590   4.617  10.552  10.606 -0.4640  0.5417 -0.6808
  123MOL0     H16591   4.278  10.394  10.535 -0.7927 -1.0250 -1.8144
  123MOL0     H16592   4.120  10.272  10.416  0.0180  1.9606  1.3665
  123MOL0     H16593   3.891  10.159  10.406 -1.8729 -1.3266  2.2849
  123MOL0     H16594   3.838   9.999  10.394 -2.1386  0.6629 -2.5860
  123MOL0     H16595   4.016   9.928  10.232  0.7267  0.4523  1.6372
  123MOL0     H16596   4.112  10.068  10.266  0.9797  0.3574 -0.0577
  123MOL0     H16597   3.949  10.221  10.183  0.5413  0.4812  0.5283
  123MOL0     H16598   3.835  10.089  10.157 -0.6256 -1.7936 -0.8169
  123MOL0     H16599   4.035   9.999   9.986 -0.1183 -0.0749 -3.8202
  123MOL0     H16600   3.950  10.138   9.932  0.7256 -0.9859  0.2830
  123MOL0     H16601   4.332  10.290  10.017 -0.7047  0.1328 -0.5731
  123MOL0     H16602   4.184   9.954  10.702  1.6094  0.1193 -1.4226
  123MOL0     H16603   4.443  10.041  10.882 -1.1062  0.0574  1.8014
  123MOL0     H16604   4.349  10.164  10.954  3.5226 -0.1320 -0.0258
  123MOL0     H16605   4.272  10.015  10.925 -1.6594  2.2454  0.7865
  124MOL0     O16606   9.852   0.341   4.875  0.6058  0.2040 -0.0724
  124MOL0     C16607   9.922   0.246   4.905 -0.3779 -0.3288  0.8407
  124MOL0     O16608   9.877   0.119   4.925 -0.8002  0.3356  0.4461
  124MOL0     C16609   9.746   0.085   4.954  0.4425 -0.4424 -0.0081
  124MOL0     C16610   9.650   0.176   5.011  1.0540 -1.0008  0.2196
  124MOL0     C16611   9.522   0.131   5.038 -0.3685  0.5082  0.5787
  124MOL0     C16612   9.483  -0.004   5.005  1.2986  0.1080 -0.4194
  124MOL0     O16613   9.355  -0.055   5.010 -0.7549 -0.8974 -0.0913
  124MOL0     C16614   9.250   0.023   4.958 -0.7633  0.3837 -0.1766
  124MOL0     C16615   9.113  -0.042   4.951  0.5956  0.2263  0.0514
  124MOL0     C16616   9.015   0.056   4.878 -0.4269  0.0862  0.1358
  124MOL0     C16617   8.867   0.041   4.916 -0.3036 -0.0189 -0.5295
  124MOL0     C16618   8.770   0.097   4.820  0.0462 -0.4821 -0.0753
  124MOL0     C16619   8.637   0.035   4.828 -0.5165  0.2365 -0.0365
  124MOL0     C16620   8.615  -0.101   4.769  0.2576  0.3551  0.7776
  124MOL0     C16621   8.696  -0.116   4.640 -0.0451  0.5489 -0.3975
  124MOL0     N16622   8.657  -0.238   4.565 -0.3587  0.1088 -1.0559
  124MOL0     C16623   8.546  -0.248   4.482 -0.8232 -0.0293  0.4406
  124MOL0     C16624   8.550  -0.373   4.421  0.9480 -0.3575 -0.1153
  124MOL0     C16625   8.463  -0.422   4.313  0.2119  0.1447  0.4476
  124MOL0     C16626   8.319  -0.401   4.357  1.1265 -0.4977 -0.7158
  124MOL0     C16627   8.227  -0.489   4.277 -0.2226  0.7236 -0.0389
  124MOL0     C16628   8.081  -0.518   4.339  0.4517 -0.7864  0.5219
  124MOL0     O16629   8.092  -0.589   4.466 -0.1162  0.3160  0.0917
  124MOL0     C16630   7.978  -0.633   4.523 -0.3858 -0.0362  0.2100
  124MOL0     C16631   7.886  -0.705   4.446 -0.5597  0.0947  0.5042
  124MOL0     C16632   7.768  -0.754   4.499  0.1922 -0.3520 -0.0151
  124MOL0     C16633   7.745  -0.734   4.636  0.6417  0.8829  0.0133
  124MOL0     C16634   7.620  -0.780   4.703  0.1483  0.3296  0.0587
  124MOL0     O16635   7.532  -0.843   4.623 -0.2096 -0.1218 -0.2419
  124MOL0     C16636   7.419  -0.893   4.683 -0.0281  0.2049  0.3888
  124MOL0     C16637   7.295  -0.841   4.643 -0.0889  0.4415 -1.0868
  124MOL0     C16638   7.178  -0.895   4.698 -0.6728 -2.0596  0.4707
  124MOL0     C16639   7.181  -0.990   4.792 -0.9014 -0.5107 -1.3206
  124MOL0     O16640   7.071  -1.037   4.856 -0.0290 -0.2540 -0.1916
  124MOL0     C16641   7.055  -1.180   4.840  0.0216 -0.2453 -0.9023
  124MOL0     C16642   7.077  -1.257   4.976  0.1083  0.5286  0.5542
  124MOL0     C16643   6.943  -1.318   5.027 -0.1544  0.2690  0.2320
  124MOL0     C16644   6.861  -1.250   5.137 -0.9699  0.9759 -0.9237
  124MOL0     C16645   6.744  -1.344   5.187 -0.2351 -0.0603 -0.0053
  124MOL0     C16646   6.665  -1.289   5.301 -0.2958  0.4861 -0.6291
  124MOL0     C16647   6.585  -1.398   5.376 -0.0546 -0.4352 -0.2032
  124MOL0     C16648   6.448  -1.346   5.409 -0.7388 -0.0085  0.3981
  124MOL0    Cl16649   6.469  -1.216   5.527 -0.3187 -0.0155  0.4508
  124MOL0     C16650   7.306  -1.038   4.832 -0.2205  0.3140  0.0877
  124MOL0     C16651   7.425  -0.991   4.784  0.4067  0.2017  0.6525
  124MOL0     O16652   7.591  -0.737   4.815 -0.3503 -0.4282 -0.3085
  124MOL0     C16653   7.840  -0.665   4.720  0.6261 -0.0037 -0.1739
  124MOL0     C16654   7.956  -0.617   4.657  1.4938  0.0630  0.8583
  124MOL0     N16655   8.669  -0.433   4.459  0.8796  0.2344  0.4285
  124MOL0     N16656   8.723  -0.358   4.547  0.3429 -0.8219 -0.2356
  124MOL0     C16657   9.577  -0.097   4.962 -0.6818 -0.6255 -0.7447
  124MOL0     C16658   9.711  -0.053   4.951 -0.4412  0.0917 -0.8307
  124MOL0     C16659  10.074   0.263   4.894 -0.6245  0.1758  0.1136
  124MOL0     C16660  10.160   0.164   4.956  0.0274 -0.4906  0.4771
  124MOL0     C16661  10.300   0.175   4.972 -0.1718 -0.2485  0.2961
  124MOL0     C16662  10.367   0.282   4.914  0.0128 -0.2735 -0.0299
  124MOL0     O16663  10.506   0.289   4.925 -0.3211  0.5700 -1.0306
  124MOL0     C16664  10.578   0.392   4.856  0.6622  0.9768 -0.2713
  124MOL0     C16665  10.544   0.535   4.911 -0.3104  0.4317 -0.5278
  124MOL0     C16666  10.670   0.620   4.929  0.2323  0.2414  0.3905
  124MOL0     C16667  10.642   0.747   5.015 -0.1712 -0.3781 -0.4880
  124MOL0     C16668  10.736   0.863   5.006 -0.3133  0.1746  0.5323
  124MOL0     C16669  10.798   0.965   4.989  0.2992  0.4232  0.4010
  124MOL0     C16670  10.288   0.380   4.845  1.0232 -0.7589 -0.6003
  124MOL0     C16671  10.146   0.366   4.833 -0.4183 -0.1427 -0.6250
  124MOL0     C16672  10.075   0.477   4.766  0.0591 -0.9362 -0.3783
  124MOL0     H16673   9.662   0.282   5.031  0.5385 -0.7310 -0.8745
  124MOL0     H16674   9.450   0.202   5.075 -2.6297  0.0316 -2.4763
  124MOL0     H16675   9.246   0.110   5.025  2.8383  0.0058  0.7247
  124MOL0     H16676   9.272   0.064   4.859 -0.4582  0.2750 -0.1567
  124MOL0     H16677   9.076  -0.050   5.054  0.0004  2.9161  0.1209
  124MOL0     H16678   9.119  -0.140   4.904 -0.4194 -0.9892  2.2970
  124MOL0     H16679   9.030   0.041   4.770  4.0979  0.1117  0.5827
  124MOL0     H16680   9.043   0.158   4.904 -0.8614 -0.2048  1.8515
  124MOL0     H16681   8.854  -0.067   4.932  0.3081  0.1519  1.4450
  124MOL0     H16682   8.844   0.099   5.006  3.7544  1.2901 -0.1444
  124MOL0     H16683   8.759   0.198   4.860  0.6372 -0.9650  1.3510
  124MOL0     H16684   8.815   0.113   4.722 -1.8387  0.7518 -0.8113
  124MOL0     H16685   8.605   0.021   4.932 -0.6386  0.0137 -0.1041
  124MOL0     H16686   8.567   0.108   4.786 -0.9899  1.6057  2.8195
  124MOL0     H16687   8.510  -0.112   4.739  0.3340  3.7401 -1.2833
  124MOL0     H16688   8.646  -0.182   4.836  2.0291  0.3807  0.0267
  124MOL0     H16689   8.671  -0.022   4.589  1.1101  0.4998 -1.0901
  124MOL0     H16690   8.801  -0.126   4.667 -1.1616 -2.4750  3.7436
  124MOL0     H16691   8.482  -0.167   4.448  0.0020 -0.3971 -2.1805
  124MOL0     H16692   8.492  -0.373   4.220 -1.9070  0.1823 -0.2613
  124MOL0     H16693   8.477  -0.529   4.299 -1.6081 -0.5405  3.0229
  124MOL0     H16694   8.314  -0.432   4.461 -0.2502  2.3618  0.1718
  124MOL0     H16695   8.285  -0.298   4.342 -1.2907 -1.3710 -1.5778
  124MOL0     H16696   8.267  -0.591   4.278 -0.6649  0.5396  1.4585
  124MOL0     H16697   8.233  -0.449   4.175  0.0540  2.7021  0.7080
  124MOL0     H16698   8.019  -0.575   4.269 -2.8656  0.0538  2.5444
  124MOL0     H16699   8.024  -0.427   4.358 -0.8374 -1.5672  0.5527
  124MOL0     H16700   7.906  -0.725   4.341  1.5804 -0.0828  0.9027
  124MOL0     H16701   7.700  -0.815   4.441 -2.9896  0.2730  2.7124
  124MOL0     H16702   7.286  -0.759   4.572 -1.8315  0.5809 -0.7527
  124MOL0     H16703   7.091  -0.844   4.657  3.7751  3.4917 -3.8399
  124MOL0     H16704   6.956  -1.201   4.798 -1.4612  1.7246  1.2848
  124MOL0     H16705   7.126  -1.220   4.768  1.7609 -1.4242  1.3455
  124MOL0     H16706   7.131  -1.347   4.944  0.5964  0.4165  1.6371
  124MOL0     H16707   7.134  -1.187   5.038  0.5745  2.1026 -1.5532
  124MOL0     H16708   6.878  -1.351   4.946  0.4594  0.6133 -0.4070
  124MOL0     H16709   6.962  -1.412   5.080 -1.9526  0.8543  2.0783
  124MOL0     H16710   6.826  -1.156   5.093  0.7862  0.7138 -3.0921
  124MOL0     H16711   6.922  -1.223   5.223  0.4558 -0.8493 -1.2918
  124MOL0     H16712   6.792  -1.441   5.207 -1.0679 -1.1169 -2.6135
  124MOL0     H16713   6.668  -1.357   5.109  0.6798  1.8274 -1.2875
  124MOL0     H16714   6.721  -1.216   5.360 -1.7128  0.8581  0.3181
  124MOL0     H16715   6.591  -1.223   5.253 -1.5983 -0.1729  0.4197
  124MOL0     H16716   6.634  -1.431   5.468 -3.2367  2.5437  2.8885
  124MOL0     H16717   6.566  -1.489   5.319 -1.4280 -0.5314  0.3725
  124MOL0     H16718   6.385  -1.312   5.326 -0.6653  0.6512  0.6081
  124MOL0     H16719   6.400  -1.432   5.456 -3.1914  0.8591 -0.3968
  124MOL0     H16720   7.307  -1.123   4.899 -1.1737 -0.4914 -0.8828
  124MOL0     H16721   7.520  -1.035   4.811  0.3603  0.5359  1.4022
  124MOL0     H16722   7.814  -0.640   4.822 -2.0225 -0.8161 -0.5808
  124MOL0     H16723   8.022  -0.557   4.720  3.9970 -0.6371 -0.9497
  124MOL0     H16724   9.558  -0.201   4.937 -0.1553 -0.8417 -0.2693
  124MOL0     H16725   9.782  -0.130   4.923  0.0204 -0.4681  1.6183
  124MOL0     H16726  10.115   0.074   4.997  0.7725 -0.6636  0.9380
  124MOL0     H16727  10.362   0.101   5.022 -0.1440  0.1209  0.8131
  124MOL0     H16728  10.562   0.374   4.749 -0.1738 -1.4663  0.1955
  124MOL0     H16729  10.683   0.366   4.868  0.4493  1.4591  4.0691
  124MOL0     H16730  10.492   0.521   5.006  1.0252 -1.7765 -0.0416
  124MOL0     H16731  10.495   0.602   4.840  1.1321  3.0836  0.8707
  124MOL0     H16732  10.714   0.647   4.832 -0.4169  0.9780  0.2905
  124MOL0     H16733  10.742   0.562   4.987 -1.8690 -0.5115  2.3909
  124MOL0     H16734  10.545   0.791   4.989  0.5007  0.1787 -2.1662
  124MOL0     H16735  10.642   0.719   5.121  1.1303 -1.4785 -0.7605
  124MOL0     H16736  10.842   1.062   4.977 -0.9750  0.7603 -2.1143
  124MOL0     H16737  10.319   0.476   4.805 -2.8499  1.5073  1.2997
  124MOL0     H16738  10.016   0.448   4.679 -0.0874 -0.6372 -0.3806
  124MOL0     H16739  10.007   0.528   4.834  0.5286  1.2968 -1.4921
  124MOL0     H16740  10.140   0.554   4.724 -1.6218 -0.0805 -1.5498
  125MOL0     O16741   3.386   8.894   1.532  0.9795  0.8682  1.1206
  125MOL0     C16742   3.436   8.795   1.576  0.2418  0.8697  0.3243
  125MOL0     O16743   3.484   8.776   1.706  0.1841 -0.2034  0.0051
  125MOL0     C16744   3.483   8.877   1.799 -0.4503 -0.3411  0.5525
  125MOL0     C16745   3.511   8.830   1.931 -0.5199 -0.0285 -0.2275
  125MOL0     C16746   3.508   8.914   2.040 -0.6153 -1.2297  0.1608
  125MOL0     C16747   3.489   9.053   2.012  0.6393  0.2008 -0.4031
  125MOL0     O16748   3.478   9.156   2.112 -0.2066  0.7599  0.0220
  125MOL0     C16749   3.527   9.129   2.242  0.1508  0.7295 -0.0642
  125MOL0     C16750   3.555   9.258   2.322 -0.1012  0.0302 -0.7647
  125MOL0     C16751   3.629   9.368   2.254  0.0667 -0.1733 -0.6315
  125MOL0     C16752   3.656   9.487   2.340  0.0447  0.6373 -1.5518
  125MOL0     C16753   3.762   9.446   2.455 -0.9213  0.1743  0.9315
  125MOL0     C16754   3.893   9.377   2.415 -0.8168  0.8384  0.2679
  125MOL0     C16755   3.995   9.389   2.524 -0.0673 -0.4255 -0.4776
  125MOL0     C16756   3.955   9.318   2.653 -1.0340 -0.2206  0.6328
  125MOL0     N16757   3.932   9.174   2.656  0.2806  0.6392  0.3168
  125MOL0     C16758   3.999   9.069   2.595  0.1526 -0.0361  0.3647
  125MOL0     C16759   3.913   8.964   2.622  0.0435 -0.3850  0.0706
  125MOL0     C16760   3.936   8.811   2.589 -0.1077 -0.5634  0.2897
  125MOL0     C16761   3.850   8.794   2.456  0.4185  0.4945 -0.0874
  125MOL0     C16762   3.706   8.723   2.477 -0.2987 -0.1297  0.3961
  125MOL0     C16763   3.622   8.714   2.347 -0.2118  0.9432 -0.2196
  125MOL0     O16764   3.699   8.663   2.233  0.0424 -0.2279 -0.3835
  125MOL0     C16765   3.668   8.532   2.201  0.3535  0.0721 -0.6448
  125MOL0     C16766   3.780   8.449   2.191 -0.2016  0.0445  0.2874
  125MOL0     C16767   3.771   8.306   2.171  0.4049  0.3529  0.5895
  125MOL0     C16768   3.643   8.251   2.161 -0.7588 -0.2406  0.7542
  125MOL0     C16769   3.624   8.106   2.133 -0.2546  0.0467  0.3916
  125MOL0     O16770   3.737   8.028   2.124  0.9450 -0.2564 -0.2843
  125MOL0     C16771   3.739   7.907   2.060  0.5981 -1.4605  0.2821
  125MOL0     C16772   3.831   7.894   1.956 -0.5646 -0.0907 -0.5713
  125MOL0     C16773   3.830   7.787   1.876  0.1388  0.5195  0.0261
  125MOL0     C16774   3.742   7.680   1.901  0.1465  1.2979  0.5679
  125MOL0     O16775   3.738   7.562   1.825  0.1714 -0.9545 -0.8598
  125MOL0     C16776   3.862   7.523   1.757  0.3113 -0.5851 -0.1212
  125MOL0     C16777   3.966   7.490   1.865 -0.2270  0.1955 -0.8690
  125MOL0     C16778   4.097   7.435   1.809 -0.1577  0.0930  0.3882
  125MOL0     C16779   4.191   7.551   1.753 -0.1654  0.6997 -0.4074
  125MOL0     C16780   4.293   7.597   1.866  0.4829 -0.0758  0.2627
  125MOL0     C16781   4.321   7.746   1.832 -0.2664 -0.7940 -0.6797
  125MOL0     C16782   4.419   7.797   1.937 -0.3485 -0.2882  0.3256
  125MOL0     C16783   4.437   7.951   1.938 -0.6764 -0.7038 -0.4493
  125MOL0    Cl16784   4.280   8.048   1.951 -0.0636  0.2820  0.0180
  125MOL0     C16785   3.645   7.693   2.002 -0.5877  0.6584 -1.0139
  125MOL0     C16786   3.644   7.808   2.080 -0.1934  0.1462  0.9299
  125MOL0     O16787   3.508   8.073   2.095 -0.6399  0.8749 -0.7575
  125MOL0     C16788   3.532   8.339   2.164 -0.7573  0.5951  0.2647
  125MOL0     C16789   3.543   8.475   2.189 -0.3847  0.3751 -0.9734
  125MOL0     N16790   3.802   9.012   2.690 -0.4350  0.4988  0.5701
  125MOL0     N16791   3.822   9.139   2.723  0.1694 -0.4605  0.2787
  125MOL0     C16792   3.484   9.101   1.880  0.0022  0.1143 -0.2695
  125MOL0     C16793   3.469   9.015   1.773  0.8696  0.0270  0.3404
  125MOL0     C16794   3.457   8.675   1.488  0.5078  0.9135 -0.1702
  125MOL0     C16795   3.569   8.589   1.499  0.2877  0.1993  0.4270
  125MOL0     C16796   3.596   8.487   1.412 -0.0461 -0.4073  0.2748
  125MOL0     C16797   3.506   8.455   1.315  0.3492 -0.2512  0.0842
  125MOL0     O16798   3.527   8.353   1.222 -0.0547 -0.5266 -0.2058
  125MOL0     C16799   3.641   8.369   1.134 -0.1023  0.5769 -0.0830
  125MOL0     C16800   3.612   8.302   1.001 -1.0142  0.0146 -0.5339
  125MOL0     C16801   3.556   8.154   1.014  0.0556 -0.8144  1.2664
  125MOL0     C16802   3.497   8.123   0.870 -0.4150  0.9079 -0.5323
  125MOL0     C16803   3.463   7.978   0.866 -0.4487  1.4425 -0.2086
  125MOL0     C16804   3.434   7.860   0.842 -0.0863 -0.7465  0.2482
  125MOL0     C16805   3.392   8.528   1.303 -0.0928 -1.0199  1.1227
  125MOL0     C16806   3.359   8.633   1.391 -0.2680  0.3277 -0.3137
  125MOL0     C16807   3.234   8.707   1.365  0.0709  0.0840 -0.7979
  125MOL0     H16808   3.542   8.728   1.954 -0.8127 -0.3333 -1.1489
  125MOL0     H16809   3.502   8.873   2.140 -1.3165  0.0714  0.6677
  125MOL0     H16810   3.456   9.075   2.304  0.0581  1.1014  0.1561
  125MOL0     H16811   3.616   9.066   2.247 -0.2061  0.3254  1.9572
  125MOL0     H16812   3.615   9.231   2.409 -1.8732 -1.4672  0.0653
  125MOL0     H16813   3.454   9.285   2.354 -1.1143 -2.3622 -1.6365
  125MOL0     H16814   3.576   9.390   2.162  1.1264  1.0696 -0.9788
  125MOL0     H16815   3.727   9.330   2.224  1.8560  2.5176  1.3587
  125MOL0     H16816   3.699   9.570   2.284  0.5399 -0.0187 -2.1705
  125MOL0     H16817   3.560   9.519   2.381  1.5446  2.6530  0.6372
  125MOL0     H16818   3.789   9.538   2.507 -1.1139  0.1578  1.0613
  125MOL0     H16819   3.713   9.382   2.529  0.2966 -0.2065  1.4215
  125MOL0     H16820   3.863   9.272   2.409 -0.1364  0.4750  2.3570
  125MOL0     H16821   3.935   9.412   2.320  0.7685 -3.1901 -0.7344
  125MOL0     H16822   4.013   9.494   2.546  1.4982 -1.1808  2.1942
  125MOL0     H16823   4.091   9.353   2.486 -0.2822 -0.0589 -1.3948
  125MOL0     H16824   4.039   9.325   2.723  0.3859  2.2788 -1.1553
  125MOL0     H16825   3.864   9.372   2.682 -0.2515  1.0097  0.8677
  125MOL0     H16826   4.087   9.057   2.532 -0.7508 -1.5892 -0.6492
  125MOL0     H16827   4.041   8.793   2.564  0.3455  2.1359 -0.0566
  125MOL0     H16828   3.901   8.735   2.658 -1.3688  0.0829  0.3872
  125MOL0     H16829   3.820   8.888   2.407 -1.1558 -0.1755 -0.4652
  125MOL0     H16830   3.904   8.730   2.385  0.6575 -0.8621  1.2690
  125MOL0     H16831   3.652   8.793   2.542 -1.1591  1.4321 -1.8763
  125MOL0     H16832   3.730   8.627   2.524 -0.9170  0.5200  2.1210
  125MOL0     H16833   3.571   8.808   2.324 -1.9111 -0.3002 -1.8098
  125MOL0     H16834   3.536   8.649   2.370  0.1474  0.2750 -0.7302
  125MOL0     H16835   3.880   8.488   2.207  0.4781 -0.6010 -2.0596
  125MOL0     H16836   3.860   8.244   2.168 -0.0589 -0.3074 -1.8517
  125MOL0     H16837   3.888   7.981   1.925  0.3680 -0.8012 -0.8747
  125MOL0     H16838   3.888   7.789   1.784 -1.7210  1.5597 -1.1783
  125MOL0     H16839   3.855   7.431   1.697 -3.2729  0.1784 -1.1069
  125MOL0     H16840   3.890   7.604   1.689 -1.6996 -0.3753 -0.7659
  125MOL0     H16841   3.990   7.574   1.931  0.6357 -2.0692  1.9055
  125MOL0     H16842   3.921   7.406   1.919 -1.5870 -1.0222 -3.6566
  125MOL0     H16843   4.148   7.378   1.887  3.6636  0.3923 -1.6396
  125MOL0     H16844   4.080   7.366   1.726 -0.0835 -0.0558  0.4971
  125MOL0     H16845   4.136   7.637   1.713 -3.0680 -0.7424  0.2356
  125MOL0     H16846   4.243   7.497   1.673  0.1908 -1.8195  1.4100
  125MOL0     H16847   4.378   7.528   1.876  0.0732 -0.8401 -1.2438
  125MOL0     H16848   4.247   7.588   1.964  3.1785  0.2293  1.6583
  125MOL0     H16849   4.379   7.763   1.741 -1.2514 -0.4425 -1.2561
  125MOL0     H16850   4.230   7.807   1.838 -1.8860 -2.8708 -2.6157
  125MOL0     H16851   4.515   7.747   1.920  0.3826  0.2379  2.6160
  125MOL0     H16852   4.384   7.768   2.036 -1.3701 -0.2993 -0.0203
  125MOL0     H16853   4.507   7.965   2.020 -0.8486 -0.6113 -0.3179
  125MOL0     H16854   4.492   7.989   1.851 -1.3081  4.0152  0.9711
  125MOL0     H16855   3.578   7.607   2.007  0.1740  0.0971 -0.1619
  125MOL0     H16856   3.570   7.815   2.159  0.3837 -0.7197  1.5654
  125MOL0     H16857   3.431   8.305   2.146 -0.4924 -0.6035  0.9859
  125MOL0     H16858   3.458   8.543   2.190  0.9859  2.1716  0.8994
  125MOL0     H16859   3.484   9.207   1.855  2.7093  0.1902 -0.1619
  125MOL0     H16860   3.480   9.053   1.673 -0.0757  1.3855  0.7229
  125MOL0     H16861   3.644   8.584   1.577  2.1834  3.1243 -1.0157
  125MOL0     H16862   3.669   8.407   1.423  0.6964  0.3774  1.1893
  125MOL0     H16863   3.733   8.323   1.173 -0.3996 -0.3929 -0.4946
  125MOL0     H16864   3.664   8.472   1.108  1.0060  0.7541  1.4852
  125MOL0     H16865   3.705   8.284   0.946 -1.0398 -0.8633 -0.2966
  125MOL0     H16866   3.539   8.360   0.943 -2.0115 -0.1495  0.5273
  125MOL0     H16867   3.490   8.144   1.100 -3.2101  1.8038 -0.7053
  125MOL0     H16868   3.645   8.091   1.026  1.1650 -0.0617 -1.9265
  125MOL0     H16869   3.408   8.183   0.849 -0.0694  0.7492 -2.6451
  125MOL0     H16870   3.574   8.152   0.798  1.2828  2.9539  1.9157
  125MOL0     H16871   3.392   7.765   0.819  2.4768 -2.6856  2.8350
  125MOL0     H16872   3.321   8.490   1.231  0.4261  0.3439 -0.1606
  125MOL0     H16873   3.204   8.684   1.263 -0.2645  0.8101 -0.8681
  125MOL0     H16874   3.162   8.686   1.445  0.0860 -1.2325 -1.1097
  125MOL0     H16875   3.258   8.814   1.361  0.5223 -0.0480 -1.7759
  126MOL0     O16876   7.845   6.168   0.699 -0.0757 -0.1742 -0.0772
  126MOL0     C16877   7.743   6.160   0.627 -1.2445 -0.1536 -0.1753
  126MOL0     O16878   7.744   6.196   0.495  0.3113 -0.2331  0.3278
  126MOL0     C16879   7.831   6.287   0.448  0.1174  0.0577 -0.2885
  126MOL0     C16880   7.928   6.262   0.339 -0.2754  0.4013  0.1655
  126MOL0     C16881   8.024   6.362   0.307 -0.2439 -0.4555 -0.5771
  126MOL0     C16882   8.025   6.487   0.369 -0.7519  0.3915 -0.2360
  126MOL0     O16883   8.123   6.574   0.327 -0.5882 -0.1330  0.6815
  126MOL0     C16884   8.133   6.700   0.401 -0.5808  0.3746  0.4577
  126MOL0     C16885   8.244   6.786   0.349 -0.0775  0.1137  0.3584
  126MOL0     C16886   8.226   6.866   0.216 -0.3313  0.5014 -0.5412
  126MOL0     C16887   8.366   6.918   0.169  0.4053 -0.4092  0.3023
  126MOL0     C16888   8.382   6.931   0.018  0.2550 -0.0525  0.1709
  126MOL0     C16889   8.290   7.030  -0.050  0.2431  0.3388  0.5516
  126MOL0     C16890   8.339   7.077  -0.195 -0.7602  0.0215  0.3843
  126MOL0     C16891   8.328   6.985  -0.309 -1.0283  0.4638  0.0582
  126MOL0     N16892   8.202   6.940  -0.354 -0.1419 -0.2931  0.4687
  126MOL0     C16893   8.174   6.806  -0.386 -0.0305 -0.0207 -0.0677
  126MOL0     C16894   8.045   6.798  -0.389  0.2894  0.3988 -0.4672
  126MOL0     C16895   7.960   6.676  -0.428  0.2242  0.2241  0.3470
  126MOL0     C16896   7.991   6.634  -0.569 -0.1398 -0.0500  0.7187
  126MOL0     C16897   7.935   6.491  -0.600 -0.1627 -0.6781  0.7846
  126MOL0     C16898   8.012   6.383  -0.529 -0.1280  0.3623  0.0210
  126MOL0     O16899   7.983   6.244  -0.555 -0.7214  0.1407  0.2212
  126MOL0     C16900   8.103   6.175  -0.567 -0.9446 -0.4667  0.4111
  126MOL0     C16901   8.142   6.141  -0.696 -0.2524  0.8595 -0.3216
  126MOL0     C16902   8.251   6.052  -0.704 -0.3833  0.5811  0.0742
  126MOL0     C16903   8.313   6.005  -0.585  0.1911 -0.4960  0.5584
  126MOL0     C16904   8.432   5.921  -0.605  1.0276  0.1260  0.6102
  126MOL0     O16905   8.492   5.930  -0.722  0.1583 -0.0850  0.5061
  126MOL0     C16906   8.596   5.850  -0.757 -0.5774 -0.3397  0.0486
  126MOL0     C16907   8.712   5.843  -0.682 -0.6015  0.0264 -0.0011
  126MOL0     C16908   8.829   5.775  -0.726  0.7246 -0.6045 -0.1576
  126MOL0     C16909   8.827   5.706  -0.850  0.0419 -0.1446 -0.5429
  126MOL0     O16910   8.940   5.640  -0.882 -0.3126  0.6707  0.0867
  126MOL0     C16911   9.011   5.693  -0.998 -0.5725 -0.3082  0.1277
  126MOL0     C16912   9.161   5.637  -1.026 -0.3079  0.0185  0.4371
  126MOL0     C16913   9.238   5.733  -1.118 -0.0993  0.3915  0.5385
  126MOL0     C16914   9.215   5.719  -1.270 -0.2387 -0.5375 -0.2781
  126MOL0     C16915   9.325   5.637  -1.332 -0.2205  0.1191 -0.4522
  126MOL0     C16916   9.349   5.655  -1.481  0.5987  0.1060 -0.7063
  126MOL0     C16917   9.213   5.640  -1.555 -0.6850  0.6704 -0.5780
  126MOL0     C16918   9.246   5.607  -1.705  0.9408  0.7799 -0.8290
  126MOL0    Cl16919   9.092   5.572  -1.791 -0.4579 -0.3756 -0.0621
  126MOL0     C16920   8.707   5.716  -0.923  0.6111  0.9023  0.2885
  126MOL0     C16921   8.597   5.797  -0.880 -1.4350  0.7092  0.0970
  126MOL0     O16922   8.461   5.841  -0.526 -0.4149  0.0410 -0.8166
  126MOL0     C16923   8.291   6.060  -0.463  0.1434  0.2911 -1.1622
  126MOL0     C16924   8.175   6.134  -0.457 -0.4902 -1.0654 -0.3631
  126MOL0     N16925   7.995   6.919  -0.353 -0.1839 -1.1605 -0.2339
  126MOL0     N16926   8.085   7.006  -0.348  0.4676 -0.0344  0.6055
  126MOL0     C16927   7.916   6.518   0.454 -0.8911  0.3517 -0.2259
  126MOL0     C16928   7.828   6.414   0.500  0.7730 -1.3707  0.0802
  126MOL0     C16929   7.615   6.130   0.700  0.9416 -0.2042  0.1297
  126MOL0     C16930   7.493   6.155   0.632 -0.4044 -0.4082  1.3235
  126MOL0     C16931   7.374   6.113   0.683  0.1642  0.3062 -0.7963
  126MOL0     C16932   7.374   6.057   0.813  0.4512 -0.1867  0.1912
  126MOL0     O16933   7.269   5.999   0.883  0.7032 -0.9872  0.3447
  126MOL0     C16934   7.151   5.966   0.803 -0.0745 -0.7668 -0.2698
  126MOL0     C16935   7.152   5.850   0.707  0.3083 -0.4411  0.0936
  126MOL0     C16936   7.178   5.709   0.771  0.0932 -0.0749  0.3854
  126MOL0     C16937   7.161   5.604   0.665  0.2906  0.6964 -0.7288
  126MOL0     C16938   7.021   5.597   0.628  0.7928  0.4182  0.3645
  126MOL0     C16939   6.905   5.606   0.620 -0.1340  0.5129 -0.2667
  126MOL0     C16940   7.491   6.059   0.888 -0.0407  0.3335  0.1644
  126MOL0     C16941   7.612   6.091   0.836  0.6042 -0.2211 -0.8868
  126MOL0     C16942   7.730   6.065   0.915 -0.4095 -0.2768  0.2555
  126MOL0     H16943   7.919   6.160   0.302 -1.7242 -0.6736  3.1785
  126MOL0     H16944   8.103   6.341   0.236  1.3862  2.5030  0.1759
  126MOL0     H16945   8.039   6.757   0.400 -0.1117  1.2159  1.8778
  126MOL0     H16946   8.161   6.683   0.505  0.5313  3.5353  0.7574
  126MOL0     H16947   8.333   6.724   0.334 -0.0273  0.3585 -0.3489
  126MOL0     H16948   8.256   6.871   0.417  2.1199 -0.3517  0.6326
  126MOL0     H16949   8.153   6.945   0.236 -0.2077  0.2313  1.1514
  126MOL0     H16950   8.180   6.801   0.140 -3.5259  2.0315 -0.0807
  126MOL0     H16951   8.382   7.010   0.225 -1.5443  0.1619  0.0211
  126MOL0     H16952   8.447   6.855   0.205  1.3045  1.5709  1.9345
  126MOL0     H16953   8.485   6.960  -0.005 -0.7395  2.2590 -1.8940
  126MOL0     H16954   8.371   6.832  -0.027 -1.2684 -0.6309  1.7163
  126MOL0     H16955   8.190   6.988  -0.060 -0.5273  2.5513 -1.9734
  126MOL0     H16956   8.280   7.117   0.016  0.4641 -0.5112  1.7561
  126MOL0     H16957   8.444   7.109  -0.190 -0.8843  1.4285 -3.1491
  126MOL0     H16958   8.281   7.169  -0.207  0.6209  0.9557  0.5798
  126MOL0     H16959   8.389   7.034  -0.386  0.1343 -2.3077 -0.9030
  126MOL0     H16960   8.382   6.895  -0.277 -3.3985 -1.4405 -0.9807
  126MOL0     H16961   8.245   6.726  -0.404 -1.1378 -0.3159 -3.7953
  126MOL0     H16962   7.998   6.597  -0.362 -0.2497  0.8117  1.3610
  126MOL0     H16963   7.855   6.689  -0.402 -0.0360  1.3926 -1.1484
  126MOL0     H16964   7.948   6.698  -0.647 -1.0390 -0.4346  0.8823
  126MOL0     H16965   8.099   6.640  -0.580 -0.1776  0.0447  0.3522
  126MOL0     H16966   7.936   6.472  -0.708  2.0625 -1.7986  0.9315
  126MOL0     H16967   7.835   6.497  -0.557  0.3586  1.2776  1.8163
  126MOL0     H16968   8.012   6.402  -0.421 -1.3672  1.4035 -0.1439
  126MOL0     H16969   8.116   6.404  -0.556 -0.0772  0.1585  0.0503
  126MOL0     H16970   8.096   6.155  -0.794 -3.3616 -2.9585  0.3649
  126MOL0     H16971   8.274   6.013  -0.803 -1.7504  2.9290 -1.2629
  126MOL0     H16972   8.715   5.900  -0.589 -0.6372  1.2373 -0.7262
  126MOL0     H16973   8.918   5.772  -0.664  0.2148  1.4862  0.7577
  126MOL0     H16974   8.951   5.659  -1.083  0.5428  0.5148 -1.0300
  126MOL0     H16975   9.014   5.802  -0.987  0.3355 -0.4136  1.0312
  126MOL0     H16976   9.216   5.615  -0.934 -1.6309 -3.4762  0.5288
  126MOL0     H16977   9.167   5.535  -1.066  0.7146  0.7471 -1.4244
  126MOL0     H16978   9.216   5.836  -1.089 -1.7643 -0.6968  3.5333
  126MOL0     H16979   9.344   5.717  -1.097 -0.1595 -0.6646  0.1188
  126MOL0     H16980   9.223   5.823  -1.303  1.1157 -1.0157 -1.5773
  126MOL0     H16981   9.114   5.681  -1.290 -0.1983  0.6755 -3.2034
  126MOL0     H16982   9.311   5.533  -1.299 -0.5679 -0.2826 -1.7825
  126MOL0     H16983   9.420   5.660  -1.284 -0.4401 -0.9492  0.5502
  126MOL0     H16984   9.392   5.751  -1.511  0.2332  0.9615  1.3995
  126MOL0     H16985   9.422   5.582  -1.515 -1.0497 -1.7407 -0.4614
  126MOL0     H16986   9.160   5.735  -1.557  1.1069  1.7846 -4.2136
  126MOL0     H16987   9.166   5.557  -1.501 -0.0236  1.5449  1.4283
  126MOL0     H16988   9.301   5.690  -1.750  0.5832  2.9811  2.4658
  126MOL0     H16989   9.301   5.513  -1.703 -1.2694 -0.5999 -1.5901
  126MOL0     H16990   8.716   5.664  -1.017 -2.2246 -0.4569  0.6702
  126MOL0     H16991   8.511   5.797  -0.948 -0.4013 -1.7121 -1.3524
  126MOL0     H16992   8.338   6.024  -0.372 -1.6543  2.2435  0.6558
  126MOL0     H16993   8.141   6.164  -0.358 -0.1456 -0.9395 -0.2814
  126MOL0     H16994   7.901   6.621   0.485  0.1321  0.1315  1.0612
  126MOL0     H16995   7.751   6.444   0.570  1.5515  1.5799 -0.2015
  126MOL0     H16996   7.496   6.209   0.538 -0.8664 -2.2364  0.2030
  126MOL0     H16997   7.282   6.121   0.625 -0.1463  2.9581 -0.0853
  126MOL0     H16998   7.115   6.059   0.757 -0.7525  1.5521  4.3864
  126MOL0     H16999   7.073   5.949   0.878 -1.1164 -1.6834 -1.5080
  126MOL0     H17000   7.232   5.869   0.635  0.1302 -2.4420 -0.7098
  126MOL0     H17001   7.059   5.852   0.649  2.5668 -1.3175 -3.9728
  126MOL0     H17002   7.096   5.704   0.844  0.3028  0.1095  0.6395
  126MOL0     H17003   7.280   5.704   0.811 -0.2653 -0.0098  1.3332
  126MOL0     H17004   7.228   5.630   0.583 -0.8171  1.0917 -1.5334
  126MOL0     H17005   7.199   5.512   0.711  0.1160  1.2012  0.4570
  126MOL0     H17006   6.798   5.604   0.619 -0.2623 -4.6595 -0.2879
  126MOL0     H17007   7.485   6.030   0.992 -0.8235  1.0505  0.3293
  126MOL0     H17008   7.790   6.156   0.923  2.1464 -1.9202  1.2040
  126MOL0     H17009   7.714   6.039   1.021  0.1129  2.3155  1.0350
  126MOL0     H17010   7.785   5.987   0.861 -0.0984 -0.0834  0.2948
  127MOL0     O17011  10.661   5.685  11.415  0.1720 -0.3903  0.0196
  127MOL0     C17012  10.732   5.724  11.506  1.5327 -0.0886 -0.8058
  127MOL0     O17013  10.861   5.684  11.530 -0.2546 -0.6534 -0.3738
  127MOL0     C17014  10.944   5.627  11.432  0.2740 -0.1992 -0.0322
  127MOL0     C17015  11.086   5.639  11.445 -0.2489 -0.1389 -0.2593
  127MOL0     C17016  11.175   5.566  11.376  0.1496 -0.2046  0.1182
  127MOL0     C17017  11.119   5.476  11.275 -0.6910  0.7249 -0.7995
  127MOL0     O17018  11.202   5.392  11.201  0.4469  0.4131  0.5650
  127MOL0     C17019  11.350   5.413  11.201 -0.0011 -0.0826  0.2665
  127MOL0     C17020  11.425   5.322  11.103 -0.0936 -0.4699 -0.2576
  127MOL0     C17021  11.575   5.325  11.137 -0.6232 -0.4762  0.9869
  127MOL0     C17022  11.667   5.256  11.032  0.0889  0.3973  0.4563
  127MOL0     C17023  11.686   5.340  10.902  0.0958 -0.0726 -0.1725
  127MOL0     C17024  11.798   5.443  10.925  0.0601 -0.4699 -0.2505
  127MOL0     C17025  11.822   5.557  10.815  0.1124  0.8561  0.1391
  127MOL0     C17026  11.950   5.632  10.861 -0.1921  1.4042 -0.1680
  127MOL0     N17027  11.974   5.747  10.772  0.0721  0.0696 -0.1683
  127MOL0     C17028  11.944   5.744  10.634 -0.5754 -0.0128 -0.4630
  127MOL0     C17029  11.986   5.858  10.583  0.2366 -0.9462 -0.4437
  127MOL0     C17030  11.982   5.889  10.436 -0.1742 -0.4465 -0.1064
  127MOL0     C17031  11.952   6.039  10.419 -0.5330  0.0893 -0.5432
  127MOL0     C17032  11.992   6.093  10.278 -0.6553  0.0706  0.4647
  127MOL0     C17033  11.957   6.238  10.272  0.3402 -1.2014 -0.2141
  127MOL0     O17034  12.047   6.310  10.186  1.0212  0.6736 -0.7246
  127MOL0     C17035  12.009   6.442  10.159 -0.2269  0.8471 -0.0740
  127MOL0     C17036  12.056   6.500  10.043  0.5455  0.0174 -0.0818
  127MOL0     C17037  12.002   6.620   9.993 -1.1927  0.4285 -0.2141
  127MOL0     C17038  11.918   6.703  10.066  0.1127 -0.0948  0.6170
  127MOL0     C17039  11.870   6.830  10.014  0.1851 -0.6004 -1.6230
  127MOL0     O17040  11.781   6.897  10.099 -0.2214 -0.1224 -0.2945
  127MOL0     C17041  11.737   7.024  10.082 -0.1246  0.0814  0.4032
  127MOL0     C17042  11.826   7.127  10.079  0.1719 -0.9215 -0.4422
  127MOL0     C17043  11.776   7.262  10.056 -0.2928  0.5316  0.6738
  127MOL0     C17044  11.641   7.288  10.040  0.1517  0.6838 -0.7650
  127MOL0     O17045  11.614   7.409  10.009  0.5479 -0.1369 -0.2221
  127MOL0     C17046  11.476   7.448  10.025 -0.6719 -0.0975 -0.2440
  127MOL0     C17047  11.487   7.600  10.052 -0.7236  0.4335  0.1117
  127MOL0     C17048  11.362   7.670  10.105 -0.3607 -0.0640  0.6979
  127MOL0     C17049  11.350   7.811  10.081 -0.7382 -1.2602 -0.6893
  127MOL0     C17050  11.215   7.861  10.044  0.2346 -0.0995 -0.1074
  127MOL0     C17051  11.212   8.020  10.051  0.1103 -1.4318 -0.1019
  127MOL0     C17052  11.068   8.065  10.036 -0.2977 -0.9072  0.1972
  127MOL0     C17053  11.028   8.082   9.892  0.9572 -0.0470  0.4790
  127MOL0    Cl17054  10.849   8.126   9.877 -0.1790  0.2597 -0.0242
  127MOL0     C17055  11.555   7.183  10.062  0.6913  0.2702  0.3143
  127MOL0     C17056  11.599   7.048  10.072  0.4477  0.5502  0.3389
  127MOL0     O17057  11.938   6.883   9.929  0.1109  0.1683  0.4182
  127MOL0     C17058  11.872   6.647  10.187  0.2729  0.5826 -0.7329
  127MOL0     C17059  11.901   6.515  10.223  0.1826 -0.2835 -0.1390
  127MOL0     N17060  12.032   5.937  10.687  0.2083  0.1936 -0.0115
  127MOL0     N17061  12.036   5.864  10.794  0.8136 -0.2926  0.8485
  127MOL0     C17062  10.987   5.467  11.249 -0.5017 -0.9274 -0.0998
  127MOL0     C17063  10.900   5.536  11.330 -0.2964  0.2892 -0.5612
  127MOL0     C17064  10.663   5.805  11.608  0.2720  0.4904 -0.3520
  127MOL0     C17065  10.683   5.772  11.738  0.7262 -0.1310 -0.6945
  127MOL0     C17066  10.620   5.844  11.838  0.3212 -0.3767  0.5549
  127MOL0     C17067  10.530   5.954  11.809 -0.2745  0.2717 -1.3980
  127MOL0     O17068  10.449   5.994  11.912 -0.4364  0.1346  0.0392
  127MOL0     C17069  10.398   6.129  11.917  0.0704 -0.7384 -0.0961
  127MOL0     C17070  10.315   6.161  12.044  0.8236  0.2864  0.1543
  127MOL0     C17071  10.249   6.302  12.039 -0.0716  0.4700 -0.1554
  127MOL0     C17072  10.167   6.343  12.164 -0.0378  0.2408  0.3834
  127MOL0     C17073  10.053   6.246  12.192 -0.7218  0.7174  0.7709
  127MOL0     C17074   9.961   6.166  12.227 -0.9509  0.2282 -0.2794
  127MOL0     C17075  10.518   5.987  11.677  0.1902  0.0566 -0.2664
  127MOL0     C17076  10.577   5.912  11.580 -0.0431 -0.5036 -0.2387
  127MOL0     C17077  10.564   5.965  11.439  0.3095 -0.4338  0.7655
  127MOL0     H17078  11.139   5.700  11.518  1.0435  0.9558 -2.0470
  127MOL0     H17079  11.283   5.570  11.375  0.2247 -1.7927 -0.2279
  127MOL0     H17080  11.384   5.517  11.201  1.1339 -0.4186  1.6715
  127MOL0     H17081  11.393   5.382  11.297 -0.7547  2.7401  1.6157
  127MOL0     H17082  11.403   5.330  10.996  3.0759 -0.9348 -1.0601
  127MOL0     H17083  11.398   5.220  11.132  0.0059  0.0637  1.8612
  127MOL0     H17084  11.599   5.275  11.231 -0.8140 -0.1708  1.1999
  127MOL0     H17085  11.603   5.430  11.147 -1.0108 -0.1491 -1.0144
  127MOL0     H17086  11.767   5.234  11.072  1.6028  2.0562 -2.0678
  127MOL0     H17087  11.623   5.160  11.004  1.5738 -0.0272 -0.5667
  127MOL0     H17088  11.716   5.281  10.815  0.2825  0.5445 -0.5323
  127MOL0     H17089  11.595   5.393  10.877  1.8009  3.7470  1.0451
  127MOL0     H17090  11.781   5.487  11.024  0.8282  0.0947 -0.3557
  127MOL0     H17091  11.895   5.393  10.931 -0.4857 -1.4205  1.0623
  127MOL0     H17092  11.735   5.623  10.806 -0.6613 -0.3691 -2.3377
  127MOL0     H17093  11.843   5.507  10.720 -0.2304  0.2780  0.3611
  127MOL0     H17094  11.940   5.668  10.964  1.1415  3.8450 -0.8136
  127MOL0     H17095  12.033   5.560  10.864 -1.2941  0.1367  1.6838
  127MOL0     H17096  11.903   5.669  10.567  3.2881 -0.6008 -2.5135
  127MOL0     H17097  12.078   5.868  10.389 -0.9833  1.5941 -2.8870
  127MOL0     H17098  11.907   5.821  10.395 -2.3532  0.3855  2.2183
  127MOL0     H17099  11.843   6.042  10.420 -0.7595 -2.9263 -2.1699
  127MOL0     H17100  11.996   6.103  10.495  1.9209  1.3479 -2.8289
  127MOL0     H17101  11.939   6.045  10.195 -0.8142 -1.6535  1.4990
  127MOL0     H17102  12.100   6.081  10.265 -0.6954  2.1351 -3.0274
  127MOL0     H17103  11.959   6.284  10.371  1.7612 -0.3261 -0.6225
  127MOL0     H17104  11.854   6.252  10.236  0.0341 -2.8806 -0.0487
  127MOL0     H17105  12.126   6.439   9.986 -0.4437  0.5444 -1.9460
  127MOL0     H17106  12.064   6.661   9.914  2.4042 -1.2368  1.4719
  127MOL0     H17107  11.929   7.094  10.087  0.0748 -1.0679  0.2577
  127MOL0     H17108  11.846   7.344  10.042 -2.7661  2.6396 -0.1482
  127MOL0     H17109  11.418   7.437   9.932 -0.1495  3.4018 -1.1517
  127MOL0     H17110  11.426   7.404  10.111 -1.2409 -0.1868 -0.6115
  127MOL0     H17111  11.563   7.613  10.130 -0.6599  2.3206 -0.2205
  127MOL0     H17112  11.525   7.644   9.960 -3.2979 -1.6510 -2.1181
  127MOL0     H17113  11.279   7.630  10.045  0.5790 -1.5284  0.3211
  127MOL0     H17114  11.341   7.645  10.209 -1.0966  4.0311  1.7140
  127MOL0     H17115  11.416   7.844  10.000  0.3997  0.0253  0.7109
  127MOL0     H17116  11.378   7.862  10.173 -0.0288 -1.4433 -0.8014
  127MOL0     H17117  11.142   7.815  10.111  0.2597  2.1679  1.5961
  127MOL0     H17118  11.187   7.825   9.945  3.8609 -3.0578 -0.2728
  127MOL0     H17119  11.254   8.040  10.150  1.0201 -1.3252 -0.4962
  127MOL0     H17120  11.273   8.080   9.983 -0.1265 -0.3387  0.6335
  127MOL0     H17121  11.049   8.159  10.088 -4.4536 -0.4067 -1.8894
  127MOL0     H17122  11.004   7.978  10.058  3.1800 -3.9834 -0.7130
  127MOL0     H17123  11.080   8.162   9.840  2.1184 -0.9217  0.2331
  127MOL0     H17124  11.058   7.999   9.828  0.5059  1.2583 -1.4938
  127MOL0     H17125  11.451   7.205  10.039  1.0866 -0.4924 -2.7001
  127MOL0     H17126  11.521   6.973  10.079 -0.0177  0.8686 -1.1314
  127MOL0     H17127  11.801   6.702  10.247  0.9951  1.2929 -0.5109
  127MOL0     H17128  11.850   6.472  10.309  1.3903  1.8246  1.7424
  127MOL0     H17129  10.959   5.415  11.158 -0.4775 -0.2183 -0.5250
  127MOL0     H17130  10.792   5.533  11.315 -0.6293  1.8352  1.1488
  127MOL0     H17131  10.760   5.699  11.762 -0.2619  0.0142  3.8245
  127MOL0     H17132  10.635   5.803  11.937 -0.1380 -1.7826  0.0639
  127MOL0     H17133  10.334   6.157  11.833  0.4795  2.1560  0.4338
  127MOL0     H17134  10.480   6.202  11.918 -0.8807  0.4756 -2.7309
  127MOL0     H17135  10.382   6.152  12.131  3.6060 -3.4798 -2.0867
  127MOL0     H17136  10.239   6.083  12.052 -0.4805  1.4435 -0.5855
  127MOL0     H17137  10.190   6.305  11.947  0.6011  0.3206 -0.6056
  127MOL0     H17138  10.328   6.373  12.010  0.0378 -0.7852 -3.3352
  127MOL0     H17139  10.229   6.339  12.253 -0.9099  2.2357  1.1336
  127MOL0     H17140  10.126   6.442  12.141  1.6598  1.1314  1.0085
  127MOL0     H17141   9.887   6.089  12.240  3.5428 -4.5173  0.1458
  127MOL0     H17142  10.457   6.071  11.644  2.1370  0.7814 -2.2526
  127MOL0     H17143  10.629   6.052  11.434 -0.0333 -0.1825  0.6541
  127MOL0     H17144  10.574   5.892  11.358 -1.6612 -0.7589  0.7584
  127MOL0     H17145  10.460   5.997  11.421  0.1452 -1.6779 -0.8099
  128MOL0     O17146   0.739   8.110   1.116 -1.0515 -0.4010  0.0797
  128MOL0     C17147   0.663   8.064   1.033  0.0115 -0.6252  0.1128
  128MOL0     O17148   0.683   7.941   0.973 -0.1608 -0.2480  0.1487
  128MOL0     C17149   0.798   7.870   0.999 -0.0255  0.5204 -0.5126
  128MOL0     C17150   0.802   7.796   1.120 -1.0347  0.1700 -0.4560
  128MOL0     C17151   0.905   7.709   1.157  0.1651  0.3133 -0.1225
  128MOL0     C17152   1.012   7.688   1.076  0.3628  0.1540  0.5508
  128MOL0     O17153   1.108   7.594   1.099  0.3640  0.3127 -0.3188
  128MOL0     C17154   1.148   7.542   1.229  0.2089 -0.5160  0.1486
  128MOL0     C17155   1.188   7.649   1.338  0.0869  0.1339 -0.9855
  128MOL0     C17156   1.280   7.752   1.279 -0.9060 -0.0516  0.7435
  128MOL0     C17157   1.336   7.851   1.392  0.3471 -0.5798  0.4292
  128MOL0     C17158   1.399   7.983   1.337 -1.0702  0.7194  0.7512
  128MOL0     C17159   1.520   7.957   1.249  0.1802 -0.4435 -0.1393
  128MOL0     C17160   1.649   7.907   1.312 -0.3535 -0.3336 -0.1801
  128MOL0     C17161   1.750   8.019   1.338  0.5941 -0.5362  0.0183
  128MOL0     N17162   1.705   8.109   1.449  0.4248  0.8667  0.1754
  128MOL0     C17163   1.647   8.234   1.425 -0.4031 -0.0762 -0.0997
  128MOL0     C17164   1.623   8.285   1.544 -0.9032 -0.1669  0.0873
  128MOL0     C17165   1.560   8.421   1.580 -0.1403  0.5411  0.2130
  128MOL0     C17166   1.646   8.501   1.683 -0.0231  0.4161 -0.8084
  128MOL0     C17167   1.621   8.451   1.825 -0.7607  0.2567 -0.1740
  128MOL0     C17168   1.737   8.498   1.921  0.4516 -1.3965 -0.5121
  128MOL0     O17169   1.721   8.442   2.048 -0.1542  0.2672  0.8274
  128MOL0     C17170   1.817   8.460   2.147  0.5296 -0.4261  0.5533
  128MOL0     C17171   1.917   8.558   2.139 -0.2712  0.4149 -0.0736
  128MOL0     C17172   2.019   8.568   2.232  0.0672 -0.3558 -0.4069
  128MOL0     C17173   2.035   8.471   2.332  0.2766  0.3905  0.0438
  128MOL0     C17174   2.151   8.460   2.423 -0.2701 -0.3477  0.1740
  128MOL0     O17175   2.259   8.539   2.403  0.4206 -0.0954 -0.0959
  128MOL0     C17176   2.372   8.537   2.480 -0.0711 -0.8419 -0.1321
  128MOL0     C17177   2.446   8.415   2.497  0.3463 -0.2662  0.6674
  128MOL0     C17178   2.565   8.415   2.574  0.3688 -0.3510 -0.1961
  128MOL0     C17179   2.614   8.537   2.628  0.2828 -0.0898 -0.2514
  128MOL0     O17180   2.742   8.544   2.696  0.4172  0.4326  0.8147
  128MOL0     C17181   2.746   8.464   2.817 -1.0439 -0.3123  0.1338
  128MOL0     C17182   2.856   8.532   2.906 -0.6988 -0.0274 -0.0215
  128MOL0     C17183   2.808   8.678   2.939 -0.7338  1.0430 -0.3089
  128MOL0     C17184   2.904   8.745   3.044  0.5423  0.5010  0.0018
  128MOL0     C17185   2.860   8.885   3.062 -0.4697 -0.5124 -0.5329
  128MOL0     C17186   2.946   8.965   3.161 -0.3258 -0.1698 -0.5435
  128MOL0     C17187   3.055   9.051   3.090  0.1732  0.1199  0.0293
  128MOL0     C17188   3.117   9.181   3.152  0.8390  0.7194  1.5007
  128MOL0    Cl17189   2.992   9.304   3.148  0.0381  0.1520  0.3488
  128MOL0     C17190   2.544   8.661   2.602 -0.4465  0.9976 -0.2438
  128MOL0     C17191   2.425   8.658   2.537  0.8001  0.0923  1.0520
  128MOL0     O17192   2.138   8.386   2.519 -0.5763 -0.5658 -0.3447
  128MOL0     C17193   1.929   8.384   2.349 -0.0423 -0.2687 -0.0442
  128MOL0     C17194   1.824   8.380   2.255 -0.5906 -0.1150 -0.1720
  128MOL0     N17195   1.665   8.188   1.637  0.2074 -0.3945  0.0543
  128MOL0     N17196   1.720   8.086   1.582 -0.2890  0.5523  0.2370
  128MOL0     C17197   1.013   7.749   0.950 -0.3382 -0.2640 -0.5291
  128MOL0     C17198   0.901   7.835   0.908 -0.1790 -0.5371  0.3109
  128MOL0     C17199   0.554   8.144   0.969  0.0550  0.4582 -0.5140
  128MOL0     C17200   0.539   8.139   0.831 -0.0907 -0.8441 -0.9061
  128MOL0     C17201   0.446   8.220   0.772 -0.4588  0.3823  0.1559
  128MOL0     C17202   0.364   8.303   0.840 -0.1642  0.2584 -0.4558
  128MOL0     O17203   0.271   8.364   0.764  0.0755  0.4778  0.7037
  128MOL0     C17204   0.210   8.487   0.807  0.3934 -0.3704 -0.4848
  128MOL0     C17205   0.202   8.601   0.701  0.0733  1.0822  0.0800
  128MOL0     C17206   0.327   8.606   0.616 -1.2167  0.3949  0.0611
  128MOL0     C17207   0.465   8.644   0.685 -0.0379  1.1501  0.0429
  128MOL0     C17208   0.470   8.762   0.763  0.8903  1.1587  0.6787
  128MOL0     C17209   0.473   8.858   0.838 -0.3192 -0.1499  0.3333
  128MOL0     C17210   0.366   8.293   0.980 -0.5440 -0.5611 -0.2038
  128MOL0     C17211   0.468   8.232   1.041 -0.2541  0.3164  0.1813
  128MOL0     C17212   0.472   8.235   1.191 -0.9597 -0.4684 -0.0033
  128MOL0     H17213   0.722   7.804   1.194 -1.9539  1.0727 -1.5154
  128MOL0     H17214   0.903   7.652   1.250  1.4765  2.1735  1.1125
  128MOL0     H17215   1.080   7.473   1.280  1.5793  0.4696  3.5890
  128MOL0     H17216   1.238   7.487   1.204  0.9808  1.1347 -0.8804
  128MOL0     H17217   1.224   7.596   1.427  0.1943  3.4554  1.1106
  128MOL0     H17218   1.096   7.698   1.371  0.3685  0.8744 -1.2754
  128MOL0     H17219   1.229   7.813   1.204  0.8937  0.1243 -0.3821
  128MOL0     H17220   1.361   7.696   1.233 -0.3135 -1.7530  3.5933
  128MOL0     H17221   1.253   7.881   1.457 -2.1625 -1.7611 -2.0149
  128MOL0     H17222   1.401   7.797   1.462 -0.9726 -0.8401  1.4959
  128MOL0     H17223   1.326   8.036   1.275  0.1271 -0.2671 -1.6446
  128MOL0     H17224   1.415   8.050   1.422 -1.1211 -0.0498  1.3811
  128MOL0     H17225   1.499   7.894   1.162  1.2906  0.6899 -1.2635
  128MOL0     H17226   1.542   8.058   1.213  0.1919  0.4270  2.1434
  128MOL0     H17227   1.688   7.833   1.241  0.8606 -1.0646  1.1961
  128MOL0     H17228   1.640   7.846   1.402  0.3661 -2.5126 -1.4955
  128MOL0     H17229   1.845   7.973   1.365  1.1922 -1.5302 -3.2837
  128MOL0     H17230   1.775   8.077   1.248  0.9637 -0.4266  0.1905
  128MOL0     H17231   1.629   8.274   1.325  1.1753 -1.1167 -0.8421
  128MOL0     H17232   1.552   8.482   1.489 -0.4661 -0.7959 -0.6752
  128MOL0     H17233   1.459   8.411   1.620  0.5581  1.3177  2.2624
  128MOL0     H17234   1.748   8.484   1.648  0.8049 -1.5527  2.1477
  128MOL0     H17235   1.627   8.609   1.685 -1.7049  0.1556  0.9663
  128MOL0     H17236   1.634   8.343   1.827 -0.2323  0.1372 -3.9061
  128MOL0     H17237   1.522   8.477   1.863 -1.5187  0.3819 -2.1632
  128MOL0     H17238   1.719   8.606   1.925 -0.0267 -1.5116  2.7174
  128MOL0     H17239   1.832   8.474   1.872 -0.0170 -3.4980 -0.4814
  128MOL0     H17240   1.904   8.632   2.061  3.5122  0.6351 -0.6872
  128MOL0     H17241   2.091   8.647   2.214 -0.6195  0.6285  0.9551
  128MOL0     H17242   2.421   8.327   2.439  0.9026  1.6022 -2.7093
  128MOL0     H17243   2.615   8.319   2.584 -0.8371 -0.8150  1.9834
  128MOL0     H17244   2.654   8.454   2.875 -1.0020 -2.2086 -0.0936
  128MOL0     H17245   2.790   8.370   2.783  0.2485 -0.0914  1.1097
  128MOL0     H17246   2.870   8.472   2.996 -0.4653 -1.6196 -1.0582
  128MOL0     H17247   2.948   8.542   2.848 -0.7934 -1.6528 -0.5176
  128MOL0     H17248   2.813   8.742   2.850  1.2569 -1.4635 -2.1428
  128MOL0     H17249   2.705   8.678   2.976 -0.2834 -1.0104  1.0878
  128MOL0     H17250   3.009   8.742   3.015  1.1667  0.7668  2.0523
  128MOL0     H17251   2.895   8.691   3.139  0.6182  1.7209  0.7257
  128MOL0     H17252   2.755   8.897   3.092 -0.3401  1.3558 -0.6680
  128MOL0     H17253   2.860   8.931   2.963 -2.9799  1.0377  0.0940
  128MOL0     H17254   2.889   9.027   3.230  0.2303 -2.2965  1.9643
  128MOL0     H17255   2.998   8.900   3.232  0.0273  1.7079  0.9841
  128MOL0     H17256   3.011   9.065   2.991 -0.0476 -0.7847 -0.0152
  128MOL0     H17257   3.137   8.978   3.091 -0.3132 -0.5116  2.4824
  128MOL0     H17258   3.147   9.155   3.253  1.3166 -0.9041  0.9742
  128MOL0     H17259   3.201   9.202   3.085 -1.1729  0.9436 -1.1306
  128MOL0     H17260   2.592   8.742   2.655 -0.6119  0.6065  0.5338
  128MOL0     H17261   2.378   8.756   2.525  1.5598  0.3469 -0.0433
  128MOL0     H17262   1.923   8.311   2.429  0.2379 -1.9923 -1.5404
  128MOL0     H17263   1.745   8.306   2.265  0.1883 -0.8610  0.7107
  128MOL0     H17264   1.097   7.723   0.886  0.8433 -0.1856  0.9342
  128MOL0     H17265   0.897   7.888   0.813  1.0842  1.0425  1.0917
  128MOL0     H17266   0.604   8.088   0.761 -1.3833 -0.9059 -2.1212
  128MOL0     H17267   0.454   8.223   0.664  0.8936 -0.4757  0.2022
  128MOL0     H17268   0.254   8.524   0.900  1.7130 -1.0220 -0.8325
  128MOL0     H17269   0.107   8.464   0.835  1.8344 -2.8617  3.5717
  128MOL0     H17270   0.167   8.694   0.746 -2.7155  0.6136 -0.9379
  128MOL0     H17271   0.114   8.564   0.648 -0.1273 -1.0182  1.7248
  128MOL0     H17272   0.318   8.692   0.549  0.6834  1.9982  1.7566
  128MOL0     H17273   0.338   8.517   0.552 -0.5361  1.3234 -1.1665
  128MOL0     H17274   0.517   8.560   0.733  3.2415  2.2030 -1.3345
  128MOL0     H17275   0.511   8.670   0.590 -0.2930  1.5146  0.0182
  128MOL0     H17276   0.484   8.932   0.915 -0.4932  1.2767 -0.9516
  128MOL0     H17277   0.302   8.352   1.045 -0.2283  2.3451 -2.3239
  128MOL0     H17278   0.373   8.259   1.230 -0.3594  1.7881  0.3261
  128MOL0     H17279   0.529   8.160   1.246  1.5749  1.8136  0.7562
  128MOL0     H17280   0.530   8.326   1.213 -0.5456  0.0364 -2.7933
  129MOL0     O17281   5.995   0.607  10.401 -0.8438 -0.5660 -0.3179
  129MOL0     C17282   6.067   0.660  10.478 -0.0013 -0.1999 -0.3868
  129MOL0     O17283   6.119   0.599  10.586  0.3136 -0.0744 -0.2780
  129MOL0     C17284   6.258   0.610  10.599  0.1423 -0.1545 -0.5472
  129MOL0     C17285   6.342   0.568  10.498 -0.5927  0.6741  0.4826
  129MOL0     C17286   6.475   0.584  10.509  0.7323 -0.1892  0.5683
  129MOL0     C17287   6.532   0.649  10.617 -0.6661 -0.3457  0.2563
  129MOL0     O17288   6.670   0.653  10.631  0.7243  0.2902 -0.3492
  129MOL0     C17289   6.762   0.600  10.540  0.0824 -0.7808  0.3653
  129MOL0     C17290   6.903   0.630  10.589  0.2438  0.5162  0.4471
  129MOL0     C17291   7.001   0.511  10.558 -0.6854  0.2106  0.7324
  129MOL0     C17292   6.988   0.450  10.408  0.6356 -0.2598 -0.2644
  129MOL0     C17293   7.029   0.560  10.304  0.2135 -0.3920 -0.3693
  129MOL0     C17294   7.041   0.518  10.159  1.1089  0.8430  0.7347
  129MOL0     C17295   7.053   0.637  10.063 -0.6242 -0.2174  0.5416
  129MOL0     C17296   7.191   0.703  10.056  0.1667 -0.0789 -0.0932
  129MOL0     N17297   7.290   0.614   9.996 -0.2362  0.4979  0.1422
  129MOL0     C17298   7.294   0.564   9.865  0.0710 -0.9213 -0.6039
  129MOL0     C17299   7.404   0.488   9.856  0.3101 -0.0023  0.9592
  129MOL0     C17300   7.446   0.419   9.721 -0.0308  0.4122 -0.5517
  129MOL0     C17301   7.557   0.310   9.741 -0.5937 -0.4797  0.3700
  129MOL0     C17302   7.583   0.243   9.612  0.5448 -0.5029 -0.5306
  129MOL0     C17303   7.684   0.129   9.626 -0.4061  0.0986 -0.1443
  129MOL0     O17304   7.650   0.011   9.548  0.2136  0.1482 -0.1597
  129MOL0     C17305   7.715  -0.107   9.569  0.6836 -0.0756 -0.6486
  129MOL0     C17306   7.844  -0.122   9.606 -0.7831 -0.4582  0.1442
  129MOL0     C17307   7.905  -0.246   9.595 -0.1529 -0.6324  0.4505
  129MOL0     C17308   7.834  -0.354   9.543  0.1631  0.0973 -0.6473
  129MOL0     C17309   7.903  -0.486   9.527 -0.5515 -0.5837 -0.4259
  129MOL0     O17310   7.855  -0.585   9.452 -0.4999  0.6340  0.3972
  129MOL0     C17311   7.942  -0.688   9.420 -0.3667 -0.1962 -0.5501
  129MOL0     C17312   7.999  -0.780   9.512  0.3381  1.4179 -0.1211
  129MOL0     C17313   8.097  -0.875   9.474 -0.7732  0.4699 -1.0182
  129MOL0     C17314   8.131  -0.888   9.342 -0.6133  0.1518  0.1813
  129MOL0     O17315   8.222  -0.984   9.307 -0.3981  0.2815  0.1430
  129MOL0     C17316   8.163  -1.057   9.194 -0.9800 -0.2587 -0.2166
  129MOL0     C17317   8.251  -1.169   9.164  0.4760 -0.3306 -0.2825
  129MOL0     C17318   8.207  -1.254   9.044 -0.0448  0.4817  0.1105
  129MOL0     C17319   8.300  -1.379   9.018 -0.1327 -0.9189  0.5156
  129MOL0     C17320   8.235  -1.484   8.923  0.5396 -0.2087 -0.0018
  129MOL0     C17321   8.331  -1.585   8.866 -1.4344  0.5260  0.0120
  129MOL0     C17322   8.268  -1.648   8.739  0.2977 -0.4352  0.6616
  129MOL0     C17323   8.382  -1.713   8.649 -0.3575  0.3050  0.4470
  129MOL0    Cl17324   8.307  -1.777   8.512  0.3460  0.0062  0.3012
  129MOL0     C17325   8.070  -0.801   9.245  0.4736 -0.4061 -0.1099
  129MOL0     C17326   7.967  -0.716   9.285 -0.2913 -0.3514  0.1116
  129MOL0     O17327   8.009  -0.490   9.591  0.4188  0.8477 -0.1755
  129MOL0     C17328   7.697  -0.341   9.509  0.3351  0.2670 -0.2625
  129MOL0     C17329   7.641  -0.220   9.527 -0.1922  0.7078  1.0415
  129MOL0     N17330   7.454   0.473   9.983  0.2197 -0.1025  0.1661
  129MOL0     N17331   7.386   0.541  10.066  0.8623 -0.4358 -0.0869
  129MOL0     C17332   6.449   0.680  10.727  0.3696  0.3075  0.2410
  129MOL0     C17333   6.307   0.650  10.719 -0.3628 -0.2083  0.8117
  129MOL0     C17334   6.093   0.806  10.459 -0.3223  0.7397 -0.1155
  129MOL0     C17335   6.099   0.886  10.573 -0.8016 -0.4309 -0.2670
  129MOL0     C17336   6.122   1.024  10.563 -0.8931 -0.8084 -0.4397
  129MOL0     C17337   6.132   1.085  10.435 -0.5775  0.1591 -0.2831
  129MOL0     O17338   6.156   1.221  10.419 -0.0171 -0.0936 -0.0203
  129MOL0     C17339   6.174   1.307  10.536  1.4642  0.4760 -0.3528
  129MOL0     C17340   6.237   1.444  10.492 -0.4006  0.1444  0.0967
  129MOL0     C17341   6.392   1.422  10.441  0.3665  0.0101 -0.1469
  129MOL0     C17342   6.469   1.544  10.403 -0.0252 -0.1849 -0.3132
  129MOL0     C17343   6.503   1.618  10.520  0.1693 -0.3844 -0.0697
  129MOL0     C17344   6.529   1.696  10.615 -0.9482  0.9082  0.6265
  129MOL0     C17345   6.110   1.010  10.323 -0.1632 -0.6194 -0.5779
  129MOL0     C17346   6.098   0.870  10.333  0.9085  0.2155 -0.6051
  129MOL0     C17347   6.081   0.786  10.206 -0.3232  0.6500 -0.1035
  129MOL0     H17348   6.316   0.518  10.405 -0.8249  1.3621  0.1728
  129MOL0     H17349   6.534   0.534  10.433  1.6924 -1.4400  2.0841
  129MOL0     H17350   6.740   0.494  10.525 -1.0110 -0.4867 -0.2211
  129MOL0     H17351   6.758   0.646  10.440 -1.1631 -1.9446 -0.1410
  129MOL0     H17352   6.908   0.656  10.695  0.2613 -0.1665  0.6196
  129MOL0     H17353   6.941   0.719  10.538 -3.0452  1.5560 -0.4294
  129MOL0     H17354   6.986   0.420  10.617  1.4680 -1.6217 -1.3668
  129MOL0     H17355   7.104   0.545  10.576 -0.1302 -1.2605  0.4099
  129MOL0     H17356   7.048   0.361  10.387 -0.9888 -0.9235 -2.5189
  129MOL0     H17357   6.889   0.416  10.378  0.6609  0.1362 -0.8239
  129MOL0     H17358   6.953   0.639  10.304  0.2135 -0.3795 -1.0806
  129MOL0     H17359   7.125   0.598  10.339 -1.2293  0.1292  3.4575
  129MOL0     H17360   7.126   0.449  10.148 -0.1578 -0.8584  1.1192
  129MOL0     H17361   6.948   0.467  10.131  1.6188 -0.2136  0.9045
  129MOL0     H17362   6.983   0.720  10.082 -2.2847 -1.4649  0.1382
  129MOL0     H17363   7.030   0.607   9.961 -0.3248  2.7655 -0.5078
  129MOL0     H17364   7.170   0.785   9.987  1.8784  2.6019  2.3400
  129MOL0     H17365   7.214   0.738  10.157 -0.4941  2.6342 -0.8236
  129MOL0     H17366   7.233   0.618   9.794  0.2780 -2.1707 -1.7703
  129MOL0     H17367   7.359   0.365   9.683 -1.8237  3.0478 -0.4545
  129MOL0     H17368   7.479   0.500   9.655 -0.6976  4.3216  3.3803
  129MOL0     H17369   7.649   0.359   9.775 -1.3308  1.8391 -0.7579
  129MOL0     H17370   7.519   0.236   9.812  1.0350 -0.7930  0.9603
  129MOL0     H17371   7.624   0.311   9.537 -0.5129  0.0558 -0.6189
  129MOL0     H17372   7.492   0.206   9.563  1.5662  0.1680 -3.1386
  129MOL0     H17373   7.706   0.097   9.729  5.5222  1.3774 -0.6860
  129MOL0     H17374   7.782   0.161   9.592 -1.3420  2.2765 -0.9370
  129MOL0     H17375   7.908  -0.044   9.648  0.1665 -0.8186 -0.6011
  129MOL0     H17376   8.009  -0.254   9.624 -0.1427 -1.0972  0.2852
  129MOL0     H17377   7.987  -0.767   9.619  0.2234  0.7056 -0.0469
  129MOL0     H17378   8.152  -0.941   9.540 -2.0828 -0.0553 -0.4235
  129MOL0     H17379   8.060  -1.085   9.222 -1.1280 -0.9483 -1.3854
  129MOL0     H17380   8.152  -0.999   9.103  2.1375 -0.4767 -0.8418
  129MOL0     H17381   8.348  -1.125   9.140  0.6370 -1.2439 -1.3942
  129MOL0     H17382   8.268  -1.231   9.252 -2.5509 -0.6943  0.1698
  129MOL0     H17383   8.110  -1.302   9.063  0.4120  0.7268  3.5793
  129MOL0     H17384   8.202  -1.187   8.957  0.7834 -0.9547 -1.0849
  129MOL0     H17385   8.318  -1.432   9.112 -0.1893 -1.5189  0.1903
  129MOL0     H17386   8.394  -1.341   8.978 -0.2560 -1.4719 -0.3149
  129MOL0     H17387   8.182  -1.429   8.845 -1.5493  1.9748  2.7553
  129MOL0     H17388   8.161  -1.547   8.974  2.3453 -0.9729  1.8166
  129MOL0     H17389   8.428  -1.542   8.840 -0.8336 -0.3523  0.7254
  129MOL0     H17390   8.363  -1.658   8.941  2.1414  2.1539  0.2793
  129MOL0     H17391   8.216  -1.570   8.684  2.8212  2.9081  2.6110
  129MOL0     H17392   8.198  -1.727   8.770 -0.5015  0.1524  0.3800
  129MOL0     H17393   8.467  -1.645   8.640  0.5457  0.4692  6.3202
  129MOL0     H17394   8.429  -1.794   8.705 -1.7743 -1.3111 -0.5992
  129MOL0     H17395   8.087  -0.809   9.138 -1.0468 -2.1199 -0.2736
  129MOL0     H17396   7.917  -0.652   9.213 -2.2780  1.6155  3.0135
  129MOL0     H17397   7.633  -0.417   9.465  1.1319  0.0528 -1.0931
  129MOL0     H17398   7.537  -0.204   9.499 -0.0757  3.4205  1.9575
  129MOL0     H17399   6.483   0.728  10.817 -0.0953 -1.1803  1.2425
  129MOL0     H17400   6.235   0.673  10.798 -1.0453  0.6010 -0.0370
  129MOL0     H17401   6.082   0.845  10.672 -1.5225  0.4497 -0.0157
  129MOL0     H17402   6.122   1.080  10.656  0.6845 -1.6378  0.0993
  129MOL0     H17403   6.236   1.263  10.614 -1.6613 -2.0434  0.9250
  129MOL0     H17404   6.070   1.318  10.570  1.8553 -1.7390  1.7824
  129MOL0     H17405   6.248   1.519  10.571 -0.3112  1.4667 -1.1316
  129MOL0     H17406   6.193   1.501  10.410  0.4596  2.1323  0.9611
  129MOL0     H17407   6.380   1.356  10.355 -0.6734 -0.3863  0.2692
  129MOL0     H17408   6.440   1.358  10.516 -0.2073 -0.6159 -0.2946
  129MOL0     H17409   6.563   1.502  10.365 -0.8204 -3.7319  1.1922
  129MOL0     H17410   6.430   1.603  10.319  0.8039  0.4719 -0.2397
  129MOL0     H17411   6.558   1.761  10.695 -0.6575 -0.4351  1.6542
  129MOL0     H17412   6.105   1.053  10.223 -0.1759 -3.5101 -1.9178
  129MOL0     H17413   6.142   0.695  10.208 -0.0690  0.7878 -0.9769
  129MOL0     H17414   5.978   0.750  10.192 -0.7163  1.7399 -0.0908
  129MOL0     H17415   6.108   0.846  10.119 -0.0458  1.8175  0.7738
  130MOL0     O17416  10.999   3.102   0.764  0.5895  1.0459  0.3834
  130MOL0     C17417  10.993   2.994   0.821 -1.2291  0.1160 -0.1648
  130MOL0     O17418  11.083   2.895   0.808  0.1290 -0.4535  0.1389
  130MOL0     C17419  11.183   2.917   0.715  1.3858  0.6240  0.3633
  130MOL0     C17420  11.163   2.909   0.582 -0.8159 -0.1062  0.1345
  130MOL0     C17421  11.261   2.919   0.480  0.8838 -0.1760 -0.3414
  130MOL0     C17422  11.397   2.933   0.522  0.3761  0.4400  0.2509
  130MOL0     O17423  11.484   2.944   0.417  0.2725 -1.0515  0.4678
  130MOL0     C17424  11.614   2.898   0.443 -1.0572 -0.3219 -0.8986
  130MOL0     C17425  11.674   2.912   0.308 -0.3802  0.3937  0.3058
  130MOL0     C17426  11.816   2.833   0.310  0.3260 -0.2770 -0.8273
  130MOL0     C17427  11.892   2.848   0.179  0.0913 -0.6337 -0.2127
  130MOL0     C17428  11.991   2.729   0.154  0.3018  0.1456 -0.0651
  130MOL0     C17429  12.143   2.750   0.195  0.1963  0.1261 -0.3045
  130MOL0     C17430  12.227   2.628   0.200  0.8341  0.1629 -0.0438
  130MOL0     C17431  12.238   2.545   0.077 -0.5400 -0.3647  1.1672
  130MOL0     N17432  12.330   2.601  -0.032 -0.3409  0.3745 -0.0176
  130MOL0     C17433  12.303   2.699  -0.126 -1.0191  0.2144 -0.0272
  130MOL0     C17434  12.421   2.707  -0.206 -0.3799 -0.2576 -0.2829
  130MOL0     C17435  12.437   2.799  -0.318  0.3256 -0.7779 -0.4618
  130MOL0     C17436  12.305   2.838  -0.392  0.8906 -0.1964 -0.2195
  130MOL0     C17437  12.208   2.723  -0.422  1.0240  0.5392 -0.0906
  130MOL0     C17438  12.059   2.757  -0.409 -0.5752 -0.7656 -0.7555
  130MOL0     O17439  12.025   2.794  -0.276  0.2822  0.4249  0.6104
  130MOL0     C17440  11.902   2.864  -0.268  0.4993  0.2110  0.2593
  130MOL0     C17441  11.877   2.992  -0.331  0.1680  0.2749 -0.1303
  130MOL0     C17442  11.750   3.053  -0.320  0.0155  0.3761  0.2358
  130MOL0     C17443  11.647   2.995  -0.237  0.4488  0.3348 -0.1784
  130MOL0     C17444  11.509   3.060  -0.229  0.1407  0.1390 -0.2229
  130MOL0     O17445  11.422   2.977  -0.165  0.1966 -0.7626  1.0650
  130MOL0     C17446  11.312   3.039  -0.112  0.1776 -0.7655 -0.4954
  130MOL0     C17447  11.210   3.113  -0.182  0.6274  0.2694  0.1183
  130MOL0     C17448  11.099   3.149  -0.111 -0.2910  1.0179  0.4275
  130MOL0     C17449  11.084   3.123   0.032 -0.4393 -0.2638 -0.6753
  130MOL0     O17450  10.987   3.176   0.105 -0.2443 -0.3315 -0.2159
  130MOL0     C17451  10.974   3.141   0.244 -0.2507  0.3667 -0.3843
  130MOL0     C17452  10.868   3.229   0.303 -0.5368 -0.6294 -0.5449
  130MOL0     C17453  10.873   3.216   0.451 -0.0312  0.5149  0.4261
  130MOL0     C17454  10.731   3.277   0.496 -0.6927 -0.5743  0.3177
  130MOL0     C17455  10.705   3.268   0.639  0.0611 -0.4485  0.1459
  130MOL0     C17456  10.563   3.297   0.671 -0.2568 -0.5510  0.9533
  130MOL0     C17457  10.538   3.323   0.823 -0.0838  0.1834 -0.4788
  130MOL0     C17458  10.536   3.202   0.913 -0.2165  0.1739 -0.1901
  130MOL0    Cl17459  10.389   3.110   0.900 -0.3441  0.0367  0.2583
  130MOL0     C17460  11.187   3.052   0.099  0.1158  0.1885  0.1351
  130MOL0     C17461  11.294   3.009   0.025  0.2175  0.2312  0.2830
  130MOL0     O17462  11.482   3.160  -0.287  0.2122 -0.3546  0.8981
  130MOL0     C17463  11.689   2.883  -0.170  0.6131  0.5435 -0.0979
  130MOL0     C17464  11.807   2.818  -0.188 -0.1331  0.6813 -1.1510
  130MOL0     N17465  12.505   2.602  -0.164  0.4147 -0.3927 -0.0684
  130MOL0     N17466  12.442   2.541  -0.072  0.8848 -0.8427  0.1692
  130MOL0     C17467  11.426   2.926   0.654  0.0534  0.2585 -0.1566
  130MOL0     C17468  11.317   2.918   0.747 -0.2070  0.0582 -0.4784
  130MOL0     C17469  10.896   2.971   0.928  0.0803  0.5115  0.3305
  130MOL0     C17470  10.846   2.837   0.937 -0.7761 -0.0623 -0.0034
  130MOL0     C17471  10.753   2.799   1.035 -1.1290 -0.8804  0.3912
  130MOL0     C17472  10.714   2.889   1.128 -0.0101  0.4395 -0.0451
  130MOL0     O17473  10.633   2.872   1.239  0.4573  0.0473 -0.5399
  130MOL0     C17474  10.571   2.747   1.272 -0.0117  0.3695  0.3138
  130MOL0     C17475  10.478   2.756   1.397 -0.5604 -0.5189  0.0258
  130MOL0     C17476  10.329   2.790   1.352 -0.6121  0.5452  0.1755
  130MOL0     C17477  10.309   2.920   1.263  0.3744 -0.1593  0.3830
  130MOL0     C17478  10.165   2.928   1.235 -0.1876  0.3753 -0.3431
  130MOL0     C17479  10.046   2.947   1.220  0.1446 -1.0590  0.2634
  130MOL0     C17480  10.757   3.022   1.113 -0.4301 -0.3160  0.2250
  130MOL0     C17481  10.850   3.066   1.023  0.1688  1.0121 -0.0802
  130MOL0     C17482  10.889   3.211   1.021  0.6288 -1.3449 -0.2900
  130MOL0     H17483  11.062   2.910   0.542 -0.6658  1.3575 -0.2531
  130MOL0     H17484  11.240   2.915   0.373  1.9912  1.2489 -0.6358
  130MOL0     H17485  11.666   2.947   0.525 -0.5367 -0.0428 -1.3960
  130MOL0     H17486  11.618   2.798   0.488 -0.3519  0.6515  1.3149
  130MOL0     H17487  11.696   3.018   0.295 -0.7798  0.5996  1.2054
  130MOL0     H17488  11.618   2.875   0.222  0.9906 -1.4232  0.1495
  130MOL0     H17489  11.794   2.728   0.330  1.2358 -0.7745 -2.3138
  130MOL0     H17490  11.879   2.867   0.393  0.2644 -0.7999 -0.5600
  130MOL0     H17491  11.818   2.859   0.098 -0.3794  1.2682  0.4136
  130MOL0     H17492  11.941   2.946   0.177 -2.4165  0.8694  2.7260
  130MOL0     H17493  11.958   2.639   0.205  0.4048 -0.5999 -1.2874
  130MOL0     H17494  11.984   2.698   0.050 -1.0680 -2.2266  0.6558
  130MOL0     H17495  12.191   2.818   0.123  3.0278 -0.1765  1.1951
  130MOL0     H17496  12.143   2.785   0.298  1.8595 -0.8354  0.0572
  130MOL0     H17497  12.190   2.562   0.279 -1.5625  0.9863 -0.3917
  130MOL0     H17498  12.331   2.654   0.220  0.5214 -0.0499  2.2071
  130MOL0     H17499  12.289   2.450   0.099  0.1532 -0.2983 -0.0636
  130MOL0     H17500  12.136   2.513   0.055 -1.0001 -1.4359  4.2624
  130MOL0     H17501  12.215   2.762  -0.122 -1.5335 -0.5499  2.0009
  130MOL0     H17502  12.480   2.896  -0.291  2.4078 -0.9983 -2.6944
  130MOL0     H17503  12.493   2.753  -0.400 -2.5015 -4.1331 -0.7050
  130MOL0     H17504  12.257   2.910  -0.325  1.6859 -0.3882  0.5739
  130MOL0     H17505  12.324   2.893  -0.484  1.8447  1.7147  1.0406
  130MOL0     H17506  12.228   2.634  -0.362 -0.9832  1.2312  1.7610
  130MOL0     H17507  12.227   2.687  -0.523  0.3043 -1.9665  0.5929
  130MOL0     H17508  11.983   2.687  -0.444 -1.8022  0.4433 -0.6162
  130MOL0     H17509  12.051   2.853  -0.461 -0.3315  2.0125  3.7674
  130MOL0     H17510  11.962   3.037  -0.383 -0.9293  1.2194 -1.1710
  130MOL0     H17511  11.720   3.137  -0.382  0.4839  1.2438  1.1550
  130MOL0     H17512  11.218   3.130  -0.289 -0.5263  0.3146  0.0268
  130MOL0     H17513  11.028   3.210  -0.166  0.2077  0.2318 -1.1724
  130MOL0     H17514  10.956   3.034   0.255  2.2663  0.0358  1.0211
  130MOL0     H17515  11.062   3.163   0.304 -1.4047 -1.1263  2.0084
  130MOL0     H17516  10.903   3.326   0.265  2.5020 -2.3449 -2.5246
  130MOL0     H17517  10.771   3.203   0.261 -0.0787 -1.3964 -1.1403
  130MOL0     H17518  10.881   3.110   0.480 -3.9013  0.0065  0.0761
  130MOL0     H17519  10.965   3.271   0.475  0.6391  1.4171 -3.5216
  130MOL0     H17520  10.642   3.230   0.453  0.5422  0.5727 -3.9321
  130MOL0     H17521  10.726   3.379   0.457  0.1884 -1.5141 -2.4731
  130MOL0     H17522  10.771   3.339   0.688 -1.9599  0.4571  1.7244
  130MOL0     H17523  10.727   3.166   0.672 -0.9451  0.1422  2.8490
  130MOL0     H17524  10.543   3.390   0.616 -0.1412 -0.4802  1.0304
  130MOL0     H17525  10.494   3.219   0.638  0.7072 -0.6477 -0.9444
  130MOL0     H17526  10.439   3.366   0.842 -0.6232 -0.7788 -0.9898
  130MOL0     H17527  10.617   3.395   0.845  0.6722  0.0343 -2.4917
  130MOL0     H17528  10.615   3.136   0.875 -2.7273 -0.5732 -4.9059
  130MOL0     H17529  10.543   3.230   1.018 -3.2485  0.8284 -0.0541
  130MOL0     H17530  11.191   3.019   0.202  0.9416  0.3702  0.1693
  130MOL0     H17531  11.373   2.947   0.065  1.6285  1.3747 -0.6474
  130MOL0     H17532  11.618   2.827  -0.109  0.9394 -1.3577 -1.3787
  130MOL0     H17533  11.832   2.723  -0.140 -0.6010  1.9185  1.7515
  130MOL0     H17534  11.528   2.940   0.689 -0.2968  0.2649  0.8886
  130MOL0     H17535  11.347   2.906   0.851  0.7941  2.5240 -0.4119
  130MOL0     H17536  10.869   2.750   0.877 -1.6578 -1.2192  1.2812
  130MOL0     H17537  10.724   2.695   1.042 -3.2728 -1.0880 -5.4941
  130MOL0     H17538  10.635   2.666   1.308  0.0165  0.3960  0.3244
  130MOL0     H17539  10.517   2.701   1.189 -0.8130 -2.0516  2.0868
  130MOL0     H17540  10.514   2.825   1.474  0.2809  4.1606 -4.0534
  130MOL0     H17541  10.483   2.666   1.458  1.0341  0.5707  1.6337
  130MOL0     H17542  10.279   2.813   1.447  1.5436  0.0487  1.4898
  130MOL0     H17543  10.278   2.699   1.319 -0.5110  1.4844 -2.8265
  130MOL0     H17544  10.355   3.007   1.311  1.3719  1.3964 -3.0157
  130MOL0     H17545  10.360   2.910   1.166 -3.1550 -0.6283 -1.5964
  130MOL0     H17546   9.946   2.983   1.210  0.9339  1.8900  1.6655
  130MOL0     H17547  10.728   3.095   1.187  3.2180  1.0325  0.5666
  130MOL0     H17548  10.858   3.270   1.107  3.0125  3.0241 -2.1227
  130MOL0     H17549  10.998   3.215   1.029  0.6064 -2.5391  1.1055
  130MOL0     H17550  10.846   3.265   0.936  2.9531  5.1112  2.0425
  131MOL0     O17551   5.838   3.794   6.663 -0.4661 -0.0548 -0.7722
  131MOL0     C17552   5.930   3.757   6.726  0.2015 -0.0859 -0.2038
  131MOL0     O17553   5.928   3.694   6.851 -0.3140  0.5059  0.1358
  131MOL0     C17554   5.804   3.680   6.901  0.2691 -0.3287  0.1407
  131MOL0     C17555   5.756   3.770   6.998  0.7044 -0.3700  0.0832
  131MOL0     C17556   5.628   3.755   7.064  0.4437  0.4174  0.1059
  131MOL0     C17557   5.553   3.632   7.040 -0.2442  0.2043  0.2842
  131MOL0     O17558   5.430   3.601   7.099 -0.2022  0.1227 -0.2608
  131MOL0     C17559   5.360   3.697   7.176  0.9546  0.2527  0.2352
  131MOL0     C17560   5.229   3.633   7.188 -0.1402 -0.9981 -0.4534
  131MOL0     C17561   5.144   3.710   7.285  0.5743 -0.0237 -0.2421
  131MOL0     C17562   5.012   3.647   7.305  0.3543 -0.2635 -0.3466
  131MOL0     C17563   4.926   3.719   7.398 -0.3407  0.3569 -0.1616
  131MOL0     C17564   4.785   3.652   7.401 -0.1028  0.5159  0.6192
  131MOL0     C17565   4.683   3.707   7.497 -0.4802  0.0348  0.0294
  131MOL0     C17566   4.560   3.627   7.534  0.2034  0.1097  0.4189
  131MOL0     N17567   4.477   3.587   7.419  0.5501 -0.3792 -0.0586
  131MOL0     C17568   4.392   3.670   7.346 -0.1507  0.1301  0.3515
  131MOL0     C17569   4.352   3.600   7.237  0.3169 -0.3946 -0.9764
  131MOL0     C17570   4.269   3.653   7.122 -0.2213 -0.2503  0.1646
  131MOL0     C17571   4.365   3.672   7.001 -0.3225 -0.4840  0.6220
  131MOL0     C17572   4.318   3.775   6.899  0.0228  0.7455  0.0850
  131MOL0     C17573   4.183   3.753   6.841 -0.2479 -0.7345  0.1458
  131MOL0     O17574   4.142   3.876   6.780  0.5558  0.2266  0.5346
  131MOL0     C17575   4.008   3.891   6.761 -0.3603 -0.3728  1.0061
  131MOL0     C17576   3.957   4.021   6.749 -0.9939 -0.1512  0.7988
  131MOL0     C17577   3.820   4.040   6.763 -1.1100 -0.2938 -0.5254
  131MOL0     C17578   3.735   3.926   6.772  0.8229 -0.4558 -0.0705
  131MOL0     C17579   3.589   3.962   6.793  0.3565  0.3959  1.2221
  131MOL0     O17580   3.552   4.092   6.762  0.3153  0.0714  0.0254
  131MOL0     C17581   3.414   4.121   6.783  0.6391 -0.9606 -1.0654
  131MOL0     C17582   3.329   4.141   6.678 -0.0390  0.0560  0.5917
  131MOL0     C17583   3.194   4.163   6.695  0.7976  0.1739  0.0848
  131MOL0     C17584   3.136   4.152   6.827 -0.2318  0.3133 -0.0412
  131MOL0     O17585   3.011   4.187   6.862  0.7004  0.1609 -0.8885
  131MOL0     C17586   2.941   4.286   6.778  0.0848 -0.3405 -0.1055
  131MOL0     C17587   2.807   4.293   6.841  0.2156  0.0022 -0.7411
  131MOL0     C17588   2.713   4.371   6.762  0.4698 -0.1885  1.1660
  131MOL0     C17589   2.570   4.367   6.818  0.0716 -0.6910 -0.2549
  131MOL0     C17590   2.465   4.436   6.723  0.5032  0.1518  0.8503
  131MOL0     C17591   2.331   4.440   6.784  0.4920  1.1322  0.0927
  131MOL0     C17592   2.232   4.511   6.686 -0.4810  0.2316  0.9195
  131MOL0     C17593   2.103   4.569   6.745 -0.3956 -0.5269  0.3152
  131MOL0    Cl17594   2.022   4.678   6.616  0.2927 -0.0890 -0.1468
  131MOL0     C17595   3.223   4.138   6.936  1.2277 -0.4650  0.3148
  131MOL0     C17596   3.362   4.129   6.915  0.4875  0.4635  0.1516
  131MOL0     O17597   3.517   3.876   6.837 -0.5375  0.0854 -0.1464
  131MOL0     C17598   3.778   3.797   6.767  0.1629 -0.4234 -0.4008
  131MOL0     C17599   3.921   3.784   6.760  0.1876 -0.1392 -0.6744
  131MOL0     N17600   4.411   3.479   7.246  0.3882  1.1278  0.6166
  131MOL0     N17601   4.489   3.472   7.343 -0.2867  0.2609  0.0321
  131MOL0     C17602   5.608   3.544   6.953  0.3705  0.3579  0.2817
  131MOL0     C17603   5.723   3.564   6.879 -0.8568  0.4382  0.2205
  131MOL0     C17604   6.064   3.765   6.673 -0.2541 -0.3351 -0.0058
  131MOL0     C17605   6.149   3.661   6.712  0.1574 -0.0092  0.1248
  131MOL0     C17606   6.275   3.651   6.649 -0.3939  0.5597 -0.3982
  131MOL0     C17607   6.329   3.752   6.564 -0.2278 -0.2595 -0.6496
  131MOL0     O17608   6.462   3.755   6.513  0.5653  0.1136 -0.7307
  131MOL0     C17609   6.567   3.675   6.580  0.0744 -0.0275 -0.2038
  131MOL0     C17610   6.696   3.662   6.495 -0.1535  0.6078  0.6633
  131MOL0     C17611   6.785   3.547   6.561  0.0626 -0.7269  1.0196
  131MOL0     C17612   6.853   3.610   6.685 -0.5574 -0.0060 -0.2152
  131MOL0     C17613   6.858   3.507   6.789 -1.0314  0.3920 -0.7665
  131MOL0     C17614   6.868   3.424   6.879 -0.3963  0.3558 -0.1276
  131MOL0     C17615   6.241   3.860   6.541  0.1082 -0.1411  0.4445
  131MOL0     C17616   6.104   3.866   6.590  0.2607  0.8541 -0.0697
  131MOL0     C17617   6.034   3.997   6.563 -0.2939 -0.5066  0.0009
  131MOL0     H17618   5.811   3.859   7.025 -1.6859  0.6374  2.0642
  131MOL0     H17619   5.597   3.829   7.137  1.4804  0.0936  0.9094
  131MOL0     H17620   5.390   3.705   7.281  1.2091  1.5012  0.0879
  131MOL0     H17621   5.348   3.789   7.119  0.5846 -0.8092 -1.4568
  131MOL0     H17622   5.239   3.533   7.231 -1.5859 -0.9698  0.0135
  131MOL0     H17623   5.189   3.615   7.087 -0.0063 -0.1526 -0.6700
  131MOL0     H17624   5.134   3.812   7.246  0.2055  1.1932  2.7612
  131MOL0     H17625   5.184   3.709   7.387 -0.0285 -1.9098  0.0108
  131MOL0     H17626   4.965   3.629   7.208 -2.1495 -2.0053  1.0690
  131MOL0     H17627   5.034   3.549   7.349  1.5517  0.7061  1.3316
  131MOL0     H17628   4.958   3.714   7.503 -0.1502  3.0016 -0.0144
  131MOL0     H17629   4.924   3.824   7.368 -1.4440  0.3930  0.0046
  131MOL0     H17630   4.745   3.666   7.300  2.7870 -0.1966 -0.7197
  131MOL0     H17631   4.795   3.545   7.423 -0.6479  0.2131 -0.5071
  131MOL0     H17632   4.652   3.804   7.455  1.4302  0.8777  0.4699
  131MOL0     H17633   4.725   3.745   7.591 -3.8204 -0.6339  1.9605
  131MOL0     H17634   4.595   3.535   7.582  1.6587  1.0797  1.3028
  131MOL0     H17635   4.501   3.670   7.615 -0.6598 -2.0187  0.9734
  131MOL0     H17636   4.376   3.776   7.366 -0.2664  0.3412 -0.7869
  131MOL0     H17637   4.201   3.571   7.098  0.6625 -0.4796 -1.7896
  131MOL0     H17638   4.213   3.744   7.147  0.6802  0.2745  0.3150
  131MOL0     H17639   4.461   3.711   7.035  0.5152 -0.9711 -1.1244
  131MOL0     H17640   4.384   3.580   6.945  0.8574  1.9921 -3.4498
  131MOL0     H17641   4.398   3.776   6.824  0.5402 -0.7765  0.5772
  131MOL0     H17642   4.319   3.876   6.942 -1.8331  1.0768 -0.5601
  131MOL0     H17643   4.116   3.710   6.916  1.4536 -1.2101  1.4590
  131MOL0     H17644   4.187   3.686   6.755 -0.3071  0.4675 -0.8163
  131MOL0     H17645   4.029   4.102   6.744  1.4489 -2.0587  2.4214
  131MOL0     H17646   3.787   4.138   6.796  0.3534 -0.2039  0.7613
  131MOL0     H17647   3.361   4.148   6.574 -0.5373  3.6657  0.5555
  131MOL0     H17648   3.125   4.182   6.613 -0.0351  1.6577  1.0865
  131MOL0     H17649   2.994   4.381   6.773  2.3007 -1.1566  3.7534
  131MOL0     H17650   2.938   4.235   6.681  2.2850 -0.0686 -0.3729
  131MOL0     H17651   2.766   4.193   6.855 -0.2404  0.2787 -0.0324
  131MOL0     H17652   2.795   4.334   6.942 -3.4029 -1.3923 -0.4440
  131MOL0     H17653   2.749   4.475   6.764  0.3643  0.0910 -2.8385
  131MOL0     H17654   2.720   4.338   6.658  1.4336  2.4500  0.3007
  131MOL0     H17655   2.570   4.412   6.918 -1.8232  0.3471 -0.6697
  131MOL0     H17656   2.547   4.261   6.834  2.0278 -0.8442  2.2600
  131MOL0     H17657   2.458   4.383   6.627 -0.3675 -0.9440  1.5028
  131MOL0     H17658   2.494   4.540   6.701  0.4843  0.3443  1.7150
  131MOL0     H17659   2.298   4.341   6.814  4.4699  0.0986  1.7645
  131MOL0     H17660   2.332   4.498   6.877 -2.7953 -0.3050  1.1749
  131MOL0     H17661   2.206   4.459   6.593 -1.9416 -0.2596  1.5771
  131MOL0     H17662   2.286   4.600   6.652 -1.1905  0.0483 -0.7940
  131MOL0     H17663   2.043   4.487   6.784  3.6305 -5.2955 -2.3916
  131MOL0     H17664   2.135   4.632   6.828 -0.9650 -1.3285  1.1601
  131MOL0     H17665   3.177   4.129   7.034  0.3530  0.9745  0.0523
  131MOL0     H17666   3.426   4.116   7.002  1.1275  3.6313  0.2899
  131MOL0     H17667   3.700   3.722   6.765  0.0909 -0.3457 -0.5043
  131MOL0     H17668   3.955   3.683   6.777  0.9865  0.2350 -0.0235
  131MOL0     H17669   5.542   3.459   6.943 -3.6968  2.9410  2.5424
  131MOL0     H17670   5.776   3.491   6.820  0.6950  1.8298 -0.2011
  131MOL0     H17671   6.119   3.575   6.771 -0.2703  0.1470  0.1397
  131MOL0     H17672   6.331   3.560   6.662 -1.0010 -0.3281 -3.2755
  131MOL0     H17673   6.533   3.573   6.599  4.1599 -1.0208  2.9821
  131MOL0     H17674   6.588   3.727   6.674 -2.5361 -0.7970  0.8936
  131MOL0     H17675   6.733   3.764   6.478 -0.3415  1.4628  4.3476
  131MOL0     H17676   6.664   3.605   6.408  0.0686 -1.9737  2.1479
  131MOL0     H17677   6.867   3.509   6.499 -2.0820  0.0706 -2.5438
  131MOL0     H17678   6.721   3.460   6.577 -0.1548 -0.6190  0.7446
  131MOL0     H17679   6.951   3.657   6.670 -0.0122  0.0932  2.8374
  131MOL0     H17680   6.795   3.691   6.730  0.7880  0.6504  0.4048
  131MOL0     H17681   6.893   3.363   6.963  2.2193 -0.2098 -1.1949
  131MOL0     H17682   6.281   3.941   6.482  2.7550  0.3654  2.7134
  131MOL0     H17683   5.943   3.988   6.502  0.0015  1.5262 -0.8155
  131MOL0     H17684   6.001   4.040   6.658 -0.0478 -0.7519  0.1996
  131MOL0     H17685   6.101   4.062   6.507 -2.8200 -1.4957 -4.7546
  132MOL0     O17686   8.580   0.547  10.423 -0.3904 -0.2671  0.4132
  132MOL0     C17687   8.690   0.536  10.469 -1.0801  0.4364 -0.4225
  132MOL0     O17688   8.731   0.430  10.554  0.2948  0.5184  0.7436
  132MOL0     C17689   8.636   0.337  10.590  0.0345  0.0741 -0.4210
  132MOL0     C17690   8.594   0.224  10.522  0.7010  0.5014 -0.3120
  132MOL0     C17691   8.488   0.143  10.570  0.1895  0.5350 -0.1354
  132MOL0     C17692   8.429   0.171  10.692  0.2955  0.8017  1.1439
  132MOL0     O17693   8.327   0.082  10.735  0.0106  0.2578 -0.2536
  132MOL0     C17694   8.210   0.141  10.798  0.5692  0.2972  0.1078
  132MOL0     C17695   8.094   0.111  10.705  0.2663 -0.5498 -0.0097
  132MOL0     C17696   8.097   0.193  10.576  0.0987 -0.7850  0.4529
  132MOL0     C17697   7.989   0.152  10.480  0.4445 -0.5360 -0.3772
  132MOL0     C17698   8.016   0.193  10.334  0.1891  0.0962  0.1480
  132MOL0     C17699   7.892   0.170  10.250  0.2965  0.5923  0.4084
  132MOL0     C17700   7.923   0.209  10.110 -0.7829 -0.0106  0.7938
  132MOL0     C17701   7.827   0.162  10.005  0.3246  0.9894  0.0483
  132MOL0     N17702   7.845   0.014   9.984 -0.3922  0.5997 -0.0664
  132MOL0     C17703   7.957  -0.049   9.944  0.4856 -0.8269  0.4540
  132MOL0     C17704   7.929  -0.181   9.938  0.2106  0.0313 -0.6907
  132MOL0     C17705   8.035  -0.286   9.928 -0.1445 -0.0087  0.0125
  132MOL0     C17706   8.050  -0.373  10.057  0.4850  0.2531 -0.4581
  132MOL0     C17707   8.139  -0.499  10.024  0.2462 -0.1323 -0.4467
  132MOL0     C17708   8.284  -0.468  10.031 -0.0690  0.2206  0.2828
  132MOL0     O17709   8.329  -0.428  10.161 -0.3469 -0.5424 -0.2092
  132MOL0     C17710   8.457  -0.359  10.169  0.2490  0.2824  0.5187
  132MOL0     C17711   8.467  -0.244  10.247 -0.2668  0.4268  0.1840
  132MOL0     C17712   8.596  -0.201  10.283  0.5311 -0.2940  0.1095
  132MOL0     C17713   8.711  -0.252  10.222 -0.3604  0.0763  0.1489
  132MOL0     C17714   8.838  -0.181  10.246 -0.5472  0.0936  0.2819
  132MOL0     O17715   8.946  -0.229  10.175 -0.2924  0.0604 -0.4050
  132MOL0     C17716   9.069  -0.216  10.219  0.0128 -0.4411 -0.1046
  132MOL0     C17717   9.159  -0.172  10.120 -0.2872  1.2212  0.3527
  132MOL0     C17718   9.294  -0.139  10.148  0.3265  0.4652 -0.5950
  132MOL0     C17719   9.344  -0.151  10.284  0.3155  0.0517  0.1435
  132MOL0     O17720   9.478  -0.115  10.311 -0.5480  0.3355  0.1965
  132MOL0     C17721   9.509  -0.057  10.441  0.1608  0.5256  0.2340
  132MOL0     C17722   9.440   0.076  10.454 -0.9651 -0.2549  0.5395
  132MOL0     C17723   9.496   0.160  10.566  0.5015 -0.1368 -1.2797
  132MOL0     C17724   9.492   0.089  10.705  0.1187  0.4002 -0.1389
  132MOL0     C17725   9.348   0.068  10.759  0.5604  1.2013  0.6402
  132MOL0     C17726   9.345   0.004  10.891  0.5640  0.0683  0.2294
  132MOL0     C17727   9.243   0.076  10.980  0.5452 -0.0160  0.2470
  132MOL0     C17728   9.251   0.030  11.128  0.1897 -0.3862  0.3442
  132MOL0    Cl17729   9.218  -0.138  11.172 -0.0130  0.5711  0.0900
  132MOL0     C17730   9.254  -0.198  10.380  0.6506 -0.2355 -0.2820
  132MOL0     C17731   9.123  -0.234  10.344  0.1061  0.0673  0.3984
  132MOL0     O17732   8.847  -0.100  10.342  0.8295 -0.3470  0.8937
  132MOL0     C17733   8.701  -0.363  10.139  0.5708 -0.2129 -0.3852
  132MOL0     C17734   8.574  -0.420  10.113 -0.4775  1.3960  0.4382
  132MOL0     N17735   7.792  -0.196   9.962  0.2673 -0.1263 -0.7018
  132MOL0     N17736   7.745  -0.076   9.989  0.2644  0.5700  0.5436
  132MOL0     C17737   8.484   0.264  10.776 -0.2913 -0.8972  0.2359
  132MOL0     C17738   8.587   0.348  10.727  0.1669  0.5529 -0.3833
  132MOL0     C17739   8.792   0.645  10.451  0.1989 -0.3620 -0.8306
  132MOL0     C17740   8.881   0.672  10.554  0.1027 -0.4679  0.0647
  132MOL0     C17741   8.978   0.773  10.554 -1.3963  0.4253 -0.7451
  132MOL0     C17742   8.989   0.855  10.446 -0.0716 -0.3673 -1.0126
  132MOL0     O17743   9.069   0.965  10.455  0.1448 -1.0810 -0.2656
  132MOL0     C17744   9.008   1.091  10.487 -0.3267  0.1126 -1.0397
  132MOL0     C17745   9.046   1.138  10.626  0.5114 -0.3849 -0.0780
  132MOL0     C17746   9.187   1.120  10.665  0.7128  0.6942 -0.1692
  132MOL0     C17747   9.259   1.249  10.596  1.0390  0.3096 -0.0948
  132MOL0     C17748   9.390   1.211  10.561  0.1980  0.1402 -0.5779
  132MOL0     C17749   9.513   1.203  10.538  0.1167 -0.0724 -0.3297
  132MOL0     C17750   8.910   0.832  10.337  0.5738  0.3002  0.0159
  132MOL0     C17751   8.814   0.717  10.331  0.4810  0.0897  0.3682
  132MOL0     C17752   8.742   0.692  10.203  0.4555 -0.4640 -0.2956
  132MOL0     H17753   8.629   0.204  10.421 -1.4512  1.8466 -1.4162
  132MOL0     H17754   8.443   0.073  10.500  0.5517 -0.4246  0.5742
  132MOL0     H17755   8.194   0.083  10.889  1.9532 -0.3904 -0.0598
  132MOL0     H17756   8.213   0.248  10.819  0.6666  0.0915  1.2259
  132MOL0     H17757   7.994   0.131  10.744 -0.6198  2.1152 -3.1622
  132MOL0     H17758   8.103   0.003  10.686 -2.2434 -0.6846 -0.8947
  132MOL0     H17759   8.196   0.193  10.528  0.3334 -2.4021  0.8771
  132MOL0     H17760   8.087   0.298  10.605  0.1913 -0.0155 -2.1100
  132MOL0     H17761   7.985   0.042  10.484  0.2722 -0.5760 -1.5175
  132MOL0     H17762   7.893   0.195  10.510  0.4197  0.4989 -1.8764
  132MOL0     H17763   8.056   0.294  10.329  0.5437 -0.0386  0.2283
  132MOL0     H17764   8.101   0.145  10.286  2.1896  1.3431  2.2359
  132MOL0     H17765   7.880   0.063  10.269  2.2795  0.1132 -0.7106
  132MOL0     H17766   7.793   0.203  10.282  0.6421  0.4448  1.6567
  132MOL0     H17767   8.027   0.180  10.091  0.0204  1.9682  1.8425
  132MOL0     H17768   7.914   0.318  10.104 -1.0423 -0.0912 -0.3369
  132MOL0     H17769   7.720   0.183  10.014 -0.0901 -0.8061 -0.3257
  132MOL0     H17770   7.847   0.206   9.907  0.8595 -0.3167 -0.4507
  132MOL0     H17771   8.053  -0.003   9.925 -0.3442 -0.1601 -2.6629
  132MOL0     H17772   8.018  -0.353   9.843  0.1687  0.9093 -0.7966
  132MOL0     H17773   8.131  -0.236   9.913 -1.0298  1.4667 -1.0584
  132MOL0     H17774   8.091  -0.312  10.138  1.7549  1.0971 -1.6781
  132MOL0     H17775   7.947  -0.409  10.065  0.8823 -0.9740 -0.6647
  132MOL0     H17776   8.114  -0.542   9.926 -1.2923  0.9418 -0.5756
  132MOL0     H17777   8.115  -0.561  10.111 -1.7707  0.7173 -0.3412
  132MOL0     H17778   8.299  -0.381   9.967  0.0074  0.9211  1.2349
  132MOL0     H17779   8.339  -0.556   9.995  0.8967  1.5192 -1.6556
  132MOL0     H17780   8.386  -0.199  10.304  2.6142  0.7951  4.4194
  132MOL0     H17781   8.612  -0.113  10.344  0.5472  0.0678 -0.4104
  132MOL0     H17782   9.123  -0.144  10.021  0.1744  0.2253 -0.1169
  132MOL0     H17783   9.351  -0.112  10.060 -0.1555 -1.9883 -1.7245
  132MOL0     H17784   9.466  -0.122  10.519 -1.0116 -0.9362 -1.5325
  132MOL0     H17785   9.614  -0.032  10.457  0.6070  0.0618 -1.6902
  132MOL0     H17786   9.439   0.129  10.358  0.4130  1.4723  1.3980
  132MOL0     H17787   9.337   0.059  10.486 -1.6771  0.1911 -1.4137
  132MOL0     H17788   9.601   0.183  10.547  1.6022 -1.7788  2.0392
  132MOL0     H17789   9.446   0.257  10.578 -0.1557 -0.4418 -1.5134
  132MOL0     H17790   9.549   0.154  10.772  1.5703  1.0497 -1.9454
  132MOL0     H17791   9.548  -0.004  10.716 -0.2665  0.3925  2.4127
  132MOL0     H17792   9.296   0.004  10.687  1.1428  1.0156  0.3814
  132MOL0     H17793   9.300   0.167  10.759  1.9232  1.8808  1.1143
  132MOL0     H17794   9.312  -0.099  10.873  2.1883 -0.5333  0.4950
  132MOL0     H17795   9.445   0.006  10.936  1.2586  1.3177 -1.2388
  132MOL0     H17796   9.143   0.042  10.951  1.5631 -2.9765 -0.1584
  132MOL0     H17797   9.252   0.185  10.975  0.9746 -0.0497  0.2520
  132MOL0     H17798   9.352   0.054  11.160  1.0213 -1.0890 -1.6260
  132MOL0     H17799   9.179   0.097  11.176  1.6825  0.2220  1.8057
  132MOL0     H17800   9.290  -0.217  10.480 -1.2511  1.0851  0.7304
  132MOL0     H17801   9.059  -0.262  10.427  1.7512 -3.9712  0.5411
  132MOL0     H17802   8.797  -0.394  10.100  0.0834  0.4322 -2.2023
  132MOL0     H17803   8.580  -0.506  10.048 -1.8185 -2.8178  5.2469
  132MOL0     H17804   8.458   0.259  10.881 -0.2188 -2.2830  0.2160
  132MOL0     H17805   8.621   0.434  10.784  0.3467  1.9011 -2.4395
  132MOL0     H17806   8.881   0.613  10.645  0.4045  0.5580  0.7471
  132MOL0     H17807   9.040   0.789  10.642 -1.5118  1.1269 -0.7867
  132MOL0     H17808   8.899   1.082  10.485 -0.2765 -2.2966  1.0271
  132MOL0     H17809   9.048   1.163  10.415  1.7128 -0.2499 -0.3245
  132MOL0     H17810   8.990   1.093  10.709 -0.4880  1.7010  0.4556
  132MOL0     H17811   9.013   1.242  10.639 -0.3879 -0.6603 -0.1190
  132MOL0     H17812   9.225   1.026  10.624  2.1158 -0.2727  3.0023
  132MOL0     H17813   9.210   1.117  10.772 -2.4095  2.6636  0.6831
  132MOL0     H17814   9.204   1.273  10.504 -0.1142  0.4216  0.6143
  132MOL0     H17815   9.255   1.337  10.660  1.6974  0.8274 -0.7426
  132MOL0     H17816   9.618   1.207  10.516 -0.2878 -1.1993 -2.8443
  132MOL0     H17817   8.915   0.884  10.242 -0.1965 -1.2269 -0.9158
  132MOL0     H17818   8.794   0.709  10.108 -2.1340  3.0683 -1.2578
  132MOL0     H17819   8.713   0.587  10.188  2.2259 -0.7850 -1.9714
  132MOL0     H17820   8.655   0.756  10.195  1.4180  0.7051 -2.1066
  133MOL0     O17821   2.770   1.524   6.929 -0.3560  0.4129 -0.0035
  133MOL0     C17822   2.655   1.563   6.926 -0.0412  0.4749 -0.7812
  133MOL0     O17823   2.610   1.693   6.915 -0.5446 -0.2704  0.0350
  133MOL0     C17824   2.702   1.794   6.914  0.1257  0.1455 -0.1265
  133MOL0     C17825   2.641   1.911   6.947  0.2809  0.2567  0.9209
  133MOL0     C17826   2.703   2.036   6.927  0.0486 -0.5969  0.0748
  133MOL0     C17827   2.834   2.045   6.873  0.8559  0.4031 -0.2507
  133MOL0     O17828   2.889   2.170   6.859 -0.1275 -0.2973 -0.1016
  133MOL0     C17829   2.913   2.247   6.975 -0.0681 -0.5981 -0.8202
  133MOL0     C17830   2.994   2.177   7.090  1.2172 -0.5733 -1.1392
  133MOL0     C17831   3.128   2.132   7.022  0.2032  0.0974  0.3556
  133MOL0     C17832   3.214   2.053   7.127  0.4960 -0.1217  0.1691
  133MOL0     C17833   3.364   2.039   7.094 -0.0879 -0.9271  0.2707
  133MOL0     C17834   3.393   1.897   7.031  0.4822 -0.3615 -0.0134
  133MOL0     C17835   3.523   1.880   6.949  0.6873 -0.3382 -0.9637
  133MOL0     C17836   3.639   1.871   7.046 -0.4906 -0.2032  0.9488
  133MOL0     N17837   3.751   1.939   6.984  0.5822 -0.8251 -0.1753
  133MOL0     C17838   3.836   2.021   7.060 -0.1729 -1.0202 -0.0937
  133MOL0     C17839   3.938   2.041   6.971  0.1928  0.3921 -0.7241
  133MOL0     C17840   4.069   2.110   6.997 -0.3038  0.1447  0.7017
  133MOL0     C17841   4.152   2.055   7.111  0.6010  0.6752 -0.1790
  133MOL0     C17842   4.215   1.918   7.081 -0.1744 -0.5894 -0.1187
  133MOL0     C17843   4.338   1.918   6.993 -0.3968 -0.3469 -0.5435
  133MOL0     O17844   4.444   2.022   7.028  0.2141 -0.6754  0.0286
  133MOL0     C17845   4.558   2.026   6.953  0.4328 -0.2719 -0.4501
  133MOL0     C17846   4.606   2.143   6.895  0.2935 -0.2820  0.6093
  133MOL0     C17847   4.720   2.147   6.811  0.1362  1.0418  0.1915
  133MOL0     C17848   4.794   2.027   6.792  0.1022  0.4845  1.4416
  133MOL0     C17849   4.900   2.021   6.693 -0.4377 -0.3017  0.1341
  133MOL0     O17850   4.937   2.142   6.643 -0.2219 -0.2222 -0.3636
  133MOL0     C17851   5.034   2.166   6.550 -0.0409  0.6215 -0.2430
  133MOL0     C17852   5.114   2.064   6.490 -0.2111  0.2996  0.0912
  133MOL0     C17853   5.200   2.103   6.385  0.4898  0.1542 -0.0625
  133MOL0     C17854   5.207   2.236   6.330  0.3914  0.1082  0.0873
  133MOL0     O17855   5.279   2.250   6.206 -0.0789 -0.1169 -0.4282
  133MOL0     C17856   5.403   2.338   6.231  0.9845  0.3563  0.4765
  133MOL0     C17857   5.523   2.280   6.313  0.1923 -0.2828  0.8078
  133MOL0     C17858   5.621   2.197   6.226  0.3025  0.0025  0.2525
  133MOL0     C17859   5.746   2.187   6.305 -0.3563 -0.2412 -0.0897
  133MOL0     C17860   5.840   2.073   6.260 -0.7499  0.5179 -0.0879
  133MOL0     C17861   5.916   2.090   6.126  0.4529 -0.2555 -0.8490
  133MOL0     C17862   6.017   1.975   6.080  0.3154  0.1951 -0.0270
  133MOL0     C17863   6.064   1.991   5.936 -0.9442  0.3345  0.1289
  133MOL0    Cl17864   6.144   2.156   5.903  0.5086 -0.1521 -0.3418
  133MOL0     C17865   5.117   2.327   6.383 -1.0334 -0.3167  0.1656
  133MOL0     C17866   5.031   2.296   6.494 -0.7413  0.2427 -0.0761
  133MOL0     O17867   4.955   1.912   6.676  0.9689 -0.0179  0.0450
  133MOL0     C17868   4.754   1.916   6.859 -0.0732 -0.1047  0.8140
  133MOL0     C17869   4.634   1.916   6.931  0.1501  0.5995  0.4949
  133MOL0     N17870   3.906   1.978   6.849  0.8147  0.8106 -0.6202
  133MOL0     N17871   3.783   1.927   6.855 -0.0488 -0.2734 -0.2892
  133MOL0     C17872   2.898   1.923   6.833  0.5327  0.0578  0.5073
  133MOL0     C17873   2.836   1.796   6.858 -0.2281 -0.0041 -0.0543
  133MOL0     C17874   2.552   1.451   6.938  0.8987  0.2717  0.0889
  133MOL0     C17875   2.605   1.324   6.973 -0.1692 -0.3750  0.0142
  133MOL0     C17876   2.526   1.211   6.958 -0.4842  0.0026  0.0211
  133MOL0     C17877   2.393   1.226   6.936  1.0947  0.6846  0.6334
  133MOL0     O17878   2.326   1.109   6.943 -0.6207 -0.8298  0.1030
  133MOL0     C17879   2.200   1.095   6.871  0.2700  0.8465  0.0283
  133MOL0     C17880   2.146   0.958   6.900  0.4892 -0.0778 -0.5939
  133MOL0     C17881   2.101   0.948   7.044  0.4148 -0.4954 -0.2773
  133MOL0     C17882   2.094   0.801   7.088  0.7390  0.1096  0.8416
  133MOL0     C17883   2.115   0.786   7.229  0.4375 -0.0495  0.5755
  133MOL0     C17884   2.149   0.772   7.341  0.0361 -0.5217  0.5026
  133MOL0     C17885   2.345   1.359   6.910 -0.1349  0.6519 -0.0354
  133MOL0     C17886   2.416   1.475   6.903  0.5315  0.7260  0.0708
  133MOL0     C17887   2.345   1.606   6.867 -0.1698  0.3622  0.1981
  133MOL0     H17888   2.540   1.906   6.987  0.1072  1.3012  0.6529
  133MOL0     H17889   2.641   2.121   6.950  3.0679  1.5732  0.7697
  133MOL0     H17890   2.967   2.338   6.945  2.8532 -1.6746  0.7151
  133MOL0     H17891   2.816   2.270   7.020  0.1406 -3.1103  1.0990
  133MOL0     H17892   2.939   2.096   7.137  1.9789  1.9392  5.0273
  133MOL0     H17893   3.018   2.258   7.160  0.3396  0.5280 -2.0676
  133MOL0     H17894   3.186   2.220   6.992  1.1672 -0.5082  0.4157
  133MOL0     H17895   3.115   2.073   6.931  0.3776  1.3447 -0.5062
  133MOL0     H17896   3.198   2.108   7.220  1.5526  0.5566 -0.0313
  133MOL0     H17897   3.165   1.958   7.147  0.8863 -0.0165  1.7798
  133MOL0     H17898   3.398   2.117   7.025 -0.4733 -1.8488 -0.9921
  133MOL0     H17899   3.432   2.055   7.178 -2.7126 -0.1102  2.3926
  133MOL0     H17900   3.386   1.815   7.104 -0.7051 -0.9610 -0.7836
  133MOL0     H17901   3.307   1.871   6.970  0.7595  1.4295 -1.2473
  133MOL0     H17902   3.525   1.952   6.866 -0.1703  1.9452  0.8860
  133MOL0     H17903   3.516   1.785   6.896 -0.3773 -0.1138 -1.2546
  133MOL0     H17904   3.613   1.923   7.138 -2.1153  4.0568 -1.6256
  133MOL0     H17905   3.663   1.766   7.067  0.2633  0.3450  2.9814
  133MOL0     H17906   3.814   2.062   7.158 -0.9480 -1.3907 -0.1046
  133MOL0     H17907   4.127   2.111   6.905  1.1383 -1.2095  1.5578
  133MOL0     H17908   4.039   2.209   7.033 -0.3378 -0.4575  2.4424
  133MOL0     H17909   4.234   2.125   7.127 -0.7739  3.0269 -2.5207
  133MOL0     H17910   4.089   2.053   7.201 -0.3371 -3.1390 -0.7599
  133MOL0     H17911   4.146   1.844   7.038 -0.6451 -0.4451  0.3813
  133MOL0     H17912   4.251   1.876   7.175 -0.9985  1.3647  1.1375
  133MOL0     H17913   4.292   1.943   6.897 -2.8118  0.4020  0.7066
  133MOL0     H17914   4.377   1.816   7.002 -0.6298 -0.3519  0.5191
  133MOL0     H17915   4.541   2.227   6.917 -1.6733 -1.2320 -1.2710
  133MOL0     H17916   4.744   2.237   6.755  0.4354  0.6205 -0.3738
  133MOL0     H17917   5.116   1.960   6.517 -1.2477  0.4490  0.8090
  133MOL0     H17918   5.261   2.032   6.331 -0.6672 -0.3463 -0.7622
  133MOL0     H17919   5.442   2.338   6.129 -0.6336 -3.0331 -0.2868
  133MOL0     H17920   5.375   2.439   6.264  1.8830  1.3842 -1.7064
  133MOL0     H17921   5.576   2.367   6.353 -0.9401  0.3310  1.0261
  133MOL0     H17922   5.492   2.202   6.382  2.5279 -2.2543 -0.2192
  133MOL0     H17923   5.573   2.101   6.208 -0.7955  0.5149  0.3294
  133MOL0     H17924   5.639   2.252   6.133  2.9825 -1.1295  0.0196
  133MOL0     H17925   5.728   2.164   6.410  1.1420  0.1071  0.2567
  133MOL0     H17926   5.805   2.278   6.313  0.8201 -1.1135  1.6517
  133MOL0     H17927   5.781   1.981   6.260  0.3501 -0.1998  0.2947
  133MOL0     H17928   5.908   2.061   6.344 -0.4443  0.7845 -0.2950
  133MOL0     H17929   5.840   2.107   6.049 -0.9291 -1.0121  0.2998
  133MOL0     H17930   5.984   2.175   6.125 -0.8897  0.8943  0.2718
  133MOL0     H17931   5.977   1.874   6.091  1.2790 -0.2903 -0.8173
  133MOL0     H17932   6.107   1.970   6.142 -0.0107 -0.5935  0.4061
  133MOL0     H17933   6.151   1.927   5.918 -0.2965  1.5607 -1.2896
  133MOL0     H17934   5.986   1.965   5.864 -0.7855  0.0567  0.0571
  133MOL0     H17935   5.106   2.417   6.323 -0.7710 -0.0596  0.4989
  133MOL0     H17936   4.968   2.366   6.549 -1.3032  0.9770 -1.5848
  133MOL0     H17937   4.814   1.826   6.850 -0.7916 -0.4312 -1.2953
  133MOL0     H17938   4.606   1.825   6.984  1.4947 -0.8546 -1.1397
  133MOL0     H17939   3.001   1.936   6.801  0.5307 -0.1660  0.4101
  133MOL0     H17940   2.887   1.706   6.823 -0.6790 -0.2612 -0.0554
  133MOL0     H17941   2.708   1.304   7.000 -0.5180 -3.3973 -0.4811
  133MOL0     H17942   2.580   1.118   6.974  0.2534  0.3612 -0.3239
  133MOL0     H17943   2.230   1.091   6.766  2.1414  0.2367  0.5514
  133MOL0     H17944   2.132   1.177   6.896  0.5986  0.4201  2.6818
  133MOL0     H17945   2.227   0.885   6.892 -1.0474 -2.1152  1.1000
  133MOL0     H17946   2.070   0.928   6.827 -0.7754  0.6755  0.3544
  133MOL0     H17947   2.011   1.006   7.068  1.0108  0.0613  0.6762
  133MOL0     H17948   2.179   0.993   7.106 -0.1919  1.7930 -1.0474
  133MOL0     H17949   2.000   0.752   7.060 -1.4007  1.9293  4.1577
  133MOL0     H17950   2.179   0.746   7.046  0.8486  0.2283  0.9099
  133MOL0     H17951   2.158   0.751   7.446 -1.4193 -1.3888  0.4805
  133MOL0     H17952   2.238   1.378   6.903  0.1767  2.3494 -0.5960
  133MOL0     H17953   2.411   1.668   6.806  2.3859  0.9334  3.2542
  133MOL0     H17954   2.258   1.588   6.803  0.2312 -1.2281  0.0434
  133MOL0     H17955   2.326   1.667   6.956 -0.6066  3.3747 -1.8350
  134MOL0     O17956   5.603   0.378   9.570 -0.3249 -0.9712 -0.3371
  134MOL0     C17957   5.715   0.344   9.525  0.9119  0.3996 -0.6699
  134MOL0     O17958   5.732   0.270   9.408  0.4356 -0.3319 -0.5423
  134MOL0     C17959   5.618   0.227   9.348  0.1310  0.1603 -1.3963
  134MOL0     C17960   5.572   0.104   9.374  0.4826 -0.1271  0.2935
  134MOL0     C17961   5.450   0.057   9.320 -0.1360  0.8667  1.1280
  134MOL0     C17962   5.373   0.136   9.229 -0.5330 -0.6144  0.3965
  134MOL0     O17963   5.262   0.098   9.164  0.4138 -0.0567 -0.4942
  134MOL0     C17964   5.256  -0.031   9.121  0.8856 -0.1133 -0.1170
  134MOL0     C17965   5.128  -0.051   9.039  0.3177 -0.3949  0.9669
  134MOL0     C17966   5.013  -0.093   9.120  1.2425  0.0250 -1.5571
  134MOL0     C17967   4.954   0.028   9.204  0.4202  0.1992  0.3274
  134MOL0     C17968   4.806   0.016   9.242  0.5240  0.3261  0.5293
  134MOL0     C17969   4.755   0.138   9.326 -0.5325 -0.5547 -0.1464
  134MOL0     C17970   4.631   0.105   9.407 -0.1950  0.1660  0.0503
  134MOL0     C17971   4.562   0.221   9.467  0.0599 -0.0363 -0.2794
  134MOL0     N17972   4.438   0.263   9.394 -0.1413 -0.5588  0.6373
  134MOL0     C17973   4.432   0.301   9.267 -0.0750 -0.7077  0.6682
  134MOL0     C17974   4.303   0.348   9.246  0.9042  0.2387 -0.1430
  134MOL0     C17975   4.210   0.406   9.135  0.2181  0.4979  0.0207
  134MOL0     C17976   4.071   0.341   9.147  0.5254  0.7440 -0.7282
  134MOL0     C17977   4.018   0.335   9.008  0.4986 -0.4774  0.1247
  134MOL0     C17978   4.053   0.207   8.941  0.9075 -0.0243 -0.2299
  134MOL0     O17979   3.998   0.185   8.809 -0.3317  0.4966 -0.4102
  134MOL0     C17980   3.865   0.202   8.792  0.7542  0.2906  0.1032
  134MOL0     C17981   3.758   0.158   8.871 -0.1078 -0.4808 -0.6291
  134MOL0     C17982   3.628   0.163   8.836 -0.1430  0.6058 -0.2468
  134MOL0     C17983   3.590   0.207   8.709 -1.1740 -0.3061 -0.5977
  134MOL0     C17984   3.446   0.193   8.670  0.0729 -0.1376  1.5136
  134MOL0     O17985   3.379   0.100   8.724  0.0651  0.2598  0.1975
  134MOL0     C17986   3.239   0.115   8.726 -0.0424 -0.1170 -0.0428
  134MOL0     C17987   3.156   0.065   8.625  0.0182 -0.5782  0.1841
  134MOL0     C17988   3.025   0.096   8.620 -0.1554  0.2386  0.3728
  134MOL0     C17989   2.962   0.160   8.729  0.3154 -0.1263 -0.9864
  134MOL0     O17990   2.819   0.163   8.716  0.0779  0.0728 -0.1408
  134MOL0     C17991   2.757   0.262   8.798 -0.7170 -0.2280  1.2176
  134MOL0     C17992   2.605   0.236   8.789  0.4143  0.1987  0.3488
  134MOL0     C17993   2.526   0.349   8.869  0.1786  0.2298  0.0020
  134MOL0     C17994   2.386   0.297   8.916  0.0249  0.5590 -0.2380
  134MOL0     C17995   2.278   0.399   8.944 -0.8493  0.1665 -0.0273
  134MOL0     C17996   2.253   0.476   8.811 -0.4064  0.5368  0.6473
  134MOL0     C17997   2.130   0.559   8.816  0.4994 -0.5110  0.5372
  134MOL0     C17998   2.037   0.544   8.698  0.4266 -0.0227 -0.5845
  134MOL0    Cl17999   2.117   0.615   8.544  0.7018  0.5002 -0.1678
  134MOL0     C18000   3.036   0.204   8.835  0.2525 -0.1274  0.2881
  134MOL0     C18001   3.176   0.179   8.833 -0.6889 -0.0268  0.8623
  134MOL0     O18002   3.407   0.263   8.577 -0.0803  0.1795 -0.3155
  134MOL0     C18003   3.691   0.246   8.617  0.5883 -0.2867  0.3460
  134MOL0     C18004   3.827   0.247   8.661  0.7982  0.9085 -0.1258
  134MOL0     N18005   4.242   0.330   9.365 -0.1221  0.0083  0.3891
  134MOL0     N18006   4.319   0.269   9.445  0.2527 -0.4855 -0.5175
  134MOL0     C18007   5.409   0.270   9.219 -1.1041 -0.0823  0.3802
  134MOL0     C18008   5.532   0.309   9.272 -0.9931  0.6225  0.7638
  134MOL0     C18009   5.839   0.385   9.606  0.1927 -0.6072  0.6869
  134MOL0     C18010   5.966   0.357   9.549  0.6690  0.5227  0.0682
  134MOL0     C18011   6.090   0.404   9.614  0.3406  0.3168  0.3886
  134MOL0     C18012   6.080   0.464   9.736  0.3025 -0.2179  0.3635
  134MOL0     O18013   6.200   0.501   9.788 -0.3641  0.3578  0.2645
  134MOL0     C18014   6.225   0.570   9.905 -0.1438  0.1617  0.5900
  134MOL0     C18015   6.371   0.542   9.953  0.9953  0.1160 -0.7088
  134MOL0     C18016   6.482   0.603   9.860 -1.2992 -0.1278  0.2712
  134MOL0     C18017   6.624   0.573   9.901  0.2215  0.7826 -0.4296
  134MOL0     C18018   6.661   0.641  10.032 -0.0664 -1.0648  0.4967
  134MOL0     C18019   6.681   0.697  10.146 -0.0204 -0.8723  0.4566
  134MOL0     C18020   5.950   0.477   9.798  0.9195  1.3664  0.0377
  134MOL0     C18021   5.830   0.452   9.733  0.7299  0.2551 -0.0498
  134MOL0     C18022   5.701   0.486   9.815  1.0002 -0.4636 -0.0669
  134MOL0     H18023   5.626   0.033   9.437 -1.6275 -1.2020  0.9891
  134MOL0     H18024   5.404  -0.028   9.368 -2.7213  2.3596  1.4640
  134MOL0     H18025   5.338  -0.061   9.055 -0.6498 -2.7561 -0.9712
  134MOL0     H18026   5.250  -0.097   9.208 -3.7738 -0.7690 -0.7101
  134MOL0     H18027   5.152  -0.120   8.958  1.7458  1.6241 -0.4161
  134MOL0     H18028   5.101   0.044   8.992  0.8161  0.4491  2.3110
  134MOL0     H18029   5.027  -0.177   9.188 -2.7586  0.7740  0.5348
  134MOL0     H18030   4.936  -0.132   9.053  0.1799  0.5444 -0.6660
  134MOL0     H18031   5.014   0.035   9.295 -0.7005  2.2721  0.9789
  134MOL0     H18032   4.974   0.117   9.143 -0.0656 -0.5010 -0.8917
  134MOL0     H18033   4.749   0.027   9.149  2.3569 -1.4597 -0.9011
  134MOL0     H18034   4.791  -0.081   9.290 -1.9420  0.1720 -0.3981
  134MOL0     H18035   4.824   0.171   9.404 -1.3113 -0.2269  0.4244
  134MOL0     H18036   4.741   0.222   9.258  2.4215  2.4380  2.5611
  134MOL0     H18037   4.668   0.041   9.489  0.4108  1.3209  0.7027
  134MOL0     H18038   4.556   0.047   9.352 -1.5334  1.7570  0.1374
  134MOL0     H18039   4.521   0.186   9.563 -0.5827 -2.0532 -1.2344
  134MOL0     H18040   4.624   0.306   9.498 -0.5093  1.0841 -2.0454
  134MOL0     H18041   4.511   0.290   9.194 -0.5379 -0.2838  0.0969
  134MOL0     H18042   4.204   0.514   9.154 -2.3637  0.4133  0.0678
  134MOL0     H18043   4.252   0.391   9.035  1.6186  0.7474  0.5471
  134MOL0     H18044   4.071   0.242   9.195  0.3620  1.2505  0.3489
  134MOL0     H18045   4.001   0.401   9.205  3.9651  3.1144  1.3782
  134MOL0     H18046   4.055   0.421   8.953 -0.9579  0.5538  0.7070
  134MOL0     H18047   3.910   0.352   9.007  0.5396  0.1206  2.0975
  134MOL0     H18048   4.014   0.123   9.000  0.4611  2.6205  3.6057
  134MOL0     H18049   4.161   0.189   8.946  1.2955  1.6268 -1.9194
  134MOL0     H18050   3.779   0.130   8.974 -0.5562  1.6786  0.1138
  134MOL0     H18051   3.553   0.142   8.911 -0.7658 -1.9487 -1.4709
  134MOL0     H18052   3.196   0.011   8.540 -1.6133  2.3486 -2.6648
  134MOL0     H18053   2.962   0.048   8.545  0.5691  0.4668 -0.3904
  134MOL0     H18054   2.791   0.240   8.900  1.0325 -1.4955  0.4175
  134MOL0     H18055   2.779   0.364   8.765 -1.4045  0.3838  2.5900
  134MOL0     H18056   2.563   0.236   8.688  2.4951 -0.1385 -0.5751
  134MOL0     H18057   2.595   0.139   8.839 -0.1039  1.4452  2.7632
  134MOL0     H18058   2.588   0.382   8.952  2.3812 -1.4391 -0.8798
  134MOL0     H18059   2.509   0.431   8.798 -0.5415 -0.5804 -0.7824
  134MOL0     H18060   2.396   0.234   9.006  0.5817  0.0431 -0.6517
  134MOL0     H18061   2.349   0.225   8.843  2.3250 -1.5377  0.5127
  134MOL0     H18062   2.304   0.456   9.034 -0.0661  0.5552 -0.4893
  134MOL0     H18063   2.193   0.337   8.975  0.3204 -2.0647 -1.0285
  134MOL0     H18064   2.342   0.534   8.785 -0.8513  0.4005 -1.3461
  134MOL0     H18065   2.243   0.401   8.732  0.6522  0.1320  0.8769
  134MOL0     H18066   2.158   0.664   8.824 -1.0476 -0.0122 -0.2256
  134MOL0     H18067   2.077   0.531   8.907  2.0953 -3.2881  0.7461
  134MOL0     H18068   1.993   0.444   8.685 -2.7421  1.2478 -0.4541
  134MOL0     H18069   1.942   0.588   8.731  0.2327 -1.4984  0.9537
  134MOL0     H18070   3.014   0.250   8.931 -0.0514 -1.8365  1.0787
  134MOL0     H18071   3.245   0.214   8.908 -0.0223 -0.8848  0.6679
  134MOL0     H18072   3.672   0.269   8.513 -0.0163 -1.7661  0.1013
  134MOL0     H18073   3.907   0.270   8.591  0.4646 -1.5178 -1.4194
  134MOL0     H18074   5.344   0.331   9.156 -0.9764  1.8196  1.9730
  134MOL0     H18075   5.557   0.409   9.238 -1.5983 -0.0921 -2.0270
  134MOL0     H18076   5.959   0.318   9.448  1.1824 -1.0978  0.6230
  134MOL0     H18077   6.187   0.389   9.567  0.1195  2.9053 -1.0566
  134MOL0     H18078   6.154   0.534   9.980  1.1893 -0.8668  1.4162
  134MOL0     H18079   6.225   0.676   9.877  2.1139 -0.6595 -3.2535
  134MOL0     H18080   6.397   0.437   9.969 -0.1362  0.1790  1.9801
  134MOL0     H18081   6.385   0.582  10.054  0.5149 -1.6904  0.1216
  134MOL0     H18082   6.470   0.711   9.847  0.1311 -0.2129 -2.7778
  134MOL0     H18083   6.456   0.581   9.756 -0.6718  5.0517 -1.2641
  134MOL0     H18084   6.636   0.464   9.902  0.6967  0.8379  0.1792
  134MOL0     H18085   6.704   0.593   9.829  1.6938 -0.2775  0.8596
  134MOL0     H18086   6.682   0.746  10.241 -1.7339  3.9643 -1.7043
  134MOL0     H18087   5.957   0.519   9.898  2.6619  0.3155  0.3909
  134MOL0     H18088   5.689   0.595   9.812 -1.9815 -0.3757  4.4947
  134MOL0     H18089   5.605   0.436   9.797 -0.2090  2.2373 -1.8058
  134MOL0     H18090   5.729   0.474   9.920  1.0054  1.1207  0.1364
  135MOL0     O18091   9.215   2.824   6.721  0.8834  0.4101  0.0273
  135MOL0     C18092   9.201   2.782   6.841 -0.3478  0.3182  0.9197
  135MOL0     O18093   9.075   2.744   6.904  0.5069 -0.5911  0.2033
  135MOL0     C18094   8.964   2.777   6.839 -0.2529 -0.4636  0.0725
  135MOL0     C18095   8.889   2.679   6.775 -0.0096  1.1627  0.4483
  135MOL0     C18096   8.773   2.712   6.702 -0.0625 -0.5214 -0.3054
  135MOL0     C18097   8.724   2.840   6.703 -0.4379 -0.6224  0.4129
  135MOL0     O18098   8.603   2.859   6.647 -1.0297 -0.6691 -0.9147
  135MOL0     C18099   8.513   2.962   6.701 -0.6010  0.0175 -0.0034
  135MOL0     C18100   8.413   3.011   6.595  0.1504  0.1712  0.3001
  135MOL0     C18101   8.426   3.162   6.568  0.5340 -0.3849  0.2146
  135MOL0     C18102   8.380   3.201   6.420 -0.3936 -0.6160  0.4549
  135MOL0     C18103   8.234   3.164   6.378  0.2130 -0.3472 -0.3591
  135MOL0     C18104   8.137   3.225   6.477 -0.7006 -0.6616  0.1115
  135MOL0     C18105   7.994   3.193   6.444  0.5899  0.0487 -0.5228
  135MOL0     C18106   7.965   3.042   6.472  0.2464 -1.2401 -0.1391
  135MOL0     N18107   7.831   3.048   6.531  0.1164 -0.2686 -0.2199
  135MOL0     C18108   7.804   3.076   6.669 -0.3991 -0.3296  0.5837
  135MOL0     C18109   7.672   3.080   6.676  0.0031  0.7965 -0.2224
  135MOL0     C18110   7.603   3.095   6.810  0.3923  0.3198 -0.1816
  135MOL0     C18111   7.508   2.983   6.840  1.1479  0.7649  0.1051
  135MOL0     C18112   7.398   2.949   6.730  0.1357 -0.0466 -0.4008
  135MOL0     C18113   7.281   2.859   6.772 -0.3485 -0.1287  0.9837
  135MOL0     O18114   7.185   2.868   6.671 -0.0573 -0.2111  0.0131
  135MOL0     C18115   7.071   2.938   6.690  1.0977 -0.6726  0.1344
  135MOL0     C18116   6.975   2.946   6.589  0.1042  0.1563 -0.5110
  135MOL0     C18117   6.853   3.013   6.601  1.7564 -0.2506  0.6030
  135MOL0     C18118   6.809   3.066   6.723 -0.1754 -0.1780  0.4364
  135MOL0     C18119   6.676   3.141   6.746  0.4808 -0.1456 -0.4485
  135MOL0     O18120   6.639   3.188   6.871  0.1964  0.1623 -0.5712
  135MOL0     C18121   6.525   3.242   6.892  0.6382 -0.0946 -0.2303
  135MOL0     C18122   6.528   3.339   6.986 -0.2902 -0.6609 -0.4760
  135MOL0     C18123   6.407   3.411   7.020 -0.8154  0.4707  0.1826
  135MOL0     C18124   6.285   3.383   6.964  1.6300 -0.3829 -0.3870
  135MOL0     O18125   6.170   3.445   7.003 -0.7684 -0.4150  0.1828
  135MOL0     C18126   6.060   3.363   7.016  0.0984  1.1207 -1.4575
  135MOL0     C18127   5.972   3.436   7.119  0.0016 -0.2576 -0.0852
  135MOL0     C18128   5.850   3.350   7.140 -0.2043 -0.1412  0.6091
  135MOL0     C18129   5.769   3.419   7.257 -0.1672  0.5604  0.2251
  135MOL0     C18130   5.654   3.332   7.314 -0.0266 -0.7045  0.5530
  135MOL0     C18131   5.582   3.422   7.413  0.0010  0.5934 -0.0620
  135MOL0     C18132   5.447   3.345   7.456 -0.0835 -1.5886 -0.7213
  135MOL0     C18133   5.388   3.434   7.577 -0.0917  0.4423  0.3368
  135MOL0    Cl18134   5.244   3.375   7.640 -0.3989  0.1546  0.3636
  135MOL0     C18135   6.282   3.281   6.865  0.7556 -0.4721  0.2065
  135MOL0     C18136   6.398   3.219   6.826 -0.7500  0.0915  0.3440
  135MOL0     O18137   6.620   3.163   6.636 -0.3731 -0.1268 -0.2359
  135MOL0     C18138   6.901   3.054   6.831  0.0605  0.7599  0.7762
  135MOL0     C18139   7.025   2.995   6.816 -0.6322  0.6247  0.3670
  135MOL0     N18140   7.616   3.087   6.545  0.4939  0.9285  0.4272
  135MOL0     N18141   7.712   3.070   6.462 -0.4604 -0.2301 -0.4622
  135MOL0     C18142   8.800   2.939   6.772 -0.4000  0.4459 -1.7435
  135MOL0     C18143   8.920   2.911   6.844  0.4196  0.6889 -0.6765
  135MOL0     C18144   9.318   2.783   6.928 -0.1068 -0.1893 -0.3513
  135MOL0     C18145   9.299   2.834   7.060 -0.4842 -0.1794  0.0426
  135MOL0     C18146   9.406   2.858   7.149 -0.1400 -0.4167 -0.1693
  135MOL0     C18147   9.530   2.812   7.116 -0.1861  0.1918 -0.4567
  135MOL0     O18148   9.629   2.839   7.203  0.1840  0.4679 -0.2318
  135MOL0     C18149   9.764   2.786   7.186  0.3454 -0.0148  1.5897
  135MOL0     C18150   9.830   2.777   7.321 -0.0036  0.3824  0.4759
  135MOL0     C18151   9.959   2.694   7.312 -0.4299 -0.1092  0.8783
  135MOL0     C18152  10.049   2.748   7.195 -0.4835  0.7059 -0.3333
  135MOL0     C18153  10.188   2.698   7.208 -0.2228  0.4722  0.2509
  135MOL0     C18154  10.305   2.651   7.216  0.1654  0.5910  1.1094
  135MOL0     C18155   9.553   2.755   6.991  0.0366  0.0456 -0.0464
  135MOL0     C18156   9.447   2.734   6.902 -0.5532  0.0087 -0.2613
  135MOL0     C18157   9.470   2.667   6.770  0.1145  0.7468 -0.3020
  135MOL0     H18158   8.911   2.574   6.786 -1.2813  1.1380  5.5723
  135MOL0     H18159   8.723   2.628   6.656  1.7124 -0.6212 -2.1646
  135MOL0     H18160   8.460   2.907   6.779  0.6008 -0.9508  0.1522
  135MOL0     H18161   8.568   3.046   6.746  0.6223 -0.2539 -0.9356
  135MOL0     H18162   8.316   2.991   6.642  1.2397 -1.9346  1.8052
  135MOL0     H18163   8.412   2.949   6.504 -3.1638 -0.5912  0.7369
  135MOL0     H18164   8.528   3.194   6.593  0.2296  1.9116 -1.1486
  135MOL0     H18165   8.363   3.213   6.641  0.3606  0.1892 -0.3259
  135MOL0     H18166   8.388   3.309   6.400 -1.1019 -0.5218  0.6585
  135MOL0     H18167   8.455   3.168   6.347  0.5248  2.3148 -0.0785
  135MOL0     H18168   8.218   3.213   6.282  4.3755  2.1538 -0.0039
  135MOL0     H18169   8.238   3.055   6.370 -1.0930 -0.3661 -0.9445
  135MOL0     H18170   8.161   3.208   6.583  0.4022  0.7084  0.1122
  135MOL0     H18171   8.141   3.335   6.478 -0.3555 -0.6457 -1.2869
  135MOL0     H18172   7.963   3.217   6.341 -0.4935 -0.7717 -0.4139
  135MOL0     H18173   7.933   3.255   6.511 -0.6587 -2.5292  0.8561
  135MOL0     H18174   7.971   2.991   6.376  2.2202 -0.5511 -0.4360
  135MOL0     H18175   8.038   2.996   6.540  0.3197 -0.1681  0.5446
  135MOL0     H18176   7.879   3.081   6.747 -0.0659  1.6261  0.1686
  135MOL0     H18177   7.671   3.115   6.893  0.3594  1.3789 -0.4017
  135MOL0     H18178   7.538   3.182   6.803 -0.4107 -0.3649 -1.7167
  135MOL0     H18179   7.559   2.891   6.869  0.2058 -0.6482 -2.3934
  135MOL0     H18180   7.462   3.021   6.931 -2.0144  0.5147 -1.2780
  135MOL0     H18181   7.450   2.890   6.652  1.3634  2.0471 -1.2464
  135MOL0     H18182   7.354   3.033   6.676  0.7257 -0.8807 -2.2882
  135MOL0     H18183   7.244   2.875   6.873  3.4236  2.4165  2.1779
  135MOL0     H18184   7.316   2.756   6.775 -3.2626 -1.2647  0.0899
  135MOL0     H18185   7.007   2.916   6.490  1.1175 -0.5739  0.0230
  135MOL0     H18186   6.797   3.031   6.510  1.3034  2.3694  1.3229
  135MOL0     H18187   6.622   3.359   7.035 -1.8403  1.0422  2.0645
  135MOL0     H18188   6.416   3.489   7.095 -1.3529  0.2327  0.5024
  135MOL0     H18189   5.996   3.354   6.927 -1.3088 -0.9594 -0.3239
  135MOL0     H18190   6.082   3.261   7.048 -1.0261  1.1967 -0.3792
  135MOL0     H18191   6.027   3.453   7.213 -2.3885  1.5708  1.1002
  135MOL0     H18192   5.948   3.539   7.092  4.2292  2.4299  4.5415
  135MOL0     H18193   5.789   3.350   7.050 -0.5802  1.4153  0.8382
  135MOL0     H18194   5.882   3.246   7.154  3.4774  0.9870  1.6461
  135MOL0     H18195   5.721   3.514   7.232 -0.0868  0.6517  0.4141
  135MOL0     H18196   5.840   3.429   7.340 -0.0026  2.5807 -0.1097
  135MOL0     H18197   5.693   3.239   7.358  0.0789 -2.4894 -2.9506
  135MOL0     H18198   5.587   3.309   7.230  2.1969  2.2326 -2.2947
  135MOL0     H18199   5.646   3.444   7.499  0.3442 -1.4937  0.2753
  135MOL0     H18200   5.567   3.523   7.373  0.9965  0.6104 -0.4141
  135MOL0     H18201   5.466   3.243   7.489 -0.0564 -0.8547  1.7795
  135MOL0     H18202   5.376   3.348   7.373 -0.5732 -0.1947 -0.2913
  135MOL0     H18203   5.454   3.438   7.664 -2.4212 -0.5712  2.2625
  135MOL0     H18204   5.364   3.539   7.556 -2.3667  0.1797  1.3591
  135MOL0     H18205   6.195   3.270   6.801  0.7615  1.3379 -0.1658
  135MOL0     H18206   6.384   3.146   6.747 -0.5063 -0.8812  1.1832
  135MOL0     H18207   6.879   3.092   6.930 -1.3315  0.3643  0.6448
  135MOL0     H18208   7.077   2.978   6.910 -0.0822  1.8807  0.3135
  135MOL0     H18209   8.771   3.043   6.771 -0.8066  0.4011  0.6401
  135MOL0     H18210   8.956   2.993   6.904 -3.0301  0.3408  2.1652
  135MOL0     H18211   9.203   2.870   7.094 -0.9751 -2.1122  0.8422
  135MOL0     H18212   9.392   2.910   7.243 -0.8812 -0.2252 -0.3797
  135MOL0     H18213   9.830   2.850   7.127  1.1795 -2.4375 -0.3022
  135MOL0     H18214   9.765   2.688   7.137  2.0847 -0.2129  1.9559
  135MOL0     H18215   9.770   2.717   7.390  0.8070  2.1562  2.8531
  135MOL0     H18216   9.850   2.871   7.373 -0.4754  0.5378  0.3847
  135MOL0     H18217   9.937   2.590   7.284 -2.7641  1.2514 -3.0599
  135MOL0     H18218  10.012   2.701   7.407  0.7834 -3.7444  0.6358
  135MOL0     H18219  10.010   2.723   7.096  1.4178 -1.0674 -0.7086
  135MOL0     H18220  10.054   2.857   7.196  0.3786  0.6749 -0.2514
  135MOL0     H18221  10.401   2.605   7.222  0.6941  1.5561  0.2389
  135MOL0     H18222   9.652   2.725   6.958  0.6066  1.1461  0.5992
  135MOL0     H18223   9.441   2.746   6.700  0.7121 -0.2337 -1.7028
  135MOL0     H18224   9.578   2.651   6.763  0.5299  0.3227  4.0559
  135MOL0     H18225   9.400   2.585   6.747 -0.3566  0.2180  2.5543
  136MOL0     O18226   5.345  11.328   5.840 -0.0530 -0.4752  0.2970
  136MOL0     C18227   5.444  11.268   5.801 -0.0759  0.1673 -0.7769
  136MOL0     O18228   5.448  11.174   5.700 -0.0941 -0.4111 -0.1436
  136MOL0     C18229   5.326  11.114   5.667 -0.1938 -1.0445  0.3996
  136MOL0     C18230   5.215  11.183   5.595 -0.4133  0.8486  0.3006
  136MOL0     C18231   5.088  11.122   5.601  0.0050 -1.1508  0.1829
  136MOL0     C18232   5.057  11.005   5.670 -0.3352 -0.3572  0.1926
  136MOL0     O18233   4.929  10.951   5.672 -0.3928  0.0324 -0.0442
  136MOL0     C18234   4.831  11.052   5.671  0.6107 -0.2347  0.9422
  136MOL0     C18235   4.702  11.009   5.732 -0.7071  0.5123 -0.9493
  136MOL0     C18236   4.618  10.925   5.636 -0.2004  0.3533  0.4942
  136MOL0     C18237   4.479  10.901   5.703  0.0207 -0.2618  0.1783
  136MOL0     C18238   4.369  10.859   5.612  0.5885 -0.4802  0.6148
  136MOL0     C18239   4.312  10.972   5.526 -0.0404 -0.9476  0.2316
  136MOL0     C18240   4.190  10.917   5.445 -0.2219 -0.1716  0.1684
  136MOL0     C18241   4.128  11.030   5.378  0.0490  0.2139  0.2300
  136MOL0     N18242   3.992  10.997   5.340 -1.2035  0.0135  0.1917
  136MOL0     C18243   3.954  10.917   5.238 -0.6147 -0.1303 -0.0472
  136MOL0     C18244   3.833  10.868   5.287 -0.3439  0.0765 -0.0745
  136MOL0     C18245   3.751  10.763   5.215  0.2480 -0.3280  0.7501
  136MOL0     C18246   3.826  10.629   5.233  0.6400 -1.2273  0.3816
  136MOL0     C18247   3.884  10.587   5.098 -0.1901  0.0571  0.9416
  136MOL0     C18248   4.000  10.490   5.118 -0.0044 -0.5891  0.1172
  136MOL0     O18249   4.096  10.554   5.201  0.2301  0.4982 -0.4862
  136MOL0     C18250   4.216  10.485   5.209 -0.4850 -0.2160 -0.0448
  136MOL0     C18251   4.252  10.369   5.119  0.5381 -0.0528 -0.3539
  136MOL0     C18252   4.383  10.314   5.135 -0.3261 -0.3854  0.8379
  136MOL0     C18253   4.477  10.352   5.224  0.0593 -0.1769  0.5029
  136MOL0     C18254   4.606  10.282   5.226 -0.3179 -0.1542 -0.2909
  136MOL0     O18255   4.706  10.347   5.281  0.4987 -0.7624 -0.4356
  136MOL0     C18256   4.804  10.283   5.365  0.2943  0.0442  0.6861
  136MOL0     C18257   4.898  10.375   5.421  0.7549  0.4015 -0.1645
  136MOL0     C18258   4.999  10.328   5.505 -0.4317 -0.3745  0.0461
  136MOL0     C18259   4.993  10.193   5.551  0.0829  0.0491 -0.3448
  136MOL0     O18260   5.085  10.131   5.635  0.1831  0.3237  1.3892
  136MOL0     C18261   5.205  10.187   5.682  0.7757 -0.8556 -0.5681
  136MOL0     C18262   5.312  10.079   5.664 -0.0365  0.1390 -0.4795
  136MOL0     C18263   5.461  10.119   5.687 -0.2765 -0.0951 -0.1175
  136MOL0     C18264   5.549   9.987   5.690 -0.3338 -0.2189  0.4041
  136MOL0     C18265   5.691  10.031   5.683  0.1710 -0.1160  0.2429
  136MOL0     C18266   5.776   9.911   5.648 -0.6759  0.5354  0.2376
  136MOL0     C18267   5.923   9.955   5.639 -0.4547 -0.1293  0.4271
  136MOL0     C18268   6.016   9.839   5.614  0.8035  0.7440 -0.3230
  136MOL0    Cl18269   6.029   9.713   5.733 -0.3219  0.6258 -0.2989
  136MOL0     C18270   4.891  10.109   5.513 -0.2957  0.6234 -0.2752
  136MOL0     C18271   4.796  10.152   5.417  0.1739  0.5084 -0.0370
  136MOL0     O18272   4.608  10.169   5.185 -0.4119 -0.1951 -0.6632
  136MOL0     C18273   4.444  10.467   5.304  0.2047 -0.9939 -1.0566
  136MOL0     C18274   4.313  10.523   5.304  0.1511 -0.3521  0.2589
  136MOL0     N18275   3.798  10.925   5.403 -0.1444 -0.0420 -1.6487
  136MOL0     N18276   3.901  10.997   5.434 -0.2952  0.0354  0.2559
  136MOL0     C18277   5.162  10.943   5.742  0.3138  0.4028 -0.9556
  136MOL0     C18278   5.296  10.993   5.741 -0.3647  0.6937  0.4160
  136MOL0     C18279   5.566  11.278   5.880 -0.8570 -0.0705 -0.0984
  136MOL0     C18280   5.574  11.354   5.999 -0.1912 -0.4481 -0.4578
  136MOL0     C18281   5.688  11.378   6.067  0.4616 -0.8050 -0.2066
  136MOL0     C18282   5.806  11.319   6.027  0.1593  0.1950 -0.4042
  136MOL0     O18283   5.923  11.342   6.097  0.0835 -0.5323 -0.1260
  136MOL0     C18284   5.919  11.393   6.234 -0.0279  0.0318  0.0099
  136MOL0     C18285   6.059  11.379   6.301 -0.0614 -0.6370 -0.4812
  136MOL0     C18286   6.060  11.461   6.423 -0.0478  0.3564  0.1611
  136MOL0     C18287   6.069  11.614   6.397  1.4488  0.8220 -0.2730
  136MOL0     C18288   5.952  11.679   6.457  0.0166  0.4851 -0.7162
  136MOL0     C18289   5.856  11.741   6.496  0.0242  0.3719  0.2039
  136MOL0     C18290   5.811  11.247   5.913 -0.1914  0.8714  0.8034
  136MOL0     C18291   5.696  11.233   5.836 -0.1978 -0.3984 -1.0227
  136MOL0     C18292   5.727  11.155   5.713  0.4957 -0.6713  0.0377
  136MOL0     H18293   5.237  11.271   5.536  0.8340  1.3572  1.4838
  136MOL0     H18294   5.003  11.167   5.550 -0.8816  0.6654  3.0458
  136MOL0     H18295   4.866  11.140   5.725 -0.4248 -0.9524  2.8860
  136MOL0     H18296   4.807  11.092   5.572  0.1378 -4.5818 -0.9368
  136MOL0     H18297   4.641  11.096   5.759  0.9987  2.1378 -2.1494
  136MOL0     H18298   4.709  10.966   5.833 -1.9871  2.7329  0.1702
  136MOL0     H18299   4.660  10.824   5.629 -2.1887 -0.4064 -2.2538
  136MOL0     H18300   4.618  10.980   5.541 -1.5013  0.2976  0.4396
  136MOL0     H18301   4.499  10.827   5.781  1.8352  0.7432  0.7242
  136MOL0     H18302   4.441  10.989   5.754 -0.4453  0.1350 -0.8229
  136MOL0     H18303   4.408  10.779   5.549  1.2512  0.2994  0.0023
  136MOL0     H18304   4.293  10.818   5.679  1.1664 -2.2816  0.2031
  136MOL0     H18305   4.276  11.056   5.587 -0.9085  0.2561 -1.8296
  136MOL0     H18306   4.380  11.008   5.448 -0.9427 -0.7393 -0.4791
  136MOL0     H18307   4.115  10.869   5.509 -1.4236 -0.7976 -1.6147
  136MOL0     H18308   4.216  10.854   5.359 -4.4555 -1.1823 -0.6270
  136MOL0     H18309   4.140  11.114   5.448 -3.0585 -0.1024  1.3144
  136MOL0     H18310   4.195  11.050   5.294 -0.1954  0.8788  0.1885
  136MOL0     H18311   3.992  10.883   5.142 -1.1088 -1.8743  0.3374
  136MOL0     H18312   3.651  10.752   5.258  0.4165  0.6060  1.3935
  136MOL0     H18313   3.717  10.792   5.115  1.0791  0.3457  0.6518
  136MOL0     H18314   3.894  10.629   5.318  0.5678  1.6590  0.5498
  136MOL0     H18315   3.746  10.555   5.244  0.5353 -1.6593 -2.6460
  136MOL0     H18316   3.906  10.683   5.051  1.0834 -0.3277  0.7116
  136MOL0     H18317   3.808  10.545   5.032  0.7477  1.6979 -1.3051
  136MOL0     H18318   4.033  10.474   5.015  1.2313 -2.5538  0.7491
  136MOL0     H18319   3.973  10.392   5.159 -1.8193 -0.6467 -1.1169
  136MOL0     H18320   4.193  10.318   5.043  2.7552 -0.5761 -1.8266
  136MOL0     H18321   4.406  10.231   5.068 -1.7996  0.0516 -0.2513
  136MOL0     H18322   4.911  10.480   5.399  0.4501  0.1011 -2.0091
  136MOL0     H18323   5.081  10.394   5.531 -1.7853  1.1816  0.5463
  136MOL0     H18324   5.239  10.274   5.625 -1.3101  2.1515  2.3878
  136MOL0     H18325   5.193  10.203   5.789  2.8282 -1.6715 -0.1733
  136MOL0     H18326   5.302  10.001   5.741  0.4332  1.1738  0.6725
  136MOL0     H18327   5.298  10.042   5.562 -0.6729  3.8348 -1.8918
  136MOL0     H18328   5.487  10.180   5.600 -0.5318 -0.9957 -0.8514
  136MOL0     H18329   5.482  10.176   5.777 -1.8755 -0.7791  0.7186
  136MOL0     H18330   5.529   9.937   5.595  2.1662 -1.6769  0.5564
  136MOL0     H18331   5.533   9.924   5.778  2.2319 -0.1493  0.9878
  136MOL0     H18332   5.718  10.077   5.779 -2.3050  0.2541  0.8430
  136MOL0     H18333   5.703  10.104   5.603  3.9093 -1.7323 -0.8806
  136MOL0     H18334   5.765   9.840   5.729 -1.5272 -1.9541 -1.9190
  136MOL0     H18335   5.746   9.857   5.558 -3.3059 -2.6067  2.7576
  136MOL0     H18336   5.961  10.014   5.723 -0.8494  0.1041  0.4458
  136MOL0     H18337   5.918  10.024   5.554 -2.9328 -0.7993 -0.0534
  136MOL0     H18338   5.996   9.785   5.520 -0.4701 -1.4508  1.1199
  136MOL0     H18339   6.115   9.884   5.601  0.6150  1.0870 -0.5976
  136MOL0     H18340   4.872  10.012   5.557 -0.5793 -0.2165 -2.1568
  136MOL0     H18341   4.731  10.070   5.387  0.1417 -0.4776  2.4953
  136MOL0     H18342   4.519  10.514   5.367  0.7107  1.3258 -3.2422
  136MOL0     H18343   4.296  10.614   5.360 -2.9658 -0.5328 -0.2165
  136MOL0     H18344   5.140  10.850   5.794  4.1101 -0.4931 -0.6486
  136MOL0     H18345   5.370  10.935   5.793 -0.2130  0.7931  0.3112
  136MOL0     H18346   5.482  11.402   6.030 -0.2817 -1.3670  0.7550
  136MOL0     H18347   5.677  11.450   6.147 -1.6455  1.5260 -2.4020
  136MOL0     H18348   5.851  11.329   6.291  0.6600 -1.2135 -0.5109
  136MOL0     H18349   5.903  11.500   6.223 -0.3151 -0.2661 -3.7314
  136MOL0     H18350   6.138  11.416   6.235 -0.3653  0.8806 -0.0383
  136MOL0     H18351   6.078  11.273   6.321 -2.2977 -1.0521 -0.2160
  136MOL0     H18352   6.133  11.423   6.495 -0.1064 -0.9082 -0.4198
  136MOL0     H18353   5.969  11.437   6.478  1.0845 -0.2523  1.8625
  136MOL0     H18354   6.165  11.652   6.433  1.3405  2.2576 -1.4015
  136MOL0     H18355   6.071  11.632   6.289 -0.5050 -1.1374 -0.6921
  136MOL0     H18356   5.785  11.804   6.545  1.6417  1.1427  1.6886
  136MOL0     H18357   5.909  11.212   5.883 -0.8967 -1.0150  0.5637
  136MOL0     H18358   5.688  11.052   5.718 -2.4470  0.2855 -0.9017
  136MOL0     H18359   5.674  11.190   5.624  1.3454 -2.0489 -1.0697
  136MOL0     H18360   5.832  11.152   5.683  0.7756  0.8157  0.8001
  137MOL0     O18361   0.225   0.109  11.411  0.5447 -0.3392 -0.4881
  137MOL0     C18362   0.142   0.050  11.474 -0.3933  0.4918 -0.7647
  137MOL0     O18363   0.170  -0.064  11.544 -0.4885  0.6419 -0.4887
  137MOL0     C18364   0.297  -0.119  11.554 -0.0350 -0.5798 -0.0820
  137MOL0     C18365   0.409  -0.052  11.609  1.2457 -0.6500 -0.1989
  137MOL0     C18366   0.531  -0.117  11.622  0.3463  0.1921  0.4834
  137MOL0     C18367   0.549  -0.245  11.564  0.1685 -0.0464 -0.8070
  137MOL0     O18368   0.675  -0.297  11.556 -0.5276  0.0915 -0.1270
  137MOL0     C18369   0.774  -0.226  11.483  0.5969 -0.1896  0.5663
  137MOL0     C18370   0.890  -0.315  11.483  0.0224  0.1810 -0.2750
  137MOL0     C18371   1.002  -0.252  11.394  0.0555  0.3948  0.1170
  137MOL0     C18372   1.137  -0.312  11.420 -0.3655 -0.1262  0.5430
  137MOL0     C18373   1.249  -0.255  11.339 -0.8184 -0.1617 -0.8529
  137MOL0     C18374   1.375  -0.335  11.383  0.3343  1.0756  0.2032
  137MOL0     C18375   1.496  -0.239  11.354  0.3382 -0.1173  0.1520
  137MOL0     C18376   1.542  -0.257  11.209  0.3630 -0.6174  0.4025
  137MOL0     N18377   1.681  -0.207  11.187 -0.4263  0.1411 -0.3770
  137MOL0     C18378   1.787  -0.282  11.142 -0.8303 -0.0697  0.2728
  137MOL0     C18379   1.896  -0.204  11.144 -0.4636  0.0071  0.7094
  137MOL0     C18380   2.031  -0.244  11.072  0.0860 -0.1607 -0.6922
  137MOL0     C18381   2.060  -0.123  10.981 -0.0416  0.3249 -0.5946
  137MOL0     C18382   2.176  -0.171  10.886 -0.3255 -0.5491 -0.1251
  137MOL0     C18383   2.229  -0.048  10.806  1.0750  0.5872 -0.9673
  137MOL0     O18384   2.307  -0.114  10.706  0.2397  0.2586  0.0025
  137MOL0     C18385   2.397  -0.031  10.648 -0.9088 -0.8452  0.6478
  137MOL0     C18386   2.482  -0.076  10.535  0.4275  0.2235 -0.6202
  137MOL0     C18387   2.579   0.001  10.476  0.6371 -0.2160  0.6950
  137MOL0     C18388   2.603   0.143  10.507  0.2665  0.2999 -0.0516
  137MOL0     C18389   2.713   0.209  10.443 -0.7260  0.0106 -0.4824
  137MOL0     O18390   2.781   0.161  10.328  0.2884  0.6940 -0.3277
  137MOL0     C18391   2.892   0.235  10.288  1.3071  0.1179 -0.3311
  137MOL0     C18392   3.024   0.209  10.330  0.5481  0.6471 -0.6178
  137MOL0     C18393   3.135   0.268  10.283 -0.8066 -0.8293  0.8009
  137MOL0     C18394   3.123   0.353  10.170 -0.9692 -0.6416  0.6043
  137MOL0     O18395   3.232   0.418  10.103 -0.1151 -0.0707  0.1756
  137MOL0     C18396   3.367   0.360  10.112 -0.1438 -0.1183 -0.1733
  137MOL0     C18397   3.459   0.458  10.038 -0.4890 -0.9899  0.4187
  137MOL0     C18398   3.488   0.407   9.891  0.5291  0.8930  0.0338
  137MOL0     C18399   3.614   0.474   9.835  0.3906 -0.2125 -0.4270
  137MOL0     C18400   3.628   0.438   9.686  0.5176  0.3799 -0.8913
  137MOL0     C18401   3.757   0.490   9.607 -0.8908  0.4728 -0.2758
  137MOL0     C18402   3.771   0.410   9.470 -0.0774  0.6992 -0.5873
  137MOL0     C18403   3.830   0.276   9.488  0.3054  0.1974 -0.3750
  137MOL0    Cl18404   3.807   0.200   9.313  0.6078 -0.0492 -0.2234
  137MOL0     C18405   2.991   0.379  10.128 -0.1942  0.1208  0.2491
  137MOL0     C18406   2.875   0.331  10.191 -0.2268  0.0547  0.2115
  137MOL0     O18407   2.739   0.314  10.500 -0.3066  0.3371 -0.5089
  137MOL0     C18408   2.514   0.189  10.614  0.5390 -0.1742  0.2858
  137MOL0     C18409   2.425   0.102  10.684  0.1050 -0.1327  0.3864
  137MOL0     N18410   1.860  -0.086  11.214  0.2973 -0.3771 -0.9835
  137MOL0     N18411   1.729  -0.095  11.242 -1.0083  0.4506 -0.2442
  137MOL0     C18412   0.438  -0.318  11.516  1.0522 -0.1177  0.2232
  137MOL0     C18413   0.317  -0.249  11.512 -0.2355  0.6802 -0.2253
  137MOL0     C18414   0.011   0.110  11.500 -0.1573  1.0372  0.3869
  137MOL0     C18415  -0.087   0.018  11.543 -0.0016 -0.0413  0.0114
  137MOL0     C18416  -0.219   0.056  11.554  0.3117  0.6426  0.4888
  137MOL0     C18417  -0.251   0.193  11.547  0.3049 -0.0464 -0.1813
  137MOL0     O18418  -0.379   0.240  11.566 -0.0334 -0.1637 -0.3416
  137MOL0     C18419  -0.491   0.164  11.610 -0.1085 -0.3389 -0.8978
  137MOL0     C18420  -0.569   0.113  11.490  0.0401  0.1366  0.4306
  137MOL0     C18421  -0.691   0.021  11.537  0.8404 -0.4238  0.1291
  137MOL0     C18422  -0.810   0.089  11.615  0.2574  0.0354  0.3237
  137MOL0     C18423  -0.903  -0.008  11.672  0.2857  0.0400  0.0781
  137MOL0     C18424  -0.980  -0.094  11.711 -0.8654 -0.2605  0.3915
  137MOL0     C18425  -0.159   0.284  11.513  0.8972 -0.4181  0.5824
  137MOL0     C18426  -0.024   0.242  11.486  0.5307  0.1437  0.0460
  137MOL0     C18427   0.080   0.350  11.442  0.5125  0.0262  0.0590
  137MOL0     H18428   0.384   0.051  11.632 -0.9480 -1.6164  2.3328
  137MOL0     H18429   0.619  -0.060  11.650  0.9421 -0.2750 -0.4065
  137MOL0     H18430   0.747  -0.208  11.379  1.6252 -2.3035 -0.1280
  137MOL0     H18431   0.803  -0.133  11.532  0.5522 -0.0937  0.4086
  137MOL0     H18432   0.863  -0.410  11.436  1.1723 -0.3465  0.0891
  137MOL0     H18433   0.929  -0.334  11.584 -3.2974 -0.0741  1.0872
  137MOL0     H18434   1.014  -0.145  11.413 -0.1346  0.3744  0.3522
  137MOL0     H18435   0.985  -0.269  11.287 -1.0097 -0.5864  0.4251
  137MOL0     H18436   1.165  -0.280  11.521  3.1360  1.2936 -0.7354
  137MOL0     H18437   1.155  -0.420  11.418 -0.2879 -0.1028 -0.8575
  137MOL0     H18438   1.233  -0.269  11.231 -1.1984  0.1921 -0.8461
  137MOL0     H18439   1.269  -0.152  11.370 -1.4449 -0.3194  0.1062
  137MOL0     H18440   1.381  -0.346  11.491  0.0963  2.1163  0.3344
  137MOL0     H18441   1.399  -0.433  11.340  3.7915  1.3762  1.1735
  137MOL0     H18442   1.568  -0.271  11.429 -1.5894 -2.8569  1.0020
  137MOL0     H18443   1.467  -0.134  11.367  0.5217 -0.1385  0.7623
  137MOL0     H18444   1.546  -0.361  11.175 -3.3989 -1.1086  0.9900
  137MOL0     H18445   1.460  -0.215  11.150  0.9614 -0.2760 -0.1917
  137MOL0     H18446   1.783  -0.383  11.100  1.6847  0.0664 -0.4654
  137MOL0     H18447   2.111  -0.253  11.146  0.9597 -1.1967 -1.7286
  137MOL0     H18448   2.029  -0.336  11.014  0.0181 -1.4220  1.2455
  137MOL0     H18449   1.980  -0.095  10.912 -0.0431 -2.3400 -1.8250
  137MOL0     H18450   2.086  -0.037  11.042  1.4485 -1.7600  1.9303
  137MOL0     H18451   2.133  -0.243  10.815  3.7491 -2.1556 -1.2221
  137MOL0     H18452   2.255  -0.226  10.938  0.0376  0.1422  0.0528
  137MOL0     H18453   2.288   0.004  10.882 -3.8200  1.6336  2.5752
  137MOL0     H18454   2.145   0.018  10.783  0.1026  0.2582  1.3556
  137MOL0     H18455   2.472  -0.181  10.508  0.3090  0.1928 -0.4565
  137MOL0     H18456   2.633  -0.052  10.398  1.2766  3.7476 -1.8691
  137MOL0     H18457   3.033   0.129  10.403 -3.8004 -1.7843 -2.3709
  137MOL0     H18458   3.233   0.241  10.319 -1.0129 -1.9059  0.5845
  137MOL0     H18459   3.389   0.371  10.219 -1.4564 -1.1308  0.2218
  137MOL0     H18460   3.376   0.257  10.079  1.9326 -0.0188 -0.0581
  137MOL0     H18461   3.408   0.554  10.037  2.2922  0.5885 -0.3963
  137MOL0     H18462   3.553   0.478  10.090 -0.3953  0.1913 -0.1712
  137MOL0     H18463   3.499   0.298   9.892  0.2533  0.7438 -3.1489
  137MOL0     H18464   3.400   0.425   9.828 -1.9768 -0.0564  3.0125
  137MOL0     H18465   3.702   0.441   9.890  0.5725  0.1429 -0.4995
  137MOL0     H18466   3.594   0.581   9.836 -0.8215 -0.4244 -0.4462
  137MOL0     H18467   3.550   0.486   9.627  0.1481 -0.3616 -1.0176
  137MOL0     H18468   3.617   0.330   9.675 -0.2772  0.5610 -1.9881
  137MOL0     H18469   3.746   0.597   9.592  1.2527  0.5869 -1.3171
  137MOL0     H18470   3.843   0.453   9.664 -2.5191 -2.0702  0.7213
  137MOL0     H18471   3.838   0.459   9.399  1.7334 -1.3685 -0.4251
  137MOL0     H18472   3.673   0.399   9.424  0.4179  0.8169 -1.7135
  137MOL0     H18473   3.937   0.273   9.510  0.1126 -1.1636  0.4979
  137MOL0     H18474   3.783   0.228   9.574  0.3143 -0.5795 -0.7857
  137MOL0     H18475   2.976   0.442  10.041  0.2428  1.8590  1.3718
  137MOL0     H18476   2.772   0.344  10.159 -1.0264 -0.5031  2.3286
  137MOL0     H18477   2.526   0.296  10.632  1.6999 -0.6755  2.9018
  137MOL0     H18478   2.366   0.146  10.763  1.0598 -0.4201  1.2874
  137MOL0     H18479   0.442  -0.423  11.489  0.5518 -0.0855  0.0050
  137MOL0     H18480   0.231  -0.306  11.477  2.1166 -2.0035 -2.1341
  137MOL0     H18481  -0.066  -0.082  11.580 -0.0447 -0.3475 -0.7797
  137MOL0     H18482  -0.283  -0.028  11.578  2.2655 -1.5258 -1.3750
  137MOL0     H18483  -0.550   0.222  11.682  3.3329 -0.3424  2.2212
  137MOL0     H18484  -0.460   0.069  11.653  3.2114  0.7406 -0.5912
  137MOL0     H18485  -0.505   0.054  11.425 -0.7485  1.4734 -1.6554
  137MOL0     H18486  -0.616   0.187  11.425  2.0851 -0.7193 -2.1825
  137MOL0     H18487  -0.651  -0.063  11.596  2.0418  0.7749  1.0862
  137MOL0     H18488  -0.732  -0.012  11.441  2.4308  2.1656 -1.5755
  137MOL0     H18489  -0.773   0.147  11.700 -2.2340  0.0655  1.4761
  137MOL0     H18490  -0.865   0.161  11.553  1.1277 -0.9529 -1.6741
  137MOL0     H18491  -1.061  -0.163  11.726  0.7779 -2.7709 -1.5961
  137MOL0     H18492  -0.184   0.389  11.513  2.3478 -0.0356  2.1387
  137MOL0     H18493   0.110   0.335  11.338 -1.3368 -2.0519 -0.2535
  137MOL0     H18494   0.034   0.448  11.460 -3.4611 -1.8954  1.6726
  137MOL0     H18495   0.168   0.339  11.506  0.2724  0.0826  0.4041
  138MOL0     O18496   2.603   0.636   7.511 -0.1557  0.3933  0.5839
  138MOL0     C18497   2.711   0.698   7.508  0.5888 -0.8632  1.3182
  138MOL0     O18498   2.735   0.795   7.590 -0.5042 -0.3894  0.2688
  138MOL0     C18499   2.664   0.814   7.704 -0.2419  0.4369  0.7408
  138MOL0     C18500   2.638   0.943   7.746 -0.6240  0.1069  1.1630
  138MOL0     C18501   2.570   0.974   7.860  0.9236  0.0124 -0.2608
  138MOL0     C18502   2.511   0.876   7.945 -0.5114 -0.4445 -0.5197
  138MOL0     O18503   2.441   0.908   8.063  0.4182 -0.0047  0.3148
  138MOL0     C18504   2.401   0.806   8.161  1.0736 -0.1720  0.2597
  138MOL0     C18505   2.368   0.865   8.296 -0.7024 -0.9486 -0.5216
  138MOL0     C18506   2.241   0.964   8.296 -0.3866 -0.2626  1.0233
  138MOL0     C18507   2.116   0.882   8.245  0.4271 -0.0711 -0.2746
  138MOL0     C18508   1.991   0.958   8.250  0.2479 -0.6750  0.1821
  138MOL0     C18509   1.867   0.873   8.209  0.2403 -0.3367  0.3665
  138MOL0     C18510   1.744   0.975   8.213 -0.3145  0.9401  0.4779
  138MOL0     C18511   1.615   0.907   8.247 -0.3724  0.0825 -0.2520
  138MOL0     N18512   1.494   0.995   8.243 -0.3260  0.6673 -0.9666
  138MOL0     C18513   1.492   1.121   8.280  0.9829 -1.2680 -0.1899
  138MOL0     C18514   1.371   1.172   8.238  0.4304  1.0679 -0.0451
  138MOL0     C18515   1.328   1.314   8.252  0.6243 -0.9661  0.5626
  138MOL0     C18516   1.189   1.337   8.332 -0.3544  0.3062  0.0563
  138MOL0     C18517   1.167   1.232   8.454  0.3755  0.2944  0.4874
  138MOL0     C18518   1.043   1.269   8.532 -0.9803 -0.2394 -0.7155
  138MOL0     O18519   1.059   1.370   8.634  0.6784  0.5950 -0.3571
  138MOL0     C18520   0.944   1.407   8.705 -0.1911  0.2326 -0.7942
  138MOL0     C18521   0.837   1.321   8.718  1.0543 -0.2442  0.2952
  138MOL0     C18522   0.718   1.371   8.775 -0.4942  0.6272  0.0925
  138MOL0     C18523   0.704   1.501   8.836 -0.3439  0.0228  0.2889
  138MOL0     C18524   0.581   1.539   8.896 -1.0154 -0.5162  0.5600
  138MOL0     O18525   0.574   1.647   8.969 -0.1103  0.1990  0.3877
  138MOL0     C18526   0.454   1.716   8.993 -0.0524 -0.4055 -0.0818
  138MOL0     C18527   0.474   1.851   9.025 -0.9884 -0.7469 -0.3755
  138MOL0     C18528   0.370   1.935   9.058  0.5370  0.2956 -0.0650
  138MOL0     C18529   0.241   1.877   9.071 -0.3940 -0.1871 -0.2598
  138MOL0     O18530   0.139   1.962   9.100  0.2202 -0.3012  0.3619
  138MOL0     C18531   0.027   1.912   9.168  0.7792  0.2361 -0.3844
  138MOL0     C18532  -0.100   1.879   9.080 -1.0252  0.0319  0.1466
  138MOL0     C18533  -0.146   2.005   9.001 -0.1337  0.5534  0.3197
  138MOL0     C18534  -0.297   2.034   9.012 -0.1347 -0.6022 -0.4402
  138MOL0     C18535  -0.334   2.131   8.894  0.6260  0.9666  0.4225
  138MOL0     C18536  -0.480   2.193   8.908  0.3597  1.0262 -0.3988
  138MOL0     C18537  -0.605   2.099   8.882  0.7974  0.4610  0.0721
  138MOL0     C18538  -0.737   2.145   8.950  0.0060 -0.5577 -0.4563
  138MOL0    Cl18539  -0.869   2.029   8.885  0.5232 -0.1385 -0.1059
  138MOL0     C18540   0.225   1.743   9.052  0.6328 -0.8062  0.8535
  138MOL0     C18541   0.327   1.664   9.013 -0.8989 -0.6089  0.5574
  138MOL0     O18542   0.480   1.477   8.853 -0.3365 -0.2291 -0.2738
  138MOL0     C18543   0.818   1.583   8.820  0.0954  0.2097 -1.0927
  138MOL0     C18544   0.935   1.536   8.753 -0.6489 -1.2310 -0.3977
  138MOL0     N18545   1.302   1.057   8.190  0.1268  0.0135  0.0779
  138MOL0     N18546   1.376   0.947   8.192 -0.7477 -0.2563 -0.4290
  138MOL0     C18547   2.537   0.742   7.906 -0.4155  0.4397  0.5620
  138MOL0     C18548   2.621   0.712   7.791 -0.2274  0.1139  0.3050
  138MOL0     C18549   2.822   0.645   7.425  0.9407  0.2580 -0.5075
  138MOL0     C18550   2.806   0.518   7.372 -0.7987  1.0734 -0.0313
  138MOL0     C18551   2.906   0.465   7.286 -0.9744  0.3279 -0.0001
  138MOL0     C18552   3.023   0.538   7.246 -0.2532 -0.2164 -0.6884
  138MOL0     O18553   3.102   0.481   7.148 -0.1215 -0.0218 -0.4009
  138MOL0     C18554   3.180   0.573   7.074 -0.1864 -0.3573  0.1778
  138MOL0     C18555   3.204   0.527   6.922 -0.4360  0.5212  1.0750
  138MOL0     C18556   3.121   0.612   6.839 -0.0956 -0.6319 -0.2133
  138MOL0     C18557   2.972   0.589   6.850  0.4624 -0.8770  0.2647
  138MOL0     C18558   2.878   0.659   6.763 -0.1575  0.4812 -0.0482
  138MOL0     C18559   2.786   0.695   6.702 -0.6381 -0.0658  0.8960
  138MOL0     C18560   3.041   0.667   7.309  0.2194 -0.2751 -0.2540
  138MOL0     C18561   2.950   0.717   7.407 -0.0868  0.4969 -0.4513
  138MOL0     C18562   2.990   0.846   7.471  1.2243  0.4087 -0.0981
  138MOL0     H18563   2.683   1.018   7.681  0.6796 -1.2427  0.4685
  138MOL0     H18564   2.550   1.072   7.902 -1.4711 -0.7562  0.5244
  138MOL0     H18565   2.313   0.748   8.132  0.5586  0.0710  1.2998
  138MOL0     H18566   2.479   0.729   8.171  0.4745 -0.7987  0.1952
  138MOL0     H18567   2.455   0.923   8.327 -2.3662  1.2674  0.3466
  138MOL0     H18568   2.359   0.786   8.371  0.8221  0.2764  1.0536
  138MOL0     H18569   2.254   1.041   8.219 -0.6591 -0.5216  0.7129
  138MOL0     H18570   2.212   1.011   8.390 -1.2208 -1.4452  1.3796
  138MOL0     H18571   2.136   0.850   8.143 -0.3733  0.3696 -0.5823
  138MOL0     H18572   2.111   0.792   8.308  0.3982 -0.5043 -0.8896
  138MOL0     H18573   1.978   0.986   8.355  0.9429 -0.8561  0.3239
  138MOL0     H18574   1.998   1.051   8.194 -1.4698  0.6915  2.1027
  138MOL0     H18575   1.871   0.832   8.108 -1.7837 -1.9431  0.8737
  138MOL0     H18576   1.851   0.794   8.283 -2.1704 -1.2833 -1.0547
  138MOL0     H18577   1.726   1.016   8.114 -0.3387  0.3650  0.2422
  138MOL0     H18578   1.768   1.054   8.285  3.7055 -0.7841  1.3081
  138MOL0     H18579   1.600   0.823   8.180  0.7188  2.1386 -3.2952
  138MOL0     H18580   1.622   0.867   8.349  2.4912  2.2785  0.5592
  138MOL0     H18581   1.559   1.175   8.347 -0.3993 -0.2553  0.4113
  138MOL0     H18582   1.409   1.371   8.299  2.5035  0.0831 -3.4777
  138MOL0     H18583   1.314   1.361   8.154  0.8989 -2.2024 -0.0884
  138MOL0     H18584   1.189   1.439   8.370  2.0685 -0.4170  2.3469
  138MOL0     H18585   1.111   1.327   8.256  0.9654 -4.4293 -1.0560
  138MOL0     H18586   1.257   1.243   8.517  1.3197 -1.7961 -0.4098
  138MOL0     H18587   1.165   1.128   8.421  2.0323  0.3632  0.0642
  138MOL0     H18588   1.039   1.175   8.589  0.7701  0.9209  1.4854
  138MOL0     H18589   0.957   1.293   8.469 -2.6131 -0.9278  1.1354
  138MOL0     H18590   0.835   1.215   8.692  1.6169 -1.2572  3.8113
  138MOL0     H18591   0.630   1.308   8.766  0.2813 -0.2918 -1.4870
  138MOL0     H18592   0.574   1.896   9.023 -1.1374 -0.3688  0.2459
  138MOL0     H18593   0.370   2.039   9.090 -2.0980  0.7338 -1.1861
  138MOL0     H18594   0.063   1.833   9.234  1.8549 -2.3415 -3.7453
  138MOL0     H18595  -0.005   2.000   9.225  1.5587 -0.0979  0.5955
  138MOL0     H18596  -0.076   1.792   9.018  0.3736 -0.5664  1.4673
  138MOL0     H18597  -0.180   1.845   9.146 -1.7810 -1.0379 -1.2606
  138MOL0     H18598  -0.094   2.098   9.026 -1.1655  1.4958 -0.8631
  138MOL0     H18599  -0.110   1.971   8.903 -0.7952 -0.7297  0.4961
  138MOL0     H18600  -0.322   2.088   9.104  1.3598  0.4007 -0.5778
  138MOL0     H18601  -0.366   1.949   9.008 -0.5875 -0.2361 -0.4701
  138MOL0     H18602  -0.330   2.072   8.802  0.4530 -1.0754  1.6617
  138MOL0     H18603  -0.255   2.208   8.888  0.2725  1.4472  1.6165
  138MOL0     H18604  -0.480   2.216   9.015  0.8013  0.4751 -0.2773
  138MOL0     H18605  -0.497   2.281   8.845  1.3504 -0.2651 -2.6160
  138MOL0     H18606  -0.587   2.009   8.942  0.0979 -0.1161 -0.5693
  138MOL0     H18607  -0.616   2.092   8.774 -0.3526  3.6503 -0.1196
  138MOL0     H18608  -0.741   2.129   9.058 -2.3302  0.3553 -0.3552
  138MOL0     H18609  -0.761   2.247   8.918 -0.5361 -0.8731 -1.0970
  138MOL0     H18610   0.128   1.696   9.069 -0.0268 -0.8542 -2.4293
  138MOL0     H18611   0.315   1.557   9.000  3.1708 -1.2139  0.4611
  138MOL0     H18612   0.812   1.679   8.869  5.7253 -0.2674  1.2562
  138MOL0     H18613   1.026   1.594   8.747  0.3637 -2.8355 -1.4350
  138MOL0     H18614   2.509   0.660   7.971  1.3279  0.2060  1.0486
  138MOL0     H18615   2.622   0.607   7.767 -0.0594 -0.2649  1.8835
  138MOL0     H18616   2.720   0.459   7.400  2.1351 -4.1292 -0.6986
  138MOL0     H18617   2.894   0.364   7.248 -0.9161  0.6546 -0.9300
  138MOL0     H18618   3.274   0.566   7.130  0.5876 -0.5180 -1.0932
  138MOL0     H18619   3.140   0.674   7.076  0.7626  0.0940 -1.2904
  138MOL0     H18620   3.179   0.423   6.902 -1.0379  0.6681  1.0511
  138MOL0     H18621   3.309   0.537   6.895  0.0880  0.4795  2.9730
  138MOL0     H18622   3.135   0.584   6.734 -0.3316  1.5620 -0.8837
  138MOL0     H18623   3.153   0.715   6.856 -0.7454 -0.6680  1.4355
  138MOL0     H18624   2.954   0.484   6.825  2.8351 -1.2679  0.0264
  138MOL0     H18625   2.931   0.610   6.949 -0.9757  0.3983 -0.5561
  138MOL0     H18626   2.708   0.723   6.634  2.4629  0.4950 -2.7438
  138MOL0     H18627   3.128   0.725   7.279 -0.1564 -0.9295 -2.8264
  138MOL0     H18628   3.091   0.870   7.436  2.6390  0.9755  3.8875
  138MOL0     H18629   2.915   0.914   7.432 -0.6813 -2.5032 -1.9157
  138MOL0     H18630   2.985   0.859   7.580 -1.3046 -0.7290 -0.0009
  139MOL0     O18631   4.316   7.576   9.676 -0.9566  0.0768  0.3745
  139MOL0     C18632   4.269   7.494   9.750  0.1254  0.5725  0.3713
  139MOL0     O18633   4.174   7.404   9.713 -0.7295 -0.5672 -0.3032
  139MOL0     C18634   4.097   7.446   9.608  0.3655  0.1698  0.5558
  139MOL0     C18635   3.959   7.428   9.636 -0.2056 -0.1734 -0.5118
  139MOL0     C18636   3.858   7.449   9.542  0.4508 -0.4522 -0.4981
  139MOL0     C18637   3.888   7.494   9.411 -1.1923  0.5435  0.0325
  139MOL0     O18638   3.792   7.528   9.317  0.1458  0.5753  0.0107
  139MOL0     C18639   3.825   7.574   9.185  0.5379 -0.3522 -0.6765
  139MOL0     C18640   3.694   7.572   9.099  0.1533  0.0969 -0.2747
  139MOL0     C18641   3.723   7.659   8.970 -0.3821 -0.4424 -1.2571
  139MOL0     C18642   3.598   7.684   8.889 -0.6924 -0.9127 -0.1656
  139MOL0     C18643   3.622   7.723   8.742  1.0881 -0.7468 -0.1410
  139MOL0     C18644   3.649   7.599   8.655  0.0070  0.7430  0.9476
  139MOL0     C18645   3.638   7.612   8.505 -0.1039  0.0819  0.0643
  139MOL0     C18646   3.507   7.666   8.449 -0.0084  0.5197 -0.1123
  139MOL0     N18647   3.391   7.581   8.490  0.5128 -0.0209  0.3586
  139MOL0     C18648   3.381   7.463   8.426 -0.0093  0.2433  0.5778
  139MOL0     C18649   3.314   7.381   8.514 -0.1709  0.2998  0.9693
  139MOL0     C18650   3.282   7.232   8.485  1.0479 -0.8708  0.5156
  139MOL0     C18651   3.132   7.238   8.441  0.3561  0.1380 -0.2961
  139MOL0     C18652   3.039   7.155   8.533  0.0517  0.0610 -0.3935
  139MOL0     C18653   3.062   7.204   8.682  0.1613  0.1692 -0.8714
  139MOL0     O18654   2.954   7.148   8.768  1.2066  1.1459  0.0480
  139MOL0     C18655   2.832   7.218   8.784  1.0505  0.0000  1.1120
  139MOL0     C18656   2.811   7.355   8.737  0.8978 -0.2472 -1.0305
  139MOL0     C18657   2.687   7.426   8.755 -1.5586  1.3811  0.0996
  139MOL0     C18658   2.580   7.354   8.824 -1.0118 -0.2513  0.4049
  139MOL0     C18659   2.447   7.413   8.842 -0.2227  1.1799  0.5669
  139MOL0     O18660   2.346   7.327   8.884  0.2905  0.0399  0.1006
  139MOL0     C18661   2.225   7.383   8.893  0.1049 -0.1805  0.6832
  139MOL0     C18662   2.117   7.305   8.851  0.4033 -0.3147  0.4063
  139MOL0     C18663   1.984   7.335   8.876 -0.2010 -0.3718  0.3193
  139MOL0     C18664   1.956   7.454   8.937 -0.1883  0.5249  0.1819
  139MOL0     O18665   1.836   7.516   8.957  0.1756  0.6412  0.4450
  139MOL0     C18666   1.724   7.442   8.911  0.1913  0.1017  0.5104
  139MOL0     C18667   1.590   7.518   8.903  0.2763 -0.6228  0.3639
  139MOL0     C18668   1.610   7.636   8.803  0.9540  0.4644  0.5983
  139MOL0     C18669   1.523   7.761   8.834 -0.6821  0.8222  0.1211
  139MOL0     C18670   1.530   7.872   8.729  0.6853 -0.2899  0.8117
  139MOL0     C18671   1.426   7.845   8.620 -0.9224 -1.1169 -0.3440
  139MOL0     C18672   1.435   7.964   8.518 -0.0848 -0.0601 -0.4736
  139MOL0     C18673   1.293   7.989   8.457 -0.1390  0.8587 -0.4001
  139MOL0    Cl18674   1.225   7.830   8.399  0.0488  0.2139  0.0459
  139MOL0     C18675   2.059   7.522   8.990  1.0353  0.8542 -1.0870
  139MOL0     C18676   2.193   7.491   8.973  0.0252 -0.1607  0.0780
  139MOL0     O18677   2.442   7.534   8.834 -0.2812 -0.2290 -1.0273
  139MOL0     C18678   2.614   7.229   8.876  0.0331  1.1471 -0.6994
  139MOL0     C18679   2.725   7.159   8.852  0.7216  0.2534  0.2912
  139MOL0     N18680   3.276   7.459   8.619  1.1884  0.2485  0.2557
  139MOL0     N18681   3.323   7.576   8.608 -0.8161  0.5157 -0.0718
  139MOL0     C18682   4.030   7.495   9.379 -0.2817  0.3551  0.0484
  139MOL0     C18683   4.125   7.466   9.470 -0.4377 -0.2506 -0.1037
  139MOL0     C18684   4.321   7.470   9.879  0.9987  0.3334  0.8568
  139MOL0     C18685   4.304   7.349   9.938 -0.5184 -0.0365  0.1833
  139MOL0     C18686   4.375   7.321  10.056 -0.1655  0.4185  0.0136
  139MOL0     C18687   4.441   7.414  10.125 -0.1729 -0.7679 -0.1153
  139MOL0     O18688   4.502   7.368  10.241  0.1113 -0.1422 -0.2992
  139MOL0     C18689   4.600   7.452  10.300 -0.0009 -0.0573 -0.5309
  139MOL0     C18690   4.663   7.378  10.425  0.3131  0.3956  1.1239
  139MOL0     C18691   4.580   7.401  10.555 -0.3142  0.5600  0.9906
  139MOL0     C18692   4.429   7.368  10.550  0.2782 -0.0304  0.1084
  139MOL0     C18693   4.375   7.406  10.675 -0.3048  0.0038  0.5488
  139MOL0     C18694   4.339   7.438  10.784  0.2081  0.0104 -0.0395
  139MOL0     C18695   4.438   7.544  10.073  0.0466  0.6794 -0.8431
  139MOL0     C18696   4.382   7.572   9.952 -0.6475  0.7394  0.2745
  139MOL0     C18697   4.377   7.717   9.903 -0.5719  0.5623  0.0717
  139MOL0     H18698   3.940   7.410   9.742  1.5655 -4.1173 -0.6893
  139MOL0     H18699   3.750   7.452   9.554  0.2438 -0.9780 -2.0179
  139MOL0     H18700   3.871   7.673   9.190  0.5882 -0.4216  0.4083
  139MOL0     H18701   3.898   7.511   9.133  5.1433  1.5434  2.8806
  139MOL0     H18702   3.622   7.621   9.166  2.9448  0.1679  2.8976
  139MOL0     H18703   3.658   7.473   9.072  1.9355  0.5656 -5.4407
  139MOL0     H18704   3.791   7.606   8.903  1.0759 -1.0603  0.6190
  139MOL0     H18705   3.781   7.750   8.988  0.1339 -0.3911 -2.9956
  139MOL0     H18706   3.550   7.586   8.884  0.3450 -1.4988  0.8545
  139MOL0     H18707   3.534   7.756   8.941 -0.5839  0.3544 -1.7058
  139MOL0     H18708   3.530   7.768   8.703  2.9648  1.4813 -2.4014
  139MOL0     H18709   3.706   7.792   8.729  0.5881 -0.1298 -0.1859
  139MOL0     H18710   3.752   7.571   8.679  0.9421  1.2881 -2.0237
  139MOL0     H18711   3.579   7.517   8.674  0.5118 -0.4172 -1.7720
  139MOL0     H18712   3.654   7.508   8.475 -0.2400  0.0624  0.0596
  139MOL0     H18713   3.717   7.676   8.465  0.6181 -0.5624  0.4280
  139MOL0     H18714   3.501   7.771   8.480  1.3283  1.0074 -1.3597
  139MOL0     H18715   3.528   7.655   8.342 -1.2484 -1.4274 -0.1974
  139MOL0     H18716   3.436   7.437   8.336 -0.0516  0.9280  0.3490
  139MOL0     H18717   3.352   7.208   8.405  0.4116  0.4144 -0.4693
  139MOL0     H18718   3.297   7.158   8.565 -0.0881 -3.1009 -1.2268
  139MOL0     H18719   3.096   7.341   8.444  1.0500  0.3976  3.0865
  139MOL0     H18720   3.118   7.205   8.337  0.7916 -1.2622  0.0703
  139MOL0     H18721   3.077   7.052   8.536  1.7403  0.6772  1.0010
  139MOL0     H18722   2.936   7.146   8.498  0.8968 -1.1872 -2.8203
  139MOL0     H18723   3.064   7.313   8.685 -2.5648  0.2870  0.8424
  139MOL0     H18724   3.155   7.166   8.726  0.5611  1.9895 -0.0610
  139MOL0     H18725   2.892   7.411   8.692  3.5247 -1.7761  1.4870
  139MOL0     H18726   2.677   7.524   8.710 -1.9894  0.3128 -2.3087
  139MOL0     H18727   2.130   7.209   8.803 -1.5552 -0.1448 -0.5729
  139MOL0     H18728   1.904   7.267   8.847 -0.7586  0.1659  0.5764
  139MOL0     H18729   1.743   7.416   8.807  0.8126 -1.0705  0.9000
  139MOL0     H18730   1.713   7.351   8.971  0.1310 -0.5568 -0.4922
  139MOL0     H18731   1.509   7.454   8.866  0.3796  1.2411 -3.6537
  139MOL0     H18732   1.564   7.546   9.006  2.1761 -1.2081  1.0301
  139MOL0     H18733   1.715   7.665   8.799  1.8158 -2.4340 -1.5792
  139MOL0     H18734   1.584   7.607   8.700  0.1174  2.9590  0.0385
  139MOL0     H18735   1.544   7.789   8.938 -1.2904 -1.7133  0.9878
  139MOL0     H18736   1.425   7.712   8.829 -0.6999  0.7487  1.0138
  139MOL0     H18737   1.628   7.860   8.682 -0.9105 -4.2889 -2.0875
  139MOL0     H18738   1.521   7.965   8.786  3.7265  0.8268 -0.3199
  139MOL0     H18739   1.440   7.747   8.573 -1.1535 -1.4503  0.2706
  139MOL0     H18740   1.322   7.842   8.656  0.0675 -1.1265  2.8505
  139MOL0     H18741   1.506   7.947   8.436 -0.5216 -0.9144 -0.6795
  139MOL0     H18742   1.464   8.048   8.582 -0.9043 -0.7360  0.8144
  139MOL0     H18743   1.226   8.009   8.541  0.3445  0.9906 -0.0399
  139MOL0     H18744   1.279   8.064   8.380  1.3515  2.3438  0.7067
  139MOL0     H18745   2.030   7.605   9.053  0.1739  0.6115 -1.1605
  139MOL0     H18746   2.271   7.533   9.035  0.9917 -0.3672 -0.9796
  139MOL0     H18747   2.538   7.169   8.925  2.7301 -3.6775 -1.8289
  139MOL0     H18748   2.733   7.058   8.891  0.9703  0.3152  0.4026
  139MOL0     H18749   4.061   7.511   9.276 -2.7299  1.2604 -0.6377
  139MOL0     H18750   4.224   7.459   9.427  0.1847 -2.4543  1.4947
  139MOL0     H18751   4.270   7.268   9.874 -1.1545  1.4945 -1.5059
  139MOL0     H18752   4.374   7.218  10.090  2.9132  0.8569  1.8353
  139MOL0     H18753   4.561   7.549  10.332  1.2315 -0.2723  1.8192
  139MOL0     H18754   4.684   7.467  10.232 -0.6961 -1.1192 -1.6780
  139MOL0     H18755   4.764   7.419  10.432  0.7585 -0.4283 -0.1920
  139MOL0     H18756   4.663   7.272  10.399  1.6497  0.7669 -0.5824
  139MOL0     H18757   4.598   7.501  10.597 -0.1350 -0.6372  4.0616
  139MOL0     H18758   4.631   7.335  10.627  0.6100  0.3187  0.1312
  139MOL0     H18759   4.378   7.425  10.471  0.2834 -0.0330  0.1028
  139MOL0     H18760   4.404   7.263  10.534 -1.7703  0.3534  0.4939
  139MOL0     H18761   4.295   7.459  10.879 -0.0018  0.9324 -0.3288
  139MOL0     H18762   4.480   7.626  10.131  2.7749 -0.0773 -1.5898
  139MOL0     H18763   4.275   7.738   9.871 -1.6422  1.5843  3.7435
  139MOL0     H18764   4.395   7.781   9.989  1.8717  0.5596 -0.3606
  139MOL0     H18765   4.461   7.736   9.835 -0.9508  2.2405  0.0559
  140MOL0     O18766   0.821   4.673  10.254 -0.0959  0.0261 -0.1735
  140MOL0     C18767   0.858   4.563  10.291  0.6271 -0.0906  0.8204
  140MOL0     O18768   0.942   4.482  10.220  0.6392 -0.0302  0.4564
  140MOL0     C18769   0.995   4.532  10.104 -0.5142  0.1817  0.1629
  140MOL0     C18770   0.919   4.598  10.008 -1.0439  0.0841 -0.7648
  140MOL0     C18771   0.980   4.633   9.883 -0.2064 -0.9094  0.1765
  140MOL0     C18772   1.110   4.605   9.855  0.8384 -0.2157  0.3486
  140MOL0     O18773   1.156   4.632   9.727  0.6424  0.4408 -0.1005
  140MOL0     C18774   1.295   4.667   9.714  0.6904  1.0516 -0.3367
  140MOL0     C18775   1.318   4.734   9.575  0.1293 -0.0659 -0.5947
  140MOL0     C18776   1.452   4.810   9.571  0.8967 -0.1265 -0.5674
  140MOL0     C18777   1.574   4.761   9.654 -0.7852 -0.3110 -0.4869
  140MOL0     C18778   1.677   4.864   9.686 -0.4940  0.7627 -0.0341
  140MOL0     C18779   1.827   4.814   9.681  0.3897  0.1390 -0.5635
  140MOL0     C18780   1.929   4.924   9.644  0.3953 -1.0754  0.5428
  140MOL0     C18781   2.070   4.878   9.651 -1.4029 -0.7198  0.7566
  140MOL0     N18782   2.159   4.998   9.610  0.4912  0.0036  0.3141
  140MOL0     C18783   2.209   5.091   9.701  0.0490  0.7518  0.6036
  140MOL0     C18784   2.249   5.193   9.626 -0.6873  0.2029  0.7455
  140MOL0     C18785   2.344   5.302   9.661 -0.4051 -0.0980  0.2648
  140MOL0     C18786   2.335   5.346   9.805 -0.5138  0.5864 -1.6448
  140MOL0     C18787   2.184   5.380   9.853  0.3681  1.0686  0.7072
  140MOL0     C18788   2.189   5.435   9.999  0.9817 -0.2400  0.1268
  140MOL0     O18789   2.058   5.426  10.060  0.0123  0.2511  0.1649
  140MOL0     C18790   2.019   5.297  10.103 -0.2686 -0.2298 -0.3937
  140MOL0     C18791   2.103   5.178  10.092  0.1282  0.7630 -0.8673
  140MOL0     C18792   2.043   5.051  10.104  0.0123 -0.4098  0.6278
  140MOL0     C18793   1.920   5.030  10.153 -0.0691 -0.1994 -0.7889
  140MOL0     C18794   1.859   4.892  10.179 -1.7858  0.7646 -0.1139
  140MOL0     O18795   1.724   4.874  10.154 -0.3515 -0.1995 -0.4575
  140MOL0     C18796   1.662   4.759  10.194 -0.0685  0.4688 -0.3979
  140MOL0     C18797   1.670   4.699  10.323  0.1744  0.3354  0.1153
  140MOL0     C18798   1.589   4.578  10.353  0.5354 -0.4632 -0.5654
  140MOL0     C18799   1.505   4.526  10.253  0.2090 -0.0371 -0.6022
  140MOL0     O18800   1.420   4.414  10.279 -0.4026  0.4735  0.7228
  140MOL0     C18801   1.358   4.406  10.412 -0.0650  1.4015  0.4809
  140MOL0     C18802   1.257   4.291  10.392 -0.8191  0.3396 -0.3004
  140MOL0     C18803   1.183   4.275  10.523 -0.0766 -0.5726 -1.0332
  140MOL0     C18804   1.111   4.405  10.578 -0.1339  0.3370  0.3063
  140MOL0     C18805   1.027   4.360  10.693 -0.7587  0.0697 -0.6013
  140MOL0     C18806   1.120   4.362  10.806 -0.2634 -0.4274  0.1202
  140MOL0     C18807   1.039   4.344  10.946 -0.6303 -0.8719  0.2671
  140MOL0     C18808   0.983   4.207  10.968 -0.2569  0.6334 -0.1185
  140MOL0    Cl18809   0.932   4.185  11.139 -0.2824 -0.3171 -0.1035
  140MOL0     C18810   1.514   4.579  10.124  0.4150  0.3090  0.7894
  140MOL0     C18811   1.588   4.694  10.101 -0.1964 -0.1438  0.0568
  140MOL0     O18812   1.937   4.811  10.227 -0.6048  0.1138  0.1877
  140MOL0     C18813   1.840   5.147  10.185  0.5256 -0.4150  0.5792
  140MOL0     C18814   1.890   5.279  10.152  0.2577 -0.2117  0.2554
  140MOL0     N18815   2.198   5.169   9.497  1.0527 -1.5349 -0.0979
  140MOL0     N18816   2.150   5.054   9.489  0.2688  1.2414  0.5942
  140MOL0     C18817   1.183   4.544   9.956 -0.1782 -0.0787 -0.1618
  140MOL0     C18818   1.134   4.513  10.083 -0.3187  0.1370  0.0159
  140MOL0     C18819   0.788   4.515  10.412  0.5567 -0.9632  1.0620
  140MOL0     C18820   0.701   4.405  10.401  0.1242  0.2217 -0.3584
  140MOL0     C18821   0.628   4.366  10.518 -0.3539  1.4305  0.2384
  140MOL0     C18822   0.633   4.441  10.636 -0.0228  1.0557  0.5321
  140MOL0     O18823   0.549   4.414  10.741 -0.1078  0.2160  0.2675
  140MOL0     C18824   0.575   4.293  10.816 -0.9812 -0.4131  0.3584
  140MOL0     C18825   0.444   4.223  10.870 -0.2934 -0.1964 -0.3091
  140MOL0     C18826   0.332   4.222  10.777  1.1100 -0.1077  0.4015
  140MOL0     C18827   0.219   4.142  10.848  0.4394 -0.0375  0.0154
  140MOL0     C18828   0.083   4.171  10.780 -0.3393 -0.1142 -1.7046
  140MOL0     C18829  -0.022   4.170  10.718  0.4489 -0.0536 -0.2094
  140MOL0     C18830   0.728   4.540  10.647 -0.1205 -0.7750 -0.0081
  140MOL0     C18831   0.800   4.588  10.532 -0.1508 -0.2195  0.1802
  140MOL0     C18832   0.890   4.704  10.562 -0.5412  0.2666 -0.0967
  140MOL0     H18833   0.819   4.634  10.032 -0.2649  2.3761 -0.7236
  140MOL0     H18834   0.920   4.683   9.806  0.4407 -1.4646 -0.7083
  140MOL0     H18835   1.319   4.729   9.801  0.4758 -1.2501  1.4725
  140MOL0     H18836   1.357   4.577   9.721 -2.2529 -1.0037  1.0804
  140MOL0     H18837   1.229   4.797   9.564 -1.8278 -1.5950  3.9015
  140MOL0     H18838   1.318   4.661   9.493  1.0416 -3.1089  1.9025
  140MOL0     H18839   1.438   4.904   9.624  2.9596 -1.0467  1.8234
  140MOL0     H18840   1.477   4.827   9.465 -0.7903  0.7146 -0.8601
  140MOL0     H18841   1.529   4.720   9.745 -1.6378 -0.0015 -0.7636
  140MOL0     H18842   1.627   4.676   9.609 -1.3865 -0.3035 -1.2257
  140MOL0     H18843   1.690   4.948   9.618  1.7206 -0.0325 -0.6761
  140MOL0     H18844   1.664   4.917   9.781 -1.2796  2.5047 -1.0542
  140MOL0     H18845   1.858   4.780   9.780 -2.3680 -3.3011 -0.6790
  140MOL0     H18846   1.835   4.721   9.624 -0.6022  0.4720 -1.2890
  140MOL0     H18847   1.928   5.011   9.710 -3.0400 -2.0193  1.9742
  140MOL0     H18848   1.907   4.962   9.543 -1.3102  1.2174  1.6794
  140MOL0     H18849   2.098   4.850   9.754  1.2575 -2.8003 -0.3896
  140MOL0     H18850   2.084   4.785   9.596 -1.7252 -0.5098  0.3205
  140MOL0     H18851   2.240   5.053   9.797  0.3008 -0.9287 -0.1125
  140MOL0     H18852   2.449   5.271   9.647 -0.3092 -0.3824  1.5020
  140MOL0     H18853   2.324   5.390   9.599  0.6158 -0.5086 -0.6993
  140MOL0     H18854   2.371   5.275   9.880 -2.4325  0.6109 -0.6288
  140MOL0     H18855   2.383   5.443   9.824 -1.6759  1.0008 -0.6468
  140MOL0     H18856   2.122   5.289   9.857  1.1847  0.4860  0.4877
  140MOL0     H18857   2.136   5.455   9.790 -3.8253 -0.2748  1.9281
  140MOL0     H18858   2.220   5.540  10.001 -1.2634  0.4980 -0.6065
  140MOL0     H18859   2.264   5.387  10.061 -0.0965 -0.3931  1.3377
  140MOL0     H18860   2.207   5.171  10.060  0.6154  0.0009  0.7289
  140MOL0     H18861   2.104   4.971  10.064  3.1063  2.3355 -0.5738
  140MOL0     H18862   1.734   4.744  10.398 -0.1194 -0.3182  0.7660
  140MOL0     H18863   1.606   4.528  10.449 -0.8491  0.8299  0.3963
  140MOL0     H18864   1.430   4.376  10.489  0.9036  1.3097 -0.4350
  140MOL0     H18865   1.304   4.496  10.441 -1.5611  0.4319  0.8484
  140MOL0     H18866   1.189   4.312  10.309 -0.2062  0.6031 -0.7495
  140MOL0     H18867   1.302   4.193  10.373  0.5818  0.9358 -0.1846
  140MOL0     H18868   1.106   4.198  10.517  0.0460 -0.5752 -3.7639
  140MOL0     H18869   1.259   4.232  10.589 -1.6643  1.5892  2.4417
  140MOL0     H18870   1.045   4.447  10.501 -0.9627  0.5230  1.0971
  140MOL0     H18871   1.179   4.487  10.605  0.3300  0.3648 -0.8644
  140MOL0     H18872   0.972   4.267  10.679 -1.4602 -0.1474  2.6969
  140MOL0     H18873   0.950   4.436  10.707 -0.3384  0.4971 -0.5775
  140MOL0     H18874   1.185   4.275  10.793 -1.9007 -1.2845 -4.1768
  140MOL0     H18875   1.167   4.460  10.811 -0.5612 -0.3332  2.3597
  140MOL0     H18876   0.972   4.430  10.951  0.1855 -0.1516 -0.7128
  140MOL0     H18877   1.112   4.362  11.024 -1.0642  1.0209  0.2968
  140MOL0     H18878   0.902   4.172  10.904  0.4415 -4.9140  1.4831
  140MOL0     H18879   1.054   4.126  10.953 -1.3738 -0.0870 -1.8972
  140MOL0     H18880   1.461   4.517  10.052 -1.3620 -1.2382  3.2652
  140MOL0     H18881   1.591   4.728   9.998  4.9621  2.1677  0.6651
  140MOL0     H18882   1.741   5.136  10.227  0.4569  1.2688  0.9280
  140MOL0     H18883   1.843   5.374  10.173  1.0600  0.5139 -1.0737
  140MOL0     H18884   1.288   4.525   9.933 -0.6391  1.9733 -5.1059
  140MOL0     H18885   1.200   4.472  10.159 -2.0217 -0.4787  1.2263
  140MOL0     H18886   0.688   4.343  10.313 -3.3931 -0.2902  0.3555
  140MOL0     H18887   0.567   4.278  10.502 -0.7679  1.4698  1.5429
  140MOL0     H18888   0.648   4.314  10.894 -0.8326  0.0347  0.1044
  140MOL0     H18889   0.626   4.216  10.757 -0.6359 -0.1784  0.3459
  140MOL0     H18890   0.411   4.270  10.963 -0.7827  0.9187 -1.0259
  140MOL0     H18891   0.466   4.117  10.883 -0.9096 -0.4765 -1.3416
  140MOL0     H18892   0.356   4.187  10.676  0.4050  2.8490 -0.8936
  140MOL0     H18893   0.308   4.328  10.766  1.1862 -0.2092 -0.8134
  140MOL0     H18894   0.240   4.036  10.833  0.2983  0.3222 -3.6859
  140MOL0     H18895   0.217   4.173  10.952  2.3012 -2.0902  0.7464
  140MOL0     H18896  -0.121   4.169  10.677  0.0230 -1.6932  0.7910
  140MOL0     H18897   0.728   4.597  10.739  1.6714 -0.9862  0.1744
  140MOL0     H18898   0.826   4.792  10.554 -1.1952 -0.3741 -4.5806
  140MOL0     H18899   0.940   4.685  10.658  4.0073  0.0407 -2.2272
  140MOL0     H18900   0.975   4.715  10.494  0.2776 -0.6293  0.7303
  141MOL0     O18901   4.547   1.267   7.840 -0.1555  0.5057 -0.4295
  141MOL0     C18902   4.492   1.154   7.826 -0.5822  0.6788 -0.1041
  141MOL0     O18903   4.521   1.044   7.911 -0.3290 -0.3241 -0.0741
  141MOL0     C18904   4.636   1.036   7.983  0.3326 -0.0766 -0.3279
  141MOL0     C18905   4.762   1.079   7.936 -0.2088  0.2602  0.2495
  141MOL0     C18906   4.871   1.080   8.027 -0.5346  0.1560 -0.3185
  141MOL0     C18907   4.855   1.035   8.158  0.0543  0.0612  0.1248
  141MOL0     O18908   4.959   1.037   8.249 -0.1697  0.3992  0.2133
  141MOL0     C18909   5.076   1.119   8.228  0.1202 -0.1117  0.3845
  141MOL0     C18910   5.141   1.155   8.363 -0.0107  0.7006 -0.0129
  141MOL0     C18911   5.279   1.220   8.349  0.5659  0.7437  0.4955
  141MOL0     C18912   5.365   1.226   8.479  0.3435 -0.3296 -0.2221
  141MOL0     C18913   5.460   1.339   8.498  0.3233 -0.2495  0.0918
  141MOL0     C18914   5.547   1.349   8.372  0.4731 -0.4304 -0.4957
  141MOL0     C18915   5.665   1.428   8.406 -0.1793  0.1195  0.0767
  141MOL0     C18916   5.784   1.400   8.312 -0.8664  0.4498  0.6290
  141MOL0     N18917   5.888   1.492   8.346 -0.1801  1.0328  0.8049
  141MOL0     C18918   5.999   1.456   8.423  0.4828  0.0569  0.2313
  141MOL0     C18919   6.059   1.578   8.447 -0.1728  0.2668  0.2433
  141MOL0     C18920   6.182   1.592   8.527 -1.9912  0.4187 -0.6931
  141MOL0     C18921   6.286   1.706   8.470 -0.8834  0.1715  0.9478
  141MOL0     C18922   6.321   1.705   8.315 -0.2507  0.0938 -0.3058
  141MOL0     C18923   6.407   1.583   8.297  0.1812  0.7554  0.2995
  141MOL0     O18924   6.505   1.588   8.185 -0.3894 -0.3534  0.0227
  141MOL0     C18925   6.640   1.618   8.201  0.5596 -0.3932  0.3424
  141MOL0     C18926   6.689   1.659   8.326  0.0674 -0.2687 -0.3960
  141MOL0     C18927   6.826   1.678   8.351 -0.0282 -0.0834 -0.3045
  141MOL0     C18928   6.916   1.653   8.248  0.8915  0.4723  0.1167
  141MOL0     C18929   7.061   1.644   8.271  0.3990  0.4712 -0.2670
  141MOL0     O18930   7.093   1.646   8.400 -0.4829 -0.0798 -0.2679
  141MOL0     C18931   7.228   1.651   8.445  0.8362 -0.4334 -0.0924
  141MOL0     C18932   7.335   1.587   8.384 -1.0810  0.4499 -0.6619
  141MOL0     C18933   7.465   1.585   8.433  0.5087 -0.1160 -0.8363
  141MOL0     C18934   7.490   1.658   8.545  0.4203  0.3370 -0.3211
  141MOL0     O18935   7.619   1.678   8.585  0.2570 -0.0538  0.1993
  141MOL0     C18936   7.669   1.814   8.568 -0.3541 -0.0849 -0.2124
  141MOL0     C18937   7.824   1.819   8.589 -0.5248 -0.8078 -0.0798
  141MOL0     C18938   7.878   1.838   8.729 -0.0392  0.4882 -0.6388
  141MOL0     C18939   8.028   1.814   8.737  0.0249  0.1082 -0.3011
  141MOL0     C18940   8.084   1.842   8.885 -0.6187  1.0853 -0.5097
  141MOL0     C18941   8.233   1.799   8.890  0.8887 -0.4366 -0.1431
  141MOL0     C18942   8.329   1.879   8.793 -0.2806 -0.3444 -0.4794
  141MOL0     C18943   8.479   1.853   8.814 -0.0196  1.0621 -0.8037
  141MOL0    Cl18944   8.531   1.912   8.976  0.3076 -0.5403  0.3336
  141MOL0     C18945   7.380   1.728   8.609 -1.3740  0.1591 -0.3904
  141MOL0     C18946   7.249   1.727   8.555  0.0825 -0.5108  1.0554
  141MOL0     O18947   7.144   1.636   8.178 -0.3765  0.0107  0.4201
  141MOL0     C18948   6.866   1.624   8.117  0.5521  0.4949  1.1346
  141MOL0     C18949   6.729   1.604   8.095  0.0001 -0.5301  0.3458
  141MOL0     N18950   5.996   1.668   8.365  0.0510 -0.0585 -0.6289
  141MOL0     N18951   5.900   1.621   8.308  0.8475 -0.0449 -0.5220
  141MOL0     C18952   4.735   0.975   8.198 -0.4520  0.3442 -0.0127
  141MOL0     C18953   4.627   0.979   8.109  0.4949  0.4697  0.5809
  141MOL0     C18954   4.388   1.142   7.715  0.2768  0.0880  0.7518
  141MOL0     C18955   4.349   1.256   7.648  0.0761  0.0457  0.4933
  141MOL0     C18956   4.248   1.251   7.546 -0.6498  0.5580  0.3861
  141MOL0     C18957   4.186   1.128   7.520  0.6318 -0.2473  0.1634
  141MOL0     O18958   4.100   1.131   7.405  0.2537  0.1638  0.1529
  141MOL0     C18959   3.977   1.075   7.438  0.2508 -0.2490 -1.1176
  141MOL0     C18960   3.872   1.101   7.325 -0.1067  0.8485 -0.5137
  141MOL0     C18961   3.897   1.020   7.191 -1.1842 -0.1031  0.3332
  141MOL0     C18962   3.798   0.901   7.164 -0.2333 -0.9939  0.7052
  141MOL0     C18963   3.803   0.805   7.274  0.1552  0.6403  0.2212
  141MOL0     C18964   3.812   0.710   7.348  0.6129 -0.5363 -0.2513
  141MOL0     C18965   4.235   1.015   7.584  0.2820 -1.1589 -0.9646
  141MOL0     C18966   4.337   1.020   7.683 -0.0007  0.0464 -0.7506
  141MOL0     C18967   4.372   0.890   7.745 -0.2385 -0.0920 -0.4255
  141MOL0     H18968   4.764   1.119   7.835  3.7927  3.9862  1.4725
  141MOL0     H18969   4.965   1.112   7.983 -0.1594  1.3602  1.2683
  141MOL0     H18970   5.152   1.071   8.165  1.7178  1.3811  1.0887
  141MOL0     H18971   5.049   1.212   8.177  0.5245 -0.6599 -0.8896
  141MOL0     H18972   5.144   1.068   8.430 -1.1451 -2.3723 -3.6319
  141MOL0     H18973   5.088   1.235   8.416 -1.3656 -0.7374  0.8894
  141MOL0     H18974   5.268   1.323   8.315 -1.4226  0.1287 -0.9344
  141MOL0     H18975   5.328   1.173   8.263 -0.1723 -0.0614  0.4896
  141MOL0     H18976   5.296   1.241   8.562 -0.1893  0.2954 -0.7598
  141MOL0     H18977   5.425   1.135   8.483  0.0823 -0.5386 -0.8203
  141MOL0     H18978   5.414   1.430   8.537 -1.9252 -1.3078  0.0800
  141MOL0     H18979   5.523   1.314   8.584 -0.2218 -1.3816  0.1807
  141MOL0     H18980   5.564   1.249   8.331  0.3709 -0.9834  0.7362
  141MOL0     H18981   5.486   1.401   8.299 -1.5229 -2.8945 -0.7288
  141MOL0     H18982   5.694   1.421   8.511  1.6504  1.9989 -0.2342
  141MOL0     H18983   5.642   1.534   8.390  1.9178  0.6697  0.3155
  141MOL0     H18984   5.814   1.294   8.310 -1.7738  0.1822  0.8095
  141MOL0     H18985   5.752   1.418   8.209  0.1893  0.4272  0.2836
  141MOL0     H18986   6.024   1.356   8.458 -0.1309 -0.2012 -0.0315
  141MOL0     H18987   6.157   1.621   8.630  0.9097 -2.4395  1.0142
  141MOL0     H18988   6.240   1.500   8.540  1.3048  2.7041  4.1089
  141MOL0     H18989   6.236   1.803   8.484 -0.7672  0.0568  2.3343
  141MOL0     H18990   6.379   1.708   8.527  2.4196  1.4315 -3.9027
  141MOL0     H18991   6.369   1.798   8.284 -2.0433  1.8789  1.9503
  141MOL0     H18992   6.226   1.694   8.263  0.2661 -1.9809 -0.9054
  141MOL0     H18993   6.347   1.492   8.287  2.1253 -0.5022 -0.7180
  141MOL0     H18994   6.474   1.562   8.381  0.9196 -1.4857 -0.7740
  141MOL0     H18995   6.632   1.680   8.416  2.7386  0.3994  1.2430
  141MOL0     H18996   6.866   1.720   8.443 -1.3131 -1.0171  0.7138
  141MOL0     H18997   7.326   1.536   8.289  2.7636 -1.0492 -0.4157
  141MOL0     H18998   7.547   1.535   8.382  2.1879 -0.5150  2.0541
  141MOL0     H18999   7.635   1.837   8.466 -0.7765  1.2453  0.1983
  141MOL0     H19000   7.616   1.892   8.624 -0.2668 -1.0795  1.3144
  141MOL0     H19001   7.873   1.734   8.541 -0.5853 -1.9551  1.7803
  141MOL0     H19002   7.868   1.910   8.548  1.3716 -1.4511  0.3921
  141MOL0     H19003   7.862   1.942   8.761  0.3772  0.1451  0.7557
  141MOL0     H19004   7.829   1.772   8.801  0.2535 -0.1880 -1.0475
  141MOL0     H19005   8.076   1.883   8.666 -1.8296  2.0062  0.1910
  141MOL0     H19006   8.057   1.714   8.704  1.3835  0.8336 -1.4354
  141MOL0     H19007   8.038   1.783   8.965  0.5745  0.3974 -0.2974
  141MOL0     H19008   8.073   1.948   8.908  0.6010  0.6239  2.7186
  141MOL0     H19009   8.271   1.824   8.989  2.0103 -1.9473 -0.1560
  141MOL0     H19010   8.231   1.691   8.876 -0.4238 -0.3416 -0.8642
  141MOL0     H19011   8.312   1.986   8.810  1.8696  0.1722 -1.2446
  141MOL0     H19012   8.312   1.852   8.689 -1.9133 -2.7670  0.3302
  141MOL0     H19013   8.513   1.749   8.817  1.4436  1.3855 -3.2547
  141MOL0     H19014   8.537   1.881   8.726 -1.4421  1.1645 -1.7353
  141MOL0     H19015   7.397   1.797   8.691 -1.4680 -0.5141  0.2089
  141MOL0     H19016   7.169   1.787   8.597 -0.0294  0.9874 -1.1689
  141MOL0     H19017   6.934   1.617   8.032 -0.0941  0.6746  0.5880
  141MOL0     H19018   6.689   1.586   7.995 -2.0949  1.6854  0.6911
  141MOL0     H19019   4.719   0.931   8.296 -0.9234  1.7597  0.5623
  141MOL0     H19020   4.527   0.952   8.142  0.7593 -0.3866  0.7098
  141MOL0     H19021   4.404   1.349   7.661 -0.7966  0.9764 -1.9094
  141MOL0     H19022   4.215   1.344   7.503 -0.5795  0.2094 -0.4312
  141MOL0     H19023   3.949   1.117   7.534  0.0622 -2.0600 -0.3519
  141MOL0     H19024   3.990   0.966   7.446  0.5121 -0.1054  0.8037
  141MOL0     H19025   3.869   1.207   7.297  0.4141  2.3623  4.1971
  141MOL0     H19026   3.771   1.077   7.358  0.3784  0.4728  0.7585
  141MOL0     H19027   4.004   0.999   7.178 -0.7008  3.4847 -3.5080
  141MOL0     H19028   3.878   1.098   7.116  2.3726  1.1853  0.5469
  141MOL0     H19029   3.698   0.943   7.155 -0.0868 -0.7724  0.0237
  141MOL0     H19030   3.818   0.853   7.068  1.2470 -3.3583  2.0905
  141MOL0     H19031   3.824   0.634   7.422  0.4149  0.5644  0.9608
  141MOL0     H19032   4.174   0.926   7.576 -0.8631 -0.8564  2.6039
  141MOL0     H19033   4.334   0.799   7.698  1.2905 -0.7010 -0.5270
  141MOL0     H19034   4.481   0.886   7.749 -0.2350  0.5388  3.1945
  141MOL0     H19035   4.337   0.874   7.847  2.2350 -0.5862  0.4127
  142MOL0     O19036   7.224   4.972   7.738  0.2111  0.0864 -0.2452
  142MOL0     C19037   7.178   5.013   7.632 -0.3918 -0.2129  0.4157
  142MOL0     O19038   7.259   5.049   7.519  0.7268  0.0378 -0.5702
  142MOL0     C19039   7.398   5.030   7.536 -0.5345 -0.5202 -0.2428
  142MOL0     C19040   7.457   4.899   7.556 -0.0457  0.4990 -0.2780
  142MOL0     C19041   7.594   4.882   7.569  0.0990  0.0456  0.3545
  142MOL0     C19042   7.682   4.989   7.566  0.0896 -0.3643 -0.3307
  142MOL0     O19043   7.821   4.952   7.578  0.1374  0.1001 -0.3935
  142MOL0     C19044   7.921   5.051   7.610 -0.6576 -0.7019 -0.7720
  142MOL0     C19045   8.050   4.985   7.613  1.1131 -0.4062  0.0917
  142MOL0     C19046   8.094   4.945   7.464 -0.3918  0.4410 -0.5054
  142MOL0     C19047   8.237   4.948   7.463 -0.0827  0.0899 -0.1613
  142MOL0     C19048   8.301   4.866   7.359 -0.2097 -0.0768  0.0687
  142MOL0     C19049   8.450   4.858   7.382  0.0651  1.0987  0.4375
  142MOL0     C19050   8.524   4.841   7.258 -0.0240  0.7952  0.7293
  142MOL0     C19051   8.664   4.776   7.272  0.0870 -0.5258  0.1434
  142MOL0     N19052   8.755   4.883   7.317 -1.0787  0.4687  0.1632
  142MOL0     C19053   8.789   4.915   7.449  0.6644  0.2199  0.3300
  142MOL0     C19054   8.846   5.035   7.445 -0.0711 -0.3521 -0.6599
  142MOL0     C19055   8.894   5.117   7.565  0.3888 -0.0157 -0.8071
  142MOL0     C19056   8.990   5.039   7.648 -0.5653  0.1221  0.4119
  142MOL0     C19057   9.067   5.121   7.761  0.5831 -0.8443 -0.6682
  142MOL0     C19058   9.157   5.033   7.853 -0.1514  0.4735  0.3856
  142MOL0     O19059   9.228   5.113   7.940  0.1620 -0.9175  0.1041
  142MOL0     C19060   9.290   5.053   8.045 -0.5386 -0.7505 -0.8154
  142MOL0     C19061   9.308   4.917   8.061  0.8302 -0.0618 -0.3502
  142MOL0     C19062   9.376   4.867   8.178  1.0816 -0.4032  0.1293
  142MOL0     C19063   9.411   4.955   8.280 -0.0421 -0.5532 -0.3771
  142MOL0     C19064   9.459   4.906   8.409  0.8513  0.2646 -0.3598
  142MOL0     O19065   9.493   4.774   8.421 -0.2474 -0.1274  0.3222
  142MOL0     C19066   9.546   4.710   8.535  0.6659  0.5180  0.2279
  142MOL0     C19067   9.580   4.775   8.659  0.4373 -0.4043  0.2747
  142MOL0     C19068   9.634   4.705   8.760 -0.1558  0.5791 -0.4939
  142MOL0     C19069   9.654   4.567   8.747 -1.4349 -0.3924 -0.6434
  142MOL0     O19070   9.713   4.495   8.851  0.4510  0.6960  0.1532
  142MOL0     C19071   9.826   4.414   8.806  0.6271  0.6386  0.4222
  142MOL0     C19072   9.907   4.357   8.922  0.0742 -0.0082 -0.2621
  142MOL0     C19073   9.968   4.473   8.993  0.8336 -0.6531 -0.9084
  142MOL0     C19074   9.929   4.479   9.141  0.3476  0.1553  0.4672
  142MOL0     C19075   9.986   4.595   9.202  0.2338  0.5819 -0.0847
  142MOL0     C19076   9.935   4.597   9.349 -0.6626  0.4051  0.5137
  142MOL0     C19077   9.987   4.718   9.408 -0.1611  1.4044 -0.4431
  142MOL0     C19078   9.965   4.730   9.562  0.2426 -0.6707 -0.2869
  142MOL0    Cl19079   9.792   4.707   9.605  0.1810  0.0311  0.0285
  142MOL0     C19080   9.610   4.504   8.634 -0.2418  0.1338  0.8040
  142MOL0     C19081   9.565   4.574   8.526  0.3973 -0.2544  0.4807
  142MOL0     O19082   9.463   4.995   8.499 -0.0549 -0.5093 -0.1549
  142MOL0     C19083   9.394   5.094   8.258 -0.2855  0.1637 -0.6801
  142MOL0     C19084   9.340   5.141   8.147 -0.6393  0.2895 -0.5651
  142MOL0     N19085   8.851   5.083   7.322  0.2651  0.4568  1.1460
  142MOL0     N19086   8.800   4.990   7.246  0.3925  0.0460  0.0282
  142MOL0     C19087   7.630   5.112   7.533 -0.2528 -0.6485 -0.1185
  142MOL0     C19088   7.491   5.132   7.513 -0.3252 -0.6831 -0.4841
  142MOL0     C19089   7.034   5.043   7.631 -0.1196 -0.3824 -1.0330
  142MOL0     C19090   6.954   4.976   7.733 -0.1433 -0.0552 -0.7463
  142MOL0     C19091   6.819   5.011   7.750  0.0959  0.1135 -0.4897
  142MOL0     C19092   6.762   5.114   7.681  0.1980  1.4668  0.1625
  142MOL0     O19093   6.630   5.152   7.686  0.1407  0.2352  0.5601
  142MOL0     C19094   6.542   5.083   7.775 -0.0390 -0.1553 -0.6561
  142MOL0     C19095   6.557   5.138   7.924  0.2768 -0.0252  0.0307
  142MOL0     C19096   6.468   5.050   8.011  0.7087 -0.0892 -0.6254
  142MOL0     C19097   6.317   5.067   7.977 -0.1518  0.0778  0.7068
  142MOL0     C19098   6.220   5.050   8.092  0.2815 -1.1631  0.6350
  142MOL0     C19099   6.144   5.019   8.177 -0.5367  0.0736 -0.9289
  142MOL0     C19100   6.840   5.188   7.591  0.4790  0.1664  1.1596
  142MOL0     C19101   6.973   5.154   7.567 -0.1821  0.1526  0.4264
  142MOL0     C19102   7.048   5.242   7.465  0.2371 -0.7032  0.8691
  142MOL0     H19103   7.389   4.815   7.561  0.9382 -0.2634  4.1512
  142MOL0     H19104   7.626   4.779   7.575 -0.7628 -0.5566 -3.0436
  142MOL0     H19105   7.923   5.144   7.552 -0.7041 -1.3700 -1.8773
  142MOL0     H19106   7.906   5.088   7.712  0.8763  1.8655 -1.3712
  142MOL0     H19107   8.044   4.893   7.672  0.3277  0.1730  0.9517
  142MOL0     H19108   8.119   5.063   7.648  0.3546  1.4843 -2.3378
  142MOL0     H19109   8.060   5.018   7.390 -1.6234  2.8791  2.2196
  142MOL0     H19110   8.053   4.850   7.431  0.4259 -0.9405  2.1502
  142MOL0     H19111   8.260   5.051   7.437  1.2337  0.0114  0.6125
  142MOL0     H19112   8.282   4.940   7.563  0.9168  3.0190 -0.2963
  142MOL0     H19113   8.261   4.764   7.362  0.3150 -0.2685  1.8796
  142MOL0     H19114   8.268   4.899   7.260 -2.7363  0.7268  1.0956
  142MOL0     H19115   8.496   4.941   7.436  0.8745  0.6001  0.5404
  142MOL0     H19116   8.455   4.768   7.444  0.7829  1.1134  0.4135
  142MOL0     H19117   8.528   4.940   7.211 -0.6621  0.5234  0.0904
  142MOL0     H19118   8.470   4.759   7.210  2.9814 -0.7401 -0.2932
  142MOL0     H19119   8.663   4.703   7.353  0.4428  0.5006  1.1077
  142MOL0     H19120   8.696   4.732   7.177  0.6241  1.2569 -0.5418
  142MOL0     H19121   8.776   4.859   7.542 -3.6246 -0.5188 -0.4807
  142MOL0     H19122   8.947   5.211   7.549  2.3300 -0.5032  1.9017
  142MOL0     H19123   8.807   5.153   7.621  0.0996 -0.5487 -0.9093
  142MOL0     H19124   8.932   4.958   7.695 -0.3070 -1.0820 -1.2382
  142MOL0     H19125   9.067   4.998   7.582  2.7329  3.5831  1.7697
  142MOL0     H19126   8.992   5.173   7.821  0.8528  2.1111 -2.6538
  142MOL0     H19127   9.132   5.200   7.720  2.4050 -1.7610  0.3108
  142MOL0     H19128   9.216   4.954   7.805  1.3427  2.0312 -0.4428
  142MOL0     H19129   9.091   4.971   7.914 -0.1916 -0.0289 -0.1622
  142MOL0     H19130   9.284   4.843   7.985  2.3560 -1.0833  0.1356
  142MOL0     H19131   9.390   4.760   8.186  1.3867 -0.2991  1.2088
  142MOL0     H19132   9.588   4.883   8.659 -1.2334 -0.2561  0.9072
  142MOL0     H19133   9.655   4.763   8.849  0.8838  0.9064 -0.9395
  142MOL0     H19134   9.776   4.324   8.769 -0.3954  0.8832  1.1398
  142MOL0     H19135   9.897   4.459   8.736  0.0643  0.3124 -0.3790
  142MOL0     H19136   9.841   4.307   8.994  0.8993 -0.1206  0.4426
  142MOL0     H19137   9.963   4.268   8.892  0.0556  0.4501 -1.7460
  142MOL0     H19138  10.077   4.472   8.980  0.9318  1.7503 -0.7066
  142MOL0     H19139   9.934   4.570   8.956 -0.1691 -1.2549 -1.6108
  142MOL0     H19140   9.956   4.387   9.193  0.7286  0.6318  1.1326
  142MOL0     H19141   9.823   4.506   9.144  0.3401  0.1522  0.2710
  142MOL0     H19142   9.940   4.675   9.143 -0.2747 -1.1696 -2.1727
  142MOL0     H19143  10.095   4.604   9.215  0.2088 -1.3603  2.0343
  142MOL0     H19144   9.826   4.601   9.360 -0.6677  2.6694  0.1619
  142MOL0     H19145   9.974   4.506   9.396  0.8565  0.8809  0.2266
  142MOL0     H19146   9.954   4.812   9.363  1.7535  2.4703  0.2665
  142MOL0     H19147  10.096   4.712   9.396 -0.3829  0.4782 -2.3305
  142MOL0     H19148  10.018   4.654   9.620 -3.1149 -2.8285  0.1847
  142MOL0     H19149   9.991   4.832   9.594 -0.0417 -0.0425 -1.9292
  142MOL0     H19150   9.611   4.396   8.622 -2.8257  0.2307 -1.0013
  142MOL0     H19151   9.544   4.517   8.435  0.3672  0.5635 -0.0308
  142MOL0     H19152   9.417   5.156   8.345  0.5165 -1.8937  0.6470
  142MOL0     H19153   9.323   5.247   8.134  1.4353  0.5850 -1.1826
  142MOL0     H19154   7.692   5.201   7.531 -0.9796 -0.1217  0.3076
  142MOL0     H19155   7.448   5.230   7.501  0.0211 -0.6295 -1.3939
  142MOL0     H19156   7.000   4.905   7.801 -0.8710  0.1719  0.0101
  142MOL0     H19157   6.760   4.965   7.829 -0.8241 -0.1753 -1.3373
  142MOL0     H19158   6.554   4.975   7.767  1.1781  0.0506 -2.0617
  142MOL0     H19159   6.436   5.093   7.752 -0.6169 -0.8593  1.4833
  142MOL0     H19160   6.521   5.241   7.919 -0.4295 -0.3089 -2.7816
  142MOL0     H19161   6.660   5.122   7.957 -0.5635 -1.1496  2.2793
  142MOL0     H19162   6.489   5.068   8.116  0.9787 -3.9939  0.1380
  142MOL0     H19163   6.493   4.943   8.010 -1.2814 -0.6035  0.2998
  142MOL0     H19164   6.305   5.161   7.924 -1.0996  0.2201  1.1597
  142MOL0     H19165   6.295   4.987   7.905  0.1345 -0.6962  1.4559
  142MOL0     H19166   6.083   4.998   8.262 -0.3773  0.7827 -0.6349
  142MOL0     H19167   6.801   5.260   7.521 -0.9000 -1.5478  0.1027
  142MOL0     H19168   7.112   5.304   7.528  2.0063  1.3649 -2.7067
  142MOL0     H19169   7.103   5.187   7.388  2.3632  2.8086 -0.3314
  142MOL0     H19170   6.985   5.315   7.413  0.0025 -0.7254  1.1151
  143MOL0     O19171   5.297   8.652   3.452  0.2649  0.1997 -0.2528
  143MOL0     C19172   5.307   8.765   3.436 -0.6994  0.5368  0.3325
  143MOL0     O19173   5.426   8.836   3.446  0.3202 -0.3808  0.2586
  143MOL0     C19174   5.544   8.775   3.490  0.2076 -0.1171  1.6335
  143MOL0     C19175   5.663   8.844   3.461 -0.2901 -0.5075  0.0913
  143MOL0     C19176   5.792   8.799   3.494  0.2980 -0.6832 -0.3350
  143MOL0     C19177   5.805   8.682   3.562 -0.3918  0.1895  0.1495
  143MOL0     O19178   5.926   8.646   3.616 -0.3181  0.0885 -0.1028
  143MOL0     C19179   6.051   8.677   3.545 -0.4341  1.1062  0.6031
  143MOL0     C19180   6.164   8.589   3.603 -0.2123  0.5170  0.0790
  143MOL0     C19181   6.296   8.593   3.522  0.5621 -0.6075  0.9462
  143MOL0     C19182   6.402   8.521   3.602 -0.7213 -0.3346  0.3892
  143MOL0     C19183   6.522   8.526   3.505  0.3846 -0.7219 -0.6172
  143MOL0     C19184   6.650   8.513   3.581  0.1158  0.1980 -0.3968
  143MOL0     C19185   6.769   8.492   3.472 -0.7127  0.5130  0.0497
  143MOL0     C19186   6.911   8.469   3.538 -0.5153  0.5059  0.4159
  143MOL0     N19187   7.022   8.478   3.438 -0.2827 -0.6827  0.8329
  143MOL0     C19188   7.071   8.379   3.358 -0.3332 -0.5148 -0.3914
  143MOL0     C19189   7.150   8.437   3.260  0.2192 -0.2640  0.1083
  143MOL0     C19190   7.234   8.373   3.151 -0.0003  0.1977 -0.5491
  143MOL0     C19191   7.353   8.317   3.220  0.2317  1.2078 -0.3031
  143MOL0     C19192   7.453   8.426   3.244 -1.1182 -0.4617 -0.7085
  143MOL0     C19193   7.587   8.371   3.310 -0.3381 -0.0440  1.1600
  143MOL0     O19194   7.637   8.265   3.211 -0.1396 -0.0423 -0.0434
  143MOL0     C19195   7.756   8.214   3.247  0.3497  0.0197  0.4921
  143MOL0     C19196   7.824   8.137   3.149 -0.2809 -0.0487  0.4837
  143MOL0     C19197   7.955   8.082   3.160  0.7831  0.3223 -0.4801
  143MOL0     C19198   8.019   8.089   3.290  0.6528  0.5927 -1.0191
  143MOL0     C19199   8.145   8.018   3.330  1.8134 -0.3216  0.0992
  143MOL0     O19200   8.189   7.924   3.253  0.2091  0.4890 -0.1083
  143MOL0     C19201   8.305   7.866   3.288  0.0171  0.5125 -0.2697
  143MOL0     C19202   8.413   7.888   3.204 -0.3059  1.2586 -0.8059
  143MOL0     C19203   8.535   7.830   3.225 -0.5261  0.4700 -0.2865
  143MOL0     C19204   8.552   7.753   3.331  0.9427  0.4596  0.0993
  143MOL0     O19205   8.679   7.700   3.341 -0.6781 -1.0036  0.2110
  143MOL0     C19206   8.739   7.676   3.466  0.0067  0.0193 -0.1063
  143MOL0     C19207   8.892   7.693   3.466  1.3548 -0.4460  0.0484
  143MOL0     C19208   8.960   7.591   3.376 -0.2993  0.6698 -0.1101
  143MOL0     C19209   9.108   7.613   3.394 -0.8250  0.1821 -0.1083
  143MOL0     C19210   9.189   7.485   3.340  0.3633  0.5288 -0.6128
  143MOL0     C19211   9.342   7.506   3.373 -0.5947 -0.6432 -0.3740
  143MOL0     C19212   9.422   7.384   3.343  0.6343  0.1836 -0.4624
  143MOL0     C19213   9.569   7.411   3.370 -0.5519  0.2309 -0.5955
  143MOL0    Cl19214   9.595   7.398   3.545 -0.2512  0.1389  0.0985
  143MOL0     C19215   8.448   7.721   3.420 -0.1177 -0.6571 -0.6236
  143MOL0     C19216   8.321   7.779   3.399 -0.8205 -0.2355  0.3506
  143MOL0     O19217   8.198   8.063   3.433  0.3791  0.6134 -0.4442
  143MOL0     C19218   7.948   8.170   3.389  0.0818  0.5527  0.8356
  143MOL0     C19219   7.826   8.233   3.365 -0.4673  0.4057 -0.4797
  143MOL0     N19220   7.134   8.575   3.288 -0.1664  0.5680  0.0131
  143MOL0     N19221   7.062   8.598   3.392  0.8034  0.1410 -0.0894
  143MOL0     C19222   5.687   8.625   3.614 -0.6321  0.0289  0.4134
  143MOL0     C19223   5.559   8.670   3.582  0.6561 -0.2139  0.5139
  143MOL0     C19224   5.177   8.845   3.425  0.3166 -0.2905 -0.2794
  143MOL0     C19225   5.064   8.795   3.491 -1.1763 -0.2406 -0.3890
  143MOL0     C19226   4.939   8.854   3.475  1.0730  0.5667  0.1247
  143MOL0     C19227   4.921   8.966   3.391  0.5896 -0.5534 -0.0765
  143MOL0     O19228   4.801   9.029   3.367 -0.5754 -0.3546  0.0698
  143MOL0     C19229   4.691   9.009   3.461  0.3911 -0.4487 -0.2489
  143MOL0     C19230   4.587   9.111   3.423 -0.2531 -0.2443 -0.2143
  143MOL0     C19231   4.508   9.083   3.295 -0.4699 -0.6544 -0.1263
  143MOL0     C19232   4.363   9.121   3.292  0.2905 -0.4300 -0.3502
  143MOL0     C19233   4.346   9.260   3.347  0.1715 -0.2612 -0.3385
  143MOL0     C19234   4.331   9.361   3.417 -0.9133  0.5501  1.0002
  143MOL0     C19235   5.032   9.017   3.335  0.3064  0.9534  0.4302
  143MOL0     C19236   5.157   8.963   3.353 -0.4261 -0.2210 -0.3493
  143MOL0     C19237   5.275   9.019   3.275  0.0573  0.4872  0.2616
  143MOL0     H19238   5.656   8.943   3.416  0.9562 -1.5858 -2.6634
  143MOL0     H19239   5.880   8.856   3.465  2.0369 -2.0137  1.9578
  143MOL0     H19240   6.038   8.644   3.441  0.1822 -0.0230  0.8676
  143MOL0     H19241   6.079   8.782   3.552 -4.9336  2.6918 -1.2242
  143MOL0     H19242   6.122   8.489   3.617 -0.1348  0.6851  1.8479
  143MOL0     H19243   6.184   8.625   3.705 -1.1286  0.5117  0.2726
  143MOL0     H19244   6.328   8.695   3.499  0.3357 -1.4063 -3.7279
  143MOL0     H19245   6.275   8.547   3.426 -0.4535  2.3543 -0.3653
  143MOL0     H19246   6.417   8.588   3.687  1.3662  0.1008 -0.2595
  143MOL0     H19247   6.386   8.416   3.628 -0.3000 -0.1500  1.4444
  143MOL0     H19248   6.504   8.442   3.437 -2.8452 -0.1214 -0.6467
  143MOL0     H19249   6.523   8.618   3.445  1.0025  0.6067  1.3496
  143MOL0     H19250   6.662   8.602   3.643  1.6433  1.9973 -3.0840
  143MOL0     H19251   6.633   8.424   3.643  2.3255  0.3952  0.5704
  143MOL0     H19252   6.775   8.576   3.402 -3.2690 -0.4609 -1.4308
  143MOL0     H19253   6.759   8.406   3.406  0.8850  3.2879 -4.2592
  143MOL0     H19254   6.928   8.547   3.613  0.7099  0.9579 -0.3120
  143MOL0     H19255   6.910   8.370   3.586 -3.3631 -0.3053 -1.1147
  143MOL0     H19256   7.058   8.274   3.383 -1.4065 -0.2904  0.0411
  143MOL0     H19257   7.176   8.297   3.097 -0.5444 -0.3269  0.7371
  143MOL0     H19258   7.254   8.452   3.079 -0.2717 -0.7492 -1.7079
  143MOL0     H19259   7.325   8.271   3.316  0.2612  0.9289 -0.4249
  143MOL0     H19260   7.393   8.229   3.168 -1.5627 -0.7900  1.4908
  143MOL0     H19261   7.411   8.504   3.308 -1.6479 -0.7810 -0.6534
  143MOL0     H19262   7.475   8.474   3.149  0.9646  2.2843  1.0053
  143MOL0     H19263   7.571   8.330   3.410 -0.9952  1.7970  1.8603
  143MOL0     H19264   7.655   8.457   3.318  1.7227 -1.7799  4.8489
  143MOL0     H19265   7.784   8.130   3.048  1.2538 -1.8111 -0.0724
  143MOL0     H19266   7.990   8.017   3.081 -3.2879  0.0690 -2.3406
  143MOL0     H19267   8.397   7.945   3.113 -0.2517  2.6633  0.0347
  143MOL0     H19268   8.615   7.842   3.153  0.8772 -2.4961  0.6389
  143MOL0     H19269   8.691   7.746   3.535  0.3116 -0.1094  0.2452
  143MOL0     H19270   8.719   7.577   3.508  1.3164 -0.0340  0.4611
  143MOL0     H19271   8.919   7.793   3.432  0.8121 -0.4998 -0.5612
  143MOL0     H19272   8.925   7.677   3.569 -1.2576  0.6655  1.1289
  143MOL0     H19273   8.943   7.487   3.406  0.1150  0.3364 -1.0089
  143MOL0     H19274   8.941   7.601   3.269 -0.7634  0.4329 -0.0528
  143MOL0     H19275   9.141   7.645   3.494  0.1343  2.3397 -1.0354
  143MOL0     H19276   9.138   7.701   3.335  0.8004  1.2711  2.1594
  143MOL0     H19277   9.171   7.478   3.232 -2.9316 -0.8998 -0.0696
  143MOL0     H19278   9.162   7.383   3.369  3.6262 -0.0348  0.8781
  143MOL0     H19279   9.386   7.585   3.312  0.8686 -1.6510 -0.6660
  143MOL0     H19280   9.356   7.532   3.479 -1.2269 -0.7288 -0.2610
  143MOL0     H19281   9.405   7.359   3.238 -3.3251  0.1190  0.0127
  143MOL0     H19282   9.385   7.296   3.396 -1.1876  0.5971 -0.9742
  143MOL0     H19283   9.630   7.336   3.318  1.4443  0.2335  1.5594
  143MOL0     H19284   9.597   7.508   3.327  0.6113 -1.4562 -3.9830
  143MOL0     H19285   8.472   7.658   3.506  1.5942  1.8786  0.9004
  143MOL0     H19286   8.235   7.773   3.466 -0.5097  1.3962  0.9568
  143MOL0     H19287   7.977   8.186   3.492 -3.5148  1.5415  1.8518
  143MOL0     H19288   7.790   8.281   3.455  0.4910 -1.8009  1.1854
  143MOL0     H19289   5.699   8.540   3.680  1.0651 -1.3021 -1.4818
  143MOL0     H19290   5.467   8.620   3.612 -0.4853  0.3134 -1.9236
  143MOL0     H19291   5.081   8.718   3.566  1.5212  0.8446  0.2244
  143MOL0     H19292   4.854   8.809   3.527  0.7970  0.2744 -0.5638
  143MOL0     H19293   4.721   9.019   3.565 -0.5467 -1.4108  0.1291
  143MOL0     H19294   4.649   8.908   3.451 -1.2848  0.2731 -0.9512
  143MOL0     H19295   4.641   9.205   3.411 -0.9842  0.1866 -0.1829
  143MOL0     H19296   4.513   9.111   3.504 -1.4759 -0.5879 -1.3067
  143MOL0     H19297   4.518   8.977   3.272 -0.6918 -0.3876 -1.5627
  143MOL0     H19298   4.554   9.146   3.218 -0.9488  0.5193  0.5302
  143MOL0     H19299   4.325   9.124   3.190 -4.4042 -0.8103  1.1678
  143MOL0     H19300   4.306   9.053   3.356  2.4116 -1.0156  1.0296
  143MOL0     H19301   4.307   9.451   3.469 -2.6431  1.3044 -0.9628
  143MOL0     H19302   5.014   9.112   3.287 -0.9532  0.5672  0.0817
  143MOL0     H19303   5.325   9.095   3.337 -0.9385  0.4546  1.1431
  143MOL0     H19304   5.341   8.939   3.243  0.6305 -0.2082  2.9704
  143MOL0     H19305   5.233   9.069   3.187 -2.2324  1.0163  1.5604
  144MOL0     O19306   4.853   2.612   7.126 -0.4302  0.7602 -1.0303
  144MOL0     C19307   4.830   2.493   7.100  0.3738 -0.0712 -0.0930
  144MOL0     O19308   4.905   2.413   7.029  1.1071 -0.1540  0.2449
  144MOL0     C19309   5.002   2.457   6.940  0.3349  0.0052  0.0131
  144MOL0     C19310   5.034   2.592   6.914 -0.3702  0.6528  0.3047
  144MOL0     C19311   5.147   2.616   6.839  1.4539  0.3980  0.7140
  144MOL0     C19312   5.228   2.515   6.786 -0.2458  0.6732  0.7968
  144MOL0     O19313   5.343   2.542   6.707 -0.5482 -0.4468 -0.8054
  144MOL0     C19314   5.433   2.430   6.675 -0.2450  0.3306 -0.2049
  144MOL0     C19315   5.507   2.375   6.803  0.6673  0.3819 -0.1470
  144MOL0     C19316   5.605   2.272   6.761 -0.0464  0.3326  0.1037
  144MOL0     C19317   5.718   2.249   6.865  0.4134 -0.5352 -0.3303
  144MOL0     C19318   5.687   2.207   7.010 -0.2271  0.1103  0.1104
  144MOL0     C19319   5.632   2.315   7.103  0.2945  0.2390 -0.1576
  144MOL0     C19320   5.601   2.244   7.242  0.1035 -0.9262 -0.2258
  144MOL0     C19321   5.577   2.355   7.342  0.4055  0.8104  0.0394
  144MOL0     N19322   5.568   2.291   7.474  0.3172 -0.2400 -0.0063
  144MOL0     C19323   5.452   2.259   7.532  0.4603  0.1070 -0.6962
  144MOL0     C19324   5.483   2.193   7.646  0.0765 -0.4293  0.1416
  144MOL0     C19325   5.385   2.138   7.743  0.1110 -0.6382 -0.4034
  144MOL0     C19326   5.290   2.035   7.671  0.1120 -0.5972 -0.5251
  144MOL0     C19327   5.214   1.964   7.767 -0.1057  0.8474 -0.3965
  144MOL0     C19328   5.122   1.852   7.714 -0.4287 -0.4348  0.6104
  144MOL0     O19329   5.020   1.836   7.817 -0.4663  0.5390 -0.2523
  144MOL0     C19330   5.043   1.792   7.949  0.7450 -0.2247  0.1095
  144MOL0     C19331   5.143   1.700   7.990  0.3019 -0.2027  0.5082
  144MOL0     C19332   5.155   1.659   8.123  0.2188 -0.4818 -0.1497
  144MOL0     C19333   5.061   1.685   8.225  0.0035 -0.5661  0.1265
  144MOL0     C19334   5.076   1.622   8.365 -1.0816 -0.3970 -0.3682
  144MOL0     O19335   4.964   1.631   8.441 -0.0448 -0.3558 -0.1230
  144MOL0     C19336   4.977   1.582   8.561  0.0404 -0.0791  0.1799
  144MOL0     C19337   5.064   1.638   8.659 -0.1523 -0.6449 -0.3940
  144MOL0     C19338   5.060   1.588   8.792  0.3405  0.8249 -0.7015
  144MOL0     C19339   4.982   1.477   8.822 -0.6798 -0.2960  0.8324
  144MOL0     O19340   4.996   1.435   8.951  1.1466 -0.1229 -0.3617
  144MOL0     C19341   4.940   1.311   8.982 -0.5845  0.0516 -0.5166
  144MOL0     C19342   4.960   1.288   9.132  0.8726  0.1348 -0.3151
  144MOL0     C19343   4.939   1.138   9.166 -0.6397 -0.3087 -0.0891
  144MOL0     C19344   4.967   1.105   9.314 -1.1241  0.0514  0.0278
  144MOL0     C19345   4.952   0.953   9.340  0.9428  0.1361 -0.4866
  144MOL0     C19346   5.006   0.903   9.472  0.0833  0.8511 -0.8675
  144MOL0     C19347   4.922   0.952   9.592 -0.0834  0.5658  0.4354
  144MOL0     C19348   4.960   0.892   9.728  0.2343 -0.6717 -0.4922
  144MOL0    Cl19349   4.910   1.006   9.856  0.0138  0.0400 -0.1882
  144MOL0     C19350   4.902   1.422   8.725  0.8627 -0.1949  0.0471
  144MOL0     C19351   4.898   1.472   8.594  0.1635 -0.2145  0.9465
  144MOL0     O19352   5.179   1.564   8.390  0.5937  0.7835 -0.3950
  144MOL0     C19353   4.960   1.770   8.191 -0.2474 -0.1261 -0.6025
  144MOL0     C19354   4.956   1.820   8.058  0.2304 -1.0968 -0.2742
  144MOL0     N19355   5.618   2.166   7.643 -0.0863  0.0177 -1.0905
  144MOL0     N19356   5.669   2.223   7.539 -0.8443  0.1310 -0.5014
  144MOL0     C19357   5.177   2.383   6.801 -0.0407 -0.1683 -0.2170
  144MOL0     C19358   5.065   2.353   6.868 -0.1795  0.2706 -0.4091
  144MOL0     C19359   4.724   2.428   7.181  0.7182 -0.2224  0.5021
  144MOL0     C19360   4.720   2.289   7.180 -0.9293 -0.2223  0.9200
  144MOL0     C19361   4.632   2.212   7.249  0.2395  0.4933  0.4048
  144MOL0     C19362   4.533   2.272   7.340  0.6312 -0.0451  0.5871
  144MOL0     O19363   4.431   2.210   7.407 -0.3361 -0.1254  0.0921
  144MOL0     C19364   4.426   2.062   7.418  0.6462  0.2498 -0.2536
  144MOL0     C19365   4.308   2.038   7.513 -0.4976  0.2140  0.8535
  144MOL0     C19366   4.331   2.071   7.664  0.8743 -0.2475 -0.0917
  144MOL0     C19367   4.203   2.068   7.746  0.1654 -0.0979  0.0226
  144MOL0     C19368   4.119   1.945   7.742 -0.0794  0.1052 -0.2366
  144MOL0     C19369   4.039   1.853   7.708  0.9404  0.4790  0.4261
  144MOL0     C19370   4.543   2.416   7.356 -0.5914 -0.2547  0.5292
  144MOL0     C19371   4.637   2.495   7.272  0.3953  0.1873 -0.3703
  144MOL0     C19372   4.615   2.645   7.269  0.6070 -0.3642 -0.6401
  144MOL0     H19373   4.981   2.675   6.960 -2.0695 -0.3228  0.1653
  144MOL0     H19374   5.190   2.716   6.844  0.5833  1.1338 -3.2086
  144MOL0     H19375   5.388   2.350   6.616  0.2984 -0.7496  0.8045
  144MOL0     H19376   5.509   2.474   6.609  2.7883 -2.7292  0.9601
  144MOL0     H19377   5.434   2.327   6.869  1.3874  1.1583  1.2569
  144MOL0     H19378   5.553   2.461   6.852  2.3636  1.0303 -2.6955
  144MOL0     H19379   5.652   2.295   6.665  1.5358  0.0438  0.7758
  144MOL0     H19380   5.559   2.175   6.746  0.5959  0.3271 -2.1836
  144MOL0     H19381   5.776   2.171   6.815  1.7152 -0.9893  1.7380
  144MOL0     H19382   5.786   2.334   6.874  0.6627 -0.4271 -2.6627
  144MOL0     H19383   5.617   2.124   7.008  1.7346 -1.6184 -0.8788
  144MOL0     H19384   5.774   2.166   7.062 -1.5559 -2.1885  0.6691
  144MOL0     H19385   5.707   2.390   7.129  1.2596 -0.8035  0.1478
  144MOL0     H19386   5.546   2.364   7.057 -1.9534 -1.9588  1.4330
  144MOL0     H19387   5.694   2.192   7.264  1.7246  0.9403 -2.1634
  144MOL0     H19388   5.515   2.177   7.232 -0.1344 -0.4577 -1.5000
  144MOL0     H19389   5.656   2.430   7.349  1.8732 -0.8397  3.8966
  144MOL0     H19390   5.481   2.399   7.313 -1.0213 -1.8252  0.4208
  144MOL0     H19391   5.356   2.300   7.501 -0.8909 -2.8616 -0.8167
  144MOL0     H19392   5.438   2.098   7.831  3.1938  0.0499 -1.7950
  144MOL0     H19393   5.327   2.221   7.784 -0.5472 -2.2966  2.2672
  144MOL0     H19394   5.224   2.096   7.609  0.6703  0.9448  0.3666
  144MOL0     H19395   5.345   1.971   7.601  0.9422  0.3183 -0.7305
  144MOL0     H19396   5.159   2.032   7.832  0.3372  1.7907 -0.9778
  144MOL0     H19397   5.276   1.909   7.838  1.3948  3.4846  0.4639
  144MOL0     H19398   5.178   1.760   7.691  1.7440  1.8527 -5.1850
  144MOL0     H19399   5.073   1.879   7.620 -2.1535  0.1451  1.6306
  144MOL0     H19400   5.221   1.678   7.918  0.1291 -1.2287  0.6267
  144MOL0     H19401   5.250   1.608   8.135  0.3960 -0.1049  0.0544
  144MOL0     H19402   5.131   1.721   8.637 -1.4407  1.0318  1.6085
  144MOL0     H19403   5.110   1.628   8.880  2.4457 -3.0115  0.0938
  144MOL0     H19404   4.833   1.295   8.969 -0.2829 -0.2798 -3.0684
  144MOL0     H19405   4.997   1.235   8.927  1.9163  0.0717  1.8373
  144MOL0     H19406   5.066   1.306   9.150  0.9922  0.1662 -1.0342
  144MOL0     H19407   4.898   1.359   9.189  0.5712  0.7928 -1.4291
  144MOL0     H19408   4.839   1.100   9.141 -0.3670 -0.2333 -1.3662
  144MOL0     H19409   5.004   1.081   9.099  1.7683  0.6735  1.2895
  144MOL0     H19410   4.895   1.154   9.380 -0.3855  0.3178  0.6466
  144MOL0     H19411   5.070   1.131   9.340 -1.0786 -0.5331  0.4642
  144MOL0     H19412   5.001   0.889   9.266  1.0439 -0.0599 -0.2514
  144MOL0     H19413   4.845   0.934   9.338  0.7045  1.1995  0.6192
  144MOL0     H19414   4.992   0.795   9.463 -1.5334  1.0976 -1.7293
  144MOL0     H19415   5.113   0.923   9.484  0.2303 -0.5472  0.4739
  144MOL0     H19416   4.821   0.922   9.564 -0.2720  2.1347 -0.6802
  144MOL0     H19417   4.923   1.060   9.607  1.4356  0.6565 -0.1377
  144MOL0     H19418   4.895   0.805   9.739 -1.0134  0.2353 -0.5395
  144MOL0     H19419   5.065   0.864   9.746  1.1037 -0.4829 -4.3019
  144MOL0     H19420   4.835   1.338   8.740 -0.1577  0.6349  0.2746
  144MOL0     H19421   4.836   1.425   8.519  0.5716 -0.0290  0.4852
  144MOL0     H19422   4.899   1.801   8.276  0.9477  0.5325  0.0520
  144MOL0     H19423   4.873   1.890   8.051 -0.1496 -1.4054  0.9568
  144MOL0     H19424   5.225   2.297   6.756 -3.2009 -0.4451 -3.4993
  144MOL0     H19425   5.055   2.248   6.893  1.5684 -0.5263 -2.7069
  144MOL0     H19426   4.787   2.234   7.115 -1.6605  1.8013 -1.7520
  144MOL0     H19427   4.635   2.104   7.246 -0.7403  0.4811 -0.4996
  144MOL0     H19428   4.526   2.031   7.449  1.5590  1.0989 -2.1904
  144MOL0     H19429   4.407   2.024   7.318 -0.2506  0.4200 -0.1598
  144MOL0     H19430   4.274   1.935   7.501  0.0757 -0.2151  2.6132
  144MOL0     H19431   4.235   2.111   7.478 -0.4691  1.3657  2.9928
  144MOL0     H19432   4.391   2.159   7.685  1.4153 -0.4714 -0.6789
  144MOL0     H19433   4.390   1.989   7.704 -0.6063 -1.0533  0.5320
  144MOL0     H19434   4.224   2.083   7.852 -1.8625 -1.1988  0.6314
  144MOL0     H19435   4.140   2.150   7.711 -0.4478 -1.0088 -1.1030
  144MOL0     H19436   3.964   1.780   7.689 -0.4009  2.1921 -1.2186
  144MOL0     H19437   4.470   2.469   7.415 -1.2641 -0.9054  0.2882
  144MOL0     H19438   4.696   2.703   7.314 -0.2351  0.4553 -0.1303
  144MOL0     H19439   4.602   2.673   7.164  0.6343  1.1461 -0.2652
  144MOL0     H19440   4.516   2.662   7.313 -0.2537  0.1346 -2.6500
  145MOL0     O19441   3.825   1.279  10.046 -0.4086  0.8000  0.0732
  145MOL0     C19442   3.916   1.353  10.070  0.2378 -0.5789  0.6230
  145MOL0     O19443   3.973   1.363  10.200 -0.8290  0.0610  0.7796
  145MOL0     C19444   3.903   1.297  10.301 -0.2622 -0.4208 -0.2567
  145MOL0     C19445   3.790   1.349  10.348  0.8002 -0.0289  0.5737
  145MOL0     C19446   3.707   1.271  10.438  0.2636 -0.6807 -1.1539
  145MOL0     C19447   3.756   1.152  10.484 -0.2111  1.2543 -0.1946
  145MOL0     O19448   3.699   1.073  10.583 -0.3316  0.5649  0.0667
  145MOL0     C19449   3.602   1.128  10.662  0.0327  0.1439 -0.2376
  145MOL0     C19450   3.604   1.072  10.799 -1.1491  0.3495  0.0111
  145MOL0     C19451   3.724   1.133  10.872 -0.1133  0.2807 -0.5924
  145MOL0     C19452   3.684   1.257  10.956  0.5437  0.5191 -0.0751
  145MOL0     C19453   3.806   1.338  11.006 -0.1544 -0.4749 -0.0545
  145MOL0     C19454   3.776   1.492  11.018 -0.6223  0.4387  0.7992
  145MOL0     C19455   3.894   1.570  11.076  0.3752 -0.3411  0.8674
  145MOL0     C19456   3.982   1.612  10.957 -0.0761  0.8903 -0.7355
  145MOL0     N19457   4.102   1.680  10.993 -0.1175  0.1875  0.7838
  145MOL0     C19458   4.114   1.787  11.084 -0.5295 -0.0745 -0.1478
  145MOL0     C19459   4.251   1.804  11.098  0.6214 -0.0057 -0.8644
  145MOL0     C19460   4.322   1.896  11.195  0.9168  0.2529 -0.0560
  145MOL0     C19461   4.359   2.028  11.120  0.4756 -0.4343  1.2848
  145MOL0     C19462   4.496   2.018  11.055 -0.4173 -0.9990 -0.8659
  145MOL0     C19463   4.628   1.990  11.134  0.5590  0.3468 -0.0362
  145MOL0     O19464   4.664   2.099  11.220  0.1368 -0.2493 -0.0621
  145MOL0     C19465   4.782   2.107  11.293 -0.8521 -0.4358  0.7599
  145MOL0     C19466   4.814   2.243  11.313 -0.3213  0.3635 -0.0174
  145MOL0     C19467   4.941   2.271  11.359 -0.4874  0.4821  0.2746
  145MOL0     C19468   5.030   2.165  11.395  0.4163 -1.5878 -0.7545
  145MOL0     C19469   5.166   2.192  11.456  0.0445 -0.3167 -0.0323
  145MOL0     O19470   5.259   2.094  11.449 -0.3082 -0.5041 -0.6163
  145MOL0     C19471   5.393   2.121  11.493  0.3597  0.0500 -0.1808
  145MOL0     C19472   5.425   2.157  11.620  0.8876  0.3882 -0.5655
  145MOL0     C19473   5.553   2.146  11.676 -0.0245  0.2375  1.0928
  145MOL0     C19474   5.664   2.114  11.591 -0.2685  0.2387 -0.3986
  145MOL0     O19475   5.788   2.136  11.647 -0.0930 -1.2561 -0.7116
  145MOL0     C19476   5.903   2.123  11.560  0.2500 -0.4765  0.3074
  145MOL0     C19477   6.025   2.187  11.620 -0.3513  0.8149 -1.3594
  145MOL0     C19478   6.087   2.093  11.737  0.6248 -0.2100 -0.1662
  145MOL0     C19479   6.217   2.149  11.784 -0.9020  0.1382  0.8197
  145MOL0     C19480   6.258   2.104  11.923 -0.6375  0.2764  0.2044
  145MOL0     C19481   6.271   1.948  11.931 -0.6277 -0.0765 -0.1266
  145MOL0     C19482   6.405   1.883  11.895  0.4256 -0.4283  0.5343
  145MOL0     C19483   6.386   1.732  11.882 -0.6959  0.5466 -0.4842
  145MOL0    Cl19484   6.367   1.664  12.046  0.4103  0.1235  0.0929
  145MOL0     C19485   5.634   2.074  11.461  0.6544  0.7793 -0.2860
  145MOL0     C19486   5.502   2.074  11.414  0.2341  0.9001 -0.5813
  145MOL0     O19487   5.176   2.312  11.490 -0.0259  0.0695  0.8842
  145MOL0     C19488   4.996   2.033  11.374  0.3914 -1.1708 -0.8319
  145MOL0     C19489   4.870   2.006  11.328  0.2363  0.0466  0.5573
  145MOL0     N19490   4.310   1.709  11.016 -0.8177 -0.0460 -0.3450
  145MOL0     N19491   4.225   1.637  10.956 -0.0555 -0.3409 -0.1529
  145MOL0     C19492   3.877   1.098  10.437 -0.1165 -0.1700 -0.0372
  145MOL0     C19493   3.949   1.173  10.340 -0.9215  0.4469  0.3351
  145MOL0     C19494   3.969   1.436   9.965 -0.3299 -0.3174 -0.1557
  145MOL0     C19495   4.092   1.498  10.001 -0.4575  0.1070 -0.0622
  145MOL0     C19496   4.154   1.585   9.907 -1.0149  0.2905 -0.0621
  145MOL0     C19497   4.105   1.616   9.781 -0.5727  0.6967  0.4963
  145MOL0     O19498   4.170   1.721   9.717  0.2900  0.4511  0.5440
  145MOL0     C19499   4.109   1.765   9.589 -0.4431  0.5089 -0.6439
  145MOL0     C19500   4.173   1.678   9.481  0.0100 -0.6070  0.2094
  145MOL0     C19501   4.317   1.709   9.442 -0.5524 -0.0121  0.8765
  145MOL0     C19502   4.365   1.618   9.326 -0.8107 -0.1730 -0.6688
  145MOL0     C19503   4.299   1.629   9.194 -0.1197  0.5393 -0.3750
  145MOL0     C19504   4.244   1.645   9.084  0.7397  0.2740 -0.5474
  145MOL0     C19505   3.995   1.540   9.740  0.2312  0.4520 -0.6055
  145MOL0     C19506   3.929   1.453   9.830 -0.5248  0.5705  0.1586
  145MOL0     C19507   3.813   1.379   9.766 -0.4503 -0.2411 -0.9336
  145MOL0     H19508   3.763   1.447  10.311  0.7583 -0.8796 -1.7784
  145MOL0     H19509   3.616   1.326  10.458  2.7003  2.7790  1.7235
  145MOL0     H19510   3.605   1.237  10.670 -1.0800  0.0197  3.8263
  145MOL0     H19511   3.501   1.109  10.624 -1.3629  1.4945  2.4903
  145MOL0     H19512   3.600   0.963  10.811 -1.9310  0.0655 -2.3722
  145MOL0     H19513   3.515   1.097  10.856  1.1712  1.3100  3.5508
  145MOL0     H19514   3.808   1.155  10.806  0.6546  0.3141  0.3646
  145MOL0     H19515   3.768   1.056  10.937  0.0765  0.7404 -0.1650
  145MOL0     H19516   3.631   1.324  10.887  0.5571 -1.2447 -1.9017
  145MOL0     H19517   3.613   1.228  11.035 -0.8495  0.5770 -1.2546
  145MOL0     H19518   3.842   1.288  11.096  1.2737  0.2013 -0.2114
  145MOL0     H19519   3.889   1.342  10.934 -0.6730  2.8799 -0.6417
  145MOL0     H19520   3.743   1.534  10.923  2.3968  0.4374 -0.3801
  145MOL0     H19521   3.686   1.513  11.076 -2.7838  1.0129 -2.5033
  145MOL0     H19522   3.952   1.515  11.150  2.9534  2.4506  1.1199
  145MOL0     H19523   3.865   1.661  11.129 -2.4468 -0.2986 -0.5624
  145MOL0     H19524   4.009   1.523  10.901 -0.5595 -0.2433  0.7736
  145MOL0     H19525   3.930   1.678  10.887 -0.5539  0.3338 -0.9048
  145MOL0     H19526   4.026   1.830  11.131  0.5110 -1.1190  2.9930
  145MOL0     H19527   4.256   1.912  11.281  1.2290 -1.3675  0.5246
  145MOL0     H19528   4.412   1.843  11.227  2.7397  0.0102 -4.8156
  145MOL0     H19529   4.281   2.057  11.049  0.2116 -2.1654  0.7994
  145MOL0     H19530   4.363   2.096  11.205  0.4464 -0.9242  1.6822
  145MOL0     H19531   4.518   2.117  11.016  3.8293 -2.2594 -2.2766
  145MOL0     H19532   4.467   1.954  10.971 -1.8389  1.3008 -2.2277
  145MOL0     H19533   4.704   1.968  11.059 -0.4117  0.2128 -1.0100
  145MOL0     H19534   4.599   1.898  11.186  0.5953  0.1578 -0.3505
  145MOL0     H19535   4.750   2.326  11.286 -0.0817  0.1150 -1.4701
  145MOL0     H19536   4.976   2.373  11.371  0.6340  0.3429 -1.4373
  145MOL0     H19537   5.348   2.175  11.695 -0.9222 -0.1246 -2.2277
  145MOL0     H19538   5.560   2.172  11.781 -0.4646  2.1829  0.6909
  145MOL0     H19539   5.919   2.015  11.551  4.0083 -0.0896  0.8298
  145MOL0     H19540   5.883   2.170  11.463  0.1383  2.2772  1.5623
  145MOL0     H19541   6.104   2.169  11.547  0.2286 -0.5502 -0.4361
  145MOL0     H19542   6.013   2.291  11.652  2.5736  0.9395 -0.3614
  145MOL0     H19543   6.012   2.079  11.815 -1.4342 -0.9384 -2.1601
  145MOL0     H19544   6.111   1.994  11.697 -1.5457 -1.4297  1.3243
  145MOL0     H19545   6.201   2.257  11.786 -3.9848 -0.2488  1.2035
  145MOL0     H19546   6.291   2.121  11.709 -2.2004 -1.3383  0.0255
  145MOL0     H19547   6.185   2.145  11.994  0.5543 -0.4901  1.9645
  145MOL0     H19548   6.354   2.154  11.943 -0.8457  1.2630 -1.1485
  145MOL0     H19549   6.248   1.929  12.037  2.3145  0.6503  0.7278
  145MOL0     H19550   6.190   1.897  11.877 -0.9976  1.4643 -1.1029
  145MOL0     H19551   6.488   1.909  11.961 -0.5615 -0.0763  1.6776
  145MOL0     H19552   6.429   1.920  11.795 -2.1883  4.5087  1.4420
  145MOL0     H19553   6.298   1.710  11.820 -1.4457  0.5056  0.5594
  145MOL0     H19554   6.471   1.678  11.840  0.3669  0.9540  1.0716
  145MOL0     H19555   5.701   2.044  11.381 -0.7179 -1.7849 -0.6127
  145MOL0     H19556   5.462   2.053  11.316  1.7433 -2.3214 -0.6454
  145MOL0     H19557   5.057   1.947  11.398 -0.4063 -1.7322 -0.7775
  145MOL0     H19558   4.845   1.903  11.304 -0.6232  0.8420 -2.5593
  145MOL0     H19559   3.905   0.995  10.457 -1.5932 -0.3566  1.2369
  145MOL0     H19560   4.039   1.125  10.302  0.4706  1.8600  1.7068
  145MOL0     H19561   4.153   1.476  10.088 -1.2356 -0.5006  0.3488
  145MOL0     H19562   4.242   1.640   9.937 -2.1592  2.2708 -0.1160
  145MOL0     H19563   4.140   1.867   9.569  3.7446 -0.4755 -0.1130
  145MOL0     H19564   4.000   1.752   9.596 -0.3837 -1.8855 -2.6668
  145MOL0     H19565   4.096   1.683   9.404 -1.6422  0.8667  1.8445
  145MOL0     H19566   4.176   1.580   9.530 -1.4048 -0.0459  1.4930
  145MOL0     H19567   4.373   1.690   9.534  2.6546 -1.8042 -1.2604
  145MOL0     H19568   4.334   1.813   9.414 -1.6680 -0.2911 -1.0246
  145MOL0     H19569   4.472   1.635   9.313 -0.8549  1.0457  0.3682
  145MOL0     H19570   4.349   1.512   9.350 -0.2474 -0.3510 -1.0565
  145MOL0     H19571   4.187   1.672   8.997 -1.7619  2.5450  1.6208
  145MOL0     H19572   3.962   1.543   9.637  1.0303  0.5232 -0.8609
  145MOL0     H19573   3.812   1.270   9.778 -2.4784 -0.2479 -0.8675
  145MOL0     H19574   3.717   1.410   9.807  0.2829 -0.9292  1.4435
  145MOL0     H19575   3.809   1.399   9.658 -0.9348  3.3314 -0.3754
  146MOL0     O19576   5.824   0.241   6.030 -0.1064 -0.4245 -0.7299
  146MOL0     C19577   5.857   0.282   5.921  0.7533  0.6929 -0.0751
  146MOL0     O19578   5.972   0.340   5.889  0.3142 -0.4621  1.0297
  146MOL0     C19579   6.075   0.361   5.975  0.3145  0.3707  0.3393
  146MOL0     C19580   6.054   0.432   6.092  0.0479  0.0699 -0.1529
  146MOL0     C19581   6.172   0.458   6.174 -0.6379  0.4501 -0.1458
  146MOL0     C19582   6.304   0.413   6.136  0.1650  0.5205  0.4513
  146MOL0     O19583   6.416   0.442   6.206 -0.7641  0.3850 -0.4802
  146MOL0     C19584   6.432   0.378   6.336 -0.2480 -0.0216  0.4917
  146MOL0     C19585   6.461   0.234   6.314  0.9295  1.1219  0.6186
  146MOL0     C19586   6.469   0.165   6.444  0.4185  1.2142  0.2186
  146MOL0     C19587   6.502   0.024   6.414 -0.5443  0.1550  0.2068
  146MOL0     C19588   6.487  -0.067   6.542  0.5196  0.9346 -0.0317
  146MOL0     C19589   6.536  -0.001   6.670  0.3849  0.3883  0.1141
  146MOL0     C19590   6.538  -0.091   6.785 -0.6662 -0.7095 -0.0458
  146MOL0     C19591   6.643  -0.205   6.777  0.5167 -0.1188  0.1283
  146MOL0     N19592   6.778  -0.157   6.740  0.2459 -0.4017  0.8376
  146MOL0     C19593   6.833  -0.048   6.803 -0.7820  0.0696 -0.3325
  146MOL0     C19594   6.939  -0.012   6.722  0.6422  0.8570 -0.2740
  146MOL0     C19595   7.019   0.110   6.747 -0.2200 -0.0630 -1.3655
  146MOL0     C19596   7.006   0.229   6.656 -0.2483  0.4909  0.0228
  146MOL0     C19597   7.056   0.209   6.513 -0.2069  0.6817 -0.6698
  146MOL0     C19598   7.208   0.178   6.515  0.4890  0.4163  1.4253
  146MOL0     O19599   7.263   0.244   6.399 -0.0020 -0.6449  0.0451
  146MOL0     C19600   7.395   0.262   6.394  0.4759  0.2232 -0.1443
  146MOL0     C19601   7.490   0.187   6.469  0.3239 -0.0521  0.1938
  146MOL0     C19602   7.631   0.202   6.445  1.0970 -0.0299 -0.6837
  146MOL0     C19603   7.670   0.302   6.354  1.1937 -0.5144 -1.2308
  146MOL0     C19604   7.811   0.316   6.323  0.3977  0.0542 -0.1998
  146MOL0     O19605   7.894   0.325   6.434 -0.0792  0.1438 -0.2554
  146MOL0     C19606   8.026   0.327   6.402 -0.1136 -1.1803 -0.5807
  146MOL0     C19607   8.102   0.451   6.406  0.6401  0.1795  0.1868
  146MOL0     C19608   8.241   0.454   6.389 -0.6669  0.3772 -0.1636
  146MOL0     C19609   8.315   0.338   6.379 -0.2244  0.5803 -0.7676
  146MOL0     O19610   8.460   0.346   6.385  0.3402  0.3911  0.7664
  146MOL0     C19611   8.537   0.230   6.423  0.0278 -0.4911  0.6330
  146MOL0     C19612   8.681   0.277   6.437  0.2026  0.9528 -0.1596
  146MOL0     C19613   8.768   0.158   6.451  0.1146  0.2219 -0.4384
  146MOL0     C19614   8.923   0.181   6.435  0.3142  0.0129  0.5428
  146MOL0     C19615   8.976   0.257   6.558  0.5771  0.2770 -1.0235
  146MOL0     C19616   9.105   0.333   6.518  0.4288 -0.6641  0.3643
  146MOL0     C19617   9.090   0.471   6.456 -0.1637  0.1125  0.5160
  146MOL0     C19618   9.215   0.548   6.409 -0.7937  0.8349 -0.2488
  146MOL0    Cl19619   9.311   0.623   6.534  0.0849 -0.1606 -0.1402
  146MOL0     C19620   8.244   0.218   6.374  0.0581  0.4578 -0.3353
  146MOL0     C19621   8.101   0.211   6.394 -0.0236 -0.2617 -0.3350
  146MOL0     O19622   7.842   0.310   6.204  0.7408 -0.2084  0.7135
  146MOL0     C19623   7.574   0.370   6.281 -0.2955  0.5331 -0.3040
  146MOL0     C19624   7.439   0.342   6.302 -0.2625 -0.1492  0.8178
  146MOL0     N19625   6.941  -0.091   6.609  0.2080 -0.7534 -0.8762
  146MOL0     N19626   6.836  -0.172   6.618  0.2693  0.0918 -0.8673
  146MOL0     C19627   6.318   0.347   6.010 -0.3623 -1.3574 -0.4790
  146MOL0     C19628   6.198   0.313   5.932 -0.1165  0.0992 -0.3483
  146MOL0     C19629   5.751   0.272   5.818 -0.6584  0.7517 -0.7723
  146MOL0     C19630   5.627   0.212   5.854 -0.8227  0.3720  0.6503
  146MOL0     C19631   5.524   0.199   5.767  0.4234 -0.0577  0.0312
  146MOL0     C19632   5.536   0.253   5.641 -0.0765 -0.4897  0.1361
  146MOL0     O19633   5.454   0.235   5.531 -0.6832  0.3663 -0.0285
  146MOL0     C19634   5.319   0.198   5.545 -0.0361  0.6075 -0.5556
  146MOL0     C19635   5.218   0.304   5.490  0.3752 -0.8293 -0.4683
  146MOL0     C19636   5.242   0.438   5.558 -0.7411  0.3805  0.1228
  146MOL0     C19637   5.157   0.468   5.686  0.1401 -0.5937 -0.9607
  146MOL0     C19638   5.019   0.491   5.651 -0.6387  0.2903 -0.0367
  146MOL0     C19639   4.903   0.522   5.616  0.1167 -0.2508  0.3677
  146MOL0     C19640   5.654   0.318   5.603 -0.6186 -0.0004 -0.6105
  146MOL0     C19641   5.774   0.315   5.685 -0.1956  0.5937 -0.0822
  146MOL0     C19642   5.895   0.384   5.624 -0.3395 -0.2427  0.9610
  146MOL0     H19643   5.955   0.465   6.121  0.9062  2.9829 -0.2433
  146MOL0     H19644   6.164   0.508   6.270  0.4228  0.5963 -0.1175
  146MOL0     H19645   6.522   0.405   6.391 -0.2249  2.4537 -0.6404
  146MOL0     H19646   6.354   0.393   6.411 -0.8271  0.3680 -0.1834
  146MOL0     H19647   6.546   0.211   6.249 -0.0879 -2.5348  0.3445
  146MOL0     H19648   6.365   0.204   6.270  1.0493  0.7178  0.6297
  146MOL0     H19649   6.370   0.171   6.489 -1.3421 -2.8169 -2.5061
  146MOL0     H19650   6.540   0.219   6.507 -0.5670 -1.6180  4.0887
  146MOL0     H19651   6.432  -0.017   6.340  0.8782  0.6523 -1.4650
  146MOL0     H19652   6.600   0.013   6.368 -0.7470 -0.9489 -0.0117
  146MOL0     H19653   6.382  -0.098   6.552  0.8141  0.4568  1.9063
  146MOL0     H19654   6.549  -0.152   6.512  1.9099  0.9489  2.5276
  146MOL0     H19655   6.633   0.041   6.640  0.0595  0.5975 -0.6676
  146MOL0     H19656   6.471   0.081   6.701 -2.2299 -2.0679  1.6085
  146MOL0     H19657   6.435  -0.123   6.799 -0.8121  0.0617  0.7490
  146MOL0     H19658   6.569  -0.034   6.872  4.9932 -0.2149 -1.9640
  146MOL0     H19659   6.658  -0.244   6.878 -0.0157  0.6817  0.5294
  146MOL0     H19660   6.616  -0.276   6.699 -3.0537  0.3479  0.7821
  146MOL0     H19661   6.809   0.002   6.896  2.7575  1.4236 -0.0197
  146MOL0     H19662   6.999   0.145   6.849  0.5519 -1.1074 -0.8406
  146MOL0     H19663   7.120   0.069   6.751 -0.5017 -0.6674  1.3814
  146MOL0     H19664   6.901   0.256   6.651  0.0140  1.4371 -0.7184
  146MOL0     H19665   7.068   0.311   6.695 -0.7058 -0.8639  4.1708
  146MOL0     H19666   7.026   0.302   6.464  0.4002  2.3964  2.0235
  146MOL0     H19667   7.004   0.125   6.466 -1.9897  1.1813  0.3485
  146MOL0     H19668   7.235   0.073   6.527 -1.1807  0.0644  2.5626
  146MOL0     H19669   7.260   0.225   6.599  0.1256  2.6382  0.4986
  146MOL0     H19670   7.450   0.104   6.528 -0.0656 -0.8741 -1.1784
  146MOL0     H19671   7.696   0.120   6.475 -1.3373 -1.6451  0.4917
  146MOL0     H19672   8.058   0.550   6.414  1.8078  0.7019  0.4295
  146MOL0     H19673   8.295   0.547   6.398  0.4249 -0.1200 -1.3232
  146MOL0     H19674   8.502   0.185   6.516  2.0443 -0.7642  1.3156
  146MOL0     H19675   8.528   0.153   6.346 -0.4144 -1.8601  2.0190
  146MOL0     H19676   8.706   0.340   6.350  0.7950  1.1680  0.1602
  146MOL0     H19677   8.681   0.341   6.525  1.2117  0.2879  0.3317
  146MOL0     H19678   8.739   0.125   6.551 -1.2357 -0.4551 -1.0420
  146MOL0     H19679   8.746   0.077   6.381  0.6979 -1.0815  0.8524
  146MOL0     H19680   8.942   0.245   6.349 -0.3573  0.0533  0.4180
  146MOL0     H19681   8.976   0.088   6.412 -1.8343 -0.5528 -2.9212
  146MOL0     H19682   9.004   0.186   6.637 -0.2447 -0.3666 -1.3051
  146MOL0     H19683   8.903   0.331   6.593 -0.7831 -0.8470 -1.4037
  146MOL0     H19684   9.175   0.350   6.601  2.2336  2.0540 -1.5275
  146MOL0     H19685   9.164   0.278   6.444  0.5678  0.9680 -0.7868
  146MOL0     H19686   9.038   0.529   6.533 -1.4609 -3.4929  2.5814
  146MOL0     H19687   9.028   0.457   6.367  1.9110  1.2080 -1.1772
  146MOL0     H19688   9.273   0.472   6.355 -0.2194  0.0914  1.3417
  146MOL0     H19689   9.181   0.628   6.343 -0.6740  2.3811  1.4986
  146MOL0     H19690   8.287   0.119   6.361 -2.5578 -0.8736  0.4870
  146MOL0     H19691   8.047   0.120   6.417 -1.9179  1.2831  1.8094
  146MOL0     H19692   7.617   0.440   6.210 -1.7865  2.5401  0.6465
  146MOL0     H19693   7.358   0.391   6.248 -0.9815 -0.4043  1.6340
  146MOL0     H19694   6.422   0.324   5.988  1.6224  1.9976  3.7365
  146MOL0     H19695   6.209   0.261   5.837 -0.6518  3.1876 -2.2417
  146MOL0     H19696   5.608   0.190   5.959 -0.7503  2.0167  1.0334
  146MOL0     H19697   5.437   0.139   5.791  1.3038 -1.3879 -0.0247
  146MOL0     H19698   5.301   0.183   5.652  0.2945 -0.7565 -0.6757
  146MOL0     H19699   5.304   0.096   5.508  2.3680 -0.4733  1.1716
  146MOL0     H19700   5.115   0.267   5.501  0.4354 -0.7065  0.6700
  146MOL0     H19701   5.242   0.332   5.387  0.6738 -0.9849 -0.4410
  146MOL0     H19702   5.214   0.500   5.473 -1.8451 -0.2336  0.0223
  146MOL0     H19703   5.347   0.459   5.581 -1.0743  1.3573  0.8077
  146MOL0     H19704   5.162   0.384   5.756  0.9533 -0.0352 -0.3398
  146MOL0     H19705   5.194   0.560   5.732 -1.9172  0.3581 -1.0798
  146MOL0     H19706   4.816   0.561   5.567  1.0671 -0.8534 -1.9583
  146MOL0     H19707   5.647   0.363   5.504 -1.9446 -1.1365 -1.0562
  146MOL0     H19708   5.883   0.491   5.644  0.0705 -0.1464  0.6897
  146MOL0     H19709   5.995   0.348   5.650 -0.0237 -1.7470 -1.9512
  146MOL0     H19710   5.886   0.385   5.515  2.5189  0.2157  0.6608
  147MOL0     O19711   0.818   1.532   9.223 -0.1281  0.4283 -0.9236
  147MOL0     C19712   0.700   1.529   9.253 -0.4872 -0.6561  1.1230
  147MOL0     O19713   0.641   1.601   9.350  0.1731 -1.1326 -0.7707
  147MOL0     C19714   0.702   1.674   9.443 -0.2793 -0.6812  0.0201
  147MOL0     C19715   0.628   1.777   9.502 -0.2091  0.0007 -0.5933
  147MOL0     C19716   0.691   1.855   9.600 -0.3966  0.1368 -0.3409
  147MOL0     C19717   0.829   1.847   9.628 -0.9340  0.6824  1.0591
  147MOL0     O19718   0.867   1.948   9.710  0.6004 -0.7169  0.3154
  147MOL0     C19719   0.978   1.914   9.786 -0.0416  0.6076  0.0900
  147MOL0     C19720   1.006   2.033   9.881 -1.2601  0.6681  0.2037
  147MOL0     C19721   1.071   2.164   9.820  0.4407 -0.0351 -1.1968
  147MOL0     C19722   1.082   2.276   9.927 -0.1574  0.0394 -0.0862
  147MOL0     C19723   1.180   2.378   9.898 -0.0935 -0.6912 -0.4248
  147MOL0     C19724   1.184   2.482  10.005  0.5563 -0.9281 -0.5549
  147MOL0     C19725   1.243   2.431  10.139  0.1000 -0.3318  0.0950
  147MOL0     C19726   1.223   2.536  10.242  0.8894  0.1583 -0.4346
  147MOL0     N19727   1.306   2.653  10.232 -0.7972 -0.7379 -0.2543
  147MOL0     C19728   1.423   2.655  10.161  0.2676  0.1118 -0.1756
  147MOL0     C19729   1.454   2.784  10.137  0.7270 -0.0221 -0.7692
  147MOL0     C19730   1.563   2.837  10.058  0.5497  0.1390 -0.8173
  147MOL0     C19731   1.708   2.768  10.093  0.2882  0.2074  0.3940
  147MOL0     C19732   1.776   2.817  10.214  0.7029  0.0499 -0.3807
  147MOL0     C19733   1.679   2.794  10.336 -0.1354 -0.5758  0.4591
  147MOL0     O19734   1.751   2.809  10.459 -0.5595 -0.1210 -0.3210
  147MOL0     C19735   1.680   2.789  10.575  0.4235 -0.6260  0.7354
  147MOL0     C19736   1.740   2.840  10.686  0.7953 -0.1164  0.3627
  147MOL0     C19737   1.689   2.810  10.812  0.5326  0.7810  0.4452
  147MOL0     C19738   1.565   2.751  10.830  0.2955  0.5755 -0.5360
  147MOL0     C19739   1.535   2.697  10.965  0.0808 -0.1206  1.4532
  147MOL0     O19740   1.630   2.717  11.056 -0.0900 -0.5948 -0.1659
  147MOL0     C19741   1.603   2.662  11.178 -0.4446 -0.2182 -1.2238
  147MOL0     C19742   1.685   2.554  11.217  0.6958 -0.0319  0.1492
  147MOL0     C19743   1.657   2.479  11.336 -0.4448  0.1696 -0.1257
  147MOL0     C19744   1.556   2.522  11.423  0.1999 -0.7332  0.0608
  147MOL0     O19745   1.524   2.459  11.537  0.9174  1.0792 -1.1809
  147MOL0     C19746   1.567   2.512  11.667  0.4098  0.1634  0.0973
  147MOL0     C19747   1.462   2.505  11.775 -0.4557 -0.3339  0.8719
  147MOL0     C19748   1.326   2.564  11.747  0.1925 -0.3803 -0.4446
  147MOL0     C19749   1.254   2.602  11.877  0.4367  0.4347 -0.2205
  147MOL0     C19750   1.121   2.660  11.858 -0.1123 -0.1662  0.4894
  147MOL0     C19751   1.052   2.685  11.990  0.0919 -0.4687  0.1642
  147MOL0     C19752   0.918   2.768  11.990  0.0948  0.3857 -0.7187
  147MOL0     C19753   0.922   2.897  11.919  0.1664  0.5831  0.4711
  147MOL0    Cl19754   1.071   2.992  11.967  0.0167 -0.1108  0.2433
  147MOL0     C19755   1.485   2.638  11.388  0.2686 -0.5032 -0.4453
  147MOL0     C19756   1.503   2.704  11.267 -0.2330  0.1560  0.7747
  147MOL0     O19757   1.427   2.637  10.979 -0.1814 -0.5868 -0.3094
  147MOL0     C19758   1.487   2.736  10.712  0.3060  0.2682  0.2618
  147MOL0     C19759   1.548   2.743  10.585 -0.3173 -0.5906 -0.2448
  147MOL0     N19760   1.369   2.859  10.217 -0.2365  0.2646 -0.0909
  147MOL0     N19761   1.274   2.784  10.273  0.1398 -0.4264 -0.8516
  147MOL0     C19762   0.898   1.735   9.572 -0.2286 -0.3742 -1.3862
  147MOL0     C19763   0.827   1.639   9.491 -0.0694  0.0678 -0.1577
  147MOL0     C19764   0.624   1.420   9.187  0.1969  0.6092  0.7478
  147MOL0     C19765   0.485   1.425   9.199 -0.2927  0.7878  0.0651
  147MOL0     C19766   0.398   1.347   9.127 -0.1941  1.0597  0.4552
  147MOL0     C19767   0.448   1.233   9.068  0.5225 -0.0535  0.6654
  147MOL0     O19768   0.353   1.146   9.017  0.6140 -0.2199  0.2632
  147MOL0     C19769   0.378   1.057   8.899  0.4926 -0.0218 -0.8593
  147MOL0     C19770   0.238   1.020   8.832  0.4387 -0.0645  0.5005
  147MOL0     C19771   0.141   1.142   8.810  0.1137 -0.3365  0.6449
  147MOL0     C19772   0.210   1.263   8.735 -0.6282 -0.1104 -0.6826
  147MOL0     C19773   0.250   1.233   8.596  0.4815 -0.0355  0.3569
  147MOL0     C19774   0.302   1.210   8.491 -0.9217 -0.5109 -0.2162
  147MOL0     C19775   0.589   1.218   9.059  0.2989  0.7994  0.6666
  147MOL0     C19776   0.674   1.308   9.122 -0.6137  0.5977 -0.0660
  147MOL0     C19777   0.824   1.275   9.117  0.2161 -0.7424 -0.1120
  147MOL0     H19778   0.524   1.797   9.477 -1.2764 -1.1616  2.4333
  147MOL0     H19779   0.630   1.931   9.647 -0.9696  0.0857 -0.9785
  147MOL0     H19780   0.959   1.818   9.833 -4.0634  0.6258 -1.1353
  147MOL0     H19781   1.065   1.906   9.720  1.0620 -1.7468  1.6904
  147MOL0     H19782   1.079   1.975   9.939 -0.3294 -0.0169 -1.5705
  147MOL0     H19783   0.916   2.060   9.937 -0.6649  0.0394  1.5243
  147MOL0     H19784   1.000   2.199   9.744 -2.7005  0.3717  1.6920
  147MOL0     H19785   1.170   2.134   9.783  0.1807 -3.5043  0.5194
  147MOL0     H19786   0.979   2.310   9.942 -0.4028 -0.9031  0.4309
  147MOL0     H19787   1.104   2.229  10.023  1.7164 -0.5117 -0.7391
  147MOL0     H19788   1.276   2.327   9.888 -0.3809 -0.8955 -2.5953
  147MOL0     H19789   1.156   2.420   9.800 -0.8987 -4.0218 -1.7995
  147MOL0     H19790   1.251   2.558   9.964  1.4166 -2.5656 -2.3473
  147MOL0     H19791   1.081   2.518  10.019  0.9617  0.7168 -1.5170
  147MOL0     H19792   1.348   2.403  10.121  0.0189 -1.2230  0.8956
  147MOL0     H19793   1.185   2.351  10.185  0.4580  0.2584  1.6507
  147MOL0     H19794   1.116   2.558  10.238  0.9971  0.5642 -1.9973
  147MOL0     H19795   1.238   2.487  10.338  1.9168 -0.0182 -0.6714
  147MOL0     H19796   1.476   2.574  10.112  1.3174 -0.3955  1.6798
  147MOL0     H19797   1.551   2.816   9.952 -0.7038  2.0339 -1.0779
  147MOL0     H19798   1.563   2.946  10.066 -2.4264  0.4062 -2.8187
  147MOL0     H19799   1.695   2.660  10.106  1.2166  0.3188  2.6565
  147MOL0     H19800   1.781   2.781  10.013 -0.3540  0.7469 -0.1187
  147MOL0     H19801   1.783   2.926  10.202  0.1473  0.0527 -0.7550
  147MOL0     H19802   1.870   2.766  10.236 -0.5507 -1.3976  2.0269
  147MOL0     H19803   1.638   2.692  10.337 -0.8332 -0.3985 -2.2678
  147MOL0     H19804   1.592   2.860  10.338 -0.7977 -1.3351 -1.3213
  147MOL0     H19805   1.826   2.904  10.669  0.0302  0.5054 -1.4321
  147MOL0     H19806   1.755   2.835  10.894  1.5860 -0.1083 -0.1002
  147MOL0     H19807   1.763   2.523  11.149 -0.0844 -0.1443 -0.7199
  147MOL0     H19808   1.706   2.386  11.363  0.0727  0.0337 -1.4663
  147MOL0     H19809   1.649   2.456  11.713 -2.2261 -2.1582  2.3673
  147MOL0     H19810   1.596   2.617  11.656  1.8768 -0.4670 -3.2833
  147MOL0     H19811   1.449   2.399  11.798 -1.6736  0.1468  2.5480
  147MOL0     H19812   1.514   2.550  11.860 -0.7108  2.6804 -0.4339
  147MOL0     H19813   1.320   2.652  11.682 -0.1304  0.1448  0.2947
  147MOL0     H19814   1.276   2.486  11.689 -1.9355 -0.0820  0.9070
  147MOL0     H19815   1.313   2.680  11.926  0.0067  1.4357 -1.2306
  147MOL0     H19816   1.256   2.509  11.934  0.6890  0.1383 -0.7116
  147MOL0     H19817   1.064   2.585  11.802  1.3866  1.2105 -3.2033
  147MOL0     H19818   1.134   2.750  11.798 -0.8915  0.8361  1.7765
  147MOL0     H19819   1.037   2.589  12.039  0.8944  0.6982  2.9370
  147MOL0     H19820   1.116   2.729  12.067 -1.5760 -0.0361  1.3729
  147MOL0     H19821   0.888   2.782  12.095  1.6370 -1.6989  0.0807
  147MOL0     H19822   0.839   2.705  11.948  1.3875 -0.1155 -2.5392
  147MOL0     H19823   0.931   2.868  11.814 -1.0939  1.4780  0.0944
  147MOL0     H19824   0.831   2.956  11.933  0.1346  0.4480  0.8486
  147MOL0     H19825   1.399   2.663  11.450 -0.4363 -0.8730 -1.2545
  147MOL0     H19826   1.453   2.796  11.238 -2.3279 -0.7656  1.3293
  147MOL0     H19827   1.387   2.692  10.713  1.1718 -1.8009  0.7408
  147MOL0     H19828   1.483   2.711  10.504 -1.4311 -1.9241  1.1254
  147MOL0     H19829   1.003   1.729   9.598  0.0726  3.5731 -0.9891
  147MOL0     H19830   0.883   1.550   9.463  1.1054  0.9755 -0.7562
  147MOL0     H19831   0.449   1.498   9.270 -1.5245 -1.7962  2.2674
  147MOL0     H19832   0.293   1.374   9.140  0.0251  2.3618 -0.3072
  147MOL0     H19833   0.432   0.969   8.935 -1.5365 -0.5950  1.0418
  147MOL0     H19834   0.447   1.096   8.824  0.3797  0.2647 -0.8178
  147MOL0     H19835   0.173   0.942   8.873 -2.8177  1.2665 -1.7445
  147MOL0     H19836   0.269   0.984   8.734 -0.1730  0.6366  0.0377
  147MOL0     H19837   0.102   1.185   8.903 -0.6476  2.4301 -0.8429
  147MOL0     H19838   0.069   1.096   8.742  3.1941  0.5543 -3.5735
  147MOL0     H19839   0.143   1.344   8.706 -0.1700  0.1374 -1.0690
  147MOL0     H19840   0.298   1.298   8.791  0.2851 -2.5039 -0.4859
  147MOL0     H19841   0.343   1.187   8.395 -1.1561 -0.8976 -0.2245
  147MOL0     H19842   0.634   1.142   8.996  0.9619 -0.0116  2.0658
  147MOL0     H19843   0.844   1.176   9.075  0.4382 -0.7324 -0.0290
  147MOL0     H19844   0.877   1.349   9.057 -0.6395  0.1311  0.1820
  147MOL0     H19845   0.862   1.276   9.220 -0.4610  2.0891  0.2011
  148MOL0     O19846   9.833   4.113   9.334 -0.6772  1.1115 -0.2100
  148MOL0     C19847   9.757   4.148   9.243  0.7201 -0.9959 -0.3597
  148MOL0     O19848   9.748   4.087   9.114 -0.5948  0.2453 -0.1359
  148MOL0     C19849   9.848   3.990   9.100  0.2002  0.0124  0.6038
  148MOL0     C19850   9.803   3.862   9.062  0.4810 -0.4915 -0.0740
  148MOL0     C19851   9.896   3.755   9.053  0.1840 -0.0690 -0.3744
  148MOL0     C19852  10.037   3.773   9.067 -0.4102  0.3892 -0.0294
  148MOL0     O19853  10.130   3.672   9.061  0.0896  0.1105 -0.9710
  148MOL0     C19854  10.266   3.691   9.041 -0.6288 -1.0636 -1.1592
  148MOL0     C19855  10.328   3.557   9.014  0.0192  0.1902  0.0123
  148MOL0     C19856  10.479   3.532   9.058 -0.1747  0.0703 -0.7034
  148MOL0     C19857  10.517   3.381   9.051 -0.0564 -0.4010 -0.1094
  148MOL0     C19858  10.664   3.357   9.067  0.0374  1.1709 -0.2592
  148MOL0     C19859  10.759   3.425   8.972  0.5812 -0.5639 -0.0140
  148MOL0     C19860  10.891   3.354   8.962 -0.0150  0.4312  0.3064
  148MOL0     C19861  10.964   3.344   9.097  0.5916 -0.3276 -0.5505
  148MOL0     N19862  11.093   3.269   9.100 -0.4059 -0.2742  0.8576
  148MOL0     C19863  11.113   3.135   9.110 -0.2883  1.0706  0.5001
  148MOL0     C19864  11.248   3.118   9.108  0.1606 -0.3969  0.0730
  148MOL0     C19865  11.322   2.999   9.115  0.4271  0.4268 -0.1148
  148MOL0     C19866  11.292   2.884   9.015  0.2983 -0.0120  0.4483
  148MOL0     C19867  11.329   2.918   8.866  0.8825 -0.9160 -0.0873
  148MOL0     C19868  11.473   2.882   8.840 -0.2386 -0.4157  0.9489
  148MOL0     O19869  11.491   2.908   8.704 -0.3200 -0.1929 -0.1070
  148MOL0     C19870  11.620   2.898   8.653 -0.7948  0.0360 -0.7474
  148MOL0     C19871  11.646   2.976   8.547  0.0211 -0.8296  0.1858
  148MOL0     C19872  11.774   2.989   8.492 -0.5875 -0.0101 -0.7957
  148MOL0     C19873  11.883   2.920   8.543 -0.4925 -0.0074  0.8969
  148MOL0     C19874  12.019   2.936   8.484 -0.4538  0.1232  0.5064
  148MOL0     O19875  12.113   2.855   8.531  0.0549  0.2160  0.2404
  148MOL0     C19876  12.237   2.867   8.466  0.3435 -0.3733 -0.4300
  148MOL0     C19877  12.320   2.977   8.489 -0.9330 -0.1264 -0.6093
  148MOL0     C19878  12.456   2.979   8.469  0.2472 -0.5154 -0.0564
  148MOL0     C19879  12.518   2.874   8.401 -0.2052  0.0666 -0.6923
  148MOL0     O19880  12.649   2.870   8.362  0.3034 -0.5584 -0.3322
  148MOL0     C19881  12.726   2.744   8.345  0.5400 -0.5979  0.2648
  148MOL0     C19882  12.878   2.778   8.355  0.0771  0.8610 -0.9866
  148MOL0     C19883  12.935   2.831   8.221  0.0077  0.9046 -0.1148
  148MOL0     C19884  13.071   2.890   8.226 -0.4045 -0.6834 -0.1522
  148MOL0     C19885  13.128   2.945   8.093  0.6736  0.4006 -0.3607
  148MOL0     C19886  13.276   2.993   8.092 -0.1659  0.3510 -0.4482
  148MOL0     C19887  13.284   3.128   8.166 -0.4370 -0.1149 -0.0886
  148MOL0     C19888  13.425   3.186   8.176  0.0315  0.6646  0.5825
  148MOL0    Cl19889  13.469   3.244   8.015  0.0626 -0.4463 -0.0245
  148MOL0     C19890  12.435   2.759   8.381 -0.6111 -0.4051  0.0530
  148MOL0     C19891  12.303   2.754   8.419  0.3818 -0.5606 -0.0645
  148MOL0     O19892  12.029   2.998   8.379  0.0703 -0.2345 -0.3972
  148MOL0     C19893  11.855   2.831   8.651  0.4135 -0.5635  0.5430
  148MOL0     C19894  11.726   2.835   8.710  0.4446 -0.3656  0.4005
  148MOL0     N19895  11.303   3.240   9.083 -0.0175 -0.3214  0.7175
  148MOL0     N19896  11.212   3.329   9.075  0.3708 -0.0534 -1.0934
  148MOL0     C19897  10.073   3.900   9.102 -1.4278  0.2570 -0.4214
  148MOL0     C19898   9.981   4.005   9.123  0.5096 -0.0088 -0.1337
  148MOL0     C19899   9.669   4.265   9.261  0.6773  0.3101  0.8485
  148MOL0     C19900   9.611   4.322   9.143  0.2341 -0.5358  0.1718
  148MOL0     C19901   9.547   4.449   9.150 -0.2143  0.4665 -0.3289
  148MOL0     C19902   9.529   4.512   9.271  0.2439 -0.0955 -0.4060
  148MOL0     O19903   9.471   4.643   9.267 -0.3052 -0.3814 -0.7313
  148MOL0     C19904   9.443   4.705   9.387  0.1198 -0.2065  0.0964
  148MOL0     C19905   9.341   4.827   9.376  0.2984 -0.1729 -0.5261
  148MOL0     C19906   9.211   4.781   9.337  1.2129  0.0661  0.3097
  148MOL0     C19907   9.114   4.895   9.354  0.5067 -0.0491 -0.2610
  148MOL0     C19908   8.977   4.850   9.314  0.0293  0.0914  0.2337
  148MOL0     C19909   8.875   4.812   9.258  1.1575 -0.1312 -0.1299
  148MOL0     C19910   9.572   4.450   9.391  0.0337 -0.3151  0.0484
  148MOL0     C19911   9.643   4.332   9.383  0.3491 -0.5965 -0.1669
  148MOL0     C19912   9.664   4.260   9.508 -0.0489  0.1176 -0.3679
  148MOL0     H19913   9.702   3.830   9.038  0.0854 -1.6086  2.7086
  148MOL0     H19914   9.854   3.656   9.038 -1.7523  0.0346  3.2867
  148MOL0     H19915  10.289   3.761   8.960  0.1667  0.3822  0.2684
  148MOL0     H19916  10.319   3.729   9.129  3.0443 -0.4507 -3.4608
  148MOL0     H19917  10.319   3.544   8.905  0.4879 -0.4867  0.0468
  148MOL0     H19918  10.275   3.476   9.065 -2.8794  0.0887 -2.8412
  148MOL0     H19919  10.500   3.575   9.156 -0.8340 -0.2451 -0.4123
  148MOL0     H19920  10.551   3.582   8.993  0.4421  0.1438  0.0392
  148MOL0     H19921  10.465   3.316   9.122  0.6069  1.3813  2.1618
  148MOL0     H19922  10.496   3.345   8.950 -0.5606 -1.4804  0.3647
  148MOL0     H19923  10.698   3.382   9.168  0.6530 -1.0992  0.1482
  148MOL0     H19924  10.685   3.250   9.052 -3.1429 -0.2460  3.4638
  148MOL0     H19925  10.713   3.426   8.873 -1.0818 -1.4442  0.6990
  148MOL0     H19926  10.778   3.526   9.009 -0.4568 -0.3488 -0.0292
  148MOL0     H19927  10.951   3.405   8.886 -1.1747  0.3880 -0.6655
  148MOL0     H19928  10.870   3.255   8.922 -0.6301  1.1185 -1.1761
  148MOL0     H19929  10.993   3.446   9.122 -0.8140  0.2266 -1.0404
  148MOL0     H19930  10.896   3.302   9.172 -0.4725 -1.6075 -2.1523
  148MOL0     H19931  11.037   3.058   9.116 -1.3964  1.8738 -1.8336
  148MOL0     H19932  11.428   3.028   9.119  0.1751  1.2336  1.2874
  148MOL0     H19933  11.297   2.959   9.213  0.3901 -0.6350 -0.5385
  148MOL0     H19934  11.330   2.783   9.030 -2.2188 -1.3643 -1.4507
  148MOL0     H19935  11.184   2.871   9.019  0.3569 -1.9221 -1.9530
  148MOL0     H19936  11.322   3.026   8.852 -1.2436 -1.2732 -2.3447
  148MOL0     H19937  11.273   2.859   8.794 -3.8368  1.4836  1.2261
  148MOL0     H19938  11.488   2.774   8.854 -1.0325 -0.6198  0.2875
  148MOL0     H19939  11.544   2.940   8.899  0.2637  0.9028 -0.8469
  148MOL0     H19940  11.559   3.029   8.511  0.5532  0.4173  0.6748
  148MOL0     H19941  11.782   3.060   8.410 -2.5221  1.9645  0.6087
  148MOL0     H19942  12.282   3.058   8.550  2.5518 -0.2145  1.9535
  148MOL0     H19943  12.523   3.052   8.516  0.9356 -0.5226 -1.0084
  148MOL0     H19944  12.698   2.679   8.428  0.6094  1.5377  2.0396
  148MOL0     H19945  12.699   2.693   8.252  0.6636  1.9243 -1.2491
  148MOL0     H19946  12.899   2.849   8.435 -1.8288 -0.1781  0.5103
  148MOL0     H19947  12.933   2.694   8.399 -2.7149  0.4124  2.0114
  148MOL0     H19948  12.923   2.752   8.146 -2.2996  3.0669 -2.1890
  148MOL0     H19949  12.867   2.909   8.187 -1.7078 -0.1913  0.6456
  148MOL0     H19950  13.138   2.822   8.280 -1.2946  0.0888  2.0480
  148MOL0     H19951  13.062   2.976   8.294  0.9637  0.5112 -1.4015
  148MOL0     H19952  13.072   3.037   8.074  0.1484  0.5108  1.4574
  148MOL0     H19953  13.111   2.871   8.015  3.3754  0.9966 -1.6628
  148MOL0     H19954  13.346   2.923   8.139  0.5623  0.6365 -1.0899
  148MOL0     H19955  13.299   3.004   7.986  0.6417 -0.5795 -0.3873
  148MOL0     H19956  13.247   3.120   8.268 -1.2759  1.3637 -0.2444
  148MOL0     H19957  13.211   3.202   8.134 -0.7169  0.2948  1.4509
  148MOL0     H19958  13.426   3.267   8.251  2.2531  3.6919 -2.4104
  148MOL0     H19959  13.498   3.106   8.192  1.1429  0.9416 -2.5189
  148MOL0     H19960  12.478   2.672   8.333  1.6713  0.5096  0.2985
  148MOL0     H19961  12.248   2.660   8.414  1.0345 -0.9193 -0.6665
  148MOL0     H19962  11.935   2.778   8.701  0.8799 -0.0986  0.3007
  148MOL0     H19963  11.710   2.785   8.805 -0.5973  0.8171  0.8760
  148MOL0     H19964  10.179   3.919   9.117 -0.9453 -3.6498  2.6388
  148MOL0     H19965  10.023   4.100   9.153 -1.9196  0.2724  2.7818
  148MOL0     H19966   9.626   4.280   9.044  1.9120 -2.1994  1.0748
  148MOL0     H19967   9.523   4.502   9.058  0.3871 -1.0135 -1.3843
  148MOL0     H19968   9.534   4.744   9.433 -1.2136  0.5499  2.2914
  148MOL0     H19969   9.404   4.638   9.464  0.0783  1.0522  1.2033
  148MOL0     H19970   9.373   4.900   9.301  1.1774 -0.3185 -0.3102
  148MOL0     H19971   9.346   4.870   9.476 -2.2346  0.7915 -0.7456
  148MOL0     H19972   9.165   4.700   9.394  4.3594 -2.2580 -0.1534
  148MOL0     H19973   9.221   4.755   9.231  2.7095  2.2078 -0.1296
  148MOL0     H19974   9.109   4.933   9.456 -1.4401  0.8120 -0.6246
  148MOL0     H19975   9.150   4.983   9.299  0.8130  0.0995  0.1724
  148MOL0     H19976   8.796   4.771   9.200  1.4047  1.9068 -2.0473
  148MOL0     H19977   9.551   4.487   9.490  0.0673 -2.1707  0.7853
  148MOL0     H19978   9.768   4.265   9.541 -0.3359  1.2112  0.4476
  148MOL0     H19979   9.608   4.298   9.594  0.8571 -2.1764  1.3418
  148MOL0     H19980   9.637   4.155   9.497  1.6121 -0.1358 -2.5168
  149MOL0     O19981   5.088   0.190   0.997  0.0799 -0.5607 -1.1275
  149MOL0     C19982   5.068   0.066   1.022  0.0512  0.4226  0.1901
  149MOL0     O19983   5.162  -0.022   1.067 -0.4710  0.3452  0.2857
  149MOL0     C19984   5.265   0.032   1.147 -0.3249  0.6497 -0.0735
  149MOL0     C19985   5.240   0.117   1.260 -0.0821 -1.1282 -0.0752
  149MOL0     C19986   5.336   0.160   1.345 -0.2362  0.5890 -0.2090
  149MOL0     C19987   5.467   0.110   1.338  0.0295  0.5160 -0.3448
  149MOL0     O19988   5.566   0.115   1.433  0.2511 -0.2150  0.1326
  149MOL0     C19989   5.516   0.144   1.564  0.3526 -0.4471 -0.1188
  149MOL0     C19990   5.637   0.133   1.655 -0.0782 -0.6022  0.0475
  149MOL0     C19991   5.745   0.235   1.626 -0.0774 -0.5437 -0.4229
  149MOL0     C19992   5.880   0.198   1.707  0.1506  0.4509  0.8485
  149MOL0     C19993   5.938   0.067   1.652  0.2195 -0.3163  0.0891
  149MOL0     C19994   6.082   0.048   1.708 -0.7165  0.4585  1.4150
  149MOL0     C19995   6.130  -0.095   1.700  0.0553 -0.4045  0.6727
  149MOL0     C19996   6.088  -0.169   1.828  0.1249 -0.2464  0.2054
  149MOL0     N19997   6.204  -0.160   1.919  0.0550  0.9199  0.4300
  149MOL0     C19998   6.212  -0.207   2.052 -0.6441 -0.5719 -0.8824
  149MOL0     C19999   6.341  -0.182   2.091 -0.3580 -0.4130 -0.0795
  149MOL0     C20000   6.390  -0.203   2.237  0.2452 -0.2991  0.1265
  149MOL0     C20001   6.456  -0.342   2.252 -0.2560  0.0614  1.4156
  149MOL0     C20002   6.565  -0.363   2.148 -0.3008 -0.1673 -0.1429
  149MOL0     C20003   6.643  -0.482   2.197  0.5926 -0.7131 -0.2624
  149MOL0     O20004   6.732  -0.521   2.099 -0.1872 -0.3358  0.2047
  149MOL0     C20005   6.804  -0.644   2.111  0.3537 -0.1021 -0.4065
  149MOL0     C20006   6.899  -0.679   2.016  0.5239  0.3723  0.3544
  149MOL0     C20007   6.966  -0.799   2.022  0.2338 -0.4522  1.2088
  149MOL0     C20008   6.946  -0.890   2.122 -0.2708  0.1753 -0.1046
  149MOL0     C20009   7.027  -1.017   2.134  0.4703  0.0481  0.2618
  149MOL0     O20010   7.136  -1.020   2.049  0.4795  0.3319 -0.0533
  149MOL0     C20011   7.226  -1.119   2.063  0.0151  0.9107  0.0843
  149MOL0     C20012   7.254  -1.195   1.955 -0.0506 -0.5906  0.4883
  149MOL0     C20013   7.352  -1.294   1.953 -0.4186 -0.4003  0.6879
  149MOL0     C20014   7.418  -1.327   2.070 -0.3405  0.1879  0.8399
  149MOL0     O20015   7.522  -1.422   2.070 -0.1244  0.7294 -0.0311
  149MOL0     C20016   7.539  -1.499   1.947 -0.3876 -0.5473 -0.9549
  149MOL0     C20017   7.661  -1.578   1.955  0.7824 -0.1906  0.0739
  149MOL0     C20018   7.636  -1.699   1.855 -0.0714  0.8396  0.5065
  149MOL0     C20019   7.758  -1.792   1.848 -0.4165  0.0956  0.6768
  149MOL0     C20020   7.717  -1.914   1.766  0.4596  0.8395  0.0265
  149MOL0     C20021   7.838  -2.015   1.753  0.0690 -0.0642  0.0205
  149MOL0     C20022   7.810  -2.122   1.642  0.1593  0.1283 -0.2210
  149MOL0     C20023   7.931  -2.216   1.639  0.6016 -0.5051  0.0259
  149MOL0    Cl20024   7.935  -2.318   1.787 -0.1580  0.1716 -0.0505
  149MOL0     C20025   7.396  -1.249   2.178  0.3497 -0.6916  0.8148
  149MOL0     C20026   7.295  -1.154   2.182 -0.3541  0.1905  1.2511
  149MOL0     O20027   6.996  -1.104   2.225 -0.0701 -0.1994 -0.2864
  149MOL0     C20028   6.847  -0.857   2.212  0.4090  0.1734  0.1032
  149MOL0     C20029   6.779  -0.737   2.210  0.1728  0.2802  0.1262
  149MOL0     N20030   6.409  -0.135   1.987  0.3980 -0.3475 -0.1348
  149MOL0     N20031   6.335  -0.124   1.883  0.1757  0.1811 -0.6806
  149MOL0     C20032   5.498   0.039   1.224  0.0106 -0.4897  0.3841
  149MOL0     C20033   5.402   0.008   1.122 -0.5514 -0.0736 -0.6142
  149MOL0     C20034   4.945   0.005   0.968  0.1890 -0.2569 -0.7627
  149MOL0     C20035   4.963  -0.109   0.886  0.0976 -0.3919 -0.3591
  149MOL0     C20036   4.849  -0.167   0.829 -0.2971 -0.2558  0.5434
  149MOL0     C20037   4.718  -0.135   0.863  0.8704  0.2379  0.1244
  149MOL0     O20038   4.622  -0.225   0.815  0.1531 -0.5043  0.3148
  149MOL0     C20039   4.481  -0.189   0.822 -0.1897 -0.1665 -0.2529
  149MOL0     C20040   4.411  -0.257   0.701  0.2180 -0.1699 -0.5996
  149MOL0     C20041   4.267  -0.212   0.675 -1.0200  0.0892  0.3494
  149MOL0     C20042   4.170  -0.285   0.766 -0.2017  0.2799 -0.1060
  149MOL0     C20043   4.125  -0.220   0.893  0.1055 -0.2729 -0.2768
  149MOL0     C20044   4.094  -0.168   1.003  0.1054  0.9397  0.2341
  149MOL0     C20045   4.711  -0.021   0.939 -0.4750 -0.5612 -0.4049
  149MOL0     C20046   4.817   0.061   0.992  0.4920 -0.4263 -0.0574
  149MOL0     C20047   4.779   0.173   1.086  0.0028 -0.0212 -0.1847
  149MOL0     H20048   5.142   0.162   1.269  0.1966 -0.4345 -0.5128
  149MOL0     H20049   5.301   0.216   1.431 -3.0850 -1.6376  0.2567
  149MOL0     H20050   5.483   0.249   1.562  3.3975  0.6502  0.8456
  149MOL0     H20051   5.440   0.077   1.604 -0.6769  0.1103 -1.0687
  149MOL0     H20052   5.683   0.035   1.637  2.3529  0.3956  0.4475
  149MOL0     H20053   5.608   0.131   1.760  3.3811 -0.5310  1.1155
  149MOL0     H20054   5.702   0.334   1.646 -3.1474 -2.3641  3.1365
  149MOL0     H20055   5.779   0.229   1.522  0.4876  1.1262 -0.3781
  149MOL0     H20056   5.952   0.280   1.696 -0.1845  0.6685  0.2062
  149MOL0     H20057   5.857   0.185   1.813 -1.8417  1.5728  0.5937
  149MOL0     H20058   5.872  -0.014   1.685  1.3300 -2.2076 -2.0859
  149MOL0     H20059   5.938   0.060   1.543 -0.6034 -2.5342  0.1761
  149MOL0     H20060   6.148   0.113   1.650  0.1915 -0.4359  1.4218
  149MOL0     H20061   6.104   0.084   1.809  1.7876  0.2494  1.0036
  149MOL0     H20062   6.240  -0.094   1.694  0.2678 -0.5078  3.3678
  149MOL0     H20063   6.083  -0.146   1.615  0.3408 -1.0697  0.9049
  149MOL0     H20064   5.992  -0.153   1.879  0.8258 -2.4844  2.4242
  149MOL0     H20065   6.069  -0.276   1.810 -1.8503  0.1113 -0.0445
  149MOL0     H20066   6.137  -0.249   2.118  0.1998  0.6505  0.9207
  149MOL0     H20067   6.449  -0.118   2.274 -0.5188 -0.1385  1.0312
  149MOL0     H20068   6.303  -0.210   2.303 -2.3861 -3.2997 -3.2673
  149MOL0     H20069   6.486  -0.359   2.356 -0.3052 -6.2406  0.7923
  149MOL0     H20070   6.386  -0.423   2.230 -0.2551  0.0189  1.5667
  149MOL0     H20071   6.630  -0.277   2.130  2.2520 -1.5678  1.6641
  149MOL0     H20072   6.515  -0.380   2.052 -2.8883  1.6168  0.7773
  149MOL0     H20073   6.579  -0.567   2.223  0.5850 -0.9439 -0.9923
  149MOL0     H20074   6.682  -0.449   2.293 -1.4948 -0.7603  0.6555
  149MOL0     H20075   6.922  -0.607   1.938  0.5683 -0.3706 -0.3301
  149MOL0     H20076   7.031  -0.822   1.939 -0.2918 -4.4384  1.6700
  149MOL0     H20077   7.211  -1.161   1.862 -0.6652  1.4011  1.4541
  149MOL0     H20078   7.369  -1.335   1.854  1.1284  2.2321 -0.2460
  149MOL0     H20079   7.454  -1.567   1.934 -0.9436 -0.0114 -0.2701
  149MOL0     H20080   7.546  -1.431   1.861  1.1565 -0.6263 -0.9100
  149MOL0     H20081   7.744  -1.516   1.921 -0.1660  0.5718 -0.9047
  149MOL0     H20082   7.674  -1.622   2.054  0.7732 -0.8759 -0.2213
  149MOL0     H20083   7.539  -1.749   1.862 -1.3680  3.2147  0.7646
  149MOL0     H20084   7.634  -1.660   1.752  0.1289 -0.5756 -0.0493
  149MOL0     H20085   7.785  -1.814   1.951 -1.6992 -2.3029  0.5738
  149MOL0     H20086   7.840  -1.732   1.808  1.2508 -2.3241  0.3074
  149MOL0     H20087   7.687  -1.884   1.666  1.0411 -0.4131 -0.5410
  149MOL0     H20088   7.638  -1.969   1.818  1.4614 -0.6453  0.0333
  149MOL0     H20089   7.933  -1.964   1.734  1.5716 -2.3377  1.0496
  149MOL0     H20090   7.851  -2.052   1.855 -1.7099  0.0740  0.3367
  149MOL0     H20091   7.799  -2.086   1.539  1.5086  0.0534 -0.4029
  149MOL0     H20092   7.716  -2.170   1.672  0.2812 -1.3830 -2.0531
  149MOL0     H20093   7.919  -2.282   1.552  0.4151  0.4322 -0.6802
  149MOL0     H20094   8.020  -2.153   1.630  0.0785  0.6203  2.1177
  149MOL0     H20095   7.459  -1.261   2.265  5.4295  2.6442 -1.9090
  149MOL0     H20096   7.283  -1.078   2.259 -0.9341  1.3564  0.0592
  149MOL0     H20097   6.835  -0.934   2.288  0.4388 -0.4435 -0.5121
  149MOL0     H20098   6.712  -0.723   2.294  0.3696  1.0664  0.1615
  149MOL0     H20099   5.596   0.008   1.193  1.4679 -2.8756  6.0319
  149MOL0     H20100   5.429  -0.058   1.040  0.0435 -0.2717 -0.2652
  149MOL0     H20101   5.062  -0.147   0.862  1.6874  0.9402  3.3505
  149MOL0     H20102   4.868  -0.247   0.758 -1.2092 -0.3236  0.3625
  149MOL0     H20103   4.465  -0.081   0.827 -1.4564 -0.3880  1.6812
  149MOL0     H20104   4.443  -0.230   0.916 -2.4408 -0.6221 -1.2891
  149MOL0     H20105   4.411  -0.365   0.716  2.1073  0.0134  1.2921
  149MOL0     H20106   4.469  -0.239   0.610 -1.3375 -0.1446 -1.6065
  149MOL0     H20107   4.231  -0.223   0.572 -0.1699  3.2130 -0.3682
  149MOL0     H20108   4.267  -0.105   0.693 -1.9276  0.3202 -0.8915
  149MOL0     H20109   4.082  -0.314   0.708  1.5371 -0.8399 -2.3547
  149MOL0     H20110   4.216  -0.380   0.795 -1.3335  0.1202  1.2776
  149MOL0     H20111   4.077  -0.114   1.093  1.1040  2.2865 -0.3544
  149MOL0     H20112   4.616   0.011   0.981  0.8784  5.0610 -0.7888
  149MOL0     H20113   4.770   0.126   1.185 -1.6782  0.6105 -0.0091
  149MOL0     H20114   4.853   0.253   1.086  1.1002 -0.9995 -0.3435
  149MOL0     H20115   4.680   0.213   1.064  0.5206  1.7205  0.5275
  150MOL0     O20116   4.316   1.464   0.432  0.8020  0.3919  0.7192
  150MOL0     C20117   4.280   1.410   0.534  0.2143 -0.9120 -1.0116
  150MOL0     O20118   4.355   1.346   0.622 -0.2901  0.2036 -0.0519
  150MOL0     C20119   4.489   1.376   0.601 -0.2544  0.3310 -0.6796
  150MOL0     C20120   4.548   1.310   0.495  0.5409 -0.1451  0.3450
  150MOL0     C20121   4.678   1.340   0.459  0.3442  0.1309 -0.0334
  150MOL0     C20122   4.763   1.415   0.542 -1.3283 -0.3637 -0.2908
  150MOL0     O20123   4.888   1.423   0.486 -0.0649 -0.8068 -0.5323
  150MOL0     C20124   4.977   1.521   0.548 -0.0800  0.6453 -0.1554
  150MOL0     C20125   5.118   1.526   0.495 -0.4337 -1.3991 -0.2530
  150MOL0     C20126   5.207   1.640   0.554 -0.0006  0.4061 -0.3326
  150MOL0     C20127   5.339   1.659   0.481  0.1419  0.9181 -0.4607
  150MOL0     C20128   5.441   1.757   0.549  0.1445  0.6048  0.3340
  150MOL0     C20129   5.560   1.773   0.456 -0.3613  0.4064  0.4066
  150MOL0     C20130   5.674   1.849   0.526  0.3607  0.1256 -0.3045
  150MOL0     C20131   5.777   1.749   0.588 -1.0091  0.0191 -0.0032
  150MOL0     N20132   5.883   1.695   0.497 -0.4238 -0.3242 -0.1585
  150MOL0     C20133   5.931   1.560   0.494 -0.0101 -0.0834  0.7175
  150MOL0     C20134   6.016   1.555   0.385 -0.3775 -0.1123  1.0823
  150MOL0     C20135   6.075   1.430   0.320 -0.0091  0.5280 -0.0647
  150MOL0     C20136   6.222   1.427   0.330 -0.5256  0.8099 -0.5606
  150MOL0     C20137   6.256   1.287   0.267  0.0334 -0.9522  0.7477
  150MOL0     C20138   6.405   1.283   0.222 -0.4062  0.2705  0.4202
  150MOL0     O20139   6.497   1.276   0.333 -0.4583 -0.1003 -0.0596
  150MOL0     C20140   6.634   1.313   0.310  0.0044 -1.0628 -0.0006
  150MOL0     C20141   6.689   1.296   0.187  0.7789  1.2110  0.5820
  150MOL0     C20142   6.822   1.334   0.167  0.5084  0.0704  0.5155
  150MOL0     C20143   6.909   1.387   0.268 -0.1025  0.2359  1.0186
  150MOL0     C20144   7.051   1.402   0.238  0.7553 -0.4056 -0.6144
  150MOL0     O20145   7.139   1.380   0.341  0.6035  1.3515 -0.2614
  150MOL0     C20146   7.273   1.374   0.340  0.1555  1.1368 -0.0393
  150MOL0     C20147   7.359   1.371   0.230  0.1757 -0.0819 -0.3370
  150MOL0     C20148   7.493   1.357   0.252 -0.1567 -0.5553  0.2043
  150MOL0     C20149   7.547   1.341   0.383 -0.0205  0.1703 -0.2634
  150MOL0     O20150   7.681   1.331   0.399  0.1725  0.6009  0.4178
  150MOL0     C20151   7.727   1.199   0.413  0.6115 -0.1567  0.5805
  150MOL0     C20152   7.882   1.195   0.420  0.7952  0.2117  0.1036
  150MOL0     C20153   7.945   1.260   0.295  0.6848  0.5563  0.1180
  150MOL0     C20154   8.076   1.186   0.266 -0.6630  1.0110 -0.3807
  150MOL0     C20155   8.175   1.186   0.379  0.2976  0.2615 -0.8859
  150MOL0     C20156   8.315   1.150   0.329 -0.4341  0.2178 -0.0920
  150MOL0     C20157   8.322   1.014   0.262 -0.2605  0.3463 -0.3814
  150MOL0     C20158   8.269   0.892   0.351  0.9312  0.2734  0.7035
  150MOL0    Cl20159   8.310   0.886   0.521  0.2330  0.3530  0.4475
  150MOL0     C20160   7.466   1.337   0.497  0.9946  0.4141  0.2256
  150MOL0     C20161   7.324   1.352   0.477 -0.4053 -0.3642  0.2887
  150MOL0     O20162   7.088   1.405   0.121 -0.3241 -1.0586  0.3811
  150MOL0     C20163   6.848   1.409   0.396  0.1439 -0.3000  0.4689
  150MOL0     C20164   6.712   1.368   0.417  0.0981  0.0214  0.5248
  150MOL0     N20165   6.040   1.683   0.341  0.1616 -0.4818  0.9129
  150MOL0     N20166   5.960   1.763   0.402  0.1017 -0.3742 -0.2343
  150MOL0     C20167   4.705   1.474   0.662 -0.8607 -0.4270  0.0066
  150MOL0     C20168   4.569   1.454   0.684  0.8993  0.1167  0.4492
  150MOL0     C20169   4.134   1.426   0.582 -0.2327  0.2017  0.7059
  150MOL0     C20170   4.084   1.327   0.668  0.6147  0.1423 -0.9393
  150MOL0     C20171   3.946   1.309   0.702 -0.1469 -1.8899  0.4044
  150MOL0     C20172   3.859   1.404   0.658  0.9268  0.4659  0.1700
  150MOL0     O20173   3.722   1.416   0.692  0.0040  0.3679  0.0577
  150MOL0     C20174   3.652   1.314   0.759  0.3537  0.0148  0.4631
  150MOL0     C20175   3.505   1.335   0.777 -0.6158 -0.1294 -0.4364
  150MOL0     C20176   3.440   1.220   0.850  0.0468 -0.0877  0.0419
  150MOL0     C20177   3.301   1.248   0.894 -0.0471  0.2116 -0.2877
  150MOL0     C20178   3.191   1.248   0.789  0.5851 -0.4381 -0.3848
  150MOL0     C20179   3.103   1.265   0.708  0.3107  0.4788 -0.9402
  150MOL0     C20180   3.903   1.511   0.572 -0.2737  1.0943 -0.4919
  150MOL0     C20181   4.038   1.519   0.538 -0.8981  0.4271 -0.6604
  150MOL0     C20182   4.079   1.642   0.461  0.6337  0.1471  0.7741
  150MOL0     H20183   4.496   1.234   0.439  1.4546 -0.2965 -0.3107
  150MOL0     H20184   4.716   1.303   0.365  0.2268  2.6127 -1.1469
  150MOL0     H20185   4.932   1.619   0.529  0.9412  0.7901 -2.0538
  150MOL0     H20186   4.984   1.504   0.656 -1.6852 -0.6038 -0.2084
  150MOL0     H20187   5.122   1.549   0.388  0.5431 -1.2442 -0.1967
  150MOL0     H20188   5.169   1.433   0.523 -0.5512 -1.1073  1.0183
  150MOL0     H20189   5.226   1.622   0.660 -1.4429  0.3613 -0.0525
  150MOL0     H20190   5.142   1.729   0.549  0.7584  0.8930 -3.3806
  150MOL0     H20191   5.383   1.560   0.471 -0.5531  0.6295 -0.7046
  150MOL0     H20192   5.314   1.686   0.378  0.8697 -1.6335 -1.3603
  150MOL0     H20193   5.401   1.858   0.559  2.9650  2.0618 -1.7053
  150MOL0     H20194   5.480   1.719   0.644 -0.2117 -2.4946 -0.6214
  150MOL0     H20195   5.592   1.673   0.423  2.9971  0.3530  3.1751
  150MOL0     H20196   5.552   1.829   0.363  1.8096  0.3751  0.1360
  150MOL0     H20197   5.629   1.908   0.606  3.9004 -0.2883  2.2582
  150MOL0     H20198   5.721   1.916   0.454  1.0281 -1.4523 -1.3856
  150MOL0     H20199   5.825   1.793   0.675  2.2866  2.3563 -2.7008
  150MOL0     H20200   5.718   1.664   0.623  0.5433 -0.2482  2.1578
  150MOL0     H20201   5.901   1.475   0.555  1.6429 -0.8864  0.4619
  150MOL0     H20202   6.036   1.348   0.382 -0.2096  1.9036  1.7053
  150MOL0     H20203   6.048   1.421   0.214  0.8442  0.4327 -0.2799
  150MOL0     H20204   6.254   1.515   0.274 -0.7172  3.2561  2.8876
  150MOL0     H20205   6.255   1.434   0.434 -2.5356 -3.1006  0.5358
  150MOL0     H20206   6.199   1.271   0.175  0.8516  0.8600 -0.1263
  150MOL0     H20207   6.237   1.206   0.338  0.2648 -2.7393 -1.1099
  150MOL0     H20208   6.425   1.368   0.155 -0.5535 -0.9975 -1.2762
  150MOL0     H20209   6.430   1.196   0.161  0.2640  1.0278 -0.4265
  150MOL0     H20210   6.621   1.253   0.114 -0.1539  1.2324  1.4170
  150MOL0     H20211   6.868   1.299   0.075  1.7582  0.2575  1.0467
  150MOL0     H20212   7.308   1.384   0.134 -3.2785 -1.7922  1.0894
  150MOL0     H20213   7.559   1.381   0.169 -0.0918  1.8415  0.8582
  150MOL0     H20214   7.686   1.161   0.507  0.0257  2.2325  1.3503
  150MOL0     H20215   7.696   1.140   0.326  3.1693 -2.6960  1.2492
  150MOL0     H20216   7.920   1.230   0.517  0.6013  1.0091 -0.0939
  150MOL0     H20217   7.904   1.089   0.408  2.1797  0.4497  0.3327
  150MOL0     H20218   7.881   1.243   0.208  1.2567  0.0653 -0.2100
  150MOL0     H20219   7.956   1.368   0.309  2.0451  0.1940  2.2716
  150MOL0     H20220   8.109   1.218   0.167 -1.5856 -2.5418 -2.0025
  150MOL0     H20221   8.056   1.081   0.241 -1.5865  1.1875 -0.4305
  150MOL0     H20222   8.145   1.120   0.462  1.7161 -0.2346 -0.7358
  150MOL0     H20223   8.187   1.287   0.420  1.9379 -0.7012  1.2115
  150MOL0     H20224   8.362   1.215   0.254  0.8020 -1.3133 -0.6983
  150MOL0     H20225   8.384   1.142   0.413 -1.4139 -1.9002  0.5869
  150MOL0     H20226   8.427   0.992   0.245  0.2456  0.1654  2.3919
  150MOL0     H20227   8.271   1.014   0.165 -0.7106 -0.0740 -0.1502
  150MOL0     H20228   8.160   0.892   0.353  0.8498 -0.9335 -0.9124
  150MOL0     H20229   8.307   0.798   0.309  2.2807  0.1435  2.1515
  150MOL0     H20230   7.495   1.307   0.597 -0.0621  1.1344  0.7673
  150MOL0     H20231   7.250   1.348   0.557  1.7505 -0.5169  2.3948
  150MOL0     H20232   6.903   1.451   0.480  0.2743  0.1644  0.1550
  150MOL0     H20233   6.667   1.383   0.515  2.8082  1.7152  1.6560
  150MOL0     H20234   4.756   1.537   0.734 -1.3982 -0.5502  0.5009
  150MOL0     H20235   4.517   1.491   0.772 -3.6345  1.0281 -2.2859
  150MOL0     H20236   4.143   1.238   0.690 -1.7444 -1.4171 -0.5010
  150MOL0     H20237   3.915   1.235   0.775  1.3998  0.3809  3.5569
  150MOL0     H20238   3.699   1.304   0.858  2.4749  0.1991 -0.4764
  150MOL0     H20239   3.663   1.225   0.697 -1.7795  0.8721 -1.2870
  150MOL0     H20240   3.463   1.335   0.677  0.2883 -2.1313 -0.8824
  150MOL0     H20241   3.490   1.431   0.826  2.1455  0.5931 -0.8080
  150MOL0     H20242   3.507   1.186   0.929 -0.1993 -2.1830 -0.5784
  150MOL0     H20243   3.435   1.135   0.781  1.7554 -0.6907  0.6123
  150MOL0     H20244   3.268   1.171   0.965 -0.5098  0.8374  0.1835
  150MOL0     H20245   3.291   1.347   0.940  1.0130 -0.8804  2.5567
  150MOL0     H20246   3.017   1.272   0.645 -0.2834  0.3336 -0.1598
  150MOL0     H20247   3.821   1.575   0.541 -2.6033  0.1538  3.1543
  150MOL0     H20248   4.114   1.611   0.362 -0.1898  0.0331  0.5098
  150MOL0     H20249   3.998   1.716   0.464 -0.7245 -1.3022  1.7060
  150MOL0     H20250   4.169   1.683   0.507  1.8596 -2.0224  0.4425
  151MOL0     O20251   4.370   1.067   2.334  0.0646  0.4536  0.2387
  151MOL0     C20252   4.262   1.124   2.330  0.1330  0.4034  0.5416
  151MOL0     O20253   4.148   1.094   2.389  0.6722 -0.4055 -0.3614
  151MOL0     C20254   4.131   0.974   2.454 -0.4743  0.4925  0.3896
  151MOL0     C20255   4.231   0.932   2.539 -0.1597 -0.2651 -0.4570
  151MOL0     C20256   4.238   0.805   2.597 -0.3109 -0.9359 -0.1757
  151MOL0     C20257   4.127   0.720   2.574  0.1422 -0.3514 -0.0503
  151MOL0     O20258   4.111   0.603   2.634 -0.7456 -0.1898 -0.2724
  151MOL0     C20259   4.194   0.500   2.579  0.2127  0.3869 -1.4671
  151MOL0     C20260   4.153   0.372   2.643 -0.1583  0.3961 -0.4263
  151MOL0     C20261   4.041   0.285   2.568 -0.2236  0.3033 -0.0387
  151MOL0     C20262   3.898   0.316   2.607 -0.2330 -0.1143 -0.0484
  151MOL0     C20263   3.789   0.262   2.508 -0.8299  0.5878  0.1538
  151MOL0     C20264   3.662   0.346   2.525 -0.3543 -0.3527  0.2610
  151MOL0     C20265   3.684   0.483   2.452  0.4043 -0.3204  0.0176
  151MOL0     C20266   3.578   0.582   2.504  1.2316 -0.0986  0.8042
  151MOL0     N20267   3.442   0.538   2.509  0.1675 -0.5453  1.1178
  151MOL0     C20268   3.352   0.551   2.395 -1.2833  0.1234 -0.6803
  151MOL0     C20269   3.239   0.494   2.439 -0.6818  0.3996 -0.2358
  151MOL0     C20270   3.100   0.489   2.374 -0.2505 -0.1481  0.6863
  151MOL0     C20271   3.073   0.369   2.279 -0.0950  0.2274 -0.1017
  151MOL0     C20272   2.971   0.403   2.166  0.2375  0.0532  0.1354
  151MOL0     C20273   2.927   0.288   2.075 -1.3505 -0.5000  1.0338
  151MOL0     O20274   2.898   0.177   2.157  0.0626 -0.6283  0.3646
  151MOL0     C20275   2.962   0.058   2.137  0.8969  0.8438  1.1410
  151MOL0     C20276   3.095   0.041   2.106 -0.6824 -0.3667  0.1199
  151MOL0     C20277   3.158  -0.077   2.109  0.5882  0.2243  0.9253
  151MOL0     C20278   3.081  -0.196   2.130 -0.6478  0.1276 -0.1553
  151MOL0     C20279   3.131  -0.330   2.092  0.3262 -0.3169 -1.0430
  151MOL0     O20280   3.269  -0.327   2.080 -0.0306  0.1872 -0.6906
  151MOL0     C20281   3.338  -0.442   2.077  0.0804  0.1819 -0.4303
  151MOL0     C20282   3.368  -0.496   1.950  0.5277 -0.0288 -0.1721
  151MOL0     C20283   3.447  -0.617   1.943  0.6444  0.2255 -0.0546
  151MOL0     C20284   3.499  -0.670   2.061 -0.4077 -0.6716 -0.2998
  151MOL0     O20285   3.572  -0.779   2.074 -0.1216  1.0323  0.0438
  151MOL0     C20286   3.632  -0.842   1.958  1.0790 -0.7349 -0.8598
  151MOL0     C20287   3.747  -0.935   2.001  0.4989  0.2872 -0.2097
  151MOL0     C20288   3.698  -1.056   2.093 -0.7122 -0.5050  0.5461
  151MOL0     C20289   3.823  -1.120   2.165  0.4422 -0.5674  0.5998
  151MOL0     C20290   3.922  -1.194   2.071  0.0017 -0.2815  0.3349
  151MOL0     C20291   3.843  -1.299   1.980 -0.9516 -0.2875 -0.6606
  151MOL0     C20292   3.952  -1.354   1.879  0.8669 -0.0900 -0.3135
  151MOL0     C20293   3.893  -1.422   1.766 -0.4262  0.3026 -0.5716
  151MOL0    Cl20294   4.026  -1.510   1.689 -0.4981 -0.1574 -0.3082
  151MOL0     C20295   3.463  -0.612   2.185 -0.3063 -0.5626 -0.3122
  151MOL0     C20296   3.394  -0.491   2.202  0.2114  0.8794  0.5748
  151MOL0     O20297   3.056  -0.430   2.082 -0.0466  0.3419  0.5029
  151MOL0     C20298   2.940  -0.185   2.150 -0.1603  0.1399 -0.8794
  151MOL0     C20299   2.886  -0.061   2.157  0.2121  0.5595  0.1188
  151MOL0     N20300   3.257   0.439   2.561  0.5690 -0.4782 -0.2455
  151MOL0     N20301   3.381   0.465   2.598  0.0023  0.4274  0.1425
  151MOL0     C20302   4.017   0.769   2.496 -0.0958  0.1098 -0.7572
  151MOL0     C20303   4.024   0.888   2.429 -0.9040 -0.0251  0.0612
  151MOL0     C20304   4.255   1.251   2.257  0.2259 -0.0205  0.2953
  151MOL0     C20305   4.131   1.314   2.228 -0.0794 -0.9172 -0.2195
  151MOL0     C20306   4.136   1.440   2.164  0.4839  1.0976 -0.2962
  151MOL0     C20307   4.249   1.482   2.103 -0.2347 -1.1253  0.6299
  151MOL0     O20308   4.266   1.604   2.034 -0.9122 -0.1800 -0.5322
  151MOL0     C20309   4.155   1.691   2.023 -0.4844 -0.0235  0.2526
  151MOL0     C20310   4.164   1.765   2.155  1.1759 -0.3289 -0.5556
  151MOL0     C20311   4.035   1.849   2.181 -0.5702  0.5103  0.1161
  151MOL0     C20312   3.992   1.955   2.068 -0.5928  0.6803  0.3037
  151MOL0     C20313   3.912   1.883   1.969 -0.0020  0.1578 -0.5335
  151MOL0     C20314   3.831   1.842   1.887 -0.2312  0.9547  0.2175
  151MOL0     C20315   4.362   1.410   2.117 -0.6309 -0.2488  0.0279
  151MOL0     C20316   4.367   1.299   2.199 -0.6137  0.4192  0.7228
  151MOL0     C20317   4.513   1.261   2.219 -0.5903 -0.5545  0.2905
  151MOL0     H20318   4.311   1.005   2.546 -0.4855  0.1186 -0.6594
  151MOL0     H20319   4.330   0.788   2.651 -0.7249 -0.6822  0.6252
  151MOL0     H20320   4.187   0.497   2.470  1.7814  0.4244 -1.5869
  151MOL0     H20321   4.299   0.510   2.608 -0.4810  1.3938  0.9186
  151MOL0     H20322   4.114   0.395   2.743  2.7204 -1.8210  1.3678
  151MOL0     H20323   4.242   0.310   2.659  0.3339  1.5334  1.7191
  151MOL0     H20324   4.057   0.178   2.583 -0.9191  0.1412 -0.3768
  151MOL0     H20325   4.049   0.309   2.461 -1.5040 -0.5374 -0.3476
  151MOL0     H20326   3.883   0.265   2.703 -1.8349  1.0734  0.3842
  151MOL0     H20327   3.885   0.424   2.618 -0.5253 -0.2315  0.8729
  151MOL0     H20328   3.834   0.276   2.409 -1.7199  0.5247 -0.2681
  151MOL0     H20329   3.780   0.154   2.522 -2.5568  0.8277  1.1660
  151MOL0     H20330   3.579   0.307   2.464 -1.6236  1.2877  0.8549
  151MOL0     H20331   3.621   0.356   2.626 -1.8384 -0.1306 -0.3240
  151MOL0     H20332   3.669   0.473   2.344 -0.0109  1.3229 -0.1136
  151MOL0     H20333   3.784   0.517   2.479  0.6702 -2.5390  2.1837
  151MOL0     H20334   3.608   0.597   2.609  2.2187 -1.8489  0.8208
  151MOL0     H20335   3.581   0.679   2.455  0.6618 -0.5310 -0.1046
  151MOL0     H20336   3.372   0.597   2.299  4.6023 -2.0581 -0.8918
  151MOL0     H20337   3.025   0.477   2.454 -1.8358  0.7524 -0.6066
  151MOL0     H20338   3.071   0.583   2.326  0.0414  0.1118  1.0104
  151MOL0     H20339   3.166   0.322   2.246 -1.1816 -1.1726 -1.2765
  151MOL0     H20340   3.018   0.306   2.350  0.8043  2.4111  2.7332
  151MOL0     H20341   3.019   0.482   2.108 -0.2965  0.0094 -0.3684
  151MOL0     H20342   2.883   0.442   2.216 -0.2695  0.4875 -1.0846
  151MOL0     H20343   3.009   0.265   2.006 -1.6002  2.0257 -0.1980
  151MOL0     H20344   2.840   0.330   2.024  2.5616  4.6134 -2.4317
  151MOL0     H20345   3.154   0.126   2.073  1.3906 -3.3112 -4.7303
  151MOL0     H20346   3.253  -0.078   2.056 -0.2019 -0.5550 -0.5315
  151MOL0     H20347   3.328  -0.451   1.860  0.8984 -1.9163 -1.3421
  151MOL0     H20348   3.464  -0.660   1.845  2.3298  1.6322 -0.4254
  151MOL0     H20349   3.558  -0.892   1.895  0.1059 -0.9582  0.4195
  151MOL0     H20350   3.680  -0.762   1.900  0.3397  3.2915  3.5140
  151MOL0     H20351   3.787  -0.977   1.909 -0.9988 -1.5062 -0.1134
  151MOL0     H20352   3.829  -0.898   2.062 -0.7945 -0.2343  1.9747
  151MOL0     H20353   3.628  -1.027   2.171 -1.5915 -0.5096 -0.2280
  151MOL0     H20354   3.644  -1.135   2.040  0.0442 -0.9874  0.4779
  151MOL0     H20355   3.781  -1.193   2.235  2.0126 -0.9664  1.1695
  151MOL0     H20356   3.864  -1.049   2.238  1.1201  1.1063 -1.3152
  151MOL0     H20357   3.993  -1.247   2.135  0.0154 -0.2004  0.3856
  151MOL0     H20358   3.969  -1.125   2.001  0.1871 -1.3338 -0.6148
  151MOL0     H20359   3.805  -1.378   2.045  0.3708 -1.1456 -0.8703
  151MOL0     H20360   3.768  -1.248   1.920 -0.4537  2.7084  1.0431
  151MOL0     H20361   4.026  -1.422   1.924  1.0069 -2.5869 -3.8912
  151MOL0     H20362   4.005  -1.270   1.835 -0.5978 -0.2940 -2.5826
  151MOL0     H20363   3.811  -1.486   1.800 -1.0192  1.3820  0.0869
  151MOL0     H20364   3.842  -1.361   1.692 -2.1361 -1.3635 -0.8622
  151MOL0     H20365   3.514  -0.644   2.276  2.3995  2.4191 -0.5833
  151MOL0     H20366   3.369  -0.446   2.298 -1.4954 -1.3065  1.2216
  151MOL0     H20367   2.880  -0.274   2.161  1.2541 -0.8087 -0.5222
  151MOL0     H20368   2.781  -0.054   2.185 -0.1742 -1.9572 -0.4826
  151MOL0     H20369   3.926   0.712   2.488 -0.7034  1.1539 -1.5050
  151MOL0     H20370   3.938   0.932   2.379 -0.3754 -1.6808 -2.4981
  151MOL0     H20371   4.035   1.278   2.262 -1.1119  1.0667 -0.8887
  151MOL0     H20372   4.045   1.493   2.137  0.4809  1.1996 -0.0800
  151MOL0     H20373   4.065   1.635   1.994 -0.2132 -0.2925 -0.0754
  151MOL0     H20374   4.169   1.760   1.940 -0.6540  0.3238  0.5120
  151MOL0     H20375   4.253   1.828   2.152  1.2206 -0.2115  1.5789
  151MOL0     H20376   4.176   1.699   2.242  1.0703 -2.6320 -2.1966
  151MOL0     H20377   4.066   1.897   2.275  1.9367 -1.6439  0.5169
  151MOL0     H20378   3.953   1.782   2.205  1.0452 -1.9019 -0.7355
  151MOL0     H20379   3.926   2.032   2.109 -1.1462 -0.1061  0.9178
  151MOL0     H20380   4.078   2.006   2.025 -0.6596 -0.5348 -1.3939
  151MOL0     H20381   3.767   1.824   1.803 -1.9646 -1.9478  1.9873
  151MOL0     H20382   4.449   1.466   2.084 -1.3580  1.0650  0.2611
  151MOL0     H20383   4.586   1.333   2.181  2.4730 -3.0605  1.0566
  151MOL0     H20384   4.545   1.237   2.321 -0.8189 -0.6025  0.3527
  151MOL0     H20385   4.520   1.177   2.150 -0.7661  0.1404 -0.5955
  152MOL0     O20386   3.695   0.294   6.485 -0.3049  0.0100  0.7759
  152MOL0     C20387   3.618   0.280   6.583  0.0624 -0.2466  0.8735
  152MOL0     O20388   3.624   0.348   6.700  0.2290 -0.7602 -0.5658
  152MOL0     C20389   3.697   0.463   6.709 -0.5829 -0.4738  0.2784
  152MOL0     C20390   3.713   0.560   6.611  0.6727  0.3722 -0.1421
  152MOL0     C20391   3.761   0.685   6.656  0.3864 -0.2238  0.2225
  152MOL0     C20392   3.820   0.710   6.785 -0.5028  0.4291  0.3620
  152MOL0     O20393   3.889   0.827   6.814 -0.0555  0.7110 -0.3887
  152MOL0     C20394   3.890   0.932   6.712  0.3352  0.2669  0.1493
  152MOL0     C20395   3.949   1.059   6.767  0.7794 -0.1211 -0.5946
  152MOL0     C20396   4.090   1.053   6.810  0.6126  0.0705 -0.4765
  152MOL0     C20397   4.179   1.037   6.684  0.2928 -0.9499 -0.4662
  152MOL0     C20398   4.327   1.017   6.730 -0.9604  0.1554 -1.4778
  152MOL0     C20399   4.422   0.980   6.615 -0.1940  0.4624  0.0651
  152MOL0     C20400   4.569   0.969   6.665 -0.5909  0.0918 -0.3611
  152MOL0     C20401   4.666   0.952   6.551  0.7384  0.5451  0.8034
  152MOL0     N20402   4.801   0.914   6.594  0.7109  0.4780 -0.2497
  152MOL0     C20403   4.879   0.997   6.659 -0.4734  0.1043 -0.3812
  152MOL0     C20404   5.003   0.945   6.654  0.3236 -0.6381 -0.9665
  152MOL0     C20405   5.117   1.015   6.720  0.5894  0.0594  0.2199
  152MOL0     C20406   5.171   0.937   6.835  0.1675  0.2736  0.2797
  152MOL0     C20407   5.265   0.825   6.794 -0.2156 -0.1568  0.8866
  152MOL0     C20408   5.393   0.855   6.721  0.3862  0.6056 -0.2938
  152MOL0     O20409   5.448   0.985   6.757  0.3256  0.2786 -0.1811
  152MOL0     C20410   5.577   0.972   6.803 -0.0156  0.1539 -0.4231
  152MOL0     C20411   5.609   0.933   6.932  0.1800 -0.0869  0.2795
  152MOL0     C20412   5.743   0.908   6.972  0.0502 -1.0439 -0.0852
  152MOL0     C20413   5.844   0.963   6.892 -0.7460 -1.0141 -0.4476
  152MOL0     C20414   5.983   0.945   6.935  0.0504  0.1706  0.0041
  152MOL0     O20415   5.998   0.879   7.050  0.2109 -0.1921  0.3012
  152MOL0     C20416   6.130   0.841   7.076  0.7456 -0.6083  0.3114
  152MOL0     C20417   6.211   0.909   7.165 -0.6785 -0.0132 -0.2822
  152MOL0     C20418   6.349   0.886   7.172  0.6066 -0.2683  1.2969
  152MOL0     C20419   6.402   0.770   7.121 -0.1959  0.4907 -0.6705
  152MOL0     O20420   6.524   0.743   7.156  0.0321  0.0249  0.4835
  152MOL0     C20421   6.601   0.644   7.092  0.3244  0.0031 -0.1566
  152MOL0     C20422   6.727   0.611   7.177  0.1577 -0.3457  0.2972
  152MOL0     C20423   6.826   0.725   7.165  0.0722 -0.2385 -0.2938
  152MOL0     C20424   6.949   0.681   7.241 -0.7489  0.6395  0.5194
  152MOL0     C20425   7.070   0.737   7.173  0.2859  1.1693 -0.3699
  152MOL0     C20426   7.203   0.695   7.242  0.1704  0.1254  0.3608
  152MOL0     C20427   7.318   0.782   7.177 -0.0782 -0.4541 -0.3129
  152MOL0     C20428   7.345   0.909   7.263 -0.3745  0.2410  0.1091
  152MOL0    Cl20429   7.503   0.981   7.208 -0.2088 -0.2971  0.1307
  152MOL0     C20430   6.318   0.682   7.036  0.1810 -0.7406 -0.3164
  152MOL0     C20431   6.186   0.728   7.011  0.5738  0.4065 -0.3473
  152MOL0     O20432   6.081   0.976   6.856  0.3863 -1.3464 -0.2066
  152MOL0     C20433   5.807   1.016   6.768  0.9321 -0.5940  0.5424
  152MOL0     C20434   5.677   1.007   6.714  0.4211  0.3928 -0.2736
  152MOL0     N20435   4.992   0.828   6.575 -0.2228  0.1203 -0.4104
  152MOL0     N20436   4.869   0.807   6.542 -0.1806  0.8225  0.8409
  152MOL0     C20437   3.802   0.609   6.877 -0.4805  0.3840  0.0552
  152MOL0     C20438   3.740   0.489   6.835  0.2096 -0.4893  0.2534
  152MOL0     C20439   3.481   0.216   6.550  0.7623 -0.2165  1.1390
  152MOL0     C20440   3.366   0.244   6.629 -1.6041  0.9814  0.1653
  152MOL0     C20441   3.240   0.182   6.607  0.1622  0.3859  0.5366
  152MOL0     C20442   3.218   0.095   6.504  0.9720  0.5393 -1.0825
  152MOL0     O20443   3.094   0.043   6.482  0.9075  0.1067  0.1878
  152MOL0     C20444   3.047  -0.046   6.582  0.2484 -0.5037  0.0157
  152MOL0     C20445   2.909  -0.074   6.540  0.0345  0.3382 -0.1952
  152MOL0     C20446   2.920  -0.141   6.396 -0.0703  0.2981  0.3464
  152MOL0     C20447   2.784  -0.163   6.341  0.4530  0.5196  0.3305
  152MOL0     C20448   2.740  -0.299   6.311 -1.4029  0.0854  0.9148
  152MOL0     C20449   2.694  -0.408   6.291  0.0047 -0.1522  1.0562
  152MOL0     C20450   3.330   0.057   6.437  0.4043  0.1296 -0.0207
  152MOL0     C20451   3.458   0.118   6.449  0.1849  0.0764 -0.1613
  152MOL0     C20452   3.562   0.070   6.352 -0.9364 -0.0505 -0.2941
  152MOL0     H20453   3.674   0.542   6.511  0.4721 -3.6090  0.4723
  152MOL0     H20454   3.773   0.761   6.579  1.3502  2.6184  2.9801
  152MOL0     H20455   3.945   0.899   6.623  5.5950  0.8943  2.8040
  152MOL0     H20456   3.787   0.957   6.685 -0.3053 -0.3234  1.9346
  152MOL0     H20457   3.882   1.087   6.850 -1.9216 -2.0989 -1.9603
  152MOL0     H20458   3.941   1.141   6.695  0.5974  0.8306  0.4579
  152MOL0     H20459   4.093   0.957   6.861  1.7778  0.9677  1.2197
  152MOL0     H20460   4.126   1.139   6.868  0.0937 -0.7376  1.0927
  152MOL0     H20461   4.141   0.974   6.603 -0.0397  0.1398 -1.1725
  152MOL0     H20462   4.177   1.140   6.650  0.4259 -0.8761 -0.2523
  152MOL0     H20463   4.372   1.107   6.774  1.2338 -0.1324 -2.9387
  152MOL0     H20464   4.328   0.935   6.802 -0.3137 -0.0712 -1.7353
  152MOL0     H20465   4.391   0.880   6.584  1.9441  0.1792 -1.3906
  152MOL0     H20466   4.413   1.043   6.526 -1.8651  0.2314  0.0319
  152MOL0     H20467   4.566   0.877   6.724 -3.4153 -0.6861 -1.5093
  152MOL0     H20468   4.590   1.066   6.711  1.5587  0.4552 -1.9485
  152MOL0     H20469   4.622   0.876   6.485 -3.5300 -0.3011  4.1628
  152MOL0     H20470   4.667   1.043   6.490 -1.0460  0.0754  0.0105
  152MOL0     H20471   4.856   1.091   6.708  2.6609  0.0311  1.4545
  152MOL0     H20472   5.199   1.039   6.652  1.0820 -0.7865  0.5071
  152MOL0     H20473   5.080   1.107   6.769 -5.0371 -0.8548 -1.5605
  152MOL0     H20474   5.231   1.006   6.895  0.8501 -3.4363  4.3903
  152MOL0     H20475   5.094   0.910   6.909  1.6682 -2.1389  1.1030
  152MOL0     H20476   5.206   0.742   6.755  1.4905 -1.7173  1.4618
  152MOL0     H20477   5.297   0.774   6.885  3.0018  0.2947  0.1355
  152MOL0     H20478   5.383   0.849   6.612  1.1482  1.7306 -0.4371
  152MOL0     H20479   5.467   0.783   6.757  0.4193  0.9047  0.2499
  152MOL0     H20480   5.527   0.912   7.000  1.0689  0.4584  1.5735
  152MOL0     H20481   5.763   0.847   7.059 -1.4260  1.3875  2.1195
  152MOL0     H20482   6.170   0.995   7.217  2.4621  0.8019  1.0825
  152MOL0     H20483   6.419   0.950   7.226  1.8953  0.4644 -1.0862
  152MOL0     H20484   6.542   0.553   7.080 -0.5313  0.1939  2.0832
  152MOL0     H20485   6.638   0.672   6.993 -2.4607  1.3759 -0.9244
  152MOL0     H20486   6.695   0.598   7.281  3.9625  3.5993  2.2917
  152MOL0     H20487   6.767   0.511   7.156  1.2965 -0.2936  1.9807
  152MOL0     H20488   6.849   0.749   7.061  4.4605  2.8597  1.0571
  152MOL0     H20489   6.781   0.810   7.218 -2.1675 -4.0238  4.7404
  152MOL0     H20490   6.959   0.573   7.254 -1.9127  0.5742  0.9974
  152MOL0     H20491   6.945   0.731   7.338  0.3580 -1.6866  1.8544
  152MOL0     H20492   7.063   0.844   7.152 -0.0935  0.8954 -1.6919
  152MOL0     H20493   7.085   0.690   7.076  0.8447  1.1942 -0.2981
  152MOL0     H20494   7.177   0.711   7.347 -1.3369  0.1056  0.0021
  152MOL0     H20495   7.240   0.592   7.237  1.4488  0.3859  2.7407
  152MOL0     H20496   7.309   0.803   7.070 -0.0222 -1.0190 -0.4344
  152MOL0     H20497   7.407   0.720   7.188  1.4887  0.4565 -5.1823
  152MOL0     H20498   7.266   0.982   7.248 -1.7053 -1.6917 -3.8545
  152MOL0     H20499   7.347   0.889   7.370 -0.4403  2.9808  0.6854
  152MOL0     H20500   6.352   0.590   6.989  1.1328 -1.0218  0.8701
  152MOL0     H20501   6.129   0.672   6.937  1.6141 -2.7616  1.0338
  152MOL0     H20502   5.878   1.054   6.695 -0.2753  0.4495 -0.1230
  152MOL0     H20503   5.652   1.052   6.619  0.7446 -0.7572 -0.9107
  152MOL0     H20504   3.828   0.613   6.982  2.5585 -2.4829 -0.4596
  152MOL0     H20505   3.721   0.401   6.896 -0.2105 -2.2044 -2.2027
  152MOL0     H20506   3.375   0.325   6.700 -0.8040  3.0229 -2.1029
  152MOL0     H20507   3.149   0.206   6.660  1.1052  1.5428  1.7082
  152MOL0     H20508   3.051  -0.000   6.682 -1.5321  3.1981 -1.4274
  152MOL0     H20509   3.114  -0.132   6.575  1.2111  0.2397 -0.2007
  152MOL0     H20510   2.847   0.016   6.544  0.0151  0.3243 -0.1928
  152MOL0     H20511   2.865  -0.147   6.607 -2.8283  0.4613 -1.7865
  152MOL0     H20512   2.981  -0.231   6.405 -1.9760 -0.9093  2.2452
  152MOL0     H20513   2.968  -0.075   6.323 -2.6069  1.4476 -0.4291
  152MOL0     H20514   2.719  -0.139   6.426  2.3235 -1.5486  2.4840
  152MOL0     H20515   2.771  -0.094   6.256 -1.7396  0.7290  0.7829
  152MOL0     H20516   2.665  -0.511   6.290  0.7028 -0.3789 -1.6013
  152MOL0     H20517   3.319  -0.024   6.365  0.1059 -1.8537  2.1388
  152MOL0     H20518   3.654   0.032   6.399 -1.9838 -1.2576  0.8618
  152MOL0     H20519   3.519  -0.013   6.296 -0.4083 -0.0455 -0.7131
  152MOL0     H20520   3.600   0.149   6.287  0.6870 -0.4261  0.1459
  153MOL0     O20521   3.095   0.463   1.829  0.1809  0.0467  0.8864
  153MOL0     C20522   3.118   0.568   1.772 -0.7239 -0.6189  0.0934
  153MOL0     O20523   3.240   0.633   1.771  0.5125 -0.2208 -0.4139
  153MOL0     C20524   3.349   0.563   1.828  0.9499 -0.7530  0.9939
  153MOL0     C20525   3.419   0.469   1.753  0.1461  0.5959  0.5308
  153MOL0     C20526   3.533   0.403   1.797  0.2827 -0.4894  0.1575
  153MOL0     C20527   3.589   0.431   1.921 -0.3832 -0.4318 -0.4230
  153MOL0     O20528   3.711   0.377   1.954 -0.0641  0.3183  0.4865
  153MOL0     C20529   3.747   0.399   2.088 -0.5840  0.1269 -0.4622
  153MOL0     C20530   3.892   0.340   2.102 -0.2415 -0.2077  0.0788
  153MOL0     C20531   3.893   0.182   2.097  0.1765  0.2771 -0.0183
  153MOL0     C20532   4.034   0.127   2.079 -0.8435 -0.2425  0.3282
  153MOL0     C20533   4.118   0.162   2.200 -0.7541  0.0449  0.3761
  153MOL0     C20534   4.235   0.066   2.194 -0.2822 -0.0393 -0.0580
  153MOL0     C20535   4.340   0.097   2.312 -0.4099 -0.5942 -0.4091
  153MOL0     C20536   4.442   0.209   2.288 -0.4271 -0.6439 -0.5855
  153MOL0     N20537   4.515   0.242   2.412  0.3853 -0.6482 -0.0521
  153MOL0     C20538   4.575   0.155   2.489  0.0427 -0.8286  0.4779
  153MOL0     C20539   4.637   0.231   2.586  0.2266  0.3302  0.1816
  153MOL0     C20540   4.730   0.178   2.692  0.3062 -0.0676  0.9201
  153MOL0     C20541   4.639   0.139   2.812  0.7633 -0.1320  0.6460
  153MOL0     C20542   4.721   0.130   2.946  0.6964  0.0991  0.3523
  153MOL0     C20543   4.656   0.180   3.071  0.5411  0.4173 -0.4906
  153MOL0     O20544   4.743   0.163   3.176 -0.1251  0.3596 -0.4468
  153MOL0     C20545   4.739   0.053   3.263  0.1352 -0.1924  0.0743
  153MOL0     C20546   4.640  -0.029   3.283  0.0892 -0.1066  0.7173
  153MOL0     C20547   4.659  -0.133   3.371  0.4737  0.8422  0.1845
  153MOL0     C20548   4.779  -0.157   3.435 -1.6347  0.4426 -0.6639
  153MOL0     C20549   4.797  -0.277   3.523  0.3941 -1.1416 -0.7567
  153MOL0     O20550   4.908  -0.351   3.512  0.6574  0.3116  0.0014
  153MOL0     C20551   4.947  -0.471   3.575  0.8652 -0.3672 -0.2621
  153MOL0     C20552   4.856  -0.548   3.649  0.3948 -0.3545 -0.3284
  153MOL0     C20553   4.887  -0.658   3.722 -0.2658  0.5260  0.3946
  153MOL0     C20554   5.017  -0.712   3.698  0.5433  0.8692 -0.3420
  153MOL0     O20555   5.060  -0.832   3.755  0.3979 -0.6332 -0.0624
  153MOL0     C20556   4.962  -0.931   3.762  0.3040  0.8620  0.9133
  153MOL0     C20557   5.020  -1.073   3.725  1.6976  0.4544  0.7657
  153MOL0     C20558   5.145  -1.098   3.818  1.0490  0.6471  0.5442
  153MOL0     C20559   5.184  -1.249   3.793  0.0611  0.6376 -1.1278
  153MOL0     C20560   5.319  -1.283   3.873  0.8074 -0.2494  0.8261
  153MOL0     C20561   5.301  -1.285   4.026  0.9042  0.3774 -0.8461
  153MOL0     C20562   5.203  -1.393   4.074 -0.1798 -0.3125 -0.2269
  153MOL0     C20563   5.122  -1.351   4.189  0.5687 -0.5382 -0.7625
  153MOL0    Cl20564   5.018  -1.486   4.239  0.0013  0.3512  0.3261
  153MOL0     C20565   5.116  -0.629   3.640  0.1810 -0.1932 -0.0117
  153MOL0     C20566   5.074  -0.503   3.577  0.5948  0.1155 -0.5127
  153MOL0     O20567   4.711  -0.285   3.616  0.0802 -0.1531 -0.5159
  153MOL0     C20568   4.885  -0.079   3.415 -0.2158 -0.4192  0.6284
  153MOL0     C20569   4.856   0.036   3.334  0.1807  0.3955 -0.5719
  153MOL0     N20570   4.584   0.359   2.580  0.1858  0.3088 -0.2949
  153MOL0     N20571   4.517   0.365   2.473  0.5980 -0.4986 -0.2871
  153MOL0     C20572   3.507   0.523   2.004 -0.3021  0.3412  0.1237
  153MOL0     C20573   3.393   0.586   1.958  0.2709  0.4663  0.2098
  153MOL0     C20574   3.006   0.642   1.707 -0.4995  0.7088  0.2329
  153MOL0     C20575   2.914   0.702   1.788  0.0206 -0.1077 -0.8386
  153MOL0     C20576   2.809   0.787   1.741  0.9578  0.6263  0.4146
  153MOL0     C20577   2.794   0.812   1.607  0.3478  0.3401  0.0552
  153MOL0     O20578   2.707   0.904   1.553 -0.5167 -0.0300  0.5092
  153MOL0     C20579   2.629   0.982   1.639 -0.3897 -0.0183 -0.9012
  153MOL0     C20580   2.566   1.104   1.548 -0.4060  0.1017  0.1495
  153MOL0     C20581   2.486   1.049   1.432  0.2625  0.8752 -0.8808
  153MOL0     C20582   2.366   1.145   1.399 -0.4475 -0.7637 -0.6189
  153MOL0     C20583   2.273   1.083   1.299  0.2596  0.4309  0.1255
  153MOL0     C20584   2.185   1.037   1.229 -0.1151 -1.7125 -0.6737
  153MOL0     C20585   2.886   0.742   1.521 -0.6797  0.9257 -0.2289
  153MOL0     C20586   2.996   0.666   1.569 -0.7347 -0.5066  0.5065
  153MOL0     C20587   3.095   0.623   1.464 -0.8442  0.8485  0.5138
  153MOL0     H20588   3.403   0.436   1.651  3.3051 -0.4581  0.2906
  153MOL0     H20589   3.573   0.329   1.728 -1.3479 -0.7453 -0.5509
  153MOL0     H20590   3.759   0.506   2.110  1.5789  0.0724 -1.1197
  153MOL0     H20591   3.677   0.352   2.157 -2.3818  2.6151 -0.4467
  153MOL0     H20592   3.932   0.375   2.197 -1.4159 -0.7659  0.8026
  153MOL0     H20593   3.970   0.369   2.031  1.3074 -0.9248  1.4283
  153MOL0     H20594   3.841   0.163   2.003 -0.4687 -2.5556  0.8248
  153MOL0     H20595   3.841   0.135   2.181  0.0677 -2.5023 -1.5434
  153MOL0     H20596   4.035   0.021   2.050 -0.1373 -0.3204  0.6275
  153MOL0     H20597   4.070   0.173   1.986  0.0036  0.5331  1.0193
  153MOL0     H20598   4.149   0.267   2.208  0.3455 -0.3611  1.7757
  153MOL0     H20599   4.055   0.134   2.285 -0.5200 -2.0338 -0.0980
  153MOL0     H20600   4.202  -0.037   2.208  2.6781 -1.0553  0.1828
  153MOL0     H20601   4.281   0.072   2.095  0.3719  1.4859  0.3048
  153MOL0     H20602   4.402   0.009   2.332  0.7942  0.1600 -0.7117
  153MOL0     H20603   4.277   0.118   2.399 -2.2615  0.6248 -1.9457
  153MOL0     H20604   4.510   0.183   2.207 -0.2450  0.5653 -0.8457
  153MOL0     H20605   4.388   0.300   2.258  0.1565 -0.2431 -0.4439
  153MOL0     H20606   4.599   0.049   2.490  0.2747 -0.7928  2.2512
  153MOL0     H20607   4.789   0.094   2.654 -0.2604 -1.4107  2.8411
  153MOL0     H20608   4.808   0.251   2.715  0.6031 -0.3993  0.9691
  153MOL0     H20609   4.559   0.209   2.837 -0.3725 -1.1944  0.0921
  153MOL0     H20610   4.583   0.049   2.785 -0.6785  0.2089  2.2932
  153MOL0     H20611   4.811   0.193   2.946  1.1480 -0.5349 -0.0929
  153MOL0     H20612   4.750   0.025   2.956  1.5815  0.3704  0.7456
  153MOL0     H20613   4.559   0.130   3.083 -0.0641  1.9366  1.3850
  153MOL0     H20614   4.640   0.285   3.045  1.0381  0.4444 -0.6954
  153MOL0     H20615   4.540  -0.009   3.246 -0.2160 -3.2523 -0.5213
  153MOL0     H20616   4.571  -0.191   3.396  0.7547  1.1868  2.2037
  153MOL0     H20617   4.755  -0.508   3.652  0.4626 -0.2787  1.6201
  153MOL0     H20618   4.816  -0.699   3.792 -0.1039 -0.6164 -0.0925
  153MOL0     H20619   4.932  -0.936   3.867 -0.7578  2.3282  0.6901
  153MOL0     H20620   4.883  -0.908   3.691  1.1656  1.3590  0.0855
  153MOL0     H20621   4.944  -1.149   3.748  2.1213  0.0801  0.9483
  153MOL0     H20622   5.043  -1.070   3.618 -2.2792  2.5247 -0.2159
  153MOL0     H20623   5.227  -1.027   3.806  0.3123  1.7501  1.8335
  153MOL0     H20624   5.107  -1.088   3.920 -0.9368  2.9508 -0.3385
  153MOL0     H20625   5.194  -1.260   3.685 -2.9841 -1.7796 -1.3064
  153MOL0     H20626   5.108  -1.322   3.822  2.8130 -2.4756 -1.1147
  153MOL0     H20627   5.391  -1.206   3.845  0.6305 -0.3238  0.1452
  153MOL0     H20628   5.354  -1.380   3.836  0.3935 -0.7905  1.8316
  153MOL0     H20629   5.394  -1.295   4.082  0.7746  0.3478 -0.6343
  153MOL0     H20630   5.261  -1.189   4.061 -1.6485 -0.7857 -0.3342
  153MOL0     H20631   5.262  -1.478   4.109  0.1736 -0.5969 -1.4527
  153MOL0     H20632   5.155  -1.426   3.981 -0.6533  2.6614 -1.1504
  153MOL0     H20633   5.197  -1.319   4.262  2.5912 -2.2581 -2.0102
  153MOL0     H20634   5.047  -1.278   4.157 -0.2458 -2.0639 -2.5370
  153MOL0     H20635   5.216  -0.666   3.659  1.1432  2.5742  0.7496
  153MOL0     H20636   5.149  -0.448   3.521  0.6721 -0.5946 -1.1244
  153MOL0     H20637   4.979  -0.100   3.466 -0.1948 -1.1979  0.2855
  153MOL0     H20638   4.947   0.091   3.313  0.2185  0.4102 -0.3734
  153MOL0     H20639   3.540   0.545   2.105 -1.0965  0.2288  0.4175
  153MOL0     H20640   3.333   0.655   2.017 -0.9494  0.8356 -1.4102
  153MOL0     H20641   2.919   0.690   1.895 -0.1517  1.1074 -0.6814
  153MOL0     H20642   2.730   0.826   1.805  0.1956 -2.1081  1.2726
  153MOL0     H20643   2.687   1.021   1.723 -0.9769  0.3372 -0.6580
  153MOL0     H20644   2.541   0.933   1.680 -2.0415  4.0111  0.8794
  153MOL0     H20645   2.654   1.153   1.506 -1.9049  1.4161 -1.6075
  153MOL0     H20646   2.499   1.164   1.611 -3.6629 -1.8535 -1.1970
  153MOL0     H20647   2.444   0.952   1.459  0.6429  0.6476 -1.0958
  153MOL0     H20648   2.550   1.028   1.346 -1.2164 -3.3180 -1.1442
  153MOL0     H20649   2.315   1.173   1.492  2.8501 -1.2820  1.4806
  153MOL0     H20650   2.400   1.243   1.366 -0.7900 -0.5723 -0.4183
  153MOL0     H20651   2.097   1.010   1.173 -2.1070 -1.4206  2.1252
  153MOL0     H20652   2.880   0.763   1.415 -1.0211  1.9057 -0.0317
  153MOL0     H20653   3.148   0.709   1.422 -0.6590  1.9375  2.8447
  153MOL0     H20654   3.158   0.541   1.498 -4.1678 -1.5136  1.5371
  153MOL0     H20655   3.032   0.580   1.385 -1.4865  2.2090  0.2501
  154MOL0     O20656   9.536   3.848   4.588 -0.2047 -0.6694 -0.2446
  154MOL0     C20657   9.482   3.959   4.603 -0.4157  0.1164  0.3423
  154MOL0     O20658   9.542   4.081   4.577 -0.1794 -0.4964 -0.5768
  154MOL0     C20659   9.674   4.088   4.551  0.0663  0.2745  0.4839
  154MOL0     C20660   9.781   4.023   4.611 -0.4327 -0.4033  0.2741
  154MOL0     C20661   9.912   4.043   4.575 -0.2774  0.2599  0.2297
  154MOL0     C20662   9.940   4.140   4.472 -0.2471 -0.4877 -0.4092
  154MOL0     O20663  10.077   4.180   4.459 -0.1369  0.2778 -0.9781
  154MOL0     C20664  10.090   4.290   4.374 -0.0493 -0.8180 -0.1977
  154MOL0     C20665  10.244   4.300   4.353  1.0165  0.0085 -0.2370
  154MOL0     C20666  10.286   4.414   4.259 -0.3916 -0.3514 -0.3395
  154MOL0     C20667  10.439   4.414   4.238  0.2310  0.3636 -0.0037
  154MOL0     C20668  10.496   4.532   4.142  0.0021 -0.3751 -0.3041
  154MOL0     C20669  10.648   4.552   4.161 -0.0797 -0.5229  0.1469
  154MOL0     C20670  10.712   4.651   4.052  0.9675  0.9430 -0.8302
  154MOL0     C20671  10.706   4.608   3.898 -0.4031  0.4399  0.3569
  154MOL0     N20672  10.826   4.650   3.821  0.3392  0.1392  0.0203
  154MOL0     C20673  10.863   4.779   3.788  1.1944 -0.5889  0.6506
  154MOL0     C20674  10.990   4.770   3.755 -0.1963 -0.2501  0.6844
  154MOL0     C20675  11.071   4.898   3.749 -0.3195  0.8548  0.1761
  154MOL0     C20676  11.134   4.918   3.610  0.7719  1.4539  0.1687
  154MOL0     C20677  11.160   5.052   3.576  0.1033 -0.7513 -0.4746
  154MOL0     C20678  11.251   5.126   3.675 -0.8767 -0.3452 -0.0387
  154MOL0     O20679  11.385   5.069   3.672 -0.5693 -0.5879 -0.1359
  154MOL0     C20680  11.494   5.132   3.715  0.3882  0.0723 -0.2463
  154MOL0     C20681  11.612   5.088   3.664  0.8806  0.4312  0.5126
  154MOL0     C20682  11.732   5.143   3.709 -0.2332  0.0848 -0.0092
  154MOL0     C20683  11.733   5.253   3.800  0.3425 -0.1335  0.2939
  154MOL0     C20684  11.861   5.312   3.846  0.5308  0.1908  0.5038
  154MOL0     O20685  11.869   5.354   3.976  0.3698 -0.3618  0.6391
  154MOL0     C20686  11.991   5.399   4.011  0.7078  0.0188 -0.4117
  154MOL0     C20687  12.009   5.537   4.048  0.7754  0.0704  0.1404
  154MOL0     C20688  12.137   5.576   4.078  0.2343 -0.5021 -0.0876
  154MOL0     C20689  12.243   5.488   4.080 -0.2757  0.6360  0.4036
  154MOL0     O20690  12.367   5.535   4.099  0.1090 -0.1166 -0.0445
  154MOL0     C20691  12.473   5.474   4.180 -0.0570 -0.9693  0.2392
  154MOL0     C20692  12.552   5.598   4.236  0.1193  0.7415  0.2465
  154MOL0     C20693  12.654   5.543   4.343  0.4578 -0.0460 -0.5871
  154MOL0     C20694  12.768   5.643   4.373  0.4051  0.2255  0.6320
  154MOL0     C20695  12.792   5.646   4.520  0.2157  0.3483 -0.4342
  154MOL0     C20696  12.858   5.770   4.581 -0.1500  0.1975  0.1554
  154MOL0     C20697  12.926   5.726   4.716 -0.2904 -0.6865  0.3130
  154MOL0     C20698  12.947   5.856   4.797  0.6725  0.5908  0.1499
  154MOL0    Cl20699  13.039   5.825   4.939 -0.2385 -0.2381 -0.0679
  154MOL0     C20700  12.219   5.357   4.053  0.3169 -0.0716  0.5299
  154MOL0     C20701  12.094   5.307   4.016  0.3862 -0.9084  0.1509
  154MOL0     O20702  11.946   5.311   3.764 -0.7190 -0.5434  0.1725
  154MOL0     C20703  11.613   5.300   3.851  0.3409  0.3879  0.2474
  154MOL0     C20704  11.494   5.238   3.801 -0.5328 -1.1134 -0.2556
  154MOL0     N20705  11.033   4.641   3.766  0.0493 -0.6983  0.3746
  154MOL0     N20706  10.934   4.575   3.815 -0.1036 -0.1035 -0.0937
  154MOL0     C20707   9.833   4.190   4.396 -0.0315 -0.4355 -0.3913
  154MOL0     C20708   9.703   4.165   4.443  0.7653 -0.2401  0.0417
  154MOL0     C20709   9.335   3.972   4.643 -0.1173  0.7028  0.3353
  154MOL0     C20710   9.295   4.080   4.734  0.4792  0.6426 -0.0888
  154MOL0     C20711   9.164   4.107   4.753 -0.0282 -0.4450 -0.1198
  154MOL0     C20712   9.063   4.026   4.694  0.0457  0.5008  0.2016
  154MOL0     O20713   8.930   4.045   4.702 -0.2539 -0.5072  0.4998
  154MOL0     C20714   8.887   4.101   4.825  0.2215  0.4038  0.2709
  154MOL0     C20715   8.865   4.257   4.804  0.1598  0.0351 -0.4939
  154MOL0     C20716   8.808   4.349   4.920 -0.0485  0.1071  0.0060
  154MOL0     C20717   8.758   4.261   5.042 -0.8641 -0.0132  0.0738
  154MOL0     C20718   8.727   4.334   5.162 -0.3348  0.2868 -0.7990
  154MOL0     C20719   8.727   4.396   5.263 -0.0332 -1.4631 -0.8507
  154MOL0     C20720   9.105   3.925   4.605 -0.1403 -0.1266 -0.1833
  154MOL0     C20721   9.241   3.888   4.585  0.4012  0.0867 -0.3690
  154MOL0     C20722   9.262   3.774   4.492  0.5088 -0.5045 -0.4456
  154MOL0     H20723   9.762   3.946   4.685  0.7674 -0.6528  0.3525
  154MOL0     H20724   9.990   3.984   4.623  0.6975  0.8762 -0.5671
  154MOL0     H20725  10.056   4.277   4.271  1.4692 -2.4461 -0.5530
  154MOL0     H20726  10.040   4.378   4.414 -0.6741 -1.1746 -0.1831
  154MOL0     H20727  10.285   4.211   4.305  0.9036 -0.1028 -0.1271
  154MOL0     H20728  10.290   4.304   4.452  2.9859 -1.9151 -0.9991
  154MOL0     H20729  10.242   4.506   4.297  2.2496  1.1142 -0.6428
  154MOL0     H20730  10.238   4.388   4.164  1.2097  0.4628 -1.4178
  154MOL0     H20731  10.483   4.432   4.337 -1.1502 -2.2176  1.1586
  154MOL0     H20732  10.477   4.314   4.215 -0.2034 -0.0438  0.9960
  154MOL0     H20733  10.471   4.506   4.039  0.3950 -0.0666 -0.4818
  154MOL0     H20734  10.451   4.623   4.184 -0.1372  0.0097 -1.2760
  154MOL0     H20735  10.667   4.592   4.261  2.2931  3.4119 -1.6388
  154MOL0     H20736  10.688   4.452   4.145 -0.3211 -0.5676 -0.2024
  154MOL0     H20737  10.819   4.653   4.074  0.5216  0.8365  1.6598
  154MOL0     H20738  10.660   4.744   4.076 -1.7945 -0.5959 -0.3921
  154MOL0     H20739  10.711   4.499   3.901  0.0277  0.4722  1.3235
  154MOL0     H20740  10.612   4.642   3.852  0.6242 -1.0159 -3.1396
  154MOL0     H20741  10.812   4.872   3.811  2.9055  0.4569  0.3764
  154MOL0     H20742  11.007   4.979   3.787  2.9720  1.7198  4.8306
  154MOL0     H20743  11.155   4.883   3.817  0.0495  0.0197 -0.4480
  154MOL0     H20744  11.228   4.863   3.602  0.3167  0.6773  0.0492
  154MOL0     H20745  11.069   4.876   3.533  2.1035  3.4084 -2.1985
  154MOL0     H20746  11.067   5.104   3.550  0.3125 -0.9302 -1.6548
  154MOL0     H20747  11.213   5.050   3.480  0.9288 -0.6189 -0.0279
  154MOL0     H20748  11.202   5.127   3.773 -2.0172  2.3402 -0.5550
  154MOL0     H20749  11.251   5.230   3.641  0.0245 -0.0756  0.7472
  154MOL0     H20750  11.620   5.002   3.598  2.5152  0.6457  0.4063
  154MOL0     H20751  11.822   5.109   3.659  0.3081  2.7638 -1.0324
  154MOL0     H20752  11.923   5.603   4.049  0.4722 -0.2888  2.4163
  154MOL0     H20753  12.146   5.683   4.089 -1.5435 -0.4119  0.8166
  154MOL0     H20754  12.424   5.417   4.260  0.9131  0.8969  2.2727
  154MOL0     H20755  12.543   5.412   4.124  1.5886  0.2830  0.8372
  154MOL0     H20756  12.600   5.657   4.157  1.2971 -1.2966 -0.6683
  154MOL0     H20757  12.479   5.660   4.288  2.0480  0.2656  3.8508
  154MOL0     H20758  12.599   5.496   4.425  2.4693  0.8670  1.4185
  154MOL0     H20759  12.706   5.455   4.303 -1.4032 -0.1863 -2.9160
  154MOL0     H20760  12.736   5.745   4.349 -0.8328 -0.3900 -0.4773
  154MOL0     H20761  12.866   5.618   4.331  0.9143 -0.1021  1.9788
  154MOL0     H20762  12.855   5.561   4.551  0.0445  1.3075  2.8692
  154MOL0     H20763  12.701   5.625   4.577  1.1960 -2.4231  0.3073
  154MOL0     H20764  12.934   5.799   4.509  0.6816 -2.4279 -0.1020
  154MOL0     H20765  12.779   5.841   4.610  1.1792  3.2685 -2.9634
  154MOL0     H20766  13.021   5.677   4.692  1.5841  2.3982  0.9507
  154MOL0     H20767  12.868   5.652   4.773  1.3751 -1.1831  1.4190
  154MOL0     H20768  12.994   5.938   4.742  0.9063  1.4169  1.5235
  154MOL0     H20769  12.850   5.899   4.824  0.1399  2.2432 -3.7003
  154MOL0     H20770  12.300   5.288   4.032  0.8458  0.8660 -0.6646
  154MOL0     H20771  12.086   5.202   3.990  3.5642 -1.0299 -0.7226
  154MOL0     H20772  11.618   5.382   3.922  3.6771 -0.7198  1.4889
  154MOL0     H20773  11.395   5.273   3.831 -0.3615  0.5679 -1.5121
  154MOL0     H20774   9.858   4.245   4.305  3.6890  0.0210  0.7005
  154MOL0     H20775   9.622   4.222   4.401  1.3028 -0.5627 -1.5003
  154MOL0     H20776   9.374   4.139   4.778 -1.6457  4.5563 -1.1103
  154MOL0     H20777   9.129   4.196   4.804 -0.3956  0.4999 -1.9740
  154MOL0     H20778   8.959   4.091   4.906 -0.2760  0.4017  0.7155
  154MOL0     H20779   8.796   4.049   4.854  0.4882 -0.3424 -0.1699
  154MOL0     H20780   8.795   4.276   4.721  3.2725  2.1297 -2.8597
  154MOL0     H20781   8.963   4.298   4.779 -0.3859  2.6845  1.2879
  154MOL0     H20782   8.729   4.419   4.890 -0.3987 -1.3163 -2.6437
  154MOL0     H20783   8.887   4.416   4.955  1.1107 -1.1358 -0.1913
  154MOL0     H20784   8.670   4.207   5.007  0.5940 -1.8700 -0.9131
  154MOL0     H20785   8.837   4.195   5.078 -1.7495  0.8198  3.9410
  154MOL0     H20786   8.728   4.435   5.362  1.2881 -0.1942 -1.3224
  154MOL0     H20787   9.021   3.873   4.560 -2.2693  2.0497  1.0682
  154MOL0     H20788   9.166   3.737   4.454  0.6155 -1.2177 -0.0364
  154MOL0     H20789   9.333   3.797   4.412 -0.8922  0.2767 -1.5094
  154MOL0     H20790   9.304   3.693   4.552  0.4933  0.1922  0.5149
  155MOL0     O20791   5.673   3.920   5.029  0.4769  0.1537 -0.3985
  155MOL0     C20792   5.624   3.946   4.919  0.5123 -0.5382 -0.2912
  155MOL0     O20793   5.693   3.981   4.809  0.0500 -0.3508 -0.1660
  155MOL0     C20794   5.830   3.990   4.803 -0.4054  0.5046  0.9583
  155MOL0     C20795   5.916   4.012   4.906 -0.7870 -0.1215 -1.0241
  155MOL0     C20796   6.059   4.005   4.886  0.1172  0.0766  0.2360
  155MOL0     C20797   6.114   3.974   4.765 -0.2575 -0.0327 -0.0643
  155MOL0     O20798   6.250   3.975   4.733 -0.2172 -0.0866 -0.2645
  155MOL0     C20799   6.286   4.100   4.674  0.0154 -0.5458  0.1475
  155MOL0     C20800   6.429   4.092   4.638 -0.3675  0.0271 -0.5298
  155MOL0     C20801   6.472   4.220   4.561 -1.6078 -0.0438 -0.1023
  155MOL0     C20802   6.622   4.227   4.556 -0.1035  0.3228  0.8879
  155MOL0     C20803   6.675   4.346   4.463  0.0873  0.3168  0.2104
  155MOL0     C20804   6.810   4.305   4.403  0.0714 -0.1358 -0.0965
  155MOL0     C20805   6.892   4.409   4.331  0.1477 -0.3276 -1.2236
  155MOL0     C20806   6.836   4.443   4.202  0.6698 -0.1356  0.1311
  155MOL0     N20807   6.928   4.532   4.132  0.1779  0.1339 -0.9618
  155MOL0     C20808   6.941   4.526   3.996  1.0326 -0.1638  0.7012
  155MOL0     C20809   7.041   4.608   3.965  0.1694 -0.9973  0.0289
  155MOL0     C20810   7.099   4.641   3.827 -0.0044  0.3272 -0.0534
  155MOL0     C20811   7.250   4.697   3.829 -0.3945 -0.4447 -0.4545
  155MOL0     C20812   7.336   4.577   3.863  0.8172 -0.2569 -0.5871
  155MOL0     C20813   7.489   4.607   3.879 -0.0734  1.1692 -0.2089
  155MOL0     O20814   7.537   4.693   3.779 -0.3242 -0.4254 -0.2556
  155MOL0     C20815   7.658   4.741   3.811 -0.5149 -0.2526 -0.5095
  155MOL0     C20816   7.666   4.874   3.841  0.8512 -0.3232 -0.4067
  155MOL0     C20817   7.782   4.940   3.871  0.0272 -0.0469  0.5968
  155MOL0     C20818   7.901   4.862   3.880 -0.0979  0.7819 -0.7250
  155MOL0     C20819   8.042   4.909   3.913  0.5635 -0.1141  0.9686
  155MOL0     O20820   8.129   4.824   3.966  0.3275  0.6642 -0.2708
  155MOL0     C20821   8.259   4.850   3.980  0.0342  0.4181  0.2047
  155MOL0     C20822   8.341   4.743   3.956  0.0199  0.3370  0.2954
  155MOL0     C20823   8.480   4.753   3.991  0.8654 -0.0537 -0.8249
  155MOL0     C20824   8.533   4.881   4.018 -0.1548 -0.0976  0.3919
  155MOL0     O20825   8.673   4.888   4.025 -0.2875  0.0417  0.0392
  155MOL0     C20826   8.728   4.962   4.133  0.7507  0.2924  0.4388
  155MOL0     C20827   8.883   4.958   4.105 -0.6522 -0.9855  0.0414
  155MOL0     C20828   8.912   5.052   3.992 -0.7918 -0.6252  0.8728
  155MOL0     C20829   9.070   5.057   3.954  0.5730 -0.2286 -0.3558
  155MOL0     C20830   9.092   5.107   3.812  0.1440  0.4531  0.5938
  155MOL0     C20831   9.236   5.067   3.758  0.9102  0.8032  0.3121
  155MOL0     C20832   9.347   5.091   3.860  0.1447 -0.2030 -0.0347
  155MOL0     C20833   9.483   5.124   3.796  0.0024 -0.3284 -0.1047
  155MOL0    Cl20834   9.533   4.995   3.681  0.2893 -0.0060  0.6401
  155MOL0     C20835   8.451   4.993   4.027  1.3860  0.3729 -0.6192
  155MOL0     C20836   8.307   4.980   4.009 -0.1971  0.5567  0.1860
  155MOL0     O20837   8.064   5.020   3.872 -0.0269  0.3166  0.8779
  155MOL0     C20838   7.892   4.726   3.859 -0.2489 -0.1607  0.5248
  155MOL0     C20839   7.769   4.661   3.823 -0.0112  0.5301 -0.1025
  155MOL0     N20840   7.090   4.648   4.093 -0.6020  0.4738  0.1505
  155MOL0     N20841   7.025   4.606   4.192 -0.2354  0.1367 -0.6903
  155MOL0     C20842   6.031   3.955   4.657 -0.4281 -0.3527  0.3205
  155MOL0     C20843   5.894   3.957   4.681 -0.4694 -0.0813 -0.0679
  155MOL0     C20844   5.483   3.911   4.893 -0.2749 -0.7833 -0.7878
  155MOL0     C20845   5.451   3.784   4.837  0.1033 -0.4092 -0.1610
  155MOL0     C20846   5.319   3.751   4.805 -0.9531 -0.1357 -0.2489
  155MOL0     C20847   5.223   3.851   4.822  0.0908 -0.3259 -0.0779
  155MOL0     O20848   5.093   3.824   4.793  0.0089  0.5335  0.0781
  155MOL0     C20849   4.977   3.845   4.880  0.0282 -0.8360  0.7588
  155MOL0     C20850   4.860   3.893   4.800  0.2743  0.0160 -0.7476
  155MOL0     C20851   4.793   3.782   4.710 -0.0498  0.0467 -0.3108
  155MOL0     C20852   4.710   3.845   4.590 -0.4083 -0.4468  0.2856
  155MOL0     C20853   4.652   3.745   4.507  0.9314  1.1310 -0.8401
  155MOL0     C20854   4.589   3.655   4.442 -0.3788 -0.5228 -0.8802
  155MOL0     C20855   5.249   3.970   4.888  0.2520  0.6208  0.6226
  155MOL0     C20856   5.378   4.002   4.921 -1.1925  0.6200 -0.3221
  155MOL0     C20857   5.418   4.136   4.976  0.3390  0.2553 -0.7904
  155MOL0     H20858   5.869   4.054   4.994 -0.3449 -2.3772  0.3667
  155MOL0     H20859   6.121   4.032   4.971  1.0500  0.7628 -0.6408
  155MOL0     H20860   6.221   4.131   4.592  0.8323  0.7009 -0.0639
  155MOL0     H20861   6.283   4.180   4.749  0.1579 -1.4818  1.1727
  155MOL0     H20862   6.447   4.004   4.575 -0.9580 -1.3842  1.1882
  155MOL0     H20863   6.487   4.106   4.730 -2.3796  1.9926  0.5258
  155MOL0     H20864   6.445   4.307   4.622  0.7741  1.9449 -1.6912
  155MOL0     H20865   6.427   4.227   4.461 -3.9717  1.6294  0.9792
  155MOL0     H20866   6.668   4.239   4.655 -1.5437 -1.1209  1.7701
  155MOL0     H20867   6.648   4.128   4.517  0.1964 -0.1838  2.3061
  155MOL0     H20868   6.604   4.361   4.381  0.4187  2.3011  0.2324
  155MOL0     H20869   6.675   4.438   4.522 -0.4032  0.2347  0.3412
  155MOL0     H20870   6.865   4.283   4.495 -0.7352 -1.8145  0.0222
  155MOL0     H20871   6.797   4.213   4.346 -1.3946  0.7566 -1.2642
  155MOL0     H20872   6.997   4.378   4.328  0.6801  0.0400  3.8709
  155MOL0     H20873   6.884   4.491   4.403 -0.1611 -0.5686 -0.9788
  155MOL0     H20874   6.848   4.349   4.148  1.0017  0.4619 -0.8619
  155MOL0     H20875   6.728   4.460   4.207  0.4206 -1.8360  1.3122
  155MOL0     H20876   6.875   4.477   3.925  1.6640  0.1720 -0.1225
  155MOL0     H20877   7.085   4.552   3.765  1.9227 -0.3040  0.3448
  155MOL0     H20878   7.044   4.722   3.778 -0.6763 -1.0170 -1.6095
  155MOL0     H20879   7.269   4.723   3.725 -1.4278 -0.7200 -0.7325
  155MOL0     H20880   7.267   4.784   3.893 -2.8338  0.3011 -0.7099
  155MOL0     H20881   7.330   4.500   3.785 -0.9162 -0.5182 -0.2268
  155MOL0     H20882   7.299   4.522   3.950  2.0852 -0.5736 -0.2226
  155MOL0     H20883   7.547   4.514   3.889 -1.3803  0.3262 -0.3002
  155MOL0     H20884   7.495   4.662   3.974 -0.1579  0.4789  0.2098
  155MOL0     H20885   7.571   4.927   3.840  0.5023 -0.8679 -2.8277
  155MOL0     H20886   7.782   5.046   3.894 -3.1036 -0.0054  0.8344
  155MOL0     H20887   8.297   4.644   3.943  2.6739 -0.7517 -1.2545
  155MOL0     H20888   8.545   4.667   3.983  1.6776  0.5525 -0.9475
  155MOL0     H20889   8.687   5.063   4.142 -2.0831 -0.7895  0.5771
  155MOL0     H20890   8.688   4.901   4.214 -3.7654 -0.2081 -1.8969
  155MOL0     H20891   8.933   4.994   4.195  1.6841  1.4387 -2.0381
  155MOL0     H20892   8.926   4.860   4.082 -1.5906 -1.8796  1.9407
  155MOL0     H20893   8.856   5.009   3.908 -0.6729 -3.0420  1.9725
  155MOL0     H20894   8.879   5.156   4.004  2.9625  1.3637 -3.2012
  155MOL0     H20895   9.115   4.958   3.963 -1.2606 -1.1051 -0.3840
  155MOL0     H20896   9.117   5.134   4.016 -1.1060  1.3717 -0.9661
  155MOL0     H20897   9.078   5.216   3.814 -0.9169  0.3177  2.4447
  155MOL0     H20898   9.012   5.053   3.762 -0.2287 -0.1885  1.8488
  155MOL0     H20899   9.220   4.963   3.727 -2.5420  1.8639 -2.1883
  155MOL0     H20900   9.243   5.119   3.662 -4.3215  1.4447 -0.0097
  155MOL0     H20901   9.364   4.996   3.912 -1.4277  0.3214  1.5000
  155MOL0     H20902   9.313   5.170   3.927  1.2235 -1.0093  1.5080
  155MOL0     H20903   9.486   5.215   3.736 -0.0715  0.8415  1.6227
  155MOL0     H20904   9.545   5.144   3.883  1.7623 -0.5492 -1.2539
  155MOL0     H20905   8.499   5.089   4.043 -0.0284  0.7629  1.6152
  155MOL0     H20906   8.242   5.066   4.015 -2.6120 -1.0125 -1.5912
  155MOL0     H20907   7.981   4.667   3.879  1.1826  1.5043 -0.6831
  155MOL0     H20908   7.762   4.557   3.796  1.0376  0.0101  1.4641
  155MOL0     H20909   6.068   3.927   4.559  0.3299  3.2783 -0.5911
  155MOL0     H20910   5.832   3.928   4.597  3.1416  0.5363 -3.2495
  155MOL0     H20911   5.521   3.707   4.808  1.9028  2.3373 -4.0951
  155MOL0     H20912   5.293   3.653   4.768 -4.1931  0.6222 -0.2869
  155MOL0     H20913   5.000   3.919   4.958  0.6470  1.1434 -1.2202
  155MOL0     H20914   4.952   3.755   4.937  0.4720 -1.4461 -0.0077
  155MOL0     H20915   4.889   3.977   4.736 -0.0723 -0.6930 -1.8664
  155MOL0     H20916   4.782   3.919   4.872  0.7371 -0.8228  0.0802
  155MOL0     H20917   4.729   3.712   4.764  0.3926 -2.4535 -2.7869
  155MOL0     H20918   4.881   3.729   4.672  1.3604  0.8593  1.6334
  155MOL0     H20919   4.630   3.911   4.624  0.9376  2.0228 -1.0554
  155MOL0     H20920   4.779   3.907   4.533 -0.4506 -0.2258  0.4746
  155MOL0     H20921   4.551   3.566   4.398  0.4856 -2.1533  1.4619
  155MOL0     H20922   5.169   4.041   4.904 -0.9504 -0.7371  0.8581
  155MOL0     H20923   5.330   4.198   4.958 -0.3931 -0.5979 -0.2540
  155MOL0     H20924   5.436   4.116   5.082 -0.3337  1.1608 -0.4924
  155MOL0     H20925   5.512   4.174   4.935  1.5900  0.2217  1.8234
  156MOL0     O20926   8.889   6.170   9.388 -0.6969 -0.7510 -0.3670
  156MOL0     C20927   8.884   6.189   9.272  0.3542  0.2481  0.1656
  156MOL0     O20928   8.959   6.131   9.180  0.0067 -0.6258  0.6181
  156MOL0     C20929   9.039   6.026   9.218  0.4919 -0.2359  0.2721
  156MOL0     C20930   9.179   6.032   9.250 -0.0629  0.2872  0.1991
  156MOL0     C20931   9.255   5.913   9.271  0.4718 -1.2860 -0.2400
  156MOL0     C20932   9.194   5.789   9.267  0.3321  0.5664 -0.7910
  156MOL0     O20933   9.273   5.674   9.284 -0.1943  0.3322 -0.1498
  156MOL0     C20934   9.201   5.544   9.268 -0.9281  0.1082  0.3277
  156MOL0     C20935   9.296   5.420   9.273  0.0875  0.5200  0.7208
  156MOL0     C20936   9.359   5.402   9.409  0.8816  0.0751 -0.3897
  156MOL0     C20937   9.426   5.262   9.415  0.0879 -0.1571  0.7637
  156MOL0     C20938   9.486   5.222   9.552  0.2491 -0.5965 -0.4155
  156MOL0     C20939   9.590   5.324   9.600 -0.2071  0.0893 -0.5342
  156MOL0     C20940   9.659   5.270   9.730 -0.0244  0.0016 -0.7351
  156MOL0     C20941   9.592   5.306   9.867  0.3134 -0.4687  0.2187
  156MOL0     N20942   9.691   5.266   9.971  0.4577 -0.8516  0.3087
  156MOL0     C20943   9.751   5.146   9.973  0.7569 -0.3610  0.0200
  156MOL0     C20944   9.821   5.159  10.091 -0.8374  0.0586  0.8171
  156MOL0     C20945   9.903   5.053  10.163  0.3440 -0.5394  0.2804
  156MOL0     C20946   9.826   4.997  10.278 -0.0863  0.6661 -0.8831
  156MOL0     C20947   9.865   4.869  10.343 -1.1420  0.5667  0.2956
  156MOL0     C20948  10.013   4.866  10.375 -0.5646 -0.0826  0.0316
  156MOL0     O20949  10.035   4.739  10.432 -0.1238 -0.4399 -0.4853
  156MOL0     C20950  10.151   4.711  10.491 -0.7377 -0.3420  0.8284
  156MOL0     C20951  10.234   4.806  10.553  1.1623  0.2315 -0.4372
  156MOL0     C20952  10.348   4.760  10.622 -0.1365 -0.6223 -0.8088
  156MOL0     C20953  10.393   4.634  10.615  0.1043  0.5243 -0.8723
  156MOL0     C20954  10.510   4.588  10.697  0.4005 -0.4681  0.1231
  156MOL0     O20955  10.582   4.690  10.753  0.1375 -0.3558 -0.3693
  156MOL0     C20956  10.689   4.648  10.828  0.1063 -0.2836 -0.9686
  156MOL0     C20957  10.796   4.567  10.773 -0.4851 -0.5230 -0.3611
  156MOL0     C20958  10.912   4.538  10.855 -0.5209  0.2287  0.5822
  156MOL0     C20959  10.935   4.594  10.983 -0.0708  0.4033 -0.6883
  156MOL0     O20960  11.048   4.575  11.066  0.1126  0.1830  0.0526
  156MOL0     C20961  11.153   4.478  11.033  0.4226 -0.2685  0.2264
  156MOL0     C20962  11.181   4.377  11.146 -0.6217 -0.2686  0.8344
  156MOL0     C20963  11.234   4.451  11.269 -0.1886 -0.0515 -0.2697
  156MOL0     C20964  11.371   4.505  11.235 -0.5277  0.8518  0.4570
  156MOL0     C20965  11.447   4.560  11.346 -0.1800 -0.5110  0.0369
  156MOL0     C20966  11.516   4.462  11.442  0.4220  1.6952 -0.3535
  156MOL0     C20967  11.616   4.540  11.516  0.3040 -0.5400 -0.8215
  156MOL0     C20968  11.674   4.454  11.630 -0.0026 -0.1080  0.1906
  156MOL0    Cl20969  11.785   4.317  11.562 -0.0222  0.2106  0.3223
  156MOL0     C20970  10.830   4.672  11.033 -0.1738 -0.1682 -0.0929
  156MOL0     C20971  10.718   4.702  10.960 -0.1618  0.2163 -0.3577
  156MOL0     O20972  10.541   4.473  10.694 -0.2129 -0.7161 -1.0255
  156MOL0     C20973  10.320   4.542  10.539  0.1429  0.4140 -0.0881
  156MOL0     C20974  10.197   4.582  10.481 -0.5718 -0.2990  0.1783
  156MOL0     N20975   9.804   5.291  10.138  0.6112 -0.1610 -0.4634
  156MOL0     N20976   9.723   5.356  10.067 -0.1523 -1.0297  0.5753
  156MOL0     C20977   9.051   5.789   9.254 -0.8094  0.0722  0.3598
  156MOL0     C20978   8.976   5.898   9.225 -0.2888 -0.4657  0.5129
  156MOL0     C20979   8.797   6.305   9.228  0.2861 -0.1693  0.2845
  156MOL0     C20980   8.847   6.393   9.124 -0.7336 -0.4100 -0.1328
  156MOL0     C20981   8.772   6.500   9.078 -0.1521 -0.2740 -1.0595
  156MOL0     C20982   8.648   6.524   9.129 -0.0834 -0.4199 -0.2542
  156MOL0     O20983   8.565   6.623   9.088  0.5094  0.1966 -0.7389
  156MOL0     C20984   8.554   6.658   8.946  0.1703 -1.1436 -0.6375
  156MOL0     C20985   8.491   6.536   8.874  0.2376 -0.9057 -0.6718
  156MOL0     C20986   8.460   6.569   8.726 -0.0367  0.0912  0.4440
  156MOL0     C20987   8.417   6.445   8.639 -0.3340 -0.0712  0.1469
  156MOL0     C20988   8.290   6.373   8.675  0.9900  0.5222  0.2073
  156MOL0     C20989   8.188   6.321   8.723 -0.1452 -0.0563  0.3592
  156MOL0     C20990   8.591   6.435   9.222  0.3270  1.0572 -0.5784
  156MOL0     C20991   8.668   6.328   9.277 -0.1835  0.0920 -0.7003
  156MOL0     C20992   8.598   6.234   9.375  0.2785  0.0703  0.0882
  156MOL0     H20993   9.234   6.125   9.237 -2.6547  1.5573 -2.9993
  156MOL0     H20994   9.360   5.936   9.280 -0.2772  2.1202  1.7544
  156MOL0     H20995   9.125   5.541   9.346 -0.2089 -1.2937  1.0140
  156MOL0     H20996   9.156   5.543   9.168 -1.5577 -2.3235  0.5684
  156MOL0     H20997   9.365   5.430   9.189  0.4502 -2.0304  0.6435
  156MOL0     H20998   9.232   5.334   9.251 -1.1251  1.2026  1.4173
  156MOL0     H20999   9.284   5.391   9.488 -0.0198 -3.2462 -1.5102
  156MOL0     H21000   9.429   5.481   9.437  0.7284  0.0072  0.1987
  156MOL0     H21001   9.359   5.181   9.387 -0.0058  0.4152 -0.8123
  156MOL0     H21002   9.499   5.255   9.334  0.4662  0.4626  1.0412
  156MOL0     H21003   9.409   5.218   9.630 -0.1611 -2.0897 -0.8649
  156MOL0     H21004   9.520   5.118   9.547 -1.9791 -1.3286 -1.6514
  156MOL0     H21005   9.666   5.340   9.523  1.3791 -0.0347  0.9436
  156MOL0     H21006   9.550   5.424   9.617  1.7600  1.2994 -2.4364
  156MOL0     H21007   9.758   5.316   9.723  0.8849 -2.0951 -3.2978
  156MOL0     H21008   9.653   5.161   9.730 -0.5299  0.0267 -0.2871
  156MOL0     H21009   9.577   5.414   9.865  1.1655 -0.3367 -1.5055
  156MOL0     H21010   9.495   5.256   9.858  0.5200 -1.1186  1.4543
  156MOL0     H21011   9.728   5.053   9.921 -2.7249 -0.2926  1.1344
  156MOL0     H21012   9.920   4.967  10.098 -2.8384 -0.8942 -0.2300
  156MOL0     H21013   9.986   5.118  10.192 -0.4738  1.0282 -0.7572
  156MOL0     H21014   9.825   5.072  10.358  0.0406 -0.9210  0.6651
  156MOL0     H21015   9.721   4.979  10.254  0.0626  0.2353 -1.2334
  156MOL0     H21016   9.857   4.786  10.272  3.0201 -0.0244  0.2670
  156MOL0     H21017   9.809   4.851  10.435 -2.1265  0.0502 -0.3815
  156MOL0     H21018  10.039   4.947  10.443  0.5031  0.2508 -0.7427
  156MOL0     H21019  10.064   4.885  10.280  3.2280  0.5409  1.9835
  156MOL0     H21020  10.214   4.911  10.572  0.0427 -0.1080  0.3195
  156MOL0     H21021  10.404   4.834  10.678 -1.1348 -0.2731 -0.2510
  156MOL0     H21022  10.790   4.536  10.669 -0.0730  3.4800 -1.7568
  156MOL0     H21023  10.977   4.465  10.808  0.2624 -0.7176  2.9755
  156MOL0     H21024  11.125   4.428  10.939  1.0762 -0.2538  0.0165
  156MOL0     H21025  11.245   4.532  11.011  0.9717 -1.1284  0.3694
  156MOL0     H21026  11.084   4.339  11.178 -0.4079  0.0399  1.8944
  156MOL0     H21027  11.248   4.296  11.115  0.1308  0.6683 -0.0660
  156MOL0     H21028  11.167   4.532  11.298  1.8104  1.1832  1.0988
  156MOL0     H21029  11.235   4.382  11.354 -0.0294  0.0559 -0.1847
  156MOL0     H21030  11.370   4.583  11.159  1.7189  0.1960 -0.3211
  156MOL0     H21031  11.429   4.424  11.189 -2.2283 -1.2419  1.7872
  156MOL0     H21032  11.381   4.612  11.416 -1.2440 -3.4316  1.3587
  156MOL0     H21033  11.531   4.615  11.303 -0.2705  0.6626  1.3043
  156MOL0     H21034  11.444   4.415  11.509  2.1978  0.3106  0.6839
  156MOL0     H21035  11.557   4.377  11.386 -0.8130  0.1968  0.9436
  156MOL0     H21036  11.566   4.629  11.555  0.1952 -0.8195 -0.3179
  156MOL0     H21037  11.691   4.571  11.443  1.0495  1.0058  0.5259
  156MOL0     H21038  11.747   4.504  11.694  0.6517 -1.5177  0.5749
  156MOL0     H21039  11.582   4.427  11.684 -2.7364  2.4737 -2.7735
  156MOL0     H21040  10.853   4.719  11.128  1.2555 -0.1069 -0.4513
  156MOL0     H21041  10.651   4.778  10.997 -3.5390 -1.7734 -1.8368
  156MOL0     H21042  10.365   4.445  10.525  4.3233  2.2237 -0.8735
  156MOL0     H21043  10.146   4.505  10.425 -0.2762  0.9778 -1.9571
  156MOL0     H21044   8.999   5.694   9.255 -2.0481  0.7207  0.5924
  156MOL0     H21045   8.872   5.877   9.203  0.3296 -0.9395 -2.4057
  156MOL0     H21046   8.947   6.378   9.086  0.0056  4.3953 -0.6931
  156MOL0     H21047   8.820   6.569   9.010  1.4337 -0.5017 -0.2057
  156MOL0     H21048   8.647   6.692   8.901  1.6715  1.2565  3.6735
  156MOL0     H21049   8.479   6.738   8.950 -0.8452 -2.0045 -1.5819
  156MOL0     H21050   8.396   6.507   8.921 -0.4602  1.2104 -0.6974
  156MOL0     H21051   8.562   6.452   8.870  0.2866 -0.8122 -2.1623
  156MOL0     H21052   8.550   6.608   8.678  0.4602  1.6429  2.4661
  156MOL0     H21053   8.390   6.653   8.728 -0.3991 -0.2162  1.2073
  156MOL0     H21054   8.425   6.477   8.535  1.6236  0.3492  0.3767
  156MOL0     H21055   8.503   6.378   8.651  1.7818  2.3810 -0.3894
  156MOL0     H21056   8.101   6.262   8.742 -0.7655  1.0968  1.1723
  156MOL0     H21057   8.489   6.460   9.250  0.3324 -0.2667  0.7084
  156MOL0     H21058   8.493   6.261   9.370 -0.7073 -3.4147 -0.7228
  156MOL0     H21059   8.610   6.127   9.354  0.6810 -0.4666  2.7281
  156MOL0     H21060   8.639   6.238   9.476 -3.5557  3.3298  1.7737
  157MOL0     O21061   7.164   9.570   9.360  0.1365 -0.1528 -0.1137
  157MOL0     C21062   7.183   9.688   9.386  0.8043 -0.3167  0.4074
  157MOL0     O21063   7.096   9.789   9.352  0.1006  0.7233  0.2709
  157MOL0     C21064   6.988   9.762   9.264 -0.2638 -0.3678 -0.0132
  157MOL0     C21065   6.906   9.650   9.278 -0.1331 -0.1882 -0.4109
  157MOL0     C21066   6.801   9.626   9.191  0.1773 -0.2008  0.6332
  157MOL0     C21067   6.768   9.714   9.087  0.2464  0.8635 -0.3806
  157MOL0     O21068   6.668   9.707   8.997  0.2032 -0.0494 -0.2784
  157MOL0     C21069   6.585   9.589   9.014  0.4750 -0.5474  0.4165
  157MOL0     C21070   6.484   9.575   8.891 -0.0214  0.5895 -0.7943
  157MOL0     C21071   6.367   9.482   8.931  0.0424 -0.6114 -0.0636
  157MOL0     C21072   6.401   9.334   8.933  0.3787  0.7066 -0.3074
  157MOL0     C21073   6.431   9.280   8.791  0.5690 -1.1855 -0.1210
  157MOL0     C21074   6.469   9.121   8.779 -0.2477  0.0939 -0.5317
  157MOL0     C21075   6.352   9.037   8.810  0.3007  0.1376  0.0156
  157MOL0     C21076   6.257   9.037   8.695  0.0340  0.2876  0.4278
  157MOL0     N21077   6.242   8.913   8.610 -0.4020 -0.2659  0.5466
  157MOL0     C21078   6.344   8.839   8.561 -0.3407  0.5691 -0.0601
  157MOL0     C21079   6.287   8.745   8.481  0.0707  0.9367 -0.3724
  157MOL0     C21080   6.338   8.627   8.406  0.2179 -0.6273  0.1755
  157MOL0     C21081   6.382   8.518   8.498  0.1891 -0.2161  0.8499
  157MOL0     C21082   6.479   8.549   8.610 -0.4315  0.6793 -0.4376
  157MOL0     C21083   6.621   8.586   8.570  1.3659  0.3643 -0.7878
  157MOL0     O21084   6.618   8.704   8.491 -0.7444  0.3814 -0.0771
  157MOL0     C21085   6.738   8.771   8.503 -0.2232  0.5625 -0.9526
  157MOL0     C21086   6.852   8.718   8.454 -0.4652 -0.3040 -0.2389
  157MOL0     C21087   6.968   8.800   8.444  0.8573 -0.0879  0.4244
  157MOL0     C21088   6.980   8.924   8.516 -0.5003 -0.8579  0.6312
  157MOL0     C21089   7.109   8.995   8.495  0.3342 -0.3636 -0.3217
  157MOL0     O21090   7.123   9.101   8.577 -0.3713 -0.2212 -0.1687
  157MOL0     C21091   7.233   9.182   8.585 -0.8732 -0.0808  0.7632
  157MOL0     C21092   7.269   9.248   8.705 -0.5350  0.4169 -0.4126
  157MOL0     C21093   7.389   9.326   8.710  0.2301  0.4345 -0.0622
  157MOL0     C21094   7.470   9.348   8.604 -1.4305  0.3533  0.0829
  157MOL0     O21095   7.586   9.411   8.628 -0.3663  0.6123  0.1556
  157MOL0     C21096   7.673   9.453   8.513 -0.8604 -0.0322 -0.0216
  157MOL0     C21097   7.808   9.518   8.557  0.1949 -0.4972  0.4537
  157MOL0     C21098   7.781   9.663   8.617 -0.1251 -1.0746 -0.1607
  157MOL0     C21099   7.914   9.746   8.632  0.8259  0.4331 -0.3905
  157MOL0     C21100   7.886   9.893   8.627 -0.1889  0.5187 -0.6248
  157MOL0     C21101   7.843   9.961   8.752 -0.2009 -0.0016  0.8721
  157MOL0     C21102   7.876  10.106   8.761  0.0497 -0.8159 -0.4953
  157MOL0     C21103   7.834  10.167   8.892 -0.2725 -0.4051  0.8424
  157MOL0    Cl21104   7.894  10.341   8.895 -0.1154 -0.0466  0.5047
  157MOL0     C21105   7.433   9.291   8.484  0.0013  0.3296  0.0088
  157MOL0     C21106   7.318   9.210   8.474  0.5354  0.3179  0.3096
  157MOL0     O21107   7.195   8.949   8.421  0.3112 -0.4111  0.2208
  157MOL0     C21108   6.867   8.971   8.582  0.4173  0.7093 -0.6848
  157MOL0     C21109   6.748   8.900   8.558  0.7146 -0.2508 -0.8671
  157MOL0     N21110   6.151   8.757   8.502  0.0251  0.1095 -0.0658
  157MOL0     N21111   6.121   8.857   8.576 -0.5664  0.2295  0.6572
  157MOL0     C21112   6.852   9.830   9.074  1.1563 -0.3060 -1.0616
  157MOL0     C21113   6.963   9.845   9.159  1.8018  0.4296  0.0718
  157MOL0     C21114   7.313   9.724   9.453  0.4296 -0.1535  0.0126
  157MOL0     C21115   7.334   9.860   9.498  0.5375 -0.2051 -0.3541
  157MOL0     C21116   7.455   9.905   9.554  0.3338 -0.3698  0.3128
  157MOL0     C21117   7.562   9.814   9.577  0.2152 -0.3670 -0.0645
  157MOL0     O21118   7.676   9.871   9.626 -1.3297 -0.1429 -0.0165
  157MOL0     C21119   7.805   9.799   9.622 -0.8773 -0.8737  0.1071
  157MOL0     C21120   7.910   9.886   9.689 -1.0251  0.2928 -0.5634
  157MOL0     C21121   8.066   9.854   9.673  0.0873 -0.2844  0.5368
  157MOL0     C21122   8.116   9.946   9.557  0.7792  0.8250  0.4050
  157MOL0     C21123   8.237   9.887   9.499  0.1849 -0.5620 -0.3139
  157MOL0     C21124   8.330   9.819   9.462 -0.9513  0.2195 -0.4539
  157MOL0     C21125   7.550   9.679   9.535 -0.8437 -0.3228  0.1221
  157MOL0     C21126   7.432   9.638   9.471  0.1561 -1.1620  0.5995
  157MOL0     C21127   7.447   9.497   9.423  0.4471  1.1277  0.7355
  157MOL0     H21128   6.915   9.571   9.352  4.0371 -1.5403 -2.1032
  157MOL0     H21129   6.739   9.539   9.211  0.6490 -0.3335  1.5718
  157MOL0     H21130   6.652   9.503   9.009 -2.3873 -2.9798 -5.1350
  157MOL0     H21131   6.530   9.601   9.108  0.2411  1.1250  0.1094
  157MOL0     H21132   6.534   9.513   8.816 -0.7134 -1.0094  0.0115
  157MOL0     H21133   6.446   9.667   8.846  0.6096  0.5419 -1.4537
  157MOL0     H21134   6.282   9.488   8.863  0.9295 -0.0617 -1.1595
  157MOL0     H21135   6.324   9.513   9.027 -1.3745  0.7822 -1.1070
  157MOL0     H21136   6.480   9.316   9.007  0.2837  3.6796  0.6586
  157MOL0     H21137   6.321   9.275   8.979  1.8035 -1.8229 -0.8939
  157MOL0     H21138   6.344   9.309   8.731  0.0421  2.9103  2.2572
  157MOL0     H21139   6.516   9.333   8.749 -0.1838 -0.3423 -0.6056
  157MOL0     H21140   6.507   9.086   8.682 -2.3654  0.6513 -1.6234
  157MOL0     H21141   6.547   9.094   8.851  0.0314  1.4375 -0.2994
  157MOL0     H21142   6.303   9.071   8.902  2.9674 -2.0422  2.4692
  157MOL0     H21143   6.385   8.933   8.822 -4.3092 -1.3567  1.8968
  157MOL0     H21144   6.156   9.052   8.735  0.2971 -1.2620  1.7632
  157MOL0     H21145   6.285   9.116   8.624  0.1410  1.0048  1.2547
  157MOL0     H21146   6.450   8.858   8.576  0.1197 -0.9975 -1.0253
  157MOL0     H21147   6.261   8.595   8.336  0.5526  0.7850 -0.8878
  157MOL0     H21148   6.422   8.654   8.341 -0.3540 -2.6811 -1.5323
  157MOL0     H21149   6.295   8.482   8.554 -1.1711  0.8914 -0.4465
  157MOL0     H21150   6.419   8.438   8.434  3.3276  1.7871 -0.0467
  157MOL0     H21151   6.484   8.460   8.674 -2.3539  0.3423 -0.6787
  157MOL0     H21152   6.449   8.623   8.684  3.4720  1.8069  0.2087
  157MOL0     H21153   6.652   8.495   8.516 -1.3503 -1.9137  1.1952
  157MOL0     H21154   6.677   8.598   8.663 -1.7039 -1.5558  1.4755
  157MOL0     H21155   6.846   8.617   8.415 -0.5642  0.3316 -1.9566
  157MOL0     H21156   7.054   8.751   8.401 -0.7813 -4.0130  1.1630
  157MOL0     H21157   7.204   9.247   8.793  0.5926  1.5303  0.4725
  157MOL0     H21158   7.413   9.373   8.805 -1.4256 -1.0195  1.1308
  157MOL0     H21159   7.699   9.368   8.450  1.4662  0.4492  0.2166
  157MOL0     H21160   7.609   9.521   8.456  1.0876  3.7741  1.9264
  157MOL0     H21161   7.860   9.454   8.629  2.4510  2.3546  1.5609
  157MOL0     H21162   7.874   9.540   8.472 -0.0149  2.2961  0.9297
  157MOL0     H21163   7.717   9.724   8.551  0.2088 -0.4780  0.0527
  157MOL0     H21164   7.724   9.660   8.710  1.9719  2.4812  1.4279
  157MOL0     H21165   7.985   9.723   8.552 -1.0661 -3.6777 -1.1564
  157MOL0     H21166   7.953   9.726   8.733  0.8343  0.3018 -0.4194
  157MOL0     H21167   7.815   9.913   8.546 -0.2318 -0.5678 -0.8641
  157MOL0     H21168   7.984   9.932   8.596 -0.9811  2.8713 -0.3529
  157MOL0     H21169   7.734   9.955   8.764 -0.3969  2.1187  0.6543
  157MOL0     H21170   7.890   9.909   8.836  0.1480  1.2580  1.4762
  157MOL0     H21171   7.812  10.145   8.680  1.5582  1.3365 -0.7244
  157MOL0     H21172   7.981  10.133   8.746 -0.3315  1.0083 -0.1426
  157MOL0     H21173   7.726  10.166   8.905 -0.5375  0.6476 -0.9068
  157MOL0     H21174   7.872  10.112   8.978 -0.0661 -0.0679  0.9723
  157MOL0     H21175   7.495   9.296   8.396  0.3563 -1.3273  0.1288
  157MOL0     H21176   7.310   9.165   8.376  0.0115  0.4651  0.2783
  157MOL0     H21177   6.859   9.063   8.640  0.1332 -1.1373  2.4660
  157MOL0     H21178   6.657   8.941   8.599  1.8885  1.4369  0.1871
  157MOL0     H21179   6.837   9.903   8.995 -2.3733  2.3625  1.7342
  157MOL0     H21180   7.020   9.936   9.145  0.2436  1.2061 -1.6425
  157MOL0     H21181   7.261   9.940   9.494  2.5498  1.8439  1.2683
  157MOL0     H21182   7.474  10.009   9.575  2.2798 -0.8451  1.1418
  157MOL0     H21183   7.854   9.787   9.525  1.4273 -0.1274  1.0913
  157MOL0     H21184   7.789   9.701   9.667 -2.8945  0.1810  1.8688
  157MOL0     H21185   7.892   9.886   9.797  3.3481  1.8463  0.3597
  157MOL0     H21186   7.895   9.991   9.662  1.1013  1.4065  2.1708
  157MOL0     H21187   8.095   9.750   9.661 -2.4507 -1.1554  1.3467
  157MOL0     H21188   8.115   9.888   9.765  2.4781 -2.2890  0.1061
  157MOL0     H21189   8.046   9.955   9.473 -0.4039 -2.8818  0.7879
  157MOL0     H21190   8.134  10.049   9.587  1.5988  0.5426  0.9096
  157MOL0     H21191   8.418   9.777   9.419  0.5925  1.6545  1.1156
  157MOL0     H21192   7.631   9.606   9.541 -0.9420 -0.4256  0.2034
  157MOL0     H21193   7.497   9.433   9.496 -0.3048 -0.5058 -0.1462
  157MOL0     H21194   7.353   9.446   9.404  0.8857  0.8802 -0.9210
  157MOL0     H21195   7.505   9.508   9.331  1.6567 -0.0559  1.3159
  158MOL0     O21196   2.367   6.769   4.368 -0.4334 -0.1622 -0.3633
  158MOL0     C21197   2.312   6.710   4.458 -1.0737 -0.1628 -1.0081
  158MOL0     O21198   2.374   6.669   4.570  0.3884 -0.1027 -0.0803
  158MOL0     C21199   2.511   6.656   4.580  0.2899  0.2017  0.5724
  158MOL0     C21200   2.568   6.569   4.489 -0.1081  0.6101 -0.6565
  158MOL0     C21201   2.707   6.544   4.500 -0.3716 -0.5109  0.0390
  158MOL0     C21202   2.790   6.608   4.594  0.7027  0.4352  0.1111
  158MOL0     O21203   2.917   6.569   4.624  0.2480 -0.2368 -1.2039
  158MOL0     C21204   2.999   6.513   4.510 -0.7796  0.0921  0.0651
  158MOL0     C21205   3.153   6.563   4.516 -0.1463  0.6165 -0.1557
  158MOL0     C21206   3.156   6.717   4.488  0.3447  0.2428 -0.0555
  158MOL0     C21207   3.292   6.779   4.516 -0.6077  0.6023  0.8435
  158MOL0     C21208   3.391   6.787   4.392  0.0512 -0.2248 -0.1568
  158MOL0     C21209   3.471   6.665   4.373 -0.6141  0.6404 -0.2650
  158MOL0     C21210   3.598   6.669   4.458  0.0460  0.4290 -0.2704
  158MOL0     C21211   3.652   6.531   4.475  0.0384  0.1400 -0.1298
  158MOL0     N21212   3.773   6.533   4.546 -0.0294  0.4497 -0.3873
  158MOL0     C21213   3.898   6.572   4.512 -0.5001 -0.1306 -0.0410
  158MOL0     C21214   3.973   6.560   4.623  0.3264 -1.0488 -0.6846
  158MOL0     C21215   4.118   6.598   4.629 -0.5915 -0.1130 -0.1880
  158MOL0     C21216   4.154   6.721   4.544 -0.7887 -0.0950  0.6125
  158MOL0     C21217   4.289   6.764   4.581 -0.0370  0.0493  0.1452
  158MOL0     C21218   4.402   6.670   4.577 -0.4889  0.8821  0.0659
  158MOL0     O21219   4.417   6.610   4.442 -0.1732 -0.1124  0.0821
  158MOL0     C21220   4.521   6.657   4.370 -0.5426  0.2893 -0.4161
  158MOL0     C21221   4.505   6.713   4.238 -0.8221  0.4140 -0.6621
  158MOL0     C21222   4.608   6.766   4.169  0.0127 -0.1075  0.3234
  158MOL0     C21223   4.744   6.774   4.218 -0.8162  0.3220 -0.5741
  158MOL0     C21224   4.860   6.827   4.144  0.0798  0.3077  0.0591
  158MOL0     O21225   4.975   6.834   4.211  0.0949 -0.3184  0.1430
  158MOL0     C21226   5.082   6.891   4.142  0.1781  0.5527  0.3667
  158MOL0     C21227   5.145   6.997   4.209  0.0382 -0.0138 -0.0121
  158MOL0     C21228   5.251   7.076   4.160  0.2561  0.9589 -0.4532
  158MOL0     C21229   5.292   7.058   4.030  1.6057 -0.3133  0.8338
  158MOL0     O21230   5.396   7.131   3.973  0.3195 -0.6124  0.2315
  158MOL0     C21231   5.376   7.279   3.964  0.4737 -0.5866 -0.4350
  158MOL0     C21232   5.450   7.333   3.840  0.7502  0.0313 -0.5171
  158MOL0     C21233   5.436   7.242   3.716  0.3049  0.3904 -0.2204
  158MOL0     C21234   5.526   7.296   3.600 -0.8922 -0.3013 -0.6126
  158MOL0     C21235   5.499   7.232   3.471 -0.5507  0.2481  0.0198
  158MOL0     C21236   5.548   7.310   3.350 -1.1081  0.2485  0.6615
  158MOL0     C21237   5.442   7.399   3.284 -0.6144  0.4857  0.3244
  158MOL0     C21238   5.345   7.323   3.199  0.2237  0.1773  0.4988
  158MOL0    Cl21239   5.429   7.262   3.064  0.0166  0.3283 -0.5580
  158MOL0     C21240   5.222   6.952   3.952 -0.7627 -0.5324 -0.3626
  158MOL0     C21241   5.121   6.865   4.005 -0.5049 -0.7623 -0.2101
  158MOL0     O21242   4.846   6.860   4.024  1.0538  0.2494  0.0500
  158MOL0     C21243   4.758   6.729   4.353 -0.2156 -0.0177 -0.3847
  158MOL0     C21244   4.653   6.664   4.427  0.7600 -0.9836  0.5963
  158MOL0     N21245   3.894   6.523   4.731 -0.1840 -0.4675  0.1658
  158MOL0     N21246   3.776   6.514   4.682  0.4928  0.3057  0.8133
  158MOL0     C21247   2.720   6.702   4.680 -0.1862  0.1618  0.3437
  158MOL0     C21248   2.585   6.735   4.663 -0.7946 -0.5564  0.4365
  158MOL0     C21249   2.166   6.683   4.438  0.8966 -0.1133  0.4168
  158MOL0     C21250   2.104   6.590   4.529 -0.4797 -0.4230 -0.5194
  158MOL0     C21251   1.958   6.573   4.523 -0.1040 -0.4709 -0.0186
  158MOL0     C21252   1.882   6.636   4.425  0.9630 -0.7185 -0.2805
  158MOL0     O21253   1.744   6.621   4.403  0.5868 -0.4378  0.5054
  158MOL0     C21254   1.653   6.558   4.492  0.1970  0.3885  0.5462
  158MOL0     C21255   1.663   6.408   4.480 -0.0529  0.7511  0.1898
  158MOL0     C21256   1.619   6.341   4.618  0.0411 -0.1654 -0.2486
  158MOL0     C21257   1.714   6.360   4.745 -0.1335 -0.3741 -0.2660
  158MOL0     C21258   1.670   6.279   4.850 -0.4999 -0.1139 -0.2527
  158MOL0     C21259   1.654   6.195   4.930  1.4843  0.6106 -0.5639
  158MOL0     C21260   1.944   6.725   4.335  1.0195  0.2481 -0.1385
  158MOL0     C21261   2.076   6.754   4.344 -0.2477  0.8084  0.1070
  158MOL0     C21262   2.118   6.851   4.247 -0.1687 -0.1260  0.3243
  158MOL0     H21263   2.510   6.503   4.426 -1.9536  1.1539  0.3942
  158MOL0     H21264   2.756   6.472   4.435 -1.0718 -2.4937  1.5732
  158MOL0     H21265   2.990   6.405   4.518 -1.5178 -0.0696 -2.2065
  158MOL0     H21266   2.960   6.547   4.413  1.5952  0.4462 -0.8559
  158MOL0     H21267   3.206   6.495   4.449  2.6326 -0.0752  2.5199
  158MOL0     H21268   3.187   6.561   4.620  0.1983  1.6142 -0.2409
  158MOL0     H21269   3.074   6.760   4.545 -0.7909  0.7086 -1.9613
  158MOL0     H21270   3.128   6.722   4.382 -1.6546  0.3544  0.4456
  158MOL0     H21271   3.275   6.887   4.530  2.6821  0.9357  3.6319
  158MOL0     H21272   3.338   6.752   4.611 -1.5484  2.2136  1.8079
  158MOL0     H21273   3.338   6.810   4.299  0.1829 -0.7820 -0.3734
  158MOL0     H21274   3.453   6.874   4.418 -0.2374 -0.3845  1.1586
  158MOL0     H21275   3.402   6.585   4.403  1.3864 -0.7721  0.7687
  158MOL0     H21276   3.498   6.645   4.269  1.5177 -0.4189  0.4433
  158MOL0     H21277   3.582   6.721   4.553  3.6861  1.5894 -0.1373
  158MOL0     H21278   3.671   6.725   4.399 -3.3999  4.8453 -0.8678
  158MOL0     H21279   3.571   6.469   4.514  0.1407  0.4900  0.6549
  158MOL0     H21280   3.674   6.493   4.375  1.4353 -0.2615  0.3053
  158MOL0     H21281   3.935   6.589   4.411  1.5447 -0.2943  0.6524
  158MOL0     H21282   4.136   6.615   4.736  0.1104 -2.2866  0.1065
  158MOL0     H21283   4.173   6.508   4.597  2.8125  2.3257 -1.8630
  158MOL0     H21284   4.160   6.682   4.442  0.9090  3.1006 -0.6856
  158MOL0     H21285   4.078   6.799   4.536 -1.2355 -0.5871 -0.0939
  158MOL0     H21286   4.280   6.798   4.685 -2.0389  0.3849 -0.0810
  158MOL0     H21287   4.309   6.856   4.525 -2.7334  1.8804  1.9569
  158MOL0     H21288   4.403   6.598   4.659  3.5310 -0.7617 -1.1725
  158MOL0     H21289   4.495   6.719   4.607  2.5432 -4.5383  0.8407
  158MOL0     H21290   4.405   6.703   4.197 -0.7848  1.1075 -0.9310
  158MOL0     H21291   4.586   6.796   4.067 -0.8430 -1.7138  0.0030
  158MOL0     H21292   5.112   7.026   4.308  2.0612  1.1810  0.3617
  158MOL0     H21293   5.304   7.153   4.214 -0.5716  1.9174 -0.9745
  158MOL0     H21294   5.270   7.292   3.939  0.1534 -3.2064 -0.8117
  158MOL0     H21295   5.405   7.344   4.047  1.8414  0.2558 -1.5364
  158MOL0     H21296   5.406   7.433   3.835 -2.1133 -1.0478  1.2277
  158MOL0     H21297   5.556   7.340   3.866  1.3358 -1.8309 -2.1560
  158MOL0     H21298   5.463   7.138   3.733  0.7666  0.7250  1.2499
  158MOL0     H21299   5.332   7.239   3.682  0.1173  1.0696  0.2748
  158MOL0     H21300   5.633   7.281   3.621 -1.5359 -2.2171  1.7064
  158MOL0     H21301   5.515   7.405   3.601 -1.1051 -0.3048 -1.5460
  158MOL0     H21302   5.395   7.214   3.441  1.0057 -1.8011 -5.2338
  158MOL0     H21303   5.544   7.132   3.478  0.4410  0.7331  0.8425
  158MOL0     H21304   5.634   7.370   3.382 -0.3389 -0.9179  0.8574
  158MOL0     H21305   5.578   7.240   3.272  0.2717 -3.1334  3.9526
  158MOL0     H21306   5.489   7.474   3.220 -2.1608  0.4769 -0.8827
  158MOL0     H21307   5.378   7.446   3.359 -0.6794  0.9395 -0.0090
  158MOL0     H21308   5.301   7.245   3.262  0.7884  0.2162  0.9434
  158MOL0     H21309   5.260   7.382   3.163 -0.4599  1.1870  3.4833
  158MOL0     H21310   5.236   6.948   3.845  1.8469  3.1624 -0.3546
  158MOL0     H21311   5.079   6.792   3.936 -0.7748  1.3452 -2.4052
  158MOL0     H21312   4.852   6.736   4.407 -0.5837  0.9506  0.1521
  158MOL0     H21313   4.667   6.621   4.526  1.7783 -0.2716  0.7772
  158MOL0     H21314   2.780   6.757   4.752 -0.3047  0.7603 -0.0063
  158MOL0     H21315   2.524   6.809   4.714  0.0758  0.9259 -0.5904
  158MOL0     H21316   2.149   6.544   4.617 -3.1600 -0.8963  0.7234
  158MOL0     H21317   1.905   6.508   4.592 -0.3406  0.8716  1.1115
  158MOL0     H21318   1.549   6.585   4.472  0.7081  1.4216 -0.8388
  158MOL0     H21319   1.660   6.595   4.595  1.3875  2.4631 -0.2418
  158MOL0     H21320   1.766   6.377   4.458 -0.6269 -1.0248 -0.1603
  158MOL0     H21321   1.601   6.366   4.401 -1.0695  0.9061  0.8934
  158MOL0     H21322   1.612   6.233   4.603  4.4054 -0.8229  0.9677
  158MOL0     H21323   1.523   6.383   4.646 -1.3379 -1.5177 -2.6601
  158MOL0     H21324   1.814   6.325   4.719  0.0315 -0.5263  0.5422
  158MOL0     H21325   1.705   6.464   4.777  0.1473 -0.8930  1.6179
  158MOL0     H21326   1.645   6.111   4.996 -0.8949  2.5458  1.8238
  158MOL0     H21327   1.877   6.777   4.267 -0.0348 -1.0693 -0.1643
  158MOL0     H21328   2.168   6.799   4.165  1.2786 -0.5628  1.4558
  158MOL0     H21329   2.036   6.902   4.194 -0.9694 -0.9456  0.7450
  158MOL0     H21330   2.178   6.922   4.304  0.7815  0.5848 -1.4886
  159MOL0     O21331   6.912   0.173   4.795  0.1785 -0.3663  0.0044
  159MOL0     C21332   6.848   0.249   4.721  0.2510 -0.2015 -0.6389
  159MOL0     O21333   6.864   0.256   4.584  0.1426  0.1029 -0.1609
  159MOL0     C21334   6.942   0.157   4.522  0.5516  0.3455  0.6632
  159MOL0     C21335   7.081   0.163   4.527  0.0999  0.6905 -0.7368
  159MOL0     C21336   7.153   0.064   4.461 -1.0833  0.5954  0.3616
  159MOL0     C21337   7.080  -0.041   4.392  0.2004 -0.0555 -0.2945
  159MOL0     O21338   7.164  -0.144   4.350  0.2372 -0.6878 -0.5714
  159MOL0     C21339   7.119  -0.228   4.245 -0.2022  0.2316  0.1681
  159MOL0     C21340   7.255  -0.281   4.172  0.4657 -0.3681 -0.2790
  159MOL0     C21341   7.334  -0.163   4.105  0.2004  0.3315 -0.0573
  159MOL0     C21342   7.456  -0.128   4.197  0.7500 -0.2566  0.0690
  159MOL0     C21343   7.533  -0.011   4.133 -0.4125 -0.7381 -0.8516
  159MOL0     C21344   7.637   0.037   4.235  0.2760 -0.5667  0.6648
  159MOL0     C21345   7.737   0.129   4.164 -0.0451  0.6390  0.8641
  159MOL0     C21346   7.766   0.252   4.235  0.3638 -0.1710  0.4886
  159MOL0     N21347   7.887   0.325   4.186  0.5565  0.4843 -0.0074
  159MOL0     C21348   7.967   0.400   4.272 -0.0643 -0.4517 -0.6515
  159MOL0     C21349   8.081   0.434   4.202  0.2328 -0.2869 -0.0226
  159MOL0     C21350   8.203   0.498   4.254 -0.1348 -0.3844  0.4815
  159MOL0     C21351   8.172   0.620   4.348  0.5549  0.3340  0.2447
  159MOL0     C21352   8.290   0.705   4.388 -0.2993 -1.4774  0.0445
  159MOL0     C21353   8.422   0.619   4.416 -0.0683 -0.4027  0.7514
  159MOL0     O21354   8.538   0.702   4.415  0.8761  0.0588  0.0767
  159MOL0     C21355   8.652   0.632   4.451 -0.8690  0.7499 -0.7592
  159MOL0     C21356   8.763   0.650   4.368  0.9965 -0.6379 -0.2670
  159MOL0     C21357   8.894   0.591   4.388  0.7163 -0.1341  0.0120
  159MOL0     C21358   8.910   0.506   4.506  0.8217  0.1612  0.5133
  159MOL0     C21359   9.030   0.427   4.540  1.1567  0.1178  0.5544
  159MOL0     O21360   9.141   0.467   4.474  0.1172 -0.0742 -0.7834
  159MOL0     C21361   9.257   0.387   4.470  0.3787 -0.0432  1.2022
  159MOL0     C21362   9.310   0.296   4.568  0.1182 -0.1931  0.1230
  159MOL0     C21363   9.427   0.226   4.547 -0.3537  0.1454 -0.3768
  159MOL0     C21364   9.507   0.249   4.427  0.1461 -0.4535 -1.4117
  159MOL0     O21365   9.623   0.194   4.386  0.1822 -0.1620 -0.5337
  159MOL0     C21366   9.708   0.128   4.484 -0.7071 -0.5265 -0.9373
  159MOL0     C21367   9.857   0.100   4.437  1.0545  0.4876 -0.4163
  159MOL0     C21368   9.943   0.219   4.424 -0.3323  0.7296 -0.2932
  159MOL0     C21369  10.100   0.179   4.427  0.8183  0.2783  0.2483
  159MOL0     C21370  10.194   0.305   4.415 -0.0461  1.0415  0.3645
  159MOL0     C21371  10.340   0.253   4.433  0.9743 -0.2832 -0.5593
  159MOL0     C21372  10.422   0.376   4.462  0.3209 -0.0022 -0.1250
  159MOL0     C21373  10.560   0.331   4.472  0.5913  0.8312  0.2667
  159MOL0    Cl21374  10.665   0.475   4.467 -0.5385 -0.5787 -0.1640
  159MOL0     C21375   9.464   0.350   4.346  1.0102  0.0095  0.2256
  159MOL0     C21376   9.337   0.411   4.363  0.0595 -0.2701  0.0922
  159MOL0     O21377   9.026   0.355   4.639  0.5835  0.6644 -0.3708
  159MOL0     C21378   8.796   0.488   4.584 -0.7401 -0.7112 -0.4235
  159MOL0     C21379   8.674   0.549   4.558  0.6798  0.8508 -0.2072
  159MOL0     N21380   8.062   0.381   4.079 -0.2733  0.2623 -0.0045
  159MOL0     N21381   7.945   0.322   4.065  1.2945 -0.5119  0.2329
  159MOL0     C21382   6.935  -0.045   4.392  0.0889  0.6959  0.6165
  159MOL0     C21383   6.866   0.061   4.449 -0.2265  0.5608  0.0548
  159MOL0     C21384   6.756   0.346   4.799 -0.1194 -0.0536 -0.1770
  159MOL0     C21385   6.658   0.401   4.717  0.7511 -0.2365  0.3451
  159MOL0     C21386   6.567   0.493   4.770  0.1221 -0.3083  0.3269
  159MOL0     C21387   6.557   0.519   4.909 -0.3178 -0.3655  1.0326
  159MOL0     O21388   6.467   0.615   4.969 -0.0426  0.2995 -0.1297
  159MOL0     C21389   6.386   0.706   4.892  0.5468 -0.2571 -0.3241
  159MOL0     C21390   6.472   0.813   4.824  0.7688 -0.4600  0.1269
  159MOL0     C21391   6.391   0.933   4.780 -0.8813 -0.2371  0.0462
  159MOL0     C21392   6.330   0.913   4.635  0.3013 -1.1662 -1.3037
  159MOL0     C21393   6.205   0.835   4.640  0.4336  0.4335 -0.2626
  159MOL0     C21394   6.108   0.762   4.627 -0.5705  0.9063 -0.0816
  159MOL0     C21395   6.672   0.480   4.984 -0.4843 -0.0124  0.1531
  159MOL0     C21396   6.765   0.387   4.934  0.0170  0.1616  1.4934
  159MOL0     C21397   6.888   0.356   5.016 -0.5140  0.7494  0.2895
  159MOL0     H21398   7.127   0.241   4.587 -0.5182  0.8693 -0.4940
  159MOL0     H21399   7.260   0.045   4.457 -1.3169 -0.6518 -1.4657
  159MOL0     H21400   7.058  -0.311   4.282 -0.2434  0.3375  0.3381
  159MOL0     H21401   7.061  -0.163   4.179 -2.7307 -0.0556  1.9608
  159MOL0     H21402   7.237  -0.341   4.083 -1.1513  0.9046 -0.8438
  159MOL0     H21403   7.312  -0.331   4.251  0.7798 -0.1891 -0.3874
  159MOL0     H21404   7.258  -0.085   4.096 -0.4481 -0.2381  0.4717
  159MOL0     H21405   7.369  -0.199   4.007  2.7711  0.6622  0.6595
  159MOL0     H21406   7.418  -0.107   4.297  1.8786  2.4960  0.0046
  159MOL0     H21407   7.524  -0.212   4.207 -1.4014 -1.9566  1.2710
  159MOL0     H21408   7.576  -0.035   4.036  2.9222  0.4828  0.2057
  159MOL0     H21409   7.465   0.073   4.114 -0.2345 -0.6334 -1.0244
  159MOL0     H21410   7.584   0.074   4.323  1.1239 -2.4216  2.0097
  159MOL0     H21411   7.701  -0.047   4.264 -2.3375 -2.6790  0.6516
  159MOL0     H21412   7.697   0.162   4.067 -0.0400  1.6618  1.1939
  159MOL0     H21413   7.834   0.086   4.139 -0.6882  0.7184 -2.1310
  159MOL0     H21414   7.680   0.318   4.225  2.2294  2.0798 -1.8733
  159MOL0     H21415   7.779   0.223   4.340  0.4568 -0.4307  0.4060
  159MOL0     H21416   7.948   0.406   4.379 -1.5096  0.2639 -0.9356
  159MOL0     H21417   8.261   0.422   4.308  2.2321  0.4908 -0.6751
  159MOL0     H21418   8.269   0.532   4.174  2.5541  0.3542  2.8334
  159MOL0     H21419   8.096   0.685   4.305  0.4457 -1.0172 -1.7614
  159MOL0     H21420   8.127   0.576   4.437 -2.3196 -0.0829 -1.2899
  159MOL0     H21421   8.267   0.758   4.481  1.6208 -2.8880  1.4041
  159MOL0     H21422   8.320   0.772   4.306  3.9305 -3.1239  0.0189
  159MOL0     H21423   8.432   0.540   4.341  0.4791  0.9182 -0.6125
  159MOL0     H21424   8.405   0.575   4.515 -0.4134 -1.1074  0.3889
  159MOL0     H21425   8.748   0.719   4.286  0.7150 -1.2848 -0.7664
  159MOL0     H21426   8.977   0.612   4.322  0.9771 -0.0311  0.3760
  159MOL0     H21427   9.246   0.285   4.655  0.5918 -1.5010  0.3246
  159MOL0     H21428   9.449   0.153   4.625 -2.5481 -1.3138 -1.0603
  159MOL0     H21429   9.714   0.200   4.566  1.3382  0.1478 -1.6220
  159MOL0     H21430   9.674   0.029   4.518 -1.2641 -0.1339 -0.3274
  159MOL0     H21431   9.910   0.023   4.495 -1.5653  1.6643  4.0690
  159MOL0     H21432   9.843   0.055   4.339 -0.3849 -2.3306  0.9686
  159MOL0     H21433   9.916   0.253   4.323  1.0732  1.6639 -0.3858
  159MOL0     H21434   9.925   0.293   4.502  1.3019  4.4305 -3.1018
  159MOL0     H21435  10.117   0.114   4.340 -2.0689  0.4685 -0.5621
  159MOL0     H21436  10.126   0.121   4.516  0.3515 -1.5000 -0.7155
  159MOL0     H21437  10.160   0.367   4.498 -1.4251 -0.0698  0.6738
  159MOL0     H21438  10.181   0.353   4.318  1.1043 -3.3876 -2.2408
  159MOL0     H21439  10.350   0.181   4.515 -0.3380  0.1522  0.0092
  159MOL0     H21440  10.356   0.217   4.331  0.7128  0.7632 -0.9802
  159MOL0     H21441  10.385   0.429   4.550  1.5118 -1.7600  1.4972
  159MOL0     H21442  10.422   0.442   4.375  0.2762  1.6803  1.1020
  159MOL0     H21443  10.574   0.286   4.571 -1.7361  4.2150  2.3575
  159MOL0     H21444  10.586   0.269   4.385 -1.6665  1.2323 -0.7680
  159MOL0     H21445   9.521   0.372   4.256 -0.4162 -2.0891 -1.3009
  159MOL0     H21446   9.305   0.488   4.294 -2.7219  0.4693  2.0162
  159MOL0     H21447   8.794   0.434   4.678  0.0585  0.6405  0.3999
  159MOL0     H21448   8.606   0.528   4.639  2.7440 -3.3126  0.7218
  159MOL0     H21449   6.882  -0.133   4.359 -0.1386  1.5381 -1.4013
  159MOL0     H21450   6.758   0.073   4.452 -0.3902 -0.8876  1.1560
  159MOL0     H21451   6.659   0.380   4.610 -0.2103  0.6291  0.1497
  159MOL0     H21452   6.510   0.537   4.689  1.2387 -1.6802 -1.2789
  159MOL0     H21453   6.321   0.764   4.957 -1.6274 -0.0627 -2.5151
  159MOL0     H21454   6.318   0.657   4.822 -1.1629  0.2534  0.9445
  159MOL0     H21455   6.538   0.768   4.749 -1.4669 -3.0836 -0.4323
  159MOL0     H21456   6.537   0.845   4.907  1.7449 -2.9597  0.4281
  159MOL0     H21457   6.446   1.027   4.787 -1.6469  0.2942 -0.7539
  159MOL0     H21458   6.309   0.950   4.850  1.4304  0.3134  2.7820
  159MOL0     H21459   6.298   1.004   4.585  0.9537 -0.9937 -1.4206
  159MOL0     H21460   6.402   0.867   4.567 -0.1835 -0.9304 -1.9924
  159MOL0     H21461   6.022   0.703   4.603  0.0801 -0.2289  0.2750
  159MOL0     H21462   6.671   0.525   5.083  1.7341 -0.3860  0.3884
  159MOL0     H21463   6.972   0.399   4.960 -0.1917 -0.0567  0.1359
  159MOL0     H21464   6.881   0.409   5.111  0.2540  3.0417 -0.8323
  159MOL0     H21465   6.909   0.253   5.045  0.7778  0.4630 -1.4481
  160MOL0     O21466   4.285   5.600  11.073 -0.2932  0.2555  0.2600
  160MOL0     C21467   4.246   5.592  10.954  0.3752  0.1216  0.5437
  160MOL0     O21468   4.335   5.586  10.848 -0.3915 -0.5152  0.0469
  160MOL0     C21469   4.465   5.621  10.867  0.4514  0.0182 -0.4892
  160MOL0     C21470   4.507   5.742  10.909  0.6216 -0.1237 -0.1659
  160MOL0     C21471   4.645   5.764  10.923 -1.0805 -0.6842  0.0218
  160MOL0     C21472   4.743   5.665  10.896 -0.1640 -0.5598 -0.8951
  160MOL0     O21473   4.883   5.682  10.912 -0.1552  0.4437  0.1001
  160MOL0     C21474   4.939   5.814  10.917 -0.2224  0.4790  0.8865
  160MOL0     C21475   5.079   5.803  10.870  0.2946  0.4723 -0.5568
  160MOL0     C21476   5.148   5.948  10.874 -0.2286  0.3962 -0.4601
  160MOL0     C21477   5.303   5.940  10.871  0.7681  1.1005 -0.5459
  160MOL0     C21478   5.366   6.073  10.889 -0.3963 -0.7164  0.6956
  160MOL0     C21479   5.520   6.055  10.883  0.4138 -0.1011 -0.1464
  160MOL0     C21480   5.591   6.189  10.852 -0.3791  0.4697 -0.3839
  160MOL0     C21481   5.746   6.171  10.865  0.5486  0.1695  0.7921
  160MOL0     N21482   5.802   6.094  10.756  0.8485  0.3401 -0.0937
  160MOL0     C21483   5.777   6.104  10.628 -0.2200  0.3717 -0.1641
  160MOL0     C21484   5.819   5.988  10.574  0.4763  1.0511  0.2547
  160MOL0     C21485   5.816   5.960  10.426  0.2681 -0.5575  0.1423
  160MOL0     C21486   5.693   5.874  10.391 -0.3822  0.3623 -0.9721
  160MOL0     C21487   5.564   5.945  10.431  0.4470  0.2257  0.0976
  160MOL0     C21488   5.498   5.896  10.566  0.0666  0.4134  0.8004
  160MOL0     O21489   5.441   5.770  10.559 -0.2162  0.9448  0.4373
  160MOL0     C21490   5.303   5.768  10.524  0.4772  1.0309  0.3676
  160MOL0     C21491   5.236   5.640  10.537  0.4510 -0.0377 -0.3912
  160MOL0     C21492   5.096   5.637  10.533  0.1462 -0.0941  0.7865
  160MOL0     C21493   5.024   5.749  10.486 -0.4862  0.6817  0.6596
  160MOL0     C21494   4.883   5.740  10.462  0.5314  0.2898 -0.1046
  160MOL0     O21495   4.823   5.619  10.456  0.7565  0.6358  0.0349
  160MOL0     C21496   4.694   5.617  10.408 -0.4361  0.6129 -0.8457
  160MOL0     C21497   4.580   5.629  10.490  0.3693 -0.5064  0.0759
  160MOL0     C21498   4.447   5.614  10.450  0.5153 -0.0628 -0.1457
  160MOL0     C21499   4.428   5.579  10.319  0.0784  0.1489  0.1587
  160MOL0     O21500   4.300   5.567  10.268 -0.1733  0.5963 -0.2207
  160MOL0     C21501   4.237   5.449  10.313 -0.4203 -0.3188 -0.2364
  160MOL0     C21502   4.086   5.461  10.285  0.1388  0.6733 -0.2144
  160MOL0     C21503   4.011   5.569  10.371 -0.2444 -0.1511  0.0504
  160MOL0     C21504   3.865   5.548  10.342 -0.0901 -1.7116  0.6280
  160MOL0     C21505   3.795   5.422  10.392 -0.5545 -0.1604 -0.0264
  160MOL0     C21506   3.787   5.396  10.547 -0.4214 -0.7411  1.0603
  160MOL0     C21507   3.638   5.399  10.594  0.2272  0.3517  0.0135
  160MOL0     C21508   3.632   5.371  10.742 -0.5837 -0.5705 -0.0969
  160MOL0    Cl21509   3.471   5.416  10.808  0.2448 -0.2441 -0.3329
  160MOL0     C21510   4.541   5.561  10.235  0.2910  0.7369 -0.8987
  160MOL0     C21511   4.672   5.571  10.279  0.2155 -0.5206  1.0447
  160MOL0     O21512   4.821   5.845  10.448 -0.3637  0.0323 -0.8158
  160MOL0     C21513   5.091   5.873  10.468 -0.4692 -0.2803 -0.5029
  160MOL0     C21514   5.229   5.883  10.487 -0.1300 -0.1737  0.9743
  160MOL0     N21515   5.868   5.904  10.676 -0.5734  0.1308 -0.3904
  160MOL0     N21516   5.848   5.976  10.787  0.3055 -0.1744  0.0358
  160MOL0     C21517   4.697   5.541  10.870  0.9886 -0.3331 -0.0488
  160MOL0     C21518   4.559   5.515  10.843  0.6317 -0.1241 -0.1916
  160MOL0     C21519   4.097   5.599  10.936  0.2746  0.2240 -0.1233
  160MOL0     C21520   4.035   5.670  10.830 -0.5864 -1.1897  0.2355
  160MOL0     C21521   3.897   5.689  10.831  0.6891  1.0498  0.3546
  160MOL0     C21522   3.821   5.660  10.943 -0.0032 -0.1622 -0.2366
  160MOL0     O21523   3.696   5.709  10.943 -0.3458  0.3205 -1.0552
  160MOL0     C21524   3.608   5.680  11.050 -0.8838  0.2055  0.2927
  160MOL0     C21525   3.482   5.767  11.034  0.2913 -0.3187  0.0732
  160MOL0     C21526   3.365   5.726  11.127 -0.6498 -0.6209 -0.6628
  160MOL0     C21527   3.301   5.602  11.097  0.5355 -0.1148  0.3290
  160MOL0     C21528   3.194   5.612  10.991 -0.2988  0.0837 -0.3030
  160MOL0     C21529   3.122   5.596  10.901  0.2394  0.3501  0.1613
  160MOL0     C21530   3.872   5.569  11.041 -0.5950 -0.9193 -0.1096
  160MOL0     C21531   4.012   5.540  11.039  0.2131  0.4708 -0.6109
  160MOL0     C21532   4.046   5.433  11.147 -0.0518  0.0325 -0.2779
  160MOL0     H21533   4.446   5.830  10.925  0.3830 -0.7002  2.5406
  160MOL0     H21534   4.680   5.865  10.944 -0.5642 -0.7345 -0.5705
  160MOL0     H21535   4.882   5.886  10.858  2.3115  1.0319 -1.0536
  160MOL0     H21536   4.933   5.847  11.022 -0.7584  1.4515  0.5610
  160MOL0     H21537   5.085   5.765  10.767 -0.7709  1.4419 -0.9976
  160MOL0     H21538   5.136   5.732  10.930  0.0120  0.1940 -0.6175
  160MOL0     H21539   5.119   5.992  10.970 -1.4319 -1.7472  0.2184
  160MOL0     H21540   5.110   6.014  10.795  2.4452  1.5425 -0.8991
  160MOL0     H21541   5.343   5.866  10.941  0.8983  1.6675 -0.0089
  160MOL0     H21542   5.332   5.900  10.774  1.5032 -1.7257  0.7350
  160MOL0     H21543   5.333   6.137  10.807 -2.0638 -3.4771 -0.9503
  160MOL0     H21544   5.350   6.124  10.985  1.3244  1.4949 -0.1034
  160MOL0     H21545   5.546   6.024  10.984  2.5186  1.5610 -0.1157
  160MOL0     H21546   5.558   5.976  10.817 -0.8172 -2.8473  2.2214
  160MOL0     H21547   5.560   6.266  10.923 -0.9016  0.3804 -0.5108
  160MOL0     H21548   5.557   6.215  10.751 -0.9606 -1.7746 -0.8227
  160MOL0     H21549   5.798   6.267  10.854  0.4979  0.2837  1.4805
  160MOL0     H21550   5.766   6.134  10.966 -0.8835 -1.3496  0.5678
  160MOL0     H21551   5.725   6.194  10.595  2.0691  2.4807  1.6602
  160MOL0     H21552   5.812   6.048  10.362  2.7338 -0.3883  0.1276
  160MOL0     H21553   5.907   5.904  10.407  0.0349 -0.5373 -1.1049
  160MOL0     H21554   5.683   5.848  10.285 -0.0708  1.5298 -1.3084
  160MOL0     H21555   5.695   5.780  10.447 -2.4853  0.9557  0.2186
  160MOL0     H21556   5.489   5.930  10.353  0.2338  1.3527  0.0733
  160MOL0     H21557   5.577   6.053  10.431  0.0089  0.3081 -1.3176
  160MOL0     H21558   5.427   5.970  10.604 -3.1034 -0.2781 -3.1125
  160MOL0     H21559   5.580   5.891  10.638 -1.6830  1.6319  2.9998
  160MOL0     H21560   5.295   5.552  10.562  1.5221  0.7314 -0.1247
  160MOL0     H21561   5.047   5.542  10.553 -2.4329  0.9690 -0.0247
  160MOL0     H21562   4.584   5.656  10.596 -1.5568 -0.7174  0.2502
  160MOL0     H21563   4.365   5.608  10.520  1.2805 -0.0343  0.7681
  160MOL0     H21564   4.286   5.370  10.256  3.3090  0.1635  1.9560
  160MOL0     H21565   4.258   5.434  10.419  0.5229  0.3303 -0.3188
  160MOL0     H21566   4.069   5.469  10.177 -2.6871  0.2534  0.1256
  160MOL0     H21567   4.041   5.365  10.312 -1.3187  1.5500  0.6329
  160MOL0     H21568   4.046   5.561  10.475 -0.5913 -0.4052  0.1517
  160MOL0     H21569   4.028   5.672  10.340 -3.9888  1.0607  1.4953
  160MOL0     H21570   3.840   5.562  10.237 -3.3162  2.6614  1.7068
  160MOL0     H21571   3.827   5.635  10.396  0.4328 -0.5105 -0.8577
  160MOL0     H21572   3.843   5.334  10.347 -0.5539 -0.3719  0.3784
  160MOL0     H21573   3.692   5.428  10.357 -0.7824  3.1356  0.8593
  160MOL0     H21574   3.827   5.296  10.566 -0.8870 -1.3063 -0.7150
  160MOL0     H21575   3.850   5.468  10.599 -1.1032  1.3167 -0.8411
  160MOL0     H21576   3.570   5.330  10.545 -2.1054  1.3998  1.5926
  160MOL0     H21577   3.598   5.500  10.578 -0.6600 -0.0064 -0.0448
  160MOL0     H21578   3.656   5.266  10.762  2.1016  0.5314  3.8808
  160MOL0     H21579   3.708   5.429  10.796  0.1441  0.1678 -1.8320
  160MOL0     H21580   4.532   5.521  10.135  3.9862  2.4359 -2.0849
  160MOL0     H21581   4.759   5.557  10.216 -0.4114  0.1266 -0.0092
  160MOL0     H21582   5.024   5.955  10.445  1.4925  1.4100 -0.4646
  160MOL0     H21583   5.272   5.982  10.478  1.4364 -0.9955 -1.7616
  160MOL0     H21584   4.757   5.451  10.861  0.4016 -0.8683  1.1786
  160MOL0     H21585   4.522   5.417  10.817 -0.3266 -0.2519  1.4804
  160MOL0     H21586   4.090   5.696  10.740  2.5397 -1.8712  1.8444
  160MOL0     H21587   3.849   5.739  10.748  0.5945 -0.9967 -0.8723
  160MOL0     H21588   3.659   5.702  11.144 -0.9823  1.7291  0.0104
  160MOL0     H21589   3.580   5.574  11.041 -0.6780  0.0384  1.4059
  160MOL0     H21590   3.446   5.747  10.932  1.7686 -5.4044  0.2709
  160MOL0     H21591   3.509   5.871  11.055 -2.0497  0.1398  1.0785
  160MOL0     H21592   3.292   5.807  11.130  0.3870  0.3557  2.3721
  160MOL0     H21593   3.403   5.721  11.230 -2.3516  0.8531  0.0946
  160MOL0     H21594   3.377   5.535  11.056  3.1732  2.6158  0.3961
  160MOL0     H21595   3.261   5.552  11.185 -0.6569 -0.2162 -0.2520
  160MOL0     H21596   3.069   5.607  10.808  0.4926 -0.0714 -0.0339
  160MOL0     H21597   3.808   5.526  11.117 -1.8928 -0.6627 -1.0097
  160MOL0     H21598   4.047   5.471  11.249  0.2834  1.0140 -0.6328
  160MOL0     H21599   3.988   5.341  11.139 -1.3573  0.6501  1.5926
  160MOL0     H21600   4.146   5.400  11.116 -0.0074 -0.2373  0.1399
  161MOL0     O21601   9.573   0.234   3.702 -0.5677 -0.5520  0.3525
  161MOL0     C21602   9.666   0.312   3.730  0.7280 -1.1222 -0.0977
  161MOL0     O21603   9.763   0.282   3.822  0.0710 -0.5693  0.1762
  161MOL0     C21604   9.740   0.179   3.916 -0.3259  0.4285  0.9038
  161MOL0     C21605   9.822   0.065   3.912  0.2630 -0.4264 -0.4750
  161MOL0     C21606   9.808  -0.044   3.988 -1.3650 -0.3639 -0.3471
  161MOL0     C21607   9.693  -0.051   4.063 -0.5110 -0.6877 -0.3930
  161MOL0     O21608   9.674  -0.163   4.132  0.1810  0.1400  0.2200
  161MOL0     C21609   9.578  -0.160   4.245  0.1404 -0.3591 -0.3323
  161MOL0     C21610   9.605  -0.277   4.335  0.9867 -0.8211  0.2364
  161MOL0     C21611   9.752  -0.297   4.367 -1.0695  0.0696 -1.0246
  161MOL0     C21612   9.763  -0.335   4.519  0.1057  0.1936 -0.0961
  161MOL0     C21613   9.905  -0.387   4.561 -0.5614 -0.3852 -0.3545
  161MOL0     C21614   9.919  -0.536   4.514 -0.2533  0.6101 -0.0304
  161MOL0     C21615  10.037  -0.617   4.566  0.6792  0.4492  0.7682
  161MOL0     C21616  10.164  -0.550   4.535  0.3723 -0.2339  0.2949
  161MOL0     N21617  10.209  -0.541   4.396  0.6025  0.3656 -0.5308
  161MOL0     C21618  10.194  -0.654   4.317 -0.3129 -0.1631  0.3482
  161MOL0     C21619  10.160  -0.607   4.193  0.5912  0.3934  0.6411
  161MOL0     C21620  10.117  -0.689   4.075  0.9007  0.5003  0.5651
  161MOL0     C21621   9.971  -0.731   4.101  0.4741  0.0855  1.4138
  161MOL0     C21622   9.915  -0.794   3.975  0.1258  0.8873 -0.1993
  161MOL0     C21623   9.767  -0.828   3.996  0.1864  0.4784 -0.1474
  161MOL0     O21624   9.742  -0.904   4.123 -0.9389 -0.3367 -0.2862
  161MOL0     C21625   9.764  -1.040   4.133 -0.0630  1.3952  0.2838
  161MOL0     C21626   9.749  -1.081   4.263  0.7787 -0.4627 -0.0013
  161MOL0     C21627   9.736  -1.213   4.301  0.2485 -0.4184 -0.1157
  161MOL0     C21628   9.747  -1.314   4.201 -0.6868 -0.7547 -0.6414
  161MOL0     C21629   9.734  -1.459   4.238  0.0126 -0.3859 -0.0274
  161MOL0     O21630   9.727  -1.552   4.137 -0.1457 -0.0547 -0.2301
  161MOL0     C21631   9.693  -1.683   4.180 -0.9634 -1.2605 -0.3790
  161MOL0     C21632   9.563  -1.717   4.207  0.6243 -0.0472 -0.2869
  161MOL0     C21633   9.520  -1.834   4.261 -0.7368  0.8558 -0.1615
  161MOL0     C21634   9.614  -1.944   4.284 -0.1835 -0.2333 -0.1761
  161MOL0     O21635   9.591  -2.069   4.344 -0.4414 -0.6017  0.0674
  161MOL0     C21636   9.471  -2.081   4.422 -0.2288  0.4062  1.2137
  161MOL0     C21637   9.423  -2.230   4.443  0.1457 -0.5319  0.3589
  161MOL0     C21638   9.407  -2.301   4.307 -0.9929  0.2928 -0.2484
  161MOL0     C21639   9.321  -2.426   4.310  0.6840  0.2527 -0.8209
  161MOL0     C21640   9.175  -2.377   4.332  0.7531 -0.6792  0.0927
  161MOL0     C21641   9.083  -2.469   4.269  0.9664  0.1428  0.0199
  161MOL0     C21642   8.938  -2.418   4.273 -0.4707  1.3840 -0.1410
  161MOL0     C21643   8.855  -2.467   4.163  0.4696 -0.6962  0.0827
  161MOL0    Cl21644   8.900  -2.641   4.115  0.0192  0.2342 -0.7629
  161MOL0     C21645   9.749  -1.917   4.246 -0.4080  0.1891  0.3687
  161MOL0     C21646   9.785  -1.790   4.196 -0.9184  0.3436 -0.0059
  161MOL0     O21647   9.747  -1.486   4.355 -0.0941  0.1865 -0.3992
  161MOL0     C21648   9.768  -1.272   4.068  0.0550  0.4923 -0.6376
  161MOL0     C21649   9.778  -1.136   4.032  0.0420  0.0010  0.5872
  161MOL0     N21650  10.147  -0.474   4.194  0.2736  1.0910 -0.0215
  161MOL0     N21651  10.184  -0.434   4.315 -0.0729 -0.2100 -0.3497
  161MOL0     C21652   9.604   0.066   4.074  0.3424  0.1012  0.1878
  161MOL0     C21653   9.620   0.174   3.988  0.1837 -0.4378 -0.0546
  161MOL0     C21654   9.681   0.445   3.659 -0.1620 -0.6467 -0.3127
  161MOL0     C21655   9.799   0.512   3.698  0.3265  0.3423  0.2134
  161MOL0     C21656   9.841   0.626   3.629  0.6963 -0.4159 -0.1885
  161MOL0     C21657   9.759   0.685   3.537  0.6748 -0.1582 -0.0259
  161MOL0     O21658   9.826   0.798   3.489  0.2651  0.2376  0.2507
  161MOL0     C21659   9.775   0.842   3.365  0.0876  0.8159 -0.8191
  161MOL0     C21660   9.855   0.954   3.303 -0.1337  1.2547  0.7444
  161MOL0     C21661   9.895   1.065   3.396 -0.5364  0.6537 -1.0742
  161MOL0     C21662   9.775   1.171   3.401 -0.1729  0.7146  0.3587
  161MOL0     C21663   9.806   1.285   3.480 -0.4272  0.2169 -0.2714
  161MOL0     C21664   9.828   1.382   3.544  0.3055 -0.2640 -0.0915
  161MOL0     C21665   9.634   0.631   3.511 -0.3602 -0.7479 -0.3936
  161MOL0     C21666   9.589   0.511   3.574 -0.3519 -1.2193  0.7567
  161MOL0     C21667   9.459   0.456   3.539 -0.3193  0.6078 -0.6653
  161MOL0     H21668   9.906   0.080   3.844  0.3680  2.3735  0.1495
  161MOL0     H21669   9.892  -0.113   3.986 -0.3572  0.7357  1.4633
  161MOL0     H21670   9.598  -0.069   4.303 -0.3805  1.6231 -3.0592
  161MOL0     H21671   9.476  -0.174   4.208 -0.0576 -2.0947  0.7438
  161MOL0     H21672   9.559  -0.372   4.306 -1.0574 -0.2834  1.4858
  161MOL0     H21673   9.557  -0.248   4.429 -0.0407  0.5176 -0.6519
  161MOL0     H21674   9.819  -0.214   4.344  1.2465 -0.7895  1.9499
  161MOL0     H21675   9.789  -0.377   4.302  0.8470 -0.2603  0.3778
  161MOL0     H21676   9.751  -0.234   4.560  1.3396  1.3326 -2.3100
  161MOL0     H21677   9.682  -0.402   4.548 -0.6593  0.9241 -0.4831
  161MOL0     H21678   9.984  -0.327   4.514  0.7604 -1.1189  0.8508
  161MOL0     H21679   9.916  -0.394   4.670  3.0392  1.8508 -0.4062
  161MOL0     H21680   9.835  -0.599   4.546  0.7574 -0.9285 -0.2921
  161MOL0     H21681   9.928  -0.521   4.406  3.6205  1.6948  0.3072
  161MOL0     H21682  10.028  -0.715   4.519 -1.1553  0.8962  0.1293
  161MOL0     H21683  10.023  -0.639   4.672  1.7034 -0.0912  0.8020
  161MOL0     H21684  10.162  -0.448   4.576  2.6260  0.6465 -1.5548
  161MOL0     H21685  10.253  -0.587   4.588  0.4732 -1.2219 -0.5535
  161MOL0     H21686  10.186  -0.757   4.348  1.2736 -0.5324 -0.3610
  161MOL0     H21687  10.120  -0.636   3.980 -3.3389 -2.6702 -1.6740
  161MOL0     H21688  10.163  -0.788   4.064  1.2764  0.6477  0.8084
  161MOL0     H21689   9.965  -0.792   4.192 -3.1979  1.2993  2.1505
  161MOL0     H21690   9.909  -0.643   4.122 -0.9927 -0.7288  0.6901
  161MOL0     H21691   9.961  -0.891   3.957  1.0591  0.8404  2.1240
  161MOL0     H21692   9.929  -0.722   3.894 -0.7635  0.6688 -0.5682
  161MOL0     H21693   9.733  -0.874   3.903  0.5490  4.0224 -2.2027
  161MOL0     H21694   9.710  -0.735   4.007  1.5752  1.6185 -2.0307
  161MOL0     H21695   9.714  -1.004   4.330 -2.2665 -1.4240 -0.3498
  161MOL0     H21696   9.728  -1.224   4.409 -0.4676 -0.5970 -0.1769
  161MOL0     H21697   9.488  -1.643   4.184  1.5322  0.8447 -0.4761
  161MOL0     H21698   9.414  -1.858   4.269 -0.2325 -1.4312  0.4184
  161MOL0     H21699   9.484  -2.030   4.518 -0.8767  1.0089  0.9879
  161MOL0     H21700   9.389  -2.043   4.360 -0.8650 -2.4391  0.1583
  161MOL0     H21701   9.490  -2.285   4.510 -0.5394 -2.0597 -0.1593
  161MOL0     H21702   9.324  -2.242   4.489  1.2186 -2.1175  2.4385
  161MOL0     H21703   9.378  -2.224   4.235 -0.8521  1.5864  1.0176
  161MOL0     H21704   9.506  -2.332   4.272 -0.0763  1.3332  1.2928
  161MOL0     H21705   9.363  -2.492   4.387  0.4664 -0.3109 -1.1854
  161MOL0     H21706   9.336  -2.482   4.218  5.8505  1.9950 -1.3972
  161MOL0     H21707   9.167  -2.288   4.269  0.6244 -0.2951  0.6458
  161MOL0     H21708   9.155  -2.345   4.435 -1.3207 -2.3896  0.3029
  161MOL0     H21709   9.109  -2.472   4.163 -0.8074  3.4054 -0.6517
  161MOL0     H21710   9.080  -2.567   4.318 -2.4546  1.3892  2.7127
  161MOL0     H21711   8.937  -2.309   4.271 -4.4044  1.5523  1.6909
  161MOL0     H21712   8.893  -2.456   4.365  1.6180 -2.9744 -0.6314
  161MOL0     H21713   8.751  -2.477   4.198  1.2230 -2.9368  1.9314
  161MOL0     H21714   8.860  -2.400   4.076 -0.5321 -1.4113 -0.5580
  161MOL0     H21715   9.828  -1.988   4.266 -2.0651 -1.7016  0.4554
  161MOL0     H21716   9.889  -1.768   4.178 -1.0298 -0.5165 -2.0119
  161MOL0     H21717   9.785  -1.346   3.991 -0.0600  0.0171 -0.2171
  161MOL0     H21718   9.802  -1.111   3.929  0.5167 -0.0871  0.6741
  161MOL0     H21719   9.522   0.063   4.145  0.9619 -2.4847  0.8782
  161MOL0     H21720   9.540   0.246   3.973 -0.0171 -0.8250 -0.9011
  161MOL0     H21721   9.879   0.472   3.760  1.6430  1.5580 -0.6371
  161MOL0     H21722   9.938   0.667   3.655 -0.0965  2.8485 -1.8312
  161MOL0     H21723   9.681   0.887   3.397 -0.8622 -2.3488  1.3329
  161MOL0     H21724   9.764   0.764   3.289 -1.0935  0.9656 -0.8106
  161MOL0     H21725   9.804   0.987   3.212 -2.1462  0.6763  1.6091
  161MOL0     H21726   9.950   0.916   3.265 -1.0171 -0.0646 -0.2440
  161MOL0     H21727   9.976   1.127   3.356 -0.4858  0.9472 -0.5306
  161MOL0     H21728   9.934   1.022   3.488  1.0826 -0.2895 -2.1499
  161MOL0     H21729   9.739   1.190   3.299 -1.1961 -1.2017  0.3091
  161MOL0     H21730   9.699   1.116   3.456  1.5340 -3.3326 -0.8954
  161MOL0     H21731   9.849   1.463   3.611 -2.6103 -1.2045  2.1580
  161MOL0     H21732   9.572   0.696   3.451  1.4512  0.4321 -1.0836
  161MOL0     H21733   9.387   0.539   3.532  1.3585  2.3160  1.0355
  161MOL0     H21734   9.470   0.400   3.446 -0.3252  0.3977 -0.5384
  161MOL0     H21735   9.421   0.392   3.620  2.5082 -1.5961 -0.9392
  162MOL0     O21736   6.101   7.698   8.449  0.6017  0.2848 -0.2232
  162MOL0     C21737   6.044   7.741   8.343 -0.3475 -0.3838 -0.7637
  162MOL0     O21738   5.994   7.675   8.233 -0.2077  0.6539  0.2732
  162MOL0     C21739   6.025   7.540   8.220 -1.0375 -0.5696  1.9544
  162MOL0     C21740   6.153   7.493   8.176  1.2251 -0.2074 -0.0133
  162MOL0     C21741   6.166   7.356   8.155  0.1958  0.4342  0.0041
  162MOL0     C21742   6.066   7.266   8.168 -0.1643 -0.3752  0.2806
  162MOL0     O21743   6.096   7.134   8.152 -0.2940 -0.0048  0.3479
  162MOL0     C21744   5.997   7.043   8.106  0.4059 -0.5920 -0.3406
  162MOL0     C21745   6.055   6.906   8.089  0.5442  0.4913  0.0599
  162MOL0     C21746   5.969   6.807   8.001  0.0753 -0.6240  0.7388
  162MOL0     C21747   6.011   6.651   8.014 -0.2553 -0.3977  0.2731
  162MOL0     C21748   5.991   6.584   8.158 -0.7630 -0.1297 -0.4820
  162MOL0     C21749   5.845   6.566   8.215  0.2303 -0.2458 -0.8400
  162MOL0     C21750   5.787   6.692   8.267  0.4491  0.4467  0.2994
  162MOL0     C21751   5.781   6.683   8.424  0.3121 -1.0438 -0.6646
  162MOL0     N21752   5.757   6.827   8.483 -0.1584  0.3710  0.1480
  162MOL0     C21753   5.844   6.912   8.545  1.1604 -0.1741 -0.8847
  162MOL0     C21754   5.770   7.025   8.576 -0.4605  0.5531  0.1205
  162MOL0     C21755   5.831   7.149   8.645 -0.3987  0.1848 -0.1745
  162MOL0     C21756   5.973   7.189   8.586  0.6590  0.3761  1.2866
  162MOL0     C21757   6.004   7.331   8.624 -0.0066 -0.3565 -0.4883
  162MOL0     C21758   6.139   7.374   8.566  0.9517 -0.1191 -0.7149
  162MOL0     O21759   6.253   7.307   8.611  0.3604  0.0889 -0.2711
  162MOL0     C21760   6.381   7.318   8.567  0.3622 -0.4495  0.1500
  162MOL0     C21761   6.458   7.205   8.583 -0.2176  0.6383 -0.2997
  162MOL0     C21762   6.591   7.193   8.534 -0.6308  0.4575  0.8796
  162MOL0     C21763   6.639   7.307   8.467  0.0191  0.1978  0.6579
  162MOL0     C21764   6.772   7.314   8.412 -0.2788  0.8781  0.1422
  162MOL0     O21765   6.838   7.198   8.424 -0.7100 -0.8675  0.1810
  162MOL0     C21766   6.957   7.168   8.365  0.4644 -0.2027 -0.3190
  162MOL0     C21767   7.080   7.239   8.372  0.3587  0.4851 -0.8020
  162MOL0     C21768   7.186   7.187   8.299 -0.2804  0.2869  1.1629
  162MOL0     C21769   7.180   7.078   8.214  0.2256 -0.7263 -0.0460
  162MOL0     O21770   7.291   7.054   8.132 -0.3477  0.8514  0.1260
  162MOL0     C21771   7.296   6.943   8.040  0.5181  0.1342 -0.7225
  162MOL0     C21772   7.440   6.928   7.991 -0.0409 -0.3480  0.5074
  162MOL0     C21773   7.486   7.038   7.892  0.3410  0.3227 -0.4132
  162MOL0     C21774   7.526   6.973   7.758  0.4516  0.6369  0.7000
  162MOL0     C21775   7.558   7.077   7.655 -0.9495  0.1041 -0.8243
  162MOL0     C21776   7.610   6.999   7.534  0.2564  0.3594  0.3321
  162MOL0     C21777   7.645   7.098   7.423 -0.5819 -0.5403  0.3001
  162MOL0     C21778   7.527   7.190   7.392 -0.0260  0.1306 -0.2867
  162MOL0    Cl21779   7.535   7.294   7.230  0.0693  0.5911 -0.1167
  162MOL0     C21780   7.067   7.003   8.226  0.3058 -0.2422  0.4042
  162MOL0     C21781   6.955   7.046   8.295  0.1503  0.0715  0.1477
  162MOL0     O21782   6.817   7.414   8.355  0.9103 -0.6332 -0.3382
  162MOL0     C21783   6.565   7.425   8.458 -0.5422  0.3638  1.1695
  162MOL0     C21784   6.435   7.432   8.512  0.3696  0.2428 -0.1121
  162MOL0     N21785   5.659   7.020   8.511  0.1607 -0.6437  0.4178
  162MOL0     N21786   5.648   6.903   8.454 -0.0350 -0.4332  1.4536
  162MOL0     C21787   5.940   7.313   8.198  0.6888 -0.8979 -0.2033
  162MOL0     C21788   5.921   7.451   8.225  0.7758  0.9557  0.0770
  162MOL0     C21789   6.033   7.889   8.345 -0.7785  0.1876  0.4609
  162MOL0     C21790   6.011   7.945   8.214 -0.5999 -0.5140 -0.1640
  162MOL0     C21791   5.983   8.080   8.207  0.4513  0.2898 -0.4207
  162MOL0     C21792   6.005   8.167   8.321  0.1213 -0.4799 -0.8242
  162MOL0     O21793   6.013   8.308   8.318 -0.2359 -0.2604 -0.2362
  162MOL0     C21794   5.920   8.384   8.240  0.4915 -0.0708 -0.3618
  162MOL0     C21795   5.967   8.531   8.217  0.1584 -1.0430 -0.4006
  162MOL0     C21796   5.868   8.608   8.121 -0.1275  0.2207  0.4687
  162MOL0     C21797   5.930   8.737   8.092  0.1078  0.4930 -0.6671
  162MOL0     C21798   5.831   8.820   8.030 -0.3112 -0.6554 -0.2378
  162MOL0     C21799   5.739   8.892   7.983  0.2665  0.2048 -0.5893
  162MOL0     C21800   6.044   8.113   8.441 -0.0632 -0.2215 -0.1916
  162MOL0     C21801   6.042   7.975   8.460  0.3390  0.6456  1.1133
  162MOL0     C21802   6.048   7.928   8.609 -1.0868  0.5182  0.1517
  162MOL0     H21803   6.235   7.562   8.159 -1.0788  3.3618  2.1617
  162MOL0     H21804   6.262   7.320   8.120 -0.1931 -0.6881  0.0556
  162MOL0     H21805   5.910   7.044   8.172 -0.3229  1.0224 -1.2769
  162MOL0     H21806   5.958   7.081   8.011 -0.7691 -2.2277 -0.5405
  162MOL0     H21807   6.068   6.864   8.189 -6.3788  0.5183  1.4249
  162MOL0     H21808   6.152   6.907   8.038  1.1373 -1.7695  1.0496
  162MOL0     H21809   5.991   6.852   7.904  0.2912  1.4543  1.6963
  162MOL0     H21810   5.865   6.821   8.031 -0.1877 -1.0797  0.0566
  162MOL0     H21811   5.958   6.590   7.940 -3.9845 -0.6083  2.7995
  162MOL0     H21812   6.112   6.631   7.978  0.0977 -2.4058  2.1442
  162MOL0     H21813   6.037   6.485   8.151  2.3376  1.0162  1.4465
  162MOL0     H21814   6.062   6.627   8.229 -0.5228 -0.4046 -0.5518
  162MOL0     H21815   5.784   6.528   8.133 -0.6102 -2.3613  0.6812
  162MOL0     H21816   5.841   6.488   8.293  3.3508  1.9540  1.8179
  162MOL0     H21817   5.685   6.715   8.235 -0.4919 -0.4448  2.4668
  162MOL0     H21818   5.858   6.770   8.236  1.9196 -1.7523 -2.2631
  162MOL0     H21819   5.702   6.616   8.458  1.0885 -1.8213 -0.3766
  162MOL0     H21820   5.877   6.648   8.463  0.1344  0.6690  1.5227
  162MOL0     H21821   5.945   6.896   8.582  1.6497  2.5204 -0.8194
  162MOL0     H21822   5.754   7.226   8.633 -2.1610 -1.8486 -3.3256
  162MOL0     H21823   5.838   7.109   8.747 -1.7415 -4.4896 -1.6784
  162MOL0     H21824   6.042   7.122   8.637  1.1475  0.0189  0.1805
  162MOL0     H21825   5.985   7.166   8.480  1.7359 -2.5678  1.9496
  162MOL0     H21826   6.008   7.344   8.732 -2.2732  2.6822 -0.6580
  162MOL0     H21827   5.928   7.403   8.593  0.7324  0.5014 -0.3431
  162MOL0     H21828   6.153   7.480   8.584  1.6052 -0.0260 -1.6955
  162MOL0     H21829   6.137   7.366   8.456  1.6586  1.3092 -0.8519
  162MOL0     H21830   6.413   7.126   8.641 -0.0049  1.9781  1.7974
  162MOL0     H21831   6.645   7.100   8.545  1.8760  1.8273  0.7598
  162MOL0     H21832   7.096   7.327   8.433 -1.4695 -1.8910  3.4837
  162MOL0     H21833   7.283   7.236   8.298  1.5380 -2.6953  4.8729
  162MOL0     H21834   7.261   6.846   8.077  0.4279  0.3075 -0.3459
  162MOL0     H21835   7.217   6.959   7.967 -1.2999 -0.9008  0.9354
  162MOL0     H21836   7.508   6.935   8.077  2.4183 -3.6373 -0.9413
  162MOL0     H21837   7.453   6.828   7.949 -0.3709 -0.9179  1.7120
  162MOL0     H21838   7.410   7.115   7.878  2.2922  1.8867 -3.7448
  162MOL0     H21839   7.566   7.086   7.949 -0.9687  0.5421  1.3341
  162MOL0     H21840   7.439   6.921   7.716  0.7972 -0.5676  1.4477
  162MOL0     H21841   7.611   6.905   7.768 -0.6837 -0.8493  0.5887
  162MOL0     H21842   7.639   7.143   7.689 -0.9190 -0.9302  1.2305
  162MOL0     H21843   7.468   7.134   7.632  0.4911  2.2393 -1.5647
  162MOL0     H21844   7.689   6.927   7.554  1.4827  1.8177  0.8914
  162MOL0     H21845   7.522   6.944   7.498  1.2786 -0.9207 -0.3127
  162MOL0     H21846   7.662   7.044   7.329  2.0897  0.4162  0.1555
  162MOL0     H21847   7.739   7.150   7.443  0.5615 -3.0184  1.7067
  162MOL0     H21848   7.441   7.122   7.385 -1.4606  1.9694 -1.1845
  162MOL0     H21849   7.508   7.257   7.476 -0.2261  0.6376 -0.7318
  162MOL0     H21850   7.063   6.907   8.176  1.0668 -0.1048  0.0622
  162MOL0     H21851   6.863   6.989   8.296  1.3083 -2.1425 -3.0200
  162MOL0     H21852   6.601   7.521   8.423 -1.2979 -0.2460 -1.5058
  162MOL0     H21853   6.370   7.519   8.509 -2.2798 -1.6410 -1.7455
  162MOL0     H21854   5.858   7.243   8.212  0.4869 -0.3409  1.6357
  162MOL0     H21855   5.828   7.475   8.276  0.7521 -0.4421  0.7267
  162MOL0     H21856   6.009   7.882   8.126  1.2246 -3.6099  1.8254
  162MOL0     H21857   5.941   8.118   8.114 -1.6365  1.5960  0.9555
  162MOL0     H21858   5.819   8.377   8.280  0.3154  2.4636 -0.1956
  162MOL0     H21859   5.918   8.343   8.139 -2.0906  1.3915 -0.9875
  162MOL0     H21860   6.064   8.522   8.167 -0.0121 -3.5330 -0.3882
  162MOL0     H21861   5.974   8.586   8.311 -0.9529 -0.4813 -0.6231
  162MOL0     H21862   5.764   8.621   8.154 -0.0668 -1.4261  1.4130
  162MOL0     H21863   5.871   8.544   8.032 -2.5284 -0.9977  1.1700
  162MOL0     H21864   5.964   8.783   8.185  2.1105 -1.5584 -0.2878
  162MOL0     H21865   6.024   8.719   8.040  0.7726  0.1845  0.6031
  162MOL0     H21866   5.663   8.960   7.949 -0.9224  0.4026  2.2086
  162MOL0     H21867   6.067   8.172   8.529  0.6446  0.8734 -1.0943
  162MOL0     H21868   6.017   8.010   8.675 -0.3884  0.9473 -0.0402
  162MOL0     H21869   5.969   7.857   8.635 -1.0940  1.6390  3.7429
  162MOL0     H21870   6.147   7.888   8.632 -1.3870  0.1470  0.8153
  163MOL0     O21871   2.271  11.283   2.700 -0.6518  0.3120  0.2731
  163MOL0     C21872   2.201  11.180   2.713  0.0604 -0.0332  0.2620
  163MOL0     O21873   2.248  11.042   2.720 -0.5191 -0.9527  0.1884
  163MOL0     C21874   2.380  11.018   2.692 -0.5454  0.3839  0.0381
  163MOL0     C21875   2.435  11.050   2.569  0.4060 -0.9292  0.7279
  163MOL0     C21876   2.563  11.016   2.532 -0.3949  0.4217  0.1668
  163MOL0     C21877   2.650  10.958   2.629 -0.4380  0.3947  0.2802
  163MOL0     O21878   2.791  10.937   2.610  0.0153 -0.8403 -0.3095
  163MOL0     C21879   2.833  10.922   2.476  0.6009 -0.4778 -0.1398
  163MOL0     C21880   2.783  10.785   2.411 -0.7562 -0.7157 -0.5546
  163MOL0     C21881   2.821  10.663   2.481  0.1287  0.5860 -0.4334
  163MOL0     C21882   2.751  10.545   2.413 -0.5358 -0.2569  0.3836
  163MOL0     C21883   2.773  10.418   2.495  0.0506  0.4217  0.0956
  163MOL0     C21884   2.912  10.356   2.487 -0.2172  0.3443 -0.1710
  163MOL0     C21885   2.948  10.228   2.570  0.5871  0.6821  0.0654
  163MOL0     C21886   3.104  10.197   2.571  0.1779  0.3796 -0.3434
  163MOL0     N21887   3.128  10.079   2.656  0.4663 -0.0914  0.8766
  163MOL0     C21888   3.255  10.025   2.672  0.5463 -1.0169 -0.3540
  163MOL0     C21889   3.238   9.913   2.746  0.5795  0.5443 -0.0652
  163MOL0     C21890   3.342   9.837   2.824  0.8020  0.3483  0.4773
  163MOL0     C21891   3.384   9.710   2.762 -0.6004  0.5343  0.1990
  163MOL0     C21892   3.489   9.749   2.661 -0.2506 -0.3312 -0.1371
  163MOL0     C21893   3.638   9.734   2.707 -0.6344  0.3758  0.4730
  163MOL0     O21894   3.664   9.619   2.788 -0.4892 -0.5905 -0.4523
  163MOL0     C21895   3.761   9.631   2.887  0.6600 -1.0924 -0.2431
  163MOL0     C21896   3.854   9.743   2.898 -0.1375  0.0164  0.8184
  163MOL0     C21897   3.943   9.732   2.998 -0.9829  0.6510  0.4794
  163MOL0     C21898   3.965   9.612   3.076  0.2277 -0.5648  0.4012
  163MOL0     C21899   4.078   9.624   3.178  0.8741 -0.8362 -0.4047
  163MOL0     O21900   4.156   9.735   3.185  0.3075  0.3345 -0.3482
  163MOL0     C21901   4.239   9.736   3.294  0.1183 -0.0861  0.0208
  163MOL0     C21902   4.212   9.809   3.409 -1.2838 -0.4158  0.3833
  163MOL0     C21903   4.315   9.811   3.509 -0.2581  0.0214 -0.4412
  163MOL0     C21904   4.436   9.740   3.499 -0.1110 -0.2010 -0.2915
  163MOL0     O21905   4.535   9.766   3.592  0.2910  0.2724 -0.2777
  163MOL0     C21906   4.662   9.707   3.566 -0.1538  0.3699 -0.5582
  163MOL0     C21907   4.781   9.751   3.655  0.5599  0.4355  0.4393
  163MOL0     C21908   4.909   9.665   3.657 -0.2398 -1.5687  0.1486
  163MOL0     C21909   4.990   9.739   3.768  0.5561  0.5521 -0.1607
  163MOL0     C21910   5.120   9.675   3.761 -1.1909  0.3845  0.5134
  163MOL0     C21911   5.210   9.703   3.878 -0.6781 -0.4944  0.3967
  163MOL0     C21912   5.155   9.643   4.013  0.8116  0.2239 -0.6435
  163MOL0     C21913   5.248   9.549   4.093 -0.2016 -0.5370 -0.5297
  163MOL0    Cl21914   5.395   9.641   4.153 -0.0290  0.2667  0.0242
  163MOL0     C21915   4.450   9.663   3.386 -0.5451 -0.1292 -0.0629
  163MOL0     C21916   4.354   9.668   3.281 -0.2491 -0.7910 -0.5447
  163MOL0     O21917   4.074   9.533   3.256 -0.5355  0.7207  0.9098
  163MOL0     C21918   3.872   9.510   3.066 -0.2589  0.2361  0.1585
  163MOL0     C21919   3.767   9.520   2.972  0.6636 -0.1431 -1.0774
  163MOL0     N21920   3.096   9.901   2.755  0.1445  0.5845  0.8223
  163MOL0     N21921   3.030   9.992   2.699  0.1038  0.6778  0.6221
  163MOL0     C21922   2.600  10.925   2.757  0.5101  0.5309  0.1303
  163MOL0     C21923   2.461  10.951   2.787 -1.2004 -1.1580 -0.0263
  163MOL0     C21924   2.051  11.185   2.687 -0.5498 -0.6866 -0.0234
  163MOL0     C21925   1.986  11.062   2.654 -0.3686  0.0065  0.1589
  163MOL0     C21926   1.848  11.055   2.646 -1.1082  0.3544  0.2654
  163MOL0     C21927   1.769  11.164   2.655  0.3007  0.1118 -0.4850
  163MOL0     O21928   1.630  11.156   2.636  0.6300 -0.2419 -0.1802
  163MOL0     C21929   1.552  11.265   2.687  0.4884 -0.2723  0.6712
  163MOL0     C21930   1.404  11.222   2.674 -0.0456  0.3155 -0.4259
  163MOL0     C21931   1.380  11.248   2.526  0.3045 -0.1708 -0.7001
  163MOL0     C21932   1.243  11.224   2.468  0.8619  0.0616  0.2943
  163MOL0     C21933   1.212  11.076   2.455 -1.0321 -0.4184 -0.2321
  163MOL0     C21934   1.182  10.959   2.448 -0.0326 -0.3327 -0.0611
  163MOL0     C21935   1.831  11.282   2.693  0.5161 -0.4726  0.8929
  163MOL0     C21936   1.970  11.296   2.717  0.8911 -0.3839  0.5279
  163MOL0     C21937   2.014  11.426   2.783  0.2484 -0.3645  0.3515
  163MOL0     H21938   2.380  11.110   2.496 -0.7947 -1.3396  1.2754
  163MOL0     H21939   2.595  11.045   2.433  0.1129  2.5707  0.8924
  163MOL0     H21940   2.798  11.006   2.414 -1.0042 -0.2147  1.0790
  163MOL0     H21941   2.943  10.921   2.472  0.6401 -1.1657  0.7789
  163MOL0     H21942   2.832  10.789   2.313 -2.2555  0.2297 -1.3114
  163MOL0     H21943   2.677  10.788   2.386 -1.0257 -1.9548  0.3934
  163MOL0     H21944   2.784  10.653   2.583  0.0249 -2.1042 -0.6517
  163MOL0     H21945   2.929  10.646   2.471 -0.0534  0.3575 -2.5272
  163MOL0     H21946   2.644  10.565   2.407 -0.4657  0.2276  0.7131
  163MOL0     H21947   2.793  10.537   2.312  0.8713  3.6396  0.5116
  163MOL0     H21948   2.743  10.417   2.600 -0.0484  1.6763  0.1054
  163MOL0     H21949   2.708  10.339   2.456  3.2493 -2.8712  0.9201
  163MOL0     H21950   2.932  10.326   2.384  1.3306 -1.7352  0.6749
  163MOL0     H21951   2.986  10.427   2.525  0.4734  0.0642 -0.9715
  163MOL0     H21952   2.898  10.142   2.524  4.2032 -1.8951  0.5157
  163MOL0     H21953   2.912  10.233   2.673 -1.2537 -4.0220 -0.1042
  163MOL0     H21954   3.140  10.191   2.468  0.3128 -0.8641 -0.2477
  163MOL0     H21955   3.161  10.280   2.612  0.0700 -0.0569  0.7253
  163MOL0     H21956   3.352  10.057   2.635 -1.3444  2.8839 -2.4597
  163MOL0     H21957   3.435   9.893   2.837  0.1293  1.9282 -1.0868
  163MOL0     H21958   3.301   9.834   2.926 -2.0635  1.5770 -0.5290
  163MOL0     H21959   3.420   9.636   2.835  2.2356  0.7659 -0.8259
  163MOL0     H21960   3.297   9.671   2.710  1.2796 -0.2011 -2.6218
  163MOL0     H21961   3.470   9.844   2.611 -1.3925  1.1459  2.8971
  163MOL0     H21962   3.483   9.685   2.573 -1.2747 -0.0678 -0.2648
  163MOL0     H21963   3.656   9.830   2.755 -1.9874  1.2083 -0.6299
  163MOL0     H21964   3.694   9.719   2.614 -4.3592 -5.0804 -1.4209
  163MOL0     H21965   3.844   9.834   2.840  0.3305 -0.1775  0.4217
  163MOL0     H21966   3.991   9.828   3.014 -2.5509  1.1275  2.8556
  163MOL0     H21967   4.120   9.863   3.428  0.0166  1.5984  1.3192
  163MOL0     H21968   4.298   9.863   3.602 -1.8270 -2.3506  0.6997
  163MOL0     H21969   4.648   9.599   3.576 -2.1168  0.3621 -2.5734
  163MOL0     H21970   4.689   9.725   3.462  1.4227 -0.8656 -0.4025
  163MOL0     H21971   4.803   9.857   3.641  0.1192  0.5686  0.7608
  163MOL0     H21972   4.746   9.740   3.758 -0.6350 -0.0159 -0.0047
  163MOL0     H21973   4.880   9.560   3.667 -4.2791 -0.6444 -0.2463
  163MOL0     H21974   4.958   9.679   3.560 -0.7345  0.1057  0.1161
  163MOL0     H21975   4.942   9.729   3.866  0.1432  1.8088 -0.2227
  163MOL0     H21976   5.014   9.845   3.756 -0.3607  0.7813 -0.0773
  163MOL0     H21977   5.176   9.726   3.682 -0.7554  0.7301  1.0319
  163MOL0     H21978   5.114   9.569   3.735 -1.6822  1.2603 -3.5286
  163MOL0     H21979   5.315   9.677   3.863 -0.7089  0.2245 -1.3064
  163MOL0     H21980   5.211   9.811   3.896  1.3987 -0.5514  0.8865
  163MOL0     H21981   5.060   9.591   3.996 -0.5218  2.1736  0.5053
  163MOL0     H21982   5.123   9.735   4.064 -0.6552  0.3851 -1.7855
  163MOL0     H21983   5.197   9.513   4.184 -2.4823  0.1136 -1.4867
  163MOL0     H21984   5.283   9.461   4.039  0.0494  1.1883 -3.3810
  163MOL0     H21985   4.539   9.602   3.389  1.5608  2.7697  3.1450
  163MOL0     H21986   4.375   9.615   3.189  3.1026  3.1212 -2.3623
  163MOL0     H21987   3.875   9.426   3.134 -0.5163 -0.0284 -0.1527
  163MOL0     H21988   3.698   9.436   2.959  0.4530 -0.0937 -0.3281
  163MOL0     H21989   2.662  10.884   2.837 -1.5762 -2.4043  0.4117
  163MOL0     H21990   2.421  10.918   2.883  0.4175  1.3307  1.6387
  163MOL0     H21991   2.033  10.965   2.645  0.7925  0.4839  0.8550
  163MOL0     H21992   1.807  10.955   2.638  1.5208 -0.7438 -0.7607
  163MOL0     H21993   1.578  11.357   2.634 -0.3089 -1.5301 -2.0941
  163MOL0     H21994   1.559  11.284   2.795 -0.4039 -1.8788  1.0429
  163MOL0     H21995   1.332  11.284   2.727  1.6660  2.7920 -0.8541
  163MOL0     H21996   1.395  11.117   2.704 -0.5032  0.1951 -0.9631
  163MOL0     H21997   1.454  11.191   2.469  0.3670 -2.3562  1.4397
  163MOL0     H21998   1.406  11.354   2.513 -1.4195  0.2510 -1.0490
  163MOL0     H21999   1.163  11.274   2.524  2.8257  0.1475  3.3087
  163MOL0     H22000   1.251  11.259   2.365  1.0506 -1.5009 -0.2455
  163MOL0     H22001   1.158  10.856   2.431 -1.7668 -0.0907  0.7170
  163MOL0     H22002   1.774  11.374   2.704 -2.6738 -2.0034 -1.3806
  163MOL0     H22003   2.114  11.418   2.827  0.4491 -1.2602 -0.2401
  163MOL0     H22004   1.999  11.511   2.716 -2.6415 -2.3792 -1.7621
  163MOL0     H22005   1.937  11.431   2.861 -2.3652 -4.1982 -1.6911
  164MOL0     O22006   7.615   4.913   1.472 -0.3880 -0.4612 -0.2549
  164MOL0     C22007   7.571   5.006   1.401 -0.3229 -0.5330 -0.5578
  164MOL0     O22008   7.633   5.069   1.297  0.1863 -0.3307  0.7855
  164MOL0     C22009   7.768   5.050   1.277  0.5598  0.8819 -0.4404
  164MOL0     C22010   7.818   5.147   1.196 -0.1094 -0.2399  0.2098
  164MOL0     C22011   7.951   5.156   1.170 -1.1544  0.3297  0.0013
  164MOL0     C22012   8.043   5.062   1.221 -0.8474  0.2704  0.2912
  164MOL0     O22013   8.180   5.059   1.204  0.2588  0.2398 -0.0516
  164MOL0     C22014   8.246   5.148   1.108  0.1939  0.2337  0.1020
  164MOL0     C22015   8.389   5.166   1.163  0.2889 -0.7500 -0.2208
  164MOL0     C22016   8.463   5.297   1.140 -0.0620 -0.8606  0.0508
  164MOL0     C22017   8.603   5.275   1.184 -0.4729  0.0076 -0.1026
  164MOL0     C22018   8.677   5.402   1.156  0.4176 -0.5878 -0.3827
  164MOL0     C22019   8.832   5.383   1.158 -0.1040  0.3076 -1.1599
  164MOL0     C22020   8.892   5.412   1.294  0.3406  0.1786 -0.7066
  164MOL0     C22021   9.049   5.406   1.296  0.6576  0.0172  0.1201
  164MOL0     N22022   9.090   5.410   1.439  0.6044  0.2035 -0.1182
  164MOL0     C22023   9.100   5.539   1.503 -0.0953 -0.7116 -0.4117
  164MOL0     C22024   9.138   5.500   1.629  1.1006  0.2959 -0.3069
  164MOL0     C22025   9.151   5.584   1.748 -0.1278 -0.1345  0.2012
  164MOL0     C22026   9.040   5.679   1.784  0.1210 -0.4480 -0.3255
  164MOL0     C22027   9.082   5.804   1.866  0.0148 -0.1417  0.5032
  164MOL0     C22028   9.112   5.778   2.012  0.2863 -0.5770 -0.7177
  164MOL0     O22029   9.217   5.677   2.037  0.1317 -0.2488 -0.8580
  164MOL0     C22030   9.349   5.705   2.011  0.9008  0.2484 -0.5752
  164MOL0     C22031   9.394   5.823   1.953 -0.4927 -0.1756  0.2003
  164MOL0     C22032   9.528   5.839   1.921  0.5784 -0.7844 -0.3793
  164MOL0     C22033   9.617   5.737   1.946  0.0175 -0.6277 -0.5674
  164MOL0     C22034   9.761   5.762   1.911  0.3139 -0.2035  0.7315
  164MOL0     O22035   9.846   5.663   1.952  0.0405  0.2050  0.2695
  164MOL0     C22036   9.967   5.654   1.891 -0.2051 -0.0046  1.1705
  164MOL0     C22037  10.076   5.720   1.946  0.2804  0.3169 -0.5218
  164MOL0     C22038  10.208   5.700   1.890 -0.1896  0.8489  0.0699
  164MOL0     C22039  10.229   5.622   1.781 -0.5107  0.1340 -0.8174
  164MOL0     O22040  10.367   5.612   1.750 -0.4071  0.0140 -0.8361
  164MOL0     C22041  10.406   5.532   1.644 -1.5782  0.5659 -0.6416
  164MOL0     C22042  10.552   5.496   1.656  1.4423 -0.2022 -0.1721
  164MOL0     C22043  10.585   5.425   1.524  0.4826  0.6565 -0.6064
  164MOL0     C22044  10.741   5.406   1.507  0.9264  0.0618 -0.3723
  164MOL0     C22045  10.776   5.362   1.359  0.5218 -0.4116  0.8761
  164MOL0     C22046  10.927   5.329   1.347  0.2042 -0.2393  0.4121
  164MOL0     C22047  10.964   5.317   1.196 -0.5943 -1.0288 -1.5724
  164MOL0     C22048  11.117   5.371   1.176 -0.3586  0.6281  0.4689
  164MOL0    Cl22049  11.232   5.255   1.256  0.3412 -0.4367  0.3467
  164MOL0     C22050  10.117   5.562   1.721 -0.7194  0.4516 -0.4723
  164MOL0     C22051   9.982   5.577   1.773 -1.5464 -0.6213  0.2638
  164MOL0     O22052   9.801   5.870   1.855  0.2997  0.1388  0.1421
  164MOL0     C22053   9.566   5.611   1.984 -1.0854  0.9978 -0.0653
  164MOL0     C22054   9.433   5.593   2.016 -0.2385 -0.8234 -0.3915
  164MOL0     N22055   9.139   5.363   1.639 -0.2917 -0.2560  0.2001
  164MOL0     N22056   9.111   5.303   1.526 -0.0992  0.3907 -0.5276
  164MOL0     C22057   7.989   4.953   1.297  0.0798  0.2747 -0.0882
  164MOL0     C22058   7.853   4.948   1.331  0.1384 -0.3369 -0.5333
  164MOL0     C22059   7.435   5.047   1.422 -0.3212 -0.0652  0.0345
  164MOL0     C22060   7.364   5.073   1.307 -0.4874  1.1659 -0.2725
  164MOL0     C22061   7.235   5.122   1.314 -0.7648 -0.1465 -0.4015
  164MOL0     C22062   7.164   5.132   1.426  0.4483 -0.9007 -0.0502
  164MOL0     O22063   7.034   5.183   1.428 -0.0579  0.0809 -0.5227
  164MOL0     C22064   6.943   5.176   1.314 -0.0350 -1.0607  0.0250
  164MOL0     C22065   6.889   5.042   1.268 -0.0888  0.3642  0.0766
  164MOL0     C22066   6.831   4.969   1.387  0.1141 -0.1885 -0.3465
  164MOL0     C22067   6.780   4.819   1.371 -0.7158  0.3916  0.1438
  164MOL0     C22068   6.682   4.823   1.260  0.6774 -0.5778 -0.7369
  164MOL0     C22069   6.593   4.821   1.171 -0.2940  0.4726 -0.7038
  164MOL0     C22070   7.224   5.090   1.542  0.2914 -0.1050 -0.0233
  164MOL0     C22071   7.364   5.052   1.545  0.2140  0.4670  0.2315
  164MOL0     C22072   7.436   5.021   1.668  0.3961  0.1062  0.0684
  164MOL0     H22073   7.755   5.224   1.152  0.4446 -0.7465 -1.5503
  164MOL0     H22074   7.981   5.220   1.087  1.9439 -1.4714 -0.4348
  164MOL0     H22075   8.253   5.128   1.001  4.7397  1.0664  0.0356
  164MOL0     H22076   8.195   5.243   1.123 -4.8612 -1.8421 -1.6902
  164MOL0     H22077   8.453   5.086   1.125  0.7703 -0.3995 -0.1469
  164MOL0     H22078   8.376   5.152   1.271 -2.1017  1.0436 -0.1910
  164MOL0     H22079   8.413   5.379   1.193  0.6995 -0.7840  0.6725
  164MOL0     H22080   8.450   5.312   1.033 -1.1441 -1.0043  0.1436
  164MOL0     H22081   8.614   5.257   1.292  0.3539 -1.6088 -0.4139
  164MOL0     H22082   8.651   5.194   1.128 -0.7743 -1.5279  1.7446
  164MOL0     H22083   8.659   5.429   1.052 -2.2828  0.3201  0.2631
  164MOL0     H22084   8.640   5.470   1.233  0.6027 -0.8274 -0.0790
  164MOL0     H22085   8.868   5.281   1.143  1.6655  0.7187 -0.0481
  164MOL0     H22086   8.878   5.444   1.080  2.1736 -1.4613 -1.3145
  164MOL0     H22087   8.866   5.338   1.371  2.1613  0.9789  0.7696
  164MOL0     H22088   8.856   5.506   1.335 -2.1218 -0.3386 -1.5242
  164MOL0     H22089   9.085   5.312   1.253 -1.2545 -1.3823  1.4155
  164MOL0     H22090   9.090   5.486   1.235  0.8344  0.2814  0.5789
  164MOL0     H22091   9.087   5.639   1.464  1.6596 -0.3992 -0.2757
  164MOL0     H22092   9.176   5.514   1.829 -0.6330 -1.8553 -1.0838
  164MOL0     H22093   9.239   5.649   1.740 -0.3109 -0.0693 -1.5343
  164MOL0     H22094   8.999   5.711   1.688 -1.0174  1.9819  0.8831
  164MOL0     H22095   8.965   5.634   1.851 -1.0402 -1.7991 -2.4211
  164MOL0     H22096   8.997   5.874   1.869 -0.2883 -0.4634 -0.3034
  164MOL0     H22097   9.160   5.861   1.814 -0.3768  1.4320  1.5512
  164MOL0     H22098   9.022   5.732   2.053 -0.1190  0.6110 -0.2676
  164MOL0     H22099   9.122   5.876   2.059 -0.4651 -1.0764  0.5349
  164MOL0     H22100   9.333   5.913   1.949 -1.7374 -0.8480  2.2326
  164MOL0     H22101   9.559   5.935   1.881 -2.4836 -0.1808 -1.6183
  164MOL0     H22102  10.052   5.781   2.033  0.7430 -0.6771  0.3376
  164MOL0     H22103  10.292   5.755   1.932  0.4239 -1.3070  1.8646
  164MOL0     H22104  10.349   5.439   1.645 -0.5775 -0.0842 -1.4675
  164MOL0     H22105  10.387   5.589   1.553  0.9487  0.8407 -1.0654
  164MOL0     H22106  10.611   5.587   1.669 -1.5881  1.8749  0.0100
  164MOL0     H22107  10.580   5.427   1.737 -0.7996  0.1127  0.9351
  164MOL0     H22108  10.526   5.333   1.530 -2.9901  2.8115  1.9065
  164MOL0     H22109  10.552   5.479   1.435  0.9116  2.0460  0.0536
  164MOL0     H22110  10.773   5.325   1.573 -2.2242 -1.4364 -0.4789
  164MOL0     H22111  10.798   5.495   1.532  2.0770 -0.8472  0.3403
  164MOL0     H22112  10.747   5.433   1.281  0.2907 -2.3692 -0.8910
  164MOL0     H22113  10.726   5.272   1.323  0.0501  0.7799 -1.6341
  164MOL0     H22114  10.984   5.415   1.382 -0.1116  0.0136  0.3106
  164MOL0     H22115  10.963   5.239   1.397  0.4024  0.4199  1.4819
  164MOL0     H22116  10.903   5.379   1.131 -3.2082  0.3977  1.8955
  164MOL0     H22117  10.952   5.216   1.159 -3.2700 -1.0116 -0.9297
  164MOL0     H22118  11.134   5.380   1.068  1.3621  0.6110  0.7144
  164MOL0     H22119  11.120   5.476   1.207 -0.4741  0.6795  0.3096
  164MOL0     H22120  10.143   5.487   1.648  0.9647 -0.5702  1.0873
  164MOL0     H22121   9.901   5.517   1.733 -0.9659 -1.0216 -0.3332
  164MOL0     H22122   9.640   5.533   1.968 -3.7552 -1.3085 -2.1803
  164MOL0     H22123   9.405   5.492   2.046 -0.7780 -0.0169  2.0874
  164MOL0     H22124   8.054   4.874   1.332  1.8663  1.8633  0.3736
  164MOL0     H22125   7.806   4.860   1.372 -4.2349  1.0903 -1.9774
  164MOL0     H22126   7.402   5.050   1.207 -1.6867 -1.8871 -0.1334
  164MOL0     H22127   7.196   5.151   1.217  3.3338  3.0867 -1.4153
  164MOL0     H22128   7.003   5.232   1.242  1.7589 -0.4854  1.8460
  164MOL0     H22129   6.865   5.244   1.349  2.1975  1.7379 -0.0847
  164MOL0     H22130   6.974   4.995   1.216  0.5866  2.9956 -1.3552
  164MOL0     H22131   6.814   5.049   1.189 -0.5059 -0.2586  0.4046
  164MOL0     H22132   6.741   5.025   1.416 -1.5020 -1.1961 -3.0353
  164MOL0     H22133   6.908   4.974   1.464  1.2172 -0.2912 -1.4103
  164MOL0     H22134   6.863   4.749   1.355  0.5942  1.3055  2.4778
  164MOL0     H22135   6.734   4.781   1.462  2.7639  2.6000  3.0905
  164MOL0     H22136   6.510   4.820   1.104 -0.7643  1.8573 -0.1858
  164MOL0     H22137   7.161   5.110   1.628  0.0263  1.7907 -0.6080
  164MOL0     H22138   7.533   5.070   1.659 -1.1628  3.5705  0.1559
  164MOL0     H22139   7.385   5.058   1.758 -1.1658 -4.1968  1.1663
  164MOL0     H22140   7.459   4.915   1.677  0.6456  0.3157  2.6554
  165MOL0     O22141   0.448   1.282   2.293  0.5599 -0.0547  0.5428
  165MOL0     C22142   0.343   1.269   2.347  0.9184 -0.5629 -0.2313
  165MOL0     O22143   0.281   1.372   2.420  0.0822  0.1772  0.6031
  165MOL0     C22144   0.330   1.498   2.389  0.0335 -0.1389  0.2286
  165MOL0     C22145   0.447   1.551   2.443 -0.0522 -0.6393 -0.1714
  165MOL0     C22146   0.483   1.681   2.415  0.6455  0.3618 -0.5102
  165MOL0     C22147   0.412   1.761   2.315 -0.1667  0.0647 -0.2461
  165MOL0     O22148   0.467   1.878   2.270 -0.8329 -0.0796 -0.2706
  165MOL0     C22149   0.447   1.907   2.130 -1.4840 -0.4922  0.1265
  165MOL0     C22150   0.517   2.041   2.094 -0.3101  0.6625 -0.2096
  165MOL0     C22151   0.666   2.024   2.056  0.0116 -0.0735  0.2830
  165MOL0     C22152   0.764   2.021   2.176  0.5731 -1.0568 -0.5852
  165MOL0     C22153   0.905   2.018   2.135  0.6613  0.0304 -0.0522
  165MOL0     C22154   0.993   1.998   2.256 -0.2907  0.2210 -0.4679
  165MOL0     C22155   1.141   2.012   2.202  0.0217  0.1891  0.1711
  165MOL0     C22156   1.264   1.968   2.289 -0.2941  0.0072  0.1479
  165MOL0     N22157   1.376   1.913   2.202  1.1772  0.3599 -0.5324
  165MOL0     C22158   1.436   1.967   2.090  1.1890 -0.7896  0.9448
  165MOL0     C22159   1.547   1.891   2.063  0.4114 -0.4696  1.1289
  165MOL0     C22160   1.617   1.906   1.930 -0.1905 -0.3388  0.1824
  165MOL0     C22161   1.722   1.809   1.915  0.2766  0.1509 -0.2241
  165MOL0     C22162   1.833   1.831   2.020  0.7461 -0.6933 -0.5679
  165MOL0     C22163   1.963   1.755   2.011 -0.6116  0.6920  0.8342
  165MOL0     O22164   2.023   1.771   1.876 -0.1923 -0.2298 -0.2679
  165MOL0     C22165   2.142   1.837   1.880  0.5930  0.2926  1.1759
  165MOL0     C22166   2.263   1.769   1.894  0.3653  0.3999 -0.2264
  165MOL0     C22167   2.386   1.825   1.888  0.0176  0.4313 -0.7406
  165MOL0     C22168   2.405   1.961   1.889 -1.3005  0.3421 -0.9329
  165MOL0     C22169   2.545   2.016   1.895  0.6024  0.7804 -0.8353
  165MOL0     O22170   2.649   1.935   1.864 -0.7669  0.8893 -0.1566
  165MOL0     C22171   2.780   1.974   1.873 -0.2151  0.4237 -0.1303
  165MOL0     C22172   2.836   2.059   1.973  0.1509  0.8342 -0.3077
  165MOL0     C22173   2.978   2.060   1.975 -0.2062  0.0033  0.9107
  165MOL0     C22174   3.057   2.007   1.880 -0.5322 -0.2739  0.0362
  165MOL0     O22175   3.192   2.025   1.886 -0.9845  0.4696  0.1888
  165MOL0     C22176   3.260   2.035   1.765 -1.2070  0.2075  0.2885
  165MOL0     C22177   3.408   2.055   1.791 -0.7069  0.5800  0.9921
  165MOL0     C22178   3.450   2.175   1.881 -0.5373  0.2381 -0.3909
  165MOL0     C22179   3.600   2.192   1.861  0.6100 -0.2339  0.2134
  165MOL0     C22180   3.646   2.296   1.960 -0.0982  0.3102  0.1553
  165MOL0     C22181   3.793   2.301   1.961 -0.0176  0.6897 -0.3612
  165MOL0     C22182   3.864   2.382   1.852 -0.3495 -0.4465 -0.2737
  165MOL0     C22183   4.018   2.384   1.860 -0.1920  0.1822 -0.5451
  165MOL0    Cl22184   4.078   2.435   2.031  0.3786  0.2895  0.1979
  165MOL0     C22185   2.996   1.935   1.773 -0.4431  0.1325  0.2683
  165MOL0     C22186   2.859   1.918   1.775 -0.5011 -0.7199  0.3232
  165MOL0     O22187   2.552   2.139   1.899 -0.0845  0.5055  0.2294
  165MOL0     C22188   2.291   2.041   1.871 -0.9723  0.0732 -0.4831
  165MOL0     C22189   2.160   1.978   1.868 -0.2711  1.0077 -0.6273
  165MOL0     N22190   1.545   1.793   2.158 -0.2927 -0.2925  0.8533
  165MOL0     N22191   1.460   1.819   2.242  0.1804  0.7523 -0.0286
  165MOL0     C22192   0.289   1.708   2.263  0.2239  0.4028 -0.2422
  165MOL0     C22193   0.256   1.575   2.300 -0.5300 -0.2403  0.4967
  165MOL0     C22194   0.269   1.138   2.330 -0.2482  0.5879  0.2663
  165MOL0     C22195   0.133   1.141   2.337 -0.2568  0.5516 -0.4324
  165MOL0     C22196   0.059   1.021   2.324  0.0860  0.0967 -0.2053
  165MOL0     C22197   0.119   0.899   2.302 -0.3228  0.4345  0.9789
  165MOL0     O22198   0.046   0.783   2.290  0.2262 -0.9854  0.5768
  165MOL0     C22199  -0.092   0.782   2.323  0.4204 -0.5837  0.4745
  165MOL0     C22200  -0.150   0.633   2.327 -0.9611  0.2482 -0.2335
  165MOL0     C22201  -0.292   0.641   2.400  0.3225  0.8226  0.2363
  165MOL0     C22202  -0.368   0.503   2.395 -0.2472  1.1737 -0.0240
  165MOL0     C22203  -0.476   0.481   2.486 -0.3845  0.2961 -0.0898
  165MOL0     C22204  -0.568   0.450   2.566  0.0085  0.4617  1.6797
  165MOL0     C22205   0.258   0.901   2.282  0.1518  0.8159  0.1355
  165MOL0     C22206   0.337   1.012   2.302  0.0152  0.8870 -0.5274
  165MOL0     C22207   0.485   0.991   2.295 -0.2327 -0.9476  0.4215
  165MOL0     H22208   0.502   1.484   2.508 -0.2463 -1.1394 -0.5170
  165MOL0     H22209   0.567   1.727   2.466 -1.0764  3.0082  0.1535
  165MOL0     H22210   0.495   1.837   2.060  0.8020  1.9286 -0.9074
  165MOL0     H22211   0.339   1.912   2.111 -1.3109 -0.1104 -0.8445
  165MOL0     H22212   0.501   2.112   2.176 -2.0050  2.3673 -1.9253
  165MOL0     H22213   0.472   2.080   2.002 -0.1996 -0.1526 -0.6237
  165MOL0     H22214   0.691   2.110   1.993 -0.0993 -0.3904 -0.1892
  165MOL0     H22215   0.680   1.934   1.997 -1.2174 -1.2752  1.7378
  165MOL0     H22216   0.750   2.104   2.246 -0.1060  0.2312 -2.2010
  165MOL0     H22217   0.747   1.932   2.238  2.4997  0.5854  2.5726
  165MOL0     H22218   0.918   1.928   2.074 -1.6813 -1.4677  1.4863
  165MOL0     H22219   0.928   2.110   2.079 -3.8359  1.1951 -0.4205
  165MOL0     H22220   0.973   2.069   2.337  0.5969 -1.2319  1.0775
  165MOL0     H22221   0.981   1.900   2.302 -0.0473  1.0444  1.4370
  165MOL0     H22222   1.175   2.113   2.177  2.3140 -0.3246  0.9347
  165MOL0     H22223   1.156   1.956   2.109  1.8940 -1.9259  1.6601
  165MOL0     H22224   1.302   2.062   2.328 -1.8500  0.6043  0.2895
  165MOL0     H22225   1.243   1.909   2.379  0.5910  1.4312  1.3384
  165MOL0     H22226   1.412   2.060   2.039 -1.9191 -1.2585  1.3679
  165MOL0     H22227   1.539   1.882   1.857 -0.9573  3.4704 -0.4426
  165MOL0     H22228   1.645   2.008   1.903 -0.6711  0.4855  2.5920
  165MOL0     H22229   1.672   1.712   1.924 -1.3375  0.9035 -0.5453
  165MOL0     H22230   1.765   1.836   1.818 -2.9443  0.6804 -1.6415
  165MOL0     H22231   1.788   1.810   2.118 -0.6862  2.0916 -0.5399
  165MOL0     H22232   1.859   1.937   2.013 -2.8301  0.3640 -0.0007
  165MOL0     H22233   1.937   1.651   2.034 -1.8458  0.9866  0.8353
  165MOL0     H22234   2.039   1.775   2.087  0.9965  0.9772 -0.7898
  165MOL0     H22235   2.257   1.661   1.906  3.0479  0.3846  2.0009
  165MOL0     H22236   2.469   1.757   1.902 -1.5749 -1.3834  0.4805
  165MOL0     H22237   2.775   2.107   2.049 -2.3034 -0.1943 -1.4988
  165MOL0     H22238   3.038   2.105   2.054  0.6812 -1.1258  0.8969
  165MOL0     H22239   3.244   1.949   1.699  3.2370 -4.0557  4.0671
  165MOL0     H22240   3.224   2.126   1.715  1.5431  1.2561  0.0828
  165MOL0     H22241   3.449   1.967   1.842 -0.6211 -0.9856 -1.5944
  165MOL0     H22242   3.460   2.064   1.695 -2.6480  1.0541 -0.0745
  165MOL0     H22243   3.400   2.268   1.852  3.6071  2.5412 -0.9207
  165MOL0     H22244   3.427   2.143   1.983 -1.0286  0.7635 -0.3295
  165MOL0     H22245   3.628   2.219   1.759  0.7886  0.6816  0.4895
  165MOL0     H22246   3.642   2.095   1.887  2.1373  0.5676  0.8638
  165MOL0     H22247   3.621   2.258   2.059  0.6126 -2.0230 -0.4868
  165MOL0     H22248   3.589   2.389   1.947 -1.9269 -0.5471  1.6152
  165MOL0     H22249   3.822   2.355   2.052  0.0975  1.3025 -0.7570
  165MOL0     H22250   3.827   2.197   1.969 -6.6557 -1.9054  0.1757
  165MOL0     H22251   3.826   2.484   1.844 -0.1915 -0.3217  0.4836
  165MOL0     H22252   3.847   2.339   1.752  0.2044 -1.4878  0.0612
  165MOL0     H22253   4.066   2.293   1.822  3.0219  2.1454 -1.5114
  165MOL0     H22254   4.042   2.456   1.782 -0.9977  0.0502 -0.9331
  165MOL0     H22255   3.047   1.884   1.692 -0.9056 -0.6186  0.4453
  165MOL0     H22256   2.826   1.855   1.693 -2.0370 -0.8727  1.0108
  165MOL0     H22257   2.312   2.147   1.871  0.0260 -0.1130  0.7146
  165MOL0     H22258   2.074   2.044   1.859  1.6380  3.5858 -0.9010
  165MOL0     H22259   0.223   1.760   2.195  1.6576 -0.2652 -2.2358
  165MOL0     H22260   0.167   1.530   2.257  1.4578 -2.1342 -1.9212
  165MOL0     H22261   0.083   1.231   2.372 -0.3807  0.8225 -1.2686
  165MOL0     H22262  -0.047   1.039   2.339 -0.0513 -0.1564 -0.8434
  165MOL0     H22263  -0.147   0.836   2.245  1.3003 -0.9382 -0.3978
  165MOL0     H22264  -0.098   0.833   2.420  3.4134 -0.3174  0.6117
  165MOL0     H22265  -0.084   0.559   2.373 -1.8497 -0.4278 -0.0230
  165MOL0     H22266  -0.173   0.608   2.223  2.6995  1.9405 -1.6099
  165MOL0     H22267  -0.355   0.718   2.355 -2.5584 -1.0776  0.6683
  165MOL0     H22268  -0.264   0.675   2.500 -1.3501  3.0342  0.0298
  165MOL0     H22269  -0.406   0.500   2.293 -3.5141 -1.2853  1.1008
  165MOL0     H22270  -0.294   0.422   2.399 -1.9904 -0.8761 -3.7901
  165MOL0     H22271  -0.634   0.406   2.638 -0.8104 -1.4703 -0.1523
  165MOL0     H22272   0.292   0.804   2.247 -3.3020 -2.0738  3.8254
  165MOL0     H22273   0.524   0.888   2.293  0.8131 -0.5577 -0.8383
  165MOL0     H22274   0.523   1.032   2.201 -0.1539 -0.2456  0.7598
  165MOL0     H22275   0.521   1.052   2.378  0.8314  1.4089 -1.6557
  166MOL0     O22276   1.384   2.218   2.796  0.4003 -0.4973  0.6078
  166MOL0     C22277   1.399   2.137   2.708  0.4667  0.2156 -0.1398
  166MOL0     O22278   1.315   2.041   2.672  0.0494  0.1475 -0.5842
  166MOL0     C22279   1.185   2.037   2.720 -0.4334  0.1145 -0.3721
  166MOL0     C22280   1.092   2.147   2.706 -0.3401  0.1356  0.3518
  166MOL0     C22281   0.952   2.130   2.724 -0.7425  0.0849 -0.7259
  166MOL0     C22282   0.893   2.003   2.744 -0.3552  0.3589 -0.7103
  166MOL0     O22283   0.757   1.990   2.736 -0.2468  0.6838 -0.2803
  166MOL0     C22284   0.687   1.863   2.771  0.5872  0.2242 -0.2979
  166MOL0     C22285   0.537   1.876   2.769  0.2554 -0.0684  0.9659
  166MOL0     C22286   0.462   1.761   2.849  0.9314  0.2395  0.3142
  166MOL0     C22287   0.310   1.775   2.862  1.0736  0.2717 -0.4374
  166MOL0     C22288   0.248   1.762   2.714 -0.2011 -0.8433 -0.4978
  166MOL0     C22289   0.100   1.774   2.721 -0.0731 -0.7354 -0.2534
  166MOL0     C22290   0.055   1.792   2.571 -0.5722 -0.0662  0.2681
  166MOL0     C22291  -0.097   1.820   2.559 -0.3020  0.4107 -0.1654
  166MOL0     N22292  -0.147   1.927   2.644  0.0626  0.8919  0.0663
  166MOL0     C22293  -0.111   2.055   2.650  0.4066  0.7564  0.1894
  166MOL0     C22294  -0.170   2.108   2.769 -1.3583  0.6295  0.3845
  166MOL0     C22295  -0.160   2.244   2.846  0.1057 -0.4554  0.4642
  166MOL0     C22296  -0.014   2.269   2.893 -0.7977 -0.4029  0.8810
  166MOL0     C22297   0.055   2.159   2.973  0.7575 -0.7687  0.1672
  166MOL0     C22298   0.200   2.174   3.017  1.2427  0.5857 -0.3294
  166MOL0     O22299   0.270   2.209   2.900  0.1339 -0.0882  0.3756
  166MOL0     C22300   0.401   2.246   2.908 -0.5309  0.0061 -0.2067
  166MOL0     C22301   0.458   2.309   3.023  0.0582 -0.0228  0.0103
  166MOL0     C22302   0.582   2.368   3.019 -0.1995  0.3519 -0.5030
  166MOL0     C22303   0.662   2.364   2.898  0.7812  0.0869 -0.0464
  166MOL0     C22304   0.793   2.445   2.889  0.6048  0.2332 -0.6798
  166MOL0     O22305   0.873   2.440   2.992 -0.2295  0.8038  0.5076
  166MOL0     C22306   0.987   2.516   2.984  0.1273  0.2082  1.2105
  166MOL0     C22307   1.105   2.476   2.914  0.2842  1.0282  0.7414
  166MOL0     C22308   1.217   2.555   2.915 -0.6153 -0.9078 -0.1530
  166MOL0     C22309   1.226   2.673   2.996  0.2627 -0.1676  0.3256
  166MOL0     O22310   1.334   2.753   3.022  0.2277 -1.3112  0.3134
  166MOL0     C22311   1.455   2.693   2.990 -0.4664 -0.5342 -0.0309
  166MOL0     C22312   1.577   2.781   3.019 -0.1282 -0.1087 -0.1092
  166MOL0     C22313   1.716   2.716   2.979 -0.8279  0.1684 -0.8282
  166MOL0     C22314   1.840   2.799   3.032  0.9180 -0.1249  1.2037
  166MOL0     C22315   1.968   2.717   3.004  0.5551  0.4741  0.1351
  166MOL0     C22316   2.093   2.789   3.055  0.0112  0.2871  0.2891
  166MOL0     C22317   2.216   2.709   3.004 -0.2564  0.2593  0.4248
  166MOL0     C22318   2.349   2.734   3.090 -0.1863 -0.7913  0.7212
  166MOL0    Cl22319   2.381   2.894   3.144  0.2109 -0.0336  0.2016
  166MOL0     C22320   1.113   2.706   3.065 -0.1224  0.1376  0.6246
  166MOL0     C22321   0.995   2.631   3.053 -0.0572 -1.0124 -0.3329
  166MOL0     O22322   0.817   2.502   2.789  0.0218  0.5195  0.1514
  166MOL0     C22323   0.615   2.295   2.788  0.0076 -0.1299 -0.2502
  166MOL0     C22324   0.492   2.225   2.794  0.3295 -0.8204  0.3166
  166MOL0     N22325  -0.227   1.999   2.828 -0.0059  0.3207  0.2317
  166MOL0     N22326  -0.214   1.898   2.762  0.6546 -0.2969 -0.4694
  166MOL0     C22327   0.981   1.891   2.748  0.3204 -0.4053  0.4622
  166MOL0     C22328   1.125   1.914   2.749 -0.2267 -0.0175 -0.3626
  166MOL0     C22329   1.541   2.119   2.654  0.3760 -0.5433 -0.1749
  166MOL0     C22330   1.574   2.017   2.562 -0.1841 -0.0333  0.2588
  166MOL0     C22331   1.704   2.001   2.515  0.5158  0.3622  0.0599
  166MOL0     C22332   1.810   2.083   2.553  0.7339  0.6489  0.1996
  166MOL0     O22333   1.941   2.062   2.501 -0.4270 -0.6185 -0.5587
  166MOL0     C22334   1.964   1.970   2.388  0.7192  0.4529 -0.5116
  166MOL0     C22335   2.107   1.992   2.342 -0.0642 -0.2113 -0.4822
  166MOL0     C22336   2.133   2.139   2.300  1.0128  0.0124  0.3433
  166MOL0     C22337   2.251   2.151   2.196 -0.4161  0.2333  0.6310
  166MOL0     C22338   2.383   2.107   2.231 -0.7985  0.1393 -0.3759
  166MOL0     C22339   2.494   2.075   2.269 -0.5753 -0.7222  0.7144
  166MOL0     C22340   1.783   2.193   2.633 -0.9190  0.3501 -0.2333
  166MOL0     C22341   1.649   2.220   2.680 -0.8098 -0.3438  0.1833
  166MOL0     C22342   1.631   2.339   2.774  0.0039 -0.3114 -0.3088
  166MOL0     H22343   1.125   2.247   2.680 -1.5334  0.6859  0.8719
  166MOL0     H22344   0.884   2.212   2.705 -0.5721 -0.0261 -1.9021
  166MOL0     H22345   0.739   1.791   2.706  4.4301  1.0163  1.5958
  166MOL0     H22346   0.713   1.824   2.870 -2.1474 -0.0401  0.3796
  166MOL0     H22347   0.525   1.872   2.661  2.2215  0.7259  0.6669
  166MOL0     H22348   0.494   1.972   2.799 -1.5117 -0.5118 -0.0263
  166MOL0     H22349   0.497   1.755   2.953 -1.1121  2.0805  1.1955
  166MOL0     H22350   0.480   1.664   2.802 -2.1340 -0.3154  0.0825
  166MOL0     H22351   0.261   1.703   2.929 -1.6719  1.9720 -0.4206
  166MOL0     H22352   0.282   1.870   2.910 -1.8870 -0.7885  0.1688
  166MOL0     H22353   0.289   1.836   2.645  1.6922 -4.1480 -3.2542
  166MOL0     H22354   0.277   1.663   2.678 -1.0326 -0.4814 -2.2753
  166MOL0     H22355   0.060   1.690   2.780  1.6166 -1.3943  0.0047
  166MOL0     H22356   0.065   1.861   2.776 -2.6331 -2.6588  1.4028
  166MOL0     H22357   0.084   1.702   2.517  1.2320  1.4626 -1.4571
  166MOL0     H22358   0.109   1.874   2.523  1.3506 -2.6650 -2.3379
  166MOL0     H22359  -0.135   1.841   2.459 -1.8638  2.1442  0.7363
  166MOL0     H22360  -0.147   1.726   2.584  1.8570 -1.5425 -2.5322
  166MOL0     H22361  -0.054   2.110   2.576 -0.6381  0.2368 -1.0274
  166MOL0     H22362  -0.194   2.327   2.783  4.1793  1.6388  0.6638
  166MOL0     H22363  -0.231   2.240   2.930 -1.1869 -1.7425 -0.6497
  166MOL0     H22364   0.048   2.282   2.804 -2.9610  0.3623 -0.5996
  166MOL0     H22365  -0.009   2.359   2.956 -2.4394 -0.0647  0.5728
  166MOL0     H22366   0.057   2.073   2.905  0.4052  0.1178 -0.9757
  166MOL0     H22367  -0.008   2.126   3.057  0.7087  3.3870  2.0127
  166MOL0     H22368   0.236   2.083   3.065 -2.7149 -0.1016  1.7807
  166MOL0     H22369   0.208   2.257   3.089  0.6728  0.7170 -0.4170
  166MOL0     H22370   0.413   2.299   3.122  3.9620 -1.8549  1.8200
  166MOL0     H22371   0.618   2.430   3.100 -0.3170 -0.6554  0.3369
  166MOL0     H22372   1.099   2.375   2.875  1.7681  0.7296  1.2380
  166MOL0     H22373   1.289   2.525   2.838  0.7754 -0.5142  0.9469
  166MOL0     H22374   1.462   2.599   3.044  0.1254 -0.8276 -0.6031
  166MOL0     H22375   1.465   2.680   2.882 -0.0730  0.7432 -0.1742
  166MOL0     H22376   1.581   2.868   2.953 -0.5074 -0.1736 -0.2158
  166MOL0     H22377   1.569   2.826   3.118  0.6185 -0.3131  0.0559
  166MOL0     H22378   1.719   2.617   3.024 -1.3399  1.2973  1.9225
  166MOL0     H22379   1.730   2.701   2.872  0.7797 -0.0070 -0.6244
  166MOL0     H22380   1.823   2.813   3.140 -2.7658 -0.8219  0.8257
  166MOL0     H22381   1.864   2.899   2.995  1.6415 -0.2639  1.2820
  166MOL0     H22382   1.980   2.691   2.898  0.1643  0.1054  0.1779
  166MOL0     H22383   1.968   2.619   3.051 -0.8526  0.7423  0.7466
  166MOL0     H22384   2.100   2.895   3.026  0.6337  0.2091  0.1368
  166MOL0     H22385   2.088   2.777   3.163 -2.7341 -1.7296  0.0330
  166MOL0     H22386   2.241   2.736   2.901 -1.7172  0.9383  0.2172
  166MOL0     H22387   2.185   2.605   2.994 -1.7024  0.9140 -5.0171
  166MOL0     H22388   2.344   2.663   3.172  0.2628  0.5472  1.9486
  166MOL0     H22389   2.431   2.703   3.024 -1.9056 -0.6512 -1.6116
  166MOL0     H22390   1.121   2.793   3.129  0.3962 -0.5698  1.5386
  166MOL0     H22391   0.911   2.667   3.110  0.5660 -1.1728  0.7242
  166MOL0     H22392   0.672   2.293   2.696 -0.7877 -2.4184 -0.7533
  166MOL0     H22393   0.452   2.183   2.703 -0.4669  1.3640 -0.4020
  166MOL0     H22394   0.957   1.786   2.740  0.6836 -0.4459 -0.2154
  166MOL0     H22395   1.195   1.831   2.742 -0.3547  0.0153 -2.8486
  166MOL0     H22396   1.495   1.955   2.521 -0.2050  0.7632 -0.9655
  166MOL0     H22397   1.721   1.915   2.452  1.5467  0.2391  0.4971
  166MOL0     H22398   1.891   1.970   2.307 -1.4698 -0.5106  1.3334
  166MOL0     H22399   1.953   1.870   2.430 -1.2771  0.5705 -0.6311
  166MOL0     H22400   2.129   1.935   2.251 -0.1170 -0.8803 -0.0856
  166MOL0     H22401   2.174   1.971   2.427  1.3935 -0.8073 -1.7230
  166MOL0     H22402   2.162   2.208   2.380 -1.1726  1.4263 -0.0155
  166MOL0     H22403   2.040   2.175   2.256  2.9404  1.6834 -2.6909
  166MOL0     H22404   2.211   2.120   2.099 -1.4872 -0.8968  1.4073
  166MOL0     H22405   2.273   2.256   2.177 -0.0263 -0.1668 -1.3867
  166MOL0     H22406   2.590   2.049   2.310 -0.8108 -0.2337  1.6073
  166MOL0     H22407   1.860   2.261   2.666  0.7474 -2.0054  0.9973
  166MOL0     H22408   1.722   2.398   2.784 -1.6966  2.2116  1.4856
  166MOL0     H22409   1.542   2.396   2.743 -0.7761  0.3964  2.8841
  166MOL0     H22410   1.602   2.302   2.873  3.8632 -1.8908  0.3991
  167MOL0     O22411   6.758   3.080   9.626 -0.1485 -0.1085 -0.3130
  167MOL0     C22412   6.639   3.123   9.621  0.4498 -0.0598  0.3712
  167MOL0     O22413   6.603   3.257   9.618  0.6874 -0.7769 -0.4765
  167MOL0     C22414   6.701   3.352   9.629  0.4198 -0.1894 -0.3350
  167MOL0     C22415   6.740   3.420   9.519 -0.8706  1.3412 -0.0552
  167MOL0     C22416   6.838   3.523   9.532  0.6772  0.0837 -0.8083
  167MOL0     C22417   6.879   3.565   9.659 -0.2120  0.2143 -0.4031
  167MOL0     O22418   6.960   3.676   9.683  0.3855  0.3918 -0.4524
  167MOL0     C22419   7.086   3.638   9.750  1.2273  0.2624  0.1310
  167MOL0     C22420   7.177   3.756   9.713  0.2349 -0.1364 -0.7484
  167MOL0     C22421   7.304   3.768   9.795 -0.8048 -0.2148  0.3998
  167MOL0     C22422   7.415   3.686   9.726 -0.9016  0.6003  0.0801
  167MOL0     C22423   7.539   3.650   9.803 -0.2351 -0.7297 -0.8050
  167MOL0     C22424   7.608   3.787   9.829  0.3858  0.4016 -0.8857
  167MOL0     C22425   7.738   3.781   9.917  0.0424 -0.7033  0.2535
  167MOL0     C22426   7.827   3.908   9.912  0.1365  0.2737  0.2243
  167MOL0     N22427   7.967   3.868   9.929  0.6431 -0.7412 -0.4209
  167MOL0     C22428   8.045   3.823   9.827  0.1035 -0.2849 -0.7061
  167MOL0     C22429   8.164   3.791   9.887 -0.0118  0.3423  0.2732
  167MOL0     C22430   8.287   3.744   9.819  0.2073  0.8000  0.4384
  167MOL0     C22431   8.248   3.675   9.686 -0.4817  0.0145 -0.6307
  167MOL0     C22432   8.360   3.606   9.613  0.2614  0.9499  0.1413
  167MOL0     C22433   8.392   3.479   9.686  0.2012 -0.6297 -0.9954
  167MOL0     O22434   8.481   3.400   9.602 -0.6346 -0.2592  0.9446
  167MOL0     C22435   8.613   3.429   9.579 -0.6308  0.1725 -0.6461
  167MOL0     C22436   8.676   3.516   9.668  0.5797 -0.1180 -0.6774
  167MOL0     C22437   8.804   3.564   9.661 -0.5971  1.4555  0.3135
  167MOL0     C22438   8.882   3.517   9.551 -0.4261  0.0257  0.4745
  167MOL0     C22439   9.029   3.541   9.553 -0.4220 -0.1058 -0.1383
  167MOL0     O22440   9.084   3.586   9.665  0.5271 -0.1208  0.2882
  167MOL0     C22441   9.221   3.605   9.675 -0.5157  0.4470 -0.1736
  167MOL0     C22442   9.293   3.557   9.791 -0.2446 -0.0109  0.9886
  167MOL0     C22443   9.431   3.587   9.812  1.1481 -1.3731 -0.8821
  167MOL0     C22444   9.501   3.663   9.715 -0.1923 -0.8265  0.3715
  167MOL0     O22445   9.638   3.703   9.716 -0.3709 -0.4317  0.0607
  167MOL0     C22446   9.681   3.745   9.851 -0.2391  0.1768  0.6241
  167MOL0     C22447   9.779   3.866   9.843 -0.7463 -0.0834 -0.3017
  167MOL0     C22448   9.911   3.833   9.774 -0.6540 -0.2792  0.4086
  167MOL0     C22449  10.015   3.940   9.779  0.4217  0.9962 -0.5696
  167MOL0     C22450   9.984   4.072   9.701 -0.4169  0.1164  0.7320
  167MOL0     C22451  10.077   4.178   9.749  0.2465 -0.1576 -0.2730
  167MOL0     C22452  10.072   4.305   9.663  0.1987  0.6987 -0.0904
  167MOL0     C22453  10.161   4.428   9.688  0.2997  1.0497  0.8893
  167MOL0    Cl22454  10.127   4.479   9.856 -0.1684 -0.3240  0.2244
  167MOL0     C22455   9.429   3.699   9.599  0.5484  0.0317  0.3540
  167MOL0     C22456   9.288   3.682   9.584  0.3110  0.9056  0.6508
  167MOL0     O22457   9.086   3.526   9.445  0.1602 -0.1567  0.0317
  167MOL0     C22458   8.825   3.437   9.453  0.2387 -0.2381 -0.4270
  167MOL0     C22459   8.690   3.393   9.467 -0.4018 -0.5468  0.5942
  167MOL0     N22460   8.163   3.833  10.020  0.2149 -0.4485 -0.1990
  167MOL0     N22461   8.043   3.873  10.043  0.4756 -0.2161 -0.5427
  167MOL0     C22462   6.836   3.493   9.771  0.0681 -0.1156 -1.1376
  167MOL0     C22463   6.747   3.384   9.755  0.2947  0.2823 -0.4494
  167MOL0     C22464   6.530   3.019   9.603  0.1100  0.7733  0.1793
  167MOL0     C22465   6.448   3.052   9.496  0.3994 -0.9003 -0.4886
  167MOL0     C22466   6.340   2.972   9.464 -1.2875  0.9228 -0.0128
  167MOL0     C22467   6.316   2.850   9.529 -0.2149 -0.3856 -0.2593
  167MOL0     O22468   6.218   2.766   9.481  0.0511  0.2203 -0.5079
  167MOL0     C22469   6.186   2.642   9.541 -0.7652  0.2158 -0.3273
  167MOL0     C22470   6.266   2.528   9.475  0.4266  0.1853  0.2189
  167MOL0     C22471   6.237   2.393   9.541  0.3033  0.0838  0.3460
  167MOL0     C22472   6.089   2.348   9.533 -0.7606  0.9207  0.0555
  167MOL0     C22473   6.080   2.293   9.399 -0.0430  0.4841 -0.9189
  167MOL0     C22474   6.079   2.243   9.289 -0.0079  0.2764  0.2735
  167MOL0     C22475   6.399   2.813   9.641 -1.2185  0.5713  0.0736
  167MOL0     C22476   6.511   2.896   9.672  0.4000 -0.5492  0.7287
  167MOL0     C22477   6.592   2.858   9.791  0.0354  0.5183  0.0747
  167MOL0     H22478   6.715   3.375   9.424  4.9565 -1.0909 -0.8645
  167MOL0     H22479   6.864   3.585   9.447  1.1549 -0.8433 -1.3429
  167MOL0     H22480   7.069   3.636   9.858  2.9202  1.6604  0.4633
  167MOL0     H22481   7.114   3.539   9.712 -1.8805 -0.8903  0.5365
  167MOL0     H22482   7.118   3.846   9.734  2.6004  1.1843  0.7398
  167MOL0     H22483   7.197   3.754   9.606 -0.6363 -0.3402 -0.9143
  167MOL0     H22484   7.285   3.723   9.893 -5.2203 -0.5973 -0.3908
  167MOL0     H22485   7.320   3.875   9.807  2.7156 -0.6956  0.8682
  167MOL0     H22486   7.382   3.589   9.688 -0.0386  0.9388 -1.6116
  167MOL0     H22487   7.438   3.736   9.632 -2.7435  0.3720 -0.5429
  167MOL0     H22488   7.517   3.594   9.894  0.4405  0.6869  0.2591
  167MOL0     H22489   7.609   3.582   9.754  1.2706 -1.1261  1.7096
  167MOL0     H22490   7.623   3.827   9.728 -1.0495  1.5948 -0.6533
  167MOL0     H22491   7.546   3.855   9.888  2.0603 -0.4338  2.0338
  167MOL0     H22492   7.793   3.694   9.883 -0.3204 -0.2362 -1.6212
  167MOL0     H22493   7.703   3.778  10.021 -0.9866  0.9436 -0.0000
  167MOL0     H22494   7.816   3.957   9.815  2.2616  2.8508  1.1703
  167MOL0     H22495   7.794   3.978   9.990  1.1557  0.1438  0.7876
  167MOL0     H22496   8.006   3.806   9.727  1.0649  0.2601 -1.1929
  167MOL0     H22497   8.352   3.829   9.795  2.0267 -0.8445 -0.6924
  167MOL0     H22498   8.327   3.674   9.894 -1.7257  1.1915  1.9165
  167MOL0     H22499   8.153   3.622   9.695 -0.8650  0.9300  1.2352
  167MOL0     H22500   8.231   3.762   9.621  1.0480 -0.2226 -1.4018
  167MOL0     H22501   8.433   3.683   9.584  0.8746 -0.8491 -3.7498
  167MOL0     H22502   8.314   3.566   9.522  4.6202  0.4013 -2.1190
  167MOL0     H22503   8.307   3.416   9.711  2.5163 -3.6682 -0.0886
  167MOL0     H22504   8.432   3.484   9.787 -2.2568  1.8570 -0.0148
  167MOL0     H22505   8.621   3.563   9.748  0.0947  0.3961 -1.3024
  167MOL0     H22506   8.852   3.632   9.730 -0.7881  0.1977  1.7597
  167MOL0     H22507   9.235   3.474   9.831 -0.4540 -3.7395 -5.5275
  167MOL0     H22508   9.480   3.548   9.901  2.5862  1.8741 -0.0845
  167MOL0     H22509   9.590   3.762   9.910 -0.2541 -0.6212  0.8409
  167MOL0     H22510   9.730   3.663   9.903  0.2464  0.2668  0.3117
  167MOL0     H22511   9.719   3.942   9.794  2.0724  1.9635 -0.7992
  167MOL0     H22512   9.797   3.893   9.948  0.9849 -1.5868 -0.1723
  167MOL0     H22513   9.948   3.735   9.805 -0.7655 -1.4645 -2.8047
  167MOL0     H22514   9.879   3.827   9.670 -1.6918  2.7843  0.4427
  167MOL0     H22515  10.114   3.898   9.760  1.2843  2.0442  1.2550
  167MOL0     H22516  10.017   3.963   9.886  1.1851 -1.1546 -0.0785
  167MOL0     H22517   9.879   4.097   9.720 -1.3260 -0.1663 -3.1417
  167MOL0     H22518   9.989   4.038   9.598  0.5018 -0.8280  1.0674
  167MOL0     H22519  10.050   4.206   9.851  0.4718 -3.9884  0.9762
  167MOL0     H22520  10.181   4.146   9.760  0.9991  2.4451  1.2336
  167MOL0     H22521   9.971   4.346   9.671  0.3446  1.3802 -1.3579
  167MOL0     H22522  10.085   4.279   9.557 -3.7265 -0.0709 -0.5612
  167MOL0     H22523  10.270   4.414   9.682 -0.0282 -2.4309  0.9835
  167MOL0     H22524  10.140   4.497   9.606  0.2177 -1.9059 -1.7755
  167MOL0     H22525   9.486   3.746   9.519  0.3091 -1.1558 -0.5287
  167MOL0     H22526   9.235   3.708   9.493  0.4216  1.6512  0.7881
  167MOL0     H22527   8.882   3.395   9.370  2.3949 -1.6711  1.6312
  167MOL0     H22528   8.661   3.333   9.382  0.9836  2.1891 -1.9867
  167MOL0     H22529   6.873   3.516   9.870 -1.5039 -2.7376  0.1681
  167MOL0     H22530   6.710   3.328   9.840  3.3488 -0.5027  0.4995
  167MOL0     H22531   6.461   3.138   9.431  2.2898 -1.7706 -1.3398
  167MOL0     H22532   6.282   3.002   9.378  1.0745  0.1247 -2.0030
  167MOL0     H22533   6.082   2.639   9.508  0.2642 -1.2855 -3.9322
  167MOL0     H22534   6.200   2.636   9.649 -2.3397 -1.4853 -0.1673
  167MOL0     H22535   6.372   2.552   9.489  0.2277  0.6553  0.9960
  167MOL0     H22536   6.237   2.531   9.370  0.5619 -2.2675  0.0593
  167MOL0     H22537   6.259   2.401   9.648 -1.6071 -0.8102  0.8606
  167MOL0     H22538   6.300   2.314   9.498 -0.3776 -0.2651 -0.0302
  167MOL0     H22539   6.069   2.266   9.603 -0.2428 -0.6944 -1.6136
  167MOL0     H22540   6.012   2.423   9.550 -0.6744  0.9945  0.1235
  167MOL0     H22541   6.063   2.190   9.198 -1.0580 -2.0093  1.7007
  167MOL0     H22542   6.397   2.716   9.691 -0.5023  1.1430  1.2523
  167MOL0     H22543   6.554   2.769   9.842  1.2493 -0.9266 -1.4218
  167MOL0     H22544   6.699   2.839   9.777  0.3322  0.3245  2.3174
  167MOL0     H22545   6.591   2.943   9.859  1.7918  0.8034 -0.2082
  168MOL0     O22546   9.178   7.021  11.038  0.1757  0.7227 -0.4514
  168MOL0     C22547   9.191   7.095  11.136  0.9774  0.8642 -0.9145
  168MOL0     O22548   9.304   7.170  11.161  0.6919  0.0669 -0.2771
  168MOL0     C22549   9.401   7.164  11.061 -0.3842 -0.5746  0.0475
  168MOL0     C22550   9.380   7.208  10.929  0.3730  0.0221  0.8842
  168MOL0     C22551   9.487   7.199  10.835 -0.7325  1.1106  0.3524
  168MOL0     C22552   9.608   7.152  10.877 -0.3815  0.4147 -0.1291
  168MOL0     O22553   9.704   7.142  10.778  0.2194 -0.0898  0.1780
  168MOL0     C22554   9.842   7.120  10.819  0.2824 -0.2519  0.4707
  168MOL0     C22555   9.921   7.171  10.700  0.1445 -0.7152  0.2427
  168MOL0     C22556  10.065   7.183  10.713 -0.8132  1.2015 -0.8573
  168MOL0     C22557  10.096   7.318  10.777 -0.4657  1.0465  0.1774
  168MOL0     C22558  10.248   7.314  10.794  0.2704  1.0553  0.2533
  168MOL0     C22559  10.316   7.458  10.800 -0.1289  0.1520  0.4147
  168MOL0     C22560  10.368   7.501  10.663  0.1644 -0.1376 -0.0222
  168MOL0     C22561  10.409   7.646  10.666 -0.1485 -0.6966 -0.4346
  168MOL0     N22562  10.292   7.732  10.694 -0.0313 -0.2048 -0.3206
  168MOL0     C22563  10.280   7.806  10.809 -0.6680  0.0339 -0.6916
  168MOL0     C22564  10.152   7.850  10.809  0.3703  0.3383  0.2623
  168MOL0     C22565  10.079   7.945  10.903 -0.7993 -0.1859 -0.1669
  168MOL0     C22566  10.169   8.011  11.009  0.2096 -0.3056  0.6384
  168MOL0     C22567  10.176   7.916  11.126 -0.0370 -0.2840 -0.8593
  168MOL0     C22568  10.250   7.984  11.236 -0.3686 -0.2505 -1.2149
  168MOL0     O22569  10.387   7.979  11.197 -0.1356 -0.0543  0.2109
  168MOL0     C22570  10.483   8.009  11.288  0.0534  0.4939  0.1981
  168MOL0     C22571  10.474   8.016  11.426  0.4806 -1.0804 -0.0046
  168MOL0     C22572  10.586   8.040  11.502 -0.7559 -0.0855  0.0920
  168MOL0     C22573  10.713   8.046  11.451  0.4235  0.3422  0.3765
  168MOL0     C22574  10.831   8.090  11.517  0.4522 -0.1578 -0.5808
  168MOL0     O22575  10.950   8.066  11.460  0.2985  0.6946  0.0460
  168MOL0     C22576  11.057   8.114  11.524  0.1045 -0.0994  0.1542
  168MOL0     C22577  11.131   8.031  11.618  0.4480 -0.0054 -0.6043
  168MOL0     C22578  11.253   8.084  11.673  0.5448 -0.3995  0.1513
  168MOL0     C22579  11.295   8.208  11.664 -0.0109  0.5812  0.3143
  168MOL0     O22580  11.420   8.236  11.703  0.6248  0.7365 -0.2519
  168MOL0     C22581  11.476   8.369  11.682  0.3413  0.0196  0.5018
  168MOL0     C22582  11.606   8.392  11.769  0.6253  0.5053 -0.3896
  168MOL0     C22583  11.715   8.311  11.703  0.2192 -0.4182  0.0991
  168MOL0     C22584  11.833   8.277  11.800 -0.2785  0.7202  0.8058
  168MOL0     C22585  11.941   8.189  11.734  0.2991 -0.1774 -0.3277
  168MOL0     C22586  12.058   8.152  11.826  0.2766 -0.0020 -0.6822
  168MOL0     C22587  12.143   8.039  11.764  0.5795 -0.0111 -0.8815
  168MOL0     C22588  12.273   8.029  11.839  0.2977  0.9261  0.1047
  168MOL0    Cl22589  12.238   7.968  12.006  0.1690 -0.2974 -0.2336
  168MOL0     C22590  11.223   8.297  11.568 -1.1528 -0.7893 -0.4971
  168MOL0     C22591  11.108   8.246  11.504  0.0561 -0.3185  0.6493
  168MOL0     O22592  10.822   8.140  11.625  0.5143 -0.1445 -0.2753
  168MOL0     C22593  10.719   8.038  11.309 -0.5965  0.7069 -0.1660
  168MOL0     C22594  10.608   8.030  11.225 -0.3182 -0.0645 -0.3713
  168MOL0     N22595  10.088   7.793  10.705  1.1284 -0.1104  0.7038
  168MOL0     N22596  10.174   7.728  10.632  0.9069  0.9111  0.3387
  168MOL0     C22597   9.632   7.106  11.010  0.3905  0.8564 -0.5901
  168MOL0     C22598   9.531   7.112  11.099  0.3712  0.7833  0.2549
  168MOL0     C22599   9.082   7.116  11.233 -0.3212 -0.5719  0.6148
  168MOL0     C22600   9.128   7.112  11.371 -0.3573  0.0010  0.1774
  168MOL0     C22601   9.042   7.142  11.474  0.0570 -0.2320  0.3755
  168MOL0     C22602   8.909   7.165  11.447  0.0039  0.1699 -0.1694
  168MOL0     O22603   8.819   7.174  11.552  0.3475 -0.0061 -0.1523
  168MOL0     C22604   8.676   7.196  11.535 -0.9426 -0.3117 -0.0387
  168MOL0     C22605   8.644   7.340  11.501 -0.7362  0.1924  0.7099
  168MOL0     C22606   8.494   7.374  11.505  0.0807  0.6363  0.2607
  168MOL0     C22607   8.464   7.523  11.505 -1.1829  0.6207 -0.4218
  168MOL0     C22608   8.322   7.535  11.548  0.6694  0.3930 -0.8382
  168MOL0     C22609   8.207   7.567  11.579 -0.6862  0.1523  0.3982
  168MOL0     C22610   8.862   7.160  11.315 -0.3870  1.0271 -0.4102
  168MOL0     C22611   8.946   7.128  11.202  0.5574 -0.1895  0.4202
  168MOL0     C22612   8.889   7.125  11.060  0.8859  0.9254 -0.2838
  168MOL0     H22613   9.290   7.263  10.903  1.3931  1.7468  0.8545
  168MOL0     H22614   9.486   7.231  10.731  3.3568  0.9828  0.1282
  168MOL0     H22615   9.879   7.180  10.902 -1.1117  0.7470  0.4157
  168MOL0     H22616   9.872   7.017  10.841  1.7525  0.5199  2.2903
  168MOL0     H22617   9.874   7.268  10.679 -2.2661 -1.4057  2.0066
  168MOL0     H22618   9.899   7.119  10.607 -0.4362  1.8913 -1.1646
  168MOL0     H22619  10.105   7.188  10.611 -0.4336  0.4090 -0.7615
  168MOL0     H22620  10.113   7.102  10.768 -2.3208  3.0382  3.5675
  168MOL0     H22621  10.040   7.390  10.717 -3.8845  0.3386  2.2428
  168MOL0     H22622  10.046   7.337  10.873 -1.6379  2.6381 -0.7047
  168MOL0     H22623  10.272   7.250  10.878  1.6096 -1.0144 -1.5911
  168MOL0     H22624  10.283   7.265  10.702  1.6285  2.0360  0.2188
  168MOL0     H22625  10.236   7.526  10.830 -1.0450 -1.4400  1.7073
  168MOL0     H22626  10.394   7.461  10.876 -0.5369  1.9564  0.7965
  168MOL0     H22627  10.285   7.495  10.591  0.4915  1.2039 -0.5523
  168MOL0     H22628  10.451   7.438  10.631 -0.9590 -2.1727  0.9300
  168MOL0     H22629  10.484   7.665  10.743 -1.1636  0.8984  0.2096
  168MOL0     H22630  10.453   7.675  10.569  0.5143 -2.4984 -0.7135
  168MOL0     H22631  10.345   7.838  10.890 -0.1333  2.7497 -2.0855
  168MOL0     H22632  10.029   8.025  10.848 -6.2511 -0.5662  3.4254
  168MOL0     H22633  10.006   7.877  10.948  0.8806 -0.5112  2.2903
  168MOL0     H22634  10.267   8.041  10.972 -1.0139  2.9729 -0.2852
  168MOL0     H22635  10.122   8.103  11.045 -0.0484 -1.0115  2.1652
  168MOL0     H22636  10.224   7.819  11.109 -0.6852 -1.0417  1.2883
  168MOL0     H22637  10.073   7.903  11.159  0.6564  0.6257  1.8984
  168MOL0     H22638  10.231   7.919  11.321  0.4250 -2.3295 -2.5437
  168MOL0     H22639  10.212   8.084  11.258  0.4600 -0.4075  1.1788
  168MOL0     H22640  10.379   8.001  11.477  0.2256 -2.5128 -0.8492
  168MOL0     H22641  10.577   8.054  11.609  0.7686  2.0207  0.0042
  168MOL0     H22642  11.103   7.928  11.636  0.6642  0.2601  1.5076
  168MOL0     H22643  11.305   8.010  11.734 -0.5118  0.1622  1.8220
  168MOL0     H22644  11.503   8.388  11.578 -0.6351  1.3204  0.4609
  168MOL0     H22645  11.404   8.445  11.715 -0.0669 -0.5919  1.0459
  168MOL0     H22646  11.651   8.491  11.782  1.2850  0.3785 -1.5551
  168MOL0     H22647  11.595   8.349  11.869 -3.7204  1.1692 -0.3709
  168MOL0     H22648  11.671   8.225  11.651  0.3999 -0.2939 -0.2618
  168MOL0     H22649  11.752   8.377  11.623 -0.3925  0.4824  0.5433
  168MOL0     H22650  11.793   8.219  11.883 -0.9910  2.5335  1.7914
  168MOL0     H22651  11.877   8.373  11.831  0.6140  1.1402 -1.4947
  168MOL0     H22652  11.976   8.252  11.652 -1.6326  2.8450  0.9932
  168MOL0     H22653  11.897   8.101  11.687  0.4972  0.8259 -2.5325
  168MOL0     H22654  12.128   8.236  11.828  2.6380 -1.7847 -2.4357
  168MOL0     H22655  12.028   8.132  11.929  4.1273 -1.6607  0.3097
  168MOL0     H22656  12.154   8.056  11.656 -1.3559  0.6616 -1.0133
  168MOL0     H22657  12.077   7.952  11.768 -1.6307  1.4428 -2.7549
  168MOL0     H22658  12.341   7.964  11.784  0.4384  2.3395 -1.4691
  168MOL0     H22659  12.320   8.128  11.846 -0.2621  1.1827  0.2461
  168MOL0     H22660  11.258   8.397  11.547 -2.7732 -0.1840 -0.4638
  168MOL0     H22661  11.061   8.303  11.424 -0.8009  0.2104  1.5071
  168MOL0     H22662  10.818   8.050  11.267 -0.0576  1.0067  1.1344
  168MOL0     H22663  10.631   8.013  11.120  4.0432 -3.1198  0.7743
  168MOL0     H22664   9.728   7.064  11.038  0.1366  0.1202 -0.8166
  168MOL0     H22665   9.541   7.069  11.198 -1.0785 -2.1980 -0.7758
  168MOL0     H22666   9.230   7.085  11.394 -1.4245 -3.1768  1.7622
  168MOL0     H22667   9.067   7.139  11.580 -2.4244  0.6306  1.0422
  168MOL0     H22668   8.623   7.174  11.628 -1.5523  2.5480  0.3869
  168MOL0     H22669   8.643   7.114  11.470 -0.9797 -0.7181  0.4922
  168MOL0     H22670   8.690   7.363  11.405 -2.6739  0.5812 -0.1708
  168MOL0     H22671   8.696   7.412  11.565 -0.5186  1.8466 -1.2506
  168MOL0     H22672   8.461   7.326  11.597  1.0252 -0.5153  0.0304
  168MOL0     H22673   8.434   7.337  11.421 -0.7164 -0.2247  1.1852
  168MOL0     H22674   8.537   7.579  11.563 -1.2434  0.2140  0.0514
  168MOL0     H22675   8.472   7.565  11.404 -1.1071  0.2507 -0.5741
  168MOL0     H22676   8.111   7.604  11.611 -1.1620 -1.1013  0.4674
  168MOL0     H22677   8.755   7.169  11.301 -0.5969 -1.6063 -0.9604
  168MOL0     H22678   8.803   7.192  11.050  0.8147  1.0093  0.7796
  168MOL0     H22679   8.968   7.138  10.985  2.5985  3.7928  1.8394
  168MOL0     H22680   8.855   7.022  11.048  2.5860  0.0584  1.7670
  169MOL0     O22681   9.922   4.942   2.109  0.9789  0.8248 -0.0935
  169MOL0     C22682   9.938   4.822   2.126 -0.0810  0.1049  0.2849
  169MOL0     O22683   9.847   4.742   2.185 -0.4234 -0.0960 -0.0470
  169MOL0     C22684   9.728   4.798   2.230 -0.2027  0.3545  0.4306
  169MOL0     C22685   9.610   4.767   2.164  0.3558 -0.3626 -1.0327
  169MOL0     C22686   9.488   4.786   2.227 -0.8415  0.4109  0.5967
  169MOL0     C22687   9.479   4.853   2.350 -0.7169 -0.4094 -0.2097
  169MOL0     O22688   9.364   4.882   2.425 -0.8760 -0.4000  0.2275
  169MOL0     C22689   9.245   4.881   2.351 -0.1820  0.1641 -0.2937
  169MOL0     C22690   9.123   4.925   2.441  0.1247 -0.1216  0.3654
  169MOL0     C22691   9.003   4.936   2.356 -0.3371 -0.0948  0.3653
  169MOL0     C22692   8.903   5.007   2.449  0.4167  0.4213  0.0711
  169MOL0     C22693   8.759   4.982   2.385 -0.2905 -0.5232  0.0211
  169MOL0     C22694   8.659   5.035   2.474 -1.1148  0.5029  0.7714
  169MOL0     C22695   8.533   4.964   2.430  0.2679 -0.4290  0.1511
  169MOL0     C22696   8.406   5.040   2.475  0.1574 -0.5079 -0.4718
  169MOL0     N22697   8.415   5.084   2.612  0.0518  0.1347 -0.9406
  169MOL0     C22698   8.435   5.010   2.726  0.0156 -0.0317  0.2343
  169MOL0     C22699   8.428   5.092   2.834 -0.7019 -0.7572  0.5882
  169MOL0     C22700   8.461   5.065   2.983 -0.4911  0.3751 -0.4065
  169MOL0     C22701   8.452   4.913   3.024  0.7402  0.3171  0.5053
  169MOL0     C22702   8.580   4.829   2.993  0.3634 -0.0556 -0.3128
  169MOL0     C22703   8.706   4.902   3.026  0.1908 -0.0715 -0.3553
  169MOL0     O22704   8.734   4.990   2.918  0.2832 -0.4030  0.2888
  169MOL0     C22705   8.852   5.043   2.904 -0.2305  1.0846  0.0289
  169MOL0     C22706   8.968   4.981   2.965 -0.7177  0.9624  0.3852
  169MOL0     C22707   9.094   5.028   2.937 -0.2124  0.3225  0.1408
  169MOL0     C22708   9.106   5.141   2.855 -0.3614 -0.1095  0.1230
  169MOL0     C22709   9.241   5.187   2.817 -0.2420  1.4156 -0.3560
  169MOL0     O22710   9.344   5.095   2.831  0.2737 -0.1023  0.4710
  169MOL0     C22711   9.461   5.105   2.767  0.1942 -0.0774 -0.4422
  169MOL0     C22712   9.559   5.031   2.831 -0.4242  0.3682 -0.5293
  169MOL0     C22713   9.688   5.037   2.787 -0.4821 -0.1756  0.8364
  169MOL0     C22714   9.727   5.115   2.683  0.0905 -0.5110  0.2434
  169MOL0     O22715   9.867   5.124   2.654  0.2738 -0.3926 -0.5750
  169MOL0     C22716   9.909   5.218   2.567 -0.7394 -0.4426  0.3413
  169MOL0     C22717  10.060   5.225   2.563 -0.1564  0.0371 -0.0852
  169MOL0     C22718  10.120   5.105   2.495  0.2104 -0.5107 -0.1433
  169MOL0     C22719  10.267   5.089   2.525 -0.7802 -0.1273  0.3753
  169MOL0     C22720  10.339   5.007   2.417 -0.0786 -0.4362  1.1505
  169MOL0     C22721  10.455   4.926   2.469  0.1740 -0.9089  0.8039
  169MOL0     C22722  10.569   4.910   2.371 -0.0978 -0.0634 -0.3849
  169MOL0     C22723  10.524   4.855   2.239 -0.8237  0.9975 -0.9412
  169MOL0    Cl22724  10.672   4.841   2.139  0.3102  0.0792  0.0995
  169MOL0     C22725   9.623   5.182   2.613 -0.6213  0.8145 -0.1688
  169MOL0     C22726   9.491   5.158   2.641  1.0132 -0.5840 -1.1220
  169MOL0     O22727   9.251   5.292   2.755 -0.8079  1.0646  0.4436
  169MOL0     C22728   8.994   5.207   2.805  0.4838 -0.3040  0.2169
  169MOL0     C22729   8.865   5.154   2.827 -0.0982 -0.4763 -0.5140
  169MOL0     N22730   8.410   5.214   2.787  0.1453 -0.6179 -0.1540
  169MOL0     N22731   8.414   5.208   2.653  0.5145 -0.5175 -0.1261
  169MOL0     C22732   9.598   4.895   2.401 -0.7725 -0.0687 -0.2662
  169MOL0     C22733   9.718   4.864   2.349  0.5488 -0.5059  0.8731
  169MOL0     C22734  10.049   4.750   2.069  1.3529 -0.2199 -0.0663
  169MOL0     C22735  10.030   4.611   2.056 -0.0589 -0.4651 -0.4235
  169MOL0     C22736  10.137   4.529   2.041 -0.3455  0.6441  0.0056
  169MOL0     C22737  10.267   4.580   2.021  0.0436 -0.7214 -0.1303
  169MOL0     O22738  10.382   4.505   2.013  0.2978  0.5048  0.0584
  169MOL0     C22739  10.510   4.556   1.990  0.2941  0.6467  0.8143
  169MOL0     C22740  10.616   4.441   1.971 -0.9044 -0.2004 -0.3296
  169MOL0     C22741  10.758   4.500   1.972  0.1825  0.0169 -0.6132
  169MOL0     C22742  10.872   4.403   1.914 -0.4042  0.0916 -0.8382
  169MOL0     C22743  10.852   4.363   1.771  0.6721  0.5683 -0.3261
  169MOL0     C22744  10.843   4.354   1.651  0.4344  0.3300 -0.4991
  169MOL0     C22745  10.285   4.723   2.017  0.3280  0.3750 -0.2496
  169MOL0     C22746  10.176   4.812   2.041 -0.4199  0.5843  0.4134
  169MOL0     C22747  10.195   4.965   2.029  1.2290  0.3101  0.4064
  169MOL0     H22748   9.626   4.727   2.064  1.4646  1.9717 -1.8763
  169MOL0     H22749   9.396   4.771   2.172  0.3629  2.0455 -2.0797
  169MOL0     H22750   9.252   4.952   2.268 -1.2940 -1.4282 -1.8077
  169MOL0     H22751   9.209   4.783   2.319  0.7112 -1.1322  2.3921
  169MOL0     H22752   9.151   5.009   2.507  0.3109  1.3172 -1.4759
  169MOL0     H22753   9.106   4.852   2.521  3.9203  0.4128  1.8853
  169MOL0     H22754   8.963   4.835   2.339 -1.8714  0.1077  2.3232
  169MOL0     H22755   9.020   4.994   2.265 -0.9202  0.7370  0.7683
  169MOL0     H22756   8.899   4.960   2.548  1.2661  0.6010  0.1943
  169MOL0     H22757   8.907   5.116   2.443 -1.4317  0.4515 -2.1179
  169MOL0     H22758   8.750   5.041   2.293 -3.4128 -1.8477 -0.6681
  169MOL0     H22759   8.746   4.875   2.367 -0.4126 -0.0635 -3.3638
  169MOL0     H22760   8.685   5.020   2.579 -1.3156 -2.4546  0.4750
  169MOL0     H22761   8.653   5.144   2.462  2.1757  0.7174  0.1659
  169MOL0     H22762   8.530   4.863   2.472 -0.6446 -2.1951 -3.7714
  169MOL0     H22763   8.519   4.933   2.327 -0.0640  0.9510 -0.2461
  169MOL0     H22764   8.382   5.123   2.408 -2.5349 -2.9758 -2.8405
  169MOL0     H22765   8.320   4.974   2.471  0.5070 -0.9999  0.0212
  169MOL0     H22766   8.460   4.904   2.728  0.1936 -0.0391 -1.3451
  169MOL0     H22767   8.552   5.114   3.018  0.6691 -1.7954 -0.1616
  169MOL0     H22768   8.376   5.110   3.036 -0.6205 -0.3971  0.0773
  169MOL0     H22769   8.440   4.912   3.132  0.4378  0.7212  0.4732
  169MOL0     H22770   8.360   4.869   2.985  0.2171  1.0068  0.9480
  169MOL0     H22771   8.588   4.806   2.887  1.7813 -0.8002 -0.0651
  169MOL0     H22772   8.582   4.730   3.039 -0.8568 -1.6701 -3.4208
  169MOL0     H22773   8.786   4.828   3.037  1.4015  1.3655  1.0966
  169MOL0     H22774   8.685   4.960   3.116  0.6643 -0.5635  0.0726
  169MOL0     H22775   8.972   4.900   3.037 -0.3688 -1.3189 -2.0441
  169MOL0     H22776   9.184   4.986   2.980  1.0772 -1.5467 -3.9385
  169MOL0     H22777   9.550   4.979   2.926 -0.3713 -2.0743 -1.7662
  169MOL0     H22778   9.762   4.981   2.844  1.6101  2.2240  0.6369
  169MOL0     H22779   9.852   5.187   2.478 -0.2100 -1.7917  0.4465
  169MOL0     H22780   9.875   5.317   2.597 -0.3537 -0.2395  0.1074
  169MOL0     H22781  10.085   5.306   2.494  0.2689  0.2077  0.2661
  169MOL0     H22782  10.100   5.243   2.663  1.9874  0.7475 -1.0173
  169MOL0     H22783  10.075   5.012   2.530  0.5599 -0.2706  0.9892
  169MOL0     H22784  10.096   5.122   2.390 -0.7086 -0.8920 -0.0025
  169MOL0     H22785  10.287   5.045   2.624 -1.3767 -1.6341 -0.1382
  169MOL0     H22786  10.307   5.190   2.531 -1.5377  0.2604 -0.7851
  169MOL0     H22787  10.368   5.085   2.345  0.1060  0.0655  1.7595
  169MOL0     H22788  10.268   4.944   2.362  0.1081 -0.7549  1.2725
  169MOL0     H22789  10.496   4.978   2.556 -1.2713  2.1970 -0.1954
  169MOL0     H22790  10.431   4.824   2.500  0.3657 -1.2789 -0.2234
  169MOL0     H22791  10.650   4.842   2.399 -2.4754 -3.5003 -1.0897
  169MOL0     H22792  10.600   5.013   2.352 -1.9617  0.8906  1.3771
  169MOL0     H22793  10.476   4.760   2.263 -0.9270  1.4668  0.8961
  169MOL0     H22794  10.460   4.932   2.195 -3.5420  0.4892  1.7914
  169MOL0     H22795   9.650   5.238   2.525 -0.8680  0.7791 -0.2694
  169MOL0     H22796   9.413   5.199   2.576  1.7752 -0.1719 -1.7932
  169MOL0     H22797   8.987   5.295   2.741  0.5839  1.3487  2.3440
  169MOL0     H22798   8.779   5.206   2.786  0.7226  1.9749  0.6610
  169MOL0     H22799   9.582   4.952   2.492 -3.2626  1.1858 -1.3732
  169MOL0     H22800   9.810   4.888   2.400  2.1646 -1.8399 -1.2284
  169MOL0     H22801   9.940   4.555   2.080  1.2072 -2.3691  0.0728
  169MOL0     H22802  10.115   4.423   2.049 -1.7974  0.9308 -0.0485
  169MOL0     H22803  10.533   4.603   2.087 -0.1732  0.8583  0.8246
  169MOL0     H22804  10.515   4.628   1.908  0.0034 -0.7792 -0.4998
  169MOL0     H22805  10.586   4.397   1.876  1.4167 -1.4440 -0.5496
  169MOL0     H22806  10.613   4.361   2.045  0.6048 -1.4690 -1.5835
  169MOL0     H22807  10.785   4.522   2.076 -0.0594  0.2011 -0.5887
  169MOL0     H22808  10.758   4.597   1.922  2.2623  1.1833  1.4875
  169MOL0     H22809  10.964   4.462   1.919  0.8604 -1.7954 -1.1305
  169MOL0     H22810  10.893   4.315   1.976  2.3153  0.5790 -0.9326
  169MOL0     H22811  10.833   4.353   1.544 -0.9310 -1.3172 -0.4050
  169MOL0     H22812  10.385   4.765   2.015  0.4079  1.0658  5.1637
  169MOL0     H22813  10.186   5.025   2.121  1.4178  0.0736  0.5778
  169MOL0     H22814  10.291   4.990   1.983  1.5652  0.0146  0.9339
  169MOL0     H22815  10.115   4.994   1.960  0.4691  0.0871  1.1811
  170MOL0     O22816   4.213   7.054   6.132 -0.8728  0.4015 -0.3285
  170MOL0     C22817   4.160   6.995   6.038 -0.3715  1.3172 -0.8684
  170MOL0     O22818   4.223   6.900   5.962  0.7401 -0.1222 -0.0467
  170MOL0     C22819   4.352   6.868   5.998 -0.1777 -0.4362 -0.0901
  170MOL0     C22820   4.384   6.755   6.072 -0.0002  0.6923 -1.0815
  170MOL0     C22821   4.522   6.733   6.127 -0.2812 -0.2792  0.3423
  170MOL0     C22822   4.622   6.828   6.102  0.1006 -0.5557  1.5048
  170MOL0     O22823   4.749   6.798   6.148  0.4762 -0.0249 -0.3462
  170MOL0     C22824   4.849   6.906   6.164  0.6457  0.4904 -0.3854
  170MOL0     C22825   4.942   6.899   6.043 -0.0393  0.7654 -0.0272
  170MOL0     C22826   5.021   7.026   6.047 -0.8791 -0.0626 -0.8057
  170MOL0     C22827   5.050   7.076   5.910  0.9582 -0.1790 -0.5162
  170MOL0     C22828   5.168   7.178   5.891  0.3627 -0.5986  0.0620
  170MOL0     C22829   5.301   7.143   5.949 -0.3574 -0.1467  0.2275
  170MOL0     C22830   5.372   7.025   5.880 -0.7307 -0.6126  0.7311
  170MOL0     C22831   5.453   6.929   5.978 -0.2032  0.1290 -0.3735
  170MOL0     N22832   5.498   6.797   5.928  0.6040 -1.1554  0.1204
  170MOL0     C22833   5.609   6.787   5.850  1.1163 -0.1773  0.2323
  170MOL0     C22834   5.638   6.655   5.838 -0.5814  0.1145  0.0493
  170MOL0     C22835   5.751   6.607   5.752  1.0182 -0.2542 -0.5909
  170MOL0     C22836   5.886   6.656   5.811  0.6389  1.2137  0.7344
  170MOL0     C22837   5.907   6.632   5.957  0.6872  0.0260 -0.8588
  170MOL0     C22838   5.864   6.488   6.003 -0.1984  0.0812  0.0149
  170MOL0     O22839   5.888   6.481   6.151 -0.1490 -0.7411 -0.3675
  170MOL0     C22840   5.998   6.412   6.198 -0.3531 -0.6393 -0.4023
  170MOL0     C22841   6.012   6.419   6.332  0.3386 -0.0027  0.0494
  170MOL0     C22842   6.105   6.355   6.408  0.1992 -0.0932 -0.3359
  170MOL0     C22843   6.184   6.263   6.350  0.4331 -0.1519  0.7544
  170MOL0     C22844   6.273   6.177   6.427  0.8210 -0.1760 -0.3676
  170MOL0     O22845   6.327   6.074   6.348 -0.6046  0.4323 -0.3644
  170MOL0     C22846   6.419   5.983   6.405  0.3789 -0.2953 -0.3457
  170MOL0     C22847   6.426   5.920   6.525 -0.1022 -0.5417  0.3044
  170MOL0     C22848   6.524   5.820   6.552  0.0344  0.2794 -0.0252
  170MOL0     C22849   6.614   5.787   6.451 -0.1219 -0.1498  0.2147
  170MOL0     O22850   6.691   5.676   6.455  0.7405  0.4701  0.1325
  170MOL0     C22851   6.754   5.632   6.575  0.4521 -0.1988  0.1044
  170MOL0     C22852   6.862   5.526   6.516 -0.6936  0.4268 -0.5550
  170MOL0     C22853   6.936   5.464   6.632 -0.1917  0.5534 -0.4311
  170MOL0     C22854   6.978   5.328   6.592 -0.1206  0.7646  0.6899
  170MOL0     C22855   7.044   5.254   6.707 -0.2303 -0.4235 -0.3488
  170MOL0     C22856   7.056   5.102   6.683 -0.9224 -0.2319 -0.7150
  170MOL0     C22857   7.157   5.021   6.772 -0.3273 -0.5908 -0.4500
  170MOL0     C22858   7.293   5.005   6.711  0.6030 -0.3433 -0.1991
  170MOL0    Cl22859   7.383   5.162   6.706  0.2123 -0.6769  0.1974
  170MOL0     C22860   6.600   5.844   6.332 -0.3916  0.2570  0.2217
  170MOL0     C22861   6.505   5.945   6.302 -0.1089  0.2971 -0.0997
  170MOL0     O22862   6.288   6.199   6.548 -0.8479  0.6757  0.3535
  170MOL0     C22863   6.195   6.271   6.207 -0.3251 -0.8153 -0.5489
  170MOL0     C22864   6.105   6.344   6.129  0.1935 -0.7180 -0.3726
  170MOL0     N22865   5.534   6.585   5.910 -0.4352  0.0977  1.1990
  170MOL0     N22866   5.455   6.676   5.963  0.2970 -0.2987  0.8515
  170MOL0     C22867   4.582   6.940   6.022  0.5627  0.0044 -0.4991
  170MOL0     C22868   4.453   6.960   5.973 -0.5338  0.1752  1.1756
  170MOL0     C22869   4.022   7.036   6.009  0.8549  0.9010 -0.1838
  170MOL0     C22870   3.957   6.960   5.910  0.3278  0.0616  0.2756
  170MOL0     C22871   3.832   6.995   5.856 -0.0869 -0.5240 -0.0464
  170MOL0     C22872   3.760   7.097   5.914 -0.4879 -0.7368 -0.6742
  170MOL0     O22873   3.649   7.159   5.869  0.3866  0.0067 -0.5694
  170MOL0     C22874   3.555   7.082   5.786  0.4983  0.0632 -0.2475
  170MOL0     C22875   3.469   7.162   5.680  0.8600 -0.6585  0.1695
  170MOL0     C22876   3.398   7.281   5.739 -0.1705  0.4620 -0.1197
  170MOL0     C22877   3.303   7.356   5.640  0.0821 -0.2178 -0.3116
  170MOL0     C22878   3.202   7.272   5.579  0.1738  0.4556  0.4815
  170MOL0     C22879   3.104   7.211   5.538 -0.6980 -1.0191 -0.4433
  170MOL0     C22880   3.806   7.154   6.029  0.3049  0.0481  0.5545
  170MOL0     C22881   3.938   7.126   6.075  0.1970 -0.3709  0.5689
  170MOL0     C22882   3.985   7.210   6.195 -0.5260  0.0224  0.2656
  170MOL0     H22883   4.314   6.674   6.092  1.6595 -0.6391 -0.4601
  170MOL0     H22884   4.547   6.634   6.163 -0.7701 -1.3222 -1.9631
  170MOL0     H22885   4.787   6.997   6.163  0.1964  0.2081  0.6134
  170MOL0     H22886   4.904   6.895   6.257  2.0242  0.3982 -1.1930
  170MOL0     H22887   4.884   6.898   5.950  1.4205  2.9383 -1.0744
  170MOL0     H22888   5.010   6.814   6.050  1.2077  1.8438  2.3447
  170MOL0     H22889   5.119   6.999   6.086 -1.4546 -2.8707 -1.0769
  170MOL0     H22890   4.968   7.105   6.101 -1.2572  0.3089 -1.6995
  170MOL0     H22891   5.075   6.993   5.844  1.2575  0.1895 -0.8727
  170MOL0     H22892   4.957   7.123   5.875 -0.1652 -0.5405  1.7601
  170MOL0     H22893   5.178   7.180   5.782 -0.4821  2.4267 -0.0409
  170MOL0     H22894   5.146   7.278   5.929  4.5587  0.0647  1.2021
  170MOL0     H22895   5.366   7.230   5.944  0.4319 -0.7701 -1.0382
  170MOL0     H22896   5.288   7.115   6.054  1.0871 -2.1170 -0.0584
  170MOL0     H22897   5.443   7.063   5.806  0.9893  2.9746  3.8660
  170MOL0     H22898   5.295   6.959   5.837 -0.0941  0.5289 -2.4239
  170MOL0     H22899   5.542   6.978   6.017 -1.0214  2.3226 -1.1247
  170MOL0     H22900   5.385   6.910   6.062 -0.7353  3.2388  0.0058
  170MOL0     H22901   5.657   6.870   5.800  1.5279 -1.1919 -1.0958
  170MOL0     H22902   5.740   6.498   5.748 -1.2559 -0.2813  2.4701
  170MOL0     H22903   5.744   6.633   5.646  1.5331  0.1883 -0.5182
  170MOL0     H22904   5.973   6.620   5.755  0.7305  2.2547  0.1809
  170MOL0     H22905   5.883   6.765   5.801 -0.1597  1.2115  0.8643
  170MOL0     H22906   5.845   6.704   6.010  0.6449 -0.9442  0.4751
  170MOL0     H22907   6.013   6.639   5.984  0.3670 -3.4569  2.2272
  170MOL0     H22908   5.915   6.406   5.953  2.1466 -0.3684  2.8572
  170MOL0     H22909   5.758   6.478   5.978  0.5852 -2.1265 -2.8293
  170MOL0     H22910   5.946   6.485   6.386  0.1406  0.1419 -0.3735
  170MOL0     H22911   6.110   6.369   6.516 -1.7981 -0.0936 -0.2095
  170MOL0     H22912   6.348   5.951   6.593 -2.5731 -0.6031 -2.3263
  170MOL0     H22913   6.523   5.764   6.645  3.3421  0.3362  0.1683
  170MOL0     H22914   6.807   5.715   6.623  1.2989 -1.3844  1.2900
  170MOL0     H22915   6.682   5.578   6.637  0.2961 -0.5882 -0.4123
  170MOL0     H22916   6.813   5.448   6.457 -1.9811  0.7253  0.0654
  170MOL0     H22917   6.938   5.581   6.459 -0.5077  1.7460  0.9003
  170MOL0     H22918   7.028   5.509   6.670  0.4078 -2.7756  2.6797
  170MOL0     H22919   6.864   5.464   6.714  0.0080 -0.9594 -0.2208
  170MOL0     H22920   7.044   5.333   6.505  0.1290  0.3320  0.8515
  170MOL0     H22921   6.889   5.274   6.556 -0.6407  0.8725  1.7822
  170MOL0     H22922   6.982   5.276   6.794 -0.1947 -0.5087 -0.3027
  170MOL0     H22923   7.144   5.296   6.717 -1.0145  1.5073 -0.1270
  170MOL0     H22924   6.958   5.059   6.703 -1.3895  1.3431  0.6575
  170MOL0     H22925   7.074   5.092   6.575 -1.5762  1.7980 -1.0608
  170MOL0     H22926   7.122   4.917   6.782  0.8323 -1.1408 -1.7428
  170MOL0     H22927   7.182   5.072   6.865 -0.0680  0.3573 -1.0332
  170MOL0     H22928   7.356   4.942   6.775  0.2100 -1.2043 -0.6554
  170MOL0     H22929   7.283   4.966   6.610 -0.8681 -4.0466  1.2234
  170MOL0     H22930   6.656   5.808   6.247  0.8453  2.7297 -0.1097
  170MOL0     H22931   6.490   5.972   6.198 -0.7539  1.3640  0.2556
  170MOL0     H22932   6.274   6.217   6.155  1.2839  0.2276  0.6912
  170MOL0     H22933   6.105   6.359   6.022 -2.4380  3.5404  0.0089
  170MOL0     H22934   4.648   7.023   6.000  2.7011 -1.6549 -0.6206
  170MOL0     H22935   4.428   7.049   5.916 -2.6468 -0.8540  0.3616
  170MOL0     H22936   4.008   6.876   5.864  2.0065 -0.3821  2.7371
  170MOL0     H22937   3.794   6.941   5.771  0.0407  0.2270 -0.5884
  170MOL0     H22938   3.482   7.051   5.861  0.6016 -1.7583 -0.8602
  170MOL0     H22939   3.611   7.000   5.740  3.0460 -1.1861  4.4543
  170MOL0     H22940   3.393   7.096   5.636 -0.8432  0.8739  0.6478
  170MOL0     H22941   3.536   7.181   5.596  1.6602 -4.1228 -0.1153
  170MOL0     H22942   3.475   7.348   5.779  2.3548 -0.1236 -3.5524
  170MOL0     H22943   3.342   7.243   5.825  0.0387  1.1831  0.3407
  170MOL0     H22944   3.250   7.431   5.701 -0.3133 -0.0781 -0.8230
  170MOL0     H22945   3.359   7.403   5.559 -2.6402 -1.9342 -3.4148
  170MOL0     H22946   3.014   7.159   5.514  0.6776 -2.7031 -2.2751
  170MOL0     H22947   3.746   7.221   6.089  1.0046  1.5176 -0.3141
  170MOL0     H22948   3.902   7.251   6.252  1.0883  3.6031  0.3079
  170MOL0     H22949   4.041   7.146   6.264 -0.4980 -1.4694 -1.0789
  170MOL0     H22950   4.050   7.286   6.150 -2.8494  2.4316  0.7633
  171MOL0     O22951   8.857   6.387  10.664 -0.3956  0.1937  0.0189
  171MOL0     C22952   8.937   6.471  10.624  0.2291  0.1140 -0.3633
  171MOL0     O22953   8.919   6.553  10.508  0.3995 -0.2233  0.1700
  171MOL0     C22954   8.801   6.539  10.438 -1.3537  0.9647  0.7450
  171MOL0     C22955   8.802   6.465  10.321  0.2641  0.2774 -1.1964
  171MOL0     C22956   8.689   6.455  10.238  0.6026  0.4402 -0.4274
  171MOL0     C22957   8.570   6.509  10.278 -0.0644 -0.9385  0.5682
  171MOL0     O22958   8.474   6.512  10.176  0.7129  0.0322  0.3383
  171MOL0     C22959   8.338   6.504  10.215 -0.1059 -0.3965 -0.0431
  171MOL0     C22960   8.273   6.638  10.189 -0.0234  0.8098 -0.1863
  171MOL0     C22961   8.292   6.707  10.046  0.6362  0.1170 -0.3903
  171MOL0     C22962   8.224   6.846  10.039  0.0973  0.8604  0.3740
  171MOL0     C22963   8.071   6.843  10.021 -0.3605  1.2352  0.2912
  171MOL0     C22964   8.021   6.766   9.894  0.2160  0.1897 -0.7875
  171MOL0     C22965   7.865   6.765   9.878  0.6638  0.8774  0.2336
  171MOL0     C22966   7.778   6.722   9.991 -0.0356 -0.4074  0.5168
  171MOL0     N22967   7.834   6.605  10.067  0.5059  0.4683 -0.3364
  171MOL0     C22968   7.885   6.487  10.017  0.1370 -0.3380 -1.2638
  171MOL0     C22969   7.904   6.414  10.137 -0.3262 -0.7533 -0.4165
  171MOL0     C22970   7.915   6.267  10.152  1.6073 -0.3229  0.0413
  171MOL0     C22971   8.058   6.220  10.191  0.0312  0.6461  0.1269
  171MOL0     C22972   8.064   6.065  10.191 -0.0703  0.1213 -0.2999
  171MOL0     C22973   8.215   6.016  10.206  0.9787 -0.4451 -0.0480
  171MOL0     O22974   8.297   6.083  10.293 -0.1639  0.2167 -0.0983
  171MOL0     C22975   8.434   6.049  10.283  0.1779 -0.3850 -0.2287
  171MOL0     C22976   8.487   5.955  10.192  0.6492  0.7378 -0.7110
  171MOL0     C22977   8.626   5.940  10.176  0.3182  0.2353 -0.6479
  171MOL0     C22978   8.714   6.022  10.244  0.4579 -0.7334 -0.8267
  171MOL0     C22979   8.862   6.018  10.219  0.2452  0.6585  0.3486
  171MOL0     O22980   8.928   6.134  10.233  0.7987 -0.2224 -0.5386
  171MOL0     C22981   9.053   6.151  10.292  0.0283 -0.4900  1.0465
  171MOL0     C22982   9.071   6.137  10.428 -0.6465 -0.1376  0.5273
  171MOL0     C22983   9.199   6.163  10.486  0.0185  0.1269  0.8193
  171MOL0     C22984   9.294   6.210  10.406 -0.1095  0.4696  0.1518
  171MOL0     O22985   9.412   6.235  10.460  0.5404 -0.0663 -0.3155
  171MOL0     C22986   9.431   6.365  10.528  0.0818 -0.0604 -0.1455
  171MOL0     C22987   9.421   6.486  10.433  0.7987  0.4406 -0.0755
  171MOL0     C22988   9.536   6.471  10.336 -0.6445  0.0425 -0.5294
  171MOL0     C22989   9.551   6.575  10.220 -0.1563  0.7493 -0.9541
  171MOL0     C22990   9.689   6.579  10.154 -0.4147 -0.3200 -0.1627
  171MOL0     C22991   9.701   6.662  10.028 -0.2384 -0.0116 -0.5209
  171MOL0     C22992   9.636   6.598   9.905 -0.0243 -0.9701 -0.6766
  171MOL0     C22993   9.693   6.679   9.771  0.0380  0.3356 -0.4992
  171MOL0    Cl22994   9.640   6.852   9.777  0.0750 -0.0714  0.5495
  171MOL0     C22995   9.271   6.228  10.273  0.0526 -0.3496  0.2813
  171MOL0     C22996   9.151   6.194  10.209  1.3660 -0.2739 -0.1952
  171MOL0     O22997   8.916   5.911  10.197 -0.1757 -0.4075 -0.2498
  171MOL0     C22998   8.659   6.120  10.336  0.3711 -0.1873 -0.2539
  171MOL0     C22999   8.522   6.132  10.352 -0.0932 -0.2108  0.2124
  171MOL0     N23000   7.881   6.494  10.249 -0.7937  0.4819 -0.1535
  171MOL0     N23001   7.825   6.607  10.204 -0.1368  1.0171 -0.0196
  171MOL0     C23002   8.568   6.587  10.396 -0.5744 -0.1561 -0.8842
  171MOL0     C23003   8.685   6.597  10.474 -0.9858 -0.2899 -0.1985
  171MOL0     C23004   9.048   6.528  10.711  0.7553  0.1620 -0.4591
  171MOL0     C23005   9.139   6.620  10.656 -0.9249 -0.4758  0.6971
  171MOL0     C23006   9.245   6.672  10.726  0.1752 -0.1402  0.0468
  171MOL0     C23007   9.272   6.637  10.857  0.1891  1.4517  0.1669
  171MOL0     O23008   9.378   6.683  10.935  0.4518 -0.0199 -0.6495
  171MOL0     C23009   9.454   6.796  10.881 -0.3122  0.3781 -0.0786
  171MOL0     C23010   9.559   6.766  10.767  0.2253  0.5088  0.6618
  171MOL0     C23011   9.657   6.657  10.816 -1.1355  0.9534 -0.1595
  171MOL0     C23012   9.770   6.622  10.714  0.3143  0.2350 -0.0505
  171MOL0     C23013   9.875   6.725  10.714  0.1117 -0.2720 -0.0190
  171MOL0     C23014   9.957   6.815  10.706 -0.2135 -0.0682  0.2969
  171MOL0     C23015   9.180   6.549  10.920 -0.2812  0.6647  0.3806
  171MOL0     C23016   9.073   6.491  10.848  0.7681  0.5016  0.5260
  171MOL0     C23017   8.983   6.404  10.922 -0.0706  0.7532 -1.2890
  171MOL0     H23018   8.897   6.416  10.304  0.2510  0.5944 -2.2101
  171MOL0     H23019   8.696   6.401  10.144 -4.4191 -0.7080 -0.4344
  171MOL0     H23020   8.286   6.430  10.152 -0.7026  0.0438 -0.0818
  171MOL0     H23021   8.302   6.459  10.308  0.0763  2.7756  1.6986
  171MOL0     H23022   8.318   6.711  10.257 -1.2105  0.0266  1.4921
  171MOL0     H23023   8.166   6.632  10.210  0.6222 -0.4154  3.4021
  171MOL0     H23024   8.256   6.636   9.969 -2.6810  0.1635  0.9430
  171MOL0     H23025   8.396   6.727  10.018  0.9766  1.1317  1.4668
  171MOL0     H23026   8.254   6.900  10.129  0.9655  1.2132 -0.1202
  171MOL0     H23027   8.260   6.883   9.943  1.3306 -0.1599  0.4195
  171MOL0     H23028   8.023   6.787  10.102  0.3207 -1.9129 -1.3243
  171MOL0     H23029   8.040   6.947  10.030 -1.7770  1.2292 -3.1298
  171MOL0     H23030   8.065   6.818   9.808 -2.8890  0.6377 -2.2186
  171MOL0     H23031   8.050   6.662   9.881 -1.2119 -0.4135  0.5344
  171MOL0     H23032   7.843   6.704   9.791  1.6593 -0.9588  1.2043
  171MOL0     H23033   7.836   6.866   9.847 -3.5450  1.0199  3.6004
  171MOL0     H23034   7.771   6.814  10.050  0.2783  0.3377 -0.5901
  171MOL0     H23035   7.675   6.704   9.958 -0.1692  0.5373  0.4034
  171MOL0     H23036   7.881   6.440   9.919 -0.9722  0.2761 -1.5281
  171MOL0     H23037   7.851   6.244  10.238 -2.2395  1.5991 -2.0288
  171MOL0     H23038   7.883   6.221  10.059  1.8280  0.6922 -0.5530
  171MOL0     H23039   8.140   6.258  10.130  0.1018 -2.1405 -1.6788
  171MOL0     H23040   8.077   6.251  10.295 -1.0580 -1.8877  1.1626
  171MOL0     H23041   8.015   6.036  10.098 -2.9995 -0.8303  1.4190
  171MOL0     H23042   8.003   6.023  10.271 -2.0946  1.7561 -0.8984
  171MOL0     H23043   8.259   6.013  10.106 -1.9025  2.7423 -1.6269
  171MOL0     H23044   8.201   5.917  10.251 -2.9012 -0.8578 -1.7724
  171MOL0     H23045   8.424   5.877  10.149 -1.5299  3.7368 -3.4687
  171MOL0     H23046   8.654   5.854  10.116  0.2561 -0.1701 -0.1020
  171MOL0     H23047   8.985   6.093  10.477  1.4489 -2.8374  2.0632
  171MOL0     H23048   9.223   6.143  10.589 -0.5442 -0.4583  0.8437
  171MOL0     H23049   9.351   6.378  10.601  0.1642  1.1362 -0.2519
  171MOL0     H23050   9.527   6.367  10.581  0.3978 -1.8551 -0.5622
  171MOL0     H23051   9.322   6.490  10.386  1.1702 -3.0215 -1.4483
  171MOL0     H23052   9.430   6.583  10.482 -0.8523  0.2719  0.6503
  171MOL0     H23053   9.629   6.463  10.393 -1.1317  1.1025  0.4643
  171MOL0     H23054   9.532   6.377  10.280  1.3119 -0.5974  0.3048
  171MOL0     H23055   9.520   6.670  10.264 -0.1205 -0.2303  1.3383
  171MOL0     H23056   9.478   6.550  10.142  0.6150  0.7500 -1.6947
  171MOL0     H23057   9.722   6.476  10.139 -1.1420 -1.0593  2.7050
  171MOL0     H23058   9.752   6.624  10.232  0.4217 -1.7039 -0.0137
  171MOL0     H23059   9.668   6.765  10.050  0.7506  0.4886 -1.2981
  171MOL0     H23060   9.806   6.667   9.996 -0.8287  0.7413 -2.4876
  171MOL0     H23061   9.529   6.599   9.926  0.4686  0.5683  2.1967
  171MOL0     H23062   9.673   6.496   9.888 -3.1642 -2.0887 -1.5853
  171MOL0     H23063   9.802   6.679   9.759  0.2114  2.1511  0.5940
  171MOL0     H23064   9.657   6.623   9.685  2.2017 -0.2581 -1.0833
  171MOL0     H23065   9.349   6.264  10.206  0.9794 -1.0284  0.9585
  171MOL0     H23066   9.140   6.202  10.102  1.0293 -1.3993 -0.2549
  171MOL0     H23067   8.727   6.184  10.390 -0.0038  1.6885 -1.8956
  171MOL0     H23068   8.483   6.211  10.416  2.2429  2.4792 -1.4061
  171MOL0     H23069   8.487   6.644  10.440  0.3001  0.9722 -0.6668
  171MOL0     H23070   8.678   6.647  10.570  0.9224  3.0327 -1.6253
  171MOL0     H23071   9.124   6.663  10.558  0.5522 -1.7710 -0.1491
  171MOL0     H23072   9.294   6.756  10.678 -1.4892 -0.0270 -1.5316
  171MOL0     H23073   9.515   6.828  10.965  1.8909 -0.3065 -1.3466
  171MOL0     H23074   9.387   6.877  10.850 -2.4215 -0.9521  0.7679
  171MOL0     H23075   9.629   6.848  10.750  3.7632 -2.1700  1.2378
  171MOL0     H23076   9.501   6.729  10.682  1.5955  0.5100 -0.2922
  171MOL0     H23077   9.609   6.559  10.812  0.8549 -0.1448  1.2177
  171MOL0     H23078   9.703   6.665  10.914 -1.1244  2.3882 -0.2600
  171MOL0     H23079   9.822   6.529  10.740  1.5959  0.8851 -0.1965
  171MOL0     H23080   9.734   6.598  10.613  1.4247 -2.7905  0.1501
  171MOL0     H23081  10.023   6.899  10.696 -0.5840  0.3655  1.3136
  171MOL0     H23082   9.193   6.529  11.025  0.4675  0.4923  0.2620
  171MOL0     H23083   8.988   6.424  11.029  1.3335  3.1818 -1.7437
  171MOL0     H23084   8.881   6.413  10.884  0.0418  1.0213 -1.5316
  171MOL0     H23085   9.017   6.300  10.912 -0.9786  0.1213  1.3050
  172MOL0     O23086   3.858   1.791   9.081 -0.3744  0.0986 -0.2215
  172MOL0     C23087   3.822   1.886   9.009  0.1533 -0.3696 -0.9714
  172MOL0     O23088   3.896   2.000   8.986 -0.1117  0.5756  0.2657
  172MOL0     C23089   4.026   1.987   9.029  0.4966  0.4593 -0.4818
  172MOL0     C23090   4.071   1.993   9.164  0.3959  0.0524  0.4780
  172MOL0     C23091   4.202   2.010   9.200 -0.1506  0.5055 -0.3257
  172MOL0     C23092   4.304   1.996   9.101  0.7888 -0.1624  0.0476
  172MOL0     O23093   4.433   2.001   9.123 -1.4219  0.3264 -0.2967
  172MOL0     C23094   4.473   2.089   9.222  0.9480  0.1196  0.8685
  172MOL0     C23095   4.627   2.115   9.234  0.0664 -0.0320 -0.2202
  172MOL0     C23096   4.692   2.181   9.107 -0.2703  0.4226 -0.3949
  172MOL0     C23097   4.683   2.111   8.971  0.3111 -0.4972 -0.4400
  172MOL0     C23098   4.795   2.176   8.890 -0.7836  0.3007  0.3542
  172MOL0     C23099   4.754   2.306   8.814  0.3912  0.2247  0.0563
  172MOL0     C23100   4.875   2.384   8.760  0.7875 -0.0893 -0.3755
  172MOL0     C23101   4.965   2.314   8.655 -0.3023  0.2959  1.0702
  172MOL0     N23102   5.083   2.400   8.651  0.2304  0.1290  0.5345
  172MOL0     C23103   5.180   2.389   8.752  0.4525  0.1964  0.8412
  172MOL0     C23104   5.239   2.511   8.746  0.2593  0.5711  0.9058
  172MOL0     C23105   5.354   2.560   8.836  0.2035 -0.2884 -0.0233
  172MOL0     C23106   5.492   2.538   8.774 -0.1482  0.5270  0.4352
  172MOL0     C23107   5.595   2.595   8.872  0.8258 -0.6319 -0.9504
  172MOL0     C23108   5.718   2.554   8.812 -0.6300 -1.1491  0.2209
  172MOL0     O23109   5.825   2.593   8.911  0.6139  0.3958 -0.4476
  172MOL0     C23110   5.948   2.552   8.871  0.3921  0.7239  0.7201
  172MOL0     C23111   6.003   2.443   8.942 -0.3240 -0.3102 -0.6420
  172MOL0     C23112   6.139   2.411   8.915  0.5486 -0.2187  0.4244
  172MOL0     C23113   6.219   2.493   8.833  0.0923  0.3806 -1.1194
  172MOL0     C23114   6.363   2.457   8.815 -0.2278 -0.7584  0.5429
  172MOL0     O23115   6.449   2.557   8.770 -0.5242 -0.2425  0.0970
  172MOL0     C23116   6.575   2.516   8.727 -0.4216  0.3344 -0.0065
  172MOL0     C23117   6.596   2.485   8.591 -0.5632 -0.1736  0.0863
  172MOL0     C23118   6.720   2.439   8.557 -0.5184 -0.4574  0.2976
  172MOL0     C23119   6.827   2.433   8.643 -0.5199  0.1132  0.7685
  172MOL0     O23120   6.946   2.380   8.589  0.2552 -0.6183 -0.2551
  172MOL0     C23121   7.072   2.438   8.618 -0.1809  0.7242 -0.4568
  172MOL0     C23122   7.131   2.350   8.734  0.3644  0.9029 -0.1550
  172MOL0     C23123   7.271   2.383   8.772 -0.3819 -0.3644  0.3190
  172MOL0     C23124   7.382   2.381   8.659  0.8886 -0.2667  0.3966
  172MOL0     C23125   7.526   2.355   8.713 -0.6913 -0.3121 -0.4027
  172MOL0     C23126   7.592   2.479   8.769 -0.3897 -0.3024  0.3884
  172MOL0     C23127   7.673   2.553   8.670 -0.2428 -0.1440 -0.8004
  172MOL0     C23128   7.730   2.677   8.742  0.8882 -0.6282 -0.2531
  172MOL0    Cl23129   7.825   2.639   8.894 -0.2523  0.1014  0.0033
  172MOL0     C23130   6.805   2.478   8.773  0.2018  0.6625  0.6263
  172MOL0     C23131   6.677   2.518   8.822 -0.4195 -0.6286  1.0578
  172MOL0     O23132   6.386   2.333   8.818 -0.1865  0.0659 -0.3074
  172MOL0     C23133   6.153   2.596   8.761  0.0380 -0.6517 -0.5397
  172MOL0     C23134   6.017   2.622   8.778 -0.7734  0.0339  0.6071
  172MOL0     N23135   5.177   2.583   8.643 -0.3721 -0.0788  0.1238
  172MOL0     N23136   5.088   2.518   8.582  0.6677 -0.5530 -0.1181
  172MOL0     C23137   4.271   1.982   8.969 -0.2335 -1.0792 -0.2333
  172MOL0     C23138   4.130   1.967   8.939  0.3255  0.2846  0.4119
  172MOL0     C23139   3.691   1.874   8.940  0.2620  0.6709  0.0667
  172MOL0     C23140   3.650   1.746   8.903  0.1571 -0.4509 -1.0409
  172MOL0     C23141   3.524   1.719   8.855 -1.1168 -0.5938  0.5161
  172MOL0     C23142   3.436   1.819   8.821  0.3035  0.2139  1.0040
  172MOL0     O23143   3.309   1.794   8.763  0.1297  0.1682  0.1899
  172MOL0     C23144   3.248   1.672   8.741  0.0636 -0.5069  0.3532
  172MOL0     C23145   3.097   1.691   8.742  0.3766  0.9822 -0.1358
  172MOL0     C23146   3.009   1.577   8.764 -0.3804  0.4919  0.6381
  172MOL0     C23147   3.029   1.461   8.662 -0.0264  0.9464  0.1947
  172MOL0     C23148   2.916   1.367   8.687 -0.6039  0.0005  0.2748
  172MOL0     C23149   2.823   1.291   8.704 -0.8362 -0.0307  0.7707
  172MOL0     C23150   3.482   1.951   8.829 -0.0008 -0.5389 -0.4082
  172MOL0     C23151   3.609   1.977   8.895  0.2966 -0.1997 -0.4780
  172MOL0     C23152   3.634   2.127   8.920  0.3213  0.2748  0.1993
  172MOL0     H23153   4.000   2.001   9.245  1.9467 -4.3826  2.5704
  172MOL0     H23154   4.225   2.015   9.306 -0.6954 -3.5202  0.1148
  172MOL0     H23155   4.427   2.185   9.198  1.4195  0.6099  1.8551
  172MOL0     H23156   4.436   2.052   9.318  0.1279 -0.3151  0.3962
  172MOL0     H23157   4.666   2.013   9.234  1.3473  0.4235  1.0000
  172MOL0     H23158   4.650   2.172   9.324 -2.7277  1.3535 -0.2728
  172MOL0     H23159   4.787   2.223   9.142 -0.2965 -1.5866  2.3487
  172MOL0     H23160   4.642   2.277   9.087 -0.8743  0.6669  1.9943
  172MOL0     H23161   4.702   2.005   8.988 -0.6994 -0.7160 -0.6266
  172MOL0     H23162   4.590   2.131   8.917  1.0563 -0.7817 -1.9075
  172MOL0     H23163   4.883   2.203   8.949  1.5634 -2.1688 -1.7227
  172MOL0     H23164   4.840   2.097   8.829  0.1255  0.1235  1.2325
  172MOL0     H23165   4.697   2.285   8.723  1.3727 -0.4816 -0.4231
  172MOL0     H23166   4.708   2.381   8.878 -0.2555  0.1120 -0.2662
  172MOL0     H23167   4.936   2.408   8.847 -1.3423 -0.0937  1.2035
  172MOL0     H23168   4.854   2.483   8.720  0.4816 -0.0225 -0.0491
  172MOL0     H23169   4.981   2.210   8.686  2.4687  1.0612  2.4760
  172MOL0     H23170   4.910   2.317   8.560  2.8080  1.8596 -0.8332
  172MOL0     H23171   5.200   2.311   8.825  1.8191  2.0471  2.5449
  172MOL0     H23172   5.346   2.666   8.862 -0.6783  0.4580 -2.9826
  172MOL0     H23173   5.343   2.509   8.933  0.3664  2.8716  1.7833
  172MOL0     H23174   5.502   2.432   8.746 -3.8838  0.3240 -0.7693
  172MOL0     H23175   5.490   2.593   8.679 -0.7764  0.7083  0.5446
  172MOL0     H23176   5.580   2.560   8.975 -1.9254  0.1607 -0.9806
  172MOL0     H23177   5.579   2.704   8.871  1.9116 -0.4076  0.9463
  172MOL0     H23178   5.738   2.608   8.719 -0.3719  2.0274  1.9496
  172MOL0     H23179   5.728   2.446   8.797 -1.0806 -1.0073 -1.1741
  172MOL0     H23180   5.949   2.377   9.009  1.3926  0.4204  1.5749
  172MOL0     H23181   6.187   2.326   8.961  0.5168  1.7656  4.5751
  172MOL0     H23182   6.513   2.492   8.522 -1.1180 -0.2091  0.7341
  172MOL0     H23183   6.735   2.412   8.453 -0.8764 -3.3581  0.8900
  172MOL0     H23184   7.143   2.435   8.535  2.3102 -0.7586  1.5721
  172MOL0     H23185   7.059   2.538   8.661  1.3535  0.1311  1.5094
  172MOL0     H23186   7.067   2.357   8.822 -1.3913  3.6712 -1.4975
  172MOL0     H23187   7.140   2.245   8.703 -0.7658  1.0712 -1.1164
  172MOL0     H23188   7.272   2.486   8.809 -0.4184 -0.1652 -0.2343
  172MOL0     H23189   7.300   2.307   8.845 -0.0678 -0.9942 -0.4498
  172MOL0     H23190   7.372   2.476   8.607  1.2446  0.8915  2.3542
  172MOL0     H23191   7.366   2.298   8.590  0.9255  0.3966 -0.4241
  172MOL0     H23192   7.597   2.320   8.638  0.0751 -0.6734  0.4753
  172MOL0     H23193   7.528   2.275   8.787 -0.6189 -0.7243 -0.8463
  172MOL0     H23194   7.527   2.549   8.824  0.4617 -0.1739  1.2650
  172MOL0     H23195   7.674   2.452   8.836  1.1131  0.2827 -1.1445
  172MOL0     H23196   7.610   2.589   8.588  0.4562  2.7430 -0.2042
  172MOL0     H23197   7.751   2.487   8.633  0.5317  1.4738 -2.1703
  172MOL0     H23198   7.789   2.733   8.669 -0.5874 -1.4092 -2.1162
  172MOL0     H23199   7.639   2.730   8.772  0.3510 -1.6892  0.0248
  172MOL0     H23200   6.884   2.480   8.848  1.8779 -3.0523 -0.7828
  172MOL0     H23201   6.662   2.544   8.926 -0.6140 -2.2924  1.4655
  172MOL0     H23202   6.209   2.666   8.700  0.5650 -0.0843  0.5605
  172MOL0     H23203   5.964   2.698   8.722 -0.1770 -0.7122 -1.0255
  172MOL0     H23204   4.354   1.988   8.899  2.8288 -0.4194  3.1960
  172MOL0     H23205   4.101   1.961   8.834 -1.1497 -0.7796  0.8544
  172MOL0     H23206   3.713   1.658   8.912 -0.2391 -0.7193 -0.8663
  172MOL0     H23207   3.507   1.615   8.828  1.9833 -0.6067 -2.0541
  172MOL0     H23208   3.287   1.603   8.816  0.3674 -0.7422 -0.0113
  172MOL0     H23209   3.282   1.626   8.648  2.8244  0.5632  0.7318
  172MOL0     H23210   3.070   1.738   8.646 -3.6802  2.9666  1.7424
  172MOL0     H23211   3.076   1.763   8.822  0.1106 -0.1181  0.7999
  172MOL0     H23212   2.902   1.595   8.754 -0.9338 -1.8019  1.8147
  172MOL0     H23213   3.026   1.555   8.870  2.7525  0.7155  0.2953
  172MOL0     H23214   3.046   1.499   8.561  1.7525  1.9001  0.8150
  172MOL0     H23215   3.120   1.413   8.698  1.7627  3.1114 -1.1546
  172MOL0     H23216   2.743   1.221   8.715 -0.4519 -1.0469 -2.0094
  172MOL0     H23217   3.416   2.028   8.790  4.1559  3.1632 -1.0408
  172MOL0     H23218   3.729   2.149   8.870 -0.2412 -2.3988 -2.3328
  172MOL0     H23219   3.554   2.196   8.893 -1.1943 -1.5326 -0.0896
  172MOL0     H23220   3.648   2.136   9.028 -0.5793  0.1568  0.3283
  173MOL0     O23221   8.215   5.574   8.313  0.0756 -0.5021 -0.5029
  173MOL0     C23222   8.174   5.482   8.251 -0.0993  0.5409  0.0778
  173MOL0     O23223   8.243   5.405   8.162 -0.8156  0.3050 -0.1076
  173MOL0     C23224   8.376   5.433   8.140  0.3769  0.5518 -1.1723
  173MOL0     C23225   8.477   5.358   8.207  0.5134  0.1377  0.7978
  173MOL0     C23226   8.613   5.386   8.186  0.3129 -0.3136  0.0602
  173MOL0     C23227   8.651   5.489   8.102  0.5405  0.0394  0.4168
  173MOL0     O23228   8.779   5.521   8.086  0.0521 -0.3465 -0.7613
  173MOL0     C23229   8.882   5.427   8.101  0.7400 -0.1270  0.1519
  173MOL0     C23230   9.027   5.483   8.071  0.6987 -0.1664  0.1698
  173MOL0     C23231   9.060   5.608   8.148 -0.5779  0.4430  0.5635
  173MOL0     C23232   9.209   5.636   8.144 -0.4507  0.0932  0.3854
  173MOL0     C23233   9.250   5.740   8.249 -0.6304 -0.5095  0.2528
  173MOL0     C23234   9.221   5.709   8.392 -0.0842 -0.0737 -0.3386
  173MOL0     C23235   9.217   5.833   8.481 -0.7631 -0.3609 -0.2270
  173MOL0     C23236   9.311   5.956   8.455  0.1802 -0.2445  1.0506
  173MOL0     N23237   9.450   5.922   8.479 -0.3501 -0.2163 -0.0592
  173MOL0     C23238   9.554   5.909   8.389  0.1995  0.3943  0.3894
  173MOL0     C23239   9.667   5.910   8.461  0.7526  0.1539  0.5330
  173MOL0     C23240   9.811   5.902   8.412 -0.3232 -0.3429  1.0515
  173MOL0     C23241   9.858   5.764   8.450  0.6990 -0.3845  0.2540
  173MOL0     C23242  10.017   5.754   8.465  0.8993  0.1605  0.4912
  173MOL0     C23243  10.111   5.823   8.365 -0.5831  0.5624 -0.2512
  173MOL0     O23244  10.148   5.954   8.401 -0.1876  0.4048 -0.1164
  173MOL0     C23245  10.257   6.014   8.350 -0.3875  0.0815  0.5436
  173MOL0     C23246  10.356   5.967   8.257 -0.4313 -0.8153 -0.8583
  173MOL0     C23247  10.445   6.059   8.202  0.0687  0.4737 -0.7079
  173MOL0     C23248  10.442   6.200   8.227 -0.2339 -0.4796  0.0361
  173MOL0     C23249  10.539   6.300   8.171  0.5179 -0.1897  0.2312
  173MOL0     O23250  10.646   6.254   8.106 -0.1796  0.6188 -0.1730
  173MOL0     C23251  10.741   6.349   8.085  0.0594  0.4442 -0.7622
  173MOL0     C23252  10.748   6.415   7.962 -0.4542  0.3688 -0.9771
  173MOL0     C23253  10.842   6.512   7.934  0.2826  0.5408 -0.0393
  173MOL0     C23254  10.936   6.539   8.034 -0.6895  0.6978  0.5296
  173MOL0     O23255  11.033   6.627   8.002  1.3141  0.5820 -0.1406
  173MOL0     C23256  11.103   6.688   8.109 -0.2853  0.2804 -0.2331
  173MOL0     C23257  11.211   6.780   8.055 -0.4590 -0.4985 -0.0838
  173MOL0     C23258  11.305   6.708   7.958  0.0243  0.4253  0.4914
  173MOL0     C23259  11.424   6.785   7.903 -1.0064  0.2465  0.5645
  173MOL0     C23260  11.496   6.695   7.805 -0.3653  0.1703 -0.2316
  173MOL0     C23261  11.587   6.759   7.708 -0.7965  0.3026 -0.0122
  173MOL0     C23262  11.702   6.839   7.764 -0.3199  0.2735 -0.4189
  173MOL0     C23263  11.847   6.771   7.744  0.0074 -0.9890 -0.5856
  173MOL0    Cl23264  11.906   6.694   7.887 -0.1436 -0.1320  0.0493
  173MOL0     C23265  10.935   6.463   8.155 -0.1140  0.6181 -0.0155
  173MOL0     C23266  10.834   6.367   8.181 -0.5988  0.2360 -0.4076
  173MOL0     O23267  10.523   6.415   8.209 -0.4932 -0.4372 -0.4470
  173MOL0     C23268  10.348   6.237   8.322 -0.1882  0.3463 -0.2184
  173MOL0     C23269  10.256   6.156   8.377  0.7960  0.3490 -0.0582
  173MOL0     N23270   9.640   5.930   8.593  0.0841  0.9137  0.1912
  173MOL0     N23271   9.510   5.925   8.605  0.6625 -0.4824 -0.0842
  173MOL0     C23272   8.548   5.561   8.036 -0.1996 -0.5344  0.4539
  173MOL0     C23273   8.414   5.538   8.058  0.5307  0.8260  0.2122
  173MOL0     C23274   8.044   5.436   8.285 -0.1214 -0.5493 -0.0815
  173MOL0     C23275   7.955   5.535   8.320  0.1078 -1.0496  0.8418
  173MOL0     C23276   7.818   5.517   8.338 -0.6360  0.0690 -0.0552
  173MOL0     C23277   7.758   5.393   8.302  0.4221 -0.8881 -0.8732
  173MOL0     O23278   7.625   5.394   8.303 -0.1468 -0.5442 -0.4196
  173MOL0     C23279   7.572   5.371   8.179 -0.5884  0.5257  0.1874
  173MOL0     C23280   7.426   5.367   8.186  0.6244 -0.3756  0.3393
  173MOL0     C23281   7.359   5.506   8.195 -0.2794 -0.0642 -1.0535
  173MOL0     C23282   7.217   5.503   8.138 -0.6806 -0.1918  0.0401
  173MOL0     C23283   7.138   5.604   8.212  0.0789  0.1337  0.0469
  173MOL0     C23284   7.068   5.673   8.276 -0.6432  0.6876  0.2411
  173MOL0     C23285   7.852   5.288   8.271  0.7135 -0.1437  0.5924
  173MOL0     C23286   7.994   5.307   8.273  0.1543  0.9280 -0.3662
  173MOL0     C23287   8.073   5.182   8.249 -0.7861  0.0871 -0.3134
  173MOL0     H23288   8.437   5.275   8.264 -3.1806  1.7483  0.8516
  173MOL0     H23289   8.691   5.341   8.246 -1.3123  0.3785  2.9013
  173MOL0     H23290   8.887   5.387   8.203  2.2270  0.1748  0.2325
  173MOL0     H23291   8.870   5.349   8.025 -0.4902  0.4118 -0.2208
  173MOL0     H23292   9.029   5.504   7.963 -2.7366  2.2093  0.4259
  173MOL0     H23293   9.093   5.399   8.097  0.3147 -0.4294  0.2947
  173MOL0     H23294   9.034   5.582   8.252  1.0746  1.3077  1.2239
  173MOL0     H23295   8.999   5.691   8.110  1.5339  1.0832 -1.6535
  173MOL0     H23296   9.252   5.538   8.167  2.2603  1.0665 -0.1640
  173MOL0     H23297   9.241   5.680   8.049  0.2985  0.9683  1.0224
  173MOL0     H23298   9.355   5.765   8.232 -0.0303 -3.6866 -1.4632
  173MOL0     H23299   9.191   5.828   8.223  0.0637 -0.1528 -0.1478
  173MOL0     H23300   9.120   5.669   8.405 -0.5325  1.0307 -0.2941
  173MOL0     H23301   9.295   5.646   8.442  1.3177  1.3621 -0.5598
  173MOL0     H23302   9.244   5.806   8.584  1.2824  3.5129  0.4441
  173MOL0     H23303   9.118   5.880   8.474 -0.7880 -0.2561  0.6935
  173MOL0     H23304   9.287   5.989   8.353 -3.0190 -0.3836  1.6463
  173MOL0     H23305   9.287   6.044   8.515  0.0085  0.9499 -0.6790
  173MOL0     H23306   9.540   5.908   8.281  1.1041 -2.2994  0.2124
  173MOL0     H23307   9.823   5.920   8.305 -1.9481 -1.5912  0.6151
  173MOL0     H23308   9.866   5.982   8.462 -2.7317  1.6041  0.8055
  173MOL0     H23309   9.805   5.727   8.539 -0.1776 -2.7835 -1.1570
  173MOL0     H23310   9.820   5.696   8.373 -1.0939 -1.0284  1.6183
  173MOL0     H23311  10.048   5.649   8.468  1.9819  0.4512  0.1174
  173MOL0     H23312  10.047   5.794   8.562 -1.3213  0.8480  0.9506
  173MOL0     H23313  10.077   5.830   8.261  0.6812  3.1727 -0.5743
  173MOL0     H23314  10.199   5.762   8.343 -1.0400 -0.3517  0.3881
  173MOL0     H23315  10.369   5.863   8.230  1.3304 -1.0631  0.7591
  173MOL0     H23316  10.514   6.029   8.124 -0.4631 -1.1917 -0.5731
  173MOL0     H23317  10.674   6.381   7.889 -0.7240 -0.2488 -0.4236
  173MOL0     H23318  10.846   6.569   7.842 -1.1310 -1.1533 -1.2063
  173MOL0     H23319  11.038   6.734   8.184 -0.2135 -0.3608  0.2243
  173MOL0     H23320  11.150   6.612   8.172 -0.3355 -1.2521 -1.9547
  173MOL0     H23321  11.176   6.876   8.017  0.5651  0.7178  1.8992
  173MOL0     H23322  11.274   6.820   8.135 -0.2073 -1.5624  0.2699
  173MOL0     H23323  11.342   6.615   8.001 -0.6263  0.0091  0.1638
  173MOL0     H23324  11.239   6.680   7.876 -0.6076 -0.8751  1.3974
  173MOL0     H23325  11.506   6.798   7.975 -0.4668  1.1714 -0.1845
  173MOL0     H23326  11.406   6.887   7.868  0.9643  0.2375 -0.6383
  173MOL0     H23327  11.428   6.622   7.759  1.3304 -2.9180  1.7785
  173MOL0     H23328  11.568   6.627   7.853 -0.3979 -0.9366 -1.6656
  173MOL0     H23329  11.629   6.675   7.653 -3.4863 -1.0949 -0.0946
  173MOL0     H23330  11.535   6.825   7.638  1.0556 -1.4071 -3.2167
  173MOL0     H23331  11.689   6.859   7.871  0.3102 -0.0783 -0.2691
  173MOL0     H23332  11.718   6.938   7.720  3.1324  0.8573  1.7016
  173MOL0     H23333  11.852   6.695   7.666  3.4992  0.3541 -1.8499
  173MOL0     H23334  11.916   6.847   7.708  1.0149 -1.5085  0.1928
  173MOL0     H23335  11.017   6.469   8.226 -0.6645  3.4804  0.5239
  173MOL0     H23336  10.828   6.330   8.283  0.6167  0.2674 -0.3128
  173MOL0     H23337  10.336   6.338   8.359  1.4277  1.5287 -2.6661
  173MOL0     H23338  10.177   6.188   8.444  0.3683  0.6316 -0.6772
  173MOL0     H23339   8.584   5.650   7.985 -0.8834 -0.6753 -0.2914
  173MOL0     H23340   8.345   5.607   8.011  0.9662 -0.0003 -1.7424
  173MOL0     H23341   7.996   5.636   8.320 -2.0361 -0.0255 -2.1451
  173MOL0     H23342   7.770   5.601   8.388  2.7833  2.1160  0.1446
  173MOL0     H23343   7.619   5.281   8.138 -0.5889  0.8463 -0.5442
  173MOL0     H23344   7.593   5.445   8.101 -0.9075 -0.9308 -1.3550
  173MOL0     H23345   7.399   5.310   8.275 -1.0942  2.6155  1.9199
  173MOL0     H23346   7.393   5.303   8.104  3.8667 -4.3400  1.7980
  173MOL0     H23347   7.414   5.585   8.143 -1.3335  0.9889 -0.6349
  173MOL0     H23348   7.376   5.537   8.298  2.2640 -1.1407 -1.0898
  173MOL0     H23349   7.214   5.534   8.034  1.2750 -1.7558 -0.5291
  173MOL0     H23350   7.181   5.400   8.144 -0.5659 -0.2983 -1.0497
  173MOL0     H23351   7.000   5.732   8.334 -2.5056  0.2766 -1.4324
  173MOL0     H23352   7.825   5.186   8.246  3.0836 -0.2769 -1.9399
  173MOL0     H23353   8.099   5.176   8.142  0.2121 -1.2978 -0.0092
  173MOL0     H23354   8.165   5.181   8.307  1.9800  0.6080 -4.2300
  173MOL0     H23355   8.023   5.090   8.278  1.1088 -1.0623 -0.5189
  174MOL0     O23356   1.319  10.494  10.278  1.1033 -0.3840 -0.0403
  174MOL0     C23357   1.344  10.453  10.166  0.0920 -0.4461 -0.2264
  174MOL0     O23358   1.443  10.365  10.135  0.0810 -0.0308 -0.1917
  174MOL0     C23359   1.532  10.301  10.219 -0.5754 -0.7848 -1.2021
  174MOL0     C23360   1.638  10.232  10.159  0.1936  0.4884  0.2688
  174MOL0     C23361   1.731  10.152  10.227 -0.0739 -0.3006  1.1608
  174MOL0     C23362   1.722  10.152  10.363 -0.3490 -1.0760  0.1448
  174MOL0     O23363   1.811  10.106  10.452 -0.0720  0.3288  1.3374
  174MOL0     C23364   1.941  10.075  10.409 -0.9303 -0.1186  0.1361
  174MOL0     C23365   2.023  10.007  10.517 -0.5603  0.6503 -0.4416
  174MOL0     C23366   2.155   9.953  10.467 -0.4645 -0.4195 -0.7451
  174MOL0     C23367   2.244   9.882  10.565 -0.1118  0.3992  0.2828
  174MOL0     C23368   2.304   9.962  10.679 -0.0514 -0.3288 -0.5137
  174MOL0     C23369   2.420  10.048  10.631  0.2179 -0.1269 -0.1868
  174MOL0     C23370   2.532  10.066  10.735 -0.1915  1.1347 -0.1236
  174MOL0     C23371   2.498  10.182  10.830 -0.4466  0.0786 -0.2890
  174MOL0     N23372   2.495  10.310  10.752 -0.6490 -0.4112  0.1382
  174MOL0     C23373   2.604  10.391  10.726 -0.1346 -0.3781  0.7132
  174MOL0     C23374   2.546  10.499  10.671 -0.0422 -0.0643 -0.5336
  174MOL0     C23375   2.603  10.620  10.611  0.2734 -0.4684  0.6406
  174MOL0     C23376   2.707  10.694  10.697  0.2992 -1.1987  0.0562
  174MOL0     C23377   2.823  10.608  10.736 -0.0625 -0.2760  0.6957
  174MOL0     C23378   2.959  10.699  10.733  0.1203 -0.3951 -0.5357
  174MOL0     O23379   2.964  10.782  10.844 -0.3663 -0.0833 -0.5781
  174MOL0     C23380   3.061  10.877  10.848 -0.4480 -0.0467 -0.6480
  174MOL0     C23381   3.184  10.866  10.783 -0.6195 -0.2485  0.1253
  174MOL0     C23382   3.286  10.966  10.799  0.3970  0.2321  0.7757
  174MOL0     C23383   3.266  11.077  10.881 -0.2752  0.3657 -0.1879
  174MOL0     C23384   3.375  11.179  10.897 -0.4126  0.2034 -0.1351
  174MOL0     O23385   3.499  11.160  10.842 -0.1803  0.2522  0.4844
  174MOL0     C23386   3.594  11.255  10.829 -0.1487 -1.0854 -0.5908
  174MOL0     C23387   3.632  11.343  10.934 -0.7277 -0.7762 -0.2343
  174MOL0     C23388   3.733  11.441  10.914 -0.2653  0.2380 -0.0774
  174MOL0     C23389   3.793  11.445  10.781 -0.0611  0.0020 -1.1909
  174MOL0     O23390   3.890  11.543  10.746  0.6364  0.4934  0.3424
  174MOL0     C23391   3.905  11.662  10.821 -0.0746  1.1620  0.0827
  174MOL0     C23392   3.941  11.785  10.733 -0.2055 -1.1478 -0.8588
  174MOL0     C23393   4.063  11.756  10.648  0.0482 -0.4554  0.8878
  174MOL0     C23394   4.085  11.870  10.545  0.6600 -0.4096  0.1173
  174MOL0     C23395   4.225  11.860  10.471 -0.1699  0.7345 -0.5180
  174MOL0     C23396   4.225  11.948  10.351  0.1849  0.2046 -1.0302
  174MOL0     C23397   4.350  11.932  10.261 -0.0557 -0.0971 -0.4406
  174MOL0     C23398   4.327  11.996  10.127  0.2532  0.4697  0.2865
  174MOL0    Cl23399   4.281  12.168  10.152 -0.0404  0.0055 -0.0279
  174MOL0     C23400   3.753  11.366  10.673 -0.2003 -0.0874  0.1308
  174MOL0     C23401   3.659  11.261  10.702  0.5362  0.0584  0.1768
  174MOL0     O23402   3.339  11.273  10.963  0.6388  1.1017 -0.2453
  174MOL0     C23403   3.142  11.084  10.944  1.1211 -1.5276  0.3820
  174MOL0     C23404   3.037  10.988  10.927  0.1088 -0.3703 -0.3344
  174MOL0     N23405   2.412  10.489  10.671  0.0333  0.4341 -0.4755
  174MOL0     N23406   2.380  10.379  10.732 -0.6360 -1.0335  0.1558
  174MOL0     C23407   1.614  10.217  10.424 -0.3928  0.1469  0.2012
  174MOL0     C23408   1.523  10.292  10.359  0.0131 -0.0348  0.1476
  174MOL0     C23409   1.257  10.493  10.057  0.9043 -0.3831 -0.2288
  174MOL0     C23410   1.120  10.472  10.060  0.3697 -0.1383  0.1489
  174MOL0     C23411   1.042  10.488   9.949 -0.1784  0.4798 -1.0855
  174MOL0     C23412   1.093  10.515   9.824  0.6069 -0.2403  0.2686
  174MOL0     O23413   1.011  10.537   9.719 -0.3734 -0.3722  0.3219
  174MOL0     C23414   0.890  10.457   9.717 -0.6429  0.8337  0.0728
  174MOL0     C23415   0.927  10.308   9.678 -0.2987  0.1726 -0.8388
  174MOL0     C23416   0.967  10.298   9.526 -1.0857 -0.2034 -0.5886
  174MOL0     C23417   0.835  10.240   9.463 -0.1559 -0.2575 -0.3354
  174MOL0     C23418   0.845  10.257   9.317  0.0138 -0.5524 -0.5452
  174MOL0     C23419   0.840  10.300   9.201  0.7694 -0.2185 -0.0239
  174MOL0     C23420   1.232  10.535   9.818 -0.1376  0.6302  0.1138
  174MOL0     C23421   1.308  10.523   9.933  0.7843 -0.1334  0.0588
  174MOL0     C23422   1.452  10.556   9.927 -0.6079  0.6729  0.4192
  174MOL0     H23423   1.640  10.247  10.051  3.4604  0.7129  0.2633
  174MOL0     H23424   1.802  10.099  10.163 -0.1249  0.9662 -0.0067
  174MOL0     H23425   1.935  10.005  10.326  1.4257 -1.4533  1.0032
  174MOL0     H23426   2.000  10.159  10.371  1.6602 -0.6698  2.6184
  174MOL0     H23427   1.955   9.927  10.546  1.3718 -1.9147 -2.4883
  174MOL0     H23428   2.037  10.076  10.601  3.0302 -0.0779 -0.2825
  174MOL0     H23429   2.209  10.035  10.419  1.0918 -0.2607  1.1564
  174MOL0     H23430   2.128   9.874  10.397 -1.8640 -0.3764 -0.2994
  174MOL0     H23431   2.188   9.801  10.615  2.7173 -0.7880  1.7770
  174MOL0     H23432   2.327   9.836  10.512 -0.7581 -0.0227 -0.3823
  174MOL0     H23433   2.241  10.035  10.730  1.7447  1.8389 -1.2509
  174MOL0     H23434   2.326   9.888  10.757  0.3923  1.2994  0.9688
  174MOL0     H23435   2.477  10.003  10.550  1.0213 -0.1236  0.3655
  174MOL0     H23436   2.380  10.141  10.589 -1.5683 -0.4681  0.6351
  174MOL0     H23437   2.624  10.080  10.678 -0.2105  0.1603 -0.4242
  174MOL0     H23438   2.547   9.971  10.786  2.8989 -0.8280 -4.0585
  174MOL0     H23439   2.408  10.156  10.886 -1.1761  0.3420 -1.3096
  174MOL0     H23440   2.575  10.195  10.907  1.6000  3.3038 -2.6245
  174MOL0     H23441   2.707  10.357  10.727 -0.2519 -0.7507  0.3321
  174MOL0     H23442   2.650  10.593  10.516  1.9823  0.6216  1.1154
  174MOL0     H23443   2.524  10.692  10.588  1.6275  0.7149 -0.5054
  174MOL0     H23444   2.732  10.785  10.641  0.4485 -1.0044  0.4358
  174MOL0     H23445   2.657  10.728  10.789  0.7377 -0.2472 -0.0420
  174MOL0     H23446   2.839  10.530  10.662  0.2805  0.1495  0.3166
  174MOL0     H23447   2.816  10.568  10.838  0.0957 -0.4397  0.6432
  174MOL0     H23448   2.967  10.760  10.642  1.5927  3.0026  1.6740
  174MOL0     H23449   3.046  10.634  10.729 -0.2432 -0.8396 -2.8532
  174MOL0     H23450   3.214  10.782  10.722  2.0314 -0.1508  1.1381
  174MOL0     H23451   3.378  10.965  10.741  1.0454  0.0756  1.7786
  174MOL0     H23452   3.582  11.350  11.030  1.3775 -3.0168  1.1361
  174MOL0     H23453   3.752  11.505  11.000  1.0552 -2.8083  2.0883
  174MOL0     H23454   3.814  11.685  10.876  0.0273 -2.3829  2.0477
  174MOL0     H23455   3.981  11.639  10.897  0.0145 -1.1328 -0.6054
  174MOL0     H23456   3.854  11.808  10.671 -2.0576 -2.8020  0.9774
  174MOL0     H23457   3.965  11.870  10.798  1.8898 -0.3277 -2.5844
  174MOL0     H23458   4.154  11.756  10.709  0.8145 -3.0096 -0.1385
  174MOL0     H23459   4.051  11.663  10.592  1.2942  0.6910 -1.4247
  174MOL0     H23460   4.074  11.965  10.598 -1.6221 -0.2671 -0.5132
  174MOL0     H23461   4.006  11.858  10.470 -0.1982  1.9851  0.5553
  174MOL0     H23462   4.264  11.761  10.446  2.7231  1.5611  0.2545
  174MOL0     H23463   4.302  11.891  10.543 -0.1313 -1.2766  0.3657
  174MOL0     H23464   4.127  11.930  10.305 -1.7604  4.4502  0.9783
  174MOL0     H23465   4.206  12.050  10.384 -0.0586 -0.2572  0.3026
  174MOL0     H23466   4.369  11.826  10.242 -4.0141 -1.0309 -0.1978
  174MOL0     H23467   4.437  11.979  10.306 -1.1664  0.1963  1.5020
  174MOL0     H23468   4.415  11.991  10.062 -0.0226 -0.7005 -0.0169
  174MOL0     H23469   4.243  11.947  10.079  0.6369 -0.7008  0.7606
  174MOL0     H23470   3.785  11.377  10.570 -2.6340 -2.8273 -1.0534
  174MOL0     H23471   3.635  11.191  10.623  0.1210  0.7805 -0.3476
  174MOL0     H23472   3.129  11.169  11.009  0.7611 -2.1380  1.1288
  174MOL0     H23473   2.939  11.006  10.970  1.0495  2.4008  0.8572
  174MOL0     H23474   1.618  10.218  10.533 -0.6774 -0.2966  0.2184
  174MOL0     H23475   1.435  10.337  10.405 -1.8078  2.3996 -4.9523
  174MOL0     H23476   1.078  10.438  10.154 -0.2038  1.7901  0.6372
  174MOL0     H23477   0.937  10.482   9.974  0.6752 -0.4180  3.0483
  174MOL0     H23478   0.832  10.490   9.630 -0.2666  0.1213 -0.4561
  174MOL0     H23479   0.817  10.444   9.797 -3.0667 -3.3573 -2.4764
  174MOL0     H23480   0.858  10.227   9.705  0.7209  0.3140  2.5155
  174MOL0     H23481   1.020  10.286   9.731 -2.5689 -0.0732  3.4575
  174MOL0     H23482   1.047  10.225   9.512  0.4820  1.2362  0.4201
  174MOL0     H23483   1.000  10.392   9.480  2.0616  0.3190  2.2960
  174MOL0     H23484   0.819  10.133   9.482 -1.3825 -0.5944 -2.7823
  174MOL0     H23485   0.743  10.287   9.499 -0.8777  0.4322 -2.8431
  174MOL0     H23486   0.846  10.344   9.104  2.7713  3.2066  1.4634
  174MOL0     H23487   1.278  10.565   9.725 -1.1729  1.8537 -0.0280
  174MOL0     H23488   1.485  10.613  10.014 -1.0326 -0.3123  1.2474
  174MOL0     H23489   1.504  10.460   9.932  0.1731  0.8792 -2.2925
  174MOL0     H23490   1.480  10.605   9.833 -1.0284  1.0058  0.4693
  175MOL0     O23491   9.081   8.886   7.300  0.0267  0.2140 -0.2683
  175MOL0     C23492   9.015   8.962   7.231 -1.2325  0.3731  0.6518
  175MOL0     O23493   9.067   9.039   7.128  0.2964  0.0941 -0.2460
  175MOL0     C23494   9.201   9.034   7.104 -0.7096 -0.4733  0.1265
  175MOL0     C23495   9.257   9.169   7.098  0.2448 -0.0520  0.2121
  175MOL0     C23496   9.398   9.179   7.078 -0.7379 -0.9167  0.8108
  175MOL0     C23497   9.474   9.065   7.046  0.2961 -0.3896  0.6504
  175MOL0     O23498   9.599   9.073   6.996 -0.1813  0.1982  0.2109
  175MOL0     C23499   9.694   9.161   7.057 -0.6142 -0.3982  0.4060
  175MOL0     C23500   9.840   9.123   7.020 -0.6893 -0.7132 -0.0570
  175MOL0     C23501   9.883   9.155   6.871 -0.0662  0.1754 -0.2468
  175MOL0     C23502  10.029   9.146   6.853 -0.4567 -0.5895  0.8405
  175MOL0     C23503  10.063   9.202   6.713  0.3147  0.5359 -0.0927
  175MOL0     C23504  10.201   9.171   6.665 -0.3544  0.1054 -0.2180
  175MOL0     C23505  10.312   9.207   6.764 -0.2575  0.5553 -0.6055
  175MOL0     C23506  10.451   9.159   6.708 -0.0645  0.0003 -0.3866
  175MOL0     N23507  10.566   9.201   6.794  0.2816 -0.2633  0.4925
  175MOL0     C23508  10.683   9.129   6.806  0.1889  0.0815 -0.6516
  175MOL0     C23509  10.750   9.200   6.892  0.2536  0.3326  0.0095
  175MOL0     C23510  10.884   9.165   6.946  0.4356  0.0191  0.5586
  175MOL0     C23511  10.993   9.181   6.833  0.7474 -0.1319 -0.7996
  175MOL0     C23512  11.128   9.126   6.879 -0.2607  1.6046 -1.0196
  175MOL0     C23513  11.208   9.117   6.743  0.3675  0.9285  0.4222
  175MOL0     O23514  11.331   9.045   6.778  0.4440  0.1988 -0.0043
  175MOL0     C23515  11.435   9.035   6.693  0.6962 -0.8346  0.2945
  175MOL0     C23516  11.460   9.121   6.584 -0.1923  0.3567  0.0511
  175MOL0     C23517  11.568   9.118   6.500 -0.0821  0.5674  0.7434
  175MOL0     C23518  11.675   9.033   6.526 -0.3409 -0.3768 -1.0957
  175MOL0     C23519  11.794   9.015   6.437 -0.0985 -0.0962 -0.3501
  175MOL0     O23520  11.902   8.948   6.495  0.1168  0.1558  0.5013
  175MOL0     C23521  12.021   8.928   6.432 -0.0539  0.4867 -0.2627
  175MOL0     C23522  12.055   8.931   6.293 -0.0552  0.3230 -0.8386
  175MOL0     C23523  12.187   8.958   6.261 -0.1041 -0.1662  0.0859
  175MOL0     C23524  12.287   8.936   6.352 -0.0432  0.3948 -0.1030
  175MOL0     O23525  12.403   8.970   6.293 -0.3733  0.6808 -0.6501
  175MOL0     C23526  12.520   8.931   6.367 -0.6837 -0.1607 -0.3027
  175MOL0     C23527  12.645   8.996   6.309  0.3311 -0.4978  0.4409
  175MOL0     C23528  12.785   8.940   6.356  0.7347  0.0108  0.1470
  175MOL0     C23529  12.875   8.922   6.234 -0.3002  0.0724  0.2743
  175MOL0     C23530  13.016   8.895   6.279  0.5594  0.6652 -0.5131
  175MOL0     C23531  13.097   9.021   6.314 -0.2406 -0.9592 -0.6021
  175MOL0     C23532  13.244   8.999   6.311 -0.4020 -0.0779 -0.5520
  175MOL0     C23533  13.334   9.126   6.324  0.0786  0.6849 -0.1831
  175MOL0    Cl23534  13.307   9.199   6.491 -0.2277  0.1364  0.4438
  175MOL0     C23535  12.266   8.901   6.484  1.0349  0.4432  0.1074
  175MOL0     C23536  12.126   8.899   6.521 -1.0158  0.2349 -0.5390
  175MOL0     O23537  11.790   9.063   6.324 -0.6163  0.2116  0.1844
  175MOL0     C23538  11.651   8.950   6.643 -0.0516  0.0493  0.0113
  175MOL0     C23539  11.538   8.948   6.724  0.4427 -1.1339 -0.1055
  175MOL0     N23540  10.674   9.308   6.937 -0.0423  0.2239  0.2639
  175MOL0     N23541  10.562   9.308   6.875  1.0427  0.1771 -0.5437
  175MOL0     C23542   9.426   8.934   7.061  0.6905  0.0076  0.4659
  175MOL0     C23543   9.289   8.921   7.092  0.3866  0.2735 -0.3736
  175MOL0     C23544   8.866   8.966   7.259  0.2116  0.4957  0.7516
  175MOL0     C23545   8.820   9.092   7.284  0.2612 -0.1765  0.5304
  175MOL0     C23546   8.684   9.102   7.319 -0.9039  0.0681  0.1462
  175MOL0     C23547   8.592   8.998   7.301 -0.0352  0.7133 -0.1300
  175MOL0     O23548   8.458   9.008   7.313  1.0529  0.0703  0.5048
  175MOL0     C23549   8.399   9.133   7.356  0.4623  1.1569 -0.0028
  175MOL0     C23550   8.244   9.139   7.364 -0.4107  0.5210 -0.4156
  175MOL0     C23551   8.196   9.277   7.419  0.6979  1.4618  0.4735
  175MOL0     C23552   8.040   9.275   7.421  0.1946  0.6198 -0.3572
  175MOL0     C23553   7.993   9.401   7.477 -0.1773 -0.4947  0.1007
  175MOL0     C23554   7.962   9.513   7.519  1.1952 -0.6689 -0.3161
  175MOL0     C23555   8.646   8.870   7.277 -0.2742  0.0473  0.3278
  175MOL0     C23556   8.782   8.855   7.244 -0.2412 -1.0730 -0.2342
  175MOL0     C23557   8.835   8.724   7.211 -0.0217 -0.9437 -0.0103
  175MOL0     H23558   9.193   9.255   7.112 -0.7243 -0.9635  1.6827
  175MOL0     H23559   9.446   9.276   7.087  1.2960 -1.8486  0.5920
  175MOL0     H23560   9.672   9.265   7.030 -0.0041 -0.3985 -0.1342
  175MOL0     H23561   9.681   9.171   7.165 -1.9362  4.7146  0.0351
  175MOL0     H23562   9.847   9.014   7.028 -2.4380 -0.8576 -0.1918
  175MOL0     H23563   9.900   9.182   7.090 -1.0904 -0.0706 -0.2405
  175MOL0     H23564   9.850   9.257   6.847  1.2323  0.3451 -1.4057
  175MOL0     H23565   9.829   9.080   6.812 -0.8222  0.5979 -0.1066
  175MOL0     H23566  10.078   9.197   6.936 -2.4480  1.1734  0.9937
  175MOL0     H23567  10.056   9.040   6.857  1.1657 -0.2633 -0.3513
  175MOL0     H23568   9.995   9.151   6.644  0.0609 -2.3147  2.0534
  175MOL0     H23569  10.040   9.309   6.711  0.0895  0.5835  2.1097
  175MOL0     H23570  10.210   9.062   6.668 -2.7980 -0.1492 -0.0131
  175MOL0     H23571  10.222   9.196   6.561 -0.2395  0.4447 -0.1137
  175MOL0     H23572  10.304   9.156   6.860  4.1766  0.2156 -0.2160
  175MOL0     H23573  10.324   9.315   6.778  1.3501  0.9118 -3.8844
  175MOL0     H23574  10.464   9.051   6.704  3.0816  0.2614  0.7295
  175MOL0     H23575  10.470   9.197   6.607 -0.9702 -0.2796 -0.6733
  175MOL0     H23576  10.710   9.033   6.763  1.6234  0.8140 -1.4644
  175MOL0     H23577  10.913   9.234   7.025  2.9802 -0.3626  0.0454
  175MOL0     H23578  10.887   9.064   6.987 -3.4462 -1.5365 -2.3123
  175MOL0     H23579  10.954   9.126   6.747  1.0843 -1.0814 -0.3600
  175MOL0     H23580  11.011   9.285   6.807  1.5539 -0.3263 -1.0293
  175MOL0     H23581  11.116   9.025   6.919  1.6746  0.7605 -2.4215
  175MOL0     H23582  11.193   9.180   6.949 -1.8650 -0.7078  2.5618
  175MOL0     H23583  11.232   9.214   6.699  3.0678  0.0403 -0.2499
  175MOL0     H23584  11.145   9.056   6.677  0.3834  1.2358  0.1218
  175MOL0     H23585  11.380   9.191   6.562 -0.3877  0.5838  1.3686
  175MOL0     H23586  11.573   9.181   6.412 -0.5608  1.1596  1.1294
  175MOL0     H23587  11.973   8.937   6.221 -2.4836  1.1641  1.8079
  175MOL0     H23588  12.200   8.990   6.158 -3.8438  1.6517  0.0152
  175MOL0     H23589  12.531   8.979   6.465 -2.2846 -0.5856  0.1050
  175MOL0     H23590  12.527   8.822   6.371  0.4188 -0.0883  0.1673
  175MOL0     H23591  12.648   8.983   6.201  2.4488 -0.4119  0.4387
  175MOL0     H23592  12.639   9.103   6.331  2.8134  0.2769 -2.0365
  175MOL0     H23593  12.823   9.015   6.425  2.9248  1.6847 -2.6581
  175MOL0     H23594  12.778   8.845   6.411  2.4216 -0.7586 -0.8983
  175MOL0     H23595  12.866   9.005   6.164 -0.6575  0.4469  0.7687
  175MOL0     H23596  12.836   8.836   6.178 -1.8481  1.5814 -1.0460
  175MOL0     H23597  13.063   8.852   6.190 -0.0464 -0.3790 -0.3474
  175MOL0     H23598  13.011   8.814   6.353 -1.5936  1.3051  0.1050
  175MOL0     H23599  13.060   9.098   6.245 -2.4268 -0.4229  1.0544
  175MOL0     H23600  13.070   9.040   6.418 -0.6296  0.6901 -0.9738
  175MOL0     H23601  13.276   8.945   6.221  2.5374 -1.7339  1.3224
  175MOL0     H23602  13.267   8.925   6.388 -0.1443 -0.7559 -1.2708
  175MOL0     H23603  13.436   9.089   6.307  0.8779  2.4014  0.6526
  175MOL0     H23604  13.306   9.201   6.250 -1.7956  2.1828  1.9143
  175MOL0     H23605  12.339   8.876   6.561 -1.1936  0.5557  2.4044
  175MOL0     H23606  12.094   8.898   6.625 -2.5568 -1.3050 -0.9930
  175MOL0     H23607  11.730   8.877   6.661  0.7826  0.9222 -0.0336
  175MOL0     H23608  11.522   8.883   6.810  0.3813 -2.6561 -1.2150
  175MOL0     H23609   9.484   8.843   7.053  0.7408 -0.0375  1.2602
  175MOL0     H23610   9.261   8.817   7.105 -0.1533  0.5869  1.3604
  175MOL0     H23611   8.878   9.183   7.282  1.7031 -1.0709  0.6124
  175MOL0     H23612   8.644   9.201   7.338 -2.8573  0.0286 -3.0324
  175MOL0     H23613   8.436   9.213   7.291  1.1434  0.0548 -1.0220
  175MOL0     H23614   8.442   9.157   7.454  0.5822 -1.1319  0.5681
  175MOL0     H23615   8.217   9.058   7.432 -0.0030  1.5135  0.9576
  175MOL0     H23616   8.195   9.124   7.267  0.1575 -2.4422 -0.3220
  175MOL0     H23617   8.234   9.354   7.351  1.5565  0.0256 -0.7563
  175MOL0     H23618   8.234   9.297   7.519 -1.5520  3.6755  0.9988
  175MOL0     H23619   8.000   9.254   7.321  1.8493  1.2710 -1.2031
  175MOL0     H23620   8.012   9.187   7.480  0.5973  0.4422 -0.4215
  175MOL0     H23621   7.943   9.607   7.567 -4.2268 -1.7684  0.3419
  175MOL0     H23622   8.573   8.790   7.268 -0.2728  0.0193  0.5443
  175MOL0     H23623   8.898   8.693   7.295  0.1029 -1.9105 -0.4434
  175MOL0     H23624   8.751   8.657   7.191 -0.2404 -0.4816 -0.6665
  175MOL0     H23625   8.888   8.729   7.115  1.6615  0.8747  0.9394
  176MOL0     O23626   5.007   8.118  11.124  0.4438  0.4251 -0.1582
  176MOL0     C23627   5.074   8.181  11.040 -0.9069 -0.4616  1.3592
  176MOL0     O23628   5.038   8.212  10.913 -0.1557 -0.3815  0.0405
  176MOL0     C23629   4.918   8.163  10.872  0.1085 -0.9043 -0.1878
  176MOL0     C23630   4.802   8.242  10.870 -0.7887 -0.3261 -0.1856
  176MOL0     C23631   4.687   8.193  10.813 -0.5265 -0.2570 -0.5359
  176MOL0     C23632   4.685   8.066  10.761 -0.1840 -0.1251 -0.4911
  176MOL0     O23633   4.565   8.015  10.711 -0.0002 -0.2588 -0.0924
  176MOL0     C23634   4.560   7.893  10.646 -0.1334  0.1393  0.2025
  176MOL0     C23635   4.427   7.859  10.580 -0.4144 -0.6397 -0.5646
  176MOL0     C23636   4.389   7.957  10.463  0.0134 -0.2061 -0.7801
  176MOL0     C23637   4.440   7.901  10.329  0.6499 -0.6631 -0.3841
  176MOL0     C23638   4.454   8.014  10.226  0.0728  0.1678 -0.3366
  176MOL0     C23639   4.344   8.123  10.222  0.3739 -0.4869 -0.6573
  176MOL0     C23640   4.406   8.255  10.197  0.1620 -0.3105  0.5681
  176MOL0     C23641   4.478   8.313  10.317 -1.0438 -0.1869 -0.0875
  176MOL0     N23642   4.624   8.296  10.324 -0.8999  0.7616  0.0906
  176MOL0     C23643   4.694   8.205  10.402  0.4877  0.5230  0.1942
  176MOL0     C23644   4.816   8.198  10.351 -0.9601  0.0494 -0.3722
  176MOL0     C23645   4.917   8.089  10.391  0.4743 -0.1113 -0.1570
  176MOL0     C23646   5.063   8.103  10.347  0.0665  0.5328  0.0700
  176MOL0     C23647   5.134   8.240  10.365 -0.2674  0.0725 -0.6610
  176MOL0     C23648   5.283   8.237  10.329  0.1995 -0.7848 -0.3213
  176MOL0     O23649   5.367   8.139  10.398 -0.9793  0.3294 -0.5982
  176MOL0     C23650   5.507   8.151  10.401 -0.3137 -1.1237 -0.1542
  176MOL0     C23651   5.582   8.231  10.314  0.2361  0.4753 -0.3379
  176MOL0     C23652   5.725   8.234  10.318 -1.0230 -0.0652 -0.9399
  176MOL0     C23653   5.788   8.138  10.409 -0.4403  0.7752 -0.0947
  176MOL0     C23654   5.940   8.127  10.427 -0.1429  0.2773  1.1076
  176MOL0     O23655   6.015   8.208  10.349  0.9847 -0.0396  0.2217
  176MOL0     C23656   6.152   8.210  10.357 -0.4901 -0.5099 -0.1013
  176MOL0     C23657   6.219   8.214  10.478  0.2930  0.7682  0.5509
  176MOL0     C23658   6.357   8.212  10.475 -0.0597  0.2140 -0.2643
  176MOL0     C23659   6.432   8.196  10.362  0.2890  1.2185  1.0759
  176MOL0     O23660   6.565   8.189  10.386  0.6990 -0.0977 -0.1113
  176MOL0     C23661   6.657   8.225  10.279  0.0763 -0.7515  0.1587
  176MOL0     C23662   6.792   8.271  10.341  1.0200 -0.1609  0.1658
  176MOL0     C23663   6.794   8.365  10.453  0.1768 -0.4414 -0.4312
  176MOL0     C23664   6.925   8.450  10.452 -0.0332  0.5276  0.0255
  176MOL0     C23665   6.940   8.522  10.587 -0.3287 -0.4512 -0.2071
  176MOL0     C23666   7.071   8.602  10.608  0.9174 -0.1306 -0.2520
  176MOL0     C23667   7.097   8.659  10.752 -0.0495  0.1203  0.5419
  176MOL0     C23668   7.227   8.739  10.759 -0.1136  0.4958 -0.7225
  176MOL0    Cl23669   7.364   8.634  10.708  0.0099  0.1177  0.0855
  176MOL0     C23670   6.362   8.199  10.230 -1.0549 -0.5980 -0.5611
  176MOL0     C23671   6.226   8.210  10.239 -0.2349 -1.1560  0.1465
  176MOL0     O23672   5.980   8.029  10.485 -0.2550 -0.0060  0.8106
  176MOL0     C23673   5.709   8.050  10.480 -0.0867 -0.0749  0.3323
  176MOL0     C23674   5.572   8.063  10.476 -0.2959  0.9053  0.0378
  176MOL0     N23675   4.821   8.289  10.254  0.6671 -0.0322  0.6481
  176MOL0     N23676   4.711   8.344  10.229  0.4348  0.4320  0.2336
  176MOL0     C23677   4.809   7.992  10.763  0.1462 -0.0658 -1.1144
  176MOL0     C23678   4.927   8.037  10.821  0.4800  0.8322  0.4139
  176MOL0     C23679   5.212   8.222  11.076 -1.4879  0.0314 -0.6325
  176MOL0     C23680   5.246   8.236  11.211  0.0710  0.3558  0.4386
  176MOL0     C23681   5.363   8.289  11.255  0.2089 -0.1581 -0.4762
  176MOL0     C23682   5.466   8.318  11.166 -0.5999 -0.3689  0.0968
  176MOL0     O23683   5.590   8.365  11.210  0.3245  0.0551 -0.3811
  176MOL0     C23684   5.611   8.387  11.356 -0.1952  0.5853 -0.9011
  176MOL0     C23685   5.754   8.428  11.390 -0.0968  0.6265  0.6416
  176MOL0     C23686   5.781   8.442  11.538 -0.3993 -1.3958  0.4393
  176MOL0     C23687   5.931   8.471  11.563 -0.4700  0.0140  0.0655
  176MOL0     C23688   6.023   8.353  11.549  0.5395  0.6080  0.3937
  176MOL0     C23689   6.087   8.257  11.534  0.1564  0.6203  0.5825
  176MOL0     C23690   5.445   8.299  11.032  0.5603 -0.1641  0.5863
  176MOL0     C23691   5.322   8.235  10.978 -0.2587 -0.1679 -0.0866
  176MOL0     C23692   5.321   8.195  10.833 -0.2617  0.0555 -0.0549
  176MOL0     H23693   4.797   8.342  10.912  0.2875 -0.4831  0.3345
  176MOL0     H23694   4.600   8.257  10.818 -0.5236 -0.2810 -0.1660
  176MOL0     H23695   4.641   7.894  10.573 -0.7387  0.7038 -0.4809
  176MOL0     H23696   4.578   7.813  10.718 -2.4560 -1.0419 -0.4276
  176MOL0     H23697   4.354   7.888  10.657 -0.3037 -2.2595  0.1747
  176MOL0     H23698   4.421   7.753  10.554  0.9207 -0.7210 -0.6282
  176MOL0     H23699   4.427   8.058  10.481 -1.0564  0.6837 -3.2156
  176MOL0     H23700   4.281   7.971  10.458 -0.0941 -1.0423 -0.9576
  176MOL0     H23701   4.538   7.853  10.336  0.3373 -1.2225  0.2722
  176MOL0     H23702   4.373   7.819  10.297  2.2027 -0.5066 -4.7329
  176MOL0     H23703   4.556   8.053  10.235  0.9802 -1.7963 -1.3794
  176MOL0     H23704   4.448   7.956  10.133 -0.4769  0.4854 -0.5046
  176MOL0     H23705   4.265   8.097  10.152 -0.2081  1.0926 -0.6282
  176MOL0     H23706   4.294   8.143  10.318  1.8155  1.1051 -0.1845
  176MOL0     H23707   4.329   8.329  10.172  2.0476  0.9818 -1.8164
  176MOL0     H23708   4.477   8.263  10.114 -0.3427 -2.2914 -0.1113
  176MOL0     H23709   4.462   8.421  10.320 -0.9197 -0.1848  0.4575
  176MOL0     H23710   4.432   8.284  10.412 -1.4659 -1.4522 -0.6515
  176MOL0     H23711   4.651   8.145  10.482  1.0722 -0.5138 -0.2478
  176MOL0     H23712   4.922   8.073  10.499 -0.0689 -0.8645 -0.2387
  176MOL0     H23713   4.883   7.990  10.361  2.0580 -0.0667 -2.3687
  176MOL0     H23714   5.134   8.030  10.386 -1.1798 -0.2991  0.8705
  176MOL0     H23715   5.057   8.095  10.238 -2.6781 -0.0894  0.1753
  176MOL0     H23716   5.125   8.265  10.471  0.4449 -1.2139 -0.2738
  176MOL0     H23717   5.087   8.306  10.292 -0.2310 -1.4547 -2.1401
  176MOL0     H23718   5.329   8.335  10.344  1.3839 -1.0432 -1.9468
  176MOL0     H23719   5.299   8.217  10.223 -0.8721  2.2069 -1.1487
  176MOL0     H23720   5.541   8.306  10.247  0.9143  1.4020  0.2820
  176MOL0     H23721   5.786   8.299  10.256  1.2742 -1.4395 -0.2216
  176MOL0     H23722   6.159   8.209  10.568  2.0073 -0.9480  1.6788
  176MOL0     H23723   6.413   8.207  10.568 -0.0858 -2.9348 -0.3192
  176MOL0     H23724   6.679   8.144  10.209  2.6785  1.3786 -1.6697
  176MOL0     H23725   6.616   8.321  10.247  1.8794  0.4898  1.4512
  176MOL0     H23726   6.848   8.180  10.365  1.3450 -0.0885 -0.3158
  176MOL0     H23727   6.851   8.317  10.262  3.7470 -2.1634  0.8880
  176MOL0     H23728   6.699   8.418  10.442 -0.5481 -1.4318  0.8959
  176MOL0     H23729   6.791   8.306  10.545  1.0181 -1.3457 -0.9541
  176MOL0     H23730   6.923   8.527  10.373  0.1997  0.5992  0.0896
  176MOL0     H23731   7.008   8.382  10.431 -1.0004 -1.1278  1.3615
  176MOL0     H23732   6.933   8.451  10.670  4.0227 -0.1019  0.7334
  176MOL0     H23733   6.859   8.594  10.595  0.5241  0.5184 -0.0588
  176MOL0     H23734   7.151   8.538  10.570 -0.4926 -1.2543 -1.4250
  176MOL0     H23735   7.063   8.692  10.547 -0.7233  0.7654  1.2113
  176MOL0     H23736   7.102   8.580  10.827  1.8867  1.4032  1.8729
  176MOL0     H23737   7.020   8.734  10.772 -0.4985  0.2819 -1.5687
  176MOL0     H23738   7.220   8.820  10.685 -0.2639 -1.6920 -3.2752
  176MOL0     H23739   7.237   8.772  10.863 -2.2990 -2.7662  0.6702
  176MOL0     H23740   6.421   8.193  10.139 -1.4026  0.2797 -0.8488
  176MOL0     H23741   6.163   8.207  10.151  0.1799 -1.5066 -0.1385
  176MOL0     H23742   5.753   7.973  10.542  1.4004  0.8926  0.5323
  176MOL0     H23743   5.512   7.991  10.531  0.2088 -0.9613 -1.7573
  176MOL0     H23744   4.811   7.891  10.722 -1.3375 -0.2424 -0.8117
  176MOL0     H23745   5.015   7.975  10.829 -0.4864 -0.5866  0.4768
  176MOL0     H23746   5.172   8.225  11.290  1.4401 -2.2292  1.4862
  176MOL0     H23747   5.368   8.320  11.359  1.1796 -0.7901 -0.3196
  176MOL0     H23748   5.591   8.291  11.403  0.8305  0.4624 -0.7067
  176MOL0     H23749   5.540   8.464  11.390 -3.6887 -1.4624 -2.9264
  176MOL0     H23750   5.767   8.518  11.329  0.0914  0.2622  0.1455
  176MOL0     H23751   5.819   8.352  11.347 -0.9171  0.7809 -0.9629
  176MOL0     H23752   5.746   8.354  11.592  2.1071 -0.7621  3.3946
  176MOL0     H23753   5.726   8.525  11.583  0.3567  0.0476 -1.1524
  176MOL0     H23754   5.959   8.549  11.492  1.0328 -1.2730 -0.8114
  176MOL0     H23755   5.939   8.489  11.671  2.8530  0.7802 -0.1967
  176MOL0     H23756   6.148   8.175  11.501  0.2885  0.6840  0.6670
  176MOL0     H23757   5.525   8.329  10.965 -0.2158  0.3676 -0.1123
  176MOL0     H23758   5.256   8.111  10.808  2.0041 -1.9122  0.3379
  176MOL0     H23759   5.301   8.284  10.772  0.7480 -0.7014 -1.5617
  176MOL0     H23760   5.420   8.162  10.802 -0.8533 -2.2441  0.3472
  177MOL0     O23761   5.640   2.489  11.100 -1.2081  1.0791  0.7796
  177MOL0     C23762   5.604   2.576  11.183  0.3771  0.2338 -0.3103
  177MOL0     O23763   5.678   2.638  11.277  0.6036  0.5421 -0.1243
  177MOL0     C23764   5.812   2.626  11.299 -0.3824 -0.1144  0.1807
  177MOL0     C23765   5.898   2.734  11.321  0.5336  0.3579 -1.0327
  177MOL0     C23766   6.037   2.709  11.346  0.0552 -0.5297  0.3266
  177MOL0     C23767   6.095   2.582  11.330 -0.1385 -0.5456 -0.1990
  177MOL0     O23768   6.229   2.557  11.350  0.1221 -0.1925 -0.3699
  177MOL0     C23769   6.284   2.635  11.452  0.8718  0.0184 -0.4823
  177MOL0     C23770   6.428   2.577  11.476  0.6273  0.0315  0.6296
  177MOL0     C23771   6.489   2.639  11.613  0.7657 -0.6833  0.9237
  177MOL0     C23772   6.642   2.596  11.638  0.5682 -0.3229  0.4353
  177MOL0     C23773   6.752   2.687  11.580 -0.5138  0.2152  0.3884
  177MOL0     C23774   6.889   2.649  11.634 -0.1176  0.5566 -0.6961
  177MOL0     C23775   6.980   2.773  11.636  0.1587 -0.3588 -0.6704
  177MOL0     C23776   7.122   2.725  11.668 -0.2782 -0.6298 -0.5047
  177MOL0     N23777   7.223   2.837  11.671 -0.1308 -0.2380 -0.2090
  177MOL0     C23778   7.200   2.971  11.677  0.3617 -0.5625 -0.0541
  177MOL0     C23779   7.324   3.037  11.684  0.2061 -0.4554 -0.8617
  177MOL0     C23780   7.335   3.189  11.700  0.6008  0.7672 -0.8551
  177MOL0     C23781   7.473   3.224  11.662  0.4685 -0.9369 -0.1691
  177MOL0     C23782   7.515   3.368  11.625  0.7914  0.0732 -0.2211
  177MOL0     C23783   7.662   3.385  11.666  0.0648 -0.3267  0.3716
  177MOL0     O23784   7.692   3.515  11.604 -0.7367  0.8472  0.2095
  177MOL0     C23785   7.819   3.577  11.628  0.4437  0.1850 -0.0430
  177MOL0     C23786   7.837   3.704  11.581 -0.0580  1.0180 -0.8097
  177MOL0     C23787   7.962   3.772  11.583 -0.3389 -0.2339  0.0522
  177MOL0     C23788   8.070   3.709  11.663 -0.7319 -0.4054  0.4886
  177MOL0     C23789   8.202   3.782  11.665 -0.9647  0.2123  0.4298
  177MOL0     O23790   8.220   3.893  11.594 -0.3486  0.2629 -0.6689
  177MOL0     C23791   8.340   3.964  11.604 -0.0695  0.3295 -0.9280
  177MOL0     C23792   8.446   3.930  11.529  0.5380 -0.0604  0.1894
  177MOL0     C23793   8.568   3.993  11.554  0.0446 -0.2172  0.2558
  177MOL0     C23794   8.584   4.089  11.656 -0.2237 -0.3134  1.3778
  177MOL0     O23795   8.709   4.140  11.682 -0.7179  0.1959 -0.5957
  177MOL0     C23796   8.741   4.209  11.803 -0.3810  1.1482  0.0859
  177MOL0     C23797   8.885   4.245  11.815 -0.5655  0.3595  0.1563
  177MOL0     C23798   8.919   4.370  11.728 -0.7022 -0.1590 -0.2087
  177MOL0     C23799   8.895   4.348  11.575 -0.0673 -0.4761 -0.7018
  177MOL0     C23800   8.933   4.482  11.507  0.2354 -0.5608  0.2964
  177MOL0     C23801   8.828   4.594  11.512  0.2787  0.0431  0.0043
  177MOL0     C23802   8.860   4.712  11.416  0.2612  0.7481 -0.9394
  177MOL0     C23803   8.991   4.782  11.447  0.7689  0.9297 -0.6541
  177MOL0    Cl23804   8.977   4.943  11.371  0.3334 -0.2983 -0.0408
  177MOL0     C23805   8.473   4.122  11.727 -1.0021  1.2871 -0.2830
  177MOL0     C23806   8.351   4.068  11.694  0.8425 -0.4817 -0.7686
  177MOL0     O23807   8.288   3.741  11.742  0.6057  0.3111 -0.7366
  177MOL0     C23808   8.041   3.582  11.722 -1.2353  0.2829  0.4770
  177MOL0     C23809   7.927   3.511  11.691  0.3720  0.8425 -0.3973
  177MOL0     N23810   7.424   2.934  11.695  1.0211  0.4010  0.7614
  177MOL0     N23811   7.364   2.817  11.679 -0.1397  0.0523  0.9341
  177MOL0     C23812   6.004   2.483  11.293  0.8426 -0.0765  0.5657
  177MOL0     C23813   5.870   2.499  11.278 -0.5397 -0.0295  1.0057
  177MOL0     C23814   5.456   2.596  11.213 -0.1585  0.3511  0.7148
  177MOL0     C23815   5.423   2.723  11.267 -0.3036  0.0962  0.0298
  177MOL0     C23816   5.290   2.745  11.287  0.2887  0.5867 -0.7219
  177MOL0     C23817   5.201   2.642  11.263  0.6212  0.6762  0.6165
  177MOL0     O23818   5.064   2.656  11.291  0.9255  0.2605  0.7786
  177MOL0     C23819   5.000   2.788  11.285  1.0615  1.0959  0.2152
  177MOL0     C23820   4.846   2.748  11.278 -0.5831  0.1333 -1.2234
  177MOL0     C23821   4.792   2.670  11.161 -0.7614 -0.0199  0.8713
  177MOL0     C23822   4.629   2.651  11.180  0.2544  0.1045 -0.0461
  177MOL0     C23823   4.577   2.567  11.073 -0.4336  0.1574  0.0233
  177MOL0     C23824   4.519   2.494  10.997 -1.0120 -0.0156  0.3212
  177MOL0     C23825   5.236   2.515  11.228 -0.2846 -0.0414 -0.0117
  177MOL0     C23826   5.362   2.491  11.189 -0.2512  0.5123 -0.0830
  177MOL0     C23827   5.396   2.351  11.146  0.4383 -0.3605 -0.3016
  177MOL0     H23828   5.852   2.828  11.347 -2.7848 -1.8276  1.8472
  177MOL0     H23829   6.095   2.801  11.352 -2.3556  1.0004  2.0573
  177MOL0     H23830   6.294   2.741  11.427  0.5995  0.0183 -0.5886
  177MOL0     H23831   6.209   2.636  11.531 -1.2353  0.2077 -2.3960
  177MOL0     H23832   6.486   2.605  11.387  1.1679  0.6403  1.1631
  177MOL0     H23833   6.407   2.469  11.474 -0.0142  0.1489 -1.0134
  177MOL0     H23834   6.419   2.610  11.692 -2.3019  2.7711 -0.2136
  177MOL0     H23835   6.483   2.748  11.610  3.1529 -0.4754  1.6542
  177MOL0     H23836   6.648   2.592  11.747  0.0256 -2.0731  0.4280
  177MOL0     H23837   6.671   2.497  11.602 -0.0489 -1.0695  1.9180
  177MOL0     H23838   6.752   2.684  11.470  1.1359 -2.7810  0.3807
  177MOL0     H23839   6.732   2.791  11.607  1.4484  1.0756 -1.1576
  177MOL0     H23840   6.870   2.611  11.735 -2.5051  2.5402 -0.3147
  177MOL0     H23841   6.925   2.568  11.570 -2.9958  0.2239 -2.0303
  177MOL0     H23842   6.951   2.833  11.722 -1.2744 -1.6942 -0.1663
  177MOL0     H23843   6.971   2.837  11.548  1.2913  1.7773  0.6896
  177MOL0     H23844   7.122   2.678  11.766  1.7529  0.1047 -0.1177
  177MOL0     H23845   7.148   2.650  11.592 -0.4832 -0.1752 -1.0376
  177MOL0     H23846   7.103   3.019  11.679  1.2422  1.2955  0.3505
  177MOL0     H23847   7.262   3.234  11.632  0.7971  0.6042 -1.1754
  177MOL0     H23848   7.303   3.194  11.804 -1.7940 -2.2167 -1.3102
  177MOL0     H23849   7.530   3.202  11.753  1.0255  3.7614  0.8518
  177MOL0     H23850   7.506   3.158  11.580 -1.3093 -1.3420 -0.5887
  177MOL0     H23851   7.466   3.446  11.684  1.8855 -0.9737  2.2209
  177MOL0     H23852   7.490   3.384  11.520 -1.0331 -2.0654 -0.1847
  177MOL0     H23853   7.725   3.310  11.618 -0.7190 -0.3813 -0.6085
  177MOL0     H23854   7.677   3.390  11.775 -4.9379  1.6023  1.2682
  177MOL0     H23855   7.760   3.757  11.525 -4.4971 -0.7658  2.9252
  177MOL0     H23856   7.968   3.861  11.520  1.6532 -0.9923 -0.9130
  177MOL0     H23857   8.440   3.841  11.467 -1.2116 -0.7489  1.2874
  177MOL0     H23858   8.656   3.977  11.493  0.9389 -1.3207  1.7669
  177MOL0     H23859   8.683   4.302  11.813 -1.6219  0.4973 -0.7388
  177MOL0     H23860   8.713   4.135  11.879  0.7526  2.8683  2.3167
  177MOL0     H23861   8.906   4.279  11.916 -0.5976 -0.5700  0.4872
  177MOL0     H23862   8.949   4.159  11.793  1.5653  2.5973 -3.2281
  177MOL0     H23863   8.858   4.451  11.767 -2.6389 -1.6920  0.1197
  177MOL0     H23864   9.022   4.399  11.750 -0.6993 -1.7746  2.1832
  177MOL0     H23865   8.788   4.329  11.561 -0.0827 -0.5913 -0.4120
  177MOL0     H23866   8.949   4.263  11.534 -2.3120 -1.5531 -1.5512
  177MOL0     H23867   8.931   4.458  11.400 -1.3697  0.5578  0.0349
  177MOL0     H23868   9.026   4.524  11.546  0.7360 -1.0380 -0.3406
  177MOL0     H23869   8.742   4.546  11.466 -0.5169  0.6902  0.7884
  177MOL0     H23870   8.802   4.627  11.613 -1.8852 -4.6175  1.2073
  177MOL0     H23871   8.779   4.784  11.424  0.2191  0.5702  0.4100
  177MOL0     H23872   8.851   4.675  11.313  0.2197 -4.8602  0.7064
  177MOL0     H23873   9.025   4.797  11.551 -1.0266  1.3668 -0.1041
  177MOL0     H23874   9.066   4.717  11.400  0.8682  1.1610 -0.8123
  177MOL0     H23875   8.485   4.200  11.800  2.1195  2.1928 -1.6023
  177MOL0     H23876   8.266   4.104  11.751  0.2710 -3.0168  0.1224
  177MOL0     H23877   8.119   3.533  11.779 -1.1647 -0.8718 -0.5759
  177MOL0     H23878   7.907   3.410  11.725  2.6862  1.4132  3.1683
  177MOL0     H23879   6.042   2.381  11.285  0.4040 -0.1292 -1.3589
  177MOL0     H23880   5.800   2.416  11.267  0.2222 -0.6778  0.9564
  177MOL0     H23881   5.497   2.796  11.298  2.2121 -2.3397  0.1362
  177MOL0     H23882   5.268   2.836  11.342  0.0526  1.6365 -2.4762
  177MOL0     H23883   5.028   2.833  11.189  0.2428 -0.2044 -0.6687
  177MOL0     H23884   5.025   2.856  11.366  1.9579 -0.4976  1.3498
  177MOL0     H23885   4.791   2.841  11.260 -2.1221 -0.4444  0.2268
  177MOL0     H23886   4.794   2.713  11.368  1.8980 -0.8967 -0.1183
  177MOL0     H23887   4.849   2.576  11.164  2.1342  1.5253 -0.6294
  177MOL0     H23888   4.812   2.715  11.063 -3.1166  0.3407  0.5043
  177MOL0     H23889   4.605   2.615  11.281 -3.2958  2.9687  0.3474
  177MOL0     H23890   4.586   2.751  11.175  3.5083  1.7012  1.5420
  177MOL0     H23891   4.454   2.434  10.936 -0.3991  0.5743 -0.9535
  177MOL0     H23892   5.158   2.441  11.211 -1.7316  2.0584 -3.7189
  177MOL0     H23893   5.443   2.337  11.048  1.7942 -1.4337  0.4623
  177MOL0     H23894   5.445   2.303  11.232  0.1497  3.0960  1.9855
  177MOL0     H23895   5.301   2.296  11.137  0.6622 -0.8509  0.2694
  178MOL0     O23896   2.446  10.075   9.045 -0.2088 -0.6020  0.2946
  178MOL0     C23897   2.412  10.085   9.163  0.3333  0.4799  0.3295
  178MOL0     O23898   2.493  10.074   9.272 -0.1014  0.1375  0.2268
  178MOL0     C23899   2.619  10.113   9.268 -0.2126  0.2564 -0.3716
  178MOL0     C23900   2.685  10.198   9.173 -0.8738 -0.1637 -0.4022
  178MOL0     C23901   2.815  10.232   9.180 -0.1404  0.0435  0.0685
  178MOL0     C23902   2.895  10.193   9.290  1.3209  0.5151  0.0607
  178MOL0     O23903   3.021  10.231   9.320 -0.0661 -0.1856 -0.0704
  178MOL0     C23904   3.098  10.307   9.225 -0.5967  0.2320  0.1395
  178MOL0     C23905   3.233  10.337   9.295 -0.6389  0.1734 -0.4851
  178MOL0     C23906   3.233  10.425   9.419  1.0585  0.5744  0.1331
  178MOL0     C23907   3.371  10.432   9.475 -0.2924  0.2310 -0.6553
  178MOL0     C23908   3.361  10.479   9.619 -0.6831  0.1109  0.4764
  178MOL0     C23909   3.484  10.495   9.691  1.5010 -0.0407 -0.7375
  178MOL0     C23910   3.477  10.497   9.845  0.7837  0.5656 -0.2851
  178MOL0     C23911   3.541  10.625   9.907  0.6758  0.8630  0.6189
  178MOL0     N23912   3.685  10.636   9.893 -0.3125 -0.9502 -0.7617
  178MOL0     C23913   3.772  10.536   9.919  0.0737  0.7109 -0.3282
  178MOL0     C23914   3.900  10.585   9.894  0.9961 -0.4434 -0.4213
  178MOL0     C23915   4.032  10.509   9.913 -0.2824  0.0223 -0.5665
  178MOL0     C23916   4.119  10.585  10.021 -0.3750  0.0790 -0.3793
  178MOL0     C23917   4.052  10.567  10.161 -0.3034  0.9846  0.0128
  178MOL0     C23918   4.134  10.643  10.264  0.4056  0.6194 -0.4422
  178MOL0     O23919   4.260  10.584  10.287 -0.3938 -0.6159 -0.1542
  178MOL0     C23920   4.376  10.671  10.282  0.1616  0.6706  0.3569
  178MOL0     C23921   4.398  10.803  10.235  0.4958  0.3863 -1.4284
  178MOL0     C23922   4.525  10.866  10.230  0.7625  0.1695  0.7353
  178MOL0     C23923   4.631  10.792  10.280 -0.0823 -0.9376  0.6799
  178MOL0     C23924   4.758  10.855  10.283 -0.1796 -1.0164 -1.1515
  178MOL0     O23925   4.831  10.798  10.389 -0.2684 -0.2180  0.1945
  178MOL0     C23926   4.951  10.853  10.437 -0.1618  0.7811  0.9672
  178MOL0     C23927   4.980  10.994  10.442  0.3249 -1.1530  0.5852
  178MOL0     C23928   5.109  11.032  10.490  0.4090 -0.0529 -0.1613
  178MOL0     C23929   5.192  10.939  10.560  0.2641  0.6503  0.1264
  178MOL0     O23930   5.311  10.970  10.619  0.9099  0.1854  0.3747
  178MOL0     C23931   5.348  11.110  10.645 -0.2231  0.5907  0.9643
  178MOL0     C23932   5.491  11.140  10.676 -0.5748  0.1212  0.0365
  178MOL0     C23933   5.530  11.091  10.827  0.2204  0.3156  0.0428
  178MOL0     C23934   5.680  11.126  10.862 -0.3369 -0.5302  0.6692
  178MOL0     C23935   5.709  11.063  10.996 -0.4057 -0.4919  0.4001
  178MOL0     C23936   5.832  11.115  11.067 -0.5783 -0.2872 -0.3185
  178MOL0     C23937   5.965  11.116  10.984 -0.3322  0.6095  0.9512
  178MOL0     C23938   6.075  11.173  11.070  0.1120 -0.2172  0.3834
  178MOL0    Cl23939   6.114  11.066  11.210  0.5444 -0.3528 -0.0680
  178MOL0     C23940   5.145  10.813  10.579  0.9009 -0.5163 -0.0942
  178MOL0     C23941   5.026  10.768  10.517  0.4779  1.1588  0.1740
  178MOL0     O23942   4.794  10.944  10.210  0.2628  0.3527  0.6192
  178MOL0     C23943   4.613  10.668  10.338 -0.3032 -0.1812  0.1133
  178MOL0     C23944   4.484  10.612  10.349  0.2554  0.3607  0.2030
  178MOL0     N23945   3.876  10.719   9.851 -0.2522  0.7450 -0.3965
  178MOL0     N23946   3.752  10.745   9.854 -0.2249 -0.5324  0.2463
  178MOL0     C23947   2.829  10.119   9.393 -0.2688 -0.1976 -0.0748
  178MOL0     C23948   2.697  10.085   9.379  0.3918  0.3781 -0.6106
  178MOL0     C23949   2.276  10.107   9.199  1.5138  0.1266  0.5660
  178MOL0     C23950   2.179  10.062   9.098  0.0324  0.5094 -0.5419
  178MOL0     C23951   2.042  10.085   9.109  0.7051  0.5655 -0.8818
  178MOL0     C23952   1.996  10.160   9.221 -0.6531 -0.1068 -0.4737
  178MOL0     O23953   1.868  10.199   9.229  0.4167 -0.2251  0.4614
  178MOL0     C23954   1.786  10.095   9.285 -0.4722  0.7931 -0.4099
  178MOL0     C23955   1.646  10.155   9.311  0.0491  1.2485 -0.3652
  178MOL0     C23956   1.538  10.067   9.371  0.0707 -0.1263  0.8727
  178MOL0     C23957   1.417  10.149   9.409 -0.0514 -0.3523 -0.3036
  178MOL0     C23958   1.441  10.233   9.536 -0.0250  0.5580  0.1896
  178MOL0     C23959   1.465  10.305   9.637 -0.3705 -0.3188 -0.3905
  178MOL0     C23960   2.088  10.198   9.316 -0.5813  0.1320  0.6828
  178MOL0     C23961   2.224  10.177   9.310 -0.1661  0.2779 -0.1844
  178MOL0     C23962   2.310  10.236   9.420 -0.2217 -0.2770  0.9139
  178MOL0     H23963   2.626  10.228   9.086 -0.9237 -0.6427 -0.5364
  178MOL0     H23964   2.858  10.286   9.097 -0.5223 -0.7751 -0.6783
  178MOL0     H23965   3.122  10.259   9.130 -2.4509 -3.6576  1.4430
  178MOL0     H23966   3.045  10.400   9.203 -0.4293  0.3181  0.0967
  178MOL0     H23967   3.292  10.388   9.218  1.4572  0.0786  0.9815
  178MOL0     H23968   3.291  10.247   9.311 -0.9524 -0.1606 -1.1779
  178MOL0     H23969   3.167  10.388   9.498 -0.4555 -0.9015 -1.7057
  178MOL0     H23970   3.196  10.525   9.395 -0.2635 -0.1108 -0.8349
  178MOL0     H23971   3.418  10.334   9.460 -0.5053 -0.4199  2.3917
  178MOL0     H23972   3.434  10.497   9.414 -0.3710  0.4215 -0.5332
  178MOL0     H23973   3.297  10.567   9.627 -2.2078 -0.8723 -0.4519
  178MOL0     H23974   3.306  10.406   9.679 -1.3572  1.1060  1.0886
  178MOL0     H23975   3.544  10.409   9.661  2.5708  1.4482 -3.1028
  178MOL0     H23976   3.543  10.581   9.660  2.7767 -1.0481 -1.1841
  178MOL0     H23977   3.534  10.413   9.886  0.8183 -0.6039 -2.5505
  178MOL0     H23978   3.377  10.473   9.881  0.4232  0.4985 -1.2961
  178MOL0     H23979   3.508  10.722   9.870 -0.6395  0.4636  0.6705
  178MOL0     H23980   3.522  10.628  10.015 -0.6765  2.7136  0.3872
  178MOL0     H23981   3.755  10.433   9.952 -2.3591  1.0884 -0.1751
  178MOL0     H23982   4.016  10.403   9.936  0.3596 -0.3188 -1.6244
  178MOL0     H23983   4.090  10.520   9.821  0.8583  1.3647  0.2818
  178MOL0     H23984   4.223  10.552  10.027  0.2127  1.9407  0.5228
  178MOL0     H23985   4.111  10.693  10.004 -1.1324  0.3319  1.3192
  178MOL0     H23986   4.053  10.463  10.198 -0.4385  1.7426  2.3417
  178MOL0     H23987   3.951  10.607  10.159 -0.3470  0.8266 -1.1789
  178MOL0     H23988   4.078  10.631  10.357  1.0921 -1.1889 -0.1966
  178MOL0     H23989   4.150  10.748  10.237 -0.3442  0.1244 -3.1129
  178MOL0     H23990   4.313  10.860  10.199 -2.2144 -1.7439  1.1119
  178MOL0     H23991   4.535  10.969  10.197  1.1025  0.6544  2.2434
  178MOL0     H23992   4.923  11.078  10.404  0.5389  0.0265  2.7173
  178MOL0     H23993   5.139  11.135  10.477  3.2276 -1.0924 -3.9698
  178MOL0     H23994   5.303  11.179  10.573 -5.6529 -1.1519  2.2013
  178MOL0     H23995   5.286  11.138  10.730 -0.9431  1.8491  0.0583
  178MOL0     H23996   5.556  11.102  10.596 -1.0977 -1.3048  0.2612
  178MOL0     H23997   5.501  11.249  10.671 -0.3211  0.0900 -0.1455
  178MOL0     H23998   5.456  11.135  10.895 -2.7714 -1.9800 -1.4899
  178MOL0     H23999   5.513  10.984  10.840  1.2134  0.1284 -0.1321
  178MOL0     H24000   5.681  11.235  10.859 -0.1952 -0.3783 -4.7330
  178MOL0     H24001   5.746  11.085  10.785 -0.5412  0.6480 -0.1585
  178MOL0     H24002   5.721  10.958  10.969 -0.5253 -0.4121  0.0358
  178MOL0     H24003   5.622  11.083  11.059 -0.9254 -3.0758  0.6267
  178MOL0     H24004   5.834  11.221  11.093  0.7728 -0.1167 -1.0177
  178MOL0     H24005   5.843  11.077  11.169  3.0866  1.8144  0.2554
  178MOL0     H24006   5.951  11.173  10.892 -1.1520 -0.6824  0.2392
  178MOL0     H24007   6.000  11.017  10.951  3.6151  1.8689  0.8389
  178MOL0     H24008   6.174  11.183  11.024  0.4356  2.9607  1.4951
  178MOL0     H24009   6.055  11.275  11.106  0.2027 -0.2313  0.4723
  178MOL0     H24010   5.190  10.733  10.637 -0.0619 -0.8164  0.2572
  178MOL0     H24011   4.992  10.667  10.540 -1.5656  1.9947  1.0839
  178MOL0     H24012   4.688  10.603  10.382 -1.6460 -2.1493 -0.3306
  178MOL0     H24013   4.461  10.512  10.384  0.8877  0.0854 -0.1674
  178MOL0     H24014   2.878  10.096   9.487 -0.1174  0.8778  0.1176
  178MOL0     H24015   2.646  10.023   9.451  0.3728  2.2420  1.0674
  178MOL0     H24016   2.216  10.023   9.003  0.7940 -0.9098  0.3025
  178MOL0     H24017   1.964  10.053   9.040  1.2890  1.4860 -2.0108
  178MOL0     H24018   1.821  10.072   9.386  0.0405 -0.5207 -0.8599
  178MOL0     H24019   1.769  10.000   9.233 -1.6441  0.6120  0.2691
  178MOL0     H24020   1.612  10.175   9.209  4.7874  0.1329 -2.4448
  178MOL0     H24021   1.661  10.239   9.379 -1.4740  3.3643 -2.4759
  178MOL0     H24022   1.570  10.012   9.460 -1.4700 -0.3876  1.2991
  178MOL0     H24023   1.514   9.991   9.295  2.8611 -0.7150  0.4778
  178MOL0     H24024   1.401  10.227   9.333 -1.4015 -1.1907 -0.9138
  178MOL0     H24025   1.324  10.093   9.419  0.8247 -1.5653  1.5589
  178MOL0     H24026   1.476  10.360   9.728  3.2787 -0.4500 -0.6230
  178MOL0     H24027   2.055  10.254   9.403 -0.3221  1.6712 -0.1721
  178MOL0     H24028   2.388  10.293   9.368 -0.0283  0.0426  1.5398
  178MOL0     H24029   2.249  10.291   9.492 -2.2044 -3.1543  1.6007
  178MOL0     H24030   2.375  10.167   9.475 -0.8729 -0.6714  1.1996
  179MOL0     O24031   5.390   6.527   4.197  1.0648 -0.0140 -0.6949
  179MOL0     C24032   5.373   6.566   4.310 -0.5628 -0.7948  0.2256
  179MOL0     O24033   5.451   6.666   4.370  0.6683 -0.2622 -0.7467
  179MOL0     C24034   5.542   6.730   4.286  0.2093  0.6435 -0.7873
  179MOL0     C24035   5.503   6.797   4.175  0.2508 -0.2353 -0.8171
  179MOL0     C24036   5.598   6.854   4.100  0.3603  0.1079 -0.1559
  179MOL0     C24037   5.734   6.851   4.129  0.3055  0.8596 -1.3031
  179MOL0     O24038   5.820   6.916   4.048 -0.7093  0.5418  0.1510
  179MOL0     C24039   5.789   6.921   3.904  0.3568  0.6345 -0.5022
  179MOL0     C24040   5.766   7.067   3.852 -0.3308 -0.0119 -0.3482
  179MOL0     C24041   5.897   7.151   3.846 -0.2402  0.1050 -1.1652
  179MOL0     C24042   5.992   7.105   3.734  0.8759  0.2393  0.0613
  179MOL0     C24043   6.096   7.202   3.696  0.3233 -0.3282 -0.4702
  179MOL0     C24044   6.161   7.249   3.818 -0.0908  0.1557  0.0179
  179MOL0     C24045   6.286   7.326   3.784  0.7633 -0.6658 -0.7524
  179MOL0     C24046   6.372   7.358   3.907  0.9417 -0.3620 -0.0484
  179MOL0     N24047   6.503   7.410   3.875 -0.8103  0.2185 -0.0828
  179MOL0     C24048   6.595   7.340   3.801  0.7689  0.4004  0.4869
  179MOL0     C24049   6.706   7.419   3.805  0.0219 -0.6597 -0.4505
  179MOL0     C24050   6.842   7.389   3.764 -0.8611 -0.6847  0.2223
  179MOL0     C24051   6.896   7.453   3.631 -0.7355 -0.5174 -0.4973
  179MOL0     C24052   6.923   7.606   3.669 -0.5571  0.7664  0.4381
  179MOL0     C24053   6.990   7.677   3.547  0.7404 -0.0161 -0.3166
  179MOL0     O24054   7.112   7.616   3.501  0.2331  0.2083  0.2122
  179MOL0     C24055   7.229   7.621   3.573 -0.0991 -0.7920 -0.3426
  179MOL0     C24056   7.333   7.532   3.536 -0.2812 -0.8576 -0.2941
  179MOL0     C24057   7.457   7.537   3.602 -0.9466  0.4543  0.1384
  179MOL0     C24058   7.476   7.616   3.711  0.2522 -0.2189 -0.8900
  179MOL0     C24059   7.608   7.608   3.793  0.3199  0.1351  0.0695
  179MOL0     O24060   7.712   7.529   3.734 -0.0191 -0.2594  0.3743
  179MOL0     C24061   7.838   7.512   3.795  1.0186  0.9551  1.0833
  179MOL0     C24062   7.876   7.513   3.923  0.5801  0.3126 -0.7981
  179MOL0     C24063   8.010   7.501   3.969 -0.0023 -0.9037  0.9353
  179MOL0     C24064   8.100   7.472   3.869 -0.2307 -0.8867 -0.3464
  179MOL0     O24065   8.234   7.460   3.917 -0.0751 -0.8639  0.5054
  179MOL0     C24066   8.343   7.465   3.825  0.5945 -0.2344 -0.5475
  179MOL0     C24067   8.469   7.505   3.902 -0.0555  0.4347 -0.2857
  179MOL0     C24068   8.596   7.470   3.820 -0.1926  0.6519 -0.0780
  179MOL0     C24069   8.696   7.404   3.923 -0.6747  0.2784  0.3973
  179MOL0     C24070   8.849   7.451   3.907  0.2796 -0.7004 -0.4393
  179MOL0     C24071   8.912   7.384   3.782 -0.3272  0.7548 -0.5780
  179MOL0     C24072   9.068   7.401   3.794 -0.5179  0.1717 -0.1638
  179MOL0     C24073   9.140   7.303   3.694 -0.1720 -0.2433  0.6645
  179MOL0    Cl24074   9.316   7.326   3.709  0.0686 -0.4540  0.3176
  179MOL0     C24075   8.062   7.466   3.731  0.0241 -0.2051 -0.4574
  179MOL0     C24076   7.930   7.478   3.699 -0.2201  0.5792 -0.1409
  179MOL0     O24077   7.610   7.671   3.901 -0.6792 -0.0715  0.0952
  179MOL0     C24078   7.374   7.711   3.749 -0.4816 -0.3974 -0.7030
  179MOL0     C24079   7.252   7.710   3.676  0.1350 -0.4007 -0.4150
  179MOL0     N24080   6.679   7.543   3.868  0.0258 -0.2426 -0.3797
  179MOL0     N24081   6.566   7.521   3.931  0.1572  0.1564  0.8820
  179MOL0     C24082   5.775   6.784   4.248 -0.1690 -0.1906 -0.0281
  179MOL0     C24083   5.675   6.717   4.327  0.3096  0.6435  0.8736
  179MOL0     C24084   5.272   6.509   4.398 -0.3943 -0.5243 -1.0848
  179MOL0     C24085   5.294   6.496   4.537  0.1639  0.3971 -0.7280
  179MOL0     C24086   5.207   6.420   4.615  0.8025  0.6437  0.5734
  179MOL0     C24087   5.085   6.374   4.566  0.4122  0.8095  0.9853
  179MOL0     O24088   5.007   6.299   4.642 -0.1846 -0.0229 -0.3500
  179MOL0     C24089   5.059   6.180   4.702 -0.7552  0.2266  0.8820
  179MOL0     C24090   4.950   6.094   4.781  0.0678  0.3448  0.0276
  179MOL0     C24091   5.000   5.973   4.853 -0.1219  0.0767 -0.0892
  179MOL0     C24092   4.898   5.918   4.955 -0.9610  0.1223  0.6652
  179MOL0     C24093   4.967   5.812   5.032  0.6118 -0.5442 -0.4141
  179MOL0     C24094   5.047   5.736   5.078 -0.3024 -0.9066  0.4462
  179MOL0     C24095   5.053   6.401   4.429 -0.1975  0.3761 -0.1999
  179MOL0     C24096   5.152   6.463   4.347  0.5761  1.4392 -1.0186
  179MOL0     C24097   5.101   6.492   4.200 -0.5273 -0.5496  0.0118
  179MOL0     H24098   5.397   6.798   4.151 -0.4285  0.9475  1.9479
  179MOL0     H24099   5.564   6.933   4.034 -1.2929 -0.4967 -0.0657
  179MOL0     H24100   5.869   6.875   3.845  0.7026  5.2251 -4.2516
  179MOL0     H24101   5.702   6.862   3.876  2.3035 -3.3899  1.2145
  179MOL0     H24102   5.692   7.126   3.907 -6.1803 -3.0900 -3.8324
  179MOL0     H24103   5.727   7.057   3.750 -1.5375 -3.9582  0.3294
  179MOL0     H24104   5.938   7.155   3.947 -0.2355  0.3825 -1.1762
  179MOL0     H24105   5.851   7.249   3.824 -1.0591  0.3759  1.4623
  179MOL0     H24106   6.045   7.016   3.770 -3.3182 -2.7452 -0.4437
  179MOL0     H24107   5.934   7.081   3.644  0.1210 -0.2845  0.6853
  179MOL0     H24108   6.167   7.176   3.617  0.2706  0.0437 -0.6412
  179MOL0     H24109   6.039   7.284   3.653  0.5082  0.1911  0.2645
  179MOL0     H24110   6.100   7.318   3.877  0.4531  1.2607 -0.6583
  179MOL0     H24111   6.183   7.156   3.871 -2.9285 -0.3127  0.5125
  179MOL0     H24112   6.261   7.423   3.741  4.4114  0.3926 -0.8928
  179MOL0     H24113   6.349   7.273   3.712 -1.0273 -2.9387 -0.7527
  179MOL0     H24114   6.313   7.431   3.963 -0.6939 -1.8264  0.2155
  179MOL0     H24115   6.374   7.271   3.973  1.1046  0.2574  0.7867
  179MOL0     H24116   6.572   7.245   3.754 -1.3762 -0.0329  2.2456
  179MOL0     H24117   6.918   7.404   3.842 -1.2022  2.8216  0.0346
  179MOL0     H24118   6.837   7.280   3.754 -0.3999 -0.8053  1.1431
  179MOL0     H24119   6.985   7.401   3.594 -1.4909 -3.1820  1.1003
  179MOL0     H24120   6.818   7.434   3.557 -0.6614 -1.6667 -0.3050
  179MOL0     H24121   6.992   7.611   3.754 -2.4484  1.2501  1.9965
  179MOL0     H24122   6.835   7.660   3.704 -0.3642  0.6021  1.1966
  179MOL0     H24123   7.002   7.784   3.568 -0.7910  0.2262 -0.5511
  179MOL0     H24124   6.922   7.659   3.464  1.7413  2.6592 -1.8417
  179MOL0     H24125   7.310   7.468   3.451 -2.0064 -0.3668 -0.2281
  179MOL0     H24126   7.540   7.471   3.579 -0.9474  0.8025 -0.9599
  179MOL0     H24127   7.807   7.532   4.005  1.6900  2.6361 -0.3166
  179MOL0     H24128   8.035   7.507   4.074 -1.4155 -0.0575  1.2433
  179MOL0     H24129   8.355   7.369   3.773 -1.1245  0.0054 -1.4699
  179MOL0     H24130   8.333   7.533   3.739 -0.6087  1.1775  0.6624
  179MOL0     H24131   8.447   7.611   3.917 -4.6007  0.3220 -3.7332
  179MOL0     H24132   8.460   7.449   3.996  4.6063 -0.1733  0.0601
  179MOL0     H24133   8.575   7.393   3.745 -1.4919 -0.9956  1.8573
  179MOL0     H24134   8.627   7.561   3.768 -0.1903  0.2710 -0.7589
  179MOL0     H24135   8.688   7.296   3.909  0.5101  0.3723 -1.2725
  179MOL0     H24136   8.664   7.409   4.027  0.9431 -2.8184  1.1697
  179MOL0     H24137   8.896   7.413   3.997  3.1982  1.9857 -0.6452
  179MOL0     H24138   8.863   7.560   3.913 -6.3849  0.4691  2.1930
  179MOL0     H24139   8.896   7.275   3.775  2.4323  0.3936 -3.4067
  179MOL0     H24140   8.879   7.416   3.683  0.2592  0.1100 -0.9906
  179MOL0     H24141   9.103   7.393   3.897 -0.1533 -2.0200 -0.3988
  179MOL0     H24142   9.087   7.500   3.753 -0.8395 -0.8012 -2.9190
  179MOL0     H24143   9.114   7.200   3.718 -1.0638 -0.3162 -0.5141
  179MOL0     H24144   9.126   7.306   3.586  3.4081 -2.1897 -0.0299
  179MOL0     H24145   8.137   7.452   3.654  1.9065  4.1109  0.2942
  179MOL0     H24146   7.899   7.474   3.595  2.0853  1.7039 -0.9587
  179MOL0     H24147   7.383   7.786   3.826 -2.2016 -1.2384  0.3761
  179MOL0     H24148   7.175   7.782   3.701 -0.2311 -1.3900  1.4727
  179MOL0     H24149   5.876   6.790   4.288  0.5996  0.4011 -1.9233
  179MOL0     H24150   5.695   6.674   4.425 -4.4480  1.0148  2.2430
  179MOL0     H24151   5.387   6.528   4.582 -1.2671  1.0614  2.0225
  179MOL0     H24152   5.244   6.400   4.714 -0.3956  1.3344  1.1946
  179MOL0     H24153   5.132   6.214   4.777 -0.9943  2.8983  0.0040
  179MOL0     H24154   5.107   6.116   4.627 -0.3759  1.9252 -0.3989
  179MOL0     H24155   4.874   6.059   4.710 -0.6923 -0.2371  1.1008
  179MOL0     H24156   4.918   6.160   4.862  2.0988  0.4692  0.7977
  179MOL0     H24157   5.091   6.004   4.906  0.2335 -2.6389  1.0986
  179MOL0     H24158   5.030   5.884   4.797 -2.3545 -0.9147  0.1762
  179MOL0     H24159   4.864   5.997   5.023 -0.0798  0.8185  0.3256
  179MOL0     H24160   4.815   5.882   4.893  1.6169 -3.0675 -1.2965
  179MOL0     H24161   5.133   5.685   5.114 -0.9166 -1.2942  1.4152
  179MOL0     H24162   4.964   6.363   4.380 -1.1559 -1.4189  2.6895
  179MOL0     H24163   5.132   6.596   4.186 -0.4967 -0.3964  1.1753
  179MOL0     H24164   5.148   6.425   4.127  0.0642 -1.3564  1.1051
  179MOL0     H24165   4.992   6.493   4.188 -0.5105 -0.2132 -0.1095
  180MOL0     O24166   5.113   9.328   7.279  0.6230 -0.4372  0.4806
  180MOL0     C24167   5.157   9.403   7.195  0.1782  0.9296 -0.0458
  180MOL0     O24168   5.287   9.435   7.192 -0.5657 -0.2982 -0.2107
  180MOL0     C24169   5.367   9.424   7.302 -0.6129 -0.4582  0.4004
  180MOL0     C24170   5.332   9.468   7.433  0.0023  0.1894  0.1676
  180MOL0     C24171   5.426   9.468   7.538  0.7137  0.1024  0.5253
  180MOL0     C24172   5.558   9.411   7.521 -0.2918  0.6869  0.1459
  180MOL0     O24173   5.645   9.406   7.622  0.6200  0.2221 -0.3321
  180MOL0     C24174   5.767   9.486   7.605  1.1855  0.2759  0.3945
  180MOL0     C24175   5.731   9.629   7.612  0.2184 -0.6055 -0.1559
  180MOL0     C24176   5.843   9.718   7.575 -0.1796 -0.2440  0.7156
  180MOL0     C24177   5.821   9.867   7.631  0.1652 -0.4720  0.1029
  180MOL0     C24178   5.964   9.943   7.630 -0.1174  0.0095 -0.1217
  180MOL0     C24179   5.944  10.098   7.623 -0.5713 -0.3817  0.3154
  180MOL0     C24180   6.070  10.179   7.678 -0.2657 -0.6445  0.4730
  180MOL0     C24181   6.128  10.144   7.817  0.1178  0.1884  0.3703
  180MOL0     N24182   6.244  10.224   7.850 -0.2125  0.1380  0.3476
  180MOL0     C24183   6.249  10.357   7.880 -0.1220  0.5806  0.2139
  180MOL0     C24184   6.356  10.382   7.954 -0.2021  0.3865 -0.0046
  180MOL0     C24185   6.393  10.508   8.008 -1.0510 -0.5209 -0.0473
  180MOL0     C24186   6.545  10.530   8.009 -0.6656  0.4250  0.0815
  180MOL0     C24187   6.586  10.678   8.024 -1.2803  0.4061  0.7296
  180MOL0     C24188   6.537  10.743   8.161  0.0618  0.6055  0.5213
  180MOL0     O24189   6.566  10.886   8.153 -0.7599 -0.1686 -0.2944
  180MOL0     C24190   6.644  10.939   8.254  0.1631 -0.1352 -0.7037
  180MOL0     C24191   6.774  10.909   8.286  0.2547  0.2903 -0.2698
  180MOL0     C24192   6.840  10.964   8.391 -1.0629  0.3792 -0.2296
  180MOL0     C24193   6.776  11.061   8.470  0.2061 -0.3004 -0.4580
  180MOL0     C24194   6.849  11.112   8.581 -1.0441 -0.0473 -0.8335
  180MOL0     O24195   6.978  11.071   8.610 -0.2266 -0.6235  0.5257
  180MOL0     C24196   7.051  11.126   8.714 -0.7491 -0.6054  0.6694
  180MOL0     C24197   6.990  11.165   8.830 -0.7019  0.1687 -0.1991
  180MOL0     C24198   7.068  11.221   8.931 -0.3839  0.0525  0.1699
  180MOL0     C24199   7.210  11.223   8.924 -0.5913 -0.5669 -0.1062
  180MOL0     O24200   7.293  11.279   9.020 -0.4647  0.7605 -0.3311
  180MOL0     C24201   7.251  11.265   9.153  0.3604  0.3689  1.4122
  180MOL0     C24202   7.350  11.344   9.246  0.4015 -0.0848  0.6629
  180MOL0     C24203   7.302  11.350   9.396  0.0224  0.5612  0.3036
  180MOL0     C24204   7.213  11.465   9.430  0.0939 -0.2549  0.4021
  180MOL0     C24205   7.190  11.459   9.580  0.0922 -1.0960 -0.3173
  180MOL0     C24206   7.120  11.588   9.631 -0.1725 -0.0391 -0.8202
  180MOL0     C24207   7.137  11.598   9.780 -0.4569  0.6739  0.0327
  180MOL0     C24208   7.046  11.713   9.835 -1.0212 -0.6439 -1.0318
  180MOL0    Cl24209   6.871  11.670   9.839 -0.3445 -0.0147 -0.1083
  180MOL0     C24210   7.274  11.192   8.801  0.0900 -0.3054  0.2202
  180MOL0     C24211   7.194  11.141   8.700 -0.0189  0.7569 -0.3039
  180MOL0     O24212   6.792  11.210   8.640 -0.3392  0.3564 -0.6699
  180MOL0     C24213   6.646  11.104   8.429  0.0615  0.3730  0.0228
  180MOL0     C24214   6.585  11.048   8.315  0.1287  0.4853 -0.3429
  180MOL0     N24215   6.413  10.255   7.965 -0.0253  0.2677 -0.3786
  180MOL0     N24216   6.348  10.162   7.909  0.1198  0.2171 -0.1645
  180MOL0     C24217   5.583   9.354   7.394  0.2686  0.0990 -0.4389
  180MOL0     C24218   5.493   9.367   7.289  0.9327  0.0131  0.5324
  180MOL0     C24219   5.072   9.463   7.098  0.4980 -0.1790 -0.7398
  180MOL0     C24220   4.932   9.495   7.128  0.0577  0.3007  0.1317
  180MOL0     C24221   4.852   9.567   7.042 -0.0172 -0.1686  0.2141
  180MOL0     C24222   4.895   9.607   6.911 -0.1535  0.3381 -0.4522
  180MOL0     O24223   4.806   9.688   6.839 -0.2350 -0.5203  0.1952
  180MOL0     C24224   4.863   9.820   6.833  0.5605 -0.1841 -0.4273
  180MOL0     C24225   4.754   9.921   6.824 -0.1804 -0.0547  0.0072
  180MOL0     C24226   4.808  10.065   6.773  0.9169  0.0420 -0.0349
  180MOL0     C24227   4.694  10.152   6.728  0.1503 -0.1864  0.6403
  180MOL0     C24228   4.732  10.292   6.692  0.1658  0.1907 -0.7087
  180MOL0     C24229   4.751  10.396   6.653  0.8320 -0.3326 -0.0430
  180MOL0     C24230   5.016   9.575   6.875 -0.4303 -0.2817 -0.1469
  180MOL0     C24231   5.104   9.498   6.962 -1.4865 -0.4480  0.0061
  180MOL0     C24232   5.237   9.463   6.903  0.3508 -1.2403 -0.0756
  180MOL0     H24233   5.238   9.520   7.449  0.6509  0.5672  3.7128
  180MOL0     H24234   5.401   9.513   7.634  0.1089 -1.6686  1.2367
  180MOL0     H24235   5.836   9.464   7.688  0.6212  0.0480  0.8079
  180MOL0     H24236   5.821   9.451   7.517  1.1355  0.1425  0.4166
  180MOL0     H24237   5.697   9.652   7.713 -1.4405  0.0860 -0.8353
  180MOL0     H24238   5.650   9.660   7.545 -1.4808  1.1940  2.5243
  180MOL0     H24239   5.866   9.720   7.468 -0.4068 -2.3476  0.5867
  180MOL0     H24240   5.938   9.679   7.613  0.8194  2.2390  0.9831
  180MOL0     H24241   5.736   9.915   7.582 -0.9659 -1.6377  0.8549
  180MOL0     H24242   5.793   9.861   7.737 -1.7449  2.3626 -0.1310
  180MOL0     H24243   6.016   9.907   7.719 -1.4950 -0.2081  0.6285
  180MOL0     H24244   6.012   9.909   7.538 -0.6553  1.6979 -1.0781
  180MOL0     H24245   5.927  10.132   7.521 -2.7153 -1.0184  0.4166
  180MOL0     H24246   5.857  10.127   7.683 -2.6207 -0.4106 -2.4803
  180MOL0     H24247   6.041  10.284   7.687 -1.6187 -0.9826  0.2708
  180MOL0     H24248   6.158  10.177   7.614 -0.8233 -1.1294 -0.2946
  180MOL0     H24249   6.049  10.152   7.892 -1.2339 -1.8598 -0.7433
  180MOL0     H24250   6.155  10.039   7.807  0.1266 -0.0985  2.9100
  180MOL0     H24251   6.187  10.431   7.831  2.4433  2.2587 -0.7261
  180MOL0     H24252   6.346  10.584   7.944 -2.1326  0.6274  2.0003
  180MOL0     H24253   6.355  10.515   8.110  0.2272 -1.3127  0.4938
  180MOL0     H24254   6.581  10.473   8.095 -0.7901 -0.7291 -0.6102
  180MOL0     H24255   6.586  10.496   7.914 -1.6600  3.0565 -1.3949
  180MOL0     H24256   6.545  10.740   7.943 -2.2208 -1.4764 -0.2948
  180MOL0     H24257   6.695  10.682   8.025 -1.2355  0.8234  3.6189
  180MOL0     H24258   6.583  10.704   8.253 -2.6274  2.9921  3.0881
  180MOL0     H24259   6.429  10.727   8.169  0.0900 -0.8044 -1.2819
  180MOL0     H24260   6.842  10.856   8.220 -0.4907  1.5237 -2.0804
  180MOL0     H24261   6.944  10.936   8.407 -1.0109  0.6294 -0.1362
  180MOL0     H24262   6.883  11.166   8.847 -0.3792  0.3946  2.1090
  180MOL0     H24263   7.001  11.246   9.013 -1.7586  0.1744 -0.9508
  180MOL0     H24264   7.148  11.299   9.167  0.2971  0.9151 -0.1852
  180MOL0     H24265   7.240  11.158   9.175  0.2728 -0.6894 -2.8932
  180MOL0     H24266   7.447  11.293   9.239  0.1935 -0.2537 -2.7320
  180MOL0     H24267   7.367  11.442   9.200 -1.7785 -0.1233 -0.4000
  180MOL0     H24268   7.258  11.259   9.436 -1.5736  1.9839  1.9442
  180MOL0     H24269   7.393  11.367   9.454 -0.3759 -2.6326  2.0521
  180MOL0     H24270   7.116  11.465   9.379 -1.3623  0.9889  2.9550
  180MOL0     H24271   7.253  11.564   9.409 -2.6069  1.7567  3.6146
  180MOL0     H24272   7.282  11.439   9.635 -0.3299 -1.7707  0.1603
  180MOL0     H24273   7.122  11.376   9.603  0.7504 -1.5188  0.1461
  180MOL0     H24274   7.135  11.686   9.586 -2.7187  0.7806 -0.0286
  180MOL0     H24275   7.016  11.563   9.612 -0.2999  0.1372 -0.3677
  180MOL0     H24276   7.241  11.590   9.812 -0.0561  0.8810 -1.1580
  180MOL0     H24277   7.098  11.502   9.815 -2.4458  1.0488 -0.9730
  180MOL0     H24278   7.073  11.737   9.938  0.6872  1.4671 -1.8755
  180MOL0     H24279   7.056  11.797   9.765 -3.1605 -0.3860 -1.0841
  180MOL0     H24280   7.382  11.205   8.795 -0.0052 -0.1598 -3.1370
  180MOL0     H24281   7.222  11.105   8.602  0.4489  0.9812 -0.2536
  180MOL0     H24282   6.580  11.171   8.484 -2.3129 -2.0362  0.3232
  180MOL0     H24283   6.490  11.085   8.278 -0.2180 -1.4067 -1.4862
  180MOL0     H24284   5.683   9.316   7.375 -0.4862 -1.0282 -2.4483
  180MOL0     H24285   5.515   9.343   7.186 -0.2478 -2.1440  0.7333
  180MOL0     H24286   4.901   9.466   7.228 -1.2475  1.3087  0.0508
  180MOL0     H24287   4.753   9.598   7.075 -0.1278  0.6484 -0.8082
  180MOL0     H24288   4.917   9.838   6.739  0.0280  0.3083 -0.6425
  180MOL0     H24289   4.922   9.842   6.923  3.2316  0.3139 -2.1495
  180MOL0     H24290   4.707   9.930   6.923  0.0545 -2.2601  0.3554
  180MOL0     H24291   4.680   9.888   6.751 -1.1870  0.9194  0.5450
  180MOL0     H24292   4.869  10.039   6.686 -0.2245  0.5863 -1.0305
  180MOL0     H24293   4.854  10.124   6.852 -1.1278  1.7041 -0.0005
  180MOL0     H24294   4.646  10.107   6.640 -1.7651 -1.9945  2.4771
  180MOL0     H24295   4.618  10.153   6.807  0.4461  1.2025  0.9275
  180MOL0     H24296   4.776  10.491   6.610 -0.5778 -0.7778 -1.9867
  180MOL0     H24297   5.036   9.613   6.775 -1.8873  0.1795 -0.2942
  180MOL0     H24298   5.290   9.381   6.953  1.6756  0.1758  0.9538
  180MOL0     H24299   5.226   9.439   6.797  1.3674  2.3330 -1.1464
  180MOL0     H24300   5.303   9.550   6.909 -0.2726 -0.7642 -0.0288
  181MOL0     O24301   9.566   1.456   5.921 -0.3580  0.6997  0.0093
  181MOL0     C24302   9.497   1.543   5.974 -0.3959  0.4060  0.1901
  181MOL0     O24303   9.532   1.673   5.961 -0.0344 -0.5253  0.2877
  181MOL0     C24304   9.659   1.710   5.921  0.1479  0.8798 -0.1773
  181MOL0     C24305   9.691   1.837   5.870  0.2062 -0.0596 -0.4634
  181MOL0     C24306   9.819   1.887   5.843  0.2670 -0.6306  0.0893
  181MOL0     C24307   9.929   1.799   5.862 -1.1792 -0.5855  0.0524
  181MOL0     O24308  10.065   1.817   5.826  0.8776 -0.1311 -0.4587
  181MOL0     C24309  10.112   1.937   5.770 -0.6441  0.3745 -0.7153
  181MOL0     C24310  10.243   1.928   5.699 -0.0276 -0.1637 -0.1094
  181MOL0     C24311  10.262   1.794   5.612  0.1250  0.9190 -0.6944
  181MOL0     C24312  10.409   1.736   5.594 -0.4822 -0.2540  0.1266
  181MOL0     C24313  10.435   1.638   5.468  0.0868  1.0821 -0.1587
  181MOL0     C24314  10.359   1.510   5.490  0.7577  0.2709  0.6851
  181MOL0     C24315  10.376   1.417   5.368  0.0001 -0.2696 -0.1094
  181MOL0     C24316  10.287   1.292   5.382  0.2191  0.2937 -0.4370
  181MOL0     N24317  10.334   1.203   5.488 -0.0770  1.2253 -0.1627
  181MOL0     C24318  10.460   1.192   5.542  0.6483 -0.5026 -0.6485
  181MOL0     C24319  10.438   1.103   5.651  1.2610  0.0474  0.4443
  181MOL0     C24320  10.545   1.041   5.728  0.1912 -1.0884  0.5723
  181MOL0     C24321  10.691   1.053   5.679  0.5054 -0.5979 -0.8010
  181MOL0     C24322  10.788   1.001   5.784  0.2697 -0.4076 -0.6703
  181MOL0     C24323  10.933   1.028   5.743 -0.2176  0.0180  0.1959
  181MOL0     O24324  11.028   0.982   5.845  0.0966  0.5596  0.9863
  181MOL0     C24325  11.152   0.967   5.803 -0.6351 -0.0567  0.3771
  181MOL0     C24326  11.205   1.024   5.685 -0.5830  0.4593  0.7068
  181MOL0     C24327  11.345   1.008   5.666 -0.5976 -1.0185  0.8381
  181MOL0     C24328  11.434   0.933   5.749  0.0404 -0.1113  0.1153
  181MOL0     C24329  11.574   0.915   5.722  0.1969 -0.8433  0.0854
  181MOL0     O24330  11.637   0.821   5.789  0.0691 -0.3266 -0.2449
  181MOL0     C24331  11.776   0.806   5.781 -0.0102 -0.5869 -0.0198
  181MOL0     C24332  11.835   0.680   5.791 -0.4174  0.1147  0.5253
  181MOL0     C24333  11.971   0.659   5.792 -0.4924  0.1463  0.0254
  181MOL0     C24334  12.052   0.769   5.812 -0.2005  0.0893  0.5265
  181MOL0     O24335  12.185   0.743   5.833 -0.5832 -0.8029 -0.4518
  181MOL0     C24336  12.272   0.770   5.720  0.3625 -0.5518  0.2675
  181MOL0     C24337  12.414   0.799   5.777 -0.4010  0.4100 -0.4230
  181MOL0     C24338  12.516   0.861   5.677  0.8713 -0.1925 -0.0623
  181MOL0     C24339  12.667   0.841   5.708 -0.2979 -0.5625  0.2577
  181MOL0     C24340  12.735   0.939   5.806 -0.4454 -0.3526  1.1896
  181MOL0     C24341  12.883   0.928   5.796 -0.0801 -0.5310  0.0404
  181MOL0     C24342  12.954   1.024   5.892 -1.1644 -0.2664 -0.7883
  181MOL0     C24343  13.093   0.962   5.929  0.1436 -0.4578  0.0909
  181MOL0    Cl24344  13.230   1.015   5.816 -0.0523 -0.3011  0.4084
  181MOL0     C24345  11.997   0.893   5.825  0.6825 -0.3159 -0.1551
  181MOL0     C24346  11.863   0.918   5.797 -0.4356  0.2452  1.4277
  181MOL0     O24347  11.624   0.985   5.631 -0.3963  0.4322 -0.0165
  181MOL0     C24348  11.374   0.875   5.872  0.4093  0.2351 -0.2487
  181MOL0     C24349  11.231   0.893   5.885 -0.1071 -1.5269 -0.1076
  181MOL0     N24350  10.311   1.061   5.655  0.0746 -0.6788 -0.3851
  181MOL0     N24351  10.249   1.129   5.560  0.4445  0.3880  0.1686
  181MOL0     C24352   9.905   1.678   5.932  0.4793 -0.9453  0.0625
  181MOL0     C24353   9.770   1.630   5.962  0.3057 -0.7928 -0.7152
  181MOL0     C24354   9.369   1.505   6.025 -0.1855 -0.7653  0.2929
  181MOL0     C24355   9.302   1.399   5.960  0.0568 -0.1265 -0.1243
  181MOL0     C24356   9.182   1.345   6.004  0.0307  0.5547 -0.4397
  181MOL0     C24357   9.121   1.406   6.117  0.0668 -0.3995  0.0756
  181MOL0     O24358   9.006   1.375   6.182  0.4481  0.8226 -0.3659
  181MOL0     C24359   8.962   1.238   6.187  0.1836 -0.6288 -0.2654
  181MOL0     C24360   8.817   1.237   6.124 -0.6461 -1.3859 -0.4044
  181MOL0     C24361   8.714   1.322   6.197  0.9158 -0.4783 -1.0219
  181MOL0     C24362   8.577   1.293   6.150 -0.4583  0.1817  1.0669
  181MOL0     C24363   8.481   1.400   6.201  0.1515 -0.4869 -0.7218
  181MOL0     C24364   8.411   1.494   6.238 -0.6224 -0.1595  0.0298
  181MOL0     C24365   9.175   1.519   6.163 -0.9093 -1.0607  0.3202
  181MOL0     C24366   9.305   1.572   6.126  0.2475 -0.2023  0.3346
  181MOL0     C24367   9.356   1.690   6.203  0.2813 -0.5899  0.0287
  181MOL0     H24368   9.613   1.911   5.854 -2.2786 -2.4383 -0.1317
  181MOL0     H24369   9.822   1.985   5.797  1.0416 -0.5951  0.1981
  181MOL0     H24370  10.041   1.977   5.696 -4.1759  1.3538  2.8391
  181MOL0     H24371  10.115   2.013   5.849 -1.7845 -1.9595  1.7419
  181MOL0     H24372  10.326   1.944   5.769  2.1279 -1.1836 -2.2884
  181MOL0     H24373  10.250   2.015   5.632  1.5867  1.9185  2.5409
  181MOL0     H24374  10.228   1.812   5.509  0.3228  0.5286 -0.8338
  181MOL0     H24375  10.202   1.713   5.653  1.6356 -0.3475 -0.8586
  181MOL0     H24376  10.475   1.822   5.585  0.3553 -0.9974 -1.2872
  181MOL0     H24377  10.430   1.674   5.682 -0.7966 -0.5861 -0.0308
  181MOL0     H24378  10.421   1.689   5.372 -1.2686  3.3394  1.1645
  181MOL0     H24379  10.540   1.607   5.460  0.5275  2.8085 -1.7620
  181MOL0     H24380  10.392   1.459   5.581  0.4588  0.6510  1.0102
  181MOL0     H24381  10.256   1.544   5.498  0.1178 -1.8732  2.7704
  181MOL0     H24382  10.479   1.383   5.352 -0.3371 -0.8006 -1.2994
  181MOL0     H24383  10.335   1.470   5.281  0.8895 -1.1472 -1.0971
  181MOL0     H24384  10.182   1.320   5.388  0.9654  3.2782  0.1817
  181MOL0     H24385  10.302   1.237   5.288  2.9099 -0.5309  0.3829
  181MOL0     H24386  10.550   1.241   5.505  0.6271  0.9628  1.0686
  181MOL0     H24387  10.545   1.101   5.819  0.7345 -0.3200  0.0763
  181MOL0     H24388  10.529   0.934   5.742  1.9307 -1.3738  0.5164
  181MOL0     H24389  10.693   0.982   5.596 -0.0811 -1.2776 -0.2353
  181MOL0     H24390  10.712   1.156   5.648  0.0895 -0.1779  0.2696
  181MOL0     H24391  10.766   0.894   5.786  1.8674 -0.7762 -1.0886
  181MOL0     H24392  10.753   1.052   5.874 -1.8386  1.1734 -2.2893
  181MOL0     H24393  10.944   1.136   5.730  2.1645 -0.1170  0.5879
  181MOL0     H24394  10.960   0.981   5.648 -0.6328 -1.5668  0.8301
  181MOL0     H24395  11.150   1.096   5.625 -0.6784 -0.5560 -0.4454
  181MOL0     H24396  11.383   1.063   5.581 -0.7389 -0.9121  0.8440
  181MOL0     H24397  11.779   0.595   5.830 -0.0463 -1.6037 -2.3500
  181MOL0     H24398  12.017   0.562   5.809 -2.0668 -0.9353 -1.5838
  181MOL0     H24399  12.279   0.688   5.648 -0.0434 -0.0385 -0.3668
  181MOL0     H24400  12.230   0.856   5.668 -0.2289 -1.6512 -1.1438
  181MOL0     H24401  12.406   0.867   5.862  3.9463 -0.5609  1.0421
  181MOL0     H24402  12.456   0.705   5.815 -0.1931  1.0797  1.0718
  181MOL0     H24403  12.505   0.807   5.582 -3.3437 -0.7660  0.5515
  181MOL0     H24404  12.486   0.966   5.669 -0.5267 -0.4117  1.6489
  181MOL0     H24405  12.720   0.841   5.612 -2.0966 -0.1116 -0.8009
  181MOL0     H24406  12.684   0.743   5.753  0.7858  0.7251  2.8463
  181MOL0     H24407  12.707   0.922   5.911  0.2182 -0.3059  1.3783
  181MOL0     H24408  12.716   1.044   5.779  1.1086 -0.4656 -0.5500
  181MOL0     H24409  12.895   0.821   5.816 -0.2390 -0.7574 -1.0210
  181MOL0     H24410  12.922   0.947   5.695  0.5620 -1.9494  0.0013
  181MOL0     H24411  12.896   1.058   5.978  1.0690  1.9490 -0.0392
  181MOL0     H24412  12.966   1.117   5.836 -0.8861  0.0608 -0.1916
  181MOL0     H24413  13.130   1.008   6.022 -1.9467  1.6619 -0.0494
  181MOL0     H24414  13.090   0.852   5.936 -1.7550 -0.4023  5.9794
  181MOL0     H24415  12.072   0.970   5.841 -0.0786  0.6730 -1.2659
  181MOL0     H24416  11.819   1.017   5.788  0.2878  0.8181  3.6613
  181MOL0     H24417  11.430   0.814   5.943 -0.2096 -0.0514  0.0040
  181MOL0     H24418  11.177   0.844   5.966 -1.1230  0.2473  0.3316
  181MOL0     H24419   9.988   1.612   5.957  0.3575 -1.1854 -0.1734
  181MOL0     H24420   9.767   1.533   6.012  2.4977 -0.9426 -0.7747
  181MOL0     H24421   9.358   1.348   5.883  2.5533  1.5188  0.4748
  181MOL0     H24422   9.155   1.255   5.950  2.5970 -0.6199  0.1272
  181MOL0     H24423   8.944   1.202   6.288 -0.3698 -0.6595 -0.3707
  181MOL0     H24424   9.027   1.165   6.138  1.3812  0.0645  0.2658
  181MOL0     H24425   8.774   1.137   6.118 -0.3608 -1.4660 -1.3037
  181MOL0     H24426   8.835   1.250   6.016  2.5040 -1.5389  0.0021
  181MOL0     H24427   8.728   1.429   6.183 -2.6993  0.1960 -0.3907
  181MOL0     H24428   8.720   1.306   6.305  2.5710 -1.4448 -1.2078
  181MOL0     H24429   8.580   1.280   6.041  4.6883 -1.0376  1.0700
  181MOL0     H24430   8.555   1.192   6.186  0.2025 -0.7331 -0.9050
  181MOL0     H24431   8.369   1.592   6.244  3.0376  1.5167  0.5933
  181MOL0     H24432   9.134   1.577   6.245 -0.0408 -1.4502  1.0492
  181MOL0     H24433   9.390   1.768   6.134 -1.3222  2.3582  2.3519
  181MOL0     H24434   9.275   1.731   6.264 -1.6404 -1.6135 -1.6803
  181MOL0     H24435   9.436   1.657   6.269  1.4523 -1.8945 -1.9332
  182MOL0     O24436   2.980  11.260   7.561 -0.0159 -0.6450 -0.0538
  182MOL0     C24437   2.920  11.348   7.500 -0.1702  0.7631 -0.3628
  182MOL0     O24438   2.979  11.447   7.424  0.5010  0.5166 -0.4101
  182MOL0     C24439   3.112  11.474   7.430 -0.2849 -0.0071  0.5096
  182MOL0     C24440   3.216  11.384   7.462  0.1822 -0.7075 -1.1483
  182MOL0     C24441   3.349  11.426   7.462 -0.1036 -0.2622 -0.2890
  182MOL0     C24442   3.386  11.558   7.418 -0.1055  0.8276  0.0800
  182MOL0     O24443   3.515  11.608   7.418 -0.4357 -0.4254 -0.3989
  182MOL0     C24444   3.631  11.521   7.432 -0.1219  0.5780  0.0926
  182MOL0     C24445   3.772  11.585   7.417  0.4197  0.3247 -0.2960
  182MOL0     C24446   3.795  11.650   7.283 -0.1096 -0.7412 -0.8198
  182MOL0     C24447   3.939  11.695   7.266 -0.0599  0.3908  0.5253
  182MOL0     C24448   3.966  11.739   7.120 -0.3284 -0.0660 -0.2696
  182MOL0     C24449   4.089  11.825   7.106 -0.1712  0.7817 -0.2733
  182MOL0     C24450   4.090  11.959   7.178 -0.2721  0.6186 -0.0242
  182MOL0     C24451   4.227  12.032   7.143 -0.0257  1.3543  0.1768
  182MOL0     N24452   4.325  11.985   7.237 -1.4767 -0.3055 -0.4545
  182MOL0     C24453   4.426  11.885   7.218 -0.0351  0.4654 -0.1638
  182MOL0     C24454   4.487  11.864   7.337  0.0126 -0.2353 -0.1905
  182MOL0     C24455   4.585  11.764   7.408  0.5322 -0.5022  0.7462
  182MOL0     C24456   4.721  11.818   7.402 -0.8583 -0.3870 -0.1594
  182MOL0     C24457   4.825  11.736   7.486 -0.7103 -0.3012 -0.1039
  182MOL0     C24458   4.800  11.708   7.632  1.0784  0.2977  0.1556
  182MOL0     O24459   4.784  11.829   7.703  0.6843 -0.2466  0.3451
  182MOL0     C24460   4.893  11.904   7.733 -1.1191 -0.5170  0.3087
  182MOL0     C24461   5.027  11.871   7.730  0.3367 -0.5127 -0.1104
  182MOL0     C24462   5.131  11.956   7.776 -0.1095 -0.0584  0.3083
  182MOL0     C24463   5.096  12.084   7.812  0.6379 -0.6060 -0.7283
  182MOL0     C24464   5.209  12.173   7.835  0.6383 -0.7948  0.0153
  182MOL0     O24465   5.338  12.131   7.801 -0.7924 -0.4042  0.0761
  182MOL0     C24466   5.450  12.221   7.790 -0.3246  0.2545  0.8915
  182MOL0     C24467   5.429  12.352   7.745 -0.5995  0.5329  0.2904
  182MOL0     C24468   5.535  12.443   7.740  0.0464 -0.2189 -0.6757
  182MOL0     C24469   5.665  12.413   7.780  0.3963 -0.4328  0.2189
  182MOL0     O24470   5.752  12.506   7.793 -0.2132  0.0232  0.3770
  182MOL0     C24471   5.881  12.489   7.829 -0.4956  0.3774  0.4962
  182MOL0     C24472   5.961  12.629   7.839  0.9347 -0.4585 -0.3054
  182MOL0     C24473   5.901  12.727   7.948 -0.1570  0.0595  0.1862
  182MOL0     C24474   6.004  12.825   7.999  0.8303  0.4333 -0.2530
  182MOL0     C24475   6.048  12.917   7.889 -0.0718  0.2890 -0.0071
  182MOL0     C24476   6.153  13.024   7.936 -0.1609  0.8554 -0.3472
  182MOL0     C24477   6.248  13.080   7.824 -0.9582  0.1279  0.2635
  182MOL0     C24478   6.405  13.074   7.847 -0.5778  0.3289 -0.5902
  182MOL0    Cl24479   6.462  12.906   7.908  0.3208  0.1235  0.1284
  182MOL0     C24480   5.685  12.276   7.815 -0.0541  0.1067  0.1964
  182MOL0     C24481   5.578  12.186   7.815 -0.0603  0.5866 -0.5391
  182MOL0     O24482   5.180  12.280   7.895  0.2839  0.8312 -0.7310
  182MOL0     C24483   4.959  12.125   7.817 -0.0816  0.4957  0.9210
  182MOL0     C24484   4.862  12.040   7.780 -0.5622  0.6098 -1.0341
  182MOL0     N24485   4.416  11.946   7.418  0.6508 -0.5690 -0.3585
  182MOL0     N24486   4.329  12.016   7.365 -0.4374 -0.2848  0.6037
  182MOL0     C24487   3.278  11.646   7.388  0.0758 -0.5753 -0.4466
  182MOL0     C24488   3.149  11.606   7.389 -0.1770  0.0864 -0.7403
  182MOL0     C24489   2.771  11.346   7.500  0.3618  0.1717 -0.2598
  182MOL0     C24490   2.701  11.468   7.501  0.3982  0.1873  0.0812
  182MOL0     C24491   2.565  11.467   7.476  0.2630 -0.8938  0.0875
  182MOL0     C24492   2.482  11.354   7.491  0.3674  0.8190 -0.2663
  182MOL0     O24493   2.346  11.377   7.497 -0.0357  0.0393 -0.0885
  182MOL0     C24494   2.254  11.274   7.497 -0.7395  0.2640  0.8089
  182MOL0     C24495   2.112  11.313   7.505 -0.0920  0.6570 -0.3747
  182MOL0     C24496   2.096  11.400   7.629 -0.6121 -0.7313  0.2549
  182MOL0     C24497   1.989  11.497   7.597  0.4696 -0.1692 -0.2531
  182MOL0     C24498   1.955  11.593   7.707 -0.0434 -0.2793 -0.1159
  182MOL0     C24499   1.932  11.682   7.787  0.1091  0.2499 -0.5161
  182MOL0     C24500   2.553  11.233   7.505  0.9521 -1.0877  0.1934
  182MOL0     C24501   2.693  11.228   7.508  0.1392 -0.3959  0.0115
  182MOL0     C24502   2.750  11.094   7.514 -0.1097 -0.7045  1.0147
  182MOL0     H24503   3.207  11.281   7.493  1.8308 -0.4969  0.1889
  182MOL0     H24504   3.421  11.350   7.489  0.8944  0.6877 -0.2131
  182MOL0     H24505   3.633  11.477   7.532  0.9095  1.0133  0.2731
  182MOL0     H24506   3.610  11.452   7.350 -2.6719  3.1241 -1.5784
  182MOL0     H24507   3.835  11.497   7.432 -0.8634 -0.5487  0.2067
  182MOL0     H24508   3.794  11.655   7.498 -2.6345  0.6453  0.3856
  182MOL0     H24509   3.738  11.742   7.272  0.4993  0.2832  3.1080
  182MOL0     H24510   3.768  11.579   7.205 -0.7859 -1.4641  0.0484
  182MOL0     H24511   3.957  11.771   7.342  1.5283  1.3438 -0.7478
  182MOL0     H24512   4.017  11.620   7.284  0.1079  0.4227 -0.0493
  182MOL0     H24513   3.979  11.648   7.062  2.6144 -0.4934  0.8847
  182MOL0     H24514   3.883  11.806   7.095 -2.9678 -1.9359  2.7538
  182MOL0     H24515   4.173  11.771   7.150 -0.4297 -0.3806 -1.1455
  182MOL0     H24516   4.107  11.847   7.000  1.9613  0.7478  0.0362
  182MOL0     H24517   4.080  11.950   7.286 -0.2468 -1.7493 -0.1609
  182MOL0     H24518   4.012  12.023   7.134 -0.1106 -0.9972 -2.9391
  182MOL0     H24519   4.252  12.020   7.037 -1.3280 -4.7027  0.2122
  182MOL0     H24520   4.224  12.141   7.152  0.8083  1.2112  2.9075
  182MOL0     H24521   4.439  11.830   7.125  1.3590  0.4025  0.0496
  182MOL0     H24522   4.560  11.755   7.514  1.6907  0.8295  1.1651
  182MOL0     H24523   4.584  11.667   7.358  0.5189  0.4693 -1.2353
  182MOL0     H24524   4.745  11.813   7.296 -1.3759 -0.3175 -0.2854
  182MOL0     H24525   4.726  11.925   7.428  1.2150 -0.6876  0.8972
  182MOL0     H24526   4.926  11.778   7.491  0.4182 -2.9514  1.9469
  182MOL0     H24527   4.820  11.637   7.440  2.2812  0.8463 -3.3821
  182MOL0     H24528   4.880  11.649   7.676 -1.8158 -2.1065  2.6579
  182MOL0     H24529   4.710  11.646   7.633  1.8285 -0.8347 -0.4643
  182MOL0     H24530   5.052  11.771   7.694  0.7110 -0.0074 -1.3036
  182MOL0     H24531   5.230  11.912   7.787 -0.7805 -2.2725 -1.8451
  182MOL0     H24532   5.333  12.373   7.699  0.1755  0.8600 -1.2650
  182MOL0     H24533   5.514  12.544   7.705 -0.5772 -0.0152  0.2542
  182MOL0     H24534   5.905  12.438   7.923  2.5638  1.6017  0.5120
  182MOL0     H24535   5.917  12.425   7.749 -1.0889  1.3149 -0.5483
  182MOL0     H24536   6.061  12.612   7.879  0.4384  0.8759  1.7088
  182MOL0     H24537   5.959  12.691   7.749  0.6433  2.4967  1.5794
  182MOL0     H24538   5.825  12.783   7.893  1.6719  2.0346 -0.4672
  182MOL0     H24539   5.852  12.672   8.029 -1.1820  0.0384 -0.4242
  182MOL0     H24540   6.090  12.770   8.039 -1.1412 -1.8028  1.1845
  182MOL0     H24541   5.971  12.889   8.082 -1.6069  1.1476 -1.6945
  182MOL0     H24542   5.959  12.963   7.846  0.4971  0.6111 -0.8665
  182MOL0     H24543   6.094  12.853   7.813 -1.2563  0.6363 -1.0447
  182MOL0     H24544   6.100  13.110   7.978  0.1161  0.3698  1.0590
  182MOL0     H24545   6.215  12.990   8.020  0.0838  2.3324  0.0925
  182MOL0     H24546   6.219  13.184   7.806 -0.9673  0.5328  2.3636
  182MOL0     H24547   6.231  13.019   7.735  0.2055 -1.2893  0.9725
  182MOL0     H24548   6.455  13.096   7.752  1.2311 -2.5097 -0.4073
  182MOL0     H24549   6.426  13.148   7.924 -2.9315 -0.4078  0.8551
  182MOL0     H24550   5.788  12.252   7.839 -0.2737 -0.9971  0.0859
  182MOL0     H24551   5.595  12.086   7.853 -1.1490 -0.0315 -1.5850
  182MOL0     H24552   4.927  12.225   7.846 -3.0562  0.5562 -2.0161
  182MOL0     H24553   4.758  12.071   7.781 -1.1583 -1.2553  0.2694
  182MOL0     H24554   3.303  11.749   7.363 -1.5668  0.0964  0.5282
  182MOL0     H24555   3.071  11.678   7.366 -0.6428  0.4359  1.6367
  182MOL0     H24556   2.762  11.558   7.498 -1.4724  1.4903 -1.8634
  182MOL0     H24557   2.515  11.563   7.467  2.6623  0.4267  0.1823
  182MOL0     H24558   2.282  11.216   7.586  1.9940  1.3920  0.7688
  182MOL0     H24559   2.268  11.209   7.411  2.8926 -1.2565  2.3506
  182MOL0     H24560   2.051  11.225   7.525  0.6722  0.0159 -0.7980
  182MOL0     H24561   2.091  11.358   7.408  3.8143  3.8511  0.0062
  182MOL0     H24562   2.189  11.452   7.654 -1.5068  1.7999 -1.2422
  182MOL0     H24563   2.073  11.333   7.712 -1.6889 -0.6652  0.0301
  182MOL0     H24564   2.019  11.563   7.515 -1.8728  2.0323  0.5164
  182MOL0     H24565   1.894  11.448   7.573  0.1491 -0.9193  2.1785
  182MOL0     H24566   1.913  11.772   7.843  0.4012  0.9458 -1.4980
  182MOL0     H24567   2.489  11.145   7.509 -0.0703 -0.3353  0.8471
  182MOL0     H24568   2.822  11.079   7.595  0.0020 -0.1112  1.0255
  182MOL0     H24569   2.674  11.022   7.547  0.0208 -0.7879  1.1350
  182MOL0     H24570   2.796  11.072   7.418 -1.6424 -0.7641  0.2519
  183MOL0     O24571   3.400   3.310   0.914 -0.5508  0.6406 -1.0502
  183MOL0     C24572   3.342   3.213   0.967  0.0660  0.4069  1.8016
  183MOL0     O24573   3.398   3.117   1.049 -0.6604  0.7230  0.3192
  183MOL0     C24574   3.532   3.110   1.061  0.0889 -0.9484 -0.0806
  183MOL0     C24575   3.564   3.072   1.187 -0.6446  1.0475  0.1650
  183MOL0     C24576   3.693   3.035   1.217 -0.0958 -0.4714 -0.5424
  183MOL0     C24577   3.795   3.054   1.126 -0.3614 -0.0405 -0.9817
  183MOL0     O24578   3.925   3.020   1.159  0.6790 -0.2404  0.2452
  183MOL0     C24579   4.028   3.053   1.066 -0.4631  0.4426 -0.5025
  183MOL0     C24580   4.165   3.029   1.127  0.3569  0.2081 -0.0531
  183MOL0     C24581   4.205   3.133   1.228  0.2309 -0.2271 -0.4301
  183MOL0     C24582   4.347   3.112   1.286  0.5258  0.4759 -0.2179
  183MOL0     C24583   4.469   3.108   1.191  0.0845 -0.0108  0.1059
  183MOL0     C24584   4.595   3.091   1.263  0.8899  0.1368 -0.5110
  183MOL0     C24585   4.704   3.056   1.151  0.4873  0.3168  0.2686
  183MOL0     C24586   4.842   3.054   1.208  0.2138  0.1235 -0.2419
  183MOL0     N24587   4.902   3.189   1.230 -0.6705 -0.2086  0.2812
  183MOL0     C24588   4.856   3.302   1.302 -0.9992 -0.9161 -0.4290
  183MOL0     C24589   4.955   3.395   1.291  0.2276 -0.1584 -0.0207
  183MOL0     C24590   4.940   3.545   1.329  0.6353  0.4805 -0.1208
  183MOL0     C24591   4.976   3.552   1.479 -0.5410  0.0177 -0.8011
  183MOL0     C24592   4.883   3.502   1.587  0.7575  0.1897  0.2416
  183MOL0     C24593   4.745   3.569   1.604 -0.1812 -0.5588  0.3347
  183MOL0     O24594   4.682   3.548   1.481  0.1157  0.2931  0.6178
  183MOL0     C24595   4.545   3.563   1.478 -0.0805  0.0001  0.4796
  183MOL0     C24596   4.483   3.507   1.358  0.4004  0.1611 -0.1161
  183MOL0     C24597   4.341   3.504   1.352  0.8453  1.1144 -0.1260
  183MOL0     C24598   4.261   3.570   1.443  0.2091 -0.8350  0.8489
  183MOL0     C24599   4.111   3.592   1.421 -0.4822  0.3737  0.2445
  183MOL0     O24600   4.056   3.522   1.321 -0.0471 -0.1328  0.7332
  183MOL0     C24601   3.932   3.570   1.277 -0.2994 -0.2516 -0.8641
  183MOL0     C24602   3.831   3.484   1.245  0.3190  0.3656  0.4614
  183MOL0     C24603   3.709   3.539   1.187  0.2116 -0.3936  0.4934
  183MOL0     C24604   3.689   3.675   1.151  0.0197 -0.8300  0.3373
  183MOL0     O24605   3.577   3.715   1.089  0.7616 -0.1852  0.3545
  183MOL0     C24606   3.577   3.836   1.012  0.6556  0.4269 -0.3120
  183MOL0     C24607   3.454   3.856   0.916  0.2357  0.2345  0.0040
  183MOL0     C24608   3.456   4.001   0.853 -0.4067  0.3352 -0.2552
  183MOL0     C24609   3.564   4.013   0.747  0.9958 -0.5429 -1.1103
  183MOL0     C24610   3.545   3.933   0.623  0.2920  1.0331  0.2977
  183MOL0     C24611   3.439   3.978   0.530  0.1761  0.1909 -0.4782
  183MOL0     C24612   3.399   3.852   0.447  0.3984 -0.8202  0.2483
  183MOL0     C24613   3.511   3.798   0.362  0.4901 -0.0710  0.1232
  183MOL0    Cl24614   3.545   3.919   0.230  0.1337  0.3281  0.0010
  183MOL0     C24615   3.798   3.758   1.171 -0.4152  0.5567 -0.1167
  183MOL0     C24616   3.911   3.708   1.238  0.1186  0.0531 -0.5815
  183MOL0     O24617   4.047   3.664   1.500 -0.1459  0.7515 -0.1530
  183MOL0     C24618   4.327   3.634   1.552 -0.6858 -0.0489  0.0066
  183MOL0     C24619   4.466   3.623   1.572  0.0301 -0.6971 -0.4986
  183MOL0     N24620   5.057   3.340   1.210  0.2605 -0.3281  0.5150
  183MOL0     N24621   5.026   3.223   1.178  0.5514 -0.2449 -0.6148
  183MOL0     C24622   3.754   3.105   1.000 -0.6865 -0.3049  0.3928
  183MOL0     C24623   3.628   3.130   0.962  0.3419  0.5014  0.2702
  183MOL0     C24624   3.196   3.194   0.935  0.8442 -0.7463  0.0256
  183MOL0     C24625   3.114   3.145   1.036  0.5711  0.6108 -0.2506
  183MOL0     C24626   2.977   3.125   1.012  0.4666 -0.1981 -0.3064
  183MOL0     C24627   2.915   3.177   0.895 -0.2692  0.1608  0.3707
  183MOL0     O24628   2.774   3.182   0.888 -0.5864 -0.4093 -0.6038
  183MOL0     C24629   2.698   3.064   0.913 -1.0714 -0.5641  0.1185
  183MOL0     C24630   2.699   2.971   0.795 -0.1781 -0.1983  0.4284
  183MOL0     C24631   2.567   2.996   0.706  0.0105 -1.2030  0.2670
  183MOL0     C24632   2.576   3.134   0.635  0.6778  0.1830  0.7411
  183MOL0     C24633   2.680   3.135   0.533  0.4193 -0.1544 -0.4166
  183MOL0     C24634   2.770   3.119   0.452 -0.6535  0.2934 -0.4225
  183MOL0     C24635   3.005   3.221   0.796 -0.7591  0.5793 -0.1750
  183MOL0     C24636   3.146   3.226   0.809 -0.5060 -0.5225  0.5910
  183MOL0     C24637   3.223   3.290   0.690 -0.0993  0.0568 -0.1503
  183MOL0     H24638   3.487   3.060   1.262  0.9900  0.8364  1.8782
  183MOL0     H24639   3.720   2.998   1.315  2.9975  1.1932 -0.6256
  183MOL0     H24640   4.023   3.011   0.965  1.5544  3.2367 -1.9050
  183MOL0     H24641   4.013   3.161   1.063 -2.9974  0.2559  1.5801
  183MOL0     H24642   4.233   3.026   1.042  0.7244  1.3132  0.1893
  183MOL0     H24643   4.167   2.927   1.167 -1.8559 -1.7130 -4.2181
  183MOL0     H24644   4.126   3.133   1.304 -0.4286  3.0996 -0.9698
  183MOL0     H24645   4.203   3.232   1.182  2.8761 -0.0578 -0.3168
  183MOL0     H24646   4.354   3.198   1.354  0.2052  1.0882 -0.9505
  183MOL0     H24647   4.345   3.019   1.345 -2.9502  1.2855  1.2178
  183MOL0     H24648   4.458   3.019   1.129 -1.9961 -0.4384  0.9872
  183MOL0     H24649   4.472   3.197   1.128  1.5977  0.2435  0.5068
  183MOL0     H24650   4.626   3.174   1.327 -0.4058 -0.1386  0.5326
  183MOL0     H24651   4.596   3.011   1.337  2.4112  0.1978 -0.4483
  183MOL0     H24652   4.719   3.142   1.084 -0.9544 -0.8297 -1.6341
  183MOL0     H24653   4.681   2.957   1.111 -0.7198 -0.0550  1.8072
  183MOL0     H24654   4.846   2.992   1.298  2.3471 -0.7934 -0.8949
  183MOL0     H24655   4.911   2.991   1.151  2.1203  0.8565  1.1407
  183MOL0     H24656   4.755   3.326   1.336  0.1537  1.1921  1.8635
  183MOL0     H24657   5.014   3.603   1.272 -0.6394 -1.0060 -3.5478
  183MOL0     H24658   4.845   3.593   1.304  0.4669 -0.4069 -1.2409
  183MOL0     H24659   5.072   3.502   1.496 -0.8530 -0.3300  0.0136
  183MOL0     H24660   4.991   3.659   1.497  1.3459 -0.0075 -1.9517
  183MOL0     H24661   4.946   3.499   1.677  0.1166 -0.8092  0.6793
  183MOL0     H24662   4.867   3.394   1.577 -0.9175  0.3550  0.9125
  183MOL0     H24663   4.759   3.677   1.617  0.6592 -0.6852  0.4992
  183MOL0     H24664   4.689   3.530   1.690 -2.2231 -0.2590 -0.7819
  183MOL0     H24665   4.521   3.461   1.268 -0.9357  1.8359 -1.5967
  183MOL0     H24666   4.291   3.467   1.263 -3.9384  1.0244  2.2760
  183MOL0     H24667   3.851   3.381   1.275  2.4122  1.1296  1.8881
  183MOL0     H24668   3.626   3.473   1.163  1.3580 -1.0208 -2.0522
  183MOL0     H24669   3.577   3.912   1.090 -1.8738 -2.3033  2.6756
  183MOL0     H24670   3.666   3.830   0.950 -1.2313 -1.5807 -3.0531
  183MOL0     H24671   3.441   3.783   0.835  2.6084  0.7968 -0.9939
  183MOL0     H24672   3.366   3.837   0.977 -0.0775  0.0703 -0.4949
  183MOL0     H24673   3.356   4.015   0.811 -0.7199 -1.2613 -0.1123
  183MOL0     H24674   3.474   4.071   0.935  0.0497 -0.6888  0.5400
  183MOL0     H24675   3.661   3.988   0.792  2.8901  0.4558 -4.3204
  183MOL0     H24676   3.569   4.117   0.714 -1.2793  0.2210  0.7172
  183MOL0     H24677   3.530   3.825   0.637 -0.8699  1.2098  0.4809
  183MOL0     H24678   3.646   3.936   0.581  0.2792  1.6550  0.3054
  183MOL0     H24679   3.357   4.026   0.584  1.5096  0.5506  1.3163
  183MOL0     H24680   3.483   4.059   0.471 -3.4686  1.1041 -2.2611
  183MOL0     H24681   3.328   3.892   0.374 -0.2032 -1.1138  0.6657
  183MOL0     H24682   3.338   3.779   0.502 -1.9446 -0.9946 -2.3265
  183MOL0     H24683   3.597   3.769   0.424  0.1832 -2.7636 -0.5657
  183MOL0     H24684   3.478   3.708   0.309 -0.6689  0.0123  0.6831
  183MOL0     H24685   3.802   3.861   1.139 -0.9216  0.1555 -1.5207
  183MOL0     H24686   3.990   3.781   1.255 -2.0006  2.8876 -1.9369
  183MOL0     H24687   4.266   3.682   1.628 -0.0925 -2.8998  2.4799
  183MOL0     H24688   4.500   3.670   1.664  1.1719 -2.0358 -0.2002
  183MOL0     H24689   3.829   3.128   0.926 -0.4495  0.1435  0.7629
  183MOL0     H24690   3.602   3.157   0.860  2.6913  0.9693 -0.2675
  183MOL0     H24691   3.166   3.111   1.125 -2.9760  0.0125  1.7661
  183MOL0     H24692   2.918   3.070   1.084  2.6302  0.1174  1.8276
  183MOL0     H24693   2.596   3.093   0.941 -2.3579 -1.8182 -2.7899
  183MOL0     H24694   2.742   3.011   0.997 -0.4430 -1.8360 -0.9788
  183MOL0     H24695   2.691   2.864   0.819  0.3727 -1.5729 -4.2760
  183MOL0     H24696   2.792   2.987   0.740 -0.2783  1.3877  0.6799
  183MOL0     H24697   2.478   2.985   0.768  0.3699  1.8594  1.4969
  183MOL0     H24698   2.562   2.934   0.616  1.5262 -1.5114  0.3628
  183MOL0     H24699   2.480   3.158   0.588  0.8107  1.0509  0.8991
  183MOL0     H24700   2.596   3.210   0.711 -0.9318  2.5809 -1.0665
  183MOL0     H24701   2.849   3.102   0.382 -0.8892 -1.0639 -0.3825
  183MOL0     H24702   2.960   3.256   0.704 -0.7056  4.4078  1.0855
  183MOL0     H24703   3.329   3.265   0.686 -0.0156  0.4981 -0.9007
  183MOL0     H24704   3.185   3.240   0.601  1.1249 -1.6661  0.2524
  183MOL0     H24705   3.215   3.399   0.683 -0.3377  0.1524  1.2143
  184MOL0     O24706   5.158   7.403   1.149 -0.3773 -1.0130 -0.4148
  184MOL0     C24707   5.220   7.506   1.155  0.1101  1.0273  0.1139
  184MOL0     O24708   5.209   7.611   1.067  0.2463  0.5708  0.0974
  184MOL0     C24709   5.138   7.590   0.955 -0.2407 -0.7326  0.7103
  184MOL0     C24710   5.005   7.559   0.964 -0.0455  0.3441 -0.4630
  184MOL0     C24711   4.941   7.525   0.841  0.2233 -0.5080  0.6543
  184MOL0     C24712   5.002   7.540   0.711  0.4066 -0.5452 -0.8638
  184MOL0     O24713   4.953   7.483   0.597  0.1737  0.1933  0.3674
  184MOL0     C24714   4.817   7.517   0.562 -0.9424  0.7756 -1.1723
  184MOL0     C24715   4.798   7.498   0.418 -0.2679 -0.4681  1.2073
  184MOL0     C24716   4.659   7.533   0.367  0.2939 -0.3392 -1.1696
  184MOL0     C24717   4.632   7.548   0.217 -1.0258 -0.5197 -0.1713
  184MOL0     C24718   4.494   7.562   0.177  0.7474 -0.1580  0.1303
  184MOL0     C24719   4.421   7.672   0.237  0.2813 -0.1897 -0.3430
  184MOL0     C24720   4.457   7.807   0.170 -0.2658 -1.0470  0.3444
  184MOL0     C24721   4.453   7.931   0.265  0.4265 -0.6287  0.5955
  184MOL0     N24722   4.545   7.906   0.376  0.1863 -0.1838 -0.9518
  184MOL0     C24723   4.682   7.918   0.366 -0.0367  0.0028 -0.2720
  184MOL0     C24724   4.732   7.898   0.481 -0.1336 -0.0327  0.6562
  184MOL0     C24725   4.880   7.894   0.522  0.6511 -0.0510  0.7796
  184MOL0     C24726   4.966   8.008   0.461  0.7953  0.9712 -0.2720
  184MOL0     C24727   4.921   8.143   0.517  0.8071  0.2404  0.3368
  184MOL0     C24728   4.957   8.168   0.664 -0.5486 -0.3145 -0.3671
  184MOL0     O24729   5.102   8.190   0.673  0.4650  0.8461  0.3062
  184MOL0     C24730   5.187   8.105   0.735  0.1903  0.1310  0.4549
  184MOL0     C24731   5.172   8.032   0.847 -0.1664 -0.2187  0.1309
  184MOL0     C24732   5.264   7.934   0.885 -0.4389 -0.6102  0.0162
  184MOL0     C24733   5.391   7.925   0.820  0.2000 -0.2623  0.0105
  184MOL0     C24734   5.483   7.838   0.871  0.1573 -1.5107  0.2792
  184MOL0     O24735   5.566   7.789   0.775  0.1356  0.2694  0.3197
  184MOL0     C24736   5.678   7.727   0.818 -0.3863  0.4460 -0.1789
  184MOL0     C24737   5.680   7.585   0.838 -0.6779  0.1290  1.3816
  184MOL0     C24738   5.797   7.518   0.840  0.6562  0.2770 -0.1791
  184MOL0     C24739   5.917   7.587   0.830 -0.3736 -0.5867  0.3326
  184MOL0     O24740   6.040   7.529   0.851 -0.0226  0.7559 -0.2428
  184MOL0     C24741   6.059   7.386   0.856  1.0093 -0.1004  0.6836
  184MOL0     C24742   6.202   7.346   0.861 -0.7104 -0.1971 -0.2690
  184MOL0     C24743   6.273   7.379   0.722  0.0362  0.5871  0.3793
  184MOL0     C24744   6.430   7.369   0.746  0.0394 -0.8077  0.7703
  184MOL0     C24745   6.512   7.434   0.628  1.1556 -0.2664 -0.5452
  184MOL0     C24746   6.658   7.439   0.665 -0.1417 -1.0734  0.1883
  184MOL0     C24747   6.736   7.309   0.684 -0.2869 -0.2134 -0.1612
  184MOL0     C24748   6.840   7.312   0.801 -0.0860 -0.3833  0.3435
  184MOL0    Cl24749   6.954   7.442   0.777 -0.0170  0.0251  0.4932
  184MOL0     C24750   5.918   7.720   0.793  0.2366 -0.8726 -0.3653
  184MOL0     C24751   5.799   7.798   0.791 -0.7334 -0.0354  0.0038
  184MOL0     O24752   5.486   7.828   0.995  0.1084 -0.1572  0.1809
  184MOL0     C24753   5.416   8.010   0.713  0.1674 -0.0366  0.8545
  184MOL0     C24754   5.308   8.091   0.669  0.5238  1.3971  1.2761
  184MOL0     N24755   4.622   7.892   0.574  0.3200 -0.1781  0.6721
  184MOL0     N24756   4.512   7.896   0.507 -0.0682 -0.2820  0.5477
  184MOL0     C24757   5.130   7.586   0.707 -0.2351 -0.1908  0.4037
  184MOL0     C24758   5.201   7.611   0.825 -0.3006 -0.0317  0.4002
  184MOL0     C24759   5.304   7.529   1.270  0.0175 -0.2271 -0.1182
  184MOL0     C24760   5.427   7.594   1.257 -0.3169  1.7022 -0.1656
  184MOL0     C24761   5.505   7.622   1.368 -0.1831 -0.1239  0.6073
  184MOL0     C24762   5.462   7.583   1.493 -0.7000  0.2151  0.9090
  184MOL0     O24763   5.544   7.620   1.592  0.3075  0.5185 -0.1141
  184MOL0     C24764   5.527   7.537   1.716 -0.7417 -0.8738  0.2859
  184MOL0     C24765   5.662   7.551   1.794  0.6318  0.3405 -0.2047
  184MOL0     C24766   5.790   7.508   1.725 -0.0724  0.1990  0.3226
  184MOL0     C24767   5.901   7.477   1.825 -0.6519 -0.4886 -0.1857
  184MOL0     C24768   6.030   7.474   1.753 -0.1335  0.8082  0.1943
  184MOL0     C24769   6.124   7.494   1.679 -0.2552  0.7669 -0.6657
  184MOL0     C24770   5.348   7.505   1.507  0.3003 -0.3328  0.1256
  184MOL0     C24771   5.266   7.485   1.400 -0.0929 -0.0949 -0.2719
  184MOL0     C24772   5.139   7.417   1.425  0.2477  0.4783  0.4940
  184MOL0     H24773   4.953   7.541   1.058 -3.3346  0.2459 -2.1344
  184MOL0     H24774   4.839   7.489   0.838 -0.4014  0.9899  2.2439
  184MOL0     H24775   4.756   7.449   0.623 -1.2023  0.6616 -1.5501
  184MOL0     H24776   4.799   7.620   0.592 -2.2323 -0.0655  1.1924
  184MOL0     H24777   4.810   7.398   0.375  0.3198  0.5738 -1.2427
  184MOL0     H24778   4.867   7.564   0.364 -1.9183 -1.7170 -2.8146
  184MOL0     H24779   4.627   7.627   0.414 -0.6357 -2.5743  3.2346
  184MOL0     H24780   4.601   7.451   0.410  3.2399 -0.6620  2.7163
  184MOL0     H24781   4.697   7.623   0.171  2.9725 -2.3106  2.0136
  184MOL0     H24782   4.675   7.462   0.164  1.0165  1.4355 -1.8552
  184MOL0     H24783   4.492   7.558   0.068  2.7248 -0.8544  0.0755
  184MOL0     H24784   4.441   7.471   0.208  1.7799 -0.1690  2.0294
  184MOL0     H24785   4.318   7.666   0.200 -1.7893  1.5883  4.3180
  184MOL0     H24786   4.415   7.660   0.346  2.5831 -2.1126 -0.3613
  184MOL0     H24787   4.377   7.832   0.100 -0.3224  1.7456  1.2861
  184MOL0     H24788   4.550   7.793   0.115 -0.4438 -0.0913 -0.2260
  184MOL0     H24789   4.486   8.017   0.207  0.0520 -0.2212  0.9830
  184MOL0     H24790   4.349   7.943   0.295 -0.1002 -0.8634 -1.0480
  184MOL0     H24791   4.745   7.935   0.279  1.3083  1.1438  0.8785
  184MOL0     H24792   4.881   7.891   0.632 -1.6684  0.5919  0.8607
  184MOL0     H24793   4.924   7.801   0.483 -0.0216  0.3538 -1.0127
  184MOL0     H24794   5.073   7.986   0.472  0.6570 -2.7313 -4.0221
  184MOL0     H24795   4.948   7.985   0.356  1.1197  1.5525 -0.4600
  184MOL0     H24796   4.813   8.158   0.513  0.3578 -2.5983 -3.4787
  184MOL0     H24797   4.969   8.219   0.453 -0.2746  0.2262 -0.5160
  184MOL0     H24798   4.930   8.082   0.726 -0.7050 -0.8154 -1.1209
  184MOL0     H24799   4.910   8.259   0.702  1.8848  0.9205 -0.1763
  184MOL0     H24800   5.076   8.037   0.898 -2.7274 -1.4254 -4.0736
  184MOL0     H24801   5.242   7.867   0.967  1.6003 -3.4423 -1.5611
  184MOL0     H24802   5.585   7.533   0.835 -1.2634  1.0722  2.4521
  184MOL0     H24803   5.799   7.411   0.853 -1.7336  0.0192 -1.3979
  184MOL0     H24804   6.004   7.354   0.945 -0.2103 -2.1247 -0.7024
  184MOL0     H24805   6.013   7.337   0.769  0.7470  0.3052  0.5897
  184MOL0     H24806   6.256   7.400   0.939 -1.1393  0.6450 -0.5370
  184MOL0     H24807   6.212   7.238   0.873  0.4384 -0.0273  0.4302
  184MOL0     H24808   6.240   7.320   0.636 -1.4936  2.7484 -0.6193
  184MOL0     H24809   6.243   7.483   0.704  1.0045  1.3440  2.7006
  184MOL0     H24810   6.461   7.264   0.751 -0.4515 -0.9331  1.2178
  184MOL0     H24811   6.465   7.424   0.834 -1.7293 -0.0223  1.0247
  184MOL0     H24812   6.469   7.530   0.602 -0.9565 -1.5902 -2.2167
  184MOL0     H24813   6.496   7.363   0.547 -0.3252 -0.2830 -0.2647
  184MOL0     H24814   6.717   7.501   0.597 -0.1629 -1.4105 -0.1409
  184MOL0     H24815   6.662   7.493   0.760 -3.4787 -1.1595  0.4998
  184MOL0     H24816   6.792   7.300   0.591 -0.6659  2.5408 -0.7335
  184MOL0     H24817   6.664   7.226   0.691 -1.4961  0.9315  1.8872
  184MOL0     H24818   6.782   7.323   0.893  0.5044 -2.3389  1.0087
  184MOL0     H24819   6.903   7.224   0.814 -0.6147 -0.5500  1.9851
  184MOL0     H24820   6.005   7.779   0.766 -0.0948  0.8662  2.0798
  184MOL0     H24821   5.793   7.900   0.754 -3.5882 -0.1013  0.0780
  184MOL0     H24822   5.516   8.016   0.672  0.3294  0.7790  1.3521
  184MOL0     H24823   5.318   8.142   0.573 -2.1540  1.5406  1.0150
  184MOL0     H24824   5.153   7.600   0.602 -1.9794 -3.8807 -0.6130
  184MOL0     H24825   5.300   7.655   0.825  0.4366 -1.3306 -3.0829
  184MOL0     H24826   5.457   7.618   1.155 -1.7579 -2.1464 -1.7133
  184MOL0     H24827   5.599   7.676   1.360 -0.5539  0.4347 -0.1245
  184MOL0     H24828   5.518   7.428   1.709  2.3388 -1.6165  4.0408
  184MOL0     H24829   5.436   7.571   1.767 -0.3443 -0.5823  0.8185
  184MOL0     H24830   5.661   7.481   1.877  1.3918  0.4051 -0.1397
  184MOL0     H24831   5.671   7.652   1.834 -1.4825 -0.3096  2.1197
  184MOL0     H24832   5.821   7.584   1.653  0.6235  1.4243  1.8408
  184MOL0     H24833   5.773   7.413   1.673  0.4363  0.5369 -0.4668
  184MOL0     H24834   5.886   7.549   1.905 -1.0925 -1.3039  0.4853
  184MOL0     H24835   5.889   7.379   1.874  0.9624  0.7759  3.0444
  184MOL0     H24836   6.217   7.503   1.626  1.4527 -0.0583  1.9197
  184MOL0     H24837   5.321   7.480   1.610  0.1576 -0.4203  0.0678
  184MOL0     H24838   5.127   7.404   1.533  0.3552  1.1886  0.5956
  184MOL0     H24839   5.055   7.471   1.379  0.6425 -0.2361 -1.1508
  184MOL0     H24840   5.141   7.317   1.381  1.3227 -0.3535  2.3392
  185MOL0     O24841   4.494   6.275   8.506  0.1003 -0.6620 -0.5288
  185MOL0     C24842   4.450   6.220   8.406 -0.1793 -0.1752 -0.1138
  185MOL0     O24843   4.524   6.179   8.302  0.5224 -0.0795 -0.1171
  185MOL0     C24844   4.648   6.223   8.280 -0.2138  0.1654 -0.2714
  185MOL0     C24845   4.750   6.135   8.297  0.2929  0.6978  1.3014
  185MOL0     C24846   4.883   6.175   8.282  0.2521 -0.2483  0.0843
  185MOL0     C24847   4.922   6.307   8.241  0.5562  0.0837 -0.3873
  185MOL0     O24848   5.059   6.337   8.227 -0.2848 -0.3666  0.4717
  185MOL0     C24849   5.102   6.458   8.163 -0.0252  0.2955 -0.3736
  185MOL0     C24850   5.251   6.467   8.154 -0.5311 -0.3144 -0.8076
  185MOL0     C24851   5.314   6.526   8.277 -0.0814  0.0001 -0.2474
  185MOL0     C24852   5.453   6.478   8.300  0.7011  1.0766  0.6593
  185MOL0     C24853   5.451   6.348   8.380 -0.5724 -0.3039  0.0935
  185MOL0     C24854   5.587   6.287   8.394  0.2657  0.1682  1.1665
  185MOL0     C24855   5.593   6.152   8.471 -0.0523  0.1855 -0.4713
  185MOL0     C24856   5.742   6.117   8.496 -0.4066  0.1216  0.8626
  185MOL0     N24857   5.808   6.203   8.589 -0.3865  0.8551  0.5616
  185MOL0     C24858   5.798   6.201   8.723  0.1854 -0.4479  0.1597
  185MOL0     C24859   5.857   6.310   8.766 -1.1504  0.5291  0.5487
  185MOL0     C24860   5.895   6.350   8.912  0.3118 -0.5063  0.5245
  185MOL0     C24861   6.049   6.379   8.923 -0.4075  0.3330  0.4263
  185MOL0     C24862   6.130   6.255   8.904 -0.0275  0.2449 -0.5508
  185MOL0     C24863   6.280   6.283   8.893  0.4793 -1.3114  0.9575
  185MOL0     O24864   6.341   6.303   9.022 -0.3156 -0.0483  0.9683
  185MOL0     C24865   6.476   6.283   9.028 -0.6580  0.6699 -0.4032
  185MOL0     C24866   6.568   6.236   8.936  0.4394 -0.7207  0.4191
  185MOL0     C24867   6.705   6.237   8.973 -0.3629  0.3812  0.6930
  185MOL0     C24868   6.757   6.277   9.097 -0.3324  0.1596  0.3883
  185MOL0     C24869   6.896   6.241   9.140  0.6537 -0.1125  0.7607
  185MOL0     O24870   6.958   6.130   9.074  0.2693 -0.5450 -0.1184
  185MOL0     C24871   7.097   6.130   9.067  0.1595  0.4501  0.0563
  185MOL0     C24872   7.170   6.246   9.065  0.8949 -0.1151 -0.6366
  185MOL0     C24873   7.306   6.234   9.052 -0.2082  0.1967 -0.5383
  185MOL0     C24874   7.381   6.115   9.059  0.4987 -0.6015  0.9411
  185MOL0     O24875   7.516   6.108   9.037 -0.5538  0.2648  0.2280
  185MOL0     C24876   7.598   6.203   8.978  0.5266  0.0594  0.3211
  185MOL0     C24877   7.745   6.181   8.986 -1.0134 -0.2139 -0.5188
  185MOL0     C24878   7.788   6.050   8.934 -0.2624 -0.7576 -0.7759
  185MOL0     C24879   7.938   6.039   8.955  0.3275  0.2599  0.3173
  185MOL0     C24880   7.986   5.901   8.909 -0.5526 -0.0490 -0.0148
  185MOL0     C24881   8.139   5.908   8.911  0.2489 -0.0954  0.6264
  185MOL0     C24882   8.216   5.784   8.863 -0.7397  0.1650  0.2559
  185MOL0     C24883   8.193   5.764   8.712 -0.0518 -0.1364  0.2100
  185MOL0    Cl24884   8.095   5.621   8.687 -0.2907  0.0047 -0.0282
  185MOL0     C24885   7.299   5.995   9.057 -0.1729  0.0941  0.4700
  185MOL0     C24886   7.160   6.001   9.063  0.1928  0.7460  0.0026
  185MOL0     O24887   6.932   6.282   9.248 -0.5886 -0.9863 -0.2200
  185MOL0     C24888   6.661   6.330   9.182  0.4400  0.1976  0.3479
  185MOL0     C24889   6.529   6.327   9.151  0.2471 -0.2367 -0.2931
  185MOL0     N24890   5.913   6.381   8.653  0.5416 -0.3275 -0.7686
  185MOL0     N24891   5.868   6.321   8.548  0.0330  0.5046 -0.1853
  185MOL0     C24892   4.816   6.399   8.217  0.0513  1.1521 -0.2833
  185MOL0     C24893   4.682   6.354   8.237  0.7173  0.6287  0.3041
  185MOL0     C24894   4.304   6.199   8.398  0.5420  0.5019  0.6183
  185MOL0     C24895   4.230   6.187   8.522  0.1100  0.1818  0.1636
  185MOL0     C24896   4.093   6.163   8.514  0.7155  0.5153  0.1591
  185MOL0     C24897   4.022   6.144   8.394  0.2249 -0.5769  0.3737
  185MOL0     O24898   3.885   6.128   8.383 -0.1376 -0.8308 -0.1039
  185MOL0     C24899   3.798   6.109   8.491 -1.3024 -1.2833  0.6650
  185MOL0     C24900   3.665   6.147   8.454  0.7312  0.1756 -0.5327
  185MOL0     C24901   3.566   6.172   8.574  0.2147  0.4540  0.1973
  185MOL0     C24902   3.554   6.065   8.686 -0.3351 -1.0839  0.3087
  185MOL0     C24903   3.655   6.095   8.790  0.2512  1.1729 -0.3050
  185MOL0     C24904   3.718   6.109   8.896  0.5534 -0.0187 -0.9781
  185MOL0     C24905   4.088   6.151   8.273  0.9851  0.9777  0.6841
  185MOL0     C24906   4.233   6.180   8.274  0.7142 -0.5011  0.3831
  185MOL0     C24907   4.294   6.206   8.138  0.7066  0.2334 -0.5503
  185MOL0     H24908   4.725   6.034   8.331 -4.4207  0.2781 -2.3723
  185MOL0     H24909   4.960   6.100   8.301  1.4222  0.8217 -0.2611
  185MOL0     H24910   5.053   6.440   8.067 -1.5653  1.0956  0.2311
  185MOL0     H24911   5.056   6.545   8.211 -3.8219 -1.1811 -1.0036
  185MOL0     H24912   5.297   6.527   8.075 -0.7458 -0.5895 -1.1457
  185MOL0     H24913   5.288   6.365   8.136  1.0824 -0.1191  1.1164
  185MOL0     H24914   5.243   6.502   8.357  0.6465  0.4353  0.5469
  185MOL0     H24915   5.323   6.634   8.262 -4.2876  0.5279 -0.1668
  185MOL0     H24916   5.519   6.451   8.216  0.9159  0.7056  0.9442
  185MOL0     H24917   5.504   6.551   8.363  1.2770 -2.3036  4.4892
  185MOL0     H24918   5.403   6.361   8.477  3.7960  1.3829  2.2659
  185MOL0     H24919   5.393   6.269   8.331  0.8433 -3.1025  2.6104
  185MOL0     H24920   5.643   6.279   8.301 -0.1543 -0.2479  0.9458
  185MOL0     H24921   5.647   6.358   8.451 -0.2656  3.1494 -1.6941
  185MOL0     H24922   5.552   6.070   8.411  2.8141 -1.5515 -0.2878
  185MOL0     H24923   5.547   6.167   8.569  2.2937  2.4379  0.4182
  185MOL0     H24924   5.746   6.009   8.517 -0.5784 -0.1433 -0.3737
  185MOL0     H24925   5.791   6.122   8.399 -2.3619 -0.8669 -0.2477
  185MOL0     H24926   5.746   6.125   8.782  0.9900 -0.4264  0.9203
  185MOL0     H24927   5.845   6.446   8.928 -0.3345  0.0404 -3.5802
  185MOL0     H24928   5.858   6.276   8.983  2.1000 -1.6166  0.3671
  185MOL0     H24929   6.076   6.444   8.839 -0.4660  0.9690  0.8951
  185MOL0     H24930   6.078   6.435   9.013 -0.2809  3.1187 -1.2106
  185MOL0     H24931   6.103   6.217   8.805  0.6738  0.6076 -0.8876
  185MOL0     H24932   6.107   6.170   8.969  1.1686 -0.4908 -1.0411
  185MOL0     H24933   6.306   6.369   8.829  0.1106 -1.2223  0.9279
  185MOL0     H24934   6.329   6.193   8.854  1.9791 -0.9792  1.9811
  185MOL0     H24935   6.555   6.202   8.834  2.7166 -2.3540  0.5799
  185MOL0     H24936   6.779   6.213   8.897 -2.9910 -1.3347 -1.5243
  185MOL0     H24937   7.139   6.350   9.062  1.8988  0.2766  1.1060
  185MOL0     H24938   7.355   6.327   9.026  0.8698 -0.1163  0.3001
  185MOL0     H24939   7.582   6.215   8.871  0.2037  0.6741  0.4323
  185MOL0     H24940   7.577   6.302   9.021  0.8007  0.4685 -0.4684
  185MOL0     H24941   7.802   6.256   8.930  2.0110 -0.9266  1.3853
  185MOL0     H24942   7.773   6.198   9.090 -2.0925 -2.4115  0.1859
  185MOL0     H24943   7.742   5.971   8.995  1.5990 -2.6772 -1.7324
  185MOL0     H24944   7.764   6.034   8.829  0.4439 -0.8236 -0.9304
  185MOL0     H24945   7.957   6.059   9.060  0.1780  0.4795  0.3018
  185MOL0     H24946   7.989   6.116   8.896  1.0560  0.8167  1.6450
  185MOL0     H24947   7.952   5.883   8.807 -0.3667  2.3525 -0.5506
  185MOL0     H24948   7.949   5.829   8.982  1.1634  0.9221  1.9006
  185MOL0     H24949   8.169   5.997   8.856  0.7172 -0.7647 -0.2402
  185MOL0     H24950   8.169   5.909   9.016  0.3348 -0.5701  0.6111
  185MOL0     H24951   8.184   5.698   8.923  3.7007 -1.2571  0.9021
  185MOL0     H24952   8.319   5.811   8.888 -0.0234  1.0310 -3.1661
  185MOL0     H24953   8.129   5.844   8.674 -2.9460 -3.4785 -2.6917
  185MOL0     H24954   8.288   5.764   8.658  0.4806 -0.1446  1.1283
  185MOL0     H24955   7.332   5.892   9.049 -0.4852 -0.1156  1.6828
  185MOL0     H24956   7.102   5.910   9.054  0.4871  0.6868 -1.6898
  185MOL0     H24957   6.687   6.381   9.274  1.8838  1.2249 -0.5983
  185MOL0     H24958   6.454   6.370   9.217 -1.1879 -1.8219 -0.8140
  185MOL0     H24959   4.828   6.500   8.179 -0.2327  1.0311 -0.6987
  185MOL0     H24960   4.604   6.427   8.215 -0.8292 -0.9306  0.3916
  185MOL0     H24961   4.290   6.182   8.612  0.3422  0.8978  0.0555
  185MOL0     H24962   4.040   6.152   8.608  1.8029 -1.2764  0.6234
  185MOL0     H24963   3.829   6.171   8.575 -0.3306 -1.3845  0.3926
  185MOL0     H24964   3.804   6.005   8.523  2.7461 -0.7605  2.1804
  185MOL0     H24965   3.624   6.064   8.395  0.3870  1.4487 -2.1601
  185MOL0     H24966   3.667   6.235   8.389 -0.5461 -1.2351 -2.5997
  185MOL0     H24967   3.467   6.189   8.531 -0.7576 -1.3187  1.6313
  185MOL0     H24968   3.595   6.263   8.628 -0.4784  0.9722 -0.2737
  185MOL0     H24969   3.457   6.074   8.735 -0.4883  0.9063 -0.3042
  185MOL0     H24970   3.575   5.967   8.641  2.6296 -0.6052  0.4712
  185MOL0     H24971   3.770   6.136   8.986 -0.9072  0.3626 -0.2272
  185MOL0     H24972   4.039   6.143   8.176  0.9817  0.9745  0.6853
  185MOL0     H24973   4.333   6.306   8.114  1.5853 -0.3520 -1.6786
  185MOL0     H24974   4.375   6.133   8.127 -0.2528 -0.9910  0.3321
  185MOL0     H24975   4.220   6.190   8.059  0.3089  0.5726 -0.2454
  186MOL0     O24976  11.010  11.208   8.144  0.6036 -0.7029 -0.6250
  186MOL0     C24977  10.932  11.294   8.101 -1.0350  0.4323  0.5887
  186MOL0     O24978  10.956  11.374   7.988 -0.6985 -0.3555 -0.2907
  186MOL0     C24979  11.053  11.344   7.901  0.1362  0.1012 -0.1099
  186MOL0     C24980  11.101  11.453   7.827  0.9817  0.1837  0.4092
  186MOL0     C24981  11.192  11.427   7.720 -0.7233  0.7710 -0.1035
  186MOL0     C24982  11.249  11.308   7.695  0.1148  0.6581  0.3187
  186MOL0     O24983  11.343  11.301   7.598 -0.1183  0.4360  0.4495
  186MOL0     C24984  11.364  11.174   7.540  0.0430 -0.7078 -0.3909
  186MOL0     C24985  11.449  11.182   7.419 -0.2235 -0.1704 -0.5894
  186MOL0     C24986  11.584  11.255   7.442 -0.1228  1.1121 -0.5373
  186MOL0     C24987  11.684  11.168   7.508  0.0870 -0.7091 -0.4787
  186MOL0     C24988  11.812  11.251   7.515  0.1426  0.4881  0.8104
  186MOL0     C24989  11.902  11.195   7.628  0.5658 -0.3546 -0.2368
  186MOL0     C24990  12.051  11.236   7.612  0.4419  0.5342 -1.1299
  186MOL0     C24991  12.142  11.199   7.737 -0.0062 -0.0905  0.6555
  186MOL0     N24992  12.128  11.280   7.853 -0.4273 -0.8701 -0.8643
  186MOL0     C24993  12.208  11.393   7.880 -0.2819 -1.1771 -0.1739
  186MOL0     C24994  12.166  11.434   8.002 -1.0467 -0.3172 -0.5027
  186MOL0     C24995  12.221  11.566   8.063 -0.5272 -0.6464  0.5128
  186MOL0     C24996  12.209  11.695   7.973  0.3057 -0.5282  0.1356
  186MOL0     C24997  12.258  11.823   8.056  0.4942  0.4455 -0.4816
  186MOL0     C24998  12.405  11.855   8.023  0.9403  0.3658  0.4216
  186MOL0     O24999  12.460  11.956   8.102 -0.6638 -0.4875  0.2967
  186MOL0     C25000  12.550  11.934   8.204 -0.1385 -0.5451  0.2442
  186MOL0     C25001  12.632  12.040   8.241  0.2282 -0.6422 -0.4519
  186MOL0     C25002  12.746  12.029   8.329  0.0904 -0.3862 -0.7262
  186MOL0     C25003  12.771  11.907   8.378 -0.3731 -0.9260  0.6488
  186MOL0     C25004  12.885  11.891   8.477  0.5258 -0.2109 -0.0064
  186MOL0     O25005  12.874  11.793   8.574 -0.5359  0.0610  1.1135
  186MOL0     C25006  12.988  11.760   8.644  0.1288  0.3569  0.8794
  186MOL0     C25007  13.043  11.859   8.732  0.7811 -0.1615  0.2774
  186MOL0     C25008  13.145  11.819   8.814 -0.2557 -0.5827 -1.3480
  186MOL0     C25009  13.193  11.685   8.809  0.2580  0.6327 -0.2987
  186MOL0     O25010  13.298  11.665   8.897 -0.1792 -0.6563 -0.7714
  186MOL0     C25011  13.327  11.527   8.933  1.2660 -0.3892  0.1569
  186MOL0     C25012  13.444  11.471   8.844  0.7304 -0.8520 -0.1898
  186MOL0     C25013  13.484  11.321   8.847  0.9142 -0.9110 -0.5118
  186MOL0     C25014  13.384  11.209   8.796 -0.4982  0.5210  0.4063
  186MOL0     C25015  13.271  11.179   8.889  0.5431  0.4581 -0.2477
  186MOL0     C25016  13.208  11.044   8.854 -1.0561  1.4939  0.6744
  186MOL0     C25017  13.087  11.019   8.935  0.2334 -1.4905 -0.6426
  186MOL0     C25018  12.986  11.138   8.946 -0.3501  0.1222 -1.4382
  186MOL0    Cl25019  12.930  11.194   8.782 -0.4193 -0.0713  0.3838
  186MOL0     C25020  13.138  11.594   8.715 -0.6355 -0.8017  0.1363
  186MOL0     C25021  13.041  11.634   8.632 -0.7853  0.7789 -0.5077
  186MOL0     O25022  12.987  11.961   8.451  0.3893 -0.9452 -0.6263
  186MOL0     C25023  12.694  11.798   8.344  1.1977  0.0309 -0.0516
  186MOL0     C25024  12.588  11.813   8.257 -0.9802  0.4609 -0.3227
  186MOL0     N25025  12.062  11.355   8.041 -0.4459  0.7931  0.0083
  186MOL0     N25026  12.041  11.258   7.956 -0.1387 -0.3757  0.4899
  186MOL0     C25027  11.194  11.203   7.760 -0.3947  0.0931 -0.5952
  186MOL0     C25028  11.099  11.219   7.868 -0.1257  0.5455 -0.6856
  186MOL0     C25029  10.800  11.320   8.161 -0.4743  0.1257 -0.8404
  186MOL0     C25030  10.706  11.396   8.097 -0.4934  0.1735  0.3530
  186MOL0     C25031  10.575  11.408   8.144 -0.9292 -0.1202  0.8174
  186MOL0     C25032  10.550  11.370   8.281  0.2739  0.7400  0.8372
  186MOL0     O25033  10.425  11.386   8.344  0.0517 -0.8091  0.3619
  186MOL0     C25034  10.317  11.459   8.285 -0.2807  0.2085  0.5492
  186MOL0     C25035  10.192  11.462   8.376  0.1947  1.2794 -0.7242
  186MOL0     C25036  10.126  11.327   8.387 -0.1740 -0.1076  0.4110
  186MOL0     C25037   9.972  11.351   8.415 -0.1674 -0.5422 -0.3290
  186MOL0     C25038   9.940  11.445   8.529 -0.1333 -0.3610 -0.6149
  186MOL0     C25039   9.918  11.528   8.621  0.7493  0.3351  1.0692
  186MOL0     C25040  10.642  11.293   8.345  0.2338  0.7255  0.4587
  186MOL0     C25041  10.769  11.273   8.293  1.0233  0.1302  0.0973
  186MOL0     C25042  10.862  11.196   8.384 -0.1398 -0.6251 -0.3348
  186MOL0     H25043  11.073  11.555   7.849 -0.7326 -0.7489  3.2077
  186MOL0     H25044  11.236  11.517   7.678  5.0417 -2.1195 -1.3154
  186MOL0     H25045  11.423  11.116   7.612  0.2112  0.0519  0.0863
  186MOL0     H25046  11.270  11.127   7.511 -1.2048  1.7881 -0.6518
  186MOL0     H25047  11.387  11.235   7.346 -0.6024  0.6817  0.3130
  186MOL0     H25048  11.463  11.081   7.381  1.0414 -1.2391  2.3963
  186MOL0     H25049  11.566  11.347   7.498 -1.7440  0.9584 -0.7573
  186MOL0     H25050  11.620  11.270   7.340 -0.3327 -1.6321 -1.0943
  186MOL0     H25051  11.643  11.166   7.609 -2.5611 -0.6798 -1.4804
  186MOL0     H25052  11.712  11.067   7.476 -0.0354 -1.4355  1.5916
  186MOL0     H25053  11.876  11.246   7.426  0.6277  2.8135  0.9686
  186MOL0     H25054  11.804  11.359   7.531  3.3585  0.8774  0.4790
  186MOL0     H25055  11.861  11.223   7.726 -1.9116 -2.1944 -0.6318
  186MOL0     H25056  11.894  11.086   7.622 -0.4103 -0.3126  0.0707
  186MOL0     H25057  12.062  11.341   7.583 -2.1321  0.3961 -2.9148
  186MOL0     H25058  12.086  11.180   7.525 -4.4251 -1.1343 -2.2941
  186MOL0     H25059  12.122  11.094   7.758 -1.5345  0.2927  1.2605
  186MOL0     H25060  12.247  11.205   7.708 -0.6222  1.4478 -1.4825
  186MOL0     H25061  12.282  11.451   7.825  1.2971 -2.5167  0.4470
  186MOL0     H25062  12.174  11.583   8.160 -0.7489  0.9893  0.1516
  186MOL0     H25063  12.325  11.543   8.089 -1.0544 -1.2258  2.2002
  186MOL0     H25064  12.285  11.682   7.895 -0.7627 -0.5973 -0.9285
  186MOL0     H25065  12.112  11.712   7.925  0.2047 -0.3661  0.3956
  186MOL0     H25066  12.240  11.801   8.162 -0.6969  0.0734 -0.7396
  186MOL0     H25067  12.191  11.906   8.032  1.2996  2.0038  2.2956
  186MOL0     H25068  12.412  11.891   7.920  0.8558 -0.4545  0.1190
  186MOL0     H25069  12.472  11.768   8.023  0.2767 -0.1617 -0.2071
  186MOL0     H25070  12.614  12.139   8.200 -3.1489 -1.4027 -1.0792
  186MOL0     H25071  12.802  12.119   8.356  0.1725 -0.8127  0.5773
  186MOL0     H25072  13.003  11.959   8.739 -0.2771 -0.4399 -1.2838
  186MOL0     H25073  13.192  11.895   8.875  0.8190  1.4203 -4.4105
  186MOL0     H25074  13.351  11.516   9.040  2.1288  0.1052  0.0283
  186MOL0     H25075  13.246  11.454   8.927  0.2766  0.2601  3.3900
  186MOL0     H25076  13.425  11.500   8.740 -2.8089  0.5056  0.6825
  186MOL0     H25077  13.534  11.516   8.887  0.9440 -0.0652 -1.4009
  186MOL0     H25078  13.571  11.307   8.783  0.8587 -3.3355 -0.1257
  186MOL0     H25079  13.513  11.299   8.950  2.5918 -0.7423 -0.9283
  186MOL0     H25080  13.448  11.120   8.797 -2.1399 -0.7517 -0.9145
  186MOL0     H25081  13.348  11.229   8.695  0.0685 -0.2906  0.0285
  186MOL0     H25082  13.200  11.263   8.889  0.4295  0.3698 -0.7716
  186MOL0     H25083  13.306  11.174   8.992 -2.6237 -0.3169  0.8821
  186MOL0     H25084  13.183  11.044   8.747  3.4682  2.7777 -0.5874
  186MOL0     H25085  13.285  10.967   8.863  0.8603  3.0559 -1.3335
  186MOL0     H25086  13.108  10.988   9.038  1.0253 -0.9140 -0.6225
  186MOL0     H25087  13.034  10.930   8.900 -1.3801 -1.0968  0.6435
  186MOL0     H25088  12.901  11.098   9.002  0.0527  2.2671  0.8956
  186MOL0     H25089  13.021  11.230   8.993  0.4943 -2.2731  3.2122
  186MOL0     H25090  13.176  11.493   8.706  0.0687 -0.4022 -2.2960
  186MOL0     H25091  12.995  11.565   8.562 -2.5166 -0.3954  1.6648
  186MOL0     H25092  12.721  11.705   8.392 -2.0452 -1.6846 -1.2485
  186MOL0     H25093  12.520  11.730   8.237 -1.0055  0.8977 -2.2872
  186MOL0     H25094  11.233  11.102   7.753 -1.4884 -0.2884 -1.5188
  186MOL0     H25095  11.071  11.140   7.938 -0.3048  1.5976  0.4847
  186MOL0     H25096  10.723  11.464   8.014 -1.4407  1.6285  1.3020
  186MOL0     H25097  10.504  11.461   8.082 -1.2572 -0.6820  0.7013
  186MOL0     H25098  10.296  11.422   8.184  2.2742  3.2421 -1.2719
  186MOL0     H25099  10.353  11.560   8.265 -0.2052  0.2553  0.9236
  186MOL0     H25100  10.123  11.533   8.328  0.6086  1.6329 -0.8026
  186MOL0     H25101  10.210  11.498   8.478  2.3847 -1.9485  0.1582
  186MOL0     H25102  10.158  11.282   8.482 -0.7828 -1.2465  0.0941
  186MOL0     H25103  10.138  11.257   8.304  0.6525 -1.5126  1.6550
  186MOL0     H25104   9.918  11.373   8.322 -0.2161 -0.4293 -0.2752
  186MOL0     H25105   9.938  11.252   8.446  0.0073 -0.5239 -0.0787
  186MOL0     H25106   9.891  11.586   8.706  0.1067 -0.1678  1.2168
  186MOL0     H25107  10.605  11.258   8.441  2.1940 -2.4993  0.1894
  186MOL0     H25108  10.885  11.098   8.342  1.4636 -1.4103  2.1686
  186MOL0     H25109  10.960  11.243   8.402 -1.5057  1.9175  1.0015
  186MOL0     H25110  10.810  11.181   8.479  0.9096  1.1878  0.5937
  187MOL0     O25111   8.551   4.671   8.475  0.3236 -0.2533 -0.4986
  187MOL0     C25112   8.507   4.674   8.587 -0.8688 -0.1221  0.3255
  187MOL0     O25113   8.556   4.597   8.686 -0.1634  0.4188  0.6224
  187MOL0     C25114   8.655   4.505   8.665 -0.2450  0.3054  0.0191
  187MOL0     C25115   8.727   4.484   8.778  0.0741  0.0004  0.2075
  187MOL0     C25116   8.812   4.374   8.792  0.9389 -0.4493  0.5582
  187MOL0     C25117   8.830   4.282   8.687 -0.2057  0.1844 -0.1193
  187MOL0     O25118   8.914   4.173   8.707 -0.5460 -0.3377  0.6862
  187MOL0     C25119   8.952   4.089   8.600  0.1234  0.0792  0.6931
  187MOL0     C25120   9.037   3.972   8.646  0.0319  0.3998 -0.1418
  187MOL0     C25121   8.971   3.891   8.756 -0.3738  0.0577 -0.2567
  187MOL0     C25122   9.048   3.771   8.787 -0.2495  0.5729  0.6920
  187MOL0     C25123   9.033   3.724   8.937 -0.3018  0.0569  0.5096
  187MOL0     C25124   9.137   3.608   8.978 -0.2643  1.4711  0.3441
  187MOL0     C25125   9.121   3.561   9.117  0.1857  0.7734  0.2232
  187MOL0     C25126   9.224   3.457   9.146 -0.1955 -0.8364 -0.3428
  187MOL0     N25127   9.364   3.502   9.166 -0.2979  0.5721 -0.2612
  187MOL0     C25128   9.416   3.498   9.296 -0.4083  0.0763 -0.2558
  187MOL0     C25129   9.555   3.493   9.273 -0.7010  0.5514  0.3967
  187MOL0     C25130   9.648   3.498   9.393  0.8662  0.4690  0.7305
  187MOL0     C25131   9.786   3.557   9.353 -0.6007 -0.1526  1.1442
  187MOL0     C25132   9.884   3.558   9.470  0.4425 -0.8250 -0.1774
  187MOL0     C25133  10.017   3.617   9.419  0.1956  0.4019 -0.2599
  187MOL0     O25134  10.115   3.627   9.532 -0.5653  0.3852  1.1330
  187MOL0     C25135  10.207   3.527   9.534  0.4147 -0.7787  0.5610
  187MOL0     C25136  10.255   3.474   9.649  0.2507  0.3119 -0.4882
  187MOL0     C25137  10.362   3.397   9.659 -0.7524  0.3624 -0.5277
  187MOL0     C25138  10.423   3.351   9.540 -0.5058  0.0496 -0.7502
  187MOL0     C25139  10.549   3.270   9.543  0.1735 -0.8093 -1.0070
  187MOL0     O25140  10.622   3.272   9.428  0.6243  0.3899 -0.0221
  187MOL0     C25141  10.713   3.177   9.417 -0.1960 -0.5166 -1.1119
  187MOL0     C25142  10.848   3.207   9.439  0.4831  0.9560 -0.0798
  187MOL0     C25143  10.951   3.109   9.416  0.8605 -0.0693 -0.6131
  187MOL0     C25144  10.899   2.985   9.367 -0.2065 -0.4671  0.1294
  187MOL0     O25145  10.990   2.895   9.331 -0.0181  0.6328 -0.4758
  187MOL0     C25146  10.973   2.757   9.328 -1.1072 -0.5276 -0.9213
  187MOL0     C25147  10.996   2.682   9.461 -0.1692 -0.5419  0.4620
  187MOL0     C25148  11.117   2.727   9.539 -0.4341  0.3149  0.4104
  187MOL0     C25149  11.250   2.708   9.460  0.5257  0.4842  1.0913
  187MOL0     C25150  11.370   2.715   9.548 -0.1098 -0.5713  0.9429
  187MOL0     C25151  11.507   2.697   9.475 -0.5782  0.8588 -0.2069
  187MOL0     C25152  11.626   2.759   9.544 -0.0871 -0.3801  0.4489
  187MOL0     C25153  11.739   2.786   9.444 -0.6939  0.1201  0.4083
  187MOL0    Cl25154  11.826   2.634   9.409 -0.0904  0.1082 -0.0615
  187MOL0     C25155  10.766   2.954   9.365 -1.1317 -0.2947 -0.6489
  187MOL0     C25156  10.674   3.050   9.386  0.1732 -0.1040 -0.1348
  187MOL0     O25157  10.584   3.220   9.651  0.4129 -0.6216 -0.1995
  187MOL0     C25158  10.389   3.411   9.421  0.6527 -0.2326  0.2324
  187MOL0     C25159  10.287   3.504   9.419  0.9253  0.3162  0.1662
  187MOL0     N25160   9.585   3.495   9.136  0.2007 -0.2585 -0.9651
  187MOL0     N25161   9.472   3.503   9.078  0.1420  0.6379 -0.2078
  187MOL0     C25162   8.758   4.304   8.563  0.1032  0.1810 -0.1991
  187MOL0     C25163   8.672   4.421   8.554  0.0263  0.6185 -0.1717
  187MOL0     C25164   8.405   4.771   8.627 -1.2419  0.3018 -0.1288
  187MOL0     C25165   8.306   4.736   8.718  0.8638  0.2376 -0.3737
  187MOL0     C25166   8.198   4.819   8.739  0.2084  0.1189 -0.2399
  187MOL0     C25167   8.177   4.939   8.673 -0.1573 -0.7558 -0.0919
  187MOL0     O25168   8.060   5.000   8.701  0.0486  0.3661 -0.0832
  187MOL0     C25169   8.006   5.097   8.608  0.1273  0.0497 -0.4735
  187MOL0     C25170   7.916   5.206   8.683 -0.0009  0.3582  0.4850
  187MOL0     C25171   7.840   5.154   8.802 -0.1848  0.6653 -0.1199
  187MOL0     C25172   7.734   5.051   8.761  0.7905 -0.3951  1.1199
  187MOL0     C25173   7.634   5.125   8.675 -0.7375  0.6639 -0.3771
  187MOL0     C25174   7.570   5.181   8.589  1.0606  0.3629 -0.7187
  187MOL0     C25175   8.273   4.977   8.582  0.4647  0.4159 -0.4591
  187MOL0     C25176   8.390   4.904   8.562 -0.2730 -0.0757 -0.3451
  187MOL0     C25177   8.477   4.956   8.445  0.3666  0.8010 -0.1057
  187MOL0     H25178   8.712   4.537   8.872  0.3011  0.3331  0.0567
  187MOL0     H25179   8.867   4.353   8.883  1.7433  0.6911  0.3633
  187MOL0     H25180   8.866   4.051   8.543  1.4915 -0.9701 -0.7361
  187MOL0     H25181   8.998   4.145   8.518 -0.9902 -1.7135 -1.2749
  187MOL0     H25182   9.121   4.030   8.686 -1.2140  2.4294 -0.3361
  187MOL0     H25183   9.074   3.912   8.562  1.6716  0.0497  0.7846
  187MOL0     H25184   8.864   3.867   8.756 -0.4087 -0.1424  2.6914
  187MOL0     H25185   8.984   3.955   8.843  1.1858 -0.4560 -0.0895
  187MOL0     H25186   9.020   3.692   8.717  0.4980 -0.0954  1.1296
  187MOL0     H25187   9.154   3.786   8.769  0.7758 -6.3118 -1.9841
  187MOL0     H25188   9.047   3.817   8.993  1.0349  0.7126 -0.8497
  187MOL0     H25189   8.932   3.685   8.952 -0.4357  0.8278  1.7393
  187MOL0     H25190   9.134   3.518   8.916  2.9441  2.2640 -1.1935
  187MOL0     H25191   9.240   3.640   8.960 -0.2758  1.4152  0.1835
  187MOL0     H25192   9.019   3.523   9.128  0.2161 -0.8551 -3.4584
  187MOL0     H25193   9.126   3.649   9.181 -1.6328  0.4190  0.9113
  187MOL0     H25194   9.185   3.415   9.239  2.7799  0.3400  1.5915
  187MOL0     H25195   9.224   3.377   9.071 -2.5162 -0.3208 -0.9687
  187MOL0     H25196   9.379   3.489   9.397  1.1885  0.0525  0.3478
  187MOL0     H25197   9.602   3.567   9.465 -0.3408  1.1129 -0.6146
  187MOL0     H25198   9.666   3.400   9.438 -2.4117 -0.1639  0.9376
  187MOL0     H25199   9.822   3.499   9.268 -2.7560 -0.8027  0.6033
  187MOL0     H25200   9.782   3.660   9.317  4.8680  0.6879  2.0184
  187MOL0     H25201   9.902   3.463   9.520 -1.6835 -0.5359  1.2877
  187MOL0     H25202   9.848   3.626   9.549  2.1779  0.1132 -0.1432
  187MOL0     H25203   9.996   3.710   9.367 -0.2950 -0.6487 -2.0406
  187MOL0     H25204  10.053   3.551   9.339  2.1243  1.4831 -0.3412
  187MOL0     H25205  10.196   3.508   9.734 -1.5340 -1.6167 -0.8811
  187MOL0     H25206  10.412   3.370   9.751 -1.1172  3.5720  0.7342
  187MOL0     H25207  10.881   3.308   9.459  0.8018  1.2427 -1.8752
  187MOL0     H25208  11.056   3.133   9.431  0.6990 -0.2745  1.0277
  187MOL0     H25209  10.872   2.733   9.292 -1.4337 -1.5839  0.5841
  187MOL0     H25210  11.047   2.716   9.259 -1.1586  1.4754 -2.2446
  187MOL0     H25211  10.904   2.689   9.519 -1.8582 -1.0177 -2.0371
  187MOL0     H25212  11.014   2.580   9.427 -0.3224  0.4876 -3.1319
  187MOL0     H25213  11.111   2.833   9.566  1.6117  0.4205  0.6211
  187MOL0     H25214  11.111   2.673   9.634  3.9332 -0.6606  0.3434
  187MOL0     H25215  11.250   2.786   9.384  1.6660  1.1085  1.7134
  187MOL0     H25216  11.259   2.615   9.403 -2.4526  0.0538  1.1673
  187MOL0     H25217  11.366   2.635   9.623  2.2232  0.1331  1.9183
  187MOL0     H25218  11.366   2.812   9.599 -0.6260  0.6240 -1.2597
  187MOL0     H25219  11.528   2.590   9.461 -0.6280  0.4378  2.3693
  187MOL0     H25220  11.506   2.743   9.376  1.1675 -0.2172 -0.7795
  187MOL0     H25221  11.664   2.692   9.622  0.1917  0.2757  0.8759
  187MOL0     H25222  11.586   2.853   9.581 -3.2742 -0.7335 -1.6614
  187MOL0     H25223  11.709   2.820   9.344 -1.3782 -1.3522  0.0770
  187MOL0     H25224  11.812   2.854   9.488 -0.4252  0.5867 -0.7112
  187MOL0     H25225  10.724   2.854   9.360 -2.5808 -0.0111  2.8474
  187MOL0     H25226  10.567   3.031   9.385 -0.3646  2.3011  2.2348
  187MOL0     H25227  10.446   3.399   9.330 -1.7380 -0.5315 -1.3335
  187MOL0     H25228  10.274   3.553   9.323  0.4004 -3.3767 -1.8279
  187MOL0     H25229   8.765   4.244   8.473 -2.2391  1.5098 -1.3925
  187MOL0     H25230   8.613   4.442   8.465  0.1503 -1.4530 -0.7997
  187MOL0     H25231   8.307   4.634   8.756 -0.4614  0.2887 -0.1775
  187MOL0     H25232   8.121   4.787   8.809 -0.2990 -1.9145 -1.6481
  187MOL0     H25233   7.949   5.054   8.525 -0.3760  2.9734 -1.7716
  187MOL0     H25234   8.081   5.153   8.551  0.4806  1.7415  1.5569
  187MOL0     H25235   7.848   5.252   8.611  1.3713  2.6336  0.5153
  187MOL0     H25236   7.986   5.286   8.713 -0.2057  0.7465 -0.0595
  187MOL0     H25237   7.800   5.239   8.857  4.0379  2.0406  1.2848
  187MOL0     H25238   7.908   5.099   8.869 -0.0659  0.2940 -0.5402
  187MOL0     H25239   7.779   4.966   8.708  2.4577  0.6329  0.8486
  187MOL0     H25240   7.685   5.014   8.852  1.7151  0.1345  1.8457
  187MOL0     H25241   7.499   5.226   8.522 -0.2017 -0.2457  0.1688
  187MOL0     H25242   8.275   5.070   8.526  0.5782  0.9806  0.4535
  187MOL0     H25243   8.473   5.064   8.456 -3.3723  0.8465 -0.5548
  187MOL0     H25244   8.580   4.919   8.449  0.5191  1.2943  0.6949
  187MOL0     H25245   8.440   4.929   8.346  0.8597  0.6166 -0.2413
  188MOL0     O25246   5.017   9.455  11.231  0.3702  0.3832 -0.2694
  188MOL0     C25247   4.942   9.370  11.277  0.6513 -0.5526  0.3995
  188MOL0     O25248   4.941   9.332  11.409 -0.4165  0.2921 -0.0095
  188MOL0     C25249   5.063   9.346  11.481  0.0497 -0.4488 -0.5957
  188MOL0     C25250   5.064   9.347  11.624 -0.3144 -0.2401  0.2483
  188MOL0     C25251   5.174   9.388  11.698 -0.4634 -0.0258 -0.1591
  188MOL0     C25252   5.303   9.406  11.632  0.9576  0.1923 -0.5131
  188MOL0     O25253   5.408   9.459  11.715  0.8971  0.6968  0.9228
  188MOL0     C25254   5.518   9.533  11.646 -0.0620 -0.3122 -0.9287
  188MOL0     C25255   5.584   9.602  11.767 -0.0176  0.2656 -0.1937
  188MOL0     C25256   5.733   9.645  11.737  0.1144 -0.6063  0.9652
  188MOL0     C25257   5.812   9.667  11.867  0.3500 -0.0189 -0.0301
  188MOL0     C25258   5.967   9.642  11.842 -0.7046 -1.0134  0.1126
  188MOL0     C25259   6.058   9.665  11.969  0.0642  0.4522  0.4524
  188MOL0     C25260   6.203   9.634  11.940 -0.2386 -0.1851  0.2060
  188MOL0     C25261   6.230   9.481  11.948  0.4350 -0.0330  0.0284
  188MOL0     N25262   6.375   9.467  11.955  0.0406  0.0446  0.5225
  188MOL0     C25263   6.457   9.422  11.852 -0.6067  0.2341 -0.0413
  188MOL0     C25264   6.584   9.453  11.899  0.9115 -0.5504 -0.1506
  188MOL0     C25265   6.704   9.423  11.821 -0.5555  0.2577 -0.2189
  188MOL0     C25266   6.808   9.361  11.910  0.5132 -0.4799 -0.7931
  188MOL0     C25267   6.881   9.247  11.832  0.4173 -0.2053  0.9636
  188MOL0     C25268   6.999   9.197  11.916 -0.0185 -0.1763 -0.7824
  188MOL0     O25269   7.070   9.116  11.829 -0.1699 -0.2284 -0.5640
  188MOL0     C25270   7.181   9.052  11.886  0.3215  0.9350  0.3456
  188MOL0     C25271   7.265   9.124  11.968  0.7979  0.1508  0.3625
  188MOL0     C25272   7.388   9.075  12.026 -0.0108  0.4760  0.6551
  188MOL0     C25273   7.423   8.940  11.999 -0.1016  0.3357 -0.2992
  188MOL0     C25274   7.543   8.886  12.064 -0.5381  0.2051 -0.1417
  188MOL0     O25275   7.637   8.972  12.105  0.9393 -0.2331 -0.4299
  188MOL0     C25276   7.758   8.916  12.123  0.0958  0.2435 -0.5743
  188MOL0     C25277   7.842   8.884  12.017  0.4563 -0.9471  0.8980
  188MOL0     C25278   7.974   8.842  12.033 -0.1330 -0.4102  0.4371
  188MOL0     C25279   8.029   8.844  12.160 -1.3975  0.6165  0.9731
  188MOL0     O25280   8.160   8.799  12.200 -0.1523  0.4274 -0.2686
  188MOL0     C25281   8.270   8.798  12.104  0.4152 -0.3323  0.1287
  188MOL0     C25282   8.408   8.792  12.159  0.2500  0.0779 -0.0151
  188MOL0     C25283   8.512   8.721  12.063 -0.1485 -0.2067  0.2576
  188MOL0     C25284   8.650   8.717  12.135 -0.8857 -0.3149  0.3965
  188MOL0     C25285   8.770   8.651  12.069 -1.3023  1.1646  1.1122
  188MOL0     C25286   8.902   8.742  12.060  0.1155  0.5198 -0.2746
  188MOL0     C25287   9.024   8.659  12.003  0.4162  0.4786 -0.2900
  188MOL0     C25288   9.141   8.742  11.984 -0.4885 -0.2651 -0.0007
  188MOL0    Cl25289   9.273   8.621  11.957  0.2303 -0.1671  0.1960
  188MOL0     C25290   7.943   8.870  12.261 -0.1070 -0.0932 -0.4947
  188MOL0     C25291   7.806   8.899  12.252 -0.0425 -0.2780  0.2827
  188MOL0     O25292   7.562   8.761  12.056 -0.1116  0.0761 -0.0005
  188MOL0     C25293   7.325   8.865  11.924  0.0767  0.6133  0.3102
  188MOL0     C25294   7.208   8.920  11.870 -0.6427 -0.0512  0.7459
  188MOL0     N25295   6.576   9.504  12.029  0.1910  0.1331 -0.3394
  188MOL0     N25296   6.450   9.507  12.064  0.2339  0.4414 -0.0943
  188MOL0     C25297   5.305   9.380  11.496  0.6994 -0.5662 -0.3234
  188MOL0     C25298   5.188   9.341  11.427 -0.1694  0.0697 -0.0459
  188MOL0     C25299   4.849   9.302  11.176 -0.4936 -0.3783 -0.4090
  188MOL0     C25300   4.843   9.359  11.047  0.3096  0.5624 -0.3533
  188MOL0     C25301   4.773   9.307  10.944  0.0600  0.9684 -0.4376
  188MOL0     C25302   4.689   9.200  10.957 -0.1346 -0.1084 -0.4049
  188MOL0     O25303   4.621   9.168  10.847 -0.1965 -0.0075  0.0215
  188MOL0     C25304   4.551   9.045  10.848  0.9651  0.2532 -0.5775
  188MOL0     C25305   4.412   9.070  10.908 -0.0754 -0.6848 -0.3170
  188MOL0     C25306   4.341   8.949  10.955  0.0913  0.5953  0.0774
  188MOL0     C25307   4.305   8.856  10.838 -0.3666  0.7346 -0.7273
  188MOL0     C25308   4.203   8.756  10.882  0.4375 -0.0393  0.2219
  188MOL0     C25309   4.112   8.690  10.926  0.3421 -0.3986  0.6087
  188MOL0     C25310   4.684   9.146  11.086 -0.1143 -1.1740  0.3341
  188MOL0     C25311   4.765   9.194  11.196  0.6019 -0.6194 -0.0329
  188MOL0     C25312   4.740   9.133  11.326 -0.9345 -0.1960  0.4417
  188MOL0     H25313   4.967   9.333  11.670 -0.5083  0.6950  0.1319
  188MOL0     H25314   5.162   9.394  11.806  1.4469  2.1111  0.0105
  188MOL0     H25315   5.576   9.468  11.579  0.9451  2.0640 -2.5114
  188MOL0     H25316   5.475   9.607  11.578 -0.6692 -0.2424 -0.4771
  188MOL0     H25317   5.596   9.534  11.851  0.7860  1.5961  0.8272
  188MOL0     H25318   5.529   9.687  11.810 -0.9576  0.1980 -1.2322
  188MOL0     H25319   5.748   9.733  11.674  1.0813  0.3292  2.4233
  188MOL0     H25320   5.773   9.563  11.677  1.9492  2.5547 -2.6063
  188MOL0     H25321   5.800   9.772  11.897 -1.1615  0.7370 -2.8602
  188MOL0     H25322   5.769   9.594  11.936 -2.1747 -0.1085 -1.5624
  188MOL0     H25323   5.996   9.545  11.800  4.1015 -1.6462  3.9856
  188MOL0     H25324   5.986   9.716  11.764 -0.9076 -0.4040  0.6309
  188MOL0     H25325   6.043   9.772  11.985 -2.8802  0.0346  0.9961
  188MOL0     H25326   6.020   9.624  12.063  0.4721 -0.0687  0.4013
  188MOL0     H25327   6.264   9.680  12.018  0.6794 -1.1548  0.0884
  188MOL0     H25328   6.223   9.676  11.841 -3.9460 -0.0259 -0.6190
  188MOL0     H25329   6.189   9.450  12.044  0.8885 -0.4667  0.0815
  188MOL0     H25330   6.177   9.415  11.878  0.4112 -1.3820  1.2599
  188MOL0     H25331   6.450   9.381  11.752  3.8344 -1.5239  0.1138
  188MOL0     H25332   6.679   9.359  11.736 -2.6192  1.6017 -0.7102
  188MOL0     H25333   6.729   9.513  11.764 -2.9642 -0.7624 -3.1324
  188MOL0     H25334   6.889   9.431  11.933  0.7048 -0.6714 -0.8796
  188MOL0     H25335   6.769   9.317  12.002  0.7421  1.6806  0.3890
  188MOL0     H25336   6.911   9.274  11.730 -3.3439  2.2014  0.2607
  188MOL0     H25337   6.807   9.168  11.813 -0.6426  0.3126  2.7098
  188MOL0     H25338   6.964   9.141  12.003  0.7235  0.4785 -0.0454
  188MOL0     H25339   7.051   9.286  11.953  1.3260 -1.8694  1.7101
  188MOL0     H25340   7.247   9.229  11.988  1.7132 -0.3117  4.4308
  188MOL0     H25341   7.449   9.145  12.083 -1.6246  0.6975  2.1828
  188MOL0     H25342   7.791   8.882  11.922 -1.7689 -1.0392  2.0226
  188MOL0     H25343   8.033   8.800  11.952 -0.2723 -3.5418  1.7923
  188MOL0     H25344   8.251   8.714  12.037 -3.8062 -0.9137  1.7383
  188MOL0     H25345   8.269   8.877  12.029 -2.3392 -2.0191 -1.7834
  188MOL0     H25346   8.439   8.896  12.169  2.3715 -0.2505 -2.2323
  188MOL0     H25347   8.399   8.746  12.258  0.6542  0.6194  0.2755
  188MOL0     H25348   8.476   8.617  12.060  0.8579 -0.5528 -1.8379
  188MOL0     H25349   8.527   8.761  11.962 -1.9317  0.5527  0.2581
  188MOL0     H25350   8.659   8.684  12.239 -0.2195  0.4245  0.5838
  188MOL0     H25351   8.665   8.825  12.138  0.7893 -0.2714 -3.5244
  188MOL0     H25352   8.753   8.621  11.965  1.4185  1.7406  0.4297
  188MOL0     H25353   8.789   8.557  12.121  2.1019  0.8313 -0.4984
  188MOL0     H25354   8.887   8.829  11.995  0.1299 -1.7687 -3.6166
  188MOL0     H25355   8.928   8.769  12.163 -0.4954 -0.6529  0.2107
  188MOL0     H25356   9.006   8.623  11.901  2.5811  0.3518 -0.6840
  188MOL0     H25357   9.046   8.582  12.077 -0.9490  1.6753  1.4513
  188MOL0     H25358   9.131   8.805  11.894  2.2858  0.6512  0.2320
  188MOL0     H25359   9.161   8.804  12.072  2.4151 -0.0857 -0.6702
  188MOL0     H25360   7.976   8.877  12.364  1.2263  1.2406 -0.9661
  188MOL0     H25361   7.754   8.917  12.345  0.9531 -1.7910  1.1729
  188MOL0     H25362   7.343   8.760  11.903  3.3300  1.2372 -0.6123
  188MOL0     H25363   7.146   8.867  11.799  0.3782  1.8135 -1.6747
  188MOL0     H25364   5.396   9.397  11.438 -0.3145  0.1254 -1.7879
  188MOL0     H25365   5.192   9.316  11.322 -0.0378 -2.8756  0.5642
  188MOL0     H25366   4.904   9.445  11.020  2.6277 -0.7648  0.3289
  188MOL0     H25367   4.770   9.359  10.849 -2.4988  1.1524 -0.3432
  188MOL0     H25368   4.596   8.966  10.909  0.6144 -0.5676 -1.3773
  188MOL0     H25369   4.550   9.013  10.744  0.8916  2.4448 -1.3026
  188MOL0     H25370   4.347   9.118  10.835 -0.1712  0.8151  0.6951
  188MOL0     H25371   4.416   9.126  11.002 -1.6654 -0.5230 -0.3274
  188MOL0     H25372   4.252   8.982  11.009 -1.6643 -0.6823 -1.9252
  188MOL0     H25373   4.404   8.897  11.027 -0.5737  0.2233  0.3930
  188MOL0     H25374   4.259   8.925  10.767  1.8660  2.0628 -0.9939
  188MOL0     H25375   4.388   8.804  10.790 -1.1917 -0.2987 -1.0685
  188MOL0     H25376   4.025   8.631  10.948  0.1475  0.0662  1.1258
  188MOL0     H25377   4.615   9.063  11.096 -0.1941 -1.2543 -0.7762
  188MOL0     H25378   4.819   9.061  11.346 -0.9493 -0.4576 -0.3918
  188MOL0     H25379   4.727   9.206  11.406  0.3764  2.3342 -1.5083
  188MOL0     H25380   4.647   9.074  11.324  0.2770 -2.3091  2.3959
  189MOL0     O25381   3.829   3.196   9.527 -0.7986  0.2633  0.5694
  189MOL0     C25382   3.914   3.105   9.545 -0.5095  0.2804 -0.0134
  189MOL0     O25383   4.051   3.111   9.514  0.0988 -0.2834  0.6920
  189MOL0     C25384   4.090   3.190   9.405  0.0330 -0.3745 -0.4581
  189MOL0     C25385   4.220   3.241   9.412 -0.1957  0.3255 -0.2298
  189MOL0     C25386   4.269   3.317   9.304  0.2947 -0.3747 -0.0432
  189MOL0     C25387   4.195   3.352   9.196  0.1967  0.2662 -0.0337
  189MOL0     O25388   4.249   3.441   9.112 -0.9829  0.2579 -0.0672
  189MOL0     C25389   4.198   3.469   8.982  0.9525  0.0448  0.2340
  189MOL0     C25390   4.283   3.571   8.897  0.5387 -0.0748 -0.1004
  189MOL0     C25391   4.429   3.529   8.885  0.1420  0.0900 -0.2412
  189MOL0     C25392   4.525   3.611   8.969  1.1502 -0.0057  0.3416
  189MOL0     C25393   4.672   3.569   8.975 -1.0218 -0.1029 -0.2193
  189MOL0     C25394   4.734   3.596   8.833  0.2860  0.3145 -0.2840
  189MOL0     C25395   4.883   3.551   8.826  0.9469  0.0565 -0.1362
  189MOL0     C25396   4.978   3.607   8.927  1.2951  0.2488 -0.6506
  189MOL0     N25397   5.119   3.581   8.895  0.2340 -0.4494 -1.1541
  189MOL0     C25398   5.165   3.473   8.831  1.1076 -0.1352 -0.4214
  189MOL0     C25399   5.293   3.497   8.817  0.6031  0.1082 -0.7326
  189MOL0     C25400   5.403   3.415   8.775 -0.5031 -0.2388 -0.2257
  189MOL0     C25401   5.547   3.476   8.786 -0.0296  0.3423  0.3111
  189MOL0     C25402   5.576   3.577   8.679  0.1021  0.0471  0.1747
  189MOL0     C25403   5.727   3.617   8.677  0.0787  0.2250 -0.4147
  189MOL0     O25404   5.810   3.517   8.617 -0.4568  0.0221 -0.2423
  189MOL0     C25405   5.947   3.538   8.617  0.5334 -0.9823 -0.4471
  189MOL0     C25406   6.022   3.599   8.721 -0.0124  0.1935  0.2790
  189MOL0     C25407   6.157   3.616   8.715  0.9016 -0.6043  0.1194
  189MOL0     C25408   6.225   3.582   8.599 -0.4342 -0.5256  0.5641
  189MOL0     C25409   6.367   3.601   8.588  0.2699  0.2259 -0.2540
  189MOL0     O25410   6.402   3.721   8.638 -0.6740  0.1505  0.6962
  189MOL0     C25411   6.530   3.744   8.688  0.3226  0.2485 -0.3866
  189MOL0     C25412   6.559   3.875   8.704  0.5593  0.8113 -0.0171
  189MOL0     C25413   6.678   3.922   8.759 -0.9849 -1.1183  0.0900
  189MOL0     C25414   6.780   3.843   8.796  0.1681  0.5806 -0.5740
  189MOL0     O25415   6.900   3.893   8.847 -0.1451 -0.4588 -0.2657
  189MOL0     C25416   7.014   3.811   8.854  0.0549 -0.0938 -0.2089
  189MOL0     C25417   7.098   3.841   8.731  0.5148  0.0597 -0.9098
  189MOL0     C25418   7.241   3.785   8.738  0.4413 -0.1738 -0.6514
  189MOL0     C25419   7.308   3.815   8.868 -0.3899  0.4431  0.8559
  189MOL0     C25420   7.452   3.774   8.860 -0.2232  1.0544 -0.6047
  189MOL0     C25421   7.473   3.625   8.875  0.0006  0.0552  0.0335
  189MOL0     C25422   7.620   3.595   8.882 -0.5445  0.0816 -0.9454
  189MOL0     C25423   7.649   3.455   8.939 -0.1356 -0.2342 -0.4895
  189MOL0    Cl25424   7.820   3.413   8.929 -0.3000  0.0134 -0.1096
  189MOL0     C25425   6.758   3.706   8.778  0.5369  0.7634  0.5593
  189MOL0     C25426   6.635   3.657   8.725 -0.8714  0.6970  0.3031
  189MOL0     O25427   6.436   3.513   8.550 -1.3434 -0.4933 -0.2430
  189MOL0     C25428   6.160   3.505   8.498 -0.2601 -0.5148  0.9053
  189MOL0     C25429   6.022   3.494   8.514  0.1171  0.0666 -0.0489
  189MOL0     N25430   5.323   3.614   8.884 -0.0435 -0.0616  0.4630
  189MOL0     N25431   5.212   3.676   8.910 -0.9275  0.1890  0.4425
  189MOL0     C25432   4.065   3.303   9.190  0.1352  0.2429 -0.3927
  189MOL0     C25433   4.010   3.225   9.290  0.9498  0.3665  0.4285
  189MOL0     C25434   3.869   2.978   9.619  0.8129  0.1331  0.4091
  189MOL0     C25435   3.960   2.931   9.713 -0.1932  0.4971 -0.1581
  189MOL0     C25436   3.921   2.825   9.784 -0.2868  0.5102  0.4728
  189MOL0     C25437   3.793   2.772   9.791  0.2448 -0.7920 -0.1655
  189MOL0     O25438   3.783   2.667   9.882 -0.4420  0.0415 -0.0680
  189MOL0     C25439   3.651   2.621   9.906 -0.1385 -0.0447 -0.3545
  189MOL0     C25440   3.649   2.478   9.842 -0.3121  0.2454 -0.0880
  189MOL0     C25441   3.633   2.483   9.689 -0.0886 -0.7739  0.3667
  189MOL0     C25442   3.482   2.479   9.651  0.1967  0.3899 -0.5056
  189MOL0     C25443   3.467   2.483   9.509 -0.1102 -0.0299 -0.0325
  189MOL0     C25444   3.454   2.496   9.390  0.3193 -0.0086 -0.6522
  189MOL0     C25445   3.694   2.825   9.700 -0.0778  0.2127 -0.8117
  189MOL0     C25446   3.737   2.923   9.609 -0.1477  0.0172  0.2545
  189MOL0     C25447   3.638   2.955   9.506 -0.1477  0.1219 -0.6262
  189MOL0     H25448   4.277   3.198   9.494 -4.0095 -1.8338  1.5734
  189MOL0     H25449   4.374   3.343   9.313  0.5950 -1.2890 -0.6958
  189MOL0     H25450   4.181   3.376   8.926  1.6356 -1.1790  1.9833
  189MOL0     H25451   4.098   3.512   8.989  0.9146  0.2946 -1.3247
  189MOL0     H25452   4.280   3.667   8.949 -2.5389 -0.5707  0.8532
  189MOL0     H25453   4.246   3.586   8.795 -1.9351  1.6894  0.9823
  189MOL0     H25454   4.466   3.526   8.782  2.4602 -2.8222  0.5593
  189MOL0     H25455   4.441   3.422   8.905  1.5154 -0.7737 -4.5035
  189MOL0     H25456   4.508   3.710   8.926 -4.5128 -0.0740  1.6413
  189MOL0     H25457   4.495   3.619   9.074  1.0823  1.6144  0.2299
  189MOL0     H25458   4.720   3.623   9.057 -1.1087 -2.7083  1.6889
  189MOL0     H25459   4.689   3.467   9.009  1.0360  0.6211  1.0952
  189MOL0     H25460   4.679   3.544   8.754 -3.0126  0.0719  1.9766
  189MOL0     H25461   4.724   3.699   8.798 -0.4549 -0.1182 -1.3714
  189MOL0     H25462   4.927   3.572   8.728  1.1379  0.5853  0.0609
  189MOL0     H25463   4.884   3.443   8.842  0.1034  0.4205  2.8591
  189MOL0     H25464   4.958   3.715   8.927 -0.1765  0.0769  2.3299
  189MOL0     H25465   4.949   3.580   9.029 -2.1684 -1.0705 -1.8400
  189MOL0     H25466   5.105   3.389   8.798  0.9585 -0.5300  0.8146
  189MOL0     H25467   5.400   3.330   8.842  0.1400 -2.3636 -2.7188
  189MOL0     H25468   5.391   3.373   8.674 -0.3906 -1.3852  0.2312
  189MOL0     H25469   5.572   3.515   8.885 -0.2744  2.9512 -0.5979
  189MOL0     H25470   5.614   3.390   8.771 -1.4417 -0.4170 -2.1004
  189MOL0     H25471   5.510   3.660   8.707 -2.5703 -2.8598  3.6096
  189MOL0     H25472   5.554   3.523   8.587  0.5349 -0.2500  0.2422
  189MOL0     H25473   5.746   3.640   8.783 -2.0915  1.5616 -0.2590
  189MOL0     H25474   5.745   3.712   8.626 -0.5175  0.5830  0.0163
  189MOL0     H25475   5.972   3.635   8.810  1.0013  1.4942  0.3492
  189MOL0     H25476   6.208   3.653   8.803 -2.2608  1.8633  1.1334
  189MOL0     H25477   6.485   3.951   8.681 -0.8578 -0.9590 -1.6919
  189MOL0     H25478   6.679   4.030   8.768 -0.3197 -0.7705 -3.1479
  189MOL0     H25479   7.074   3.841   8.941 -1.4806 -0.5435  1.0533
  189MOL0     H25480   6.997   3.703   8.858 -2.2587  0.2580  1.1588
  189MOL0     H25481   7.048   3.809   8.639 -0.5343  3.9144 -1.8754
  189MOL0     H25482   7.094   3.948   8.710 -1.1647  0.0372 -0.8805
  189MOL0     H25483   7.221   3.678   8.725 -0.3331 -0.0758 -0.3236
  189MOL0     H25484   7.299   3.826   8.655  1.2262 -0.2320 -0.1416
  189MOL0     H25485   7.257   3.761   8.949 -0.8122 -1.3274 -0.5300
  189MOL0     H25486   7.298   3.922   8.884  1.7721  1.1329 -1.7678
  189MOL0     H25487   7.509   3.837   8.930  2.5234  1.4074 -3.0025
  189MOL0     H25488   7.489   3.803   8.762  0.4486 -1.3108 -1.0963
  189MOL0     H25489   7.429   3.574   8.961  2.5810 -1.6563  0.4718
  189MOL0     H25490   7.428   3.585   8.784 -0.4949 -2.2712  1.2380
  189MOL0     H25491   7.673   3.664   8.949 -0.5351  0.2675 -1.1419
  189MOL0     H25492   7.671   3.588   8.785 -1.4343  1.8784 -1.6084
  189MOL0     H25493   7.617   3.442   9.043 -2.2527 -0.6590 -1.1391
  189MOL0     H25494   7.586   3.384   8.885 -0.6586 -0.5183  0.4802
  189MOL0     H25495   6.830   3.628   8.802  0.5173 -0.7081 -3.3553
  189MOL0     H25496   6.626   3.550   8.714  3.8401  0.3571 -3.1274
  189MOL0     H25497   6.223   3.459   8.422  1.8692  3.2993  0.1506
  189MOL0     H25498   5.966   3.436   8.441  3.3018  0.3011 -2.9338
  189MOL0     H25499   4.003   3.323   9.103  1.2542  1.9886 -0.8385
  189MOL0     H25500   3.910   3.184   9.285  0.8378  0.6968 -0.0987
  189MOL0     H25501   4.061   2.971   9.719  0.2466 -0.8015  3.5410
  189MOL0     H25502   3.992   2.777   9.850  2.0768  1.2564 -1.3960
  189MOL0     H25503   3.569   2.689   9.881  0.7744  0.0100 -3.7402
  189MOL0     H25504   3.658   2.605  10.014  0.0514  2.2528  0.0169
  189MOL0     H25505   3.558   2.429   9.878  0.7912 -0.3814  2.0300
  189MOL0     H25506   3.737   2.420   9.874 -0.5167  0.2432  0.4833
  189MOL0     H25507   3.704   2.408   9.651  2.8297  2.3020 -0.7237
  189MOL0     H25508   3.673   2.575   9.646 -2.1370  0.0056  0.0161
  189MOL0     H25509   3.433   2.384   9.674 -3.3425  1.7589 -1.6918
  189MOL0     H25510   3.421   2.559   9.694  0.0417 -0.6048  1.2341
  189MOL0     H25511   3.440   2.495   9.284 -3.8433 -1.5032 -0.2881
  189MOL0     H25512   3.591   2.792   9.698 -0.2501  0.7704 -1.5728
  189MOL0     H25513   3.677   3.008   9.419  0.1796 -1.1534 -1.2828
  189MOL0     H25514   3.595   2.859   9.476  1.5461 -0.6990 -0.5714
  189MOL0     H25515   3.558   3.020   9.541  0.6216  1.4380 -1.2484
  190MOL0     O25516   2.915   3.729   2.925  0.4969 -0.7072  0.6325
  190MOL0     C25517   2.811   3.760   2.986 -0.2791 -0.2231  0.5218
  190MOL0     O25518   2.808   3.859   3.078  0.6978  0.0245  0.6414
  190MOL0     C25519   2.912   3.945   3.088  0.1527  0.2275 -0.5372
  190MOL0     C25520   2.949   3.984   3.217 -0.2228  0.1752  0.4905
  190MOL0     C25521   3.059   4.073   3.224 -0.1956 -0.1848  0.2839
  190MOL0     C25522   3.121   4.126   3.106  1.3577 -0.4544 -0.0403
  190MOL0     O25523   3.217   4.224   3.134 -0.1526  0.7268  0.0177
  190MOL0     C25524   3.198   4.354   3.078  0.0079 -0.2950  0.0577
  190MOL0     C25525   3.119   4.459   3.168  0.5873 -0.6520  0.6608
  190MOL0     C25526   3.199   4.503   3.289  0.0544 -0.3654 -0.0530
  190MOL0     C25527   3.163   4.414   3.411 -0.1114 -0.5973  0.8054
  190MOL0     C25528   3.216   4.465   3.544  0.3563 -0.9898  0.5262
  190MOL0     C25529   3.168   4.394   3.666 -0.0151  0.6013 -0.0728
  190MOL0     C25530   3.176   4.240   3.651 -0.1472 -0.0751  0.1934
  190MOL0     C25531   3.158   4.172   3.789 -0.0892 -0.2012 -0.8102
  190MOL0     N25532   3.018   4.192   3.839 -0.0511  0.4477  0.2994
  190MOL0     C25533   2.963   4.296   3.908 -0.8677 -0.6388  0.1799
  190MOL0     C25534   2.839   4.267   3.930 -0.4371 -0.3698 -0.1186
  190MOL0     C25535   2.722   4.342   4.001 -1.0532 -0.1367  0.1850
  190MOL0     C25536   2.636   4.264   4.105  0.1716  0.6716 -0.3382
  190MOL0     C25537   2.720   4.197   4.218  0.5656 -0.4938  0.3348
  190MOL0     C25538   2.625   4.154   4.335  0.2805 -0.1371 -0.2126
  190MOL0     O25539   2.698   4.074   4.424  0.3910  0.4871 -0.7612
  190MOL0     C25540   2.631   4.022   4.537  0.1747 -0.3267  0.8080
  190MOL0     C25541   2.488   4.031   4.551 -0.3149 -0.1970 -1.2259
  190MOL0     C25542   2.430   3.966   4.662 -0.4824 -0.1605 -0.4590
  190MOL0     C25543   2.502   3.878   4.747 -0.2457 -0.3587  0.0304
  190MOL0     C25544   2.435   3.801   4.854  0.9410  0.2787 -0.2988
  190MOL0     O25545   2.308   3.848   4.897 -0.2394 -0.5437  0.0610
  190MOL0     C25546   2.245   3.786   5.004 -0.5868 -1.1525  0.0569
  190MOL0     C25547   2.196   3.847   5.116 -0.3754 -0.1508  0.8652
  190MOL0     C25548   2.141   3.779   5.221 -0.1643 -1.0265  0.1894
  190MOL0     C25549   2.137   3.640   5.220 -0.5626 -0.7007  0.2464
  190MOL0     O25550   2.100   3.577   5.335 -1.2566  0.1678  0.1125
  190MOL0     C25551   1.982   3.497   5.315 -0.3215  0.3421  0.1164
  190MOL0     C25552   1.935   3.424   5.443  0.2687 -0.1918  0.1671
  190MOL0     C25553   1.924   3.523   5.564 -0.7353 -0.4470  1.0039
  190MOL0     C25554   2.059   3.539   5.637 -0.3521  0.0258 -0.5026
  190MOL0     C25555   2.047   3.626   5.769  0.0574  0.2309 -0.0731
  190MOL0     C25556   2.185   3.647   5.842  0.3383  0.4078 -0.2646
  190MOL0     C25557   2.161   3.722   5.978  0.3935  1.2288  0.1682
  190MOL0     C25558   2.282   3.703   6.068 -0.0337  0.1561  0.5282
  190MOL0    Cl25559   2.427   3.764   5.983 -0.5689 -0.2436 -0.0020
  190MOL0     C25560   2.179   3.570   5.106 -0.0717  0.0121 -1.3061
  190MOL0     C25561   2.220   3.646   4.992 -0.4156  0.1077 -0.0964
  190MOL0     O25562   2.512   3.721   4.920  0.2177 -0.4044 -0.1658
  190MOL0     C25563   2.640   3.888   4.733 -0.1934  0.2739  0.3909
  190MOL0     C25564   2.705   3.951   4.632  0.4177 -0.2209 -0.0287
  190MOL0     N25565   2.827   4.140   3.891 -0.2880  1.0370  0.5251
  190MOL0     N25566   2.942   4.089   3.842 -0.1798  0.4889 -0.3021
  190MOL0     C25567   3.080   4.084   2.983 -0.7585 -0.3697  0.6647
  190MOL0     C25568   2.975   3.999   2.976 -0.4344 -0.1044  0.1987
  190MOL0     C25569   2.684   3.677   2.976 -0.3284  0.8683 -0.1808
  190MOL0     C25570   2.565   3.714   3.042 -0.3569 -0.1652  0.4429
  190MOL0     C25571   2.444   3.641   3.015  0.4659  0.4145  0.5958
  190MOL0     C25572   2.440   3.524   2.940  0.0426  0.1999 -0.3119
  190MOL0     O25573   2.323   3.458   2.927 -0.2469 -0.0175  0.4037
  190MOL0     C25574   2.326   3.323   2.985 -0.8217 -0.3757 -0.2421
  190MOL0     C25575   2.190   3.261   3.012 -0.1659 -0.1750  1.0249
  190MOL0     C25576   2.092   3.255   2.898  0.0131 -0.0900 -1.6855
  190MOL0     C25577   1.969   3.176   2.936 -0.4748 -0.9043  0.2430
  190MOL0     C25578   1.861   3.227   2.851 -0.2957 -1.3114  0.1510
  190MOL0     C25579   1.773   3.265   2.777 -0.0350 -0.6817 -0.4457
  190MOL0     C25580   2.553   3.482   2.883 -0.7089 -0.1456 -0.6068
  190MOL0     C25581   2.674   3.556   2.902 -0.4007  0.1191 -0.3089
  190MOL0     C25582   2.802   3.484   2.855  0.5561 -0.5516  0.5365
  190MOL0     H25583   2.897   3.954   3.307 -1.2799  1.3562  0.2956
  190MOL0     H25584   3.092   4.121   3.316  3.0538 -1.3600 -0.1178
  190MOL0     H25585   3.304   4.370   3.055  0.7120 -5.4489 -1.5947
  190MOL0     H25586   3.147   4.338   2.983 -2.5652 -1.0085  1.4686
  190MOL0     H25587   3.012   4.445   3.185  0.0277 -0.4150 -2.1973
  190MOL0     H25588   3.110   4.541   3.097 -1.4354 -2.7433 -1.6802
  190MOL0     H25589   3.174   4.604   3.320  0.0326 -0.8790  1.6801
  190MOL0     H25590   3.309   4.504   3.285  0.0370 -0.4935 -0.8044
  190MOL0     H25591   3.054   4.419   3.418 -0.7499 -4.3389 -2.6556
  190MOL0     H25592   3.204   4.313   3.398  0.7065 -0.2168  0.3566
  190MOL0     H25593   3.325   4.472   3.543  0.2710  0.6213  0.6166
  190MOL0     H25594   3.179   4.567   3.547 -2.0256 -1.8237  1.6225
  190MOL0     H25595   3.236   4.431   3.743  2.0401 -0.4664 -1.2890
  190MOL0     H25596   3.069   4.431   3.697 -0.9303  0.9737 -3.1269
  190MOL0     H25597   3.270   4.206   3.606 -0.1175 -2.2725  1.7472
  190MOL0     H25598   3.098   4.214   3.580 -1.4170  2.2929  0.6350
  190MOL0     H25599   3.193   4.069   3.789 -2.0191 -0.8979 -0.0071
  190MOL0     H25600   3.222   4.222   3.863 -0.1356 -1.0287 -0.1922
  190MOL0     H25601   3.014   4.389   3.933  1.8499 -2.1677  0.6608
  190MOL0     H25602   2.778   4.423   4.049 -1.7863 -2.2855  5.3380
  190MOL0     H25603   2.661   4.385   3.920  0.0341 -1.6165 -1.4844
  190MOL0     H25604   2.569   4.338   4.149  2.6359  1.4103  2.4821
  190MOL0     H25605   2.571   4.186   4.062 -0.0477  1.0415 -0.6834
  190MOL0     H25606   2.800   4.255   4.265 -0.2874  2.7192 -1.8926
  190MOL0     H25607   2.765   4.107   4.173  0.9854  1.3929 -3.4035
  190MOL0     H25608   2.538   4.103   4.292  0.1694 -1.8570  1.8649
  190MOL0     H25609   2.594   4.249   4.380  0.4357  0.4168 -1.2548
  190MOL0     H25610   2.434   4.105   4.493  1.3353  2.9422  0.9344
  190MOL0     H25611   2.328   3.999   4.682  0.5481  2.4853  0.8758
  190MOL0     H25612   2.219   3.953   5.129  4.2265 -0.8534  0.1071
  190MOL0     H25613   2.114   3.830   5.313 -4.4745 -0.3810 -1.2351
  190MOL0     H25614   1.904   3.559   5.270  2.4274  2.2036 -2.4584
  190MOL0     H25615   1.996   3.429   5.231 -0.5291  1.8853 -1.2076
  190MOL0     H25616   1.838   3.376   5.429  0.8144 -1.5825  0.9344
  190MOL0     H25617   2.008   3.345   5.461 -0.7560 -1.6008 -1.4806
  190MOL0     H25618   1.900   3.628   5.549  1.5309  0.1548  1.3394
  190MOL0     H25619   1.855   3.479   5.637  0.0292  1.0595  2.7001
  190MOL0     H25620   2.135   3.580   5.571  1.6162 -3.7216 -0.8673
  190MOL0     H25621   2.100   3.440   5.660 -0.6813  0.0785  0.3869
  190MOL0     H25622   1.983   3.565   5.834  2.5839 -0.2910  2.0776
  190MOL0     H25623   2.004   3.721   5.736 -2.6244 -1.5163 -2.0686
  190MOL0     H25624   2.231   3.548   5.854 -0.8133 -0.3066 -1.5808
  190MOL0     H25625   2.249   3.707   5.777 -0.2874  0.4310 -0.8619
  190MOL0     H25626   2.072   3.671   6.016 -1.2689  1.7145 -2.7531
  190MOL0     H25627   2.144   3.829   5.962 -0.0100  1.2522  0.7306
  190MOL0     H25628   2.270   3.768   6.156 -0.5495  0.6540  0.0954
  190MOL0     H25629   2.300   3.602   6.105  1.3133  0.7515  1.6135
  190MOL0     H25630   2.188   3.462   5.102 -0.2026 -0.0755  0.3052
  190MOL0     H25631   2.249   3.593   4.902 -0.8473 -1.3824  0.6085
  190MOL0     H25632   2.707   3.836   4.800  2.0433  1.4478 -0.8142
  190MOL0     H25633   2.812   3.944   4.619  0.0922 -0.2903 -3.5631
  190MOL0     H25634   3.130   4.117   2.892  2.3232 -3.2743  1.0909
  190MOL0     H25635   2.937   3.979   2.876 -0.4208  1.2642 -0.1098
  190MOL0     H25636   2.561   3.801   3.107 -1.3705 -1.0927  1.6599
  190MOL0     H25637   2.361   3.690   3.064 -0.1665 -0.0161 -0.0307
  190MOL0     H25638   2.380   3.315   3.080 -0.3623 -1.3887 -0.5655
  190MOL0     H25639   2.378   3.259   2.913 -0.1654 -0.9700  0.7463
  190MOL0     H25640   2.147   3.324   3.091 -0.1298 -0.0256  0.9259
  190MOL0     H25641   2.212   3.157   3.040  0.6867 -0.6371 -1.1658
  190MOL0     H25642   2.134   3.214   2.805  1.7070 -1.0203 -0.5757
  190MOL0     H25643   2.073   3.361   2.884  2.4444  1.0000  1.9307
  190MOL0     H25644   1.986   3.069   2.927  0.2344 -0.7305 -0.6482
  190MOL0     H25645   1.944   3.208   3.037  0.3542  1.2809 -0.1795
  190MOL0     H25646   1.689   3.293   2.715  0.3185  0.4033 -0.4582
  190MOL0     H25647   2.563   3.382   2.844  1.8121 -0.1970  0.0018
  190MOL0     H25648   2.872   3.474   2.938  0.5432 -0.4471  0.5598
  190MOL0     H25649   2.795   3.382   2.816 -0.1185  0.0805 -1.1148
  190MOL0     H25650   2.839   3.536   2.766  2.4358 -1.1452  0.9318
  191MOL0     O25651   8.901   7.852   2.449  0.1363 -0.2288 -0.8151
  191MOL0     C25652   8.972   7.868   2.548 -0.0038 -0.1913  0.4893
  191MOL0     O25653   8.935   7.904   2.677  1.0056  0.0730  0.2558
  191MOL0     C25654   8.800   7.919   2.699  0.1524  0.3549 -0.4180
  191MOL0     C25655   8.756   7.870   2.822  0.7449 -0.5877 -0.4180
  191MOL0     C25656   8.617   7.868   2.853 -1.0175  0.3127 -0.0613
  191MOL0     C25657   8.526   7.918   2.764 -0.8928  0.0301 -0.1551
  191MOL0     O25658   8.388   7.915   2.794  0.4270 -0.1214  0.6795
  191MOL0     C25659   8.285   7.929   2.695 -0.3826  0.0584  0.1670
  191MOL0     C25660   8.232   8.071   2.674 -0.4351 -0.3887  0.2397
  191MOL0     C25661   8.175   8.163   2.789  0.0441 -0.2770  0.2544
  191MOL0     C25662   8.103   8.276   2.714 -0.0910  1.2989  0.0807
  191MOL0     C25663   8.032   8.366   2.822 -0.7299  0.4485 -0.0359
  191MOL0     C25664   7.925   8.468   2.768  1.0769  0.2402 -0.2271
  191MOL0     C25665   7.851   8.555   2.860  0.6171 -0.3107 -0.2460
  191MOL0     C25666   7.736   8.485   2.934  0.5641 -0.1703  0.3166
  191MOL0     N25667   7.613   8.495   2.845 -0.4071  0.4508 -0.8245
  191MOL0     C25668   7.511   8.574   2.874 -0.3391 -1.0180 -0.4597
  191MOL0     C25669   7.415   8.534   2.785  0.0736 -0.2078 -0.0077
  191MOL0     C25670   7.276   8.589   2.776 -0.0739 -0.1046 -0.8372
  191MOL0     C25671   7.238   8.696   2.672 -0.2918  0.4225 -0.0062
  191MOL0     C25672   7.324   8.824   2.700  0.6077  0.0999 -0.4817
  191MOL0     C25673   7.327   8.915   2.586 -0.4175 -0.6015  1.0550
  191MOL0     O25674   7.365   8.836   2.469  0.6107  0.0355  0.0496
  191MOL0     C25675   7.498   8.804   2.457  0.5522 -0.0479  0.3024
  191MOL0     C25676   7.603   8.893   2.423  0.7069 -0.0653  0.3062
  191MOL0     C25677   7.728   8.850   2.430 -0.5359  0.3013 -0.6555
  191MOL0     C25678   7.764   8.715   2.461 -0.2981 -0.4881  0.1562
  191MOL0     C25679   7.896   8.664   2.433  0.9277  0.4424  0.7323
  191MOL0     O25680   7.927   8.532   2.453  0.1207  0.4660 -0.3068
  191MOL0     C25681   8.052   8.489   2.425 -0.4633 -0.2309  0.2725
  191MOL0     C25682   8.171   8.555   2.460  0.4118  0.1524 -0.4599
  191MOL0     C25683   8.296   8.502   2.421 -0.0277 -0.2462 -0.4055
  191MOL0     C25684   8.299   8.373   2.361  0.0523 -0.1966  0.2830
  191MOL0     O25685   8.418   8.324   2.329 -0.1901  0.2197 -0.1832
  191MOL0     C25686   8.443   8.184   2.311 -0.7438  0.1012  0.8122
  191MOL0     C25687   8.581   8.168   2.247 -0.3548  1.0419  0.2323
  191MOL0     C25688   8.608   8.013   2.232  0.5536 -0.3814 -0.6392
  191MOL0     C25689   8.738   7.985   2.153 -0.5668  0.2512  1.1113
  191MOL0     C25690   8.724   7.845   2.098  0.1436  0.6533  0.3193
  191MOL0     C25691   8.850   7.829   2.008 -0.0331  0.5403  0.0366
  191MOL0     C25692   8.846   7.724   1.908 -0.7091  0.4323 -0.2725
  191MOL0     C25693   8.843   7.581   1.975  0.6306 -0.5175 -0.2904
  191MOL0    Cl25694   8.884   7.457   1.855 -0.4643 -0.1161 -0.3295
  191MOL0     C25695   8.181   8.306   2.333 -0.0647 -0.4415 -0.8231
  191MOL0     C25696   8.060   8.368   2.358 -0.5245  0.2157 -0.2282
  191MOL0     O25697   7.976   8.747   2.390  0.2506  0.0455 -0.2104
  191MOL0     C25698   7.658   8.628   2.497 -0.2951 -0.1795 -0.2107
  191MOL0     C25699   7.530   8.670   2.496  1.0012 -0.3363 -0.1511
  191MOL0     N25700   7.459   8.418   2.710 -0.6441 -0.1329 -0.4083
  191MOL0     N25701   7.584   8.401   2.747  0.9012  0.4136 -0.6513
  191MOL0     C25702   8.567   7.987   2.646 -0.5309  0.2464  0.2624
  191MOL0     C25703   8.705   7.982   2.621  0.5050  0.8523  0.4183
  191MOL0     C25704   9.111   7.835   2.510 -0.5399  0.0732 -0.4056
  191MOL0     C25705   9.215   7.916   2.553 -0.3131 -0.3931 -1.2889
  191MOL0     C25706   9.357   7.885   2.530  0.0952 -0.1988 -0.2139
  191MOL0     C25707   9.385   7.763   2.465  0.1668  0.7043  0.2749
  191MOL0     O25708   9.521   7.726   2.439 -0.2662  0.2780  0.8748
  191MOL0     C25709   9.616   7.795   2.512 -0.7503 -0.3135 -0.0548
  191MOL0     C25710   9.756   7.723   2.505  0.1866 -0.3502 -0.2058
  191MOL0     C25711   9.743   7.581   2.549 -0.5705  0.0149  0.2813
  191MOL0     C25712   9.870   7.496   2.515  0.6798 -0.0772  0.4168
  191MOL0     C25713   9.988   7.541   2.590  0.5414  0.1566 -0.2763
  191MOL0     C25714  10.075   7.570   2.667 -0.6695 -0.7711  0.3055
  191MOL0     C25715   9.282   7.685   2.413 -0.2767 -0.1857 -0.3560
  191MOL0     C25716   9.143   7.718   2.440 -0.4429  0.1958 -0.1134
  191MOL0     C25717   9.040   7.630   2.377  0.3102  0.0077 -0.4006
  191MOL0     H25718   8.821   7.804   2.879  0.8493 -0.9939 -0.9954
  191MOL0     H25719   8.575   7.820   2.941 -0.3118  0.8559  0.5911
  191MOL0     H25720   8.325   7.883   2.603  0.8371  1.4249 -0.0261
  191MOL0     H25721   8.196   7.876   2.730 -1.3120  2.6917  2.1203
  191MOL0     H25722   8.157   8.062   2.595  0.3536  1.1394 -0.7492
  191MOL0     H25723   8.313   8.132   2.633 -1.2740  2.2934  2.2911
  191MOL0     H25724   8.261   8.185   2.853  0.6295 -2.2089  0.2001
  191MOL0     H25725   8.101   8.120   2.857 -0.9620  2.5110  1.0406
  191MOL0     H25726   8.167   8.347   2.662 -0.1437  3.0050  2.1868
  191MOL0     H25727   8.037   8.233   2.638  0.3927 -0.2075  0.4768
  191MOL0     H25728   8.003   8.301   2.905 -0.1013  0.3192  0.0864
  191MOL0     H25729   8.113   8.430   2.858 -0.9793 -0.1326  1.6838
  191MOL0     H25730   7.973   8.543   2.705  0.6902  1.2146  0.5988
  191MOL0     H25731   7.853   8.420   2.702 -2.0768 -1.0950  3.7321
  191MOL0     H25732   7.805   8.637   2.804 -2.0353 -1.6968 -0.2425
  191MOL0     H25733   7.917   8.597   2.936 -2.9827  1.2325  2.3294
  191MOL0     H25734   7.757   8.379   2.953  0.5524 -0.5013 -1.3715
  191MOL0     H25735   7.715   8.531   3.031 -2.1308 -0.9789  0.2170
  191MOL0     H25736   7.523   8.659   2.940  0.6417  0.3014 -2.2347
  191MOL0     H25737   7.217   8.500   2.752 -1.4461  0.5557 -0.0107
  191MOL0     H25738   7.239   8.615   2.876 -0.6201  0.6387 -1.2229
  191MOL0     H25739   7.255   8.652   2.573  2.8401  1.9165 -0.2763
  191MOL0     H25740   7.137   8.734   2.688  0.8687  2.4375  3.6750
  191MOL0     H25741   7.431   8.805   2.715  1.3215  1.5900 -3.1356
  191MOL0     H25742   7.289   8.879   2.788 -1.7295 -2.4291  0.3049
  191MOL0     H25743   7.396   9.000   2.595 -1.8073  0.7110 -0.1531
  191MOL0     H25744   7.230   8.963   2.573  0.8069  1.1769 -3.3450
  191MOL0     H25745   7.578   8.992   2.388 -1.4854 -0.2030  1.3221
  191MOL0     H25746   7.812   8.913   2.405  1.4999 -1.2324  1.8684
  191MOL0     H25747   8.176   8.653   2.506 -3.9501  0.2065  0.2608
  191MOL0     H25748   8.392   8.535   2.459 -0.6662  2.4707 -0.9313
  191MOL0     H25749   8.464   8.140   2.410 -0.9794 -2.2752 -0.1282
  191MOL0     H25750   8.364   8.128   2.261 -3.3194  0.0354  4.5320
  191MOL0     H25751   8.578   8.224   2.153 -1.6276  2.5156  1.0986
  191MOL0     H25752   8.650   8.219   2.316 -1.2397  1.1034  1.0908
  191MOL0     H25753   8.612   7.969   2.332  0.2142 -0.3011 -0.5900
  191MOL0     H25754   8.521   7.964   2.189 -1.6971  3.1318 -0.4801
  191MOL0     H25755   8.820   7.992   2.225 -1.4426 -0.4313  2.2104
  191MOL0     H25756   8.747   8.060   2.074  2.6784 -1.1721 -0.0311
  191MOL0     H25757   8.633   7.837   2.038  0.7754 -2.9510 -0.3881
  191MOL0     H25758   8.708   7.762   2.167  2.2073 -1.4846 -1.6148
  191MOL0     H25759   8.867   7.925   1.958  1.4693  0.4218  0.2849
  191MOL0     H25760   8.933   7.810   2.077  1.3679  0.0795 -1.7192
  191MOL0     H25761   8.935   7.729   1.845  0.0782 -2.1778  0.5065
  191MOL0     H25762   8.756   7.748   1.850 -0.6567  0.9205 -0.1490
  191MOL0     H25763   8.925   7.586   2.047  2.1446  0.5782 -2.0072
  191MOL0     H25764   8.746   7.561   2.022  0.0344 -1.2897 -1.7539
  191MOL0     H25765   8.174   8.212   2.278 -2.6132 -2.5854  2.7207
  191MOL0     H25766   7.970   8.319   2.323 -0.6656  1.5564 -1.8469
  191MOL0     H25767   7.693   8.533   2.535  3.7923  0.8057 -1.0980
  191MOL0     H25768   7.443   8.610   2.518 -1.2228  2.0447 -1.7896
  191MOL0     H25769   8.493   8.035   2.582 -0.7491 -2.1621 -1.4420
  191MOL0     H25770   8.742   8.025   2.528 -2.9943 -0.9418 -2.0358
  191MOL0     H25771   9.193   8.004   2.611  0.4664 -1.9790  1.5837
  191MOL0     H25772   9.422   7.963   2.568 -2.3928  4.4219 -4.3529
  191MOL0     H25773   9.601   7.797   2.620  0.5111  1.6565  0.1431
  191MOL0     H25774   9.633   7.894   2.469  0.9838 -1.2882 -1.8375
  191MOL0     H25775   9.828   7.783   2.561  0.7784 -0.3720 -0.9372
  191MOL0     H25776   9.796   7.726   2.404  1.9849 -0.7350  0.4655
  191MOL0     H25777   9.674   7.525   2.486 -0.5550  0.4089 -0.0849
  191MOL0     H25778   9.727   7.561   2.656 -0.4854 -2.9214 -0.1602
  191MOL0     H25779   9.849   7.393   2.547  0.8524 -0.4900 -0.7508
  191MOL0     H25780   9.881   7.491   2.406  0.4252 -1.0747  0.4262
  191MOL0     H25781  10.148   7.602   2.739 -0.3927  1.8335 -1.0568
  191MOL0     H25782   9.298   7.587   2.368  1.4294  0.0738 -0.3941
  191MOL0     H25783   8.985   7.684   2.299 -0.6887  1.1170  1.0292
  191MOL0     H25784   9.083   7.539   2.334 -0.4785  0.4603 -2.2778
  191MOL0     H25785   8.954   7.600   2.438 -0.7905 -1.0805 -2.3692
  192MOL0     O25786   6.425   0.405  11.192  0.4444 -1.1437  0.1566
  192MOL0     C25787   6.463   0.435  11.075  0.3778 -0.5327 -0.0638
  192MOL0     O25788   6.375   0.477  10.974 -0.2372  0.0964 -0.1781
  192MOL0     C25789   6.249   0.517  11.008 -0.4303 -0.1645  0.2319
  192MOL0     C25790   6.235   0.646  11.069 -0.1345 -0.5507 -0.4998
  192MOL0     C25791   6.112   0.717  11.083  0.0502 -0.6273 -0.1796
  192MOL0     C25792   5.996   0.634  11.056  0.8911 -1.2764 -0.8348
  192MOL0     O25793   5.864   0.681  11.085 -0.1640 -1.1838  0.3490
  192MOL0     C25794   5.844   0.789  11.184  0.0629  0.2112  2.0299
  192MOL0     C25795   5.805   0.923  11.116 -0.2940  0.2079  0.5384
  192MOL0     C25796   5.741   1.015  11.220 -0.6459 -0.3545  0.0451
  192MOL0     C25797   5.694   1.148  11.154 -0.5417  0.2114 -1.2996
  192MOL0     C25798   5.571   1.127  11.067 -0.3672 -0.7007  0.1049
  192MOL0     C25799   5.529   1.257  11.015  0.5036 -0.0195 -0.6412
  192MOL0     C25800   5.424   1.239  10.897 -0.2746 -0.7424 -0.2403
  192MOL0     C25801   5.372   1.374  10.865  0.2415 -1.0376  0.4177
  192MOL0     N25802   5.278   1.391  10.751  0.7738  0.4390  0.1950
  192MOL0     C25803   5.149   1.342  10.760 -0.6022  0.2380  0.8515
  192MOL0     C25804   5.090   1.389  10.652  0.4590 -0.0077 -0.1194
  192MOL0     C25805   4.934   1.390  10.642  0.3639  0.9165 -0.6652
  192MOL0     C25806   4.855   1.286  10.719 -0.0100  0.2863 -0.0324
  192MOL0     C25807   4.899   1.148  10.693  0.3499  0.8479 -0.0723
  192MOL0     C25808   4.791   1.048  10.725  0.0027 -0.3611 -0.9422
  192MOL0     O25809   4.759   1.059  10.865 -0.7276  0.3493  0.7356
  192MOL0     C25810   4.787   0.952  10.945 -0.4916 -0.6086  0.8008
  192MOL0     C25811   4.902   0.867  10.919 -0.0629 -0.8495  0.3203
  192MOL0     C25812   4.929   0.773  11.018  0.6910 -0.1265 -0.4836
  192MOL0     C25813   4.842   0.752  11.127 -0.2785 -0.8291 -0.5157
  192MOL0     C25814   4.869   0.645  11.224  0.3225  0.6115 -0.2036
  192MOL0     O25815   4.966   0.560  11.202 -0.4513  0.1013  0.1510
  192MOL0     C25816   5.035   0.496  11.304  0.3609  0.6123 -0.4522
  192MOL0     C25817   5.158   0.542  11.347  0.8398  0.6161  0.0055
  192MOL0     C25818   5.241   0.469  11.432  0.2166  0.5539 -0.3882
  192MOL0     C25819   5.205   0.347  11.490  0.0468  0.3785 -0.0238
  192MOL0     O25820   5.278   0.269  11.576 -0.5347  0.8109  0.0616
  192MOL0     C25821   5.376   0.194  11.503 -0.3911  0.1674 -0.1622
  192MOL0     C25822   5.455   0.125  11.623 -0.5286  0.2868 -0.3907
  192MOL0     C25823   5.591   0.077  11.580  0.5084 -0.2902 -0.1026
  192MOL0     C25824   5.662  -0.011  11.688  0.1397 -0.1358 -0.1559
  192MOL0     C25825   5.800   0.048  11.736 -0.1092  0.6946 -0.4495
  192MOL0     C25826   5.843  -0.004  11.875  0.0751  0.7617  1.0787
  192MOL0     C25827   5.974   0.047  11.922  0.3779  0.4700  0.0404
  192MOL0     C25828   5.987   0.028  12.076 -0.0932  1.1286 -0.8538
  192MOL0    Cl25829   6.162   0.052  12.114 -0.0825  0.0280  0.0252
  192MOL0     C25830   5.077   0.299  11.443  0.2745  0.3122 -0.1400
  192MOL0     C25831   4.996   0.368  11.354  0.3479 -0.2945  1.0142
  192MOL0     O25832   4.801   0.637  11.328 -0.1170  0.0114 -0.1975
  192MOL0     C25833   4.736   0.838  11.149 -0.8359 -0.3164 -0.2145
  192MOL0     C25834   4.710   0.943  11.054 -0.2602 -0.0894 -0.8324
  192MOL0     N25835   5.194   1.455  10.587  0.1688 -0.4058  0.8736
  192MOL0     N25836   5.308   1.459  10.642  0.3007 -0.3079 -0.4971
  192MOL0     C25837   6.006   0.508  10.998 -0.1753  0.4658 -0.5345
  192MOL0     C25838   6.132   0.447  10.974  0.1870  0.3500 -0.9290
  192MOL0     C25839   6.604   0.456  11.056 -0.0126 -0.0047  0.2201
  192MOL0     C25840   6.648   0.442  10.920 -0.4621 -0.9649 -0.3991
  192MOL0     C25841   6.790   0.458  10.895 -0.0817  0.1485 -0.4200
  192MOL0     C25842   6.883   0.487  10.998 -0.4080 -0.4499  0.1790
  192MOL0     O25843   7.020   0.519  10.972  0.4345 -0.3648  0.9094
  192MOL0     C25844   7.121   0.496  11.066 -0.2356  0.6177  0.2053
  192MOL0     C25845   7.139   0.347  11.115 -0.5226 -1.7606 -0.0753
  192MOL0     C25846   7.116   0.255  10.993  0.2512 -0.2175 -0.3559
  192MOL0     C25847   7.194   0.272  10.861 -1.2502  0.1142 -0.3699
  192MOL0     C25848   7.342   0.289  10.891 -0.1528 -0.3125 -0.2997
  192MOL0     C25849   7.453   0.294  10.928 -0.1372 -0.0098  0.8455
  192MOL0     C25850   6.837   0.488  11.134 -0.0133 -0.2054  0.6433
  192MOL0     C25851   6.709   0.469  11.156 -0.2147 -0.0043  0.3611
  192MOL0     C25852   6.678   0.481  11.300 -0.7229 -0.1105 -0.7541
  192MOL0     H25853   6.336   0.683  11.087  0.3611 -2.3045  0.6071
  192MOL0     H25854   6.100   0.818  11.120  0.3643 -0.5776 -0.2064
  192MOL0     H25855   5.770   0.757  11.259 -2.7122 -0.7217 -0.8805
  192MOL0     H25856   5.936   0.803  11.241  1.5745 -1.1330  0.0100
  192MOL0     H25857   5.741   0.905  11.029  1.8981 -1.6163 -0.7988
  192MOL0     H25858   5.894   0.969  11.074 -1.1701  0.5140 -1.0795
  192MOL0     H25859   5.810   1.040  11.300 -0.1259 -2.8818  0.4800
  192MOL0     H25860   5.651   0.961  11.252 -0.1373  0.3331  2.8471
  192MOL0     H25861   5.685   1.221  11.235  2.6031  0.3361 -0.9369
  192MOL0     H25862   5.781   1.188  11.102 -0.7071  4.2276  1.1104
  192MOL0     H25863   5.596   1.049  10.994 -1.2550 -1.3628  0.4987
  192MOL0     H25864   5.487   1.086  11.122 -2.4354  1.6020 -1.1367
  192MOL0     H25865   5.488   1.306  11.104  1.3226  2.1053 -1.3735
  192MOL0     H25866   5.610   1.317  10.973  2.1336 -1.6401  0.0326
  192MOL0     H25867   5.335   1.181  10.921 -1.2236 -0.3462 -2.5971
  192MOL0     H25868   5.467   1.206  10.802 -0.6168  1.4498 -1.2071
  192MOL0     H25869   5.319   1.398  10.958  3.3907 -2.3118  2.7672
  192MOL0     H25870   5.458   1.438  10.843  0.1223 -0.7533  0.7626
  192MOL0     H25871   5.110   1.273  10.834  1.6946 -0.3067  1.6441
  192MOL0     H25872   4.891   1.479  10.687 -1.3042 -1.5262  3.0670
  192MOL0     H25873   4.903   1.377  10.538 -1.1862 -3.3623  0.0961
  192MOL0     H25874   4.873   1.306  10.825  2.8774 -2.8459  0.2514
  192MOL0     H25875   4.750   1.309  10.702  0.4149  1.6516 -0.9484
  192MOL0     H25876   4.991   1.125  10.749  1.3761  0.3875 -1.8679
  192MOL0     H25877   4.932   1.146  10.589  0.0378  2.4514 -0.2196
  192MOL0     H25878   4.816   0.946  10.693 -0.2181 -0.4602 -0.8013
  192MOL0     H25879   4.703   1.068  10.663  1.5124  3.2387 -2.1692
  192MOL0     H25880   4.961   0.884  10.830  1.5279 -0.7246  1.3642
  192MOL0     H25881   5.024   0.719  11.015  1.2869  0.8217  0.5233
  192MOL0     H25882   5.177   0.647  11.325 -1.7298  1.7667  2.6264
  192MOL0     H25883   5.335   0.516  11.459  0.0198  2.4819 -2.7733
  192MOL0     H25884   5.332   0.117  11.439  2.6356 -1.2912 -0.6877
  192MOL0     H25885   5.445   0.260  11.449 -0.3452 -2.0923 -3.1306
  192MOL0     H25886   5.473   0.199  11.702  1.8716  0.7538 -1.2858
  192MOL0     H25887   5.389   0.043  11.656 -1.8564 -0.7422 -4.9281
  192MOL0     H25888   5.578   0.031  11.481 -1.9608  3.0303 -1.5236
  192MOL0     H25889   5.656   0.164  11.568  1.4230 -0.6437  1.9779
  192MOL0     H25890   5.669  -0.116  11.657 -1.0199 -0.9647  2.1886
  192MOL0     H25891   5.602  -0.006  11.779 -1.1951  0.1888 -1.0262
  192MOL0     H25892   5.797   0.157  11.749 -3.7054  0.8063 -1.2434
  192MOL0     H25893   5.877   0.025  11.662  0.2568 -0.4760  0.2714
  192MOL0     H25894   5.763   0.031  11.941 -1.8953  0.0127 -0.8006
  192MOL0     H25895   5.837  -0.113  11.876  0.9474  0.6757 -0.3436
  192MOL0     H25896   5.962   0.155  11.909  0.0536  0.3693 -0.5412
  192MOL0     H25897   6.055   0.000  11.866  3.2548  0.7831  3.5958
  192MOL0     H25898   5.915   0.098  12.119  0.2208  2.4573 -2.3787
  192MOL0     H25899   5.959  -0.069  12.116 -4.1115  2.2328 -0.5767
  192MOL0     H25900   5.037   0.212  11.493  0.8726 -0.9370 -1.7563
  192MOL0     H25901   4.908   0.311  11.324  0.8182  0.1779 -1.4894
  192MOL0     H25902   4.677   0.822  11.238  2.3033  0.6282  2.2041
  192MOL0     H25903   4.629   1.013  11.074 -1.4007 -1.5694 -0.1475
  192MOL0     H25904   5.927   0.442  10.965  0.0609  0.2531 -0.6808
  192MOL0     H25905   6.149   0.344  10.942  1.1458 -0.0829  0.8453
  192MOL0     H25906   6.577   0.419  10.841 -2.9436  0.9325  1.0945
  192MOL0     H25907   6.816   0.461  10.790 -1.3491 -0.1522 -0.7583
  192MOL0     H25908   7.101   0.556  11.155  0.9610  0.6389  0.4832
  192MOL0     H25909   7.218   0.525  11.025 -2.2380  3.4603 -3.0198
  192MOL0     H25910   7.062   0.332  11.193 -1.8227  2.7618 -0.2322
  192MOL0     H25911   7.236   0.336  11.163 -0.0928  1.8223  0.1269
  192MOL0     H25912   7.016   0.268  10.951  1.2101  1.0777 -2.4580
  192MOL0     H25913   7.115   0.151  11.029 -1.4418  0.9232  3.3405
  192MOL0     H25914   7.183   0.184  10.798 -3.8700  0.9754 -1.2081
  192MOL0     H25915   7.158   0.354  10.799 -2.1677 -0.1811 -0.2354
  192MOL0     H25916   7.552   0.324  10.955  0.0992  1.0802 -1.0275
  192MOL0     H25917   6.904   0.523  11.212  2.0632 -1.2375 -0.5731
  192MOL0     H25918   6.602   0.413  11.340 -3.2282  3.9491  2.1214
  192MOL0     H25919   6.771   0.474  11.357 -0.0349  0.9169 -1.7112
  192MOL0     H25920   6.630   0.578  11.317  0.2186  0.0153  1.7059
  193MOL0     O25921   7.007   6.756   7.148  0.3942 -0.4248  0.5539
  193MOL0     C25922   7.077   6.858   7.169  0.5056  0.1745  0.1879
  193MOL0     O25923   7.134   6.900   7.296  0.3488  0.6373  0.2168
  193MOL0     C25924   7.128   6.822   7.406 -0.2866  0.2611 -0.2634
  193MOL0     C25925   7.095   6.693   7.421  0.4420  0.2497 -0.0511
  193MOL0     C25926   7.096   6.631   7.546 -0.1276  0.9746 -0.0678
  193MOL0     C25927   7.139   6.690   7.662  0.2492  0.3542  0.2462
  193MOL0     O25928   7.129   6.624   7.787  0.0571 -0.2459  0.1621
  193MOL0     C25929   7.056   6.697   7.872  0.2277  0.4505  0.7097
  193MOL0     C25930   6.902   6.659   7.850  0.0007  0.0419  0.6875
  193MOL0     C25931   6.859   6.522   7.897  0.1693  0.4312  0.7843
  193MOL0     C25932   6.718   6.506   7.943  0.1046 -0.7974  0.4261
  193MOL0     C25933   6.685   6.355   7.954  0.6710  0.7501  0.1224
  193MOL0     C25934   6.532   6.345   7.979  0.4075 -0.0265 -0.0421
  193MOL0     C25935   6.501   6.195   8.007 -0.0451 -0.3688  0.0304
  193MOL0     C25936   6.357   6.173   8.046  0.5107  0.7060 -1.0194
  193MOL0     N25937   6.343   6.019   8.057 -0.2548  0.3326  0.2135
  193MOL0     C25938   6.281   5.950   7.961  0.6542 -1.0437 -0.5652
  193MOL0     C25939   6.281   5.821   8.011  1.7293  0.4578  0.6747
  193MOL0     C25940   6.230   5.708   7.927 -0.3208 -0.2303 -0.1306
  193MOL0     C25941   6.097   5.729   7.871  0.1367  1.0067  0.6140
  193MOL0     C25942   5.993   5.751   7.982  0.1498  0.5384  0.0079
  193MOL0     C25943   5.872   5.832   7.928 -0.5729  0.2415 -0.1717
  193MOL0     O25944   5.915   5.962   7.891  0.3780  0.5706 -0.1372
  193MOL0     C25945   5.840   6.073   7.910  0.1339 -0.1584 -0.2362
  193MOL0     C25946   5.909   6.194   7.883 -0.0588 -0.0575  0.5291
  193MOL0     C25947   5.855   6.313   7.870 -0.0997 -0.3225 -0.3582
  193MOL0     C25948   5.717   6.324   7.892 -0.8326 -0.1422 -0.2282
  193MOL0     C25949   5.638   6.451   7.861 -0.1580  0.1631  0.3046
  193MOL0     O25950   5.711   6.557   7.808  0.3343  0.4943 -0.3126
  193MOL0     C25951   5.645   6.677   7.792  0.1745  0.2893  0.2376
  193MOL0     C25952   5.573   6.741   7.890 -0.8166 -0.6670 -0.3390
  193MOL0     C25953   5.500   6.856   7.868  0.0778 -0.1263  0.4821
  193MOL0     C25954   5.512   6.914   7.743  0.8815 -0.9998 -0.6548
  193MOL0     O25955   5.464   7.040   7.709  0.5566  0.1699 -0.2366
  193MOL0     C25956   5.351   7.082   7.782  0.4417  0.2439  0.8439
  193MOL0     C25957   5.294   7.215   7.725  0.3836  0.1702  0.0160
  193MOL0     C25958   5.409   7.322   7.718 -0.1574 -0.1630  0.9505
  193MOL0     C25959   5.358   7.464   7.680 -0.0031  0.2407  0.8653
  193MOL0     C25960   5.479   7.564   7.652  0.2094  0.1574 -0.1295
  193MOL0     C25961   5.451   7.705   7.598 -0.2283 -0.2490  1.0757
  193MOL0     C25962   5.587   7.786   7.584 -0.6785  0.3175 -0.7549
  193MOL0     C25963   5.550   7.918   7.516  0.5592 -0.4635 -0.0828
  193MOL0    Cl25964   5.697   8.020   7.497 -0.1344 -0.2809  0.2520
  193MOL0     C25965   5.583   6.858   7.637  0.9621  0.2127 -0.9219
  193MOL0     C25966   5.638   6.728   7.664 -0.8157  0.5688  0.4947
  193MOL0     O25967   5.520   6.456   7.898  0.7143 -0.0089  0.3102
  193MOL0     C25968   5.649   6.209   7.937 -0.8488  0.1792  0.2710
  193MOL0     C25969   5.707   6.082   7.947  0.7006 -0.4631  0.1935
  193MOL0     N25970   6.352   5.807   8.127 -0.2814  0.0481  0.2199
  193MOL0     N25971   6.386   5.931   8.165 -0.5449  0.0212  0.5882
  193MOL0     C25972   7.189   6.821   7.648  0.3146  0.2811  0.0376
  193MOL0     C25973   7.178   6.886   7.521  0.4730  0.3634  0.6273
  193MOL0     C25974   7.118   6.946   7.056 -0.8242 -0.2384  0.6298
  193MOL0     C25975   7.205   7.049   7.091  0.2668 -0.8912  0.2342
  193MOL0     C25976   7.224   7.150   7.004 -0.3054 -0.9750 -0.5498
  193MOL0     C25977   7.173   7.153   6.874 -0.6086  0.4554  0.2405
  193MOL0     O25978   7.207   7.260   6.793 -0.1534  0.0033  0.4527
  193MOL0     C25979   7.089   7.327   6.749  0.5416 -0.1345  0.8279
  193MOL0     C25980   7.068   7.445   6.847  0.1734 -0.1861  0.4196
  193MOL0     C25981   7.181   7.549   6.836 -0.3114  0.7547 -0.4004
  193MOL0     C25982   7.159   7.685   6.909 -0.4773 -0.5610  0.5491
  193MOL0     C25983   7.058   7.762   6.839 -1.3154  0.5741 -0.8400
  193MOL0     C25984   6.979   7.827   6.771 -0.9676 -0.1310  0.6192
  193MOL0     C25985   7.121   7.025   6.837  1.4371  0.0305 -0.7020
  193MOL0     C25986   7.076   6.924   6.919  0.2737 -0.7051  0.2371
  193MOL0     C25987   7.006   6.807   6.859  0.4236 -0.0716 -0.2600
  193MOL0     H25988   7.068   6.624   7.341 -1.0457  1.0884 -0.3099
  193MOL0     H25989   7.052   6.532   7.556  2.4477 -0.1680  0.9426
  193MOL0     H25990   7.088   6.657   7.969  3.1245 -2.7552 -1.3253
  193MOL0     H25991   7.071   6.805   7.874  1.7202  0.3071  4.6422
  193MOL0     H25992   6.876   6.683   7.746 -2.3043 -2.5708  0.5514
  193MOL0     H25993   6.838   6.726   7.908 -1.6508 -2.0482  1.4168
  193MOL0     H25994   6.924   6.501   7.982  0.0864 -0.4928  0.6240
  193MOL0     H25995   6.887   6.447   7.822  0.2899  0.1366  1.1208
  193MOL0     H25996   6.694   6.558   8.036 -1.7583  2.9439 -1.8766
  193MOL0     H25997   6.658   6.557   7.867  1.9293  0.2065 -0.4068
  193MOL0     H25998   6.708   6.290   7.869 -1.9869 -0.7594  0.4274
  193MOL0     H25999   6.733   6.312   8.042  1.1284 -1.4971 -1.1271
  193MOL0     H26000   6.512   6.415   8.060  3.7775  1.1208 -0.0547
  193MOL0     H26001   6.469   6.387   7.900  0.4721 -0.2941 -0.2407
  193MOL0     H26002   6.558   6.147   8.087 -0.0769  1.1979  1.0587
  193MOL0     H26003   6.531   6.157   7.909  3.7238  2.0519  0.0613
  193MOL0     H26004   6.334   6.216   8.144  0.4572  0.1594 -0.7889
  193MOL0     H26005   6.298   6.214   7.964  0.3072  1.2519 -0.6048
  193MOL0     H26006   6.236   5.984   7.868  0.0824 -2.1463 -0.7146
  193MOL0     H26007   6.302   5.690   7.846 -0.9599  0.1868 -0.7935
  193MOL0     H26008   6.242   5.614   7.983  0.1889 -1.6392 -2.4373
  193MOL0     H26009   6.097   5.805   7.792 -1.6615  0.6098  0.1865
  193MOL0     H26010   6.056   5.647   7.811  1.5731  0.3254  0.5179
  193MOL0     H26011   6.025   5.797   8.076  1.2790  0.8932 -0.5375
  193MOL0     H26012   5.959   5.650   8.006 -0.0767 -0.4548 -3.8408
  193MOL0     H26013   5.808   5.835   8.017 -0.3566 -0.6075  0.0255
  193MOL0     H26014   5.829   5.773   7.847 -1.7793  0.2888  0.4117
  193MOL0     H26015   6.017   6.179   7.881  0.2551  1.6634 -2.9462
  193MOL0     H26016   5.920   6.396   7.844  0.0856 -0.3760 -0.0735
  193MOL0     H26017   5.579   6.710   7.994 -1.3798  4.8586  1.6944
  193MOL0     H26018   5.452   6.903   7.953  1.6770 -0.1535  1.4606
  193MOL0     H26019   5.280   6.999   7.780 -0.5600  1.0671  1.4273
  193MOL0     H26020   5.386   7.095   7.885  1.6830 -2.7991  0.9196
  193MOL0     H26021   5.255   7.207   7.623 -2.3636  1.8441  0.8056
  193MOL0     H26022   5.218   7.244   7.797 -0.1473  0.2955 -0.5815
  193MOL0     H26023   5.462   7.323   7.814 -1.1854  1.4298  1.5512
  193MOL0     H26024   5.473   7.286   7.637 -1.3351 -0.8306  0.2807
  193MOL0     H26025   5.297   7.511   7.758 -3.3788  1.0186 -1.9631
  193MOL0     H26026   5.294   7.466   7.591 -2.0896 -1.2794  2.2291
  193MOL0     H26027   5.539   7.516   7.574  1.8016 -1.1050  1.8024
  193MOL0     H26028   5.536   7.575   7.744 -0.2180  1.0189  0.0430
  193MOL0     H26029   5.401   7.701   7.501 -2.2684 -0.1417  2.0674
  193MOL0     H26030   5.374   7.755   7.658 -3.1444 -0.7988 -1.8901
  193MOL0     H26031   5.660   7.732   7.523 -1.2277 -0.5619 -0.6393
  193MOL0     H26032   5.626   7.808   7.684 -3.6625  0.6287  0.4309
  193MOL0     H26033   5.526   7.912   7.410  1.2112  0.4731 -0.3025
  193MOL0     H26034   5.473   7.976   7.567  0.9066 -0.5478  0.5549
  193MOL0     H26035   5.590   6.909   7.542  0.8344  2.6374  0.2854
  193MOL0     H26036   5.685   6.668   7.588 -1.1867  4.1083 -2.8682
  193MOL0     H26037   5.543   6.220   7.956 -1.4901  1.0228 -3.1097
  193MOL0     H26038   5.632   6.019   7.992 -1.8726  2.9989  1.1567
  193MOL0     H26039   7.239   6.876   7.726  0.7417  0.6010 -0.4524
  193MOL0     H26040   7.209   6.990   7.512  1.6586 -0.0937 -1.0158
  193MOL0     H26041   7.263   7.049   7.183  1.2989 -0.0860 -0.3832
  193MOL0     H26042   7.284   7.235   7.036 -1.2653 -0.2982 -0.5235
  193MOL0     H26043   7.003   7.262   6.729  2.2922 -1.5628 -3.1606
  193MOL0     H26044   7.095   7.371   6.649 -1.1821  0.0784  0.7967
  193MOL0     H26045   7.051   7.396   6.944 -2.2105 -4.6089 -1.9055
  193MOL0     H26046   6.970   7.482   6.815 -0.6588 -1.6695  1.1602
  193MOL0     H26047   7.217   7.552   6.732  0.4975 -2.4739 -0.3142
  193MOL0     H26048   7.271   7.510   6.885 -0.4917  2.0549  1.0514
  193MOL0     H26049   7.127   7.666   7.012 -1.1434  0.3165  0.5180
  193MOL0     H26050   7.252   7.742   6.904 -1.2483  0.6466 -2.9045
  193MOL0     H26051   6.913   7.875   6.700 -1.5196  1.4855  2.1393
  193MOL0     H26052   7.098   7.016   6.731 -1.5757  0.6576 -0.2011
  193MOL0     H26053   6.903   6.798   6.896  0.5121  0.0856  0.0295
  193MOL0     H26054   7.008   6.825   6.751  2.1882  0.4944 -0.1499
  193MOL0     H26055   7.049   6.712   6.892 -0.3046 -0.6838 -1.0032
  194MOL0     O26056   3.607  10.943   7.306  0.1238 -0.5681 -0.6482
  194MOL0     C26057   3.525  11.038   7.302 -0.6342 -0.2300 -0.4614
  194MOL0     O26058   3.564  11.168   7.296 -0.5035 -0.8766  0.5751
  194MOL0     C26059   3.699  11.197   7.289  0.3295  0.0406 -0.6016
  194MOL0     C26060   3.794  11.176   7.397 -0.1151  0.5718 -0.0049
  194MOL0     C26061   3.927  11.227   7.390  0.3753  0.2726 -0.9319
  194MOL0     C26062   3.962  11.307   7.284 -0.4055 -0.0020  0.2477
  194MOL0     O26063   4.089  11.363   7.301  0.8867  0.6629  0.0220
  194MOL0     C26064   4.153  11.404   7.182 -0.9405  0.1554 -0.3544
  194MOL0     C26065   4.299  11.457   7.202  0.2641 -0.3602 -0.1778
  194MOL0     C26066   4.381  11.351   7.269  0.0291  0.4483  0.2630
  194MOL0     C26067   4.415  11.381   7.404  0.7508  0.5248 -1.0972
  194MOL0     C26068   4.462  11.250   7.467 -1.2893  0.2349 -0.2709
  194MOL0     C26069   4.480  11.272   7.618 -0.7438 -0.8094  0.2167
  194MOL0     C26070   4.532  11.145   7.683  0.4697 -0.6314  0.3210
  194MOL0     C26071   4.675  11.101   7.649 -0.1281  0.2906  0.5730
  194MOL0     N26072   4.770  11.157   7.750 -0.0680 -0.0266 -0.2318
  194MOL0     C26073   4.787  11.295   7.753 -0.5286 -0.1675 -1.4447
  194MOL0     C26074   4.843  11.316   7.872  0.4586 -0.3023 -0.1276
  194MOL0     C26075   4.868  11.451   7.929 -0.3245 -0.1114 -0.0909
  194MOL0     C26076   5.021  11.474   7.924 -0.1062  0.1505  0.8395
  194MOL0     C26077   5.056  11.594   8.016  0.0927 -0.1399  0.1457
  194MOL0     C26078   5.200  11.632   8.006  0.2510  0.2243 -0.0057
  194MOL0     O26079   5.230  11.742   8.086 -0.9425  0.0362 -1.1298
  194MOL0     C26080   5.363  11.791   8.071 -0.1945  0.0420 -1.4601
  194MOL0     C26081   5.475  11.739   8.002  0.0584 -0.8870  0.0777
  194MOL0     C26082   5.600  11.795   7.996  0.4963 -1.1657 -0.1496
  194MOL0     C26083   5.629  11.908   8.072 -0.1816  0.1157 -0.2941
  194MOL0     C26084   5.766  11.968   8.088 -0.3213 -0.6504 -0.0621
  194MOL0     O26085   5.876  11.919   8.017 -0.1787 -0.0143  0.4280
  194MOL0     C26086   5.996  11.986   8.030  1.0460 -0.5020  0.4024
  194MOL0     C26087   6.026  12.062   7.921 -1.0370  0.0334  0.4072
  194MOL0     C26088   6.136  12.144   7.925  0.4478  0.1570 -0.1484
  194MOL0     C26089   6.206  12.162   8.044  0.4357  0.5215  0.0649
  194MOL0     O26090   6.324  12.238   8.057  0.6254 -0.3545 -0.9948
  194MOL0     C26091   6.359  12.311   7.943  0.2271  0.3365  0.5097
  194MOL0     C26092   6.478  12.417   7.982  0.2765  1.0922 -0.0547
  194MOL0     C26093   6.523  12.488   7.854 -0.6244 -0.0804 -0.1217
  194MOL0     C26094   6.647  12.569   7.899  0.2027 -0.2615  0.4471
  194MOL0     C26095   6.689  12.665   7.779 -0.6385  0.4886 -0.1194
  194MOL0     C26096   6.808  12.751   7.823  0.4126 -0.0717  0.0572
  194MOL0     C26097   6.865  12.849   7.726 -0.1485  1.1753 -0.1577
  194MOL0     C26098   6.770  12.969   7.682 -0.6080  0.1803  0.2709
  194MOL0    Cl26099   6.853  13.103   7.614 -0.1491  0.2653  0.0434
  194MOL0     C26100   6.172  12.086   8.150  0.4621  0.1627 -1.1750
  194MOL0     C26101   6.063  12.000   8.148  0.2706  0.2485 -0.2778
  194MOL0     O26102   5.767  12.059   8.160 -0.5401  0.5386 -0.1859
  194MOL0     C26103   5.521  11.956   8.158  0.3745 -1.0368  1.4729
  194MOL0     C26104   5.394  11.896   8.161  0.2191  0.3195  0.0441
  194MOL0     N26105   4.853  11.196   7.941  0.8369 -0.3302  0.1965
  194MOL0     N26106   4.791  11.099   7.874 -0.6095 -0.0893  0.2074
  194MOL0     C26107   3.872  11.323   7.178  0.0309  0.0973  0.3321
  194MOL0     C26108   3.736  11.275   7.182  0.1546  0.0797 -0.3824
  194MOL0     C26109   3.381  11.012   7.291 -0.1929 -0.4874  0.3600
  194MOL0     C26110   3.314  10.932   7.381 -0.1122 -0.3227 -0.3196
  194MOL0     C26111   3.177  10.923   7.380  1.5154  0.1636  0.4372
  194MOL0     C26112   3.102  10.979   7.277 -0.4276 -0.7334  0.4792
  194MOL0     O26113   2.970  10.957   7.269 -0.2987  0.2215 -0.0800
  194MOL0     C26114   2.931  10.817   7.261  0.8989 -1.4299 -0.7392
  194MOL0     C26115   2.783  10.809   7.211 -0.1929  0.3824  0.6978
  194MOL0     C26116   2.763  10.884   7.089  0.0050 -0.3414  0.2919
  194MOL0     C26117   2.623  10.867   7.039  0.1681  0.7330  0.2535
  194MOL0     C26118   2.611  10.938   6.910  0.4756 -0.1923 -0.1683
  194MOL0     C26119   2.595  11.005   6.809  0.8220 -0.2914  0.4439
  194MOL0     C26120   3.164  11.062   7.186 -1.0384 -0.0969  0.5441
  194MOL0     C26121   3.305  11.075   7.188  0.1891 -1.3159 -1.2383
  194MOL0     C26122   3.368  11.160   7.078  0.4032  0.3807 -0.0782
  194MOL0     H26123   3.751  11.132   7.487  1.6580 -0.1075  0.5417
  194MOL0     H26124   3.996  11.209   7.472 -1.8276  3.1389  1.8188
  194MOL0     H26125   4.159  11.314   7.121  5.0052  0.1358 -0.3493
  194MOL0     H26126   4.103  11.489   7.135 -1.0837  1.8956  2.6517
  194MOL0     H26127   4.291  11.545   7.266 -1.5257 -0.6555  0.0645
  194MOL0     H26128   4.345  11.489   7.108 -1.2649  2.4780 -0.0894
  194MOL0     H26129   4.472  11.334   7.211 -0.1133 -1.3067  0.4883
  194MOL0     H26130   4.326  11.256   7.267 -0.7249  0.8280  1.6141
  194MOL0     H26131   4.473  11.472   7.420 -1.4471  1.9463 -0.6952
  194MOL0     H26132   4.325  11.398   7.465  2.0563  0.3544  0.9698
  194MOL0     H26133   4.403  11.160   7.447 -1.6190  0.6462 -1.2132
  194MOL0     H26134   4.555  11.236   7.412 -1.8906 -1.3970 -0.8995
  194MOL0     H26135   4.539  11.362   7.637  0.4844 -0.8491 -2.8211
  194MOL0     H26136   4.380  11.295   7.655 -0.2348 -1.0708  1.8423
  194MOL0     H26137   4.465  11.062   7.658  1.2336 -0.1530 -4.2496
  194MOL0     H26138   4.523  11.158   7.791 -1.4018  1.1989  0.0049
  194MOL0     H26139   4.700  10.995   7.648 -5.3254 -1.2089 -0.1792
  194MOL0     H26140   4.699  11.144   7.551 -1.4866  1.4683  0.7169
  194MOL0     H26141   4.749  11.366   7.679 -2.8366 -1.6653 -1.7889
  194MOL0     H26142   4.815  11.527   7.872  2.2291  1.6024 -0.3225
  194MOL0     H26143   4.823  11.444   8.029 -1.8672 -3.0022 -0.8771
  194MOL0     H26144   5.083  11.390   7.957  0.9166  0.7577  0.5105
  194MOL0     H26145   5.060  11.483   7.823  0.0543 -0.4290  0.8463
  194MOL0     H26146   5.036  11.573   8.122 -2.3419  0.7305 -0.0649
  194MOL0     H26147   4.989  11.677   7.993  0.1406 -0.5188 -1.4360
  194MOL0     H26148   5.224  11.662   7.904  2.5539  1.0078  0.7009
  194MOL0     H26149   5.263  11.545   8.026 -1.4102 -0.8113  0.9780
  194MOL0     H26150   5.466  11.650   7.941  2.2099 -0.7870 -0.4376
  194MOL0     H26151   5.691  11.761   7.947  1.0681  2.9291 -2.3773
  194MOL0     H26152   5.965  12.048   7.832 -0.4103  0.5520 -0.1140
  194MOL0     H26153   6.163  12.184   7.828 -1.6198 -0.0053 -0.8403
  194MOL0     H26154   6.395  12.243   7.866  0.7825  0.4269  0.6865
  194MOL0     H26155   6.269  12.363   7.909  1.7833  1.7733 -1.6156
  194MOL0     H26156   6.427  12.490   8.045  0.3442  4.5575 -3.6299
  194MOL0     H26157   6.552  12.364   8.042 -1.9834  1.0666  2.9877
  194MOL0     H26158   6.554  12.412   7.782 -2.5743 -1.0370 -0.0175
  194MOL0     H26159   6.445  12.553   7.813 -0.7568  1.0092  1.7155
  194MOL0     H26160   6.727  12.508   7.940 -1.9894 -2.1816  2.1750
  194MOL0     H26161   6.610  12.626   7.985  0.7311 -2.5870  2.3249
  194MOL0     H26162   6.602  12.728   7.762 -0.4569  1.4482  2.1309
  194MOL0     H26163   6.719  12.597   7.700  3.2575 -0.5148  1.9770
  194MOL0     H26164   6.786  12.809   7.913  1.3540 -0.5973  0.6468
  194MOL0     H26165   6.892  12.687   7.851 -0.9418 -0.7933  2.8583
  194MOL0     H26166   6.900  12.796   7.637  1.2634  2.0528 -0.1501
  194MOL0     H26167   6.948  12.897   7.777  0.4446 -1.2239  1.2597
  194MOL0     H26168   6.707  12.933   7.601  1.5542 -0.5463 -1.1721
  194MOL0     H26169   6.706  12.995   7.767 -1.4790 -4.7681  1.4164
  194MOL0     H26170   6.230  12.084   8.242  1.7864 -2.4009 -1.9589
  194MOL0     H26171   6.047  11.935   8.233  4.1395 -0.1984  0.2881
  194MOL0     H26172   5.544  12.043   8.219  2.8835  1.7620 -2.9908
  194MOL0     H26173   5.323  11.932   8.234  1.4263  1.8047  0.5287
  194MOL0     H26174   3.896  11.390   7.096  0.2142  1.0683  1.1610
  194MOL0     H26175   3.670  11.290   7.097  0.3282 -0.3035 -0.5874
  194MOL0     H26176   3.368  10.877   7.457  1.4137 -1.1229 -1.9033
  194MOL0     H26177   3.126  10.865   7.456  0.8602  2.5849  1.9523
  194MOL0     H26178   2.937  10.763   7.355 -0.3593 -1.7073 -0.8036
  194MOL0     H26179   3.008  10.769   7.199  1.2462  0.8654 -2.2574
  194MOL0     H26180   2.706  10.854   7.274 -0.8523 -0.0401  0.2074
  194MOL0     H26181   2.754  10.711   7.170  1.3329  1.1880 -2.6749
  194MOL0     H26182   2.835  10.844   7.017  0.7053 -1.1227  1.3845
  194MOL0     H26183   2.787  10.991   7.093 -0.6936 -0.0452 -2.1777
  194MOL0     H26184   2.598  10.760   7.042 -0.0226  0.7837  0.5519
  194MOL0     H26185   2.562  10.920   7.114 -1.1269  2.1960 -1.7412
  194MOL0     H26186   2.567  11.050   6.716 -1.0191 -3.6867 -0.8078
  194MOL0     H26187   3.109  11.116   7.109  0.1947  2.2376  1.1916
  194MOL0     H26188   3.314  11.172   6.984  2.4057  0.1242 -1.3229
  194MOL0     H26189   3.405  11.259   7.107  0.0019  0.8633 -1.1784
  194MOL0     H26190   3.455  11.109   7.034  0.5398  0.5355  0.0087
  195MOL0     O26191   7.298   2.804   2.049 -0.6499 -0.2527  0.7367
  195MOL0     C26192   7.180   2.806   2.029 -0.9577 -0.0918  0.1800
  195MOL0     O26193   7.108   2.702   1.963 -0.0313  0.4368 -0.3393
  195MOL0     C26194   7.163   2.578   1.984  0.1728 -0.2211 -0.5440
  195MOL0     C26195   7.119   2.483   2.083 -0.2401 -0.7870 -0.2151
  195MOL0     C26196   7.188   2.371   2.106 -0.0357  1.1243 -1.4698
  195MOL0     C26197   7.300   2.332   2.027  0.5858  0.0725  0.8079
  195MOL0     O26198   7.347   2.205   2.029  0.0361 -0.2999  0.1561
  195MOL0     C26199   7.310   2.116   2.141  0.2587 -0.1293  0.8306
  195MOL0     C26200   7.391   1.984   2.125 -0.4172  0.0103 -0.0290
  195MOL0     C26201   7.341   1.882   2.233  0.0062  0.2403 -0.2711
  195MOL0     C26202   7.436   1.757   2.235 -0.1253 -1.2582 -0.4556
  195MOL0     C26203   7.405   1.671   2.354  0.0234  0.4570 -0.5032
  195MOL0     C26204   7.463   1.722   2.481  0.0517  0.1677 -0.2298
  195MOL0     C26205   7.483   1.605   2.579  0.2525  0.2452  0.2022
  195MOL0     C26206   7.439   1.651   2.717 -0.2834 -0.0061 -0.4421
  195MOL0     N26207   7.535   1.741   2.782  0.2978 -0.0171  0.3424
  195MOL0     C26208   7.657   1.709   2.841  0.4332  0.2872 -0.9895
  195MOL0     C26209   7.710   1.825   2.879  0.4046  0.5223 -0.2144
  195MOL0     C26210   7.843   1.845   2.954 -0.4780 -0.2195 -0.5309
  195MOL0     C26211   7.948   1.896   2.861 -0.3993 -0.6672 -0.3408
  195MOL0     C26212   8.053   1.973   2.935 -0.4387  0.4716 -0.4049
  195MOL0     C26213   8.191   1.995   2.867  0.5043 -0.5657 -0.3098
  195MOL0     O26214   8.261   2.118   2.902  0.9288  0.2027  0.9168
  195MOL0     C26215   8.398   2.129   2.863  0.1366  1.0514  0.7511
  195MOL0     C26216   8.462   2.018   2.800 -0.0670  1.3671 -0.2909
  195MOL0     C26217   8.589   2.038   2.752 -0.5858 -0.4750  0.9929
  195MOL0     C26218   8.652   2.164   2.754  0.0845  0.8076  0.1966
  195MOL0     C26219   8.796   2.164   2.731 -0.4543 -0.0700 -0.4770
  195MOL0     O26220   8.837   2.293   2.720 -0.1760  0.3943 -0.4475
  195MOL0     C26221   8.970   2.310   2.678  1.5163 -0.1799 -0.5259
  195MOL0     C26222   8.988   2.347   2.543 -0.3537  0.3257  0.0632
  195MOL0     C26223   9.129   2.364   2.510  1.1146 -0.8172  0.6826
  195MOL0     C26224   9.235   2.346   2.599 -0.1206 -0.1028  0.2265
  195MOL0     O26225   9.356   2.386   2.550 -0.9652  1.3573  0.2573
  195MOL0     C26226   9.470   2.309   2.576 -0.6525  0.1998 -0.0996
  195MOL0     C26227   9.589   2.398   2.559 -0.5826 -0.8858 -0.1436
  195MOL0     C26228   9.717   2.323   2.575  0.1511 -0.3506 -0.1472
  195MOL0     C26229   9.839   2.418   2.589 -0.7668  0.3839 -0.5630
  195MOL0     C26230   9.973   2.339   2.628  0.6788 -0.5271  0.4203
  195MOL0     C26231  10.095   2.424   2.650  1.1332 -0.2868 -0.3192
  195MOL0     C26232  10.219   2.350   2.679  0.2913 -0.3749  0.0425
  195MOL0     C26233  10.331   2.455   2.692 -0.1206  0.2672  0.0509
  195MOL0    Cl26234  10.304   2.556   2.837  0.0993 -0.2287  0.3423
  195MOL0     C26235   9.206   2.292   2.730 -0.3706  0.2055 -0.2013
  195MOL0     C26236   9.070   2.274   2.764 -0.0795 -0.3584  1.3675
  195MOL0     O26237   8.864   2.065   2.700 -0.5415 -0.3227 -0.1851
  195MOL0     C26238   8.589   2.270   2.820  0.6303 -1.4342 -0.1330
  195MOL0     C26239   8.460   2.254   2.870 -0.2235  0.3651  0.8618
  195MOL0     N26240   7.625   1.925   2.848  0.5004  0.1870  0.7717
  195MOL0     N26241   7.528   1.878   2.785 -0.1965 -0.7214  0.0013
  195MOL0     C26242   7.349   2.417   1.932 -0.3961  0.2270 -0.0566
  195MOL0     C26243   7.279   2.544   1.913  0.1277 -0.1185  0.2535
  195MOL0     C26244   7.096   2.930   2.063  0.0718  0.7390 -0.3673
  195MOL0     C26245   6.969   2.930   2.004 -0.1668 -0.4876 -0.1253
  195MOL0     C26246   6.873   3.027   2.033 -0.5417 -0.5050  0.4325
  195MOL0     C26247   6.899   3.137   2.119 -0.9366 -1.0280 -0.6843
  195MOL0     O26248   6.831   3.257   2.141 -0.2140  0.0416 -0.9625
  195MOL0     C26249   6.684   3.247   2.132 -0.5704 -0.9125  0.0173
  195MOL0     C26250   6.614   3.379   2.169  0.0784  0.1433 -0.5983
  195MOL0     C26251   6.581   3.379   2.322  0.3827 -0.3755 -0.1550
  195MOL0     C26252   6.689   3.445   2.393 -0.4040 -0.2396 -0.0458
  195MOL0     C26253   6.677   3.430   2.540 -0.2128  0.7276  0.2870
  195MOL0     C26254   6.649   3.426   2.660 -0.1037 -0.1082  1.5311
  195MOL0     C26255   7.028   3.148   2.170 -0.5854  0.4393 -0.0867
  195MOL0     C26256   7.129   3.046   2.141 -0.1804  0.0156  0.1179
  195MOL0     C26257   7.260   3.057   2.210  0.1930 -0.9058  0.7388
  195MOL0     H26258   7.035   2.508   2.148  0.4188  0.0717  0.3336
  195MOL0     H26259   7.145   2.309   2.183 -0.2680  2.8855 -0.1308
  195MOL0     H26260   7.338   2.161   2.237 -4.3336  1.7373  1.5322
  195MOL0     H26261   7.203   2.093   2.145 -0.9199  4.1209 -0.6014
  195MOL0     H26262   7.496   2.014   2.110 -0.4094  0.5439  0.9830
  195MOL0     H26263   7.358   1.928   2.037 -2.6395  1.0020  0.1059
  195MOL0     H26264   7.243   1.853   2.193  1.0752  0.0879 -2.9969
  195MOL0     H26265   7.346   1.933   2.329  0.3526 -4.1948  2.3051
  195MOL0     H26266   7.429   1.689   2.149 -3.2499 -2.0855  0.3474
  195MOL0     H26267   7.538   1.797   2.236  0.3211 -2.3179 -0.9957
  195MOL0     H26268   7.296   1.673   2.364 -0.1835  0.4574 -2.3095
  195MOL0     H26269   7.445   1.572   2.330  0.5624  1.4007 -4.0636
  195MOL0     H26270   7.559   1.772   2.466 -0.5763  1.3343 -0.4685
  195MOL0     H26271   7.396   1.789   2.535 -1.4319 -2.2808  1.1724
  195MOL0     H26272   7.580   1.557   2.571 -0.6978 -1.9396  1.0089
  195MOL0     H26273   7.406   1.534   2.549  0.3067  0.8440 -1.4738
  195MOL0     H26274   7.347   1.710   2.717 -0.1046  0.4711  3.1014
  195MOL0     H26275   7.420   1.560   2.774  0.3407  0.4461  0.5078
  195MOL0     H26276   7.703   1.613   2.862  0.0179 -0.0632 -1.6423
  195MOL0     H26277   7.818   1.928   3.021 -0.5067  0.5302 -1.4492
  195MOL0     H26278   7.873   1.753   3.006 -1.1000 -1.9634 -3.1042
  195MOL0     H26279   7.993   1.811   2.809  1.6468 -0.5583  1.1431
  195MOL0     H26280   7.913   1.969   2.787  3.5968  1.4812 -0.3625
  195MOL0     H26281   8.072   1.906   3.020  1.3190  1.0043 -0.3244
  195MOL0     H26282   8.011   2.064   2.980 -1.1510  0.1177 -0.3460
  195MOL0     H26283   8.176   1.993   2.759 -0.9327 -2.5716 -0.1253
  195MOL0     H26284   8.239   1.900   2.893  2.1837  0.1451 -0.6801
  195MOL0     H26285   8.413   1.926   2.771  3.3903 -0.9452  0.6294
  195MOL0     H26286   8.653   1.963   2.706  0.1587  1.0639 -0.5825
  195MOL0     H26287   8.905   2.345   2.474 -2.9098 -0.0253  2.9559
  195MOL0     H26288   9.160   2.385   2.408 -3.2633  0.2822 -0.6220
  195MOL0     H26289   9.460   2.291   2.684  0.2037  2.0436  0.3261
  195MOL0     H26290   9.480   2.217   2.519  1.5537  0.4618 -0.1972
  195MOL0     H26291   9.580   2.426   2.454 -0.0568  0.5052  0.1681
  195MOL0     H26292   9.590   2.492   2.615 -1.6691  1.0469 -3.1684
  195MOL0     H26293   9.715   2.275   2.674  0.7425  4.0311  2.2218
  195MOL0     H26294   9.735   2.254   2.492 -0.6661  2.1095 -2.5179
  195MOL0     H26295   9.814   2.491   2.666  1.0846 -0.8577  1.3333
  195MOL0     H26296   9.856   2.482   2.502 -1.4926  0.0130 -0.9952
  195MOL0     H26297  10.002   2.275   2.544  2.3662  1.2906 -0.4539
  195MOL0     H26298   9.949   2.278   2.715 -0.3546 -2.1623 -0.9493
  195MOL0     H26299  10.111   2.467   2.551 -4.1207  0.8599 -0.9369
  195MOL0     H26300  10.065   2.498   2.725 -2.9211 -0.6924 -1.3627
  195MOL0     H26301  10.249   2.277   2.604  0.8801  1.7059 -1.8595
  195MOL0     H26302  10.212   2.295   2.774  2.6694  3.4447  2.7139
  195MOL0     H26303  10.423   2.401   2.716  0.2336  1.0427  0.4843
  195MOL0     H26304  10.344   2.520   2.605 -3.4780  1.2595  0.1383
  195MOL0     H26305   9.282   2.273   2.805 -0.8573 -0.8102  0.0560
  195MOL0     H26306   9.046   2.235   2.862  0.2495 -3.5162  0.2967
  195MOL0     H26307   8.644   2.362   2.838 -0.0310 -1.6082  3.5392
  195MOL0     H26308   8.406   2.340   2.909  0.6169  1.1636  0.2960
  195MOL0     H26309   7.441   2.388   1.882  0.1720  2.9622 -0.7492
  195MOL0     H26310   7.320   2.613   1.840 -0.8661 -0.8647 -1.0478
  195MOL0     H26311   6.929   2.851   1.940 -0.9970 -0.1068 -0.0864
  195MOL0     H26312   6.774   3.015   1.989 -1.7857  2.4671  2.0871
  195MOL0     H26313   6.643   3.168   2.196 -0.4893  0.0883  1.3609
  195MOL0     H26314   6.659   3.227   2.028 -0.1889 -0.4518 -0.1623
  195MOL0     H26315   6.520   3.385   2.113  1.2716 -0.3125 -2.7746
  195MOL0     H26316   6.669   3.470   2.142  1.1042  0.1943  1.4831
  195MOL0     H26317   6.564   3.276   2.355  3.2288 -1.7634 -2.5388
  195MOL0     H26318   6.494   3.440   2.344  0.6039  0.9386 -2.5856
  195MOL0     H26319   6.786   3.407   2.361 -0.3063  0.7416 -0.9252
  195MOL0     H26320   6.686   3.552   2.370  0.7009  0.2403  1.8443
  195MOL0     H26321   6.631   3.420   2.765 -2.0720  0.1806  1.2495
  195MOL0     H26322   7.058   3.233   2.231  0.3052 -0.7439  1.1763
  195MOL0     H26323   7.248   3.044   2.318 -0.4980  1.8184  1.0602
  195MOL0     H26324   7.344   2.998   2.172  2.2428  1.7319  0.8266
  195MOL0     H26325   7.293   3.157   2.181  0.6187 -1.2852 -0.1405
  196MOL0     O26326   1.856   9.161   0.676  0.0332  0.1776  0.2031
  196MOL0     C26327   1.938   9.071   0.688  0.4692  0.2637 -0.1709
  196MOL0     O26328   1.926   8.941   0.645 -0.5751 -0.9724 -0.4822
  196MOL0     C26329   1.831   8.902   0.558 -0.0038 -0.2397  0.9763
  196MOL0     C26330   1.711   8.835   0.597  1.3915  0.0891 -0.4298
  196MOL0     C26331   1.607   8.807   0.509 -0.4597 -0.2055  0.2002
  196MOL0     C26332   1.628   8.832   0.369  0.7383  1.2487 -0.4030
  196MOL0     O26333   1.534   8.798   0.279  0.9854 -0.2618 -0.0154
  196MOL0     C26334   1.561   8.693   0.192 -0.4000  0.7987  0.0196
  196MOL0     C26335   1.430   8.643   0.117 -0.9014  0.3508  0.3336
  196MOL0     C26336   1.365   8.744   0.021  0.0287 -0.3599  0.6872
  196MOL0     C26337   1.460   8.843  -0.044 -0.3440 -0.2182  0.0240
  196MOL0     C26338   1.562   8.790  -0.149  0.3477  0.1149  0.3838
  196MOL0     C26339   1.661   8.895  -0.208  0.1045  0.6040  0.2711
  196MOL0     C26340   1.759   8.942  -0.099 -1.3806 -0.2141 -0.1979
  196MOL0     C26341   1.876   8.841  -0.083 -0.1157 -0.5926  0.0593
  196MOL0     N26342   1.985   8.887   0.008 -0.3510  0.8606  1.2378
  196MOL0     C26343   2.089   8.812   0.055  0.3724  0.3743 -0.4905
  196MOL0     C26344   2.145   8.883   0.151 -0.1378 -0.6216 -0.1034
  196MOL0     C26345   2.243   8.838   0.254 -0.3510  0.3211 -0.1095
  196MOL0     C26346   2.179   8.771   0.372  0.3648 -0.3217  0.1285
  196MOL0     C26347   2.125   8.639   0.339 -0.3995 -0.1552  0.0356
  196MOL0     C26348   2.038   8.591   0.458 -0.6782 -0.2331 -0.5522
  196MOL0     O26349   2.134   8.568   0.574 -0.6378 -0.2130 -0.1698
  196MOL0     C26350   2.089   8.550   0.699  0.8034 -0.8206 -0.9760
  196MOL0     C26351   2.179   8.486   0.789  0.1180 -0.4302  0.0395
  196MOL0     C26352   2.137   8.443   0.915  0.0490 -0.4770 -0.1156
  196MOL0     C26353   2.009   8.469   0.961  0.4320  0.3816 -0.8525
  196MOL0     C26354   1.957   8.425   1.097  0.3593 -0.1918 -0.3222
  196MOL0     O26355   2.049   8.356   1.182  0.7615 -0.2037  0.4862
  196MOL0     C26356   2.025   8.350   1.319  0.1144  0.4219 -0.9810
  196MOL0     C26357   2.062   8.230   1.389 -1.1085 -0.4737  0.4676
  196MOL0     C26358   2.065   8.221   1.528 -0.2497 -0.6650  0.3686
  196MOL0     C26359   2.018   8.335   1.603  0.5454 -1.2941 -0.5061
  196MOL0     O26360   2.011   8.339   1.738  0.0400  0.6918  0.3427
  196MOL0     C26361   2.011   8.206   1.799  0.5179 -0.2299 -0.4221
  196MOL0     C26362   1.984   8.216   1.952 -1.1101 -0.6772 -0.4274
  196MOL0     C26363   1.974   8.074   2.006  0.3739 -0.0719 -1.2505
  196MOL0     C26364   1.946   8.070   2.156  0.3260  0.5706  0.5068
  196MOL0     C26365   1.947   7.935   2.226  0.4756 -0.2106 -0.2194
  196MOL0     C26366   1.910   7.930   2.373  1.0368  0.3124 -0.3235
  196MOL0     C26367   1.763   7.962   2.393  0.5454 -0.0902  0.0748
  196MOL0     C26368   1.721   7.951   2.541 -0.5759 -0.2484  0.3409
  196MOL0    Cl26369   1.694   7.787   2.599  0.7015  0.3371  0.2329
  196MOL0     C26370   1.985   8.460   1.538 -0.3537  0.2692 -0.4918
  196MOL0     C26371   1.992   8.460   1.401  0.3903  0.4555  0.2293
  196MOL0     O26372   1.846   8.465   1.141 -0.2059 -0.3185 -0.4363
  196MOL0     C26373   1.929   8.538   0.874  0.1689  0.6302 -1.0869
  196MOL0     C26374   1.961   8.578   0.748 -0.3611  0.1423 -0.3620
  196MOL0     N26375   2.079   9.010   0.159  0.0997  0.4323 -0.2869
  196MOL0     N26376   1.977   8.997   0.086 -0.1827  0.1353 -0.2962
  196MOL0     C26377   1.745   8.895   0.323  0.2476  0.4836 -0.4325
  196MOL0     C26378   1.838   8.936   0.422  0.6596 -0.4864  0.7450
  196MOL0     C26379   2.056   9.097   0.775 -0.1376 -0.1524 -0.1898
  196MOL0     C26380   2.052   9.221   0.839  0.4301  0.8432  0.3480
  196MOL0     C26381   2.163   9.275   0.916 -0.1663  0.0882 -0.8558
  196MOL0     C26382   2.276   9.197   0.941  0.8017  1.4578  0.0948
  196MOL0     O26383   2.364   9.245   1.028  0.4644  0.1759  0.0217
  196MOL0     C26384   2.438   9.137   1.091  0.5297  0.1006  0.4719
  196MOL0     C26385   2.476   9.157   1.236 -0.3678  0.1357 -0.1408
  196MOL0     C26386   2.476   9.034   1.319 -0.8288  0.2110  0.3696
  196MOL0     C26387   2.540   9.044   1.463  0.3906  0.6881  0.1044
  196MOL0     C26388   2.429   9.055   1.562 -0.6502 -0.1490  0.8130
  196MOL0     C26389   2.341   9.069   1.639  0.6279  0.7373 -0.2022
  196MOL0     C26390   2.282   9.070   0.881  0.5351 -0.7361 -0.4478
  196MOL0     C26391   2.175   9.025   0.804 -0.4913 -0.3368 -0.4721
  196MOL0     C26392   2.205   8.891   0.748  0.6193 -0.0142  0.1401
  196MOL0     H26393   1.695   8.826   0.703 -0.2795  1.7884 -0.4884
  196MOL0     H26394   1.508   8.789   0.550 -0.9621 -0.6343 -1.1514
  196MOL0     H26395   1.637   8.727   0.121  0.3121 -1.8005 -0.5492
  196MOL0     H26396   1.615   8.611   0.241 -2.5018  0.7901  2.5686
  196MOL0     H26397   1.349   8.612   0.184 -0.8738  0.1240  0.2641
  196MOL0     H26398   1.452   8.547   0.069 -3.2828  0.1723 -0.5401
  196MOL0     H26399   1.298   8.806   0.082  0.5028  1.0576 -0.1637
  196MOL0     H26400   1.306   8.704  -0.062  0.4430  0.4272 -0.0069
  196MOL0     H26401   1.411   8.916  -0.109 -0.4954 -1.4077 -1.2565
  196MOL0     H26402   1.508   8.900   0.037 -0.1454  0.5168 -0.5966
  196MOL0     H26403   1.610   8.703  -0.104 -0.0619 -0.9085 -1.0821
  196MOL0     H26404   1.504   8.748  -0.231  2.6148  1.4451 -2.0507
  196MOL0     H26405   1.712   8.851  -0.295  3.4281  3.0903  0.7269
  196MOL0     H26406   1.610   8.984  -0.246 -1.9534  0.5256  2.5866
  196MOL0     H26407   1.714   8.938   0.001  1.3104  0.1415  1.1273
  196MOL0     H26408   1.795   9.043  -0.124 -4.7059  0.5588 -2.6318
  196MOL0     H26409   1.838   8.744  -0.049 -0.0472 -0.1335  1.5006
  196MOL0     H26410   1.924   8.834  -0.181  2.0692  0.1738  1.0173
  196MOL0     H26411   2.117   8.709   0.034  0.8792  0.2811  0.5823
  196MOL0     H26412   2.312   8.768   0.206 -1.9122  0.1832 -2.2998
  196MOL0     H26413   2.285   8.935   0.283  1.0275 -0.0951 -0.6583
  196MOL0     H26414   2.249   8.775   0.456  0.0179 -0.3091  0.4217
  196MOL0     H26415   2.092   8.831   0.402  1.5878  2.2176 -1.0550
  196MOL0     H26416   2.210   8.571   0.336  1.8138  2.4068  0.7790
  196MOL0     H26417   2.066   8.636   0.247 -1.9735  3.2261  0.7790
  196MOL0     H26418   1.984   8.499   0.435 -0.8395 -0.1809 -0.3836
  196MOL0     H26419   1.952   8.654   0.483 -1.1541 -1.5617  1.3789
  196MOL0     H26420   2.268   8.446   0.742  0.1141 -0.4573  0.0552
  196MOL0     H26421   2.220   8.390   0.960 -0.0029 -0.4768 -0.0187
  196MOL0     H26422   2.109   8.146   1.338  0.4602  0.8334 -0.3451
  196MOL0     H26423   2.097   8.137   1.589 -0.8942  0.8690  2.9749
  196MOL0     H26424   1.941   8.142   1.745 -1.5003  0.4871  1.2082
  196MOL0     H26425   2.112   8.163   1.799 -0.4114 -2.7430 -2.6874
  196MOL0     H26426   2.065   8.275   1.994 -2.1865 -0.6742  1.7752
  196MOL0     H26427   1.894   8.276   1.970  0.2142  1.9167 -1.8506
  196MOL0     H26428   1.889   8.021   1.961  1.1014 -0.8282 -1.7594
  196MOL0     H26429   2.061   8.013   1.978  0.5849  0.2799 -1.3673
  196MOL0     H26430   1.852   8.117   2.185  0.1282 -0.4597  1.5870
  196MOL0     H26431   2.022   8.135   2.202  1.3027 -0.7943  0.8778
  196MOL0     H26432   2.046   7.891   2.217  0.8800  0.3464  1.2828
  196MOL0     H26433   1.882   7.863   2.175  1.5819 -0.9439 -0.6202
  196MOL0     H26434   1.943   7.837   2.419  1.6443  1.3240  1.3773
  196MOL0     H26435   1.967   8.009   2.424  0.6832  0.8019 -0.6673
  196MOL0     H26436   1.699   7.894   2.336 -1.2721 -0.1177  2.0631
  196MOL0     H26437   1.738   8.065   2.365 -0.7477  0.7181  3.7153
  196MOL0     H26438   1.805   7.987   2.602  0.8349 -1.4853 -0.7939
  196MOL0     H26439   1.626   8.002   2.558 -0.4554  1.6545 -3.6940
  196MOL0     H26440   1.971   8.552   1.594  3.4819  0.7908 -0.0976
  196MOL0     H26441   1.959   8.546   1.343 -1.9498 -0.1166  0.6097
  196MOL0     H26442   1.827   8.567   0.898 -0.3324  0.4924 -2.9314
  196MOL0     H26443   1.899   8.639   0.682 -2.3550 -0.3012  1.0027
  196MOL0     H26444   1.760   8.929   0.221 -2.5570 -4.0599 -2.7098
  196MOL0     H26445   1.915   8.994   0.373 -1.5562  2.4643  0.4881
  196MOL0     H26446   1.970   9.289   0.819 -1.0258 -1.3100 -1.4162
  196MOL0     H26447   2.151   9.371   0.964  0.3430 -0.0598 -0.4214
  196MOL0     H26448   2.530   9.118   1.035 -0.5875 -4.1387 -0.2363
  196MOL0     H26449   2.381   9.044   1.095  1.6896 -0.6127  0.9656
  196MOL0     H26450   2.412   9.223   1.295 -0.5178 -0.9469  0.9255
  196MOL0     H26451   2.576   9.200   1.228 -1.0993  2.2669  1.2410
  196MOL0     H26452   2.538   8.964   1.263  2.4449  2.4778  0.8596
  196MOL0     H26453   2.373   8.997   1.323 -0.8533  0.1212 -0.8374
  196MOL0     H26454   2.592   8.949   1.479 -0.8928  0.2772  2.2389
  196MOL0     H26455   2.614   9.124   1.471  0.3933  0.5833  1.4745
  196MOL0     H26456   2.252   9.064   1.699  0.6042  2.8104 -0.0112
  196MOL0     H26457   2.367   9.007   0.904  0.5051 -0.7297 -0.3159
  196MOL0     H26458   2.118   8.825   0.748 -2.2760  3.4784  0.8502
  196MOL0     H26459   2.233   8.910   0.644 -1.3637  0.0200 -0.4425
  196MOL0     H26460   2.290   8.842   0.796  1.7604  2.2032  0.5061
  197MOL0     O26461   1.119  10.404   3.477  0.0319 -0.4061  0.0088
  197MOL0     C26462   1.071  10.377   3.582  0.4730  0.5496 -0.1075
  197MOL0     O26463   1.150  10.322   3.683 -0.3200  0.2058 -0.1497
  197MOL0     C26464   1.291  10.326   3.679 -0.6715  0.1788  0.4218
  197MOL0     C26465   1.372  10.441   3.666  0.4601 -0.7384  0.6279
  197MOL0     C26466   1.510  10.445   3.680 -0.2230  0.5077  0.3115
  197MOL0     C26467   1.583  10.336   3.732 -0.1710 -0.0086 -0.5306
  197MOL0     O26468   1.713  10.327   3.749 -0.5696 -0.1395  0.2883
  197MOL0     C26469   1.814  10.409   3.692 -0.3754  0.3639  0.4872
  197MOL0     C26470   1.857  10.347   3.566  0.2221  0.2302  0.8877
  197MOL0     C26471   2.006  10.369   3.523 -0.7139 -0.4050 -0.3836
  197MOL0     C26472   2.045  10.522   3.504  0.4565  0.5890 -0.1975
  197MOL0     C26473   2.190  10.560   3.500  0.7763  0.7071 -0.2626
  197MOL0     C26474   2.259  10.485   3.397  0.9215  0.2268  0.2411
  197MOL0     C26475   2.228  10.543   3.251  0.5279 -0.0951 -0.3856
  197MOL0     C26476   2.323  10.473   3.153  0.7088 -0.3093  0.1168
  197MOL0     N26477   2.466  10.484   3.181 -0.0339  0.5251  0.2833
  197MOL0     C26478   2.551  10.590   3.146 -0.2512 -0.2104 -0.6414
  197MOL0     C26479   2.674  10.537   3.163  0.2108  0.9065 -0.0207
  197MOL0     C26480   2.802  10.583   3.104 -0.3153  0.0429 -0.7205
  197MOL0     C26481   2.843  10.520   2.973  0.0543  0.7929 -0.8748
  197MOL0     C26482   2.978  10.564   2.926  0.3656 -0.2270  0.3515
  197MOL0     C26483   3.013  10.514   2.793 -0.2783  0.2883  0.7826
  197MOL0     O26484   3.141  10.548   2.759 -0.3593 -0.9994 -0.1575
  197MOL0     C26485   3.248  10.459   2.773 -0.2059 -0.8925 -0.7299
  197MOL0     C26486   3.361  10.489   2.701 -0.3070  0.2824  0.4061
  197MOL0     C26487   3.468  10.404   2.718 -0.7266  0.2828  0.1129
  197MOL0     C26488   3.470  10.291   2.796 -0.1778  0.2493 -0.7498
  197MOL0     C26489   3.601  10.217   2.816 -0.1214 -0.4385  0.1941
  197MOL0     O26490   3.715  10.281   2.766  0.0814  0.3986  0.2155
  197MOL0     C26491   3.834  10.214   2.789 -0.6719 -0.5205  0.1359
  197MOL0     C26492   3.931  10.182   2.694 -0.0757  1.5617 -0.7623
  197MOL0     C26493   4.055  10.135   2.725  0.5083 -0.4073  0.2596
  197MOL0     C26494   4.081  10.115   2.860  0.4584 -0.1135  0.1888
  197MOL0     O26495   4.204  10.063   2.878 -0.2651 -0.4282 -0.2208
  197MOL0     C26496   4.258  10.056   3.008 -0.3168  0.3767 -0.2783
  197MOL0     C26497   4.403  10.003   3.012 -0.1413 -0.0069  0.7240
  197MOL0     C26498   4.470  10.016   3.154  0.6754 -0.6517 -0.9692
  197MOL0     C26499   4.615   9.974   3.154 -1.0278  0.6859 -0.5199
  197MOL0     C26500   4.692  10.015   3.279  0.7277  0.2720  0.4187
  197MOL0     C26501   4.844   9.988   3.255 -0.1899  1.1546 -0.1539
  197MOL0     C26502   4.925  10.041   3.376  0.9301  0.0028  0.1948
  197MOL0     C26503   5.068   9.975   3.395 -0.0152 -0.3487 -0.4653
  197MOL0    Cl26504   5.186  10.041   3.295 -0.0783  0.1497  0.3602
  197MOL0     C26505   3.986  10.134   2.959  0.9793  0.8465 -0.2588
  197MOL0     C26506   3.864  10.187   2.924 -0.1846 -0.5530 -0.4325
  197MOL0     O26507   3.596  10.106   2.867 -0.3877  0.1426 -0.3259
  197MOL0     C26508   3.360  10.270   2.871 -0.1975  0.1695 -0.3049
  197MOL0     C26509   3.247  10.350   2.863  0.5611 -0.5879 -0.5117
  197MOL0     N26510   2.660  10.420   3.235 -0.5911  0.0071  0.1970
  197MOL0     N26511   2.537  10.380   3.227  0.0668  1.3315  0.3827
  197MOL0     C26512   1.507  10.226   3.763  0.0877 -1.0655  0.2006
  197MOL0     C26513   1.370  10.224   3.751  0.3490 -0.0558  0.9058
  197MOL0     C26514   0.929  10.390   3.613 -0.4665  0.0283  0.0753
  197MOL0     C26515   0.871  10.302   3.700 -0.4193 -0.9872 -0.5146
  197MOL0     C26516   0.737  10.306   3.732  0.7977 -0.3667  0.1105
  197MOL0     C26517   0.652  10.402   3.677 -0.6749  0.1297 -0.2674
  197MOL0     O26518   0.523  10.405   3.714 -0.6974 -0.0941 -0.0587
  197MOL0     C26519   0.474  10.308   3.809 -0.4191  0.3087 -0.7533
  197MOL0     C26520   0.321  10.305   3.823 -0.2731 -0.8314 -0.1159
  197MOL0     C26521   0.277  10.434   3.896 -0.3267  1.1846  0.3975
  197MOL0     C26522   0.143  10.467   3.842  0.7744  0.5053  0.5340
  197MOL0     C26523   0.078  10.574   3.926  0.3560 -0.2280 -0.6669
  197MOL0     C26524   0.039  10.644   4.018  0.0598  0.1376 -0.2767
  197MOL0     C26525   0.705  10.492   3.580  0.0318 -0.1324 -0.2775
  197MOL0     C26526   0.842  10.487   3.545 -0.1631  0.0126 -0.2868
  197MOL0     C26527   0.891  10.593   3.444 -0.5297 -0.3095  0.0122
  197MOL0     H26528   1.323  10.531   3.628  1.1860 -0.2267  0.8930
  197MOL0     H26529   1.569  10.527   3.640  3.4451 -1.8596  0.4554
  197MOL0     H26530   1.782  10.513   3.676 -3.4346 -0.6205 -0.5303
  197MOL0     H26531   1.893  10.408   3.768  0.6764 -1.5177 -0.5741
  197MOL0     H26532   1.803  10.391   3.481  0.5977 -0.2192  0.4054
  197MOL0     H26533   1.848  10.238   3.569 -0.0922  0.2856  3.1099
  197MOL0     H26534   2.020  10.310   3.432 -0.1125 -2.9453  1.2554
  197MOL0     H26535   2.068  10.326   3.603 -1.4431 -0.3227  0.2361
  197MOL0     H26536   1.992  10.564   3.418 -0.6851  2.3310  1.2806
  197MOL0     H26537   1.996  10.576   3.585 -2.5774 -1.7464 -0.2898
  197MOL0     H26538   2.196  10.669   3.488 -0.9399  1.1693  2.1800
  197MOL0     H26539   2.233  10.524   3.594  1.7279  0.8820 -0.6283
  197MOL0     H26540   2.366  10.498   3.414  0.5985  3.0396  0.6448
  197MOL0     H26541   2.246  10.376   3.393  0.3926  0.3032 -0.4016
  197MOL0     H26542   2.252  10.649   3.244  1.3119 -0.3493 -2.0792
  197MOL0     H26543   2.124  10.527   3.221 -0.1522 -2.4320  2.6729
  197MOL0     H26544   2.302  10.365   3.149  2.5213 -0.6614 -1.0065
  197MOL0     H26545   2.315  10.506   3.049  1.6498 -1.8293 -0.4802
  197MOL0     H26546   2.525  10.684   3.098 -1.8120 -0.1199  0.3140
  197MOL0     H26547   2.793  10.691   3.092  3.7687  0.6597  0.3486
  197MOL0     H26548   2.884  10.586   3.176 -0.7952  2.0762 -0.2175
  197MOL0     H26549   2.843  10.412   2.987  1.3026  0.8687 -0.0581
  197MOL0     H26550   2.768  10.532   2.895  0.9909 -0.4179 -2.0086
  197MOL0     H26551   3.065  10.543   2.989  1.8760  1.4797 -1.0693
  197MOL0     H26552   2.969  10.673   2.917 -1.5208 -0.0794  2.8373
  197MOL0     H26553   2.949  10.570   2.725  0.3027 -0.0443 -0.0494
  197MOL0     H26554   2.999  10.407   2.775 -1.6598  0.7000 -0.7758
  197MOL0     H26555   3.357  10.563   2.621  4.8596 -0.6613 -1.0621
  197MOL0     H26556   3.558  10.429   2.664 -0.8017 -3.1353 -1.8798
  197MOL0     H26557   3.909  10.204   2.589 -2.2248  2.7685 -0.1293
  197MOL0     H26558   4.132  10.134   2.648  2.0125 -1.4068  1.7135
  197MOL0     H26559   4.262  10.154   3.056 -0.5632  1.7643 -2.9253
  197MOL0     H26560   4.186  10.000   3.069 -0.5358  0.5776 -0.3497
  197MOL0     H26561   4.400   9.894   2.997  0.8193 -0.3476  2.6060
  197MOL0     H26562   4.462  10.053   2.936  1.3288 -0.7362  1.3354
  197MOL0     H26563   4.470  10.122   3.183  3.0038 -0.7270 -0.4427
  197MOL0     H26564   4.429   9.952   3.232  0.1681  0.8119  0.0143
  197MOL0     H26565   4.657  10.017   3.063 -1.0652 -1.5019 -1.6560
  197MOL0     H26566   4.622   9.866   3.137 -2.3739  0.6654 -1.0880
  197MOL0     H26567   4.649   9.973   3.371 -0.4728  2.0612  0.7303
  197MOL0     H26568   4.677  10.123   3.293  0.3924  0.0624  1.8187
  197MOL0     H26569   4.857   9.883   3.227 -3.0751  0.2552  1.4800
  197MOL0     H26570   4.863  10.051   3.167  1.3517  0.1823 -0.5653
  197MOL0     H26571   4.863  10.009   3.461  0.9915  1.2478  0.7213
  197MOL0     H26572   4.917  10.150   3.372  0.7042 -0.0321 -0.4717
  197MOL0     H26573   5.107   9.993   3.495 -0.9683 -1.9637  0.2408
  197MOL0     H26574   5.070   9.868   3.372 -1.5717 -0.6581  0.6404
  197MOL0     H26575   4.008  10.085   3.053 -1.1100 -0.6637 -0.4852
  197MOL0     H26576   3.800  10.223   3.003  0.7082 -1.5165  0.7845
  197MOL0     H26577   3.371  10.180   2.931  2.6542  1.7940  1.8798
  197MOL0     H26578   3.165  10.340   2.933  1.2789  0.1537  0.4748
  197MOL0     H26579   1.552  10.155   3.833 -0.6974 -1.7499  0.0217
  197MOL0     H26580   1.317  10.139   3.792  1.0086 -2.2075 -2.3331
  197MOL0     H26581   0.926  10.225   3.754  2.8870  2.7250  1.9063
  197MOL0     H26582   0.704  10.227   3.799 -1.5208  0.4311 -0.0021
  197MOL0     H26583   0.514  10.332   3.908  1.5085 -1.3153 -1.0651
  197MOL0     H26584   0.509  10.209   3.779 -1.2632 -0.3354  0.2910
  197MOL0     H26585   0.300  10.220   3.889  2.3305 -1.3933  0.1000
  197MOL0     H26586   0.271  10.309   3.726 -0.4986  4.3529 -0.0215
  197MOL0     H26587   0.344  10.519   3.880  3.3225 -1.1733  1.8758
  197MOL0     H26588   0.266  10.408   4.001 -3.7025  0.4960 -0.0147
  197MOL0     H26589   0.158  10.512   3.744 -0.0166  0.8128  0.5443
  197MOL0     H26590   0.080  10.378   3.829  0.3899  1.1014 -2.5460
  197MOL0     H26591  -0.014  10.694   4.096  0.3035 -2.4625  1.7218
  197MOL0     H26592   0.643  10.572   3.540  0.9902  0.1318 -1.3056
  197MOL0     H26593   0.907  10.539   3.350  1.8680  0.1187  0.0995
  197MOL0     H26594   0.820  10.675   3.431  0.9220  1.9635  4.4349
  197MOL0     H26595   0.986  10.637   3.477 -1.3643  1.4125  0.2342
  198MOL0     O26596   3.043   4.052   9.160 -0.1990  0.2116  0.4516
  198MOL0     C26597   3.115   4.046   9.260  0.0496  0.7608 -0.6498
  198MOL0     O26598   3.256   4.085   9.273  0.0037 -0.7261 -0.4768
  198MOL0     C26599   3.314   4.153   9.168  0.4853  1.2310 -0.4098
  198MOL0     C26600   3.304   4.293   9.152  0.4362 -0.2627  0.4484
  198MOL0     C26601   3.363   4.358   9.042 -0.7120  1.2951  0.5222
  198MOL0     C26602   3.429   4.281   8.951 -0.6177  1.5564 -0.2517
  198MOL0     O26603   3.505   4.328   8.853  0.8361  0.3241 -0.2806
  198MOL0     C26604   3.417   4.380   8.744 -0.3929 -0.2141 -0.7701
  198MOL0     C26605   3.500   4.450   8.640  0.5281 -0.4545 -0.3683
  198MOL0     C26606   3.578   4.572   8.691  0.6072 -0.2593  0.1139
  198MOL0     C26607   3.496   4.697   8.720  0.1531  0.1047  0.1574
  198MOL0     C26608   3.588   4.808   8.761 -0.1977 -0.0842  0.2183
  198MOL0     C26609   3.670   4.867   8.640  0.0886  0.1989  0.0109
  198MOL0     C26610   3.752   4.992   8.678 -0.1354 -0.4791 -0.0064
  198MOL0     C26611   3.812   5.063   8.555  0.3792 -0.6690 -0.0146
  198MOL0     N26612   3.919   5.155   8.573 -1.0608 -0.8234 -0.4249
  198MOL0     C26613   3.922   5.237   8.673 -1.3156  0.3605 -0.8548
  198MOL0     C26614   4.050   5.267   8.712  0.7508 -0.3215 -0.5306
  198MOL0     C26615   4.102   5.350   8.830  0.0716 -0.0682  0.2536
  198MOL0     C26616   4.257   5.374   8.842  0.5682 -0.3198 -0.2327
  198MOL0     C26617   4.298   5.483   8.947 -1.1244 -0.0366 -0.2074
  198MOL0     C26618   4.449   5.541   8.923 -0.1173  0.2706  0.3491
  198MOL0     O26619   4.536   5.482   9.016  0.0792 -0.6178 -0.2986
  198MOL0     C26620   4.660   5.537   9.003  0.4409 -0.5051 -0.5165
  198MOL0     C26621   4.763   5.457   9.060 -0.5385  0.0316 -0.0464
  198MOL0     C26622   4.896   5.491   9.048  0.0855 -0.6522 -0.6249
  198MOL0     C26623   4.932   5.613   8.995  1.1070  0.5392  0.0468
  198MOL0     C26624   5.074   5.657   9.006 -0.2526  0.8397  0.9820
  198MOL0     O26625   5.113   5.764   8.930 -0.0909 -0.3831  0.3249
  198MOL0     C26626   5.247   5.797   8.921  1.3133 -1.1431  0.1030
  198MOL0     C26627   5.287   5.801   8.792 -0.4416  0.2309 -0.0640
  198MOL0     C26628   5.418   5.814   8.756  0.0209 -0.0497  0.0641
  198MOL0     C26629   5.519   5.843   8.858  1.2814  0.3076  0.2208
  198MOL0     O26630   5.650   5.878   8.828  0.5288 -0.1388  0.4544
  198MOL0     C26631   5.720   5.774   8.755 -0.3113 -0.0787  0.8264
  198MOL0     C26632   5.870   5.799   8.773 -0.2107 -0.1700  0.0231
  198MOL0     C26633   5.927   5.775   8.914 -0.5844 -0.1904 -0.7588
  198MOL0     C26634   5.912   5.895   9.013 -0.1623 -0.8697  0.7699
  198MOL0     C26635   5.961   5.839   9.153  1.1331 -1.0693 -0.0242
  198MOL0     C26636   5.968   5.967   9.239  0.8299  0.8312 -0.7345
  198MOL0     C26637   6.045   5.934   9.374 -0.4879 -0.6595 -0.2510
  198MOL0     C26638   6.030   6.054   9.465 -0.4600 -0.4871 -0.0628
  198MOL0    Cl26639   6.114   6.188   9.388 -0.3102  0.0941 -0.3851
  198MOL0     C26640   5.470   5.840   8.990  0.0012 -0.7349 -0.3616
  198MOL0     C26641   5.334   5.820   9.023  0.1031  0.7861 -0.4848
  198MOL0     O26642   5.150   5.578   9.069  0.1627 -0.0549  0.0293
  198MOL0     C26643   4.833   5.683   8.927  0.7732 -0.5048  0.5587
  198MOL0     C26644   4.700   5.656   8.944 -0.2351 -0.5654 -0.6567
  198MOL0     N26645   4.138   5.202   8.631 -0.4331 -0.0096 -0.2034
  198MOL0     N26646   4.058   5.150   8.538 -0.3580  0.1024 -0.2476
  198MOL0     C26647   3.424   4.141   8.965 -0.2894  0.2628  0.2610
  198MOL0     C26648   3.364   4.078   9.071  0.9375  0.9376 -0.2402
  198MOL0     C26649   3.052   4.016   9.398 -0.1956  0.4323 -0.4164
  198MOL0     C26650   3.057   4.127   9.484  0.1781  0.3832  0.1278
  198MOL0     C26651   3.007   4.118   9.613 -0.1565  1.0353 -0.6057
  198MOL0     C26652   2.952   3.994   9.656 -1.1450 -0.2297  1.0637
  198MOL0     O26653   2.898   4.005   9.786  0.1157 -0.0082  0.9006
  198MOL0     C26654   2.789   3.922   9.819  0.2391 -0.4231 -0.5025
  198MOL0     C26655   2.688   4.011   9.890  1.0150 -0.1163 -0.4463
  198MOL0     C26656   2.589   3.931   9.983 -0.2173  0.2377  0.1455
  198MOL0     C26657   2.627   3.928  10.129  1.0228  0.0700  0.4207
  198MOL0     C26658   2.729   3.833  10.136 -0.4377  0.0826 -0.6291
  198MOL0     C26659   2.813   3.750  10.165  0.0157 -0.1319 -0.2046
  198MOL0     C26660   2.935   3.889   9.562 -0.2627 -0.3294 -0.0592
  198MOL0     C26661   2.991   3.892   9.433  0.3727 -0.1033  0.7592
  198MOL0     C26662   2.990   3.779   9.330 -0.9402 -0.0624 -1.0050
  198MOL0     H26663   3.252   4.349   9.229 -0.3250  0.3702 -0.4969
  198MOL0     H26664   3.339   4.463   9.030 -2.3472  0.8999  0.0609
  198MOL0     H26665   3.349   4.303   8.706 -3.9406  0.5273  3.3597
  198MOL0     H26666   3.354   4.460   8.783  2.8898  3.0576 -1.7046
  198MOL0     H26667   3.444   4.490   8.554  2.1167  2.2483 -0.2391
  198MOL0     H26668   3.573   4.378   8.602  1.8908  1.4005 -1.4143
  198MOL0     H26669   3.656   4.583   8.615 -2.1845 -0.3463 -2.9888
  198MOL0     H26670   3.629   4.541   8.782 -1.2468 -1.2499  0.8689
  198MOL0     H26671   3.436   4.731   8.636  1.1206  3.3196  0.6634
  198MOL0     H26672   3.427   4.670   8.802 -0.1026  0.6253  0.1155
  198MOL0     H26673   3.545   4.890   8.820  3.6786  0.9465  1.9605
  198MOL0     H26674   3.664   4.761   8.825 -1.5619 -0.1013  1.8900
  198MOL0     H26675   3.722   4.786   8.589  0.5941  0.4579  0.0983
  198MOL0     H26676   3.599   4.910   8.569 -0.1005 -2.0561 -1.2538
  198MOL0     H26677   3.836   4.969   8.745 -0.0033  2.6424  1.0261
  198MOL0     H26678   3.682   5.063   8.722  1.0143  0.7232 -0.0412
  198MOL0     H26679   3.853   4.987   8.487  0.4927 -1.7170  1.1848
  198MOL0     H26680   3.736   5.121   8.502  1.0277 -0.7408 -1.0627
  198MOL0     H26681   3.835   5.258   8.735 -1.4747 -1.6919 -0.3064
  198MOL0     H26682   4.049   5.446   8.830  0.2345  0.0235  0.0689
  198MOL0     H26683   4.083   5.295   8.922  0.9185 -3.6613 -1.5542
  198MOL0     H26684   4.312   5.281   8.859 -0.7532 -1.0474  0.2983
  198MOL0     H26685   4.281   5.420   8.746 -2.6318  1.5564 -0.2964
  198MOL0     H26686   4.300   5.449   9.051  2.2609  1.8201  0.5021
  198MOL0     H26687   4.225   5.565   8.941 -1.7961 -0.6563 -0.7768
  198MOL0     H26688   4.445   5.648   8.943  1.5306  0.4676 -0.2373
  198MOL0     H26689   4.474   5.532   8.817 -1.3577  3.4669 -0.3117
  198MOL0     H26690   4.747   5.363   9.112  3.5630 -1.3875 -0.9728
  198MOL0     H26691   4.974   5.422   9.080  0.2247 -1.4063 -2.5063
  198MOL0     H26692   5.207   5.786   8.720 -1.6389 -1.9221  1.6247
  198MOL0     H26693   5.446   5.817   8.651  1.8598  1.2555  0.5410
  198MOL0     H26694   5.700   5.677   8.800  2.9951 -0.1900  2.3380
  198MOL0     H26695   5.696   5.776   8.648 -0.1952  0.9775  0.8067
  198MOL0     H26696   5.928   5.738   8.703  1.1515 -0.1645  1.0966
  198MOL0     H26697   5.891   5.902   8.741 -1.0563 -0.8095 -2.8695
  198MOL0     H26698   5.885   5.688   8.966  0.8085  0.5273  1.7306
  198MOL0     H26699   6.036   5.766   8.908 -0.2926  2.0653  0.1766
  198MOL0     H26700   5.806   5.918   9.021 -0.4256 -0.4349 -2.4988
  198MOL0     H26701   5.964   5.980   8.968  2.6656 -2.9812 -0.2535
  198MOL0     H26702   6.053   5.779   9.149  2.1139  0.4566 -1.9071
  198MOL0     H26703   5.886   5.772   9.196  1.4549  0.3672  3.0826
  198MOL0     H26704   6.017   6.047   9.183 -1.6531  2.1659 -1.1114
  198MOL0     H26705   5.865   5.995   9.260 -0.3042 -2.9412 -0.5384
  198MOL0     H26706   6.148   5.908   9.350  0.0079  2.5869 -2.2675
  198MOL0     H26707   5.990   5.851   9.420 -0.0995 -0.5306  0.4574
  198MOL0     H26708   5.925   6.080   9.478 -0.4262 -0.8130  0.9160
  198MOL0     H26709   6.079   6.039   9.561 -0.2730  1.2816  0.1450
  198MOL0     H26710   5.536   5.863   9.073  0.3018 -0.6329 -0.6283
  198MOL0     H26711   5.311   5.827   9.129  0.6432  2.4105 -0.4525
  198MOL0     H26712   4.842   5.776   8.872 -0.8178  0.6487  2.1221
  198MOL0     H26713   4.625   5.721   8.899  0.2602  0.4492 -0.0737
  198MOL0     H26714   3.477   4.077   8.896  0.7059  2.3535 -1.0110
  198MOL0     H26715   3.382   3.973   9.091 -0.7841  0.9693  1.9030
  198MOL0     H26716   3.096   4.222   9.449  0.4269  0.8218  1.5261
  198MOL0     H26717   3.009   4.188   9.695 -3.0870  1.3901 -0.7400
  198MOL0     H26718   2.824   3.843   9.886 -2.8425 -1.8067 -0.3828
  198MOL0     H26719   2.741   3.879   9.731  1.3080  1.4992 -2.1076
  198MOL0     H26720   2.634   4.067   9.813  0.8341 -0.1133 -0.3171
  198MOL0     H26721   2.745   4.086   9.946 -2.0440  1.1652  1.1581
  198MOL0     H26722   2.576   3.829   9.945 -3.0148 -0.1178  1.8324
  198MOL0     H26723   2.488   3.973   9.977  0.8547  2.8372 -3.1578
  198MOL0     H26724   2.643   4.030  10.164 -0.6379 -0.4480  2.9775
  198MOL0     H26725   2.540   3.893  10.186  0.1828  0.3378 -0.6562
  198MOL0     H26726   2.881   3.670  10.187  1.6480  1.5242  1.0842
  198MOL0     H26727   2.896   3.791   9.589  2.3335 -0.8243  2.4499
  198MOL0     H26728   2.908   3.708   9.341 -1.5648  0.2869 -2.9471
  198MOL0     H26729   2.985   3.815   9.227 -1.7702  0.2322 -0.8674
  198MOL0     H26730   3.083   3.725   9.348 -2.8838 -2.6557  2.5407
  199MOL0     O26731   8.933   8.766   1.516  0.0742 -0.1017 -0.3955
  199MOL0     C26732   8.959   8.678   1.597  0.2979 -0.8258 -0.2445
  199MOL0     O26733   9.089   8.633   1.622  0.7661 -0.9541  0.0350
  199MOL0     C26734   9.203   8.679   1.554 -0.3010  0.3790 -0.2812
  199MOL0     C26735   9.216   8.699   1.414  0.0910  0.3873 -0.3130
  199MOL0     C26736   9.331   8.740   1.340  1.1051  0.9209 -0.5947
  199MOL0     C26737   9.442   8.754   1.419 -0.4762  0.4417  0.5366
  199MOL0     O26738   9.556   8.803   1.364  0.0744 -0.5559 -0.3763
  199MOL0     C26739   9.587   8.755   1.229 -0.5266 -0.2411  0.2393
  199MOL0     C26740   9.739   8.746   1.209 -0.3472 -0.5146 -0.0994
  199MOL0     C26741   9.795   8.644   1.309 -0.5907  0.5511 -0.2825
  199MOL0     C26742   9.937   8.628   1.280 -0.3148 -0.0200 -0.1308
  199MOL0     C26743  10.011   8.554   1.393 -0.0328 -0.8073  0.2716
  199MOL0     C26744   9.966   8.405   1.396 -0.6853 -0.4029  0.6403
  199MOL0     C26745  10.001   8.339   1.264  0.0106 -0.2338  0.2372
  199MOL0     C26746  10.043   8.183   1.274  0.3714  0.3415  0.3963
  199MOL0     N26747  10.104   8.124   1.152 -0.9001 -0.5040  0.2691
  199MOL0     C26748  10.239   8.142   1.118 -0.8474 -0.7094 -0.0774
  199MOL0     C26749  10.255   8.075   0.998  0.5348  0.5407  0.1394
  199MOL0     C26750  10.375   8.062   0.915  0.1959  0.0997  0.1183
  199MOL0     C26751  10.402   7.910   0.882  0.1714 -0.4108 -0.4550
  199MOL0     C26752  10.514   7.895   0.772  0.6364  0.4755  0.2790
  199MOL0     C26753  10.650   7.941   0.822 -0.0396  0.5337 -0.3312
  199MOL0     O26754  10.682   7.894   0.955  0.1595 -0.3429 -0.1015
  199MOL0     C26755  10.800   7.818   0.952  0.1130 -0.0422  0.3676
  199MOL0     C26756  10.809   7.701   1.031  1.0538  0.5584  0.5093
  199MOL0     C26757  10.911   7.608   1.021  0.0216  0.5136 -0.4990
  199MOL0     C26758  11.022   7.644   0.944 -0.2882 -0.7031  0.2607
  199MOL0     C26759  11.133   7.547   0.920 -0.1766  0.2273  0.1560
  199MOL0     O26760  11.244   7.582   0.842 -0.1325 -0.3418  0.1692
  199MOL0     C26761  11.308   7.471   0.797  0.4125 -0.2728  0.4559
  199MOL0     C26762  11.264   7.412   0.682  0.3394  0.0205 -0.3715
  199MOL0     C26763  11.320   7.300   0.629 -0.7515  0.6128 -0.8835
  199MOL0     C26764  11.417   7.232   0.693 -0.9450  0.8492 -0.1757
  199MOL0     O26765  11.444   7.103   0.663 -0.6716 -0.0397 -0.1493
  199MOL0     C26766  11.496   7.086   0.527  0.1385 -0.4818 -1.0523
  199MOL0     C26767  11.661   7.063   0.527  0.9590 -0.3682 -0.1886
  199MOL0     C26768  11.690   6.939   0.614  0.3959  0.5201 -0.1390
  199MOL0     C26769  11.834   6.900   0.597  0.4769 -0.4847 -1.2455
  199MOL0     C26770  11.880   6.780   0.681 -0.2594 -0.4825  0.7828
  199MOL0     C26771  12.030   6.753   0.669  0.1573 -0.2319 -0.2543
  199MOL0     C26772  12.109   6.872   0.722  0.4401 -0.4318  0.2361
  199MOL0     C26773  12.245   6.819   0.756  0.2758  1.0579 -0.4371
  199MOL0    Cl26774  12.243   6.701   0.894  0.5700 -0.2158  0.0798
  199MOL0     C26775  11.469   7.291   0.809 -0.1890 -0.2904  0.0462
  199MOL0     C26776  11.422   7.416   0.850 -0.4410 -0.4367 -0.6827
  199MOL0     O26777  11.110   7.434   0.962  0.0420  0.4770  0.2904
  199MOL0     C26778  11.026   7.766   0.880 -0.1149 -1.0571 -0.7389
  199MOL0     C26779  10.914   7.849   0.881 -0.6438  0.4550  0.5426
  199MOL0     N26780  10.130   8.037   0.954 -0.3202 -0.5543 -0.6859
  199MOL0     N26781  10.043   8.051   1.052  0.3959  0.1442  0.7267
  199MOL0     C26782   9.439   8.727   1.557  0.2036 -0.4224  0.0370
  199MOL0     C26783   9.320   8.698   1.629  0.4541  1.0669  0.0209
  199MOL0     C26784   8.845   8.615   1.663  0.6903 -0.1582 -0.6981
  199MOL0     C26785   8.863   8.479   1.683 -0.0058 -0.3405 -0.2245
  199MOL0     C26786   8.756   8.387   1.702  0.0729 -0.0638 -0.5715
  199MOL0     C26787   8.619   8.436   1.717  0.6535 -0.0016 -0.6496
  199MOL0     O26788   8.519   8.342   1.745 -0.3015 -0.3692 -0.3913
  199MOL0     C26789   8.387   8.388   1.744  0.1956  0.0678  0.2957
  199MOL0     C26790   8.298   8.254   1.725 -0.3317 -1.0008  0.7865
  199MOL0     C26791   8.299   8.166   1.852  0.2305  0.1031 -0.2282
  199MOL0     C26792   8.221   8.216   1.979 -0.9051 -0.0366  0.7385
  199MOL0     C26793   8.078   8.235   1.946  0.1042  0.5024  0.2321
  199MOL0     C26794   7.963   8.253   1.918  1.1417  0.1750  0.1859
  199MOL0     C26795   8.603   8.573   1.714 -0.9471 -1.2997  0.4059
  199MOL0     C26796   8.714   8.662   1.680 -0.2724  0.2280 -0.1102
  199MOL0     C26797   8.671   8.800   1.652  0.0395 -0.3989  0.3217
  199MOL0     H26798   9.129   8.683   1.350 -0.6018  0.8177  0.4971
  199MOL0     H26799   9.320   8.763   1.234 -2.6581 -0.2962 -0.5987
  199MOL0     H26800   9.562   8.648   1.228  1.8011 -0.8375  0.1030
  199MOL0     H26801   9.532   8.812   1.154  1.2014  0.0784 -0.8447
  199MOL0     H26802   9.795   8.839   1.224  2.1058 -2.0507  0.8864
  199MOL0     H26803   9.770   8.721   1.108  2.2818  5.3230 -1.2056
  199MOL0     H26804   9.755   8.542   1.304  2.7721 -0.9807  1.0345
  199MOL0     H26805   9.780   8.689   1.407 -1.6021 -1.6218  0.6102
  199MOL0     H26806   9.952   8.591   1.178 -1.6191 -0.8376 -0.0496
  199MOL0     H26807   9.985   8.726   1.289  2.3921 -1.2244 -0.3897
  199MOL0     H26808  10.119   8.563   1.383  0.0358 -2.3778 -0.7850
  199MOL0     H26809   9.990   8.593   1.493 -2.7152 -0.5369 -0.3026
  199MOL0     H26810  10.021   8.361   1.479  0.2027  0.9439  0.7930
  199MOL0     H26811   9.858   8.403   1.416 -0.6166 -1.8555  1.0332
  199MOL0     H26812  10.091   8.383   1.219 -0.7833 -0.4914 -1.6958
  199MOL0     H26813   9.924   8.363   1.190  1.6984 -0.0544 -1.5465
  199MOL0     H26814  10.120   8.165   1.349 -1.5589 -2.4868  1.8562
  199MOL0     H26815   9.956   8.125   1.305 -0.7230  1.9787  0.5141
  199MOL0     H26816  10.320   8.199   1.161  1.4031 -1.3748 -3.0709
  199MOL0     H26817  10.361   8.112   0.819  2.3517  2.2496  0.8224
  199MOL0     H26818  10.455   8.111   0.972  2.1305 -1.4055 -1.1929
  199MOL0     H26819  10.441   7.871   0.976  0.2623  1.8752  0.5167
  199MOL0     H26820  10.312   7.853   0.856 -0.0302  0.2914 -1.3586
  199MOL0     H26821  10.486   7.948   0.681 -0.7711  1.0778  1.0452
  199MOL0     H26822  10.530   7.790   0.746  0.2609  0.7548 -1.1545
  199MOL0     H26823  10.660   8.050   0.833  0.4966  0.6776 -1.9891
  199MOL0     H26824  10.723   7.928   0.742  0.7183 -0.4154  0.4892
  199MOL0     H26825  10.720   7.687   1.091  1.6682  0.1617  1.3579
  199MOL0     H26826  10.895   7.518   1.079  1.2783  0.3432 -0.3830
  199MOL0     H26827  11.175   7.451   0.633  1.0103  0.4783 -1.2543
  199MOL0     H26828  11.268   7.248   0.550 -3.2262  2.7812 -0.8013
  199MOL0     H26829  11.451   7.000   0.477 -1.7492  1.5408 -3.1262
  199MOL0     H26830  11.470   7.169   0.460 -2.1130  1.3248  1.7910
  199MOL0     H26831  11.687   7.048   0.422 -0.9782  0.7717 -0.8882
  199MOL0     H26832  11.717   7.152   0.559  0.5825 -0.7733  1.7428
  199MOL0     H26833  11.667   6.958   0.719  2.8719  2.0119  0.2033
  199MOL0     H26834  11.621   6.858   0.588  1.4826 -0.4862  0.0260
  199MOL0     H26835  11.897   6.984   0.627 -3.1039  1.4977  1.4379
  199MOL0     H26836  11.837   6.881   0.489  0.1097 -0.4159 -1.2697
  199MOL0     H26837  11.826   6.688   0.657  1.9075 -1.0825 -2.4493
  199MOL0     H26838  11.848   6.807   0.782  0.7878  2.4427  0.4118
  199MOL0     H26839  12.055   6.661   0.721  3.6293 -0.0612 -1.3880
  199MOL0     H26840  12.062   6.735   0.566 -1.8351 -0.3065 -0.9168
  199MOL0     H26841  12.072   6.917   0.815 -1.9752  2.4564 -1.9280
  199MOL0     H26842  12.121   6.944   0.641  3.2190 -3.7832 -2.6887
  199MOL0     H26843  12.284   6.772   0.665  0.5459  0.0791  0.1621
  199MOL0     H26844  12.299   6.911   0.781  0.1247  0.9562  0.3002
  199MOL0     H26845  11.542   7.234   0.865  0.6599  0.1018 -0.6284
  199MOL0     H26846  11.469   7.448   0.942  1.9633 -2.8141 -0.9574
  199MOL0     H26847  11.113   7.789   0.819 -1.9689  1.6415 -2.5946
  199MOL0     H26848  10.913   7.933   0.813 -0.1318  0.0754  0.0556
  199MOL0     H26849   9.533   8.728   1.612  0.1773  2.5646  0.1678
  199MOL0     H26850   9.325   8.664   1.731  1.1870  0.6657 -0.1388
  199MOL0     H26851   8.963   8.437   1.678  1.0444  1.7466  1.4721
  199MOL0     H26852   8.772   8.281   1.720 -0.6657  0.1669  1.8163
  199MOL0     H26853   8.366   8.460   1.664 -3.9525 -1.1051  0.0961
  199MOL0     H26854   8.364   8.439   1.837 -2.9580  2.5731 -1.6468
  199MOL0     H26855   8.329   8.195   1.638 -1.9884  2.1242 -2.1880
  199MOL0     H26856   8.198   8.289   1.696 -0.4396 -2.3926 -0.6594
  199MOL0     H26857   8.404   8.162   1.880 -0.2429 -1.5697  1.5373
  199MOL0     H26858   8.267   8.063   1.835  0.5331 -1.0302  4.6263
  199MOL0     H26859   8.224   8.149   2.065  2.0837 -0.5750  0.3244
  199MOL0     H26860   8.270   8.310   2.004  1.5676  0.0916 -3.4808
  199MOL0     H26861   7.858   8.269   1.900  1.1520 -1.8253 -2.2286
  199MOL0     H26862   8.506   8.616   1.739 -0.2561  0.2822  0.4703
  199MOL0     H26863   8.569   8.822   1.686 -1.0817 -1.8375 -1.8500
  199MOL0     H26864   8.731   8.877   1.702 -0.2139 -1.5074  2.4488
  199MOL0     H26865   8.673   8.799   1.543 -2.6932  2.6132  0.0766
  200MOL0     O26866   4.541  10.063   1.329 -0.2286  0.1127 -0.6010
  200MOL0     C26867   4.502  10.168   1.371  0.7247 -1.0803  0.2714
  200MOL0     O26868   4.576  10.260   1.444 -0.5649  0.6167 -0.2195
  200MOL0     C26869   4.698  10.214   1.488 -0.5051 -0.5935  0.4643
  200MOL0     C26870   4.704  10.091   1.560 -1.0895 -0.3278  0.2819
  200MOL0     C26871   4.828  10.023   1.583 -0.0592  0.0237  0.8471
  200MOL0     C26872   4.949  10.088   1.554 -0.0865 -0.3618  0.6116
  200MOL0     O26873   5.058  10.019   1.591 -0.1776 -0.0980  0.2923
  200MOL0     C26874   5.184  10.031   1.514  0.3011 -0.1357  0.8240
  200MOL0     C26875   5.279   9.924   1.565  0.0400  0.0728  0.8008
  200MOL0     C26876   5.223   9.783   1.545 -0.5839 -0.0343 -0.1462
  200MOL0     C26877   5.321   9.670   1.578 -0.0873  0.2027 -0.0212
  200MOL0     C26878   5.371   9.670   1.731 -0.2468  0.3261  0.4682
  200MOL0     C26879   5.468   9.546   1.767  0.5710  0.7174 -0.5788
  200MOL0     C26880   5.511   9.555   1.916 -0.3025 -0.4402  0.8246
  200MOL0     C26881   5.587   9.679   1.944 -0.2655  1.2805 -0.2322
  200MOL0     N26882   5.662   9.666   2.073  0.7149 -0.5806  0.2752
  200MOL0     C26883   5.787   9.615   2.079  0.7700 -0.0258 -1.2540
  200MOL0     C26884   5.803   9.588   2.217  0.4841  1.2002  0.0105
  200MOL0     C26885   5.924   9.514   2.270  0.2890 -0.6111  0.2214
  200MOL0     C26886   6.011   9.604   2.356  0.9205  0.2635 -0.8753
  200MOL0     C26887   6.120   9.530   2.436 -0.9263 -0.6348 -0.1177
  200MOL0     C26888   6.229   9.458   2.349  0.6262 -0.4623  0.2754
  200MOL0     O26889   6.330   9.397   2.435  0.4741  0.1138  0.7034
  200MOL0     C26890   6.426   9.472   2.500 -0.6193 -0.1099 -0.9445
  200MOL0     C26891   6.446   9.606   2.467  0.2559  0.6093 -0.3529
  200MOL0     C26892   6.547   9.681   2.533 -0.4796 -1.0631 -0.3844
  200MOL0     C26893   6.631   9.627   2.636  0.5428  0.2143  0.5781
  200MOL0     C26894   6.729   9.706   2.703 -0.3092  0.1726  0.1108
  200MOL0     O26895   6.805   9.654   2.801 -0.5540 -0.7751 -0.6149
  200MOL0     C26896   6.944   9.693   2.796 -0.3512  0.2922  0.5866
  200MOL0     C26897   7.008   9.687   2.677 -0.1717  1.0282 -0.4853
  200MOL0     C26898   7.150   9.704   2.666  0.1873  0.1957  0.4670
  200MOL0     C26899   7.224   9.734   2.782  0.8607  0.5778  0.5272
  200MOL0     O26900   7.358   9.756   2.783 -0.1555 -0.0325  1.0274
  200MOL0     C26901   7.439   9.650   2.713 -0.3708  0.6242  1.0739
  200MOL0     C26902   7.576   9.641   2.770  0.2380 -0.2871  0.0728
  200MOL0     C26903   7.574   9.597   2.917  0.8167 -0.1249  0.0525
  200MOL0     C26904   7.716   9.622   2.970  0.4383 -0.3625  0.8001
  200MOL0     C26905   7.737   9.578   3.113  1.3614 -0.0924  0.3525
  200MOL0     C26906   7.724   9.428   3.140  0.4755 -0.0287 -0.0595
  200MOL0     C26907   7.714   9.394   3.293 -0.9856  0.2975  0.2479
  200MOL0     C26908   7.674   9.239   3.299  0.4966 -1.8458  0.3360
  200MOL0    Cl26909   7.687   9.187   3.471 -0.1269 -0.2510  0.1419
  200MOL0     C26910   7.162   9.739   2.902 -0.4197 -0.1746  0.2544
  200MOL0     C26911   7.024   9.717   2.906 -0.4934 -1.3800 -0.5308
  200MOL0     O26912   6.745   9.817   2.655 -0.4024  0.4086  0.0056
  200MOL0     C26913   6.613   9.489   2.663  0.3218  0.2135  0.9341
  200MOL0     C26914   6.516   9.412   2.598 -0.4060  0.5916 -0.5708
  200MOL0     N26915   5.686   9.623   2.280 -0.7930 -0.2677  0.0620
  200MOL0     N26916   5.594   9.654   2.194 -0.5742 -0.2204 -0.0824
  200MOL0     C26917   4.948  10.217   1.493  0.7825 -0.5776 -0.6302
  200MOL0     C26918   4.826  10.273   1.450  1.0938 -0.0841 -0.2846
  200MOL0     C26919   4.360  10.213   1.338  0.2463 -0.2997  0.7854
  200MOL0     C26920   4.332  10.353   1.337  0.2567  0.5420  1.2600
  200MOL0     C26921   4.207  10.412   1.298  0.3602 -0.3953 -0.1403
  200MOL0     C26922   4.105  10.327   1.262 -0.3958  0.1668 -0.9007
  200MOL0     O26923   3.987  10.378   1.208 -0.7167  0.1821 -0.3920
  200MOL0     C26924   3.873  10.350   1.288 -0.3221 -0.5327  0.4356
  200MOL0     C26925   3.790  10.469   1.317 -0.2549  0.1301 -0.6458
  200MOL0     C26926   3.729  10.542   1.194  0.1717 -0.4679 -0.3214
  200MOL0     C26927   3.588  10.591   1.214 -0.0505  0.2985  0.4626
  200MOL0     C26928   3.554  10.670   1.099 -0.5699 -0.6956  0.5845
  200MOL0     C26929   3.508  10.721   0.997 -0.2045  0.3778 -0.0638
  200MOL0     C26930   4.117  10.181   1.275 -0.0390  0.0131  0.0763
  200MOL0     C26931   4.246  10.130   1.307 -0.2922 -0.5726  0.2609
  200MOL0     C26932   4.254   9.983   1.330 -0.2931 -0.1448 -0.3913
  200MOL0     H26933   4.612  10.040   1.587 -1.6757  0.3919 -0.3386
  200MOL0     H26934   4.836   9.918   1.608 -0.1167 -0.5513 -1.3087
  200MOL0     H26935   5.170  10.026   1.405  1.1342  1.2396  0.6316
  200MOL0     H26936   5.227  10.132   1.511 -1.5518  0.6892 -0.2125
  200MOL0     H26937   5.316   9.931   1.668 -1.5666 -1.0741  1.4809
  200MOL0     H26938   5.369   9.941   1.504 -1.2907 -0.4088 -1.3961
  200MOL0     H26939   5.184   9.782   1.443 -0.7843 -2.6748 -0.1257
  200MOL0     H26940   5.141   9.776   1.618  0.5601  1.3298  1.3335
  200MOL0     H26941   5.269   9.576   1.557  0.0362  0.7238 -3.0037
  200MOL0     H26942   5.404   9.677   1.507 -0.4866 -2.0794 -0.7756
  200MOL0     H26943   5.411   9.768   1.756  2.6038 -1.0517  1.7328
  200MOL0     H26944   5.280   9.657   1.790  0.4924  0.8457  1.7615
  200MOL0     H26945   5.408   9.456   1.753 -1.0904  1.8537 -1.1145
  200MOL0     H26946   5.549   9.534   1.696 -2.5053 -0.6854 -4.1681
  200MOL0     H26947   5.582   9.472   1.922 -2.6358 -2.7184 -0.8305
  200MOL0     H26948   5.432   9.531   1.986 -0.0491 -2.4925  0.4608
  200MOL0     H26949   5.659   9.691   1.862 -0.7977 -0.1148 -0.9223
  200MOL0     H26950   5.514   9.760   1.955 -1.6661  0.1429 -0.8987
  200MOL0     H26951   5.871   9.592   2.013 -0.4400 -2.5860 -2.0437
  200MOL0     H26952   5.885   9.425   2.322 -0.2481 -0.4040  0.1788
  200MOL0     H26953   5.990   9.491   2.186 -2.4395 -1.1916 -1.9060
  200MOL0     H26954   6.036   9.696   2.303  2.2412 -0.9680 -2.5024
  200MOL0     H26955   5.938   9.640   2.429 -2.2081 -1.9483 -2.6610
  200MOL0     H26956   6.090   9.448   2.502  1.2332 -2.3504 -1.1408
  200MOL0     H26957   6.167   9.600   2.506 -1.1263 -0.0371 -0.5733
  200MOL0     H26958   6.285   9.516   2.275  2.0827 -2.0446  0.0607
  200MOL0     H26959   6.187   9.376   2.291 -1.1303 -0.1589  1.0705
  200MOL0     H26960   6.383   9.645   2.387  1.2833  2.9200 -0.1102
  200MOL0     H26961   6.555   9.788   2.515  4.6826 -1.5117 -2.3660
  200MOL0     H26962   6.952   9.675   2.585 -3.3749  2.5124  1.0857
  200MOL0     H26963   7.186   9.707   2.563 -2.6868  2.4795 -0.6045
  200MOL0     H26964   7.388   9.553   2.723  1.0152 -0.4180 -1.2293
  200MOL0     H26965   7.456   9.671   2.607 -3.6050 -1.3551 -0.0037
  200MOL0     H26966   7.643   9.581   2.709  2.3776  0.5318  1.4733
  200MOL0     H26967   7.623   9.740   2.766  0.3206 -0.3670 -2.3225
  200MOL0     H26968   7.503   9.662   2.969  1.6607  0.8759 -0.0073
  200MOL0     H26969   7.535   9.496   2.935  0.2951  0.4725  2.6863
  200MOL0     H26970   7.732   9.730   2.976  2.0401 -0.6219  1.7950
  200MOL0     H26971   7.792   9.575   2.907  1.3621  1.8429  0.1847
  200MOL0     H26972   7.670   9.640   3.173 -1.0153 -0.0542 -2.1590
  200MOL0     H26973   7.838   9.609   3.142  0.6088  2.5031  0.4752
  200MOL0     H26974   7.628   9.394   3.100 -0.8106  3.8133 -0.6369
  200MOL0     H26975   7.806   9.368   3.099 -2.0046 -3.4030 -0.5394
  200MOL0     H26976   7.643   9.458   3.345  0.6361  2.1292  0.3537
  200MOL0     H26977   7.815   9.401   3.335 -0.3253  0.9004 -1.3193
  200MOL0     H26978   7.574   9.225   3.258  0.1642 -0.7353  0.7321
  200MOL0     H26979   7.743   9.192   3.228  2.0943  0.1622  0.4585
  200MOL0     H26980   7.212   9.772   2.993 -0.8927  2.2597 -0.2888
  200MOL0     H26981   6.997   9.711   3.011 -1.4310 -0.2668 -0.7022
  200MOL0     H26982   6.672   9.438   2.739 -1.2875  2.6487  4.0746
  200MOL0     H26983   6.517   9.303   2.605 -1.2343  0.5812 -0.5485
  200MOL0     H26984   5.042  10.268   1.472  1.6568 -2.5607 -1.7818
  200MOL0     H26985   4.820  10.361   1.385  0.0169 -0.6301 -0.9627
  200MOL0     H26986   4.414  10.417   1.369  0.2189 -0.5594  3.7946
  200MOL0     H26987   4.204  10.521   1.300 -0.2673 -0.3572 -1.7331
  200MOL0     H26988   3.893  10.296   1.381  0.3032 -8.5033 -3.4086
  200MOL0     H26989   3.816  10.275   1.233  0.0367 -1.2640  1.0383
  200MOL0     H26990   3.847  10.530   1.388 -0.2278 -0.3074 -0.2903
  200MOL0     H26991   3.706  10.426   1.371  0.7253 -1.2744 -0.2036
  200MOL0     H26992   3.735  10.474   1.108  0.6913  0.8584 -1.3713
  200MOL0     H26993   3.799  10.625   1.178 -1.3725  0.6186 -1.8310
  200MOL0     H26994   3.510  10.516   1.228 -0.4389  0.3338 -1.2574
  200MOL0     H26995   3.587  10.649   1.307  2.2121 -0.7367  1.2063
  200MOL0     H26996   3.486  10.756   0.899  2.4900 -0.9278 -1.2288
  200MOL0     H26997   4.027  10.125   1.253 -0.0782  0.6373 -1.4470
  200MOL0     H26998   4.162   9.929   1.308 -1.3962  2.1798 -1.7858
  200MOL0     H26999   4.331   9.939   1.266  0.9484  1.2591  0.0555
  200MOL0     H27000   4.289   9.957   1.431 -0.9038 -0.6568 -0.3102
  201MOL0     O27001  10.833   1.793   5.692  0.4401 -0.0559 -0.9767
  201MOL0     C27002  10.951   1.773   5.719  0.0271 -0.3617  0.3379
  201MOL0     O27003  11.059   1.781   5.629  0.0793  0.6506 -0.8778
  201MOL0     C27004  11.055   1.736   5.504 -0.3978 -0.1875 -0.0906
  201MOL0     C27005  10.935   1.718   5.435 -0.8208  0.0807 -0.0094
  201MOL0     C27006  10.945   1.661   5.313 -0.2033 -0.1376  0.6466
  201MOL0     C27007  11.066   1.609   5.258 -0.6440  1.1938 -0.3379
  201MOL0     O27008  11.069   1.547   5.134 -0.1535  0.0708 -0.5204
  201MOL0     C27009  11.176   1.471   5.075 -0.5237 -0.4825  0.5500
  201MOL0     C27010  11.130   1.448   4.935  0.7074 -0.2351  0.4152
  201MOL0     C27011  11.125   1.299   4.892  0.5755  0.3382 -0.1840
  201MOL0     C27012  11.263   1.219   4.884 -0.8269 -0.2926  0.0130
  201MOL0     C27013  11.234   1.085   4.846 -1.2816 -0.3612  0.3549
  201MOL0     C27014  11.352   0.995   4.869 -0.4881 -0.1365 -0.0270
  201MOL0     C27015  11.320   0.846   4.891  0.4784  0.0117 -0.0796
  201MOL0     C27016  11.229   0.795   4.773 -0.5009 -0.5942  0.4897
  201MOL0     N27017  11.173   0.668   4.809  0.0489  0.2087 -0.5269
  201MOL0     C27018  11.226   0.553   4.761 -0.8448  0.6624  0.2313
  201MOL0     C27019  11.135   0.461   4.800 -0.3248 -0.2161  0.5161
  201MOL0     C27020  11.143   0.303   4.791  0.3778  1.1463 -0.2002
  201MOL0     C27021  11.288   0.266   4.784 -0.2476  0.0724  0.0030
  201MOL0     C27022  11.298   0.110   4.777 -0.2590  0.7164 -0.9420
  201MOL0     C27023  11.446   0.056   4.760  0.1378 -0.0283 -0.6794
  201MOL0     O27024  11.520   0.085   4.878 -0.2156 -0.8336 -0.3193
  201MOL0     C27025  11.599   0.196   4.891 -0.2251 -0.6025 -0.2731
  201MOL0     C27026  11.670   0.226   5.008  0.4944  0.8097  0.2449
  201MOL0     C27027  11.750   0.337   5.019 -0.2193 -1.1940 -0.4501
  201MOL0     C27028  11.756   0.439   4.926  0.5937 -1.3061  1.2393
  201MOL0     C27029  11.815   0.574   4.951 -0.3847 -0.1595 -0.5755
  201MOL0     O27030  11.813   0.661   4.848 -0.7037 -0.3833 -0.3744
  201MOL0     C27031  11.840   0.788   4.867 -0.6413  0.3702  0.1005
  201MOL0     C27032  11.940   0.841   4.792  0.1633  0.3628 -0.7646
  201MOL0     C27033  11.971   0.978   4.809  1.2435 -0.5238  0.5666
  201MOL0     C27034  11.904   1.059   4.898 -0.2090 -0.5702 -0.7987
  201MOL0     O27035  11.934   1.192   4.899  0.6676  0.6569 -0.0391
  201MOL0     C27036  11.833   1.271   4.965  0.5975 -0.7704 -0.2973
  201MOL0     C27037  11.850   1.423   4.952  0.1053 -0.1744  0.6236
  201MOL0     C27038  11.732   1.496   5.017  0.4375  0.2692 -0.0671
  201MOL0     C27039  11.772   1.624   5.096 -0.3533 -0.5753 -0.3371
  201MOL0     C27040  11.649   1.675   5.178 -0.0917 -0.1143  0.1783
  201MOL0     C27041  11.529   1.691   5.078 -0.0406  0.1152 -0.3430
  201MOL0     C27042  11.572   1.782   4.970  0.0615  0.4988  0.2471
  201MOL0     C27043  11.458   1.853   4.896 -0.1505 -0.2245 -0.1050
  201MOL0    Cl27044  11.333   1.744   4.814 -0.0775 -0.0230 -0.4038
  201MOL0     C27045  11.788   1.006   4.960 -0.2203 -0.5187 -0.5316
  201MOL0     C27046  11.766   0.873   4.934 -0.2070  0.0377 -1.8427
  201MOL0     O27047  11.862   0.595   5.065  0.1487 -0.0394  0.1551
  201MOL0     C27048  11.675   0.423   4.809 -0.7043  0.2208 -0.8604
  201MOL0     C27049  11.613   0.303   4.793  0.7424  0.5314  0.0214
  201MOL0     N27050  11.018   0.524   4.840 -1.0037 -0.6375 -0.1684
  201MOL0     N27051  11.047   0.649   4.845 -0.4582  0.9861  0.3596
  201MOL0     C27052  11.190   1.627   5.331 -0.3101 -0.1986 -0.2465
  201MOL0     C27053  11.186   1.688   5.460  0.4493 -0.1101  1.0504
  201MOL0     C27054  10.988   1.766   5.861 -0.2982  1.5040 -0.6352
  201MOL0     C27055  11.118   1.734   5.892  0.5184  0.8809  0.2522
  201MOL0     C27056  11.159   1.716   6.023 -0.2266  0.2788 -0.5365
  201MOL0     C27057  11.075   1.733   6.127  0.0062  1.0495  0.1149
  201MOL0     O27058  11.123   1.708   6.251  0.3249 -0.5147  0.4884
  201MOL0     C27059  11.032   1.648   6.344  0.2682 -1.1969 -1.2538
  201MOL0     C27060  11.103   1.590   6.465  0.1817 -0.1529 -0.2037
  201MOL0     C27061  11.011   1.523   6.568 -0.4939 -0.2119 -0.0761
  201MOL0     C27062  11.114   1.465   6.673  0.4622 -0.3299  0.0109
  201MOL0     C27063  11.040   1.377   6.763 -0.1005 -0.2213  0.1048
  201MOL0     C27064  10.993   1.284   6.826 -0.7058 -0.0830 -0.1874
  201MOL0     C27065  10.948   1.769   6.094 -0.6202 -0.0575 -0.2318
  201MOL0     C27066  10.892   1.773   5.968 -0.3342 -0.3664 -0.3639
  201MOL0     C27067  10.750   1.818   5.962 -0.0832  0.8683 -0.5259
  201MOL0     H27068  10.835   1.752   5.463 -1.3368  0.0910 -1.7244
  201MOL0     H27069  10.861   1.658   5.245 -0.0675  2.4145  0.2794
  201MOL0     H27070  11.271   1.525   5.068  0.5789 -2.5528 -3.7866
  201MOL0     H27071  11.192   1.377   5.128  4.0176 -0.5634 -0.5512
  201MOL0     H27072  11.193   1.498   4.860 -1.5540 -2.0620 -2.9756
  201MOL0     H27073  11.025   1.466   4.914  1.1112  1.3603 -0.4177
  201MOL0     H27074  11.083   1.298   4.791 -1.4042  1.6845  0.5587
  201MOL0     H27075  11.054   1.250   4.960  0.3010  1.8018  0.6170
  201MOL0     H27076  11.338   1.262   4.816  0.6191 -2.0646  0.3996
  201MOL0     H27077  11.302   1.228   4.986  0.5462  4.3956 -0.6651
  201MOL0     H27078  11.153   1.044   4.908 -1.0445  0.2204  1.0594
  201MOL0     H27079  11.204   1.079   4.741  0.3420 -0.9702 -0.1165
  201MOL0     H27080  11.427   0.999   4.789 -0.9390  1.8532 -0.4106
  201MOL0     H27081  11.403   1.034   4.958 -1.6815  3.6947 -0.8165
  201MOL0     H27082  11.257   0.830   4.979  1.5186  0.7689  0.8435
  201MOL0     H27083  11.409   0.784   4.906  0.9030  0.8642  1.1143
  201MOL0     H27084  11.150   0.867   4.750  0.5893  0.3617 -0.4190
  201MOL0     H27085  11.297   0.792   4.688  1.6102 -0.7134  2.1066
  201MOL0     H27086  11.324   0.536   4.718 -0.3686 -1.5912  2.0285
  201MOL0     H27087  11.098   0.261   4.881 -0.4696  0.0499 -1.1043
  201MOL0     H27088  11.073   0.275   4.711 -0.4699  3.2062 -0.2665
  201MOL0     H27089  11.345   0.286   4.692 -0.7618 -1.6611 -0.7466
  201MOL0     H27090  11.337   0.305   4.873 -0.0874  0.0204 -0.0599
  201MOL0     H27091  11.251   0.081   4.683 -3.2648 -0.6878  0.8502
  201MOL0     H27092  11.250   0.053   4.857  2.4072 -0.9241 -0.3792
  201MOL0     H27093  11.488   0.096   4.668 -1.6059  1.4389 -0.8873
  201MOL0     H27094  11.431  -0.050   4.738  3.0367  0.0001 -3.5439
  201MOL0     H27095  11.675   0.153   5.087 -2.0393  1.3646  1.0304
  201MOL0     H27096  11.808   0.356   5.109 -2.8460  0.2698  1.0707
  201MOL0     H27097  11.990   0.786   4.712  4.2032 -1.3143  2.5117
  201MOL0     H27098  12.042   1.027   4.742  0.6345 -1.9900 -1.2384
  201MOL0     H27099  11.737   1.263   4.913 -0.0555  0.3537  0.6821
  201MOL0     H27100  11.829   1.257   5.073 -0.8373 -2.4648 -0.5308
  201MOL0     H27101  11.940   1.454   5.005  1.1153  0.2543 -1.2701
  201MOL0     H27102  11.859   1.444   4.845 -3.5444 -0.5604  0.1036
  201MOL0     H27103  11.654   1.511   4.941 -2.4113 -0.6806  2.4739
  201MOL0     H27104  11.689   1.430   5.093  0.5517  1.1848  0.7994
  201MOL0     H27105  11.819   1.700   5.033  1.0319 -1.8148 -0.8603
  201MOL0     H27106  11.853   1.601   5.167  1.1671 -1.2099 -2.1907
  201MOL0     H27107  11.676   1.769   5.227 -3.6491 -0.3005  2.9572
  201MOL0     H27108  11.629   1.600   5.255 -0.7336 -1.4961 -1.2535
  201MOL0     H27109  11.491   1.596   5.038  0.6639 -0.6462  0.7380
  201MOL0     H27110  11.440   1.732   5.127  0.0168 -0.2824  0.0977
  201MOL0     H27111  11.636   1.728   4.900 -0.9514 -1.0411  0.4431
  201MOL0     H27112  11.640   1.856   5.014  0.1425  0.2135  0.6101
  201MOL0     H27113  11.397   1.919   4.958  1.9019  0.5533  1.1644
  201MOL0     H27114  11.488   1.932   4.826  1.2288  0.0654  0.7710
  201MOL0     H27115  11.713   1.057   5.019  0.7009  2.1052 -1.4919
  201MOL0     H27116  11.695   0.825   5.000  1.4541 -0.8555 -0.6260
  201MOL0     H27117  11.650   0.499   4.736 -0.5193  2.4597  1.2677
  201MOL0     H27118  11.564   0.298   4.696 -1.5840  0.5311  1.1454
  201MOL0     H27119  11.288   1.620   5.287 -1.3266  0.9446 -2.8778
  201MOL0     H27120  11.274   1.699   5.522 -1.4955 -0.9528  4.1795
  201MOL0     H27121  11.184   1.707   5.810 -1.1735 -4.7252  0.3472
  201MOL0     H27122  11.261   1.706   6.058 -0.3018 -0.2044 -0.4451
  201MOL0     H27123  10.958   1.589   6.289 -0.7820 -1.1194  0.0213
  201MOL0     H27124  10.972   1.728   6.388  1.6075 -0.6412 -0.3554
  201MOL0     H27125  11.150   1.677   6.511  0.8691  0.0069 -1.1903
  201MOL0     H27126  11.183   1.523   6.431  3.5055  2.3391  2.0773
  201MOL0     H27127  10.961   1.437   6.522  0.1737  0.4897 -2.2245
  201MOL0     H27128  10.933   1.579   6.621 -0.0230 -2.4844  3.3996
  201MOL0     H27129  11.189   1.406   6.619 -1.8160 -2.2465 -1.2624
  201MOL0     H27130  11.148   1.551   6.732 -1.1836  0.8453 -0.6673
  201MOL0     H27131  10.978   1.195   6.884 -3.9177 -0.6087 -1.6036
  201MOL0     H27132  10.898   1.784   6.189  2.5660  0.6652  1.4865
  201MOL0     H27133  10.699   1.748   5.895 -0.3952  1.5671 -1.0320
  201MOL0     H27134  10.697   1.811   6.058  4.4042 -1.9027  2.1098
  201MOL0     H27135  10.749   1.920   5.923 -1.7418  1.1869  0.2838
  202MOL0     O27136   7.502   0.416   5.598  0.8401  0.6750  0.7301
  202MOL0     C27137   7.522   0.416   5.721  0.1340 -0.8525  0.2294
  202MOL0     O27138   7.469   0.328   5.807  0.5565  0.5547  0.2148
  202MOL0     C27139   7.389   0.219   5.758 -0.7759  0.0672 -0.1441
  202MOL0     C27140   7.442   0.130   5.659 -0.0316  0.3142 -0.4183
  202MOL0     C27141   7.367   0.029   5.614  0.7068  0.5778 -0.4367
  202MOL0     C27142   7.231   0.009   5.655 -0.1200  0.0756 -0.6262
  202MOL0     O27143   7.162  -0.099   5.618  0.4054 -0.0890 -0.5067
  202MOL0     C27144   7.222  -0.229   5.590 -0.2057  0.1764 -0.5490
  202MOL0     C27145   7.132  -0.345   5.578  0.4950 -0.0567  0.1395
  202MOL0     C27146   7.032  -0.322   5.465 -0.4366 -0.3132 -0.2677
  202MOL0     C27147   6.887  -0.358   5.506  0.3842  0.0957  0.6453
  202MOL0     C27148   6.813  -0.245   5.588 -0.3603 -0.4242  0.1313
  202MOL0     C27149   6.660  -0.251   5.584 -0.5429 -0.0522 -0.0840
  202MOL0     C27150   6.599  -0.240   5.441  0.4006 -0.2171  0.2575
  202MOL0     C27151   6.440  -0.248   5.439 -0.2597  0.6362 -0.3767
  202MOL0     N27152   6.374  -0.250   5.310  0.8249  0.0152 -1.2975
  202MOL0     C27153   6.420  -0.176   5.201  0.1360 -0.3772 -0.4203
  202MOL0     C27154   6.354  -0.225   5.096  0.1651 -0.9346 -1.0296
  202MOL0     C27155   6.378  -0.189   4.944  0.7668 -0.0914 -0.1839
  202MOL0     C27156   6.297  -0.272   4.852  0.0982 -0.6816 -0.2288
  202MOL0     C27157   6.356  -0.275   4.711  0.0386  0.0615  0.4318
  202MOL0     C27158   6.490  -0.340   4.686 -0.7367 -0.2567 -0.8888
  202MOL0     O27159   6.603  -0.251   4.696  0.4890 -0.4106  0.0539
  202MOL0     C27160   6.732  -0.298   4.673  0.0045 -0.9143  0.5007
  202MOL0     C27161   6.769  -0.430   4.641 -0.5147 -0.1986  0.6309
  202MOL0     C27162   6.906  -0.468   4.642 -0.2154 -0.0461 -0.0275
  202MOL0     C27163   6.997  -0.369   4.681  0.4735 -0.2829 -0.1345
  202MOL0     C27164   7.140  -0.401   4.672  0.5846 -0.0997  1.3364
  202MOL0     O27165   7.229  -0.290   4.677 -0.1051  0.0553  0.0287
  202MOL0     C27166   7.369  -0.289   4.673  0.5502 -0.2730 -0.5254
  202MOL0     C27167   7.444  -0.386   4.733  0.0798 -0.0911  1.5149
  202MOL0     C27168   7.584  -0.384   4.730  0.1845  0.4342  0.9987
  202MOL0     C27169   7.657  -0.285   4.665  0.2534 -0.1185  0.2289
  202MOL0     O27170   7.794  -0.294   4.655  0.1756  0.6415 -0.4592
  202MOL0     C27171   7.864  -0.190   4.586 -0.6266 -0.1864  0.2321
  202MOL0     C27172   8.014  -0.214   4.608  0.2736 -0.1728 -0.1797
  202MOL0     C27173   8.071  -0.175   4.746 -0.3166  0.1865 -1.2154
  202MOL0     C27174   8.212  -0.221   4.768 -0.5282  0.2262  0.1785
  202MOL0     C27175   8.275  -0.192   4.913  0.4827  0.0088  0.5247
  202MOL0     C27176   8.270  -0.042   4.953 -0.0621  1.2033 -0.1821
  202MOL0     C27177   8.315  -0.025   5.092  0.1319 -0.8432  0.9105
  202MOL0     C27178   8.334   0.130   5.120 -0.6460 -0.1406 -0.0172
  202MOL0    Cl27179   8.387   0.132   5.294 -0.1464 -0.2436  0.3408
  202MOL0     C27180   7.571  -0.183   4.606 -0.3811 -0.7967  0.4564
  202MOL0     C27181   7.436  -0.182   4.607  0.2660  0.2195  1.0152
  202MOL0     O27182   7.171  -0.521   4.653 -0.3048  0.3082 -0.7983
  202MOL0     C27183   6.954  -0.234   4.695  0.0888  0.7391  0.0255
  202MOL0     C27184   6.829  -0.206   4.699 -0.3347 -0.5706 -0.0433
  202MOL0     N27185   6.273  -0.320   5.138  0.4561  1.4298  0.0776
  202MOL0     N27186   6.280  -0.344   5.271 -0.1111 -0.0002  0.2629
  202MOL0     C27187   7.184   0.107   5.745 -0.0106  0.2158  0.3968
  202MOL0     C27188   7.262   0.206   5.794  0.3058 -0.0187 -0.2188
  202MOL0     C27189   7.623   0.510   5.779  0.2287 -0.7522 -0.2677
  202MOL0     C27190   7.701   0.465   5.893 -0.9546 -0.5856  0.0954
  202MOL0     C27191   7.803   0.551   5.941 -0.2615 -0.9354 -0.6371
  202MOL0     C27192   7.822   0.674   5.881  0.5029 -0.3021 -0.3086
  202MOL0     O27193   7.922   0.757   5.909  1.6330 -0.3527  0.1689
  202MOL0     C27194   7.980   0.770   6.047  0.4128 -0.0468  0.4948
  202MOL0     C27195   8.127   0.723   6.030  0.0439 -0.4208 -0.4946
  202MOL0     C27196   8.151   0.567   6.009  0.1882  0.1997 -0.3238
  202MOL0     C27197   8.285   0.521   5.991  0.0914  0.3171 -0.5566
  202MOL0     C27198   8.359   0.583   5.879 -0.3700  0.5216 -0.5913
  202MOL0     C27199   8.413   0.653   5.793  0.3852  0.4427 -0.4187
  202MOL0     C27200   7.741   0.717   5.778 -0.2116 -0.2451 -0.1485
  202MOL0     C27201   7.647   0.631   5.720 -0.2996  0.1703  0.4961
  202MOL0     C27202   7.583   0.683   5.600  0.1954  0.0801  0.6943
  202MOL0     H27203   7.545   0.136   5.627  0.3562 -0.6384  0.5927
  202MOL0     H27204   7.417  -0.044   5.551 -0.8113 -1.1676  0.2506
  202MOL0     H27205   7.295  -0.221   5.509  1.0313 -0.5521  0.4519
  202MOL0     H27206   7.295  -0.257   5.666  0.8054 -1.2591 -1.9701
  202MOL0     H27207   7.080  -0.377   5.669  0.3070 -4.1895 -1.2097
  202MOL0     H27208   7.193  -0.428   5.539 -2.1273 -2.9763  1.7620
  202MOL0     H27209   7.060  -0.376   5.373  1.9186  2.0214 -1.0535
  202MOL0     H27210   7.036  -0.221   5.424  1.4064  0.1244  0.8613
  202MOL0     H27211   6.832  -0.373   5.413 -1.5216 -1.2354  1.9068
  202MOL0     H27212   6.890  -0.456   5.556 -3.6919 -1.2098 -1.2164
  202MOL0     H27213   6.848  -0.233   5.691 -0.1260 -0.3604  0.0443
  202MOL0     H27214   6.837  -0.149   5.541 -0.1963 -0.8031 -0.5748
  202MOL0     H27215   6.620  -0.337   5.638 -2.1373  1.5046  1.3162
  202MOL0     H27216   6.629  -0.170   5.650 -0.7919 -0.0567 -0.1961
  202MOL0     H27217   6.625  -0.323   5.376 -0.9756 -0.3776 -0.1343
  202MOL0     H27218   6.624  -0.148   5.387 -4.4233  1.0831 -0.2922
  202MOL0     H27219   6.419  -0.349   5.475  2.4592 -1.1869 -3.3359
  202MOL0     H27220   6.393  -0.172   5.502  1.8339 -1.3736  4.0582
  202MOL0     H27221   6.508  -0.115   5.185  1.5224 -2.5900 -1.7397
  202MOL0     H27222   6.357  -0.083   4.925  2.1652  0.9756  3.2701
  202MOL0     H27223   6.484  -0.207   4.928  1.0854 -0.1737  1.7090
  202MOL0     H27224   6.285  -0.370   4.900 -1.6400  0.2054  1.2884
  202MOL0     H27225   6.196  -0.232   4.844 -0.5735 -2.0300  1.0081
  202MOL0     H27226   6.355  -0.170   4.681 -1.1888 -0.5314 -1.8471
  202MOL0     H27227   6.279  -0.328   4.654  0.2901  0.5458 -0.3716
  202MOL0     H27228   6.472  -0.382   4.587 -1.4414 -0.9371 -0.4812
  202MOL0     H27229   6.503  -0.423   4.756  4.2209  0.5835 -0.4156
  202MOL0     H27230   6.705  -0.511   4.608 -1.9063  1.6741 -1.5604
  202MOL0     H27231   6.932  -0.571   4.620  1.0823 -0.7051  3.7884
  202MOL0     H27232   7.405  -0.477   4.777  1.2738 -2.2260 -1.5187
  202MOL0     H27233   7.651  -0.461   4.766  0.7276  0.2365 -0.3935
  202MOL0     H27234   7.848  -0.198   4.478 -0.1927  3.1302 -0.1987
  202MOL0     H27235   7.836  -0.092   4.627  2.2950  0.6535  0.4593
  202MOL0     H27236   8.038  -0.320   4.603  1.5889  0.0919  0.0704
  202MOL0     H27237   8.082  -0.173   4.532  2.7413 -2.7915  0.4620
  202MOL0     H27238   8.073  -0.066   4.758 -3.0543  0.1650  0.5214
  202MOL0     H27239   7.997  -0.213   4.818 -0.4703 -2.0365 -2.4519
  202MOL0     H27240   8.268  -0.163   4.694 -0.3487 -1.4575 -1.0751
  202MOL0     H27241   8.224  -0.324   4.734  0.9191  1.1479 -2.4474
  202MOL0     H27242   8.382  -0.214   4.912  0.8670  1.6945  0.3641
  202MOL0     H27243   8.230  -0.258   4.988 -1.1694  0.2400 -0.2069
  202MOL0     H27244   8.333   0.017   4.887 -1.4133  0.8681 -1.8376
  202MOL0     H27245   8.165  -0.012   4.957  0.0491  1.5669  0.0675
  202MOL0     H27246   8.420  -0.052   5.104  0.4252 -0.2303 -0.1765
  202MOL0     H27247   8.241  -0.066   5.162 -3.0167  1.7553 -0.5818
  202MOL0     H27248   8.420   0.166   5.063 -0.9621  0.7118  0.0371
  202MOL0     H27249   8.243   0.191   5.116 -1.9255 -1.8370  1.3997
  202MOL0     H27250   7.622  -0.118   4.536  1.0992 -0.4003  1.8406
  202MOL0     H27251   7.390  -0.094   4.562  0.1259  0.2923  1.3011
  202MOL0     H27252   7.032  -0.164   4.722  2.1223 -0.7842 -1.5475
  202MOL0     H27253   6.798  -0.105   4.722  0.0607 -0.5012  0.1866
  202MOL0     H27254   7.080   0.095   5.775 -0.1281 -1.2309 -0.4777
  202MOL0     H27255   7.219   0.273   5.868 -1.4068  0.7182 -1.7915
  202MOL0     H27256   7.684   0.366   5.935  0.9254 -0.8558  0.2927
  202MOL0     H27257   7.880   0.522   6.012 -0.7373  0.8650  0.6634
  202MOL0     H27258   7.921   0.713   6.119  0.1785 -0.4104  0.0232
  202MOL0     H27259   7.972   0.877   6.068  0.8907  0.4112 -1.4710
  202MOL0     H27260   8.179   0.748   6.123  0.3950  1.0975 -1.0633
  202MOL0     H27261   8.170   0.783   5.949 -1.3539  1.8365  0.3425
  202MOL0     H27262   8.099   0.534   5.918 -0.7590 -1.9312  0.9134
  202MOL0     H27263   8.103   0.505   6.085 -2.2688 -0.2800 -2.1184
  202MOL0     H27264   8.341   0.527   6.084  0.7378 -3.0998 -0.5915
  202MOL0     H27265   8.267   0.417   5.963 -2.1070  0.2527  0.8997
  202MOL0     H27266   8.458   0.711   5.715  0.0055  1.8626  0.3680
  202MOL0     H27267   7.758   0.816   5.735 -1.7860 -0.2337 -0.8274
  202MOL0     H27268   7.478   0.659   5.583  0.0760  1.4651 -0.7214
  202MOL0     H27269   7.590   0.792   5.606 -0.0961  0.0331  3.7127
  202MOL0     H27270   7.635   0.643   5.513 -2.2268 -0.6447 -0.5196
  203MOL0     O27271  11.266   0.955   4.438  0.0913 -0.2983 -0.0494
  203MOL0     C27272  11.167   0.925   4.378  0.2908  0.3553  0.1746
  203MOL0     O27273  11.055   1.009   4.353 -0.2126 -0.2825 -0.2566
  203MOL0     C27274  11.067   1.145   4.341 -0.2088 -1.2012  0.3002
  203MOL0     C27275  11.150   1.227   4.422 -0.2072  0.3519 -0.0220
  203MOL0     C27276  11.151   1.371   4.426  0.9606 -0.4184  0.0989
  203MOL0     C27277  11.056   1.438   4.347  0.7193 -0.3717  0.1832
  203MOL0     O27278  11.035   1.571   4.345 -0.0446 -0.1705  0.4629
  203MOL0     C27279  11.152   1.636   4.293 -0.0994 -0.2305  0.5197
  203MOL0     C27280  11.145   1.787   4.290  0.4992 -0.5115 -0.5359
  203MOL0     C27281  11.138   1.835   4.428  0.5839 -1.2164  0.5220
  203MOL0     C27282  11.161   1.988   4.456  0.1826 -0.0322 -0.5318
  203MOL0     C27283  11.195   2.011   4.608  0.1144  1.0873  0.2108
  203MOL0     C27284  11.130   2.144   4.647  0.1384 -0.2033  0.0285
  203MOL0     C27285  11.166   2.192   4.791 -0.4418 -0.4844  0.3078
  203MOL0     C27286  11.320   2.216   4.820 -1.0128  0.2818 -0.2702
  203MOL0     N27287  11.401   2.288   4.723 -0.5776  0.7764  0.2129
  203MOL0     C27288  11.378   2.418   4.675  0.3996 -0.3651 -0.3294
  203MOL0     C27289  11.475   2.440   4.591  0.4549  0.0659 -0.2671
  203MOL0     C27290  11.498   2.568   4.512 -1.0184  0.8103 -2.0579
  203MOL0     C27291  11.627   2.554   4.428  0.6474  0.1761  0.2193
  203MOL0     C27292  11.638   2.666   4.329  0.0474 -0.6273 -0.6771
  203MOL0     C27293  11.729   2.631   4.211  0.0979  1.4804  0.1043
  203MOL0     O27294  11.844   2.563   4.246 -0.2311 -0.2974  0.0551
  203MOL0     C27295  11.961   2.631   4.258 -1.1447  0.9477 -0.8558
  203MOL0     C27296  11.988   2.761   4.286 -0.6382 -0.3426  0.1487
  203MOL0     C27297  12.117   2.812   4.295  0.6376  0.1604 -0.3285
  203MOL0     C27298  12.227   2.727   4.290  0.7330  0.5575  0.1687
  203MOL0     C27299  12.366   2.773   4.311 -0.3603 -0.2025 -0.6690
  203MOL0     O27300  12.465   2.691   4.284  0.8543 -0.1828  0.1905
  203MOL0     C27301  12.591   2.730   4.269  0.4491 -0.3764  0.9670
  203MOL0     C27302  12.680   2.623   4.285 -0.4180 -0.9867  0.6529
  203MOL0     C27303  12.822   2.656   4.286  0.9671 -0.0172  0.5998
  203MOL0     C27304  12.877   2.782   4.247  0.5098 -0.0732 -0.1304
  203MOL0     O27305  13.010   2.803   4.234  0.3544 -0.1817  0.2177
  203MOL0     C27306  13.103   2.739   4.329 -0.8005  0.2087  1.1076
  203MOL0     C27307  13.248   2.796   4.321  0.1854  0.3724 -0.7960
  203MOL0     C27308  13.354   2.699   4.386  0.7994  0.2695 -0.5965
  203MOL0     C27309  13.495   2.734   4.360  0.6509 -0.6674  0.7390
  203MOL0     C27310  13.583   2.631   4.433 -0.1312  0.5802 -0.1063
  203MOL0     C27311  13.731   2.669   4.442  0.2554  0.5840  0.3355
  203MOL0     C27312  13.808   2.577   4.538  0.4929  0.2972 -0.7641
  203MOL0     C27313  13.947   2.630   4.570  1.0228  0.4169 -0.1376
  203MOL0    Cl27314  14.022   2.513   4.684  0.2589 -0.1130 -0.1951
  203MOL0     C27315  12.778   2.880   4.222  0.4832 -0.3609  0.6760
  203MOL0     C27316  12.642   2.857   4.234  0.5370 -0.2344 -0.4006
  203MOL0     O27317  12.384   2.883   4.364  0.2619 -0.3623 -0.5022
  203MOL0     C27318  12.202   2.598   4.246  0.0450 -0.0638 -0.2300
  203MOL0     C27319  12.072   2.544   4.224 -0.0175  0.4510 -0.0788
  203MOL0     N27320  11.554   2.324   4.589  0.0304  0.1377 -0.2740
  203MOL0     N27321  11.506   2.232   4.666 -0.4092 -0.3541 -0.2271
  203MOL0     C27322  10.968   1.357   4.267  0.1434 -0.5651 -0.1187
  203MOL0     C27323  10.965   1.214   4.266 -0.2535  0.1588 -1.5527
  203MOL0     C27324  11.156   0.791   4.325 -0.7262  0.1687 -0.0254
  203MOL0     C27325  11.248   0.730   4.244  0.3256 -0.1520  0.4962
  203MOL0     C27326  11.228   0.603   4.188 -0.2511  0.2515  0.6796
  203MOL0     C27327  11.123   0.525   4.222  0.0499  0.5283 -1.1381
  203MOL0     O27328  11.128   0.396   4.190 -0.5509 -0.1842  0.2042
  203MOL0     C27329  11.128   0.376   4.048 -0.3329 -0.0140  0.5773
  203MOL0     C27330  11.121   0.228   4.009 -0.5239 -0.6805 -0.0202
  203MOL0     C27331  11.088   0.194   3.868  0.5289  0.0565 -0.4178
  203MOL0     C27332  11.200   0.234   3.767 -0.5223 -1.0594  0.4278
  203MOL0     C27333  11.169   0.339   3.667  0.3714 -0.8154  0.1488
  203MOL0     C27334  11.111   0.422   3.599 -0.6293  0.1051  0.2341
  203MOL0     C27335  11.034   0.572   4.321 -0.2983  0.0686 -0.0039
  203MOL0     C27336  11.046   0.708   4.370 -0.9767  0.4609  0.6349
  203MOL0     C27337  10.940   0.747   4.473 -1.1505 -0.0415  0.2540
  203MOL0     H27338  11.218   1.192   4.499  0.0125  2.4254  0.7951
  203MOL0     H27339  11.227   1.417   4.489  0.6784 -0.2101  0.2876
  203MOL0     H27340  11.243   1.604   4.345  1.7059  0.3234 -2.1284
  203MOL0     H27341  11.165   1.606   4.189 -2.3323 -0.1082  0.1605
  203MOL0     H27342  11.057   1.827   4.239 -1.2389  0.6207  3.0067
  203MOL0     H27343  11.232   1.833   4.242 -0.7801  2.1474 -0.4909
  203MOL0     H27344  11.217   1.790   4.489  4.6213 -0.2071 -3.3671
  203MOL0     H27345  11.036   1.804   4.452 -1.0418 -0.5582 -4.3799
  203MOL0     H27346  11.249   2.016   4.398 -1.2716  0.5627 -2.5886
  203MOL0     H27347  11.069   2.041   4.428 -0.9428 -2.8872 -2.7954
  203MOL0     H27348  11.148   1.937   4.673  0.9829  1.3976  1.2171
  203MOL0     H27349  11.304   2.000   4.617 -0.1220 -2.0799  0.2601
  203MOL0     H27350  11.144   2.218   4.567 -0.1028 -1.9082 -1.6797
  203MOL0     H27351  11.023   2.128   4.655  0.0097 -0.2905 -1.5290
  203MOL0     H27352  11.129   2.117   4.862 -3.2711 -1.8845 -2.4199
  203MOL0     H27353  11.116   2.286   4.817 -1.2292 -1.4762  2.6923
  203MOL0     H27354  11.313   2.255   4.922 -0.4983 -1.6827  0.5683
  203MOL0     H27355  11.381   2.125   4.829  1.5563  1.7352 -1.8191
  203MOL0     H27356  11.308   2.495   4.705  1.0480  2.3009 -4.7927
  203MOL0     H27357  11.411   2.606   4.458 -1.0048  1.0351 -1.9258
  203MOL0     H27358  11.524   2.642   4.588  0.9445 -1.4520 -0.3919
  203MOL0     H27359  11.719   2.553   4.486  0.0910 -1.4390  1.1673
  203MOL0     H27360  11.621   2.457   4.376 -1.0073 -0.7584  2.0049
  203MOL0     H27361  11.674   2.755   4.381 -5.0026  0.7004  1.1374
  203MOL0     H27362  11.543   2.703   4.287  0.7649  0.1408 -1.6855
  203MOL0     H27363  11.756   2.723   4.158  0.7139  3.1316  3.0542
  203MOL0     H27364  11.669   2.572   4.140 -2.1586  1.3142  2.0375
  203MOL0     H27365  11.910   2.836   4.294 -0.3952  0.6205 -4.0897
  203MOL0     H27366  12.123   2.916   4.328 -3.2088  0.6756 -0.8387
  203MOL0     H27367  12.641   2.524   4.309  1.3102 -1.0996  3.3147
  203MOL0     H27368  12.888   2.572   4.306 -2.3041 -2.6869  1.1632
  203MOL0     H27369  13.062   2.749   4.430 -0.8147  1.1260  1.0216
  203MOL0     H27370  13.118   2.636   4.295  0.4390  0.9280 -0.6521
  203MOL0     H27371  13.263   2.823   4.216  1.8631 -0.3505 -0.7774
  203MOL0     H27372  13.259   2.891   4.373  0.0084 -0.4300  0.7733
  203MOL0     H27373  13.344   2.698   4.495  1.1168 -1.4230 -0.5488
  203MOL0     H27374  13.337   2.595   4.355  2.9659 -0.3471  0.1057
  203MOL0     H27375  13.504   2.839   4.390  0.0588 -0.9472  1.9286
  203MOL0     H27376  13.520   2.723   4.254  0.5591 -2.1279  0.8478
  203MOL0     H27377  13.568   2.530   4.396  2.2744  0.3455 -0.6393
  203MOL0     H27378  13.555   2.635   4.539  1.2036  2.4849  0.2533
  203MOL0     H27379  13.786   2.654   4.349 -0.4369  1.3843 -0.2179
  203MOL0     H27380  13.733   2.772   4.480 -3.1010  0.9471 -0.1592
  203MOL0     H27381  13.819   2.477   4.495  0.9935 -0.0138  0.0626
  203MOL0     H27382  13.753   2.568   4.632 -0.0452 -2.7231 -1.2562
  203MOL0     H27383  13.998   2.641   4.474 -0.1561  1.7298 -0.6413
  203MOL0     H27384  13.929   2.731   4.607 -1.4121 -0.1361  0.3586
  203MOL0     H27385  12.818   2.975   4.190  1.2302 -0.3847  1.4777
  203MOL0     H27386  12.576   2.933   4.195 -2.1879 -1.9086  0.6564
  203MOL0     H27387  12.290   2.535   4.230 -1.5628 -2.6768  0.5809
  203MOL0     H27388  12.059   2.442   4.188  0.9566  0.6447 -1.0379
  203MOL0     H27389  10.900   1.402   4.196  3.4521 -0.2881 -3.4005
  203MOL0     H27390  10.878   1.168   4.222  0.8285 -2.4587 -1.1732
  203MOL0     H27391  11.330   0.797   4.220  0.2123  0.3175  1.3666
  203MOL0     H27392  11.308   0.551   4.136  0.3746  2.2575 -0.4479
  203MOL0     H27393  11.216   0.418   3.999  0.1625  0.3825  1.7737
  203MOL0     H27394  11.039   0.432   4.017 -0.4816 -0.6604 -0.1755
  203MOL0     H27395  11.058   0.182   4.086  0.9956  3.7629  4.4001
  203MOL0     H27396  11.218   0.180   4.027 -1.5619 -3.9132 -2.0644
  203MOL0     H27397  10.991   0.235   3.836  0.9939 -0.4055 -2.6011
  203MOL0     H27398  11.076   0.085   3.874  1.8418 -0.0598  0.4803
  203MOL0     H27399  11.297   0.255   3.812 -1.5864  2.8610  1.2657
  203MOL0     H27400  11.218   0.146   3.704 -2.2149 -1.0043 -0.1908
  203MOL0     H27401  11.070   0.496   3.534  2.6340  1.0790 -0.9328
  203MOL0     H27402  10.953   0.503   4.346  0.9911 -1.7070 -0.5553
  203MOL0     H27403  10.987   0.758   4.571  0.4475  0.9171 -0.5831
  203MOL0     H27404  10.879   0.836   4.454 -0.6475  0.6027  1.5019
  203MOL0     H27405  10.859   0.674   4.478 -1.8373  0.5851 -1.0963
  204MOL0     O27406   8.740   1.576   9.962  0.0206  0.0051 -0.2209
  204MOL0     C27407   8.667   1.584  10.054  0.3055 -0.3140 -0.8400
  204MOL0     O27408   8.655   1.703  10.126 -0.3834 -1.0964  0.7919
  204MOL0     C27409   8.756   1.792  10.118 -0.9098  0.3760 -0.0328
  204MOL0     C27410   8.886   1.747  10.130 -0.0863 -0.4602  0.6272
  204MOL0     C27411   8.988   1.844  10.137 -0.6970  0.3445  0.6221
  204MOL0     C27412   8.967   1.983  10.113 -0.2331 -0.1886  0.3797
  204MOL0     O27413   9.069   2.080  10.091 -0.0314  0.5144 -0.4847
  204MOL0     C27414   9.163   2.045   9.995 -0.8291 -1.3097 -0.0254
  204MOL0     C27415   9.244   2.171   9.944  0.1431  0.0816  0.6820
  204MOL0     C27416   9.158   2.281   9.880  0.6220 -0.2342 -0.5678
  204MOL0     C27417   9.234   2.372   9.789 -0.0530 -0.0459  0.0373
  204MOL0     C27418   9.130   2.471   9.728 -0.2340 -0.5095 -0.2589
  204MOL0     C27419   9.195   2.523   9.595  0.2645  0.1618  1.0647
  204MOL0     C27420   9.106   2.627   9.526 -0.5007 -0.6451 -0.2909
  204MOL0     C27421   9.047   2.746   9.590 -0.1320  0.3333 -0.3481
  204MOL0     N27422   8.962   2.812   9.492 -0.5407 -0.4478  0.0982
  204MOL0     C27423   9.003   2.903   9.395  0.0508 -0.3359  0.2716
  204MOL0     C27424   8.886   2.958   9.349  0.6062  0.2524 -0.2295
  204MOL0     C27425   8.893   3.066   9.249  0.0315  0.6716 -1.1056
  204MOL0     C27426   8.955   3.010   9.124 -0.1023 -0.2591 -0.1247
  204MOL0     C27427   8.941   3.096   9.005  0.8567  0.5803 -0.2533
  204MOL0     C27428   9.010   3.036   8.886  0.7476  0.4642  0.2258
  204MOL0     O27429   9.003   3.127   8.776  0.0317  0.4302  0.5271
  204MOL0     C27430   9.091   3.231   8.749  0.3721 -0.4829  0.3513
  204MOL0     C27431   9.215   3.252   8.812 -0.4687  0.4212 -0.1025
  204MOL0     C27432   9.296   3.356   8.768 -0.3330 -0.1956 -0.6433
  204MOL0     C27433   9.244   3.452   8.674  0.1432  0.7615  0.4575
  204MOL0     C27434   9.342   3.557   8.626  0.3746  0.2117  0.1395
  204MOL0     O27435   9.474   3.526   8.642 -0.3620 -0.2063  0.0588
  204MOL0     C27436   9.580   3.604   8.624 -0.3341 -0.2485  0.9489
  204MOL0     C27437   9.640   3.599   8.494 -0.0662  0.7167  0.9681
  204MOL0     C27438   9.757   3.663   8.471 -0.1661 -0.4746  0.0633
  204MOL0     C27439   9.821   3.736   8.574  0.7271  0.4771 -0.2261
  204MOL0     O27440   9.946   3.791   8.576 -0.2616  0.8854 -0.3203
  204MOL0     C27441  10.019   3.766   8.457 -0.5462 -0.6940  0.4235
  204MOL0     C27442  10.158   3.791   8.501  0.7786  0.3139  0.1812
  204MOL0     C27443  10.242   3.790   8.369 -0.7555  0.5068 -0.2816
  204MOL0     C27444  10.390   3.819   8.386 -0.4821 -0.1336  0.3140
  204MOL0     C27445  10.471   3.719   8.467  0.8734  0.2649  0.0362
  204MOL0     C27446  10.631   3.731   8.446  0.7148  0.1247  0.0262
  204MOL0     C27447  10.678   3.855   8.515 -0.1843  0.6381  0.5716
  204MOL0     C27448  10.698   3.834   8.662  0.5886  0.4491 -0.3661
  204MOL0    Cl27449  10.783   3.678   8.722  0.0563  0.3592  0.3696
  204MOL0     C27450   9.761   3.738   8.704 -0.3930  0.2286  0.4191
  204MOL0     C27451   9.638   3.674   8.727  0.0311 -0.0098  0.7767
  204MOL0     O27452   9.300   3.663   8.594  0.8973  0.5490  0.0689
  204MOL0     C27453   9.128   3.431   8.607  1.4263 -0.5437 -0.0707
  204MOL0     C27454   9.052   3.317   8.647  0.3735  0.3439 -0.4043
  204MOL0     N27455   8.776   2.914   9.428 -0.1902 -0.9642 -0.3978
  204MOL0     N27456   8.823   2.830   9.504  0.8438  0.4336 -0.1372
  204MOL0     C27457   8.835   2.026  10.113 -0.0258 -0.7078 -0.6223
  204MOL0     C27458   8.727   1.930  10.130 -0.2778 -0.6561  0.1199
  204MOL0     C27459   8.580   1.466  10.082 -0.0287  0.5150  0.3720
  204MOL0     C27460   8.626   1.340  10.035  0.3111 -0.4521  0.5809
  204MOL0     C27461   8.548   1.228  10.039  0.4214 -0.4850 -0.0119
  204MOL0     C27462   8.419   1.231  10.091  1.0614  0.2272 -0.3877
  204MOL0     O27463   8.334   1.127  10.117  0.1240  0.4170  0.3418
  204MOL0     C27464   8.388   1.030  10.217 -0.5066  0.5350  0.3856
  204MOL0     C27465   8.296   0.907  10.214 -0.0490  0.4308  0.2303
  204MOL0     C27466   8.160   0.913  10.294  0.2875  0.0474 -0.3863
  204MOL0     C27467   8.095   0.779  10.305  0.7068  0.5286 -0.6825
  204MOL0     C27468   8.173   0.688  10.389  0.2622  0.2919  1.2788
  204MOL0     C27469   8.250   0.611  10.442  0.6636  0.1095 -0.0382
  204MOL0     C27470   8.374   1.352  10.150 -0.3916  0.0244 -0.3811
  204MOL0     C27471   8.450   1.462  10.150 -0.1446 -0.2549  1.1766
  204MOL0     C27472   8.378   1.593  10.182  0.6713 -0.1694 -0.5249
  204MOL0     H27473   8.909   1.648  10.166 -0.3593  0.2845  3.0875
  204MOL0     H27474   9.088   1.805  10.154  0.4679  3.2017  1.0420
  204MOL0     H27475   9.228   1.971  10.041  2.0500  0.6317 -0.7195
  204MOL0     H27476   9.103   2.002   9.914 -3.3624  3.1433 -0.8996
  204MOL0     H27477   9.316   2.134   9.870 -1.9217  0.6197 -1.7394
  204MOL0     H27478   9.285   2.209  10.038 -0.5552  4.6446 -0.5798
  204MOL0     H27479   9.107   2.332   9.962 -1.1737 -0.1146 -1.7196
  204MOL0     H27480   9.086   2.227   9.819  3.3158 -2.6050 -1.8986
  204MOL0     H27481   9.314   2.426   9.840 -0.0474  0.4663 -0.4996
  204MOL0     H27482   9.287   2.311   9.715  1.0023 -1.6387  2.0178
  204MOL0     H27483   9.029   2.431   9.718 -0.8817  0.8806  0.4063
  204MOL0     H27484   9.127   2.560   9.792  1.8099 -0.3833 -0.2659
  204MOL0     H27485   9.293   2.564   9.621 -0.7023  3.3436  0.1456
  204MOL0     H27486   9.233   2.440   9.535  0.1366 -0.4676  1.8337
  204MOL0     H27487   9.016   2.570   9.502 -0.0788 -0.7972 -1.5625
  204MOL0     H27488   9.153   2.664   9.434 -2.7136  1.3260 -0.7209
  204MOL0     H27489   8.994   2.715   9.680 -0.4142  3.5646  0.7507
  204MOL0     H27490   9.132   2.811   9.615  1.2558 -1.9134  1.0725
  204MOL0     H27491   9.104   2.931   9.366 -0.6328 -0.6409 -2.6866
  204MOL0     H27492   8.792   3.106   9.238 -0.2756 -0.1427 -1.3234
  204MOL0     H27493   8.953   3.150   9.285 -1.8605  2.1915 -1.4008
  204MOL0     H27494   9.060   2.991   9.150 -0.4124 -0.8995  0.6863
  204MOL0     H27495   8.910   2.913   9.103  1.1989 -0.7204 -0.9150
  204MOL0     H27496   8.977   3.196   9.030 -0.0946  0.5542  1.3462
  204MOL0     H27497   8.835   3.109   8.980  0.8518 -0.1360 -0.6227
  204MOL0     H27498   8.970   2.939   8.856 -1.2120  1.4293 -0.4270
  204MOL0     H27499   9.112   3.035   8.927 -0.1346  3.0204  2.8018
  204MOL0     H27500   9.255   3.192   8.893 -0.8790  0.1354 -0.1137
  204MOL0     H27501   9.393   3.375   8.813 -1.7424  1.5175  1.9951
  204MOL0     H27502   9.574   3.555   8.420  1.1910 -1.2504  0.9574
  204MOL0     H27503   9.807   3.648   8.376  2.9588 -0.7901  1.6165
  204MOL0     H27504  10.015   3.666   8.412  1.3248 -0.0236 -1.3804
  204MOL0     H27505   9.983   3.842   8.388 -1.4924 -0.5098  1.0881
  204MOL0     H27506  10.159   3.873   8.573  1.3116 -0.7172  1.3989
  204MOL0     H27507  10.196   3.706   8.559 -0.2224  0.9441  1.8361
  204MOL0     H27508  10.234   3.701   8.306 -0.1955  0.2186  0.0449
  204MOL0     H27509  10.197   3.873   8.313  1.0739  1.2767 -0.6990
  204MOL0     H27510  10.401   3.925   8.411 -0.9684 -0.0376  0.1485
  204MOL0     H27511  10.425   3.824   8.283  1.1194  4.3454  0.8370
  204MOL0     H27512  10.441   3.617   8.442  0.0356 -0.7923  4.5448
  204MOL0     H27513  10.441   3.737   8.571 -1.2644  0.0041 -0.4857
  204MOL0     H27514  10.675   3.640   8.489  0.4482  0.5132  1.1363
  204MOL0     H27515  10.666   3.734   8.342  0.2067  0.8824 -0.1261
  204MOL0     H27516  10.613   3.939   8.488  1.1456  0.9642 -1.8843
  204MOL0     H27517  10.770   3.887   8.466 -0.8368  1.7782  0.0286
  204MOL0     H27518  10.748   3.918   8.710 -0.3758  0.5119  0.5853
  204MOL0     H27519  10.599   3.831   8.708 -0.2764 -1.0853 -2.1793
  204MOL0     H27520   9.815   3.784   8.786  0.0767 -2.2734  1.5822
  204MOL0     H27521   9.588   3.669   8.823 -1.7315  1.2981 -0.0162
  204MOL0     H27522   9.079   3.486   8.528  0.4162 -1.5357 -0.1667
  204MOL0     H27523   8.956   3.296   8.603  0.3720  1.0141 -0.7364
  204MOL0     H27524   8.825   2.134  10.115  1.6503 -0.5152 -1.1827
  204MOL0     H27525   8.626   1.968  10.123  0.7087  2.6506  1.7548
  204MOL0     H27526   8.715   1.330   9.973  0.1158  0.3239  0.1659
  204MOL0     H27527   8.585   1.134  10.000  1.6240  0.5241 -1.4133
  204MOL0     H27528   8.396   1.067  10.320 -0.7204 -3.3153  1.9666
  204MOL0     H27529   8.486   0.998  10.180 -1.2445 -1.1712 -0.1739
  204MOL0     H27530   8.339   0.815  10.256  0.1324  0.5646  0.3389
  204MOL0     H27531   8.283   0.875  10.110 -1.7036  0.6808  0.3369
  204MOL0     H27532   8.089   0.985  10.252  1.9019  2.4223  0.7106
  204MOL0     H27533   8.185   0.949  10.395  1.2036 -1.0939 -0.1828
  204MOL0     H27534   7.994   0.772  10.348 -0.0361 -2.3871 -2.6324
  204MOL0     H27535   8.078   0.741  10.204  0.7675  0.3908 -0.6401
  204MOL0     H27536   8.324   0.543  10.478  0.8556  1.1385  1.6008
  204MOL0     H27537   8.283   1.335  10.207  1.2423 -2.4091  1.7590
  204MOL0     H27538   8.410   1.655  10.097  1.5222  1.3181  0.8184
  204MOL0     H27539   8.269   1.591  10.177  0.6984 -2.4062 -0.9786
  204MOL0     H27540   8.403   1.628  10.283 -2.1763 -0.5490  0.3969
  205MOL0     O27541   7.248   9.802   8.816 -0.3058  0.1946 -0.1716
  205MOL0     C27542   7.252   9.877   8.916  0.1670 -0.1891  0.3244
  205MOL0     O27543   7.309   9.849   9.031 -0.3808  0.1181  0.0543
  205MOL0     C27544   7.389   9.740   9.028  0.2150 -0.0138 -0.2251
  205MOL0     C27545   7.331   9.620   9.068 -0.0405  0.0568 -0.3057
  205MOL0     C27546   7.405   9.501   9.071  0.1294 -0.1424 -0.2811
  205MOL0     C27547   7.538   9.495   9.025 -0.7843  0.8144 -0.1078
  205MOL0     O27548   7.609   9.374   9.021  0.4420 -0.3296 -0.0436
  205MOL0     C27549   7.725   9.364   8.951 -0.0803 -0.3952  0.1486
  205MOL0     C27550   7.762   9.218   8.952 -0.8497  0.3446 -0.0549
  205MOL0     C27551   7.899   9.190   8.897  0.0908  0.4655 -0.5063
  205MOL0     C27552   7.911   9.036   8.892  0.7634 -0.5378 -0.5110
  205MOL0     C27553   8.053   8.998   8.830 -0.0475 -0.4080 -0.1207
  205MOL0     C27554   8.055   8.850   8.805  0.2735 -0.3676 -0.3589
  205MOL0     C27555   8.178   8.808   8.735 -0.5864 -0.3287  0.3618
  205MOL0     C27556   8.295   8.792   8.824 -0.1645  0.0138  0.7785
  205MOL0     N27557   8.404   8.714   8.761 -0.6956 -0.5670  0.1887
  205MOL0     C27558   8.521   8.767   8.722 -0.6065 -0.3988  0.3433
  205MOL0     C27559   8.598   8.664   8.677  1.0244  0.9342  1.7108
  205MOL0     C27560   8.739   8.677   8.607 -0.3187  0.0670  0.0209
  205MOL0     C27561   8.703   8.678   8.452  0.9459 -0.6762  0.2637
  205MOL0     C27562   8.827   8.698   8.366  0.8492  0.8703 -0.0387
  205MOL0     C27563   8.906   8.826   8.385  0.9035  0.3151 -0.3191
  205MOL0     O27564   9.007   8.827   8.286  0.4011 -0.0839 -0.3054
  205MOL0     C27565   9.111   8.912   8.301  0.3616 -0.4305  1.2423
  205MOL0     C27566   9.220   8.882   8.217  0.0357  0.6852  0.5839
  205MOL0     C27567   9.334   8.960   8.213 -0.0145 -0.0710  0.1685
  205MOL0     C27568   9.342   9.073   8.301  0.6112  0.7837 -0.2080
  205MOL0     C27569   9.461   9.157   8.330  0.2549  0.0737 -0.0243
  205MOL0     O27570   9.459   9.236   8.445 -0.6615  0.9099  0.3089
  205MOL0     C27571   9.575   9.308   8.484  0.1371  0.3489 -0.4618
  205MOL0     C27572   9.550   9.426   8.543  0.5955  0.0995  0.0026
  205MOL0     C27573   9.646   9.491   8.620  0.8971 -0.0385 -0.4128
  205MOL0     C27574   9.781   9.446   8.619 -0.3791 -0.7829  0.0363
  205MOL0     O27575   9.887   9.504   8.686 -0.8494  0.2359  0.6727
  205MOL0     C27576   9.869   9.643   8.719 -0.1583  0.5072  0.1853
  205MOL0     C27577  10.003   9.685   8.774 -0.7573 -0.8214 -0.1129
  205MOL0     C27578  10.105   9.702   8.658  0.6273 -0.5839  0.2181
  205MOL0     C27579  10.241   9.738   8.714 -0.0320  0.1599 -0.6169
  205MOL0     C27580  10.351   9.753   8.600 -0.1240  0.4410 -0.3492
  205MOL0     C27581  10.416   9.615   8.568  0.4273  0.5616 -0.2654
  205MOL0     C27582  10.485   9.601   8.430 -0.0900 -0.1615  0.1423
  205MOL0     C27583  10.616   9.683   8.425  0.0838  1.0258 -0.1266
  205MOL0    Cl27584  10.737   9.619   8.541 -0.0210  0.0406 -0.0177
  205MOL0     C27585   9.815   9.333   8.546 -0.4611  0.3742  0.1097
  205MOL0     C27586   9.710   9.266   8.480  0.8139 -0.1680 -0.1117
  205MOL0     O27587   9.551   9.158   8.252 -0.6860  0.0805  0.1831
  205MOL0     C27588   9.229   9.090   8.387 -0.6123 -0.0601  0.2031
  205MOL0     C27589   9.115   9.020   8.383  0.0686  0.1830 -0.1564
  205MOL0     N27590   8.522   8.548   8.698 -0.0901 -0.8021  0.6407
  205MOL0     N27591   8.409   8.580   8.752 -0.0627 -0.2636  0.8930
  205MOL0     C27592   7.593   9.618   8.971  0.9334  0.3378  0.1772
  205MOL0     C27593   7.521   9.746   8.981  0.5260 -0.6514  0.7526
  205MOL0     C27594   7.190  10.009   8.903  0.8206 -0.9204 -1.1477
  205MOL0     C27595   7.056  10.006   8.851  0.1455  0.1813 -0.6318
  205MOL0     C27596   6.982  10.117   8.841  0.8979  0.6864  0.5384
  205MOL0     C27597   7.026  10.245   8.881 -0.4072  0.6734 -0.5414
  205MOL0     O27598   6.963  10.361   8.899 -0.2575  0.0300 -0.3907
  205MOL0     C27599   6.826  10.368   8.866 -0.1087 -0.4133  0.2852
  205MOL0     C27600   6.770  10.443   8.976 -0.2626 -0.6253 -0.0770
  205MOL0     C27601   6.756  10.376   9.111 -0.6322 -0.6049 -0.3123
  205MOL0     C27602   6.888  10.363   9.202  0.3626  0.1430 -0.0502
  205MOL0     C27603   6.845  10.330   9.336  0.0847  0.2184 -0.4624
  205MOL0     C27604   6.814  10.305   9.451 -0.8177 -1.4318 -0.2783
  205MOL0     C27605   7.154  10.244   8.941  0.7617  0.3231 -0.0989
  205MOL0     C27606   7.237  10.134   8.953 -0.0950  1.1454  0.0199
  205MOL0     C27607   7.370  10.147   9.025  0.0671  0.1935  0.4067
  205MOL0     H27608   7.227   9.609   9.097  0.4215  0.0165  1.4673
  205MOL0     H27609   7.369   9.408   9.113  3.0840 -0.7769  1.0990
  205MOL0     H27610   7.726   9.408   8.851  1.5255  1.5923  0.9807
  205MOL0     H27611   7.803   9.422   9.001 -0.4350  2.2528 -2.0727
  205MOL0     H27612   7.689   9.160   8.895  0.2126  0.6433 -1.8050
  205MOL0     H27613   7.751   9.177   9.053 -0.3001  0.2976 -0.0093
  205MOL0     H27614   7.962   9.230   8.976  0.2833 -1.6052  0.4610
  205MOL0     H27615   7.914   9.244   8.803 -3.1531 -0.2012 -1.5355
  205MOL0     H27616   7.904   8.994   8.993  1.0295 -1.0046 -0.6840
  205MOL0     H27617   7.836   8.999   8.821 -0.8935  1.6214  0.0291
  205MOL0     H27618   8.053   9.047   8.732  0.3494  0.1219  0.1432
  205MOL0     H27619   8.134   9.038   8.891 -0.2665 -1.6741  1.0273
  205MOL0     H27620   8.049   8.793   8.898 -2.6004 -0.7452 -0.6907
  205MOL0     H27621   7.974   8.821   8.738  0.4122 -2.9590  0.4774
  205MOL0     H27622   8.208   8.884   8.663 -0.3778  0.2749  1.0768
  205MOL0     H27623   8.157   8.711   8.688  3.5525 -2.6973  2.7690
  205MOL0     H27624   8.336   8.887   8.859 -1.9701  2.2145 -2.5544
  205MOL0     H27625   8.256   8.737   8.910 -4.0869 -1.6857 -1.7786
  205MOL0     H27626   8.550   8.871   8.727  1.8529 -1.0568  1.5354
  205MOL0     H27627   8.797   8.764   8.641  1.9649 -0.7247 -1.6262
  205MOL0     H27628   8.792   8.582   8.620  0.1375 -0.3769 -3.8993
  205MOL0     H27629   8.673   8.575   8.432 -2.4794  0.6152 -2.0557
  205MOL0     H27630   8.618   8.745   8.433  0.1235 -1.4570  1.0725
  205MOL0     H27631   8.783   8.710   8.267  1.2769 -0.9275 -0.4827
  205MOL0     H27632   8.899   8.615   8.366  0.1912  0.2821 -0.6802
  205MOL0     H27633   8.948   8.833   8.486 -0.3998  0.8717  0.2086
  205MOL0     H27634   8.844   8.916   8.381 -0.2690 -0.4952 -3.4147
  205MOL0     H27635   9.236   8.792   8.159  1.0516 -0.1715  2.1125
  205MOL0     H27636   9.422   8.928   8.159 -0.8754 -1.8896 -0.2188
  205MOL0     H27637   9.445   9.452   8.549 -0.0627 -1.9608 -1.4495
  205MOL0     H27638   9.610   9.576   8.677 -1.8863  0.9325 -3.3335
  205MOL0     H27639   9.837   9.710   8.638 -1.2112  2.4077  2.0648
  205MOL0     H27640   9.792   9.647   8.797  0.2015 -1.6061  0.7147
  205MOL0     H27641   9.996   9.783   8.822 -0.0897 -1.4537  1.3387
  205MOL0     H27642  10.032   9.610   8.848  1.9509  0.2858  0.0757
  205MOL0     H27643  10.108   9.617   8.590 -1.6165 -0.2196 -0.4374
  205MOL0     H27644  10.069   9.787   8.599 -0.3559 -0.3771  1.0728
  205MOL0     H27645  10.284   9.668   8.785 -0.1592 -1.2515 -1.8898
  205MOL0     H27646  10.237   9.840   8.756  2.1697 -0.4309  1.2360
  205MOL0     H27647  10.428   9.819   8.641  1.1027 -1.7652  1.1439
  205MOL0     H27648  10.294   9.789   8.514 -0.4679 -1.7004 -1.0783
  205MOL0     H27649  10.483   9.577   8.647 -2.8966 -0.3845  2.3488
  205MOL0     H27650  10.334   9.543   8.560  1.4483 -0.7351  0.4329
  205MOL0     H27651  10.417   9.638   8.352 -0.1388 -0.2411  0.1471
  205MOL0     H27652  10.497   9.493   8.420  3.9491 -0.0591  2.0103
  205MOL0     H27653  10.660   9.668   8.326 -1.3337  0.3632 -0.6838
  205MOL0     H27654  10.595   9.786   8.455 -0.0902  0.4801  1.7440
  205MOL0     H27655   9.917   9.297   8.530 -1.0450 -0.9700 -0.7549
  205MOL0     H27656   9.730   9.173   8.427 -2.6390 -1.1350  0.0214
  205MOL0     H27657   9.237   9.163   8.467  0.3686 -1.6261  1.6174
  205MOL0     H27658   9.040   9.046   8.458  1.5264  0.4245  1.2706
  205MOL0     H27659   7.699   9.629   8.948  0.6633  4.9161  0.2835
  205MOL0     H27660   7.572   9.836   8.948 -1.5452 -0.6524 -3.0418
  205MOL0     H27661   7.008   9.925   8.796  1.6135  0.0069 -1.6960
  205MOL0     H27662   6.883  10.098   8.799  1.8681 -2.0721 -0.7450
  205MOL0     H27663   6.772  10.273   8.866 -0.7974 -0.1203 -2.6527
  205MOL0     H27664   6.813  10.411   8.766 -4.1972 -0.0690  0.7909
  205MOL0     H27665   6.669  10.465   8.939 -1.2819 -4.2204  0.1903
  205MOL0     H27666   6.819  10.539   8.995 -2.5153  1.3074 -2.9745
  205MOL0     H27667   6.709  10.280   9.091 -0.1573 -1.0154  0.4668
  205MOL0     H27668   6.680  10.434   9.164 -1.5251 -2.8440  0.9679
  205MOL0     H27669   6.961  10.291   9.163  0.9077  0.8218 -0.2894
  205MOL0     H27670   6.941  10.457   9.213  2.3877 -0.6965 -1.8015
  205MOL0     H27671   6.774  10.281   9.548  0.4211  3.2818  1.6611
  205MOL0     H27672   7.178  10.334   8.997 -0.7253  1.3018 -0.9479
  205MOL0     H27673   7.395  10.253   9.039  0.7752  0.1148 -0.2236
  205MOL0     H27674   7.350  10.104   9.124 -0.0376  0.8191  0.6645
  205MOL0     H27675   7.456  10.093   8.986 -0.8730 -1.2318  0.2645
  206MOL0     O27676  11.055   2.006   9.381 -0.3991  0.6880  1.1186
  206MOL0     C27677  10.978   2.032   9.466  0.6650 -0.1960 -0.2064
  206MOL0     O27678  11.012   2.081   9.592  0.1174  0.6190  0.1688
  206MOL0     C27679  11.143   2.128   9.597  0.3285  0.5398 -0.2396
  206MOL0     C27680  11.255   2.046   9.607  1.1147  0.3824  0.6473
  206MOL0     C27681  11.387   2.096   9.595 -0.1991 -0.3323  0.3202
  206MOL0     C27682  11.413   2.236   9.580 -0.7032 -0.4215  0.8793
  206MOL0     O27683  11.538   2.286   9.566  0.8422 -0.5671  0.3822
  206MOL0     C27684  11.597   2.250   9.440  0.0345 -0.4957  0.2703
  206MOL0     C27685  11.748   2.290   9.446 -0.0009 -0.3311 -0.1272
  206MOL0     C27686  11.830   2.231   9.326  0.1332  0.6649 -0.7848
  206MOL0     C27687  11.980   2.264   9.341  0.1763  0.1903  0.2466
  206MOL0     C27688  12.068   2.163   9.263 -0.2623 -0.0351 -0.1794
  206MOL0     C27689  12.221   2.196   9.275 -0.4765 -0.1781 -0.1808
  206MOL0     C27690  12.317   2.084   9.244  0.4815 -0.1518  0.1849
  206MOL0     C27691  12.310   2.001   9.112  0.5518 -0.1686  0.1488
  206MOL0     N27692  12.436   1.918   9.101  0.1027  0.8098  0.0290
  206MOL0     C27693  12.454   1.796   9.163 -1.5615  1.0361 -0.2781
  206MOL0     C27694  12.569   1.744   9.100 -0.1706 -0.4995  0.3928
  206MOL0     C27695  12.639   1.611   9.114 -0.0584  0.1347  0.2320
  206MOL0     C27696  12.584   1.524   8.999  0.0932  0.5560 -0.4115
  206MOL0     C27697  12.621   1.369   9.009 -1.0246 -0.3876  0.6708
  206MOL0     C27698  12.764   1.345   8.951  0.1899  0.0849 -0.5661
  206MOL0     O27699  12.800   1.218   9.008  0.1982  0.7593  0.1344
  206MOL0     C27700  12.921   1.152   8.984  0.1704 -0.1059 -0.7223
  206MOL0     C27701  13.002   1.203   8.890 -0.5201 -0.2900 -0.0133
  206MOL0     C27702  13.129   1.146   8.873  0.1569 -0.5697  0.5419
  206MOL0     C27703  13.172   1.027   8.935  0.1381  0.5610 -0.1055
  206MOL0     C27704  13.294   0.946   8.899 -0.9661 -0.3279 -0.1082
  206MOL0     O27705  13.384   1.007   8.813  0.2399 -0.0170  0.0106
  206MOL0     C27706  13.520   0.963   8.827  0.5188  0.4219  0.2774
  206MOL0     C27707  13.578   0.951   8.955 -0.7599 -0.7486 -0.2190
  206MOL0     C27708  13.712   0.919   8.977 -0.7402 -0.0506  0.7664
  206MOL0     C27709  13.785   0.867   8.864  0.1412 -0.6657 -1.2880
  206MOL0     O27710  13.911   0.819   8.878  0.3616 -0.3803 -0.1201
  206MOL0     C27711  13.957   0.774   9.005 -0.0723  0.3956  0.0037
  206MOL0     C27712  14.101   0.713   8.981 -0.5642 -0.0770  0.5981
  206MOL0     C27713  14.203   0.794   8.898 -0.0235 -0.5757  0.2589
  206MOL0     C27714  14.317   0.705   8.834  0.6088  1.0113  0.1504
  206MOL0     C27715  14.421   0.681   8.948  0.6499  0.1841 -0.2643
  206MOL0     C27716  14.524   0.577   8.905 -0.5242  0.0905  1.0211
  206MOL0     C27717  14.622   0.624   8.794  0.9805 -0.6079 -0.1466
  206MOL0     C27718  14.734   0.537   8.734  0.3457  0.2292 -0.7035
  206MOL0    Cl27719  14.843   0.460   8.859  0.7597 -0.0151 -0.0967
  206MOL0     C27720  13.730   0.883   8.740  0.3016 -0.3141 -0.0194
  206MOL0     C27721  13.594   0.927   8.721 -0.1237  0.7025  0.2379
  206MOL0     O27722  13.311   0.837   8.948  0.0879 -0.1688 -0.3174
  206MOL0     C27723  13.073   0.969   9.010 -0.1052  0.7675 -1.3361
  206MOL0     C27724  12.953   1.030   9.048  0.4585  1.4307  0.1007
  206MOL0     N27725  12.622   1.842   9.014 -1.0546 -0.4501  0.0600
  206MOL0     N27726  12.548   1.949   9.023 -0.1265  0.7380 -0.4239
  206MOL0     C27727  11.306   2.321   9.591 -0.7635  0.7111  0.4365
  206MOL0     C27728  11.179   2.268   9.602 -0.1629 -0.2853 -0.0234
  206MOL0     C27729  10.830   2.020   9.446 -0.7888 -0.8169 -0.8540
  206MOL0     C27730  10.748   2.098   9.533 -0.5619  1.8623 -0.5447
  206MOL0     C27731  10.610   2.102   9.522 -0.1751  0.9482 -0.0036
  206MOL0     C27732  10.546   2.020   9.426  0.4294 -0.2040 -0.1553
  206MOL0     O27733  10.410   2.027   9.426  0.1025 -0.3457  0.0684
  206MOL0     C27734  10.342   1.992   9.298 -0.0857  0.8250  0.1415
  206MOL0     C27735  10.297   1.848   9.289  0.7120  0.2989  0.0671
  206MOL0     C27736  10.174   1.823   9.379  0.8166 -0.2639 -0.1803
  206MOL0     C27737  10.045   1.894   9.327 -0.3114 -0.3793 -0.2130
  206MOL0     C27738   9.931   1.829   9.383  0.3031  0.3758 -0.0209
  206MOL0     C27739   9.845   1.761   9.434 -0.7710 -0.6750  0.5379
  206MOL0     C27740  10.622   1.950   9.338 -0.3167 -0.6767  0.5906
  206MOL0     C27741  10.764   1.956   9.337 -0.4582  0.4175  0.3601
  206MOL0     C27742  10.833   1.883   9.227 -0.5987 -0.1393 -0.2375
  206MOL0     H27743  11.242   1.939   9.613  0.3618  0.4680  0.5881
  206MOL0     H27744  11.471   2.028   9.589 -1.9016 -2.9327  3.2499
  206MOL0     H27745  11.582   2.142   9.427 -1.3856 -0.4501  1.2620
  206MOL0     H27746  11.544   2.290   9.354 -0.4238  0.1845  0.8583
  206MOL0     H27747  11.792   2.263   9.542  1.0235 -2.2234 -1.0658
  206MOL0     H27748  11.751   2.399   9.450  0.7174 -0.3705  3.3389
  206MOL0     H27749  11.790   2.283   9.238 -0.6372  0.8483 -0.3400
  206MOL0     H27750  11.812   2.124   9.320 -0.5563  0.7223  0.0611
  206MOL0     H27751  12.001   2.363   9.300  0.5093 -0.9021 -2.4536
  206MOL0     H27752  12.012   2.255   9.445 -1.3506 -2.9912  0.5767
  206MOL0     H27753  12.054   2.061   9.300  0.6402 -0.8361 -1.9040
  206MOL0     H27754  12.027   2.185   9.164 -0.0531  1.8727  0.1205
  206MOL0     H27755  12.247   2.284   9.216 -1.5162  1.5875  1.8532
  206MOL0     H27756  12.241   2.217   9.381  0.0332 -4.7235  0.8345
  206MOL0     H27757  12.323   2.011   9.325 -2.0509 -5.2679 -3.6218
  206MOL0     H27758  12.413   2.136   9.252  1.2982 -0.7494 -3.6076
  206MOL0     H27759  12.222   1.936   9.115  1.2342 -1.0942  0.2133
  206MOL0     H27760  12.315   2.065   9.023  1.7849  1.0878  1.0735
  206MOL0     H27761  12.383   1.747   9.229 -2.6712  0.3871 -1.8766
  206MOL0     H27762  12.748   1.622   9.102  0.9395 -3.0007  4.1223
  206MOL0     H27763  12.622   1.565   9.212 -2.7478 -1.1508 -0.7499
  206MOL0     H27764  12.475   1.535   9.006  0.3584  2.1311  2.4616
  206MOL0     H27765  12.605   1.562   8.898 -4.6738  0.7250 -1.5759
  206MOL0     H27766  12.551   1.303   8.959 -1.7085  1.1733 -0.5128
  206MOL0     H27767  12.627   1.342   9.115  1.2032 -1.1206  0.4167
  206MOL0     H27768  12.833   1.429   8.967 -0.4378  0.2301  1.7598
  206MOL0     H27769  12.759   1.325   8.844  0.0111 -0.8196 -0.3956
  206MOL0     H27770  12.986   1.300   8.843  0.1475  1.2705  2.7423
  206MOL0     H27771  13.201   1.186   8.803  0.8971 -2.5288  0.1280
  206MOL0     H27772  13.517   0.991   9.036 -0.1235 -2.1203  0.9924
  206MOL0     H27773  13.745   0.927   9.081 -0.8712  0.5723  0.7668
  206MOL0     H27774  13.968   0.848   9.084 -2.4286 -2.0707  2.9411
  206MOL0     H27775  13.896   0.689   9.038 -1.9562  1.7013  0.0609
  206MOL0     H27776  14.137   0.696   9.082  1.7931  0.3429 -0.1228
  206MOL0     H27777  14.081   0.617   8.931 -0.5786  0.4715 -0.4896
  206MOL0     H27778  14.153   0.852   8.820  1.0358 -1.9360 -1.4981
  206MOL0     H27779  14.249   0.870   8.963 -0.0833  0.8632 -1.3323
  206MOL0     H27780  14.367   0.769   8.761  0.6850 -0.7096 -1.3709
  206MOL0     H27781  14.280   0.610   8.795  1.7295 -0.1172  1.7168
  206MOL0     H27782  14.368   0.630   9.029 -0.2256  1.0217 -0.2840
  206MOL0     H27783  14.464   0.772   8.993  0.0926 -0.1947  1.0947
  206MOL0     H27784  14.583   0.540   8.990 -0.3853 -0.5348  0.6559
  206MOL0     H27785  14.473   0.493   8.857  0.4493  0.8280 -1.4294
  206MOL0     H27786  14.685   0.703   8.834  0.0482  0.5582 -0.9009
  206MOL0     H27787  14.557   0.659   8.713  1.4806 -0.6485 -0.5726
  206MOL0     H27788  14.693   0.468   8.660  2.7111 -0.2462 -1.6499
  206MOL0     H27789  14.798   0.598   8.669  0.3283  0.2766 -0.6779
  206MOL0     H27790  13.780   0.862   8.646  1.4292 -0.9396  0.7020
  206MOL0     H27791  13.548   0.930   8.622  0.7241 -0.4355 -0.2172
  206MOL0     H27792  13.085   0.869   9.048 -1.5753  1.3573  0.8995
  206MOL0     H27793  12.883   0.986   9.119 -0.6440  0.6929 -1.3711
  206MOL0     H27794  11.334   2.426   9.584  4.5254 -0.4564 -0.8503
  206MOL0     H27795  11.089   2.329   9.599 -1.0816 -1.6425 -1.5854
  206MOL0     H27796  10.801   2.154   9.610  2.7320 -1.9472  0.2849
  206MOL0     H27797  10.537   2.156   9.581 -0.8594  1.1230 -0.9937
  206MOL0     H27798  10.403   2.022   9.212  1.9044  0.2103  1.2789
  206MOL0     H27799  10.253   2.054   9.283  0.3504  1.3009 -0.6010
  206MOL0     H27800  10.373   1.773   9.310  2.0064  1.1995 -1.2341
  206MOL0     H27801  10.258   1.843   9.187  1.6739  0.7118 -0.3338
  206MOL0     H27802  10.194   1.848   9.483 -2.3414 -2.6433  1.1549
  206MOL0     H27803  10.153   1.716   9.385  1.3318 -0.3038  1.0228
  206MOL0     H27804  10.041   1.999   9.358 -0.6785 -0.3540 -0.3438
  206MOL0     H27805  10.044   1.903   9.218 -0.0305 -0.2733 -0.2090
  206MOL0     H27806   9.772   1.693   9.473 -1.3257 -0.3580  0.0602
  206MOL0     H27807  10.572   1.880   9.271 -0.4777 -2.0284  2.0444
  206MOL0     H27808  10.917   1.939   9.183  2.1641 -2.8480  1.2458
  206MOL0     H27809  10.876   1.791   9.266  2.5188  1.1645 -0.2466
  206MOL0     H27810  10.764   1.867   9.143 -0.6657 -1.2030  0.0149
  207MOL0     O27811   4.425   2.933   0.608  0.2730  0.1611 -0.3264
  207MOL0     C27812   4.408   3.015   0.696 -0.8225 -0.4680  0.3559
  207MOL0     O27813   4.510   3.045   0.792 -0.0345 -0.2977 -0.1285
  207MOL0     C27814   4.629   2.991   0.767  0.3721 -0.5282 -0.1281
  207MOL0     C27815   4.677   2.886   0.846  0.9017  0.5934 -0.5037
  207MOL0     C27816   4.804   2.829   0.829  0.1823  0.0182 -0.0246
  207MOL0     C27817   4.897   2.886   0.742 -0.2243  0.5432  0.1278
  207MOL0     O27818   5.017   2.841   0.705 -0.1949 -0.4094 -0.7043
  207MOL0     C27819   5.065   2.755   0.810  0.3378 -0.2361  1.0048
  207MOL0     C27820   5.216   2.741   0.782 -0.3130  0.5825 -0.3576
  207MOL0     C27821   5.290   2.652   0.877 -0.4482  0.4789 -0.0196
  207MOL0     C27822   5.431   2.661   0.842 -0.3407  0.4887  0.5471
  207MOL0     C27823   5.515   2.558   0.905  1.2855  0.1010  0.5289
  207MOL0     C27824   5.662   2.602   0.921 -0.6599 -0.2176  0.9992
  207MOL0     C27825   5.750   2.513   1.003 -0.3824 -0.2852 -0.3519
  207MOL0     C27826   5.823   2.407   0.912  0.0179 -0.6390 -0.2572
  207MOL0     N27827   5.920   2.310   0.973  0.3964  0.3233 -0.6096
  207MOL0     C27828   5.899   2.223   1.078  0.3761  0.9685 -0.1654
  207MOL0     C27829   6.018   2.200   1.141  0.7439 -0.5031  0.5002
  207MOL0     C27830   6.044   2.117   1.259  0.2720  0.9831 -0.6205
  207MOL0     C27831   5.969   1.984   1.257  0.2740  1.2044  0.0523
  207MOL0     C27832   5.980   1.913   1.395 -0.1516  0.1634  0.7844
  207MOL0     C27833   6.122   1.900   1.449 -0.4180 -0.2848 -0.0413
  207MOL0     O27834   6.114   1.796   1.542 -0.5854  0.6712  0.2558
  207MOL0     C27835   6.199   1.803   1.657  0.7413  0.1266  0.0728
  207MOL0     C27836   6.170   1.717   1.764 -0.0030 -0.2089 -1.0690
  207MOL0     C27837   6.244   1.735   1.886 -0.5054  0.3893  0.0745
  207MOL0     C27838   6.358   1.821   1.891  0.2479 -0.2108  0.1566
  207MOL0     C27839   6.434   1.836   2.014 -1.0357 -0.6346 -0.2837
  207MOL0     O27840   6.396   1.765   2.123 -0.1617  0.1503  0.3905
  207MOL0     C27841   6.456   1.784   2.242  1.0444  0.2922 -0.2995
  207MOL0     C27842   6.450   1.672   2.322 -0.2378 -0.3363  0.2889
  207MOL0     C27843   6.496   1.672   2.449  0.0046  0.4690 -0.0731
  207MOL0     C27844   6.541   1.793   2.515 -0.3834 -0.6816  0.4545
  207MOL0     O27845   6.595   1.803   2.641 -0.5290  0.3260 -1.3253
  207MOL0     C27846   6.596   1.695   2.733  0.2150  0.0319 -0.1832
  207MOL0     C27847   6.631   1.743   2.877 -0.3140  0.0197  1.0478
  207MOL0     C27848   6.752   1.834   2.892  0.0178  0.2398 -0.1827
  207MOL0     C27849   6.776   1.902   3.029  0.8274  0.8347  0.5154
  207MOL0     C27850   6.786   1.818   3.148 -0.2358 -0.1084 -0.4942
  207MOL0     C27851   6.826   1.910   3.263 -0.3212  0.7297  0.0169
  207MOL0     C27852   6.824   1.828   3.399 -0.3072  0.5897 -0.0144
  207MOL0     C27853   6.819   1.931   3.512  0.4039 -0.2794  0.3346
  207MOL0    Cl27854   6.789   1.876   3.674 -0.0659 -0.0740 -0.1824
  207MOL0     C27855   6.564   1.901   2.428  0.6900  0.3650  0.0132
  207MOL0     C27856   6.512   1.900   2.298 -0.2703 -0.0733 -0.8606
  207MOL0     O27857   6.519   1.929   2.010 -0.0773 -0.3645 -0.1085
  207MOL0     C27858   6.386   1.893   1.776  0.5592  0.3803 -0.1569
  207MOL0     C27859   6.306   1.893   1.664  0.1567 -0.3356 -0.3447
  207MOL0     N27860   6.101   2.295   1.081 -0.2905 -0.3425 -0.9413
  207MOL0     N27861   6.046   2.352   0.978  0.8161  0.7073 -0.0644
  207MOL0     C27862   4.849   2.991   0.654 -0.4299  0.2072 -0.6035
  207MOL0     C27863   4.720   3.050   0.680  0.1858  0.4363  0.4554
  207MOL0     C27864   4.287   3.088   0.692  0.9877 -0.5218  0.2285
  207MOL0     C27865   4.174   3.003   0.682  0.5795 -0.0134  1.2985
  207MOL0     C27866   4.051   3.055   0.694  0.5957 -0.3824  0.9026
  207MOL0     C27867   4.027   3.189   0.699  0.2417  0.2024  0.6817
  207MOL0     O27868   3.893   3.220   0.688  0.2633  0.2596 -0.4725
  207MOL0     C27869   3.844   3.358   0.673 -0.4105  0.0548  0.7464
  207MOL0     C27870   3.691   3.363   0.631 -0.3561 -0.9189 -0.4598
  207MOL0     C27871   3.654   3.515   0.611 -0.2825 -0.2596 -0.0904
  207MOL0     C27872   3.685   3.600   0.738 -0.0800  0.3675  0.1257
  207MOL0     C27873   3.800   3.678   0.712  0.7044  0.9728 -0.2993
  207MOL0     C27874   3.897   3.752   0.692 -0.3853  0.1895 -0.6446
  207MOL0     C27875   4.134   3.275   0.708  0.0383  0.6533  0.0371
  207MOL0     C27876   4.265   3.225   0.698 -0.3684  0.2191 -0.4681
  207MOL0     C27877   4.382   3.323   0.706  0.2710 -0.8619  0.4430
  207MOL0     H27878   4.610   2.839   0.917 -0.3870 -0.1642 -2.1343
  207MOL0     H27879   4.832   2.747   0.894  0.4900 -1.1745 -1.5993
  207MOL0     H27880   5.043   2.794   0.910 -0.9906  4.7771 -0.9285
  207MOL0     H27881   5.015   2.658   0.802  1.4901 -0.9420  2.0611
  207MOL0     H27882   5.251   2.842   0.804  1.4001  0.2728 -1.4631
  207MOL0     H27883   5.235   2.711   0.678 -2.0293 -0.0228 -0.5221
  207MOL0     H27884   5.259   2.549   0.857 -0.1134  0.2067  0.8195
  207MOL0     H27885   5.282   2.683   0.982  0.7865  1.2429 -0.1231
  207MOL0     H27886   5.439   2.633   0.736  0.4330 -3.0991  1.4482
  207MOL0     H27887   5.466   2.764   0.853  2.6047 -0.5241  1.5715
  207MOL0     H27888   5.467   2.523   0.997  0.9072  1.0246  0.6976
  207MOL0     H27889   5.513   2.464   0.849 -3.5576 -0.2375  0.8022
  207MOL0     H27890   5.705   2.632   0.824 -2.8893 -1.2442 -0.3963
  207MOL0     H27891   5.666   2.698   0.973  3.1567  0.6168 -0.4600
  207MOL0     H27892   5.689   2.463   1.078  4.1867 -2.5911  2.2205
  207MOL0     H27893   5.830   2.571   1.050 -1.0549 -1.7771  2.8810
  207MOL0     H27894   5.741   2.357   0.858 -2.4195 -0.8190  3.2491
  207MOL0     H27895   5.887   2.461   0.842  0.3419  0.1778  0.6453
  207MOL0     H27896   5.802   2.190   1.114 -0.4804  1.0359 -2.2591
  207MOL0     H27897   6.149   2.088   1.272 -0.2668 -0.9419 -0.1308
  207MOL0     H27898   6.013   2.168   1.350  1.7122  2.4834 -0.9152
  207MOL0     H27899   5.862   1.996   1.238  0.4106  3.1702  0.3155
  207MOL0     H27900   6.020   1.914   1.190  0.7615  1.1903  0.4305
  207MOL0     H27901   5.943   1.810   1.392 -0.3215  0.1704  2.0334
  207MOL0     H27902   5.919   1.968   1.466 -2.6594 -0.8655 -0.4675
  207MOL0     H27903   6.148   1.995   1.497 -1.1043  0.7723 -1.6800
  207MOL0     H27904   6.202   1.886   1.377 -0.6679 -2.6242  0.0707
  207MOL0     H27905   6.084   1.652   1.754 -2.9456  3.2755 -0.7587
  207MOL0     H27906   6.214   1.661   1.961 -0.5463  2.3567  2.0995
  207MOL0     H27907   6.406   1.576   2.296 -1.8034  0.6101 -0.7660
  207MOL0     H27908   6.485   1.584   2.512  1.2980  0.5454  0.2761
  207MOL0     H27909   6.499   1.645   2.735  0.6046 -0.7221  1.5360
  207MOL0     H27910   6.672   1.625   2.695  1.8785  0.4219  2.2069
  207MOL0     H27911   6.542   1.789   2.921 -0.9358 -1.8011  1.7769
  207MOL0     H27912   6.642   1.660   2.947 -1.7165 -0.7240  0.4359
  207MOL0     H27913   6.848   1.788   2.865  1.2119  1.3422  1.8937
  207MOL0     H27914   6.741   1.913   2.817  0.5055  1.4105  0.9421
  207MOL0     H27915   6.690   1.968   3.048  0.0673  0.1706 -0.5034
  207MOL0     H27916   6.869   1.960   3.022  1.3834 -0.1102 -0.0926
  207MOL0     H27917   6.852   1.732   3.137  1.5665  1.0743  0.5839
  207MOL0     H27918   6.684   1.784   3.166 -0.4737  0.1953 -1.2255
  207MOL0     H27919   6.920   1.966   3.259 -0.0471  0.4415  1.5869
  207MOL0     H27920   6.752   1.991   3.265 -1.3778  0.0307 -3.5167
  207MOL0     H27921   6.916   1.769   3.410 -1.1168 -0.6078  0.5290
  207MOL0     H27922   6.728   1.776   3.408 -0.7769  1.5483  0.8313
  207MOL0     H27923   6.910   1.991   3.513  0.4831 -0.2763  3.2832
  207MOL0     H27924   6.733   1.991   3.482 -0.4801 -1.3546  0.6492
  207MOL0     H27925   6.618   1.986   2.469  1.1332  1.1913 -2.1411
  207MOL0     H27926   6.509   1.992   2.240 -0.2269  0.1635 -0.4911
  207MOL0     H27927   6.464   1.969   1.781  0.7401  0.1657  0.2561
  207MOL0     H27928   6.346   1.958   1.587  1.9469 -1.1245 -0.1163
  207MOL0     H27929   4.915   3.036   0.581  1.8622  2.5586  2.5851
  207MOL0     H27930   4.694   3.126   0.607 -1.9756 -3.5089 -3.4037
  207MOL0     H27931   4.184   2.897   0.661  3.1637  0.4917 -0.4818
  207MOL0     H27932   3.969   2.984   0.685  0.4440 -0.0595 -0.4453
  207MOL0     H27933   3.896   3.397   0.585 -0.6902  1.6131  1.2388
  207MOL0     H27934   3.881   3.419   0.755  4.2343  3.0358 -3.0178
  207MOL0     H27935   3.628   3.328   0.714  3.8057 -2.0404  2.5099
  207MOL0     H27936   3.676   3.310   0.537  2.0170 -0.9547 -0.8581
  207MOL0     H27937   3.546   3.527   0.596 -0.7603 -1.8775  1.6674
  207MOL0     H27938   3.709   3.539   0.519 -1.7951 -1.5233 -1.4005
  207MOL0     H27939   3.595   3.656   0.765 -0.6766 -0.7120  0.4642
  207MOL0     H27940   3.711   3.534   0.822  2.8089 -0.7031 -1.4628
  207MOL0     H27941   3.987   3.808   0.674 -1.2797  1.3787 -1.5811
  207MOL0     H27942   4.124   3.382   0.718 -0.2964  0.6008  0.2792
  207MOL0     H27943   4.404   3.356   0.809  3.8490 -2.0643  0.2227
  207MOL0     H27944   4.471   3.270   0.671  0.3182 -1.0476  0.8406
  207MOL0     H27945   4.373   3.409   0.639  2.6602  1.1818  2.4958
  208MOL0     O27946   8.297   2.931   4.603 -0.4864 -0.1856 -0.7068
  208MOL0     C27947   8.339   2.920   4.489  0.4146  0.1102 -1.3612
  208MOL0     O27948   8.433   2.830   4.442 -0.2789 -0.3676 -0.2097
  208MOL0     C27949   8.516   2.765   4.536 -0.3122  0.8343  0.3479
  208MOL0     C27950   8.650   2.780   4.507 -0.5101 -0.0683 -0.5367
  208MOL0     C27951   8.744   2.717   4.586 -0.5246 -0.0752  1.1483
  208MOL0     C27952   8.712   2.628   4.685  1.8999  0.2119 -0.4627
  208MOL0     O27953   8.804   2.551   4.751  0.1381 -0.2224 -0.0995
  208MOL0     C27954   8.892   2.476   4.669  0.3180  0.0137  0.4010
  208MOL0     C27955   9.006   2.439   4.772 -0.5536  0.3129 -0.2646
  208MOL0     C27956   9.141   2.423   4.717  0.2193  0.6584 -1.0751
  208MOL0     C27957   9.177   2.273   4.700  0.3347 -0.5934  0.0613
  208MOL0     C27958   9.325   2.274   4.656 -0.0662 -0.3907 -0.2212
  208MOL0     C27959   9.425   2.271   4.774 -0.6606  0.3561 -0.7500
  208MOL0     C27960   9.572   2.285   4.721  0.5004 -0.4546 -0.5308
  208MOL0     C27961   9.685   2.281   4.827  0.1998 -0.3942  0.6770
  208MOL0     N27962   9.822   2.291   4.766 -0.2279 -0.2284  0.3778
  208MOL0     C27963   9.860   2.371   4.658 -1.2197  1.7132  0.1403
  208MOL0     C27964   9.995   2.337   4.640 -0.1496 -0.0465 -0.6332
  208MOL0     C27965  10.079   2.400   4.542  0.6129  0.3566 -0.3191
  208MOL0     C27966  10.218   2.393   4.591 -0.3376 -0.4637  0.2772
  208MOL0     C27967  10.301   2.456   4.480 -1.0757 -0.1378  0.0203
  208MOL0     C27968  10.455   2.456   4.509  0.4700 -0.7670  0.1651
  208MOL0     O27969  10.524   2.534   4.408  0.4889 -0.7964  0.0822
  208MOL0     C27970  10.657   2.568   4.408 -0.3123 -0.1219  0.2935
  208MOL0     C27971  10.747   2.529   4.509 -1.1596  0.3717  0.4909
  208MOL0     C27972  10.878   2.574   4.501  0.0227  0.4652 -0.1732
  208MOL0     C27973  10.931   2.652   4.396 -0.4463 -1.0449 -0.4152
  208MOL0     C27974  11.075   2.692   4.377 -0.3187 -0.2399 -0.6176
  208MOL0     O27975  11.099   2.774   4.274 -0.6986  0.3485  0.2749
  208MOL0     C27976  11.226   2.815   4.245 -0.1803  0.4421 -0.0575
  208MOL0     C27977  11.307   2.894   4.326 -1.1555  0.6296  1.0217
  208MOL0     C27978  11.427   2.953   4.279  0.4852  0.0724  0.0424
  208MOL0     C27979  11.468   2.933   4.152 -0.8230 -0.2375 -0.2823
  208MOL0     O27980  11.583   2.994   4.118 -1.2805 -0.4263 -0.0876
  208MOL0     C27981  11.657   2.956   4.003 -1.5097  0.4964  0.0547
  208MOL0     C27982  11.630   3.042   3.884  0.7795  0.0475 -0.1631
  208MOL0     C27983  11.738   3.027   3.786 -0.0258 -0.5637  0.5723
  208MOL0     C27984  11.742   3.138   3.680 -0.0512  0.7314 -0.4029
  208MOL0     C27985  11.784   3.282   3.720  0.2179  1.8256  0.4205
  208MOL0     C27986  11.940   3.278   3.719 -0.7574  0.7696 -0.1848
  208MOL0     C27987  11.985   3.419   3.754 -0.8683  0.6340  0.4587
  208MOL0     C27988  12.140   3.440   3.769 -0.8983  0.2437 -0.2353
  208MOL0    Cl27989  12.220   3.478   3.617  0.0235  0.5218 -0.1000
  208MOL0     C27990  11.384   2.862   4.064 -0.0069  0.8639 -0.0307
  208MOL0     C27991  11.270   2.805   4.113 -0.1676 -0.2312 -0.3424
  208MOL0     O27992  11.167   2.645   4.451 -0.0666 -0.7993 -0.5340
  208MOL0     C27993  10.836   2.685   4.294  0.4611  0.5395 -0.6370
  208MOL0     C27994  10.701   2.639   4.300 -1.2737  0.6857  0.7991
  208MOL0     N27995  10.020   2.236   4.727 -0.0861  0.5901  0.0113
  208MOL0     N27996   9.921   2.208   4.800  0.4520  0.0712 -0.4181
  208MOL0     C27997   8.570   2.604   4.700  0.0405  0.0767  0.0105
  208MOL0     C27998   8.468   2.685   4.644  0.0257  0.1279 -0.0564
  208MOL0     C27999   8.290   3.030   4.400  0.3885  0.3223 -0.5319
  208MOL0     C28000   8.166   3.023   4.349 -0.0825  0.0432  0.5296
  208MOL0     C28001   8.108   3.124   4.273 -0.2214  0.5169  0.6146
  208MOL0     C28002   8.181   3.236   4.241 -0.8038 -0.1352  1.1385
  208MOL0     O28003   8.107   3.330   4.184 -0.7211  0.4736  0.1457
  208MOL0     C28004   8.134   3.468   4.219 -0.5476  0.1577 -0.3933
  208MOL0     C28005   8.021   3.557   4.197 -0.6886 -0.3627 -0.0768
  208MOL0     C28006   8.076   3.684   4.216  0.7572 -1.2050  0.1838
  208MOL0     C28007   7.972   3.797   4.217  0.2362  0.5716 -0.2491
  208MOL0     C28008   7.929   3.805   4.355 -0.5489  0.0630 -0.1097
  208MOL0     C28009   7.889   3.805   4.466  1.1496  0.5447 -0.6091
  208MOL0     C28010   8.312   3.254   4.300  0.1204 -0.5162 -0.3480
  208MOL0     C28011   8.365   3.149   4.380  0.1063 -0.2849  0.2826
  208MOL0     C28012   8.505   3.157   4.434  0.7036 -0.2777 -0.0484
  208MOL0     H28013   8.663   2.858   4.433 -1.9902  0.4748 -0.2698
  208MOL0     H28014   8.849   2.731   4.562 -0.7900 -0.3980 -0.3219
  208MOL0     H28015   8.837   2.391   4.626 -0.8383  1.0995 -0.3219
  208MOL0     H28016   8.937   2.536   4.589 -2.4750  1.2938 -0.3156
  208MOL0     H28017   8.978   2.349   4.827  0.6166  0.6466  0.9337
  208MOL0     H28018   9.016   2.515   4.851 -0.4786  1.2048 -1.1113
  208MOL0     H28019   9.210   2.477   4.781  0.5785  1.3965 -2.0611
  208MOL0     H28020   9.133   2.459   4.614  0.9474 -2.4643 -2.3281
  208MOL0     H28021   9.170   2.227   4.800  0.9061 -0.7443  0.0388
  208MOL0     H28022   9.113   2.216   4.633 -0.5165  1.1152 -0.6481
  208MOL0     H28023   9.349   2.182   4.603 -0.2744 -1.4957  1.5138
  208MOL0     H28024   9.343   2.371   4.608  1.3581 -0.8013 -0.5642
  208MOL0     H28025   9.402   2.358   4.836  2.3836 -1.2638  3.1672
  208MOL0     H28026   9.408   2.180   4.833 -2.2978 -0.8635 -2.9461
  208MOL0     H28027   9.579   2.383   4.671  0.3376  1.7685  3.3599
  208MOL0     H28028   9.585   2.207   4.645  0.0900  0.5087 -1.6255
  208MOL0     H28029   9.669   2.359   4.902  0.1177  0.4409 -0.1911
  208MOL0     H28030   9.693   2.183   4.873  1.9174 -1.2791 -1.3426
  208MOL0     H28031   9.801   2.440   4.599 -2.1472  1.7873  1.1279
  208MOL0     H28032  10.063   2.343   4.450 -1.4974  0.7095 -0.2222
  208MOL0     H28033  10.040   2.501   4.532 -2.6744 -0.6195  1.2749
  208MOL0     H28034  10.219   2.440   4.690 -0.2474 -2.6893  1.4148
  208MOL0     H28035  10.257   2.291   4.596 -1.6918 -0.9985  0.5745
  208MOL0     H28036  10.275   2.562   4.471 -2.3148 -0.4575 -0.2877
  208MOL0     H28037  10.288   2.405   4.384 -0.1478  0.4818 -0.4444
  208MOL0     H28038  10.498   2.356   4.511  2.9385  0.2551  1.2393
  208MOL0     H28039  10.473   2.510   4.603 -0.2369 -1.4845  0.7291
  208MOL0     H28040  10.714   2.461   4.587 -1.2468 -1.9711 -1.4559
  208MOL0     H28041  10.944   2.525   4.572 -3.6255 -3.2659  1.1148
  208MOL0     H28042  11.277   2.919   4.427  0.1454  2.3254  1.0267
  208MOL0     H28043  11.482   3.007   4.355 -0.4025 -0.3416  0.9973
  208MOL0     H28044  11.763   2.955   4.029 -1.4970  1.2806  0.0567
  208MOL0     H28045  11.638   2.853   3.970  0.8514 -0.5839  1.7632
  208MOL0     H28046  11.529   3.015   3.851 -0.0839  4.1128 -1.3725
  208MOL0     H28047  11.632   3.147   3.913 -0.2077  0.2409 -0.7696
  208MOL0     H28048  11.830   3.030   3.846 -0.3761 -2.2767  1.2782
  208MOL0     H28049  11.726   2.927   3.743  1.0212 -0.9793  1.2079
  208MOL0     H28050  11.641   3.147   3.638 -0.7688 -3.1938  0.1197
  208MOL0     H28051  11.811   3.104   3.603  0.5037  1.6089 -0.3094
  208MOL0     H28052  11.742   3.299   3.819  0.6244  0.4486  0.8590
  208MOL0     H28053  11.745   3.351   3.645  3.2571  3.2529 -0.0174
  208MOL0     H28054  11.962   3.211   3.803  0.4004  1.8959  0.4282
  208MOL0     H28055  11.987   3.239   3.629 -0.4730  0.0232  0.2773
  208MOL0     H28056  11.939   3.453   3.847  0.0600  2.7187  0.1933
  208MOL0     H28057  11.946   3.489   3.680 -1.1564 -0.3492 -0.3447
  208MOL0     H28058  12.165   3.522   3.837 -0.6034  0.2076 -0.2960
  208MOL0     H28059  12.193   3.349   3.799 -2.9649 -1.1703 -0.6620
  208MOL0     H28060  11.403   2.839   3.960 -1.3465 -1.8280  0.2247
  208MOL0     H28061  11.209   2.757   4.037 -1.5989  2.8893 -1.3111
  208MOL0     H28062  10.852   2.752   4.210 -2.1869  3.5060  1.0410
  208MOL0     H28063  10.638   2.659   4.214  0.5212 -3.0141 -1.6918
  208MOL0     H28064   8.525   2.524   4.758 -5.0774 -0.7781 -4.2979
  208MOL0     H28065   8.364   2.672   4.669 -0.1032  1.5285  0.2068
  208MOL0     H28066   8.114   2.934   4.384  0.7277  0.8797  4.3046
  208MOL0     H28067   8.007   3.106   4.238 -0.0743  2.4850 -0.9749
  208MOL0     H28068   8.207   3.506   4.146  0.2379  0.9569  0.7728
  208MOL0     H28069   8.171   3.479   4.322 -2.8812  0.4575  0.4591
  208MOL0     H28070   7.949   3.530   4.275 -0.8656  0.2058 -0.0346
  208MOL0     H28071   7.983   3.533   4.097 -1.7768  0.2267  0.1804
  208MOL0     H28072   8.140   3.707   4.130  1.3421  2.1059  1.3357
  208MOL0     H28073   8.141   3.696   4.303 -0.9498  2.2912  1.1858
  208MOL0     H28074   8.022   3.892   4.200  1.8960 -0.4780 -1.4906
  208MOL0     H28075   7.886   3.799   4.149 -1.8114  0.1537  2.1490
  208MOL0     H28076   7.860   3.793   4.569  4.7167 -0.8735  0.3831
  208MOL0     H28077   8.370   3.343   4.280 -2.6807  1.2444 -1.1830
  208MOL0     H28078   8.502   3.226   4.519  2.0444 -1.0720  0.6775
  208MOL0     H28079   8.544   3.057   4.455 -2.5647 -1.8342 -0.7088
  208MOL0     H28080   8.572   3.209   4.364  3.3418 -1.2081  1.6200
  209MOL0     O28081   5.962   9.397   3.630 -0.1301 -0.0689 -0.7410
  209MOL0     C28082   5.855   9.378   3.696  0.3334 -0.9827  0.7752
  209MOL0     O28083   5.736   9.320   3.652  0.4317  0.1053 -0.4283
  209MOL0     C28084   5.722   9.287   3.523  0.2080 -0.1772  0.5456
  209MOL0     C28085   5.685   9.388   3.437 -0.0479  0.4373 -1.0122
  209MOL0     C28086   5.687   9.370   3.296 -1.3707  0.2951 -1.3761
  209MOL0     C28087   5.747   9.252   3.248 -0.2580 -0.4986 -0.6416
  209MOL0     O28088   5.785   9.231   3.116 -0.3566  0.6819 -0.7032
  209MOL0     C28089   5.866   9.339   3.055  0.1141 -0.6198  0.6340
  209MOL0     C28090   6.005   9.280   3.009  0.0338 -0.7209 -0.0392
  209MOL0     C28091   6.120   9.325   3.096  0.0063 -0.6699  0.1180
  209MOL0     C28092   6.122   9.240   3.228 -0.2713  0.2097 -0.1567
  209MOL0     C28093   6.260   9.251   3.299  0.1270  0.1044 -0.0039
  209MOL0     C28094   6.280   9.381   3.379  0.7919 -0.9206 -0.3340
  209MOL0     C28095   6.425   9.402   3.433 -0.6725  0.1601  0.1121
  209MOL0     C28096   6.429   9.539   3.509  0.1334 -0.5507  0.3339
  209MOL0     N28097   6.558   9.571   3.566  0.4726  0.3700  0.0128
  209MOL0     C28098   6.646   9.682   3.541 -0.0158 -0.6546  0.4151
  209MOL0     C28099   6.764   9.635   3.604 -0.5850 -0.8664  0.1025
  209MOL0     C28100   6.896   9.713   3.612 -0.4430 -0.5254  0.2337
  209MOL0     C28101   6.925   9.803   3.489  0.7146 -0.3322 -0.2169
  209MOL0     C28102   7.060   9.882   3.502 -0.3620  0.3430 -0.0199
  209MOL0     C28103   7.086   9.983   3.387 -0.3473  0.0977  0.6926
  209MOL0     O28104   7.194  10.076   3.417  0.0588 -0.0560 -0.5790
  209MOL0     C28105   7.315  10.036   3.370 -0.9892 -0.0633  0.8516
  209MOL0     C28106   7.359   9.916   3.310 -0.4810 -0.1576  0.1107
  209MOL0     C28107   7.493   9.907   3.265 -0.3797 -0.4914 -0.6149
  209MOL0     C28108   7.589  10.012   3.293 -0.5268  0.0405  0.3108
  209MOL0     C28109   7.730   9.991   3.247  0.0195  0.2919 -0.3962
  209MOL0     O28110   7.820  10.086   3.283  0.2248  0.2789  0.0052
  209MOL0     C28111   7.952  10.093   3.235  0.2244 -0.7253  0.0716
  209MOL0     C28112   8.032  10.157   3.321 -0.5578  0.0910  0.3568
  209MOL0     C28113   8.168  10.162   3.303 -0.6276  0.3114  0.6618
  209MOL0     C28114   8.222  10.110   3.178 -0.3596 -0.5827 -0.3936
  209MOL0     O28115   8.362  10.124   3.176  0.0877  0.1462  0.0879
  209MOL0     C28116   8.412  10.245   3.124 -0.0712  0.0108  0.5098
  209MOL0     C28117   8.555  10.219   3.074 -0.3777 -0.1913  0.7632
  209MOL0     C28118   8.619  10.345   3.026 -0.8507 -0.2431  0.6275
  209MOL0     C28119   8.744  10.318   2.946 -0.0251  0.2797 -0.0263
  209MOL0     C28120   8.856  10.274   3.039  0.1265 -0.1796  1.1540
  209MOL0     C28121   8.977  10.254   2.941  1.1709 -0.5222 -0.4193
  209MOL0     C28122   9.088  10.171   2.996 -0.4763  0.2163  0.1695
  209MOL0     C28123   9.173  10.105   2.888  0.1409  0.2630  0.1093
  209MOL0    Cl28124   9.229  10.226   2.764 -0.3239  0.2264 -0.4637
  209MOL0     C28125   8.139  10.052   3.086  0.1574 -0.1695 -0.1974
  209MOL0     C28126   8.001  10.045   3.109 -0.1485  0.3676  0.3591
  209MOL0     O28127   7.752   9.899   3.180 -0.4518  0.8289 -0.4108
  209MOL0     C28128   7.546  10.127   3.362  0.5182 -0.3136  0.3859
  209MOL0     C28129   7.412  10.136   3.400  0.3150 -0.4676 -0.5422
  209MOL0     N28130   6.748   9.515   3.657  0.2095  0.4407  0.5172
  209MOL0     N28131   6.624   9.477   3.646 -0.5955 -0.0678 -0.0410
  209MOL0     C28132   5.792   9.155   3.339 -0.2494 -0.4284 -0.1312
  209MOL0     C28133   5.788   9.175   3.469  1.1854 -0.1873  1.2280
  209MOL0     C28134   5.862   9.429   3.831  0.1615  0.1242  0.6453
  209MOL0     C28135   5.766   9.516   3.885 -0.0205 -0.3846 -0.0642
  209MOL0     C28136   5.755   9.549   4.017 -0.2388  0.7376 -0.2066
  209MOL0     C28137   5.858   9.504   4.105  0.7263 -1.0353  0.0303
  209MOL0     O28138   5.859   9.540   4.238 -0.3293 -0.6524  0.0787
  209MOL0     C28139   5.777   9.645   4.283  0.1889  0.1782 -0.6537
  209MOL0     C28140   5.781   9.652   4.441  0.7805  0.1000  0.4469
  209MOL0     C28141   5.928   9.669   4.492 -0.3053  0.0500 -0.4574
  209MOL0     C28142   6.003   9.796   4.451 -0.4106  0.0106 -0.2053
  209MOL0     C28143   6.127   9.814   4.532 -0.3480  0.1960 -0.0788
  209MOL0     C28144   6.229   9.817   4.592 -0.2998  0.3494  0.4355
  209MOL0     C28145   5.950   9.413   4.058 -1.3254  0.3032  0.0304
  209MOL0     C28146   5.956   9.370   3.924 -0.6637  0.7368 -0.2529
  209MOL0     C28147   6.071   9.276   3.876 -0.7472 -0.1081 -0.2531
  209MOL0     H28148   5.646   9.477   3.485 -1.3775  0.3506 -1.8960
  209MOL0     H28149   5.651   9.441   3.222  0.1956  1.4582 -1.0627
  209MOL0     H28150   5.805   9.379   2.973 -0.4500  0.4614  1.5449
  209MOL0     H28151   5.893   9.419   3.125  0.8421 -1.3991  1.2635
  209MOL0     H28152   6.037   9.312   2.910 -1.8058 -2.8310 -1.4143
  209MOL0     H28153   5.992   9.173   2.990  2.2632 -1.3613  1.6134
  209MOL0     H28154   6.124   9.432   3.120 -2.0702 -0.3018 -1.0141
  209MOL0     H28155   6.211   9.319   3.035 -0.3981  3.4612 -1.1767
  209MOL0     H28156   6.044   9.281   3.293  0.5910 -1.2600  1.9193
  209MOL0     H28157   6.100   9.136   3.200 -4.0277  1.2958 -1.7536
  209MOL0     H28158   6.273   9.173   3.374 -0.9156  1.4996  1.7235
  209MOL0     H28159   6.330   9.236   3.217 -1.3564 -1.2753 -1.0760
  209MOL0     H28160   6.247   9.464   3.317  1.2340 -0.7986 -0.4126
  209MOL0     H28161   6.214   9.376   3.466 -1.6907 -0.5633 -2.0963
  209MOL0     H28162   6.512   9.402   3.367  0.4346  0.2375  1.5293
  209MOL0     H28163   6.446   9.315   3.495 -1.5518  0.4200  0.7911
  209MOL0     H28164   6.399   9.617   3.438  1.9668 -1.7385 -1.8599
  209MOL0     H28165   6.354   9.543   3.589 -2.2955  0.2655 -1.8326
  209MOL0     H28166   6.632   9.763   3.471 -1.1325 -3.1610 -2.4779
  209MOL0     H28167   6.897   9.769   3.705 -1.7310  1.3123 -0.8005
  209MOL0     H28168   6.973   9.635   3.609 -0.4813 -0.5496 -1.4646
  209MOL0     H28169   6.918   9.750   3.393  0.9694  0.0539 -0.4546
  209MOL0     H28170   6.856   9.888   3.489 -2.0206 -2.3972  0.2998
  209MOL0     H28171   7.142   9.813   3.522 -0.1253  0.5157 -0.4031
  209MOL0     H28172   7.048   9.940   3.594 -0.7415 -1.7582  1.3449
  209MOL0     H28173   7.000  10.047   3.366 -0.2748 -0.3041 -0.9678
  209MOL0     H28174   7.095   9.921   3.297 -0.9961  0.8435  0.0985
  209MOL0     H28175   7.296   9.829   3.297 -3.4682  2.1402 -2.6428
  209MOL0     H28176   7.531   9.814   3.223  1.8110 -0.1249  0.3893
  209MOL0     H28177   7.986  10.200   3.409  0.7243  0.9608  0.6196
  209MOL0     H28178   8.228  10.197   3.387 -0.1054  0.7242  0.1314
  209MOL0     H28179   8.346  10.278   3.043 -0.6504 -2.0124  0.0923
  209MOL0     H28180   8.409  10.316   3.207 -3.6584 -1.3773  1.7501
  209MOL0     H28181   8.607  10.180   3.162  1.0900 -1.2399 -0.5182
  209MOL0     H28182   8.559  10.142   2.996  1.0100  0.7261 -0.0993
  209MOL0     H28183   8.557  10.406   2.960  1.3028 -0.1823 -1.4810
  209MOL0     H28184   8.644  10.406   3.113 -0.9447 -0.2951  0.6916
  209MOL0     H28185   8.769  10.408   2.888 -3.3664  2.1165  1.1199
  209MOL0     H28186   8.736  10.242   2.868  1.1563  0.1957 -0.0783
  209MOL0     H28187   8.831  10.184   3.097  3.1474 -0.7378  1.7373
  209MOL0     H28188   8.877  10.356   3.108 -2.4466  0.6189  1.1023
  209MOL0     H28189   8.942  10.205   2.850 -0.8840  1.4342 -0.7576
  209MOL0     H28190   9.016  10.354   2.921  0.1080 -0.2196 -1.0330
  209MOL0     H28191   9.045  10.090   3.055 -2.7380 -1.5428 -3.5278
  209MOL0     H28192   9.152  10.239   3.053  0.1618  1.2206 -1.6639
  209MOL0     H28193   9.247  10.032   2.922 -1.2705 -1.8069 -1.0722
  209MOL0     H28194   9.101  10.041   2.837  0.3471  0.1927 -0.0989
  209MOL0     H28195   8.170  10.021   2.987 -2.3597  2.7353 -2.1020
  209MOL0     H28196   7.939   9.996   3.035  0.4406 -1.4652  0.9985
  209MOL0     H28197   7.613  10.207   3.392  1.9568 -1.4628  0.3441
  209MOL0     H28198   7.367  10.217   3.456 -0.7000 -0.1329 -1.7878
  209MOL0     H28199   5.847   9.069   3.305  0.5735  0.1928 -0.3962
  209MOL0     H28200   5.835   9.093   3.523 -0.3799 -1.4898  0.6935
  209MOL0     H28201   5.680   9.549   3.827 -2.5167  0.3128  3.6700
  209MOL0     H28202   5.676   9.622   4.034 -0.2550  1.4890 -3.0472
  209MOL0     H28203   5.673   9.618   4.261  0.5528  0.3015 -2.7161
  209MOL0     H28204   5.806   9.741   4.240 -1.3492  1.4786  1.0632
  209MOL0     H28205   5.748   9.557   4.483  3.9309 -0.3859  2.1660
  209MOL0     H28206   5.714   9.719   4.496  2.3991 -0.6709  3.5977
  209MOL0     H28207   5.988   9.585   4.456 -1.5027 -1.1400  0.2114
  209MOL0     H28208   5.931   9.666   4.602 -2.7973 -1.9132 -0.3425
  209MOL0     H28209   6.028   9.785   4.345 -3.6751  1.2973 -1.2396
  209MOL0     H28210   5.938   9.884   4.458 -1.9114 -1.1731  1.8957
  209MOL0     H28211   6.319   9.833   4.648  0.5151 -1.7197 -0.1944
  209MOL0     H28212   6.019   9.378   4.135 -1.7403 -0.4553  0.0664
  209MOL0     H28213   6.139   9.254   3.959 -3.8351 -3.0985  1.7496
  209MOL0     H28214   6.036   9.183   3.830 -0.6813  0.4276 -1.4191
  209MOL0     H28215   6.117   9.338   3.799 -3.9997  3.5109  0.3708
  210MOL0     O28216   5.880   4.342   5.021 -0.4928  0.4853 -0.0655
  210MOL0     C28217   5.975   4.319   5.098 -0.0908 -0.0239 -0.2909
  210MOL0     O28218   6.113   4.349   5.078  0.9977 -0.1423 -0.0294
  210MOL0     C28219   6.140   4.409   4.961 -0.0265 -0.6597 -0.1603
  210MOL0     C28220   6.108   4.361   4.837 -0.2488  0.5478  0.3821
  210MOL0     C28221   6.148   4.423   4.720 -0.0327  0.4864 -0.3507
  210MOL0     C28222   6.206   4.545   4.718 -0.0859 -0.4373 -0.0266
  210MOL0     O28223   6.256   4.595   4.601  0.4603 -0.4633 -0.2642
  210MOL0     C28224   6.227   4.735   4.567  0.4873  0.1480 -0.2563
  210MOL0     C28225   6.350   4.828   4.609  0.1517  0.2162 -0.4020
  210MOL0     C28226   6.480   4.764   4.556 -0.4547  0.2528  0.0392
  210MOL0     C28227   6.606   4.847   4.582 -0.1440 -0.0229 -0.1887
  210MOL0     C28228   6.733   4.783   4.544 -0.7618  0.5290 -0.4323
  210MOL0     C28229   6.849   4.872   4.560 -0.4931  0.4782  0.6880
  210MOL0     C28230   6.959   4.812   4.475  0.2393 -0.1071 -0.1622
  210MOL0     C28231   7.076   4.904   4.478 -0.1392 -0.3520  0.5291
  210MOL0     N28232   7.188   4.813   4.466 -0.6510 -0.3224 -0.9830
  210MOL0     C28233   7.249   4.791   4.352 -0.6699  0.6407 -0.2139
  210MOL0     C28234   7.334   4.692   4.377 -0.1136 -0.6600 -0.3918
  210MOL0     C28235   7.418   4.609   4.274 -0.7804  0.7530 -0.7244
  210MOL0     C28236   7.574   4.628   4.298 -0.1490 -0.6183 -0.4177
  210MOL0     C28237   7.612   4.768   4.245  0.4603  0.4834 -0.4213
  210MOL0     C28238   7.759   4.787   4.252  0.2751  0.2438 -0.4208
  210MOL0     O28239   7.823   4.684   4.177  0.2343 -0.0897  0.2961
  210MOL0     C28240   7.958   4.664   4.196  0.0206 -0.0922 -0.3117
  210MOL0     C28241   8.056   4.753   4.237 -0.0465  1.3700 -0.0456
  210MOL0     C28242   8.193   4.706   4.252 -0.0544  0.2608 -0.9496
  210MOL0     C28243   8.233   4.578   4.220 -0.6023 -0.2784  0.4480
  210MOL0     C28244   8.370   4.540   4.232  0.4262  0.1704  0.4640
  210MOL0     O28245   8.437   4.630   4.312 -0.3790 -0.4407  0.5656
  210MOL0     C28246   8.564   4.581   4.352  0.5576 -0.2972 -0.0362
  210MOL0     C28247   8.674   4.620   4.283 -0.0994 -0.2406  0.4596
  210MOL0     C28248   8.797   4.563   4.311  0.5211 -0.8992 -0.9264
  210MOL0     C28249   8.822   4.482   4.424  0.1867 -0.0329 -0.1577
  210MOL0     O28250   8.942   4.423   4.454 -0.7343  0.5570  0.2366
  210MOL0     C28251   9.029   4.377   4.344 -0.1618  0.0751  0.3651
  210MOL0     C28252   8.996   4.234   4.307  0.3421  0.3262  0.4132
  210MOL0     C28253   8.859   4.208   4.246  0.7514  0.6911 -1.2976
  210MOL0     C28254   8.858   4.252   4.104  0.1911 -0.4279  0.4721
  210MOL0     C28255   8.752   4.181   4.021  0.1900  0.2191 -0.1013
  210MOL0     C28256   8.610   4.188   4.077  0.3494 -0.0366 -0.8275
  210MOL0     C28257   8.523   4.072   4.032 -0.1080 -0.3176 -0.7869
  210MOL0     C28258   8.384   4.073   4.106  0.5172 -1.0870 -0.1320
  210MOL0    Cl28259   8.278   3.928   4.065  0.3123  0.1936  0.1852
  210MOL0     C28260   8.707   4.435   4.490 -0.4187 -0.2884 -0.3327
  210MOL0     C28261   8.578   4.484   4.447  0.8269  0.0903  0.4342
  210MOL0     O28262   8.409   4.446   4.172  0.5986  0.0708  0.0857
  210MOL0     C28263   8.136   4.495   4.166  0.1124  0.2851 -0.0746
  210MOL0     C28264   7.999   4.534   4.155  0.7234  1.0381  0.4873
  210MOL0     N28265   7.339   4.667   4.511 -0.4800  0.4510 -0.1339
  210MOL0     N28266   7.254   4.741   4.571  0.0244  0.0384 -0.0247
  210MOL0     C28267   6.232   4.610   4.841  0.5556 -0.6223 -0.5434
  210MOL0     C28268   6.189   4.544   4.964  0.1744  0.6148 -0.3257
  210MOL0     C28269   5.948   4.222   5.215  0.3272 -0.9266  0.7184
  210MOL0     C28270   6.061   4.184   5.291 -0.5716  0.9330  0.9700
  210MOL0     C28271   6.057   4.087   5.392 -0.1019 -0.6575  0.4730
  210MOL0     C28272   5.930   4.036   5.429  0.2607  1.0026  0.0126
  210MOL0     O28273   5.911   3.930   5.517  0.2852  0.1444 -0.1623
  210MOL0     C28274   6.024   3.894   5.602  0.5255  0.4131  0.3243
  210MOL0     C28275   5.981   3.859   5.743 -0.0810  0.3160  0.2165
  210MOL0     C28276   5.903   3.720   5.755  0.9804 -0.3895  0.8199
  210MOL0     C28277   5.994   3.597   5.723  0.9190  0.0508 -0.6784
  210MOL0     C28278   6.027   3.576   5.581  0.7719 -0.9436 -0.5787
  210MOL0     C28279   6.055   3.547   5.464  0.0260  0.8113 -0.4625
  210MOL0     C28280   5.815   4.077   5.359 -0.4326 -0.0866  0.0383
  210MOL0     C28281   5.818   4.171   5.253  0.2034 -0.0051 -0.0981
  210MOL0     C28282   5.687   4.221   5.194 -0.5794  0.9003 -0.2144
  210MOL0     H28283   6.066   4.262   4.842  2.0308 -0.4456  1.3488
  210MOL0     H28284   6.143   4.389   4.617 -0.3805  1.7998 -0.7756
  210MOL0     H28285   6.212   4.749   4.460  0.5851 -1.8005 -0.5692
  210MOL0     H28286   6.132   4.756   4.617  0.3236  0.3456 -0.6550
  210MOL0     H28287   6.350   4.843   4.717 -1.1634 -1.1995 -0.1797
  210MOL0     H28288   6.329   4.921   4.555  2.1448 -0.7785 -3.0968
  210MOL0     H28289   6.467   4.741   4.450 -0.0166 -0.0078  0.0411
  210MOL0     H28290   6.500   4.674   4.614 -1.1467  1.1788  1.7871
  210MOL0     H28291   6.595   4.939   4.523 -1.2773 -0.1752 -0.2326
  210MOL0     H28292   6.614   4.875   4.688 -0.6702 -0.6722  0.0272
  210MOL0     H28293   6.745   4.692   4.604 -1.2214 -1.2535 -2.9083
  210MOL0     H28294   6.714   4.736   4.448 -2.4583  1.4431 -0.5800
  210MOL0     H28295   6.832   4.972   4.519 -0.9194  0.3281  0.4928
  210MOL0     H28296   6.881   4.880   4.664  1.7619 -3.6898  0.5234
  210MOL0     H28297   6.921   4.785   4.376 -1.8236 -5.7453  1.7524
  210MOL0     H28298   6.991   4.722   4.529  1.0587  0.0146 -0.4372
  210MOL0     H28299   7.070   4.975   4.395  2.7229 -0.8564 -0.2204
  210MOL0     H28300   7.086   4.958   4.573 -1.5051 -0.6423  0.8564
  210MOL0     H28301   7.235   4.838   4.255  5.5844  0.4516 -1.6460
  210MOL0     H28302   7.403   4.501   4.290  2.7363  0.4620  1.5708
  210MOL0     H28303   7.395   4.639   4.172  5.7152  3.6341 -1.8160
  210MOL0     H28304   7.612   4.626   4.401  0.4867  2.6700 -0.4764
  210MOL0     H28305   7.627   4.554   4.238  0.7317 -1.3473  1.1822
  210MOL0     H28306   7.571   4.839   4.318 -2.6997 -1.2087 -0.3835
  210MOL0     H28307   7.572   4.790   4.146 -0.0616  1.7014  0.0428
  210MOL0     H28308   7.793   4.783   4.356  1.0497 -1.1138 -0.6913
  210MOL0     H28309   7.789   4.887   4.219 -0.6790  0.7383  0.1550
  210MOL0     H28310   8.025   4.856   4.250 -2.2383  1.2331 -2.9980
  210MOL0     H28311   8.266   4.774   4.295 -0.6825  1.8087 -2.2427
  210MOL0     H28312   8.676   4.682   4.195 -1.6403 -2.8943 -1.6040
  210MOL0     H28313   8.872   4.587   4.236  0.8893 -2.2257 -1.0100
  210MOL0     H28314   9.024   4.446   4.260 -0.3140  3.1224  2.7016
  210MOL0     H28315   9.127   4.384   4.393 -0.1482  0.0482  0.3414
  210MOL0     H28316   9.070   4.203   4.232 -1.6112  0.1349 -1.5228
  210MOL0     H28317   9.003   4.176   4.399 -1.4089  0.8480  0.9018
  210MOL0     H28318   8.837   4.101   4.246 -0.4079  0.8789 -3.4331
  210MOL0     H28319   8.778   4.259   4.300  0.2294  0.7623 -2.1246
  210MOL0     H28320   8.948   4.219   4.051  2.2520  1.8287  2.3425
  210MOL0     H28321   8.852   4.361   4.098  0.2254 -0.5043 -2.1646
  210MOL0     H28322   8.788   4.078   4.023  1.1991  0.5709  0.2578
  210MOL0     H28323   8.745   4.224   3.921 -4.1283  1.2846  0.4405
  210MOL0     H28324   8.610   4.201   4.186  0.3369 -2.1583 -0.5379
  210MOL0     H28325   8.564   4.276   4.032  0.0256 -0.6207 -1.6496
  210MOL0     H28326   8.566   3.979   4.069 -0.3819 -0.3668 -0.5832
  210MOL0     H28327   8.513   4.067   3.923 -0.6836 -1.5608 -0.7030
  210MOL0     H28328   8.413   4.065   4.211  1.4434  1.3164 -0.1382
  210MOL0     H28329   8.329   4.166   4.093 -0.4236 -1.7319 -0.9517
  210MOL0     H28330   8.701   4.369   4.576  1.0244 -0.9361 -0.7100
  210MOL0     H28331   8.495   4.440   4.501  1.1053 -0.4291  0.4439
  210MOL0     H28332   8.172   4.397   4.135 -2.3894 -0.3865 -1.0916
  210MOL0     H28333   7.928   4.460   4.120  2.6282 -0.4867 -0.3826
  210MOL0     H28334   6.290   4.702   4.841  1.0964 -0.9461 -1.5170
  210MOL0     H28335   6.217   4.589   5.058 -2.7585 -1.9991  1.9919
  210MOL0     H28336   6.156   4.236   5.281 -1.4173  2.9180  2.4899
  210MOL0     H28337   6.150   4.060   5.442  0.2288  0.5455  0.5406
  210MOL0     H28338   6.079   3.988   5.609  0.7831  0.4255 -1.3372
  210MOL0     H28339   6.096   3.828   5.553  1.3067  3.7863 -3.6276
  210MOL0     H28340   5.915   3.936   5.785 -3.0003 -1.9053 -0.0080
  210MOL0     H28341   6.075   3.851   5.800  0.6132  0.4100 -0.8981
  210MOL0     H28342   5.811   3.712   5.697  0.4673 -3.1091  1.8762
  210MOL0     H28343   5.875   3.708   5.860 -3.3744  2.7322  0.2969
  210MOL0     H28344   6.086   3.601   5.781  0.6236 -1.3071 -0.0819
  210MOL0     H28345   5.945   3.503   5.747  0.2238  0.5364 -0.1573
  210MOL0     H28346   6.077   3.526   5.361 -3.3231  2.2283 -1.6049
  210MOL0     H28347   5.722   4.030   5.389  0.0121  0.1215  1.8965
  210MOL0     H28348   5.670   4.189   5.091 -2.2532  3.0524 -0.6776
  210MOL0     H28349   5.596   4.190   5.247 -1.2784  3.2339  0.0657
  210MOL0     H28350   5.695   4.330   5.197  1.2481  0.8748 -2.2961
  211MOL0     O28351   2.397   7.158   7.184  0.6467  0.6671 -0.9177
  211MOL0     C28352   2.384   7.039   7.221 -0.4653  0.8576  0.5600
  211MOL0     O28353   2.476   6.933   7.203  0.8346 -0.7781  0.3643
  211MOL0     C28354   2.602   6.948   7.156  0.5576 -0.5798 -0.7513
  211MOL0     C28355   2.682   7.062   7.193  0.8902  0.4548 -0.5652
  211MOL0     C28356   2.815   7.063   7.165 -0.1759 -0.3898 -0.1566
  211MOL0     C28357   2.878   6.956   7.108 -0.8818  0.7492  0.9595
  211MOL0     O28358   3.010   6.983   7.076  0.3532  0.3298  0.2165
  211MOL0     C28359   3.060   6.919   6.948  0.8750 -0.1718 -0.3277
  211MOL0     C28360   3.152   7.012   6.892 -0.6523 -0.8217 -0.0184
  211MOL0     C28361   3.297   6.995   6.941  0.1994 -0.1090  0.0099
  211MOL0     C28362   3.380   6.936   6.834  0.2439  0.5895  0.6700
  211MOL0     C28363   3.522   6.916   6.884  0.3801  0.4788 -0.5366
  211MOL0     C28364   3.624   6.924   6.769 -0.2726 -0.2463  0.8400
  211MOL0     C28365   3.749   6.858   6.801 -0.4548 -0.2519 -0.7823
  211MOL0     C28366   3.829   6.840   6.668  0.2498 -0.4227 -0.5881
  211MOL0     N28367   3.875   6.966   6.608  0.1071 -0.3500 -0.6923
  211MOL0     C28368   3.972   7.040   6.674  0.0208  0.3504 -0.4781
  211MOL0     C28369   3.980   7.150   6.589  0.3596 -0.2426 -0.2609
  211MOL0     C28370   4.084   7.260   6.594  0.4346  0.2174  0.1606
  211MOL0     C28371   4.027   7.399   6.543  0.2391  0.6742 -0.4619
  211MOL0     C28372   4.115   7.515   6.606 -0.0453  0.6996  0.4758
  211MOL0     C28373   4.088   7.640   6.529  0.0565  0.4507 -0.4739
  211MOL0     O28374   4.111   7.749   6.624 -0.0251  0.4902  0.8160
  211MOL0     C28375   4.038   7.863   6.613 -0.7354  0.0274 -0.1385
  211MOL0     C28376   3.907   7.873   6.560  0.1953 -0.2796 -0.1759
  211MOL0     C28377   3.849   8.006   6.551  0.1493 -0.4744 -1.2888
  211MOL0     C28378   3.922   8.116   6.605 -0.2764  1.1722  0.8934
  211MOL0     C28379   3.844   8.246   6.628 -1.1402  0.3989  0.0465
  211MOL0     O28380   3.923   8.351   6.680 -0.1517  0.6025 -0.0204
  211MOL0     C28381   3.875   8.475   6.710 -0.6811  1.3259 -0.3616
  211MOL0     C28382   3.956   8.553   6.806  0.9034 -0.1030  0.5628
  211MOL0     C28383   3.911   8.681   6.851  0.5475 -0.0742  0.9773
  211MOL0     C28384   3.788   8.726   6.794  0.7377  0.0106  0.3376
  211MOL0     O28385   3.742   8.848   6.850 -0.4025 -0.5328 -0.5172
  211MOL0     C28386   3.843   8.952   6.858  0.7746 -0.5681 -0.8682
  211MOL0     C28387   3.770   9.084   6.884  0.6966 -0.0304  1.0787
  211MOL0     C28388   3.709   9.150   6.758  0.2347 -0.0377  0.9784
  211MOL0     C28389   3.594   9.066   6.717 -0.9684 -0.2314 -0.3592
  211MOL0     C28390   3.499   9.095   6.605 -0.0738  0.0732  0.1631
  211MOL0     C28391   3.385   8.991   6.607  0.6720 -0.2345 -0.0864
  211MOL0     C28392   3.275   9.054   6.520 -0.2935  0.5415 -0.7296
  211MOL0     C28393   3.160   8.965   6.474 -0.1119 -0.5486 -0.4318
  211MOL0    Cl28394   3.050   8.907   6.618  0.2593 -0.2968  0.4303
  211MOL0     C28395   3.713   8.650   6.703  0.1862  0.0482 -0.2838
  211MOL0     C28396   3.764   8.530   6.651 -0.5366  0.2739  0.6396
  211MOL0     O28397   3.722   8.247   6.604  0.1577 -0.5845 -0.1505
  211MOL0     C28398   4.051   8.106   6.649 -0.6213  0.4711 -0.2209
  211MOL0     C28399   4.110   7.979   6.651 -0.6642 -0.1686 -0.6559
  211MOL0     N28400   3.882   7.152   6.497 -1.0884  0.3478  0.5697
  211MOL0     N28401   3.817   7.040   6.511 -0.3486 -0.1570  1.0356
  211MOL0     C28402   2.805   6.844   7.071  0.8721  0.1793 -0.3480
  211MOL0     C28403   2.667   6.839   7.097  0.0595 -0.6570 -0.6432
  211MOL0     C28404   2.251   6.995   7.274 -0.4751  0.1729 -0.4189
  211MOL0     C28405   2.144   7.053   7.214  0.1655 -0.3734  0.1066
  211MOL0     C28406   2.011   7.009   7.245  0.0781  0.0644  0.4636
  211MOL0     C28407   2.004   6.899   7.333  0.2351  0.3062 -0.1069
  211MOL0     O28408   1.886   6.836   7.372 -0.3995 -0.5345  0.3470
  211MOL0     C28409   1.760   6.876   7.311  0.3165 -0.4754 -0.4211
  211MOL0     C28410   1.649   6.779   7.318  0.0210 -0.5179  0.6534
  211MOL0     C28411   1.571   6.764   7.453  0.6135  0.4338 -0.0491
  211MOL0     C28412   1.529   6.895   7.516  0.1689  0.1700 -0.1401
  211MOL0     C28413   1.439   6.886   7.634  0.1151  0.5224 -0.1434
  211MOL0     C28414   1.363   6.870   7.733  0.0601 -0.3865 -1.1747
  211MOL0     C28415   2.118   6.850   7.396  0.2994  0.2952 -0.6884
  211MOL0     C28416   2.248   6.892   7.371 -0.1448 -0.4807  1.0201
  211MOL0     C28417   2.364   6.832   7.447  0.2968  0.5370 -0.1494
  211MOL0     H28418   2.642   7.142   7.255  0.3797 -0.1992 -0.0433
  211MOL0     H28419   2.863   7.160   7.174  0.5928 -0.7436 -0.3046
  211MOL0     H28420   3.106   6.823   6.970 -0.1023 -0.5643  0.0392
  211MOL0     H28421   2.980   6.899   6.875  1.3745  1.3033 -1.3341
  211MOL0     H28422   3.116   7.113   6.914 -1.3789 -1.3942  1.5573
  211MOL0     H28423   3.142   7.010   6.783 -0.5216 -1.5585 -0.0206
  211MOL0     H28424   3.306   6.935   7.031  2.6009 -1.3304 -0.9543
  211MOL0     H28425   3.352   7.086   6.966  3.4320 -1.9426  0.0475
  211MOL0     H28426   3.338   6.845   6.789 -2.4763  2.5765 -1.1564
  211MOL0     H28427   3.397   7.017   6.762  2.6711  0.6244  1.2160
  211MOL0     H28428   3.546   6.983   6.968 -0.3967  1.1170 -0.8044
  211MOL0     H28429   3.514   6.816   6.926 -0.1008  1.0043  0.6901
  211MOL0     H28430   3.581   6.880   6.678  1.2386  0.8580 -0.4503
  211MOL0     H28431   3.643   7.030   6.752 -0.7490 -0.2204  0.4532
  211MOL0     H28432   3.723   6.761   6.845 -0.2191  1.0184  2.4493
  211MOL0     H28433   3.802   6.930   6.865 -2.0352  0.8901 -0.6892
  211MOL0     H28434   3.919   6.786   6.701  1.2270  2.2853  1.5546
  211MOL0     H28435   3.765   6.779   6.603  2.4398 -2.0581 -1.3435
  211MOL0     H28436   4.036   7.003   6.754 -0.9429 -1.6668 -0.5748
  211MOL0     H28437   4.122   7.278   6.694  1.8784 -0.0748 -0.3115
  211MOL0     H28438   4.169   7.227   6.533 -0.0419  1.4320 -1.2046
  211MOL0     H28439   4.013   7.402   6.435 -0.3434 -1.6092 -0.5069
  211MOL0     H28440   3.930   7.419   6.591  0.9004  3.5427 -0.1221
  211MOL0     H28441   4.220   7.483   6.608 -0.3288 -0.3133 -0.1391
  211MOL0     H28442   4.108   7.534   6.713  2.3116 -0.1242  0.8384
  211MOL0     H28443   3.983   7.633   6.499 -0.7020 -0.1998  2.1001
  211MOL0     H28444   4.152   7.622   6.441 -0.6761 -5.1288 -0.2362
  211MOL0     H28445   3.844   7.793   6.524 -1.0274  0.2125  0.7826
  211MOL0     H28446   3.751   8.020   6.507 -1.4139  1.4851  2.3656
  211MOL0     H28447   4.060   8.523   6.820  0.9274 -1.0385 -1.3758
  211MOL0     H28448   3.969   8.731   6.928  0.5357  0.7230  0.4712
  211MOL0     H28449   3.911   8.925   6.939  0.1563 -0.6696 -0.3706
  211MOL0     H28450   3.911   8.961   6.773  0.5262  4.2893 -0.8107
  211MOL0     H28451   3.689   9.070   6.956  0.1208  0.4297  0.5357
  211MOL0     H28452   3.831   9.157   6.938  1.2471 -0.5482  1.1678
  211MOL0     H28453   3.679   9.250   6.793  1.5950  0.0312  2.0459
  211MOL0     H28454   3.776   9.160   6.672 -0.3444 -2.9377  0.0869
  211MOL0     H28455   3.522   9.048   6.797 -2.2175  1.5237 -1.0160
  211MOL0     H28456   3.633   8.967   6.689  1.3169  0.8295 -1.1900
  211MOL0     H28457   3.537   9.077   6.504  1.8309 -1.2939  1.0531
  211MOL0     H28458   3.468   9.199   6.616 -0.0980  0.0038  0.7684
  211MOL0     H28459   3.408   8.898   6.554 -0.5174 -0.3549 -0.4327
  211MOL0     H28460   3.346   8.971   6.707  0.0758 -0.4385 -0.3564
  211MOL0     H28461   3.324   9.099   6.432  2.2322  0.2148  0.4137
  211MOL0     H28462   3.239   9.141   6.575 -1.1350  0.7660 -1.6212
  211MOL0     H28463   3.100   9.024   6.405 -1.7848 -2.0691 -0.3580
  211MOL0     H28464   3.199   8.884   6.412  1.2884  1.0889 -1.7768
  211MOL0     H28465   3.619   8.696   6.673 -0.5429 -0.8582  0.5544
  211MOL0     H28466   3.707   8.484   6.571  1.2194 -0.0562 -0.4762
  211MOL0     H28467   4.100   8.195   6.686  1.1611  0.2381 -1.8577
  211MOL0     H28468   4.208   7.969   6.696 -0.2448  2.1437 -0.9313
  211MOL0     H28469   2.847   6.754   7.027 -1.4755 -0.3254 -1.7215
  211MOL0     H28470   2.607   6.754   7.068 -1.8221 -0.1927  1.5326
  211MOL0     H28471   2.164   7.138   7.150 -2.0165 -0.2557 -0.5104
  211MOL0     H28472   1.923   7.051   7.197 -1.1898  0.0550  2.6790
  211MOL0     H28473   1.777   6.893   7.204  1.2608  2.5100  0.1087
  211MOL0     H28474   1.721   6.968   7.357 -1.7060  0.8366 -4.2901
  211MOL0     H28475   1.692   6.682   7.291 -1.0939 -1.6672  2.7335
  211MOL0     H28476   1.576   6.808   7.242 -0.1002 -0.5060  0.7734
  211MOL0     H28477   1.624   6.701   7.525  1.3816 -1.9324 -2.5300
  211MOL0     H28478   1.477   6.713   7.432 -0.5547  1.3599  2.5762
  211MOL0     H28479   1.618   6.947   7.552  0.1686 -0.2618  0.5085
  211MOL0     H28480   1.484   6.957   7.438  0.9261  0.8967 -0.0114
  211MOL0     H28481   1.313   6.866   7.828 -1.2051  1.6817 -1.6698
  211MOL0     H28482   2.120   6.778   7.477  3.5742  1.7346  0.6724
  211MOL0     H28483   2.451   6.898   7.444  0.8287 -0.1412  0.0817
  211MOL0     H28484   2.329   6.821   7.550 -1.4256  2.6368 -0.4268
  211MOL0     H28485   2.386   6.740   7.393 -1.5501  0.6983 -1.2543
  212MOL0     O28486   0.869   2.901   2.925  1.0939 -1.3257 -0.5490
  212MOL0     C28487   0.894   3.003   2.863 -0.2674 -0.4718  0.1690
  212MOL0     O28488   1.012   3.031   2.798 -0.4252  0.5533 -0.0528
  212MOL0     C28489   1.093   2.936   2.742 -0.4573 -1.0268 -0.5748
  212MOL0     C28490   1.043   2.822   2.677  0.6600 -0.4256 -0.3131
  212MOL0     C28491   1.102   2.743   2.586 -0.6144  0.0274  0.0196
  212MOL0     C28492   1.237   2.764   2.569  0.2615  0.6371 -0.0026
  212MOL0     O28493   1.323   2.714   2.480 -0.3725 -0.5276 -0.9565
  212MOL0     C28494   1.268   2.674   2.357 -0.1769 -0.0175  0.6174
  212MOL0     C28495   1.371   2.618   2.250  0.4158  0.4102 -0.2358
  212MOL0     C28496   1.424   2.478   2.282  0.7535  0.4838 -0.2815
  212MOL0     C28497   1.570   2.480   2.226 -0.0898 -0.1884 -0.1152
  212MOL0     C28498   1.631   2.339   2.240  0.6296  0.4413 -0.4579
  212MOL0     C28499   1.763   2.305   2.167 -0.0711  0.3014 -0.0910
  212MOL0     C28500   1.746   2.325   2.016 -0.5352  0.9203 -0.2524
  212MOL0     C28501   1.866   2.274   1.933 -0.8563 -0.3099  0.4599
  212MOL0     N28502   1.980   2.371   1.932  0.2253  0.2928 -0.2883
  212MOL0     C28503   1.969   2.489   1.861 -0.0500 -0.0852  0.2392
  212MOL0     C28504   2.090   2.508   1.803  0.5263 -0.6873 -0.0486
  212MOL0     C28505   2.122   2.617   1.702  1.1780  0.0496  0.1538
  212MOL0     C28506   2.204   2.734   1.751  0.2982  0.1990  0.8314
  212MOL0     C28507   2.206   2.855   1.644 -0.1761  0.2031 -0.7985
  212MOL0     C28508   2.084   2.939   1.645  0.2144  0.6624  0.2224
  212MOL0     O28509   1.989   2.908   1.552 -0.5303  0.1629  0.4950
  212MOL0     C28510   1.864   2.974   1.555  0.0042  0.5474  0.6844
  212MOL0     C28511   1.835   3.088   1.637 -0.7938  0.8779  0.7071
  212MOL0     C28512   1.702   3.141   1.647 -0.3399  0.3554  0.7189
  212MOL0     C28513   1.589   3.074   1.590 -0.9029  0.0433  0.0249
  212MOL0     C28514   1.450   3.118   1.591 -0.0209 -1.0196 -0.2662
  212MOL0     O28515   1.350   3.048   1.529 -0.3498 -0.3796 -0.3537
  212MOL0     C28516   1.220   3.070   1.536  0.5521  1.6575 -0.9530
  212MOL0     C28517   1.162   3.193   1.546  0.5062 -0.6724 -0.1840
  212MOL0     C28518   1.017   3.213   1.537 -0.5663 -0.4813 -0.5669
  212MOL0     C28519   0.940   3.100   1.529  0.8198 -0.3587  1.0230
  212MOL0     O28520   0.798   3.092   1.540  0.8295 -0.3011 -0.1809
  212MOL0     C28521   0.730   3.197   1.459 -0.0710  0.4795 -0.2410
  212MOL0     C28522   0.629   3.129   1.363  0.0262  0.3799 -0.5543
  212MOL0     C28523   0.531   3.228   1.298 -0.9227 -0.2199 -0.5264
  212MOL0     C28524   0.417   3.269   1.393 -0.8592  0.2061 -0.1172
  212MOL0     C28525   0.329   3.371   1.322  0.3266 -0.5118  0.1632
  212MOL0     C28526   0.203   3.331   1.228  0.2611  0.1800  0.6966
  212MOL0     C28527   0.115   3.453   1.211  0.6253  0.6672  0.6647
  212MOL0     C28528  -0.004   3.440   1.111 -1.1469 -0.3755 -0.2195
  212MOL0    Cl28529  -0.107   3.302   1.121  0.0605  0.0664 -0.2018
  212MOL0     C28530   1.001   2.979   1.521  0.4271 -0.0699  0.3502
  212MOL0     C28531   1.139   2.961   1.526  0.1773  0.3425  0.4577
  212MOL0     O28532   1.434   3.212   1.674 -0.5023  0.2284 -0.1335
  212MOL0     C28533   1.625   2.966   1.512  0.6264  0.3281  0.4083
  212MOL0     C28534   1.754   2.909   1.490  1.7907 -0.6347 -0.8978
  212MOL0     N28535   2.181   2.421   1.869 -0.4130  0.6001  1.1513
  212MOL0     N28536   2.108   2.340   1.938 -0.6257  0.0213  0.1726
  212MOL0     C28537   1.303   2.862   2.648 -0.8412 -0.0714  0.5413
  212MOL0     C28538   1.230   2.955   2.719 -0.3884 -0.9179 -1.0471
  212MOL0     C28539   0.799   3.116   2.885 -0.2673 -0.2631  0.0970
  212MOL0     C28540   0.854   3.248   2.866  0.1256  0.1644 -0.2325
  212MOL0     C28541   0.784   3.354   2.891 -0.4363 -0.2510  0.5512
  212MOL0     C28542   0.644   3.353   2.926 -1.0358  0.2506  1.6998
  212MOL0     O28543   0.575   3.470   2.929  0.0293  0.2640  0.4694
  212MOL0     C28544   0.562   3.535   2.800  0.2195  0.5764 -0.4511
  212MOL0     C28545   0.427   3.620   2.795  0.0247  0.4437 -0.5619
  212MOL0     C28546   0.461   3.774   2.765  0.6484  0.6795  0.3759
  212MOL0     C28547   0.328   3.840   2.704 -0.7365 -1.2491 -0.7081
  212MOL0     C28548   0.226   3.839   2.811 -0.0367 -0.8021  0.3069
  212MOL0     C28549   0.119   3.830   2.873 -0.0446 -0.4394 -0.5280
  212MOL0     C28550   0.586   3.231   2.933  0.5628  0.1626  0.0398
  212MOL0     C28551   0.664   3.113   2.926  0.2288  0.4987  0.7148
  212MOL0     C28552   0.599   2.977   2.934 -0.0155  0.5896 -0.8789
  212MOL0     H28553   0.938   2.799   2.694  0.6965  0.5050  1.3555
  212MOL0     H28554   1.049   2.661   2.539 -0.7543 -0.4727  1.0301
  212MOL0     H28555   1.182   2.606   2.363 -0.0159 -0.5405 -1.9777
  212MOL0     H28556   1.234   2.764   2.305  1.2504 -0.4096 -1.0911
  212MOL0     H28557   1.457   2.686   2.258  1.9896 -1.6066  0.8715
  212MOL0     H28558   1.315   2.614   2.156 -1.6976  2.9843  0.7617
  212MOL0     H28559   1.359   2.401   2.239 -0.5764  2.7491 -2.6520
  212MOL0     H28560   1.428   2.470   2.391  0.3102  2.7549 -0.0338
  212MOL0     H28561   1.559   2.494   2.119 -0.3323 -2.9606 -0.5250
  212MOL0     H28562   1.643   2.553   2.263  0.8710 -1.1250 -0.0945
  212MOL0     H28563   1.656   2.331   2.346 -1.8654 -0.3669  0.1255
  212MOL0     H28564   1.555   2.262   2.222 -1.2445  2.3186 -0.9600
  212MOL0     H28565   1.847   2.362   2.209  1.1299 -1.1255 -0.4670
  212MOL0     H28566   1.785   2.200   2.188  3.6121  1.6185  4.1958
  212MOL0     H28567   1.733   2.432   1.993 -4.6740  0.5703 -0.2030
  212MOL0     H28568   1.664   2.272   1.969  1.2199 -2.5526  0.3018
  212MOL0     H28569   1.894   2.174   1.968  1.6758 -0.2637 -1.1615
  212MOL0     H28570   1.831   2.268   1.829 -0.9253  0.9222  0.4009
  212MOL0     H28571   1.876   2.544   1.849 -0.5284 -0.2612  2.6716
  212MOL0     H28572   2.166   2.563   1.618  1.0441 -0.6065  0.4971
  212MOL0     H28573   2.026   2.652   1.664  1.5506  0.8521 -0.0561
  212MOL0     H28574   2.175   2.774   1.848  1.9028 -0.6439  1.7094
  212MOL0     H28575   2.305   2.690   1.751  0.5100  0.6804  0.6331
  212MOL0     H28576   2.224   2.807   1.548 -0.6463 -1.5667 -0.0343
  212MOL0     H28577   2.291   2.915   1.678 -0.6545 -1.0273  3.0376
  212MOL0     H28578   2.130   3.037   1.629 -1.9010  1.4066 -1.8445
  212MOL0     H28579   2.037   2.926   1.742  0.9212 -1.1579  0.3609
  212MOL0     H28580   1.916   3.126   1.699  0.8113 -0.6035 -0.3878
  212MOL0     H28581   1.697   3.236   1.699  0.1760  0.4881  0.5353
  212MOL0     H28582   1.226   3.279   1.529  0.8945 -1.1455 -1.1594
  212MOL0     H28583   0.971   3.311   1.548 -1.4128 -1.0159  0.9261
  212MOL0     H28584   0.688   3.275   1.523  1.9637 -0.5275  2.5633
  212MOL0     H28585   0.803   3.239   1.390  2.0796 -1.6390  0.5812
  212MOL0     H28586   0.687   3.078   1.285  1.2999 -0.3322  0.8060
  212MOL0     H28587   0.569   3.052   1.413  0.8453  1.5517  2.4497
  212MOL0     H28588   0.591   3.312   1.262 -3.2848  1.0064 -1.8663
  212MOL0     H28589   0.491   3.181   1.207  1.5774  0.3744 -2.0366
  212MOL0     H28590   0.444   3.310   1.491 -1.6086  0.1381  0.1197
  212MOL0     H28591   0.357   3.178   1.407 -1.4255  0.3248 -1.6109
  212MOL0     H28592   0.384   3.443   1.262 -1.7059  2.5827  1.7518
  212MOL0     H28593   0.280   3.423   1.405  1.8870 -1.2312  1.5857
  212MOL0     H28594   0.232   3.276   1.139  0.4200 -1.5637  1.7893
  212MOL0     H28595   0.144   3.252   1.275 -0.5615 -0.9671 -2.0623
  212MOL0     H28596   0.171   3.543   1.181 -1.1666  1.7248  0.3204
  212MOL0     H28597   0.059   3.487   1.298  0.6876  1.1959  0.5049
  212MOL0     H28598  -0.053   3.537   1.113  0.7285  0.7444 -2.4289
  212MOL0     H28599   0.050   3.441   1.015 -0.7473 -2.2166 -0.0601
  212MOL0     H28600   0.937   2.891   1.530  1.8966 -1.3538 -1.1477
  212MOL0     H28601   1.178   2.860   1.525 -1.3429 -0.3211 -2.4899
  212MOL0     H28602   1.546   2.914   1.459  0.8411  1.3306 -0.9610
  212MOL0     H28603   1.765   2.816   1.435 -2.7026 -2.1083  0.2938
  212MOL0     H28604   1.410   2.875   2.633 -0.6246 -2.8155 -0.9047
  212MOL0     H28605   1.264   3.047   2.766 -1.6556 -0.8901 -0.1469
  212MOL0     H28606   0.956   3.262   2.832  1.3769 -3.2711  1.6107
  212MOL0     H28607   0.824   3.451   2.864  2.9606 -2.4302 -3.4692
  212MOL0     H28608   0.580   3.460   2.723  0.4402 -1.3772  1.4083
  212MOL0     H28609   0.640   3.611   2.798 -0.7036  1.6905  1.7247
  212MOL0     H28610   0.360   3.608   2.881 -1.6883  1.6903 -1.6453
  212MOL0     H28611   0.367   3.587   2.709  0.9145 -2.7806 -0.1008
  212MOL0     H28612   0.555   3.805   2.718  2.0934  2.6523  4.1045
  212MOL0     H28613   0.473   3.811   2.867 -1.6949 -5.3023  3.3003
  212MOL0     H28614   0.357   3.942   2.675  3.2697 -1.7728  0.7859
  212MOL0     H28615   0.288   3.798   2.611  0.2546 -0.0895 -1.6953
  212MOL0     H28616   0.020   3.816   2.912 -0.7870 -0.9557 -2.4831
  212MOL0     H28617   0.480   3.229   2.956  0.4234 -1.6379 -0.6052
  212MOL0     H28618   0.496   2.986   2.972  1.0965  2.8013  2.0546
  212MOL0     H28619   0.600   2.921   2.841 -0.0380 -0.6002 -0.1868
  212MOL0     H28620   0.641   2.915   3.013 -0.1841 -0.4530 -1.5971
  213MOL0     O28621   1.865   2.776   3.601 -0.2198  0.1927 -0.1390
  213MOL0     C28622   1.892   2.719   3.498  0.5201 -0.4593 -0.5158
  213MOL0     O28623   2.011   2.713   3.440 -0.2057 -0.3264  0.7903
  213MOL0     C28624   2.131   2.729   3.514  0.1535  0.1925 -0.3608
  213MOL0     C28625   2.244   2.778   3.440 -0.0001 -0.1740  0.0313
  213MOL0     C28626   2.371   2.783   3.500  0.0102 -0.1997 -0.2673
  213MOL0     C28627   2.380   2.760   3.640 -0.4282  0.2760  0.3405
  213MOL0     O28628   2.496   2.781   3.713  0.9196 -0.2804 -0.1411
  213MOL0     C28629   2.618   2.729   3.664  0.1983 -0.1528  0.8422
  213MOL0     C28630   2.725   2.738   3.773 -0.2543 -0.2586  0.8949
  213MOL0     C28631   2.858   2.675   3.716  0.1757 -0.1887  0.6089
  213MOL0     C28632   2.957   2.628   3.822  0.0545  0.1418 -0.3815
  213MOL0     C28633   3.085   2.567   3.752  1.3322  0.5672  0.0429
  213MOL0     C28634   3.213   2.620   3.811  0.3763  0.0898 -0.1849
  213MOL0     C28635   3.234   2.774   3.811  0.6467  0.0168 -0.6653
  213MOL0     C28636   3.380   2.822   3.784 -0.0742  0.4552  0.6193
  213MOL0     N28637   3.462   2.773   3.893 -0.0793  0.5164 -0.0839
  213MOL0     C28638   3.522   2.650   3.885 -0.7400  0.9909 -0.2333
  213MOL0     C28639   3.587   2.638   4.001 -0.1057 -0.1270 -0.1985
  213MOL0     C28640   3.673   2.519   4.030  0.2134 -0.5913 -0.3406
  213MOL0     C28641   3.822   2.524   4.015 -0.1403 -0.3730  0.3797
  213MOL0     C28642   3.885   2.431   4.121 -0.1076  0.7754 -0.2094
  213MOL0     C28643   4.034   2.453   4.157  0.3729  0.0223  0.2248
  213MOL0     O28644   4.108   2.443   4.033 -0.0740 -0.3325 -0.2532
  213MOL0     C28645   4.202   2.344   4.010  0.7453 -0.4114  0.4794
  213MOL0     C28646   4.315   2.334   4.084  0.3592 -0.1662 -0.4881
  213MOL0     C28647   4.405   2.235   4.058  0.7542 -0.9674 -0.0670
  213MOL0     C28648   4.388   2.144   3.949  0.5802 -0.1275  0.6212
  213MOL0     C28649   4.494   2.042   3.914 -0.4526 -0.9708 -0.1899
  213MOL0     O28650   4.460   1.961   3.803 -0.1712 -0.1394  0.1452
  213MOL0     C28651   4.499   1.834   3.805  0.0311 -0.3470  0.2455
  213MOL0     C28652   4.497   1.751   3.918  0.9013  0.2165 -0.3914
  213MOL0     C28653   4.550   1.619   3.910 -0.6297 -0.2445 -0.3594
  213MOL0     C28654   4.597   1.560   3.786 -0.0829  0.0459 -0.0241
  213MOL0     O28655   4.630   1.427   3.772  1.0677  0.2628 -0.3478
  213MOL0     C28656   4.702   1.372   3.881 -0.1364 -0.6924 -0.3444
  213MOL0     C28657   4.802   1.268   3.837 -0.4962  1.0875 -0.1136
  213MOL0     C28658   4.861   1.193   3.969 -0.0612  0.2414 -0.1299
  213MOL0     C28659   4.741   1.134   4.050 -0.0671 -0.0088 -0.0064
  213MOL0     C28660   4.760   1.020   4.152 -0.1542  0.5226 -0.4471
  213MOL0     C28661   4.861   1.071   4.267 -0.2598  1.0185 -0.8036
  213MOL0     C28662   4.871   0.980   4.390 -0.3759 -0.3826  0.0750
  213MOL0     C28663   4.999   0.983   4.465 -0.1838 -0.1815 -0.5738
  213MOL0    Cl28664   4.984   0.868   4.599  0.4876  0.3063 -0.2929
  213MOL0     C28665   4.578   1.635   3.673 -0.3798  0.1305 -0.0635
  213MOL0     C28666   4.536   1.772   3.685 -0.3502  0.2831  0.2964
  213MOL0     O28667   4.584   2.023   4.002 -0.3205  0.1128  0.2756
  213MOL0     C28668   4.271   2.160   3.866 -0.3021  0.5455  1.0000
  213MOL0     C28669   4.185   2.268   3.896 -0.7229  0.1508  0.2502
  213MOL0     N28670   3.561   2.746   4.084 -0.4531  0.9696  0.4178
  213MOL0     N28671   3.492   2.826   4.014 -0.1734 -0.4821  0.1775
  213MOL0     C28672   2.268   2.723   3.717 -0.0846 -0.5067  0.2251
  213MOL0     C28673   2.150   2.690   3.646 -0.2682 -0.4283  0.3531
  213MOL0     C28674   1.775   2.647   3.446 -0.2593  0.1287 -0.3731
  213MOL0     C28675   1.654   2.692   3.479 -0.0231  0.5732 -0.1145
  213MOL0     C28676   1.532   2.625   3.437 -0.3286 -0.2910 -0.1309
  213MOL0     C28677   1.536   2.503   3.370 -0.0557 -0.4458 -1.1211
  213MOL0     O28678   1.427   2.447   3.317  0.4324 -0.1592 -0.0425
  213MOL0     C28679   1.301   2.510   3.311  0.6049  0.6580  0.8814
  213MOL0     C28680   1.211   2.503   3.433 -0.2727  0.0890 -0.3403
  213MOL0     C28681   1.075   2.450   3.399  0.2837 -0.5926 -0.1045
  213MOL0     C28682   0.982   2.478   3.513  0.4648 -0.1425 -0.2831
  213MOL0     C28683   0.837   2.472   3.474  0.5888  0.6453  0.4035
  213MOL0     C28684   0.721   2.473   3.436  0.7612  0.5167  0.1882
  213MOL0     C28685   1.670   2.461   3.341  1.1723 -0.4691  0.2506
  213MOL0     C28686   1.787   2.532   3.377  0.3909 -0.0315  0.4196
  213MOL0     C28687   1.922   2.465   3.345  0.3525 -0.3611 -0.4501
  213MOL0     H28688   2.231   2.813   3.338  1.2256  0.9001  0.2190
  213MOL0     H28689   2.456   2.813   3.439 -0.4148 -3.0714 -2.4391
  213MOL0     H28690   2.600   2.624   3.639 -3.3940 -0.5304  4.0803
  213MOL0     H28691   2.643   2.779   3.570 -3.2970  3.5203  1.6139
  213MOL0     H28692   2.700   2.673   3.857  1.2265 -3.3230 -0.8450
  213MOL0     H28693   2.749   2.840   3.804 -0.5896  0.1940 -0.2707
  213MOL0     H28694   2.904   2.749   3.650 -2.2108  2.0377  1.2759
  213MOL0     H28695   2.813   2.590   3.664  0.0407 -0.7820  1.6726
  213MOL0     H28696   2.984   2.708   3.891 -1.6190 -1.1143  1.8966
  213MOL0     H28697   2.906   2.566   3.896  0.3348  0.6112  0.2118
  213MOL0     H28698   3.081   2.458   3.761  2.9408  0.4543 -0.2537
  213MOL0     H28699   3.092   2.594   3.646 -1.7789  2.5971  0.2172
  213MOL0     H28700   3.225   2.579   3.912  0.3358  2.1759  0.7100
  213MOL0     H28701   3.290   2.575   3.747 -0.4770 -1.3355 -0.2525
  213MOL0     H28702   3.200   2.826   3.901  2.9688  0.0864  0.2192
  213MOL0     H28703   3.183   2.818   3.725 -0.8324  1.5404  0.9196
  213MOL0     H28704   3.425   2.793   3.689 -1.7985  2.9042 -1.0967
  213MOL0     H28705   3.379   2.932   3.782  0.2285  0.4675  1.1429
  213MOL0     H28706   3.537   2.587   3.798 -1.0872  2.0194 -1.0633
  213MOL0     H28707   3.644   2.490   4.131  1.2532  0.5627  0.3221
  213MOL0     H28708   3.647   2.428   3.975  1.7013 -1.1297 -0.2141
  213MOL0     H28709   3.861   2.489   3.919 -0.1853 -1.8060  0.8580
  213MOL0     H28710   3.865   2.622   4.040  0.5618 -1.0284  1.8576
  213MOL0     H28711   3.878   2.328   4.085  3.3025  0.5346 -0.4643
  213MOL0     H28712   3.832   2.434   4.216 -1.4700 -0.4973 -0.8844
  213MOL0     H28713   4.062   2.379   4.233 -1.5050 -0.0902  0.8551
  213MOL0     H28714   4.057   2.548   4.207  1.1495 -2.8076  6.1874
  213MOL0     H28715   4.318   2.393   4.175 -1.3464 -0.2625 -0.3289
  213MOL0     H28716   4.499   2.224   4.110  0.5544  0.3145  0.6250
  213MOL0     H28717   4.446   1.791   4.005  2.5566  1.4205  0.0721
  213MOL0     H28718   4.529   1.563   4.001 -3.2656  1.3420  0.1198
  213MOL0     H28719   4.758   1.454   3.927  0.2083  0.0720 -2.0634
  213MOL0     H28720   4.632   1.330   3.954  0.3869  0.0695  0.6321
  213MOL0     H28721   4.766   1.197   3.762 -0.1773  0.4111  0.3703
  213MOL0     H28722   4.889   1.320   3.794 -0.9848  3.1918  1.3216
  213MOL0     H28723   4.908   1.101   3.932  2.6512  1.4622  0.0046
  213MOL0     H28724   4.942   1.247   4.018  1.4566 -2.1155  0.1584
  213MOL0     H28725   4.674   1.094   3.974 -2.8496 -0.1354  2.3451
  213MOL0     H28726   4.692   1.217   4.101  0.6322  1.3880 -1.4996
  213MOL0     H28727   4.794   0.935   4.092  2.6149  2.1061 -1.3192
  213MOL0     H28728   4.665   0.985   4.195  0.8356  0.5077  1.9078
  213MOL0     H28729   4.960   1.096   4.227  1.4174  1.9944  3.3544
  213MOL0     H28730   4.829   1.167   4.310  4.9265  1.5550  2.8683
  213MOL0     H28731   4.846   0.878   4.358  1.0587 -0.1544 -2.0653
  213MOL0     H28732   4.796   1.022   4.457 -1.8490  0.4631 -1.9733
  213MOL0     H28733   5.074   0.943   4.396 -0.6266  0.0510 -1.1961
  213MOL0     H28734   5.033   1.077   4.511  3.0170 -1.9760  1.1180
  213MOL0     H28735   4.597   1.582   3.580 -1.7629 -2.4107  0.9817
  213MOL0     H28736   4.527   1.817   3.586 -2.3882  0.9178  0.7243
  213MOL0     H28737   4.252   2.106   3.774 -2.5255 -0.7409  2.1359
  213MOL0     H28738   4.111   2.289   3.819  2.4427  1.3674 -2.7566
  213MOL0     H28739   2.277   2.704   3.823 -0.6242 -0.3374  0.3051
  213MOL0     H28740   2.073   2.642   3.706  0.1882 -1.4029  0.1805
  213MOL0     H28741   1.631   2.792   3.514  0.0514  0.6889 -0.3887
  213MOL0     H28742   1.444   2.683   3.464  0.4313  0.4077  0.9205
  213MOL0     H28743   1.251   2.457   3.229  2.9170 -1.2815  0.6061
  213MOL0     H28744   1.306   2.614   3.276  1.8346  0.3605  0.0985
  213MOL0     H28745   1.205   2.609   3.461 -0.9297  0.4417 -1.7183
  213MOL0     H28746   1.258   2.443   3.511 -1.5635 -0.4989  0.0070
  213MOL0     H28747   1.068   2.344   3.370  0.4456 -0.2665 -1.3864
  213MOL0     H28748   1.051   2.515   3.315 -3.5199 -2.0877 -0.3810
  213MOL0     H28749   1.012   2.423   3.604  2.2922  2.2966  0.7053
  213MOL0     H28750   0.991   2.580   3.552  0.4944 -0.5259  0.7655
  213MOL0     H28751   0.626   2.482   3.389 -0.3351  1.4207  2.4414
  213MOL0     H28752   1.679   2.367   3.288 -1.2261 -1.4424  1.4654
  213MOL0     H28753   1.909   2.357   3.335  2.2812 -0.5970 -0.7743
  213MOL0     H28754   1.965   2.502   3.252 -1.7933 -0.3666 -1.5078
  213MOL0     H28755   2.000   2.476   3.421 -2.1535  3.6423  1.9306
  214MOL0     O28756   8.941  10.497   1.222 -0.3073  0.0235  0.2121
  214MOL0     C28757   8.859  10.453   1.148  0.1976 -0.7827  0.2589
  214MOL0     O28758   8.869  10.438   1.012 -0.4669  0.2952 -0.5284
  214MOL0     C28759   8.994  10.470   0.957  0.6058 -0.3098  0.5857
  214MOL0     C28760   9.000  10.566   0.859 -0.0577 -0.8631  0.6090
  214MOL0     C28761   9.113  10.600   0.788 -1.1879  0.0735  0.4651
  214MOL0     C28762   9.233  10.540   0.833 -0.0825 -0.2084  0.9012
  214MOL0     O28763   9.350  10.584   0.773 -0.1726 -0.7678  0.4536
  214MOL0     C28764   9.455  10.491   0.741 -0.3091 -0.6151  0.2808
  214MOL0     C28765   9.499  10.502   0.594  0.2661  0.7836  0.6462
  214MOL0     C28766   9.632  10.433   0.573  0.3447  0.3450  1.5046
  214MOL0     C28767   9.674  10.429   0.423 -0.0428 -0.2812 -0.1202
  214MOL0     C28768   9.825  10.404   0.410  0.0176  0.4800 -0.1202
  214MOL0     C28769   9.855  10.253   0.426 -0.6855 -0.0877 -0.2003
  214MOL0     C28770   9.997  10.215   0.403 -0.7544 -0.4755  0.6702
  214MOL0     C28771  10.084  10.240   0.533 -0.1947 -0.1806 -0.3104
  214MOL0     N28772  10.230  10.236   0.506 -1.0776  0.3408 -0.4407
  214MOL0     C28773  10.316  10.163   0.574  0.9910  0.8068  1.0010
  214MOL0     C28774  10.431  10.170   0.505  0.1159  0.6295 -0.0767
  214MOL0     C28775  10.556  10.094   0.561 -1.1295 -1.0206  0.1790
  214MOL0     C28776  10.651  10.169   0.661  0.6110  0.7692 -0.6244
  214MOL0     C28777  10.694  10.318   0.608 -0.2224 -0.3777 -0.0804
  214MOL0     C28778  10.762  10.321   0.478 -0.2187  0.5901  0.4080
  214MOL0     O28779  10.838  10.201   0.439 -0.6388  0.0260  0.4623
  214MOL0     C28780  10.957  10.172   0.506 -0.5264  0.1086  0.7574
  214MOL0     C28781  11.013  10.047   0.471  0.9056  0.5539 -0.4221
  214MOL0     C28782  11.136  10.018   0.523  0.5793  0.1532 -0.9921
  214MOL0     C28783  11.207  10.096   0.619 -0.8153  0.0743 -0.0571
  214MOL0     C28784  11.329  10.052   0.678 -0.3220  0.3066 -0.1676
  214MOL0     O28785  11.390  10.151   0.749  0.4680  0.5239 -0.9613
  214MOL0     C28786  11.518  10.123   0.791 -0.0481 -0.7910  0.0550
  214MOL0     C28787  11.630  10.137   0.716  0.0158 -0.0632 -0.9832
  214MOL0     C28788  11.752  10.112   0.773 -0.1118 -0.0905  0.9364
  214MOL0     C28789  11.768  10.059   0.903  0.5859  1.1063 -0.5072
  214MOL0     O28790  11.896  10.026   0.939 -0.8367  0.2078 -0.0316
  214MOL0     C28791  11.922   9.983   1.081  0.7382 -0.4599 -1.1087
  214MOL0     C28792  11.896   9.836   1.102  0.3023 -0.3082 -1.2399
  214MOL0     C28793  11.947   9.755   0.984 -0.2048 -0.1845 -0.4596
  214MOL0     C28794  11.979   9.613   1.019  0.8238 -0.3936 -0.5197
  214MOL0     C28795  12.033   9.531   0.903 -0.6353  0.5280  0.2193
  214MOL0     C28796  12.083   9.399   0.955 -0.2040  0.2209  0.5056
  214MOL0     C28797  11.991   9.331   1.061  0.3669  0.0204 -0.1599
  214MOL0     C28798  12.014   9.184   1.078  0.0070 -0.2579 -0.0696
  214MOL0    Cl28799  12.185   9.150   1.112  0.2353  0.0132  0.1279
  214MOL0     C28800  11.645  10.039   0.984 -0.0652  0.1438  1.0092
  214MOL0     C28801  11.523  10.073   0.920 -0.1342  0.5168  0.4703
  214MOL0     O28802  11.372   9.941   0.658 -0.3862  0.2315 -1.1428
  214MOL0     C28803  11.152  10.226   0.640 -1.3307  1.0667  0.1119
  214MOL0     C28804  11.031  10.260   0.582 -0.0530 -0.2545 -0.1501
  214MOL0     N28805  10.422  10.257   0.397  0.3417 -0.2234  0.2210
  214MOL0     N28806  10.299  10.290   0.396 -0.0344  0.0020 -0.0702
  214MOL0     C28807   9.230  10.437   0.931 -0.0911  0.5071 -0.2745
  214MOL0     C28808   9.115  10.412   0.994  0.4944  0.3357  0.2666
  214MOL0     C28809   8.727  10.426   1.212 -1.1400  0.3825 -0.3062
  214MOL0     C28810   8.628  10.372   1.124  0.0703 -0.6157  0.6407
  214MOL0     C28811   8.497  10.363   1.160 -0.4099  0.1336 -0.5850
  214MOL0     C28812   8.466  10.379   1.298 -0.7399 -0.4107 -0.1491
  214MOL0     O28813   8.344  10.354   1.339 -0.7365  0.0295 -0.1360
  214MOL0     C28814   8.249  10.455   1.300 -0.1245  0.2454  0.3645
  214MOL0     C28815   8.117  10.433   1.375  0.8829  0.2061 -0.4273
  214MOL0     C28816   8.057  10.295   1.356 -0.8836 -0.5056  0.0241
  214MOL0     C28817   7.904  10.311   1.374  0.3465 -0.4849  0.0091
  214MOL0     C28818   7.862  10.170   1.391  0.3855 -1.6659  1.5265
  214MOL0     C28819   7.869  10.052   1.411 -0.3889 -0.0124 -0.3014
  214MOL0     C28820   8.559  10.414   1.388  0.0724 -0.2181 -0.1508
  214MOL0     C28821   8.693  10.441   1.349  0.2224 -0.0539  0.1602
  214MOL0     C28822   8.789  10.472   1.468 -0.1051  0.1449 -0.0008
  214MOL0     H28823   8.907  10.612   0.826  0.4004 -0.8862 -0.7749
  214MOL0     H28824   9.111  10.680   0.715  0.0760  1.8088  2.2278
  214MOL0     H28825   9.539  10.499   0.811  0.8259 -1.0396 -0.9831
  214MOL0     H28826   9.427  10.388   0.765  1.0120 -1.3499 -1.1228
  214MOL0     H28827   9.515  10.609   0.577  0.3222  1.3091  3.3998
  214MOL0     H28828   9.419  10.457   0.535 -0.6061 -0.0446  2.3593
  214MOL0     H28829   9.632  10.335   0.621 -0.0407  0.2838  1.3778
  214MOL0     H28830   9.710  10.486   0.629 -1.2780  2.6647  1.7061
  214MOL0     H28831   9.609  10.356   0.374  0.5658 -0.5382 -0.5497
  214MOL0     H28832   9.648  10.531   0.394 -0.0636 -0.0431  0.6975
  214MOL0     H28833   9.852  10.441   0.310 -0.1204  0.5575 -0.1300
  214MOL0     H28834   9.878  10.468   0.481  1.6967 -0.6113 -0.3210
  214MOL0     H28835   9.821  10.228   0.527  0.6420  0.5163  0.4173
  214MOL0     H28836   9.797  10.195   0.354 -0.6635 -1.4811  0.8682
  214MOL0     H28837  10.037  10.264   0.314 -0.2226 -1.4418  0.3693
  214MOL0     H28838   9.999  10.111   0.370 -0.3213  0.0984 -1.2358
  214MOL0     H28839  10.053  10.335   0.578 -1.9344 -0.6221 -0.5403
  214MOL0     H28840  10.065  10.156   0.600  3.0966  0.1187  1.2452
  214MOL0     H28841  10.297  10.103   0.663  0.1534  0.3056  0.4986
  214MOL0     H28842  10.530   9.996   0.602 -0.2854 -3.2088 -3.9428
  214MOL0     H28843  10.616  10.067   0.474  1.0989  3.2736  0.1131
  214MOL0     H28844  10.595  10.167   0.755 -0.6586  0.0474 -1.3644
  214MOL0     H28845  10.737  10.104   0.682 -1.9452 -2.8335 -0.2512
  214MOL0     H28846  10.765  10.371   0.672 -1.4231  2.1105 -0.6657
  214MOL0     H28847  10.612  10.389   0.596 -1.7072 -2.4210 -3.4914
  214MOL0     H28848  10.833  10.404   0.469  0.6105 -0.0740  0.7219
  214MOL0     H28849  10.692  10.343   0.396 -3.6289 -1.5846  2.5154
  214MOL0     H28850  10.958   9.987   0.400  0.6982  0.3429 -0.0863
  214MOL0     H28851  11.171   9.921   0.490  2.9282  0.2320  0.9665
  214MOL0     H28852  11.625  10.172   0.613 -2.3371  0.2317 -0.8246
  214MOL0     H28853  11.843  10.114   0.714  0.0275 -2.8900  0.9400
  214MOL0     H28854  12.028  10.003   1.101  1.1287 -1.6650 -1.8059
  214MOL0     H28855  11.852  10.036   1.145  1.7862 -0.9564  0.4916
  214MOL0     H28856  11.941   9.808   1.197  2.4465  2.1454 -1.4424
  214MOL0     H28857  11.790   9.811   1.115  0.1999  1.4369  2.4688
  214MOL0     H28858  11.879   9.743   0.900 -2.3696 -3.0997  1.5232
  214MOL0     H28859  12.032   9.813   0.945 -0.8410 -0.3701 -2.2000
  214MOL0     H28860  11.888   9.563   1.050 -0.1806  0.4273 -2.0093
  214MOL0     H28861  12.048   9.623   1.104  0.4545  1.8507 -0.4054
  214MOL0     H28862  12.104   9.585   0.840 -1.9755  2.0165 -0.0629
  214MOL0     H28863  11.946   9.511   0.840 -1.7136  2.9728  0.8269
  214MOL0     H28864  12.103   9.337   0.867 -2.8885 -0.5879  0.3663
  214MOL0     H28865  12.174   9.436   1.003  0.7173  2.9475 -2.8469
  214MOL0     H28866  11.884   9.342   1.041  0.0646 -0.4623  1.0956
  214MOL0     H28867  12.020   9.375   1.157 -1.0514  1.1442 -0.2154
  214MOL0     H28868  11.961   9.166   1.172  1.3940  1.6654  1.1590
  214MOL0     H28869  11.980   9.155   0.978  0.2773  3.0803 -1.2501
  214MOL0     H28870  11.661   9.996   1.082 -2.9048 -1.3145  0.9493
  214MOL0     H28871  11.448  10.051   0.996 -1.8177 -0.6854 -1.4373
  214MOL0     H28872  11.215  10.300   0.687 -1.6311  1.4985 -0.1679
  214MOL0     H28873  10.999  10.362   0.602 -1.5076 -0.3029 -1.9418
  214MOL0     H28874   9.324  10.391   0.960 -1.3570 -0.2390  3.0931
  214MOL0     H28875   9.116  10.340   1.076 -0.0384  1.1712  1.0264
  214MOL0     H28876   8.650  10.354   1.019  2.6540 -0.1064  1.0428
  214MOL0     H28877   8.412  10.327   1.104 -2.2995 -0.5292  2.4641
  214MOL0     H28878   8.218  10.444   1.196  1.1131 -0.5443  0.0533
  214MOL0     H28879   8.287  10.556   1.312  1.2226  0.3600 -3.5059
  214MOL0     H28880   8.046  10.511   1.344  3.4354  1.9040 -2.3690
  214MOL0     H28881   8.125  10.456   1.482  0.0935 -2.0651  0.1708
  214MOL0     H28882   8.100  10.225   1.428  1.5903  0.1166 -0.7428
  214MOL0     H28883   8.076  10.264   1.253  0.8076 -0.9142  0.4336
  214MOL0     H28884   7.885  10.369   1.465 -3.1966  0.5642 -1.2350
  214MOL0     H28885   7.860  10.355   1.284  0.7856 -1.8568 -0.9135
  214MOL0     H28886   7.890   9.954   1.448  2.8124  1.1962  1.5497
  214MOL0     H28887   8.542  10.417   1.495  1.3286 -0.9174  0.0874
  214MOL0     H28888   8.726  10.507   1.551 -1.4768  0.9031 -1.3241
  214MOL0     H28889   8.835  10.378   1.501 -3.6329 -1.5496  0.5316
  214MOL0     H28890   8.861  10.551   1.443  2.6275 -0.8580  3.7766
  215MOL0     O28891   1.109   0.552  10.917 -0.0358 -0.1983 -0.1348
  215MOL0     C28892   1.060   0.649  10.977  0.5001  1.0767  0.5141
  215MOL0     O28893   0.927   0.684  10.990 -0.3794 -0.5846 -0.6940
  215MOL0     C28894   0.828   0.614  10.943 -0.1342 -0.1332  0.3598
  215MOL0     C28895   0.720   0.683  10.910  0.8672  0.6636  0.1615
  215MOL0     C28896   0.608   0.626  10.859 -0.1952  0.5753  1.3687
  215MOL0     C28897   0.600   0.485  10.833  0.8596  0.2036 -0.3764
  215MOL0     O28898   0.489   0.415  10.788  0.6683 -0.0250  0.1961
  215MOL0     C28899   0.407   0.484  10.692  0.2278  0.3182 -0.0961
  215MOL0     C28900   0.307   0.395  10.632  0.4924 -0.4853  0.7293
  215MOL0     C28901   0.228   0.485  10.534 -0.5581  0.7686  0.0217
  215MOL0     C28902   0.105   0.418  10.487 -0.5944  0.2532  0.1066
  215MOL0     C28903   0.032   0.511  10.392  0.7147  0.3464 -0.0556
  215MOL0     C28904  -0.085   0.438  10.327  0.8083  0.5286 -0.9209
  215MOL0     C28905  -0.188   0.529  10.261 -0.9060 -0.2602  0.3621
  215MOL0     C28906  -0.269   0.624  10.354  0.6343 -0.4520 -1.3327
  215MOL0     N28907  -0.352   0.704  10.262  0.4316  0.0164  0.4032
  215MOL0     C28908  -0.478   0.684  10.225  0.6469  0.8791 -0.3157
  215MOL0     C28909  -0.502   0.776  10.127  0.1499  1.1757 -0.7716
  215MOL0     C28910  -0.637   0.800  10.061  0.2405  0.0879 -1.1544
  215MOL0     C28911  -0.760   0.806  10.151  0.2378  0.6097  0.0041
  215MOL0     C28912  -0.749   0.930  10.241 -0.3405  0.6263 -0.5916
  215MOL0     C28913  -0.889   0.996  10.280  0.1965 -0.1465 -0.0008
  215MOL0     O28914  -0.963   0.898  10.341 -0.5772 -0.0258 -0.1569
  215MOL0     C28915  -1.097   0.913  10.360  0.2302  0.7610  0.5359
  215MOL0     C28916  -1.181   0.798  10.371 -0.7928  0.5230 -0.7113
  215MOL0     C28917  -1.318   0.811  10.404 -0.2957 -0.3733  0.0992
  215MOL0     C28918  -1.364   0.940  10.431 -0.2912 -1.3373  0.1832
  215MOL0     C28919  -1.509   0.955  10.462 -0.1524 -0.1727 -0.0191
  215MOL0     O28920  -1.574   0.848  10.520  0.2473 -0.6381 -0.7412
  215MOL0     C28921  -1.699   0.861  10.580  0.3911  0.2450 -0.3457
  215MOL0     C28922  -1.699   0.867  10.719  0.6176  0.0629  1.1296
  215MOL0     C28923  -1.814   0.873  10.788  0.5222  0.4510 -0.7468
  215MOL0     C28924  -1.943   0.871  10.718 -0.0868  0.6787 -0.0869
  215MOL0     O28925  -2.067   0.852  10.766 -0.4177  0.2785 -0.3134
  215MOL0     C28926  -2.069   0.851  10.902 -0.4670 -0.2871 -0.1171
  215MOL0     C28927  -2.217   0.850  10.950  0.6550  0.3730 -0.4146
  215MOL0     C28928  -2.243   0.876  11.094  0.7748 -0.1381 -0.1879
  215MOL0     C28929  -2.392   0.912  11.112  0.4545 -0.2135 -0.8993
  215MOL0     C28930  -2.422   0.960  11.263  0.3448 -0.8562 -0.6288
  215MOL0     C28931  -2.373   1.105  11.283  0.2415  0.3154  0.6757
  215MOL0     C28932  -2.400   1.181  11.414 -0.0235  0.2384  0.0234
  215MOL0     C28933  -2.541   1.211  11.444 -0.6892 -0.5974 -0.6434
  215MOL0    Cl28934  -2.629   1.054  11.487 -0.1309  0.6598  0.5518
  215MOL0     C28935  -1.937   0.867  10.578 -0.2699 -0.5399 -0.8561
  215MOL0     C28936  -1.826   0.869  10.509 -0.4880  0.2302  0.6064
  215MOL0     O28937  -1.562   1.066  10.455  0.3255  0.2092 -0.4982
  215MOL0     C28938  -1.285   1.054  10.418  0.7000 -0.3977 -0.3988
  215MOL0     C28939  -1.151   1.038  10.385 -0.3835 -0.9279  0.0566
  215MOL0     N28940  -0.384   0.849  10.110 -0.0598 -0.5454 -0.2415
  215MOL0     N28941  -0.295   0.803  10.190  0.0487 -0.5922  0.0057
  215MOL0     C28942   0.714   0.416  10.866 -0.4275  0.4699 -0.8072
  215MOL0     C28943   0.827   0.478  10.922  0.0297  0.3928  0.1099
  215MOL0     C28944   1.149   0.737  11.045 -0.6498 -0.5357  0.4173
  215MOL0     C28945   1.109   0.783  11.171 -0.0516  0.2536 -0.3514
  215MOL0     C28946   1.186   0.853  11.255  0.0138  0.2042  0.1468
  215MOL0     C28947   1.316   0.891  11.212  0.2251 -0.0140 -0.5640
  215MOL0     O28948   1.398   0.966  11.296 -0.5459  0.2639 -0.4520
  215MOL0     C28949   1.524   1.009  11.253 -0.4172 -0.0931  0.1367
  215MOL0     C28950   1.610   1.072  11.369  0.1374  0.0382  1.1990
  215MOL0     C28951   1.552   1.213  11.407 -0.4201 -0.0052  0.5560
  215MOL0     C28952   1.633   1.271  11.520  0.0158 -0.1144  0.1473
  215MOL0     C28953   1.763   1.319  11.473 -0.5529  0.0197  0.2437
  215MOL0     C28954   1.871   1.358  11.440 -0.7325 -0.3876 -0.0711
  215MOL0     C28955   1.355   0.849  11.082  0.2408  0.3863  0.5263
  215MOL0     C28956   1.272   0.780  10.997 -0.3345  0.0187 -0.5515
  215MOL0     C28957   1.331   0.750  10.863  0.2997  0.7608 -0.1308
  215MOL0     H28958   0.730   0.791  10.914  0.6578  0.6458  1.2157
  215MOL0     H28959   0.525   0.689  10.829  1.1929  1.4596 -0.8254
  215MOL0     H28960   0.360   0.577  10.724 -1.6112 -0.0962 -1.4438
  215MOL0     H28961   0.473   0.517  10.611  0.5219 -1.3851 -0.5840
  215MOL0     H28962   0.242   0.369  10.717 -0.9936 -0.5372 -0.3854
  215MOL0     H28963   0.348   0.307  10.582 -0.0622 -0.2140 -0.2193
  215MOL0     H28964   0.297   0.500  10.450 -0.4352  1.7883  0.2915
  215MOL0     H28965   0.196   0.578  10.581 -2.2148 -0.3960  1.2849
  215MOL0     H28966   0.130   0.322  10.441 -2.6106  1.4062 -3.7454
  215MOL0     H28967   0.051   0.398  10.581 -0.8737 -0.1353 -0.1332
  215MOL0     H28968  -0.000   0.604  10.440  0.5104 -0.7337  1.9895
  215MOL0     H28969   0.083   0.544  10.301  1.5685  1.6845  0.8778
  215MOL0     H28970  -0.041   0.364  10.258  3.2071 -0.2298  1.2519
  215MOL0     H28971  -0.136   0.385  10.408  0.6742  2.9030  0.6480
  215MOL0     H28972  -0.265   0.468  10.213 -0.6574  0.3863 -0.8728
  215MOL0     H28973  -0.145   0.577  10.173 -0.4620 -1.5052 -0.1187
  215MOL0     H28974  -0.343   0.571  10.415 -0.8745  2.2272 -0.6747
  215MOL0     H28975  -0.214   0.699  10.412 -1.6281 -0.5357  1.1307
  215MOL0     H28976  -0.559   0.635  10.278 -0.7175  2.3394 -0.9434
  215MOL0     H28977  -0.629   0.894  10.005 -1.5389  1.6525  1.0231
  215MOL0     H28978  -0.660   0.719   9.990 -0.7717  1.5029 -2.5044
  215MOL0     H28979  -0.846   0.806  10.083  0.0580  0.5494  0.2290
  215MOL0     H28980  -0.776   0.712  10.204  3.9403  0.7706  1.6839
  215MOL0     H28981  -0.684   0.993  10.180 -0.7105 -0.5956 -2.3506
  215MOL0     H28982  -0.696   0.891  10.328  1.4152  0.9578 -1.4746
  215MOL0     H28983  -0.932   1.031  10.185 -1.3444  0.9062  1.0317
  215MOL0     H28984  -0.869   1.078  10.350  0.8861 -0.8911  0.6898
  215MOL0     H28985  -1.145   0.700  10.342  0.1556  0.9236 -0.9359
  215MOL0     H28986  -1.384   0.725  10.411  1.5798 -1.8571  0.4286
  215MOL0     H28987  -1.602   0.868  10.769  1.0241 -2.5658  0.5433
  215MOL0     H28988  -1.817   0.873  10.897 -0.9221 -1.0997 -0.7474
  215MOL0     H28989  -2.009   0.772  10.948 -0.9575 -0.5001  0.1609
  215MOL0     H28990  -2.027   0.946  10.937  2.0613 -0.5631 -2.0694
  215MOL0     H28991  -2.272   0.926  10.893 -0.0921  0.8269  0.8831
  215MOL0     H28992  -2.259   0.753  10.924  0.5271  0.1086  0.7339
  215MOL0     H28993  -2.219   0.790  11.158  0.6984  0.3518  0.5022
  215MOL0     H28994  -2.174   0.954  11.129 -1.2283  1.4343  0.4181
  215MOL0     H28995  -2.459   0.826  11.101 -1.8245  1.3347  0.0880
  215MOL0     H28996  -2.415   0.992  11.040 -2.6022 -0.9085 -0.8325
  215MOL0     H28997  -2.390   0.905  11.352  1.3050 -0.2538 -0.5865
  215MOL0     H28998  -2.532   0.968  11.262  0.4534  2.9687  0.6046
  215MOL0     H28999  -2.266   1.112  11.262 -0.0465  0.1288 -0.9322
  215MOL0     H29000  -2.424   1.171  11.213 -1.5965 -2.8665 -1.2131
  215MOL0     H29001  -2.346   1.276  11.409 -1.3833  1.0441  0.0586
  215MOL0     H29002  -2.358   1.120  11.495 -0.4594  0.2035  0.2280
  215MOL0     H29003  -2.554   1.281  11.528 -1.6418 -0.4320 -0.9159
  215MOL0     H29004  -2.594   1.259  11.361 -0.2636  2.7715  0.8749
  215MOL0     H29005  -2.035   0.865  10.532 -1.3992  1.4308  1.2289
  215MOL0     H29006  -1.825   0.863  10.400 -0.8836  1.4752  0.5135
  215MOL0     H29007  -1.320   1.157  10.422 -2.8022 -1.4691  0.3530
  215MOL0     H29008  -1.094   1.129  10.366 -1.2460 -0.6528 -1.2993
  215MOL0     H29009   0.724   0.309  10.850  0.0310  0.0280  1.9688
  215MOL0     H29010   0.915   0.417  10.939 -0.8180 -0.6326  1.0131
  215MOL0     H29011   1.009   0.763  11.208 -0.7309 -2.5778 -3.2616
  215MOL0     H29012   1.150   0.888  11.351  0.9968  3.3426 -0.5351
  215MOL0     H29013   1.523   1.078  11.168  0.5110 -2.1869 -1.6704
  215MOL0     H29014   1.585   0.924  11.221  1.1712 -0.0761  2.8407
  215MOL0     H29015   1.716   1.071  11.340 -0.7444 -0.5423 -2.4708
  215MOL0     H29016   1.596   1.007  11.455  0.8594 -1.7675  0.0108
  215MOL0     H29017   1.447   1.205  11.434 -0.7454  1.0110 -0.3418
  215MOL0     H29018   1.541   1.277  11.320 -1.0202 -1.2773 -0.3346
  215MOL0     H29019   1.581   1.356  11.565  0.5654  0.3138 -0.0112
  215MOL0     H29020   1.653   1.195  11.596  0.9524  1.3537  1.4522
  215MOL0     H29021   1.970   1.386  11.410 -0.2916  0.1757  1.8048
  215MOL0     H29022   1.447   0.891  11.042  0.3125  0.0941  0.3797
  215MOL0     H29023   1.252   0.733  10.788  0.8193 -0.9238 -0.3228
  215MOL0     H29024   1.396   0.826  10.817  2.5609 -0.4549  0.9165
  215MOL0     H29025   1.395   0.662  10.862 -0.5795  0.1105 -0.2139
  216MOL0     O29026   0.631   1.036   6.089  0.1545  0.3410  0.4093
  216MOL0     C29027   0.575   1.145   6.103 -0.8992  0.3863 -0.5598
  216MOL0     O29028   0.643   1.266   6.073 -0.4070 -0.4670 -0.0429
  216MOL0     C29029   0.769   1.264   6.019 -0.0870  0.0103  0.0991
  216MOL0     C29030   0.882   1.284   6.091 -0.4778  0.0363  0.2025
  216MOL0     C29031   1.007   1.296   6.020  0.1820  0.6031  0.0010
  216MOL0     C29032   1.008   1.278   5.881 -0.1869  0.4765 -0.2850
  216MOL0     O29033   1.127   1.282   5.821  1.0554  0.1999  0.5584
  216MOL0     C29034   1.241   1.320   5.876  0.1388  0.0651 -0.7053
  216MOL0     C29035   1.347   1.327   5.769 -0.3498 -0.4391 -0.6008
  216MOL0     C29036   1.334   1.449   5.689  0.6513  0.1001  0.0520
  216MOL0     C29037   1.439   1.461   5.581  0.7777  0.0612  0.9226
  216MOL0     C29038   1.424   1.594   5.506  1.4583  0.5771 -0.2137
  216MOL0     C29039   1.509   1.606   5.380  0.2543  0.1513 -0.2553
  216MOL0     C29040   1.462   1.710   5.270 -0.4464 -0.1146  0.6693
  216MOL0     C29041   1.574   1.739   5.154 -0.0519 -0.7401  0.3016
  216MOL0     N29042   1.692   1.812   5.209 -0.9008 -0.6385  0.6790
  216MOL0     C29043   1.785   1.773   5.302  0.6504 -0.1221  0.2688
  216MOL0     C29044   1.882   1.865   5.291 -0.0980  0.5313 -0.9108
  216MOL0     C29045   2.006   1.859   5.383 -1.1326 -0.9486 -0.8002
  216MOL0     C29046   2.129   1.947   5.352  0.8720 -0.8395  0.6201
  216MOL0     C29047   2.257   1.885   5.420 -0.0508 -0.5248 -0.6204
  216MOL0     C29048   2.259   1.948   5.559 -0.5245 -0.8532 -0.4548
  216MOL0     O29049   2.341   1.863   5.632 -1.2300 -0.1466  0.2214
  216MOL0     C29050   2.477   1.876   5.648  0.3456 -0.7122 -0.6898
  216MOL0     C29051   2.550   1.980   5.585  0.1506 -0.5282  0.0953
  216MOL0     C29052   2.685   1.975   5.611  0.2385 -0.3314 -0.5410
  216MOL0     C29053   2.754   1.880   5.688 -0.1703  1.4106  1.3426
  216MOL0     C29054   2.902   1.865   5.683  0.1020  0.1596  0.0526
  216MOL0     O29055   2.968   1.939   5.590 -0.2924 -0.1163  0.1114
  216MOL0     C29056   3.098   1.918   5.563  0.3773 -0.2542 -0.0875
  216MOL0     C29057   3.132   1.806   5.483 -0.2897 -0.5764 -0.5357
  216MOL0     C29058   3.260   1.784   5.445 -0.4774  0.1933  0.0205
  216MOL0     C29059   3.360   1.869   5.494  0.2425  0.0723 -0.5459
  216MOL0     O29060   3.492   1.851   5.459 -0.3425 -0.0374  0.3206
  216MOL0     C29061   3.561   1.722   5.510  0.0561 -1.0260  0.3881
  216MOL0     C29062   3.703   1.759   5.559 -0.2212  0.1249  0.0240
  216MOL0     C29063   3.773   1.639   5.617  0.3563 -0.1767 -0.4095
  216MOL0     C29064   3.838   1.542   5.520  0.6245  0.3354 -0.0328
  216MOL0     C29065   3.851   1.403   5.577 -0.0747  0.9731 -0.1449
  216MOL0     C29066   3.903   1.291   5.488  0.4131  1.0429  0.2657
  216MOL0     C29067   3.909   1.156   5.564  1.0210 -0.0092 -0.2757
  216MOL0     C29068   3.961   1.041   5.466  1.0935 -0.5102 -0.3430
  216MOL0    Cl29069   4.120   1.062   5.422  0.1163  0.3746 -0.0737
  216MOL0     C29070   3.334   1.985   5.572 -0.3892  0.6360  1.0151
  216MOL0     C29071   3.197   2.009   5.600  0.6008 -0.6437 -0.0884
  216MOL0     O29072   2.963   1.789   5.767  0.3426 -0.1658 -0.0021
  216MOL0     C29073   2.672   1.791   5.757 -0.0726 -0.5300 -0.1105
  216MOL0     C29074   2.530   1.788   5.742 -0.5656 -0.7624  0.1100
  216MOL0     N29075   1.841   1.972   5.205  0.1040 -0.0149 -0.0811
  216MOL0     N29076   1.724   1.934   5.162  0.7126 -0.0460 -0.7599
  216MOL0     C29077   0.903   1.239   5.809 -0.1907 -0.6075 -0.3218
  216MOL0     C29078   0.778   1.237   5.875  0.1081 -0.0023 -0.2248
  216MOL0     C29079   0.423   1.143   6.134 -0.2561  0.5595 -0.0784
  216MOL0     C29080   0.362   1.265   6.152 -0.3389 -0.6047 -0.0956
  216MOL0     C29081   0.232   1.282   6.188  0.0868 -0.1441  0.2775
  216MOL0     C29082   0.148   1.170   6.214  0.6844 -0.5704  0.4965
  216MOL0     O29083   0.012   1.169   6.243 -0.0142  0.7594 -0.9356
  216MOL0     C29084  -0.061   1.288   6.274  0.5274  0.1316 -0.2693
  216MOL0     C29085  -0.215   1.266   6.248 -0.2764 -0.7788  0.7609
  216MOL0     C29086  -0.276   1.196   6.367  0.5534  0.0680  0.0549
  216MOL0     C29087  -0.423   1.217   6.371 -0.6875 -0.8831 -0.1203
  216MOL0     C29088  -0.500   1.115   6.303  0.6676 -0.3473  0.4208
  216MOL0     C29089  -0.566   1.040   6.236 -1.1775 -0.4518  0.5602
  216MOL0     C29090   0.211   1.045   6.206  0.3344  1.0205  0.1366
  216MOL0     C29091   0.346   1.029   6.166  0.4490 -0.4092  0.3903
  216MOL0     C29092   0.410   0.897   6.166 -0.6337 -0.2653 -0.4413
  216MOL0     H29093   0.872   1.303   6.198 -2.6306  2.3809 -0.3261
  216MOL0     H29094   1.089   1.312   6.090 -0.1874  0.7044  0.4182
  216MOL0     H29095   1.227   1.423   5.909 -3.4892 -0.3758 -0.4356
  216MOL0     H29096   1.272   1.246   5.950 -1.7283 -0.6387 -0.5638
  216MOL0     H29097   1.347   1.238   5.705  1.2507 -0.8955 -0.0099
  216MOL0     H29098   1.442   1.339   5.822  0.2505 -0.4618 -1.6456
  216MOL0     H29099   1.323   1.541   5.747  1.4950  0.3974 -0.2548
  216MOL0     H29100   1.236   1.438   5.641  1.9310 -2.9232 -2.1306
  216MOL0     H29101   1.537   1.454   5.630  2.4680  1.3336 -2.0548
  216MOL0     H29102   1.425   1.374   5.516 -0.5124  1.2641 -0.4793
  216MOL0     H29103   1.320   1.589   5.474  1.2496 -0.8344  0.5810
  216MOL0     H29104   1.441   1.676   5.576 -1.3639 -0.0064  1.2946
  216MOL0     H29105   1.616   1.609   5.404  0.6637 -1.7432 -1.5855
  216MOL0     H29106   1.501   1.514   5.321 -2.2208  1.1434 -1.6322
  216MOL0     H29107   1.424   1.805   5.310  1.0033  1.9336 -2.3986
  216MOL0     H29108   1.373   1.668   5.222  0.3857 -2.6613  1.1982
  216MOL0     H29109   1.609   1.650   5.101  3.0542 -1.3414  3.0037
  216MOL0     H29110   1.525   1.797   5.076 -1.4391 -2.1777  0.0503
  216MOL0     H29111   1.793   1.682   5.360  1.5104  0.7483  1.5779
  216MOL0     H29112   1.959   1.869   5.481 -2.3958 -0.1567 -1.4591
  216MOL0     H29113   2.042   1.756   5.386  3.0172  0.3434  0.1649
  216MOL0     H29114   2.143   1.961   5.244 -0.0077  0.2499  0.6285
  216MOL0     H29115   2.114   2.046   5.395  1.3404  0.8599 -2.7503
  216MOL0     H29116   2.347   1.916   5.367  1.0092  0.0168  1.3948
  216MOL0     H29117   2.250   1.776   5.424 -1.2419 -0.5244 -1.8107
  216MOL0     H29118   2.156   1.948   5.596  0.1124  1.3242  1.5326
  216MOL0     H29119   2.293   2.052   5.548  2.5832 -1.7696 -0.4810
  216MOL0     H29120   2.500   2.044   5.513 -1.4398 -0.4225  1.2532
  216MOL0     H29121   2.742   2.048   5.554  0.3092 -0.6659 -0.9057
  216MOL0     H29122   3.057   1.732   5.462 -0.6738 -0.7202  1.2086
  216MOL0     H29123   3.281   1.700   5.379  1.2103  0.9076 -0.4188
  216MOL0     H29124   3.501   1.686   5.594 -0.5787 -0.8837  0.0065
  216MOL0     H29125   3.563   1.661   5.420  1.8112  2.8207 -2.4636
  216MOL0     H29126   3.755   1.802   5.473  2.1787 -2.5516 -0.0157
  216MOL0     H29127   3.699   1.841   5.631 -0.7061 -0.7260  0.9947
  216MOL0     H29128   3.845   1.693   5.681  0.1715 -0.3629 -0.0412
  216MOL0     H29129   3.710   1.576   5.680 -2.2430  1.5717 -1.0836
  216MOL0     H29130   3.934   1.578   5.483  0.1294  0.0332 -1.6840
  216MOL0     H29131   3.768   1.532   5.436 -2.0410  0.3886  2.0150
  216MOL0     H29132   3.751   1.379   5.613 -0.5737  0.9114 -1.5016
  216MOL0     H29133   3.924   1.396   5.659  1.5926 -2.8298 -1.7057
  216MOL0     H29134   3.828   1.281   5.410  1.0807  2.3539 -0.5754
  216MOL0     H29135   4.004   1.318   5.457  0.7371 -0.0926  0.2848
  216MOL0     H29136   3.817   1.141   5.622 -0.2977  4.3020 -0.9316
  216MOL0     H29137   3.979   1.179   5.644 -0.7625  1.0884  1.0583
  216MOL0     H29138   3.964   0.952   5.529  0.8389  1.0949  2.0719
  216MOL0     H29139   3.893   1.032   5.381 -1.6032 -3.7056  1.9149
  216MOL0     H29140   3.416   2.054   5.590  0.7480 -0.3226 -0.3315
  216MOL0     H29141   3.168   2.092   5.664  3.6312  0.7652 -0.3336
  216MOL0     H29142   2.724   1.722   5.823 -0.1322 -1.3575 -0.9093
  216MOL0     H29143   2.472   1.711   5.793 -1.8035  0.2908  0.3395
  216MOL0     H29144   0.908   1.203   5.707 -1.5332 -1.3413 -0.1552
  216MOL0     H29145   0.685   1.214   5.824 -0.8849  1.5303  0.8240
  216MOL0     H29146   0.421   1.350   6.121  1.0129 -2.2306 -2.2972
  216MOL0     H29147   0.193   1.383   6.185  0.9801  0.1924 -0.3692
  216MOL0     H29148  -0.035   1.367   6.203  1.8425  1.0572  1.1845
  216MOL0     H29149  -0.037   1.317   6.377  2.0745  0.2286 -0.6250
  216MOL0     H29150  -0.217   1.209   6.154  0.6297  0.8580 -0.2936
  216MOL0     H29151  -0.263   1.363   6.232  0.8952 -0.1722  0.8753
  216MOL0     H29152  -0.242   1.229   6.466 -1.3003  2.5398 -0.0206
  216MOL0     H29153  -0.251   1.090   6.374 -2.2481 -0.5963  1.5497
  216MOL0     H29154  -0.448   1.229   6.476 -0.3772  0.0026 -0.1395
  216MOL0     H29155  -0.448   1.317   6.333  3.4607  2.4014  4.6184
  216MOL0     H29156  -0.619   0.971   6.173 -0.8907  1.4589 -1.9293
  216MOL0     H29157   0.142   0.962   6.222  1.2939 -0.2952 -2.1288
  216MOL0     H29158   0.506   0.887   6.217  0.5405 -2.6937 -2.8980
  216MOL0     H29159   0.334   0.830   6.207 -0.9403 -2.3738 -4.0434
  216MOL0     H29160   0.427   0.872   6.061 -2.7095 -0.1493 -0.8463
  217MOL0     O29161   0.992   5.521   2.699 -0.5749  0.0404 -0.3075
  217MOL0     C29162   0.962   5.634   2.663 -0.0662 -0.2283  0.5687
  217MOL0     O29163   0.835   5.680   2.653  0.4530 -0.5632  0.6847
  217MOL0     C29164   0.730   5.603   2.693 -0.2568 -0.6356 -0.5094
  217MOL0     C29165   0.692   5.494   2.611 -0.5351 -0.2604 -0.2907
  217MOL0     C29166   0.587   5.401   2.646 -0.0658 -0.9657  0.2032
  217MOL0     C29167   0.520   5.425   2.772 -0.5980 -0.1404 -0.7615
  217MOL0     O29168   0.424   5.335   2.803 -0.0568  0.0709  0.5436
  217MOL0     C29169   0.322   5.356   2.906  0.1549  0.0795  1.0382
  217MOL0     C29170   0.193   5.326   2.845  1.2945  0.0824  1.0137
  217MOL0     C29171   0.089   5.293   2.948  0.1815 -0.4123 -0.0992
  217MOL0     C29172  -0.041   5.237   2.883 -0.3419  0.3304  0.2860
  217MOL0     C29173  -0.137   5.204   2.993  0.0791  0.1854  0.1237
  217MOL0     C29174  -0.281   5.154   2.964 -0.1403 -0.6190  0.2440
  217MOL0     C29175  -0.381   5.155   3.086  0.0230  0.0514  0.1167
  217MOL0     C29176  -0.523   5.122   3.060  0.6066 -0.7897  0.4607
  217MOL0     N29177  -0.579   5.067   3.184  0.9306 -0.5784  0.2313
  217MOL0     C29178  -0.550   4.942   3.236 -0.0522  0.2619  1.3792
  217MOL0     C29179  -0.651   4.914   3.324 -0.0051  0.1357  0.9438
  217MOL0     C29180  -0.665   4.785   3.401 -0.3508  0.7527 -0.0477
  217MOL0     C29181  -0.798   4.713   3.389 -0.5822 -0.5567  0.1257
  217MOL0     C29182  -0.897   4.758   3.490 -0.0454  0.4576 -0.1349
  217MOL0     C29183  -1.033   4.684   3.500 -0.9138  0.7081  0.0645
  217MOL0     O29184  -1.130   4.758   3.561  0.6299 -1.0916 -0.2238
  217MOL0     C29185  -1.262   4.718   3.552 -0.1395 -0.6983  1.1111
  217MOL0     C29186  -1.312   4.595   3.498  0.2786 -0.7430  0.0638
  217MOL0     C29187  -1.451   4.566   3.502 -0.4282 -0.7582  0.0775
  217MOL0     C29188  -1.539   4.651   3.560  0.6890  0.0788 -0.4208
  217MOL0     C29189  -1.680   4.602   3.591 -0.4832  0.2977  0.6421
  217MOL0     O29190  -1.718   4.488   3.531 -0.3780  0.2564  0.1023
  217MOL0     C29191  -1.852   4.467   3.535 -0.4123 -1.4770  0.5504
  217MOL0     C29192  -1.919   4.413   3.644 -0.2282  0.7614  0.4901
  217MOL0     C29193  -2.051   4.385   3.635 -0.0816  0.2426 -0.5580
  217MOL0     C29194  -2.134   4.400   3.519  0.1375  0.2990 -0.0836
  217MOL0     O29195  -2.266   4.348   3.503 -0.7592 -0.9235 -0.0727
  217MOL0     C29196  -2.283   4.212   3.546 -0.6730 -0.3580  0.3670
  217MOL0     C29197  -2.405   4.203   3.636  1.1056  0.2566 -0.2725
  217MOL0     C29198  -2.535   4.170   3.556  0.0570 -0.4825  0.1321
  217MOL0     C29199  -2.649   4.094   3.631 -0.2064 -0.3800 -0.4511
  217MOL0     C29200  -2.771   4.054   3.545  0.3744 -0.9755 -0.8104
  217MOL0     C29201  -2.895   4.025   3.625  0.5219  0.6797 -0.3304
  217MOL0     C29202  -3.026   3.990   3.545 -0.3846  0.5273  0.0768
  217MOL0     C29203  -3.000   3.874   3.455  0.2022  0.6128  0.3304
  217MOL0    Cl29204  -2.960   3.925   3.287 -0.2867 -0.2089 -0.4769
  217MOL0     C29205  -2.064   4.466   3.413 -0.1614  0.3194  0.1398
  217MOL0     C29206  -1.929   4.507   3.422  0.4337 -1.1409 -0.6188
  217MOL0     O29207  -1.754   4.677   3.659 -0.1110  0.0358 -0.1699
  217MOL0     C29208  -1.497   4.780   3.604 -0.3100 -0.0158 -0.1089
  217MOL0     C29209  -1.361   4.812   3.598  1.0343  0.0194  0.4546
  217MOL0     N29210  -0.742   5.019   3.326 -1.3028  0.5752 -0.2434
  217MOL0     N29211  -0.696   5.109   3.250 -0.3177 -0.6421  0.6042
  217MOL0     C29212   0.550   5.543   2.848 -0.5425 -0.1518 -0.0936
  217MOL0     C29213   0.653   5.628   2.804  0.2794  0.2332  0.3756
  217MOL0     C29214   1.065   5.738   2.648 -0.4298  0.0406  0.2959
  217MOL0     C29215   1.086   5.831   2.750 -0.7032 -0.4058  0.1280
  217MOL0     C29216   1.173   5.932   2.722 -0.6741  0.7267  0.7304
  217MOL0     C29217   1.247   5.952   2.606 -0.0140 -0.7641 -0.4036
  217MOL0     O29218   1.322   6.063   2.603  0.1953 -0.1345  0.1813
  217MOL0     C29219   1.426   6.079   2.501 -0.0163  0.4971  0.5877
  217MOL0     C29220   1.545   5.991   2.536  0.0034 -0.5144  0.1948
  217MOL0     C29221   1.617   6.017   2.677  0.4548 -0.7330 -0.0912
  217MOL0     C29222   1.717   5.905   2.729  0.3588 -0.2579 -0.8141
  217MOL0     C29223   1.775   5.958   2.862 -0.3934 -0.2873  0.9271
  217MOL0     C29224   1.839   5.994   2.962 -0.8673 -0.1189  1.1735
  217MOL0     C29225   1.246   5.844   2.517 -0.5930  1.2888 -0.6324
  217MOL0     C29226   1.148   5.738   2.537 -0.2064  0.3780 -0.0389
  217MOL0     C29227   1.128   5.618   2.441 -0.7323 -0.2382  0.6319
  217MOL0     H29228   0.756   5.476   2.525 -2.8456 -1.9225 -1.8007
  217MOL0     H29229   0.557   5.317   2.583 -0.6250 -1.2716  0.8588
  217MOL0     H29230   0.339   5.296   2.996 -1.4690  0.2322  1.4811
  217MOL0     H29231   0.319   5.460   2.940 -0.9136  0.4962 -0.2677
  217MOL0     H29232   0.201   5.240   2.779 -1.0155  1.7119 -1.6075
  217MOL0     H29233   0.166   5.416   2.789 -0.3464 -1.2376 -0.4507
  217MOL0     H29234   0.063   5.377   3.013 -0.0483  0.8234 -1.7141
  217MOL0     H29235   0.137   5.214   3.006 -1.8706 -0.8884  1.0798
  217MOL0     H29236  -0.084   5.317   2.822  0.4586  0.3968 -0.1999
  217MOL0     H29237  -0.025   5.154   2.813  0.6803  2.6089 -2.3606
  217MOL0     H29238  -0.098   5.122   3.054  1.5704  0.4886 -0.3648
  217MOL0     H29239  -0.140   5.300   3.046 -2.8500  1.9661 -2.8402
  217MOL0     H29240  -0.324   5.219   2.887 -0.5882  0.5865  1.4495
  217MOL0     H29241  -0.275   5.053   2.924 -0.1063 -0.9090  0.9691
  217MOL0     H29242  -0.365   5.242   3.150  0.6336  0.4501 -0.5596
  217MOL0     H29243  -0.342   5.069   3.141 -3.0082 -1.3662  0.2280
  217MOL0     H29244  -0.571   5.218   3.043  0.9343 -0.2695  2.2152
  217MOL0     H29245  -0.534   5.046   2.982 -0.9549 -1.1254  0.9792
  217MOL0     H29246  -0.469   4.878   3.205 -2.2428 -1.7061 -0.7463
  217MOL0     H29247  -0.586   4.715   3.370  0.3756  0.7031  1.8005
  217MOL0     H29248  -0.635   4.804   3.504 -1.3182  2.5706 -0.0690
  217MOL0     H29249  -0.834   4.714   3.286 -0.2733 -3.0644 -0.0656
  217MOL0     H29250  -0.798   4.607   3.416 -4.3398 -0.0292  3.0357
  217MOL0     H29251  -0.933   4.859   3.469 -1.0509 -0.0586 -0.9293
  217MOL0     H29252  -0.856   4.751   3.592  2.8437  2.9816 -0.9648
  217MOL0     H29253  -1.009   4.588   3.547 -0.1173  0.1690 -1.3807
  217MOL0     H29254  -1.057   4.652   3.399 -0.6775 -0.1220  0.2607
  217MOL0     H29255  -1.241   4.516   3.472  0.9713  0.4672 -1.9586
  217MOL0     H29256  -1.493   4.471   3.472  1.1952 -1.8837  1.1998
  217MOL0     H29257  -1.867   4.381   3.734 -1.4788 -0.2209  0.8896
  217MOL0     H29258  -2.105   4.343   3.719  0.1099 -0.6825 -0.8861
  217MOL0     H29259  -2.300   4.166   3.448 -1.9490  2.4012 -0.8006
  217MOL0     H29260  -2.200   4.166   3.601 -0.1896  1.9941  1.7366
  217MOL0     H29261  -2.389   4.115   3.698 -1.3684  0.6129  1.0091
  217MOL0     H29262  -2.416   4.291   3.699  1.7320 -1.2375  2.0235
  217MOL0     H29263  -2.582   4.262   3.522 -0.4804 -0.3993  1.0703
  217MOL0     H29264  -2.517   4.104   3.471  0.3912 -1.2193  0.7596
  217MOL0     H29265  -2.675   4.163   3.712  0.6244 -1.4972  0.8148
  217MOL0     H29266  -2.618   4.003   3.684  1.3267  1.1377  1.3934
  217MOL0     H29267  -2.749   3.958   3.497 -0.7628 -1.3381 -0.6347
  217MOL0     H29268  -2.795   4.131   3.471  0.1052  0.5468  0.7776
  217MOL0     H29269  -2.872   3.939   3.688  0.9948 -0.5993 -2.1687
  217MOL0     H29270  -2.922   4.106   3.693 -0.4371  0.5415 -0.5326
  217MOL0     H29271  -3.064   4.072   3.484  0.8581 -0.9861 -3.0066
  217MOL0     H29272  -3.108   3.967   3.613  0.4843 -0.5072  0.8207
  217MOL0     H29273  -2.912   3.816   3.486 -0.5315 -0.7562 -0.0713
  217MOL0     H29274  -3.086   3.807   3.449  2.8121 -2.8801 -2.2041
  217MOL0     H29275  -2.126   4.485   3.326  0.2707 -0.9390 -0.4660
  217MOL0     H29276  -1.875   4.562   3.346  0.6031  3.0421  2.2072
  217MOL0     H29277  -1.571   4.850   3.641  0.9263  1.5157 -0.4474
  217MOL0     H29278  -1.321   4.905   3.637  0.8008  1.2019 -1.9655
  217MOL0     H29279   0.495   5.570   2.938 -1.1114 -2.2999  0.2476
  217MOL0     H29280   0.685   5.708   2.869 -0.9876  0.5043  0.6927
  217MOL0     H29281   1.038   5.831   2.847 -1.6571  0.5194 -0.3248
  217MOL0     H29282   1.182   6.012   2.795  0.5193  1.7860 -0.5163
  217MOL0     H29283   1.462   6.182   2.498 -4.0230  2.1364  1.7853
  217MOL0     H29284   1.375   6.069   2.405 -1.9358 -1.4636  1.7106
  217MOL0     H29285   1.618   6.015   2.458  2.0677  0.9884  2.4430
  217MOL0     H29286   1.509   5.888   2.525  1.9992 -1.4190  1.4030
  217MOL0     H29287   1.544   6.036   2.756 -1.3461 -1.6158 -1.4570
  217MOL0     H29288   1.657   6.117   2.661 -1.9013  0.7698  2.5703
  217MOL0     H29289   1.674   5.805   2.739  0.2103  0.0562  2.8531
  217MOL0     H29290   1.794   5.888   2.653 -0.2062 -2.4234 -0.9688
  217MOL0     H29291   1.904   6.020   3.043  0.3082  0.1037  0.1674
  217MOL0     H29292   1.305   5.827   2.428  2.3894  1.2873  1.2096
  217MOL0     H29293   1.025   5.604   2.409 -0.3887 -1.6442  0.0670
  217MOL0     H29294   1.177   5.643   2.347  1.2954  2.1793  2.1880
  217MOL0     H29295   1.184   5.529   2.472 -0.5274 -1.6706 -3.3291
  218MOL0     O29296   7.853   5.320   6.298  0.1788 -0.9436 -0.2517
  218MOL0     C29297   7.924   5.412   6.344  0.9551 -0.2968 -0.2879
  218MOL0     O29298   8.027   5.389   6.430  0.1410 -0.1126 -0.0319
  218MOL0     C29299   8.087   5.264   6.427 -0.3687 -1.5628  0.0726
  218MOL0     C29300   8.021   5.157   6.483  0.2354 -0.4334 -0.3727
  218MOL0     C29301   8.084   5.031   6.486 -0.4658  0.5866 -1.1046
  218MOL0     C29302   8.210   5.015   6.434 -1.1018  0.1148  0.0606
  218MOL0     O29303   8.279   4.899   6.414 -0.1345  0.5365  0.4481
  218MOL0     C29304   8.226   4.781   6.478  0.5034  0.1137  1.1328
  218MOL0     C29305   8.319   4.658   6.450  0.6154 -0.1656 -0.9199
  218MOL0     C29306   8.462   4.691   6.485  0.2045  0.0356 -0.2253
  218MOL0     C29307   8.540   4.558   6.507  0.2138 -0.2501  0.4243
  218MOL0     C29308   8.689   4.595   6.536 -0.0256  0.2036  0.1926
  218MOL0     C29309   8.778   4.477   6.540  0.3633  0.5692  0.0136
  218MOL0     C29310   8.928   4.527   6.533 -0.3774  0.9805 -0.3959
  218MOL0     C29311   9.029   4.420   6.559 -0.4615  0.9445  0.9291
  218MOL0     N29312   9.030   4.305   6.462  0.0066  0.8224 -0.1412
  218MOL0     C29313   8.954   4.197   6.457  0.8359 -0.4894  0.6044
  218MOL0     C29314   9.011   4.119   6.369  0.5648 -0.2103 -0.2173
  218MOL0     C29315   8.960   3.987   6.322 -0.1825  0.0704 -0.1614
  218MOL0     C29316   8.805   3.985   6.297 -0.2431 -0.5409  0.1451
  218MOL0     C29317   8.722   3.904   6.399  0.5014 -0.2513  0.0684
  218MOL0     C29318   8.573   3.916   6.374 -0.6796  0.0684 -0.4293
  218MOL0     O29319   8.554   4.040   6.298 -0.7786 -0.6761  0.4589
  218MOL0     C29320   8.437   4.106   6.304  0.4376 -0.6224 -0.6109
  218MOL0     C29321   8.317   4.056   6.372 -0.1726 -0.7919 -0.1710
  218MOL0     C29322   8.200   4.125   6.361 -0.0228 -0.4847 -0.3190
  218MOL0     C29323   8.200   4.268   6.321 -0.2238  0.1326 -0.4820
  218MOL0     C29324   8.074   4.344   6.312  0.4095  0.3664 -0.6262
  218MOL0     O29325   8.090   4.490   6.303 -0.3890  0.6393 -0.6225
  218MOL0     C29326   7.966   4.553   6.298  0.6823 -0.4769 -0.3071
  218MOL0     C29327   7.846   4.529   6.371  0.6124  0.1846  0.4072
  218MOL0     C29328   7.730   4.606   6.349  0.3470  0.6292 -0.2994
  218MOL0     C29329   7.728   4.719   6.272 -0.3577 -1.0948  0.6818
  218MOL0     O29330   7.607   4.784   6.262  0.0390  0.2064  0.8900
  218MOL0     C29331   7.605   4.925   6.257 -0.8509 -0.7683 -0.1679
  218MOL0     C29332   7.681   5.002   6.376 -1.4556  0.2761  0.7703
  218MOL0     C29333   7.611   4.992   6.510  0.3776  0.7589  0.2803
  218MOL0     C29334   7.693   4.940   6.632 -0.2280 -0.2863  0.3619
  218MOL0     C29335   7.783   4.818   6.618  0.8753 -0.2461  0.0030
  218MOL0     C29336   7.874   4.783   6.736  0.3594 -0.4677  0.0880
  218MOL0     C29337   7.941   4.649   6.700 -0.1714 -0.4565  0.1578
  218MOL0     C29338   7.984   4.574   6.823 -0.4282 -0.6546 -1.2405
  218MOL0    Cl29339   8.079   4.434   6.777  0.1998  0.1457 -0.2568
  218MOL0     C29340   7.853   4.745   6.198 -0.4598 -0.3939  0.5168
  218MOL0     C29341   7.962   4.661   6.203 -0.2374  0.4432 -1.3452
  218MOL0     O29342   7.968   4.290   6.315 -0.8901  0.2088  0.4300
  218MOL0     C29343   8.319   4.314   6.270  0.3372  0.2595 -0.0238
  218MOL0     C29344   8.436   4.240   6.274  0.6115  0.5981  1.1747
  218MOL0     N29345   9.112   4.191   6.308 -0.5968  0.7380  0.0574
  218MOL0     N29346   9.130   4.302   6.367  0.8422 -0.5373 -0.1175
  218MOL0     C29347   8.275   5.127   6.374 -0.8114 -0.0918 -0.2017
  218MOL0     C29348   8.217   5.254   6.382 -0.3143  0.3805 -0.0261
  218MOL0     C29349   7.866   5.552   6.334 -0.5029 -0.9802  1.2899
  218MOL0     C29350   7.786   5.595   6.221  0.5912  0.3773 -0.5409
  218MOL0     C29351   7.746   5.727   6.198 -0.0279  0.5729  0.2774
  218MOL0     C29352   7.778   5.823   6.297  0.3065  0.0160 -0.1368
  218MOL0     O29353   7.730   5.952   6.297  0.3995  0.3588  0.6074
  218MOL0     C29354   7.722   6.014   6.174  0.3772  0.2246  1.5802
  218MOL0     C29355   7.747   6.161   6.180 -0.6033 -0.5380  0.1139
  218MOL0     C29356   7.657   6.238   6.278 -0.0714 -0.5782  0.0469
  218MOL0     C29357   7.696   6.388   6.267 -0.4236  0.1034  0.4184
  218MOL0     C29358   7.619   6.454   6.374 -0.6558 -0.3326 -0.0987
  218MOL0     C29359   7.561   6.513   6.467 -0.2756  0.3205  0.1147
  218MOL0     C29360   7.850   5.785   6.409 -0.2054 -0.4226 -0.3065
  218MOL0     C29361   7.885   5.648   6.437  0.0698  0.2972  0.0997
  218MOL0     C29362   7.964   5.628   6.562  1.1671  0.7470 -0.1356
  218MOL0     H29363   7.919   5.171   6.516  0.5237 -0.3969  0.5432
  218MOL0     H29364   8.019   4.956   6.529 -0.0525  0.5569 -0.5074
  218MOL0     H29365   8.212   4.793   6.586 -2.6154 -0.0320  0.8410
  218MOL0     H29366   8.127   4.770   6.433  1.3171  1.2170 -1.1245
  218MOL0     H29367   8.307   4.639   6.343  0.5802 -0.1224 -0.9232
  218MOL0     H29368   8.277   4.580   6.515 -0.2174  1.6518  0.8472
  218MOL0     H29369   8.461   4.758   6.571 -1.8099 -3.2512  2.5864
  218MOL0     H29370   8.501   4.737   6.394 -3.7720 -0.0451 -2.2109
  218MOL0     H29371   8.488   4.502   6.586 -0.4142 -1.1838 -0.6213
  218MOL0     H29372   8.543   4.495   6.418  0.4992  0.3251  0.0197
  218MOL0     H29373   8.726   4.661   6.457  2.2007 -0.9168  0.2040
  218MOL0     H29374   8.697   4.642   6.634  1.5104  1.7393 -0.6082
  218MOL0     H29375   8.775   4.429   6.638  0.3377 -1.4598 -0.9383
  218MOL0     H29376   8.748   4.408   6.461 -1.3847 -1.8693  2.6006
  218MOL0     H29377   8.947   4.608   6.603 -0.4558 -1.4352  2.6501
  218MOL0     H29378   8.937   4.553   6.427 -0.9485  0.6247 -0.5385
  218MOL0     H29379   9.129   4.462   6.561  0.8243 -1.7699 -0.6717
  218MOL0     H29380   9.014   4.379   6.660  0.2098  1.3496  1.1923
  218MOL0     H29381   8.868   4.167   6.516 -2.4006  0.3523 -3.2427
  218MOL0     H29382   9.010   3.964   6.227 -2.2837  0.1622 -1.3406
  218MOL0     H29383   8.985   3.916   6.401  1.5447 -0.3466 -1.0282
  218MOL0     H29384   8.768   4.088   6.294 -1.8995 -1.1168 -2.1307
  218MOL0     H29385   8.795   3.942   6.197  0.1661 -1.2596  0.4062
  218MOL0     H29386   8.736   3.945   6.499  0.6937  1.1905 -0.5274
  218MOL0     H29387   8.744   3.797   6.407 -2.5429 -0.8286  2.8900
  218MOL0     H29388   8.524   3.917   6.472  0.8455  1.4099  0.3647
  218MOL0     H29389   8.525   3.834   6.321 -0.2144  0.7219 -1.8964
  218MOL0     H29390   8.315   3.957   6.417  0.7329  0.8505  3.8173
  218MOL0     H29391   8.115   4.066   6.393 -0.2561  0.2171  0.3840
  218MOL0     H29392   7.842   4.446   6.441  0.2143 -1.0852 -1.0698
  218MOL0     H29393   7.645   4.584   6.414  0.3718  0.6699 -0.2536
  218MOL0     H29394   7.654   4.953   6.163  1.7388 -3.0998  0.3561
  218MOL0     H29395   7.501   4.958   6.251 -0.0613  1.6782 -2.3326
  218MOL0     H29396   7.787   4.974   6.375 -0.6985  2.7354 -1.8180
  218MOL0     H29397   7.682   5.108   6.349  0.0253  0.0875 -0.0039
  218MOL0     H29398   7.558   5.084   6.536 -2.0211 -0.9335  1.7950
  218MOL0     H29399   7.522   4.928   6.497 -0.0051  1.1151  1.1100
  218MOL0     H29400   7.621   4.914   6.709  0.4339 -0.3094  0.9828
  218MOL0     H29401   7.751   5.026   6.666 -3.0544  1.3597  1.3121
  218MOL0     H29402   7.844   4.821   6.527  1.3641 -0.6177  0.3123
  218MOL0     H29403   7.719   4.730   6.606 -0.7644  1.0531 -1.1394
  218MOL0     H29404   7.944   4.862   6.763  0.8931 -0.8403 -0.1951
  218MOL0     H29405   7.814   4.775   6.827  1.2967 -1.0332  0.6737
  218MOL0     H29406   8.030   4.677   6.643 -1.6070 -0.6726 -2.3523
  218MOL0     H29407   7.882   4.583   6.636  2.1825 -2.2258 -0.3323
  218MOL0     H29408   8.062   4.631   6.874 -0.9179 -1.5837  0.6233
  218MOL0     H29409   7.906   4.561   6.899  1.4064 -0.0266  0.8545
  218MOL0     H29410   7.856   4.827   6.127 -0.6318 -0.4592  0.4327
  218MOL0     H29411   8.038   4.675   6.126  1.3730 -1.9644 -0.2926
  218MOL0     H29412   8.333   4.418   6.242  3.2387  0.2663  1.0743
  218MOL0     H29413   8.525   4.291   6.239 -0.7007  2.2012  0.0111
  218MOL0     H29414   8.367   5.113   6.319  1.1607 -2.5738  3.2605
  218MOL0     H29415   8.256   5.349   6.348 -0.8938  0.3401 -0.8314
  218MOL0     H29416   7.778   5.518   6.144  3.2655  0.5386 -1.0714
  218MOL0     H29417   7.692   5.756   6.108  1.5005 -1.3333 -1.3455
  218MOL0     H29418   7.620   5.997   6.139  0.0869 -0.3309  2.6545
  218MOL0     H29419   7.798   5.983   6.102 -2.0976 -0.9836 -0.6615
  218MOL0     H29420   7.740   6.205   6.080  0.4489 -0.2155  0.1750
  218MOL0     H29421   7.845   6.171   6.226  0.6675 -3.3854 -1.6721
  218MOL0     H29422   7.675   6.209   6.382  1.4426  1.1473  0.3227
  218MOL0     H29423   7.552   6.221   6.254 -1.8088  4.7844  2.3327
  218MOL0     H29424   7.804   6.392   6.284 -0.2922 -0.8965 -0.0782
  218MOL0     H29425   7.681   6.420   6.163  0.7655  2.1236  0.8331
  218MOL0     H29426   7.508   6.576   6.535 -2.0579  0.1310 -1.0375
  218MOL0     H29427   7.879   5.866   6.475  1.4162  0.1301 -1.6188
  218MOL0     H29428   8.070   5.622   6.537  0.5839 -0.5150 -2.6180
  218MOL0     H29429   7.949   5.709   6.634 -0.3749  0.3235  0.0777
  218MOL0     H29430   7.941   5.534   6.613  1.1347  1.9393  2.1672
  219MOL0     O29431   9.002   9.242   5.913  0.0740  0.1374 -1.2909
  219MOL0     C29432   8.912   9.157   5.938 -0.3186  0.2927  0.1605
  219MOL0     O29433   8.937   9.035   5.991  0.3381  0.7063  0.1729
  219MOL0     C29434   9.041   8.958   5.953  0.4887 -0.0255 -0.8776
  219MOL0     C29435   9.057   8.833   6.021 -0.3447  0.6561  1.3849
  219MOL0     C29436   9.172   8.758   6.000  0.1144 -0.0128  0.1346
  219MOL0     C29437   9.262   8.789   5.891  0.1418 -0.0251 -0.6308
  219MOL0     O29438   9.365   8.713   5.861 -0.2401 -0.5404 -0.6052
  219MOL0     C29439   9.429   8.635   5.967 -0.5769  0.4562  1.0086
  219MOL0     C29440   9.553   8.571   5.900 -0.0320  0.0042 -0.3794
  219MOL0     C29441   9.670   8.663   5.888  0.8821  0.0824  0.9134
  219MOL0     C29442   9.663   8.773   5.782  0.0870 -0.4271 -0.3340
  219MOL0     C29443   9.794   8.847   5.749 -0.9374 -0.1604  0.4693
  219MOL0     C29444   9.785   8.985   5.683  1.1759 -0.5095  0.5209
  219MOL0     C29445   9.926   9.034   5.667 -0.3033  0.0432  0.1500
  219MOL0     C29446   9.926   9.163   5.587 -1.0791  0.0350 -0.4662
  219MOL0     N29447   9.877   9.274   5.664  0.3201 -0.4733 -0.0408
  219MOL0     C29448   9.911   9.311   5.788  0.0636 -0.0075 -0.0650
  219MOL0     C29449   9.818   9.410   5.822  0.0749  0.6471  0.4858
  219MOL0     C29450   9.809   9.508   5.943  0.5663 -0.2480  0.3753
  219MOL0     C29451   9.771   9.647   5.917 -0.0511 -0.9693  0.2235
  219MOL0     C29452   9.820   9.734   6.040  0.1962 -0.7542  0.5352
  219MOL0     C29453   9.964   9.775   6.034  0.7199  0.3901  0.2840
  219MOL0     O29454   9.998   9.872   6.138 -0.1436 -0.5576  0.4595
  219MOL0     C29455  10.137   9.907   6.156  1.5585 -0.7699 -0.3612
  219MOL0     C29456  10.171   9.964   6.279  1.0555  0.6663 -0.6095
  219MOL0     C29457  10.307  10.008   6.296  0.8402  0.1269 -0.6296
  219MOL0     C29458  10.399   9.999   6.203  0.0007  0.4752 -0.2955
  219MOL0     C29459  10.542  10.027   6.239  0.4670  0.1307 -0.8789
  219MOL0     O29460  10.619  10.085   6.146  0.3634  0.7452 -0.2667
  219MOL0     C29461  10.754  10.117   6.174 -0.4986 -0.6630 -0.3917
  219MOL0     C29462  10.854  10.046   6.234  0.5063 -0.8681  0.2463
  219MOL0     C29463  10.982  10.102   6.260  0.7752 -0.7303  0.1881
  219MOL0     C29464  11.009  10.226   6.215 -0.2905 -0.0138  0.1340
  219MOL0     O29465  11.133  10.285   6.228  0.2647 -0.5385  0.5478
  219MOL0     C29466  11.239  10.230   6.310 -0.6776 -0.2547 -0.8858
  219MOL0     C29467  11.356  10.330   6.316 -0.0927 -0.6617 -0.4925
  219MOL0     C29468  11.476  10.263   6.379  0.6091 -0.3493  0.6181
  219MOL0     C29469  11.599  10.352   6.391  0.4427  0.6234  0.1378
  219MOL0     C29470  11.726  10.272   6.430 -0.7176 -0.1001  0.0264
  219MOL0     C29471  11.834  10.377   6.459  0.0675 -0.6772  0.2614
  219MOL0     C29472  11.975  10.315   6.469  0.6688  0.8982  0.2142
  219MOL0     C29473  12.076  10.413   6.514 -0.1764 -0.0999  0.0814
  219MOL0    Cl29474  12.227  10.327   6.538 -0.9112  0.6333 -0.6568
  219MOL0     C29475  10.907  10.286   6.132 -1.0739  0.0449 -0.3001
  219MOL0     C29476  10.784  10.223   6.106 -0.3658 -0.2100 -0.3264
  219MOL0     O29477  10.583  10.002   6.353  0.4043 -0.6903 -0.5257
  219MOL0     C29478  10.362   9.947   6.083 -1.1542  0.6446 -0.2667
  219MOL0     C29479  10.234   9.895   6.060  0.2024 -0.6654 -0.0337
  219MOL0     N29480   9.734   9.428   5.713 -0.4115  0.1155 -0.3090
  219MOL0     N29481   9.768   9.351   5.619 -0.6205 -0.3520  0.5756
  219MOL0     C29482   9.237   8.901   5.822 -0.4147 -0.0346  0.0080
  219MOL0     C29483   9.122   8.987   5.841 -0.5562 -0.3712  0.3971
  219MOL0     C29484   8.767   9.175   5.925  0.6556 -0.1247 -0.6572
  219MOL0     C29485   8.687   9.053   5.892  0.9154 -0.5233  0.3661
  219MOL0     C29486   8.544   9.065   5.903  0.2861 -0.1134 -0.4833
  219MOL0     C29487   8.483   9.195   5.929  0.0267  0.6703  0.0644
  219MOL0     O29488   8.341   9.200   5.932  0.2117  0.0998  0.1409
  219MOL0     C29489   8.269   9.173   5.809 -0.5817 -0.1584  0.4289
  219MOL0     C29490   8.221   9.030   5.797  0.4693 -0.5459  0.4114
  219MOL0     C29491   8.088   9.017   5.728 -0.3358 -0.8768  0.0212
  219MOL0     C29492   8.095   9.040   5.570 -0.2228  0.0560  0.0284
  219MOL0     C29493   8.078   9.177   5.535 -0.6375 -0.2334  0.3870
  219MOL0     C29494   8.069   9.294   5.517 -0.0685 -0.2747 -0.6463
  219MOL0     C29495   8.556   9.310   5.944 -1.0327  0.3681 -0.8738
  219MOL0     C29496   8.695   9.301   5.936 -0.5624  0.6217  0.4394
  219MOL0     C29497   8.768   9.432   5.986 -0.0824  0.7846  1.1810
  219MOL0     H29498   8.982   8.799   6.092  1.0444 -1.4557  1.9287
  219MOL0     H29499   9.182   8.667   6.058  1.3417  0.8131  1.2617
  219MOL0     H29500   9.452   8.704   6.049 -1.2782 -2.0972  3.4881
  219MOL0     H29501   9.370   8.552   6.006  0.3813 -1.2270 -0.9094
  219MOL0     H29502   9.530   8.536   5.799 -1.9443  1.1157 -0.3791
  219MOL0     H29503   9.583   8.489   5.966 -0.1155 -0.2359 -0.6391
  219MOL0     H29504   9.755   8.595   5.879  1.2350  0.5171  0.9539
  219MOL0     H29505   9.686   8.724   5.977  2.3155 -0.0626  0.7804
  219MOL0     H29506   9.613   8.734   5.693  1.5241  1.4400 -2.0534
  219MOL0     H29507   9.589   8.844   5.819  0.9538 -0.9120  2.7041
  219MOL0     H29508   9.875   8.846   5.823 -1.7139 -1.0148  1.3458
  219MOL0     H29509   9.838   8.782   5.672  0.6542  2.1306 -0.6507
  219MOL0     H29510   9.735   8.973   5.586  0.4927  2.1800  0.4658
  219MOL0     H29511   9.725   9.060   5.735  0.1026  2.9275 -4.8485
  219MOL0     H29512   9.983   8.956   5.617 -2.7276 -1.2003 -0.8358
  219MOL0     H29513   9.965   9.059   5.766 -3.3801 -2.3425  2.1306
  219MOL0     H29514  10.021   9.207   5.553 -1.3560  0.8205 -0.2441
  219MOL0     H29515   9.864   9.149   5.498 -1.9315  0.7530 -0.0036
  219MOL0     H29516   9.982   9.266   5.857 -2.1156 -1.7742  1.1269
  219MOL0     H29517   9.730   9.460   6.002  0.2464 -1.0221 -0.6282
  219MOL0     H29518   9.904   9.506   5.996  1.3034  2.5988 -0.6384
  219MOL0     H29519   9.809   9.683   5.821 -2.1317  1.9050  0.3245
  219MOL0     H29520   9.661   9.650   5.920 -0.0141  1.3170  1.4187
  219MOL0     H29521   9.792   9.679   6.130 -1.2844  1.0051  1.1955
  219MOL0     H29522   9.759   9.824   6.033 -0.0273 -0.9752 -0.8237
  219MOL0     H29523   9.986   9.822   5.938 -3.2192  1.7185 -0.1528
  219MOL0     H29524  10.023   9.685   6.048  1.1283  0.9511  2.6958
  219MOL0     H29525  10.101   9.962   6.362  2.3000 -0.4710  0.4726
  219MOL0     H29526  10.338  10.046   6.392 -0.7808  2.6450 -0.9997
  219MOL0     H29527  10.834   9.944   6.265  1.5267 -0.4601  2.4027
  219MOL0     H29528  11.065  10.050   6.308  2.8195  2.9060  0.9757
  219MOL0     H29529  11.208  10.200   6.410 -2.6595  1.0824 -1.0511
  219MOL0     H29530  11.276  10.139   6.261  3.2308  0.7994 -0.2626
  219MOL0     H29531  11.381  10.354   6.212 -2.2874  1.8752 -0.5417
  219MOL0     H29532  11.329  10.410   6.385  1.7778 -1.7578  1.6331
  219MOL0     H29533  11.453  10.212   6.472 -0.5788 -0.1755  0.4290
  219MOL0     H29534  11.498  10.183   6.307  0.4460  0.1295  0.0219
  219MOL0     H29535  11.587  10.426   6.469 -0.9945 -0.9034  1.4431
  219MOL0     H29536  11.608  10.406   6.296 -1.4591 -0.4622 -0.7383
  219MOL0     H29537  11.751  10.217   6.339  1.4550  4.0331 -2.1997
  219MOL0     H29538  11.713  10.200   6.511  0.2935 -0.7296 -0.3480
  219MOL0     H29539  11.827  10.456   6.384 -1.8008  0.5009  1.5913
  219MOL0     H29540  11.808  10.423   6.555 -3.3785 -0.1641 -0.7927
  219MOL0     H29541  12.011  10.274   6.374  0.4419  0.3807  0.3446
  219MOL0     H29542  11.971  10.227   6.534 -1.4476  3.1827  3.4812
  219MOL0     H29543  12.084  10.491   6.438 -0.5147 -1.8801 -1.8630
  219MOL0     H29544  12.034  10.448   6.609  0.0077 -0.2942  0.2364
  219MOL0     H29545  10.936  10.385   6.099 -1.2411  0.8728  1.8253
  219MOL0     H29546  10.716  10.282   6.045 -0.2191  0.6548  0.3207
  219MOL0     H29547  10.444   9.947   6.011  0.5723 -0.6724  1.6105
  219MOL0     H29548  10.219   9.858   5.959 -0.2419  3.5327 -1.7103
  219MOL0     H29549   9.304   8.933   5.743 -1.8002  1.1199 -0.7343
  219MOL0     H29550   9.114   9.068   5.770 -1.7353 -0.7037  0.1446
  219MOL0     H29551   8.734   8.957   5.876  0.7795 -0.3921 -0.9878
  219MOL0     H29552   8.476   8.981   5.894 -0.1097  0.1437  0.0162
  219MOL0     H29553   8.334   9.193   5.724 -0.8402 -1.1250 -0.0150
  219MOL0     H29554   8.189   9.246   5.793  0.0052  0.3015 -0.4943
  219MOL0     H29555   8.205   8.986   5.896  0.7892  1.9346  1.6275
  219MOL0     H29556   8.297   8.973   5.741  1.2162  2.2926 -1.6994
  219MOL0     H29557   8.021   9.086   5.780 -0.1170 -1.8795  1.7157
  219MOL0     H29558   8.061   8.914   5.752 -0.2660 -1.1768 -1.1299
  219MOL0     H29559   8.189   8.999   5.531 -0.0929  0.5511 -0.1898
  219MOL0     H29560   8.008   9.001   5.518  0.9168 -0.2668 -1.7291
  219MOL0     H29561   8.044   9.398   5.520 -2.6312 -0.8190  2.0885
  219MOL0     H29562   8.495   9.396   5.971 -2.4223 -0.5264 -1.0648
  219MOL0     H29563   8.818   9.493   5.909 -1.8955  1.1437  0.2345
  219MOL0     H29564   8.697   9.510   6.014 -0.3380  1.3549 -0.8680
  219MOL0     H29565   8.844   9.421   6.064  1.9982  3.4738 -0.2653
  220MOL0     O29566   8.360   2.040   6.125  0.6603  0.3519  0.7372
  220MOL0     C29567   8.338   2.137   6.049 -0.6544  0.2988 -0.0984
  220MOL0     O29568   8.311   2.274   6.091 -0.7020  0.5527  0.1605
  220MOL0     C29569   8.281   2.281   6.222  0.5374 -0.9069  0.4551
  220MOL0     C29570   8.156   2.237   6.281  0.4438  0.7506 -0.0378
  220MOL0     C29571   8.131   2.263   6.415  0.3977  1.0649  0.4460
  220MOL0     C29572   8.224   2.332   6.493  0.1772 -0.1980 -0.0169
  220MOL0     O29573   8.215   2.354   6.630  0.4422 -0.3199 -0.5066
  220MOL0     C29574   8.109   2.277   6.697 -0.1077  0.4665  0.0740
  220MOL0     C29575   8.138   2.272   6.845  0.1942 -0.0309  0.7872
  220MOL0     C29576   8.286   2.239   6.873  0.0411  0.4154  0.0759
  220MOL0     C29577   8.315   2.091   6.848  0.1483 -0.5157 -0.1805
  220MOL0     C29578   8.468   2.067   6.875  0.4014  0.1180  0.0998
  220MOL0     C29579   8.585   2.116   6.781  0.4672 -0.4467  0.2977
  220MOL0     C29580   8.590   2.057   6.633 -0.6359  0.4670  0.5846
  220MOL0     C29581   8.640   2.162   6.530 -0.3833  0.9602  0.6576
  220MOL0     N29582   8.764   2.235   6.544  0.1529  0.9185 -0.6277
  220MOL0     C29583   8.881   2.194   6.596 -0.4910 -0.5994 -1.0454
  220MOL0     C29584   8.950   2.312   6.594  0.2016 -0.1388 -0.2466
  220MOL0     C29585   9.087   2.321   6.666 -0.0907  1.0285 -0.2787
  220MOL0     C29586   9.191   2.317   6.558 -0.7601  0.3357 -0.0036
  220MOL0     C29587   9.224   2.462   6.522 -0.6056  0.1679  0.2380
  220MOL0     C29588   9.357   2.473   6.448 -0.2328  0.3328 -0.2374
  220MOL0     O29589   9.455   2.403   6.526  0.5771  0.0298  0.1527
  220MOL0     C29590   9.590   2.427   6.494 -1.3048  0.7570 -0.0143
  220MOL0     C29591   9.679   2.312   6.503 -0.5895 -0.8029  0.1458
  220MOL0     C29592   9.814   2.323   6.469 -0.2355 -0.6332  1.1593
  220MOL0     C29593   9.869   2.454   6.454  0.0766 -0.3249  0.3453
  220MOL0     C29594  10.014   2.490   6.456  0.6395  0.5174 -0.4942
  220MOL0     O29595  10.064   2.614   6.435  0.0768  0.3552  1.1296
  220MOL0     C29596  10.188   2.629   6.380 -0.1986  0.3984  0.4629
  220MOL0     C29597  10.203   2.636   6.240 -0.3485  0.2981  0.5744
  220MOL0     C29598  10.333   2.640   6.182 -0.3973  1.3076  0.5369
  220MOL0     C29599  10.453   2.620   6.268  0.6858 -0.8742 -0.3599
  220MOL0     O29600  10.579   2.622   6.215  0.2454  0.0632  0.2400
  220MOL0     C29601  10.674   2.544   6.288 -0.3961  0.7813  0.4404
  220MOL0     C29602  10.798   2.511   6.203  0.9433 -0.4780  0.6813
  220MOL0     C29603  10.865   2.650   6.176  0.2918  0.2391 -0.6373
  220MOL0     C29604  11.002   2.613   6.113 -0.6999 -0.6473  0.4107
  220MOL0     C29605  11.115   2.590   6.220  0.9749  0.0388  0.0526
  220MOL0     C29606  11.244   2.543   6.167 -0.4007 -0.0634  0.0080
  220MOL0     C29607  11.250   2.386   6.166  0.1743 -0.7224  0.4652
  220MOL0     C29608  11.395   2.342   6.185  0.8827 -0.6120  0.0630
  220MOL0    Cl29609  11.454   2.355   6.353 -0.0960  0.3664  0.0251
  220MOL0     C29610  10.425   2.622   6.410 -0.1281 -0.6504  0.4691
  220MOL0     C29611  10.299   2.633   6.464  0.7787 -1.6074  0.1206
  220MOL0     O29612  10.076   2.387   6.459 -0.0751 -0.1966  0.1076
  220MOL0     C29613   9.780   2.558   6.433  0.9844  0.9066 -0.6704
  220MOL0     C29614   9.646   2.541   6.448  0.8912 -0.2783 -0.0451
  220MOL0     N29615   8.876   2.414   6.534  0.2882 -0.2788  0.0568
  220MOL0     N29616   8.765   2.367   6.503  0.0880  0.4106  0.3214
  220MOL0     C29617   8.343   2.380   6.431  0.7310 -0.7721 -0.2654
  220MOL0     C29618   8.373   2.358   6.295  0.4950  0.1444 -0.1012
  220MOL0     C29619   8.344   2.114   5.911 -0.6443  0.1976  0.1414
  220MOL0     C29620   8.318   2.219   5.822  0.1601  0.6756  0.1727
  220MOL0     C29621   8.318   2.202   5.684  0.1700  0.3839 -0.5884
  220MOL0     C29622   8.352   2.072   5.625  0.8443 -0.6669 -0.4771
  220MOL0     O29623   8.356   2.049   5.487 -0.1055 -0.0553 -0.0084
  220MOL0     C29624   8.293   2.142   5.405  0.3703 -0.8626  0.6245
  220MOL0     C29625   8.332   2.119   5.262  0.1086  0.1860 -0.3309
  220MOL0     C29626   8.471   2.164   5.242  0.1745  0.5031  0.0088
  220MOL0     C29627   8.512   2.165   5.088  0.2980  0.0439  0.4883
  220MOL0     C29628   8.643   2.208   5.069 -0.2545  0.4085  0.6169
  220MOL0     C29629   8.758   2.250   5.066 -0.4343  1.0267 -0.3110
  220MOL0     C29630   8.387   1.973   5.716 -0.8296 -0.3652  0.1181
  220MOL0     C29631   8.390   1.992   5.858  1.1252 -0.0518  0.8359
  220MOL0     C29632   8.422   1.857   5.933  0.3875 -0.1731  0.9566
  220MOL0     H29633   8.079   2.186   6.224  1.8546 -1.2198 -0.2468
  220MOL0     H29634   8.038   2.228   6.458 -0.7334  1.6964 -1.3816
  220MOL0     H29635   8.012   2.321   6.674 -2.1928 -3.2892  0.9498
  220MOL0     H29636   8.103   2.172   6.668  0.4045  0.9616 -2.0570
  220MOL0     H29637   8.071   2.198   6.888  0.5920  0.9119  3.1565
  220MOL0     H29638   8.110   2.371   6.883  1.7044  1.0207 -0.6403
  220MOL0     H29639   8.310   2.252   6.979  1.4483  0.5033 -0.2367
  220MOL0     H29640   8.355   2.298   6.812  0.0156  1.0356  0.6349
  220MOL0     H29641   8.252   2.040   6.921 -0.2238 -0.9155 -0.7672
  220MOL0     H29642   8.291   2.041   6.753  5.2874 -1.2884 -1.3753
  220MOL0     H29643   8.486   2.095   6.979 -0.6687  1.3725 -0.0360
  220MOL0     H29644   8.472   1.959   6.858 -1.9221 -0.2054  1.1966
  220MOL0     H29645   8.574   2.224   6.765  3.4160  0.0801  1.2347
  220MOL0     H29646   8.683   2.097   6.825  0.9487  1.6877  0.2468
  220MOL0     H29647   8.493   2.020   6.599  0.3363 -1.3712 -0.3713
  220MOL0     H29648   8.663   1.976   6.640 -1.4970 -0.2845  1.1277
  220MOL0     H29649   8.636   2.107   6.436  0.6376  0.9353  0.6167
  220MOL0     H29650   8.563   2.240   6.525 -0.1304  1.3073  1.8907
  220MOL0     H29651   8.913   2.103   6.646  1.5614  2.2939  3.4662
  220MOL0     H29652   9.093   2.413   6.726  2.0277  1.7093 -1.4344
  220MOL0     H29653   9.099   2.230   6.725 -0.4204  1.6748  0.8184
  220MOL0     H29654   9.277   2.260   6.594  0.2453  0.4615 -2.0923
  220MOL0     H29655   9.151   2.268   6.469 -0.4360 -1.8718  1.0198
  220MOL0     H29656   9.252   2.526   6.606 -0.4480  1.7027 -0.9412
  220MOL0     H29657   9.138   2.508   6.471  0.5265  1.4149 -0.6143
  220MOL0     H29658   9.366   2.582   6.437 -1.8845  0.3477 -2.0796
  220MOL0     H29659   9.356   2.420   6.352 -2.3153  2.6819 -1.6609
  220MOL0     H29660   9.644   2.219   6.545 -0.3537 -0.4033  1.2715
  220MOL0     H29661   9.878   2.235   6.461 -1.4883 -1.3838 -2.2984
  220MOL0     H29662  10.116   2.634   6.175 -0.6211 -2.2190  0.9228
  220MOL0     H29663  10.345   2.651   6.075 -2.6097 -2.6171 -0.3062
  220MOL0     H29664  10.706   2.610   6.369  3.4633 -0.6320  0.2740
  220MOL0     H29665  10.635   2.446   6.317  0.0132  0.7636  0.9361
  220MOL0     H29666  10.864   2.446   6.260  0.2312 -0.5777  1.4166
  220MOL0     H29667  10.770   2.466   6.107  3.0410  4.4364 -2.6228
  220MOL0     H29668  10.805   2.714   6.111 -1.8298  0.3067  1.2895
  220MOL0     H29669  10.884   2.705   6.268 -3.3604  1.6399 -0.5627
  220MOL0     H29670  11.044   2.702   6.066 -3.7464  1.5401  1.4668
  220MOL0     H29671  10.989   2.532   6.041  2.8939  2.0654 -3.8354
  220MOL0     H29672  11.078   2.512   6.288 -0.7411 -3.6753 -4.6334
  220MOL0     H29673  11.128   2.684   6.276 -1.6468 -0.4145  1.6190
  220MOL0     H29674  11.256   2.587   6.068  1.9686  0.5041  0.4895
  220MOL0     H29675  11.328   2.581   6.226  1.0377  0.3481 -2.1896
  220MOL0     H29676  11.215   2.354   6.068  2.6282 -0.2528 -0.6567
  220MOL0     H29677  11.182   2.352   6.245  0.1351  2.0983  1.7754
  220MOL0     H29678  11.394   2.236   6.160 -2.0121 -0.2517 -1.7836
  220MOL0     H29679  11.464   2.389   6.114 -0.4707  3.1193  0.9882
  220MOL0     H29680  10.512   2.620   6.476  0.6461  0.1638 -0.4866
  220MOL0     H29681  10.285   2.621   6.570  2.3071  0.4816  0.6343
  220MOL0     H29682   9.810   2.661   6.414  1.8421  0.5491 -1.3345
  220MOL0     H29683   9.580   2.626   6.436  0.7886 -0.3818 -0.2104
  220MOL0     H29684   8.419   2.436   6.484 -0.4481  0.0729  0.5652
  220MOL0     H29685   8.465   2.390   6.248  1.1997 -1.1262  0.3788
  220MOL0     H29686   8.296   2.322   5.848  0.0244  1.0045 -1.1476
  220MOL0     H29687   8.307   2.296   5.629  0.4084 -0.8079 -2.7842
  220MOL0     H29688   8.316   2.245   5.432 -1.4032  0.2436 -1.7379
  220MOL0     H29689   8.185   2.131   5.416  0.1459  0.6933  0.1164
  220MOL0     H29690   8.269   2.173   5.191 -1.1652  2.0635  2.1035
  220MOL0     H29691   8.339   2.012   5.239  1.9416  0.6498 -2.2224
  220MOL0     H29692   8.545   2.107   5.298  0.1606 -0.4527 -0.9080
  220MOL0     H29693   8.480   2.266   5.281 -0.1234  1.0148 -1.1947
  220MOL0     H29694   8.516   2.065   5.043  3.5653  1.0381 -1.8361
  220MOL0     H29695   8.447   2.243   5.047  0.8890  0.9811  1.2779
  220MOL0     H29696   8.864   2.266   5.063  0.0413 -1.7333 -1.4683
  220MOL0     H29697   8.425   1.883   5.671 -0.4740 -2.0882  3.5223
  220MOL0     H29698   8.342   1.835   6.005 -0.4032  3.0543  1.2324
  220MOL0     H29699   8.440   1.777   5.860 -0.6975  1.6902 -1.5117
  220MOL0     H29700   8.513   1.881   5.989  0.6891  0.4100  0.2230
  221MOL0     O29701   4.596   2.436   9.720  0.2220 -0.0342 -0.1879
  221MOL0     C29702   4.646   2.354   9.644  1.4477  0.6276 -0.8898
  221MOL0     O29703   4.578   2.259   9.574  0.8126  0.5188  0.0380
  221MOL0     C29704   4.450   2.228   9.613  0.2007  0.1845 -0.6010
  221MOL0     C29705   4.436   2.109   9.682 -0.2284  0.2652  0.6944
  221MOL0     C29706   4.317   2.057   9.714 -0.3051  0.3160  1.1605
  221MOL0     C29707   4.196   2.126   9.675  0.2516 -0.4390 -0.3564
  221MOL0     O29708   4.081   2.078   9.729  0.1549  0.4276  0.2220
  221MOL0     C29709   3.959   2.098   9.656  0.3627 -0.6901  0.1620
  221MOL0     C29710   3.851   2.076   9.771  1.0959  0.2008  0.2013
  221MOL0     C29711   3.710   2.090   9.718 -0.5509  0.7229 -0.4849
  221MOL0     C29712   3.594   2.065   9.811  0.6101 -0.7204 -0.4013
  221MOL0     C29713   3.459   2.067   9.744  1.1584 -0.1217 -0.9671
  221MOL0     C29714   3.356   2.054   9.851  1.0721 -0.2454  0.3821
  221MOL0     C29715   3.222   2.061   9.790  0.8627  1.1524  0.7527
  221MOL0     C29716   3.115   2.046   9.896  1.1571 -0.1192 -0.1724
  221MOL0     N29717   2.989   1.996   9.845  0.0998 -0.3429 -0.7468
  221MOL0     C29718   2.959   1.865   9.827 -0.2417  0.8605 -0.2134
  221MOL0     C29719   2.827   1.868   9.800  0.2393  0.6254  0.1883
  221MOL0     C29720   2.739   1.756   9.756  0.0882  0.7588  0.3057
  221MOL0     C29721   2.773   1.637   9.850 -0.0536  0.3337 -0.2011
  221MOL0     C29722   2.721   1.667   9.989 -0.1330 -0.1620  0.8201
  221MOL0     C29723   2.765   1.544  10.077  0.1534  0.5883  0.5912
  221MOL0     O29724   2.753   1.574  10.209 -0.4564  0.0289 -0.4464
  221MOL0     C29725   2.624   1.569  10.259  1.2682 -0.5419 -0.1275
  221MOL0     C29726   2.580   1.452  10.324  0.9881  0.0882 -0.8791
  221MOL0     C29727   2.459   1.447  10.389 -0.4351  0.5578  0.1536
  221MOL0     C29728   2.363   1.543  10.365 -0.3850  0.4612  0.2208
  221MOL0     C29729   2.220   1.524  10.417  0.1593  0.3985 -0.0666
  221MOL0     O29730   2.188   1.405  10.475  0.3660  0.2850 -0.4951
  221MOL0     C29731   2.059   1.376  10.507  0.3802 -0.7983  1.0162
  221MOL0     C29732   2.020   1.381  10.635 -0.0715  0.0934  0.1835
  221MOL0     C29733   1.886   1.358  10.670  0.1920  0.2043  0.3769
  221MOL0     C29734   1.792   1.324  10.575  0.4388 -0.2978 -0.4618
  221MOL0     O29735   1.662   1.313  10.612  0.0675  0.1918 -0.5596
  221MOL0     C29736   1.566   1.273  10.520 -1.1895  0.3396 -0.5911
  221MOL0     C29737   1.436   1.281  10.596  0.5379  0.8837  0.3601
  221MOL0     C29738   1.438   1.190  10.724  0.6799 -0.2974  0.0956
  221MOL0     C29739   1.289   1.173  10.778  1.5585 -0.5742 -0.5218
  221MOL0     C29740   1.177   1.126  10.692 -0.5419 -0.3235  0.9187
  221MOL0     C29741   1.042   1.144  10.752  0.1485  0.0171  0.2241
  221MOL0     C29742   0.947   1.128  10.640 -0.0631 -0.7585  1.0586
  221MOL0     C29743   0.799   1.151  10.686  0.1313 -0.1601  0.4535
  221MOL0    Cl29744   0.704   1.135  10.545  0.0771  0.3222  0.7327
  221MOL0     C29745   1.829   1.317  10.442  0.0068  1.2695  0.5384
  221MOL0     C29746   1.965   1.344  10.411  0.2302  1.4394 -0.2931
  221MOL0     O29747   2.139   1.613  10.401  0.6999  0.1486 -0.0835
  221MOL0     C29748   2.402   1.658  10.307  1.4190  0.2261  0.5824
  221MOL0     C29749   2.533   1.674  10.265  0.4589  0.3827  0.3633
  221MOL0     N29750   2.783   2.003   9.794 -0.2639  0.8814  0.5738
  221MOL0     N29751   2.885   2.074   9.823 -0.3007 -0.8056 -0.2087
  221MOL0     C29752   4.204   2.239   9.593 -0.2124 -0.6329 -0.2745
  221MOL0     C29753   4.334   2.290   9.566 -0.6073 -0.6714  0.0602
  221MOL0     C29754   4.793   2.348   9.646 -0.1780 -0.8518 -0.6036
  221MOL0     C29755   4.851   2.254   9.559 -0.3119  0.1838 -1.0047
  221MOL0     C29756   4.997   2.237   9.559  0.3160  0.0910  0.1636
  221MOL0     C29757   5.079   2.323   9.632  0.0390 -0.6065  0.7752
  221MOL0     O29758   5.218   2.317   9.652  0.1050 -0.7885  0.7443
  221MOL0     C29759   5.304   2.251   9.562  0.6261 -0.0648 -0.2651
  221MOL0     C29760   5.441   2.248   9.622  0.0030 -0.2980 -0.0418
  221MOL0     C29761   5.492   2.396   9.651 -0.5756 -0.1526  0.2081
  221MOL0     C29762   5.557   2.480   9.542  0.7085 -0.4163  0.3536
  221MOL0     C29763   5.666   2.409   9.477  0.1398 -0.0948  0.5840
  221MOL0     C29764   5.759   2.362   9.411  0.3694  0.1256 -0.0527
  221MOL0     C29765   5.013   2.416   9.715 -0.0139 -0.0157 -0.0147
  221MOL0     C29766   4.875   2.424   9.722 -0.8053  0.2896 -0.7635
  221MOL0     C29767   4.831   2.507   9.849  0.4417 -0.2859  0.3195
  221MOL0     H29768   4.525   2.048   9.693 -1.6461 -2.9857 -3.1111
  221MOL0     H29769   4.305   1.974   9.784 -1.1313 -0.3373  0.2753
  221MOL0     H29770   3.951   2.198   9.612 -0.2135 -1.6282 -2.0457
  221MOL0     H29771   3.942   2.030   9.572 -0.2345  0.5987 -0.7951
  221MOL0     H29772   3.859   2.148   9.853 -2.4153 -1.1193  1.9215
  221MOL0     H29773   3.875   1.978   9.813 -1.1071 -0.4838 -0.0072
  221MOL0     H29774   3.711   2.015   9.639 -1.1842 -0.7796  0.8605
  221MOL0     H29775   3.702   2.191   9.677  0.7148  0.0851 -2.4179
  221MOL0     H29776   3.608   1.970   9.863  0.6770 -1.5403 -1.8650
  221MOL0     H29777   3.599   2.154   9.875  0.5186 -1.7736  1.1159
  221MOL0     H29778   3.447   2.161   9.690  0.9136 -0.2609 -1.1596
  221MOL0     H29779   3.458   1.983   9.673  1.7357 -2.2503  1.3940
  221MOL0     H29780   3.357   1.961   9.908 -2.2044  0.1633  1.3129
  221MOL0     H29781   3.361   2.128   9.931 -0.4131 -1.6159  1.8068
  221MOL0     H29782   3.220   1.997   9.701  1.0195  1.1879  0.7214
  221MOL0     H29783   3.215   2.165   9.754 -3.4865  1.1218  1.0252
  221MOL0     H29784   3.152   1.979   9.974  1.9752 -1.9960 -2.0831
  221MOL0     H29785   3.094   2.139   9.950 -1.8610  0.4251 -2.0255
  221MOL0     H29786   3.021   1.776   9.821 -1.7846 -0.3222  0.5401
  221MOL0     H29787   2.631   1.771   9.765 -0.0118  1.3959 -1.5446
  221MOL0     H29788   2.764   1.718   9.657  3.3560  0.2345  1.1923
  221MOL0     H29789   2.720   1.547   9.817 -3.1072  1.2529  1.7598
  221MOL0     H29790   2.879   1.610   9.848 -0.0237  0.3857 -3.2672
  221MOL0     H29791   2.612   1.663   9.987 -0.0900 -1.7586 -0.2348
  221MOL0     H29792   2.762   1.753  10.042 -0.1393  1.1486 -1.1905
  221MOL0     H29793   2.871   1.525  10.057 -0.2988  0.8033 -2.5831
  221MOL0     H29794   2.715   1.451  10.050 -2.9225  1.8562  1.4351
  221MOL0     H29795   2.651   1.375  10.351 -1.1597 -0.5314  3.8515
  221MOL0     H29796   2.444   1.357  10.447 -0.8484  1.7635  2.0212
  221MOL0     H29797   2.090   1.421  10.708 -0.8566  1.0472  0.4269
  221MOL0     H29798   1.855   1.385  10.770 -0.7311  1.6850 -0.2605
  221MOL0     H29799   1.557   1.328  10.426 -1.3567 -0.3832 -1.0095
  221MOL0     H29800   1.590   1.168  10.505  0.6377  0.4393  1.1428
  221MOL0     H29801   1.402   1.382  10.620 -0.8559  0.4371  0.3856
  221MOL0     H29802   1.355   1.241  10.534  1.0676  3.2909 -2.0344
  221MOL0     H29803   1.471   1.087  10.711 -1.2968 -1.1480  1.3260
  221MOL0     H29804   1.493   1.243  10.802 -0.2999  0.6395  0.1769
  221MOL0     H29805   1.263   1.278  10.799 -2.0649 -0.9975 -2.2047
  221MOL0     H29806   1.288   1.109  10.866 -1.4611  1.5508  1.1753
  221MOL0     H29807   1.181   1.019  10.671 -1.3563 -0.4504  1.3555
  221MOL0     H29808   1.175   1.184  10.600 -1.1434 -0.5889  0.7594
  221MOL0     H29809   1.025   1.069  10.830 -0.9857  2.9521  3.0267
  221MOL0     H29810   1.028   1.238  10.806 -0.8995 -0.7311  1.3053
  221MOL0     H29811   0.962   1.026  10.602  2.8245 -0.5286  1.3440
  221MOL0     H29812   0.956   1.210  10.568 -4.2258 -1.6786 -0.8191
  221MOL0     H29813   0.759   1.075  10.754 -1.3972  1.0717  0.9888
  221MOL0     H29814   0.786   1.253  10.724 -1.1816  0.2011 -0.8764
  221MOL0     H29815   1.754   1.303  10.365 -1.0077  0.1281  1.6921
  221MOL0     H29816   1.999   1.345  10.308 -3.5906  1.7447 -1.7181
  221MOL0     H29817   2.339   1.741  10.277  1.2609  0.3253  1.1822
  221MOL0     H29818   2.555   1.760  10.202 -0.0054 -0.4553 -0.9844
  221MOL0     H29819   4.119   2.288   9.548 -0.9367  1.1146  2.7258
  221MOL0     H29820   4.340   2.371   9.494 -0.6997 -1.0406 -0.3709
  221MOL0     H29821   4.789   2.192   9.495 -1.8369  0.6301 -0.0332
  221MOL0     H29822   5.037   2.155   9.500  1.1830 -2.2644  3.7151
  221MOL0     H29823   5.308   2.295   9.462  0.4097 -0.1113 -0.2939
  221MOL0     H29824   5.286   2.144   9.549  0.2461  0.0877 -1.0995
  221MOL0     H29825   5.503   2.191   9.551 -0.0986 -0.4898  0.0236
  221MOL0     H29826   5.446   2.196   9.718  2.3606  1.8049  1.0839
  221MOL0     H29827   5.564   2.372   9.730  0.9073 -0.0398 -1.0593
  221MOL0     H29828   5.418   2.466   9.689  0.7586  0.9174  0.9335
  221MOL0     H29829   5.490   2.498   9.457  2.3756  2.1372 -0.5178
  221MOL0     H29830   5.581   2.573   9.593  0.7423  0.4534 -1.1995
  221MOL0     H29831   5.825   2.317   9.340  0.9453  1.4704 -0.4013
  221MOL0     H29832   5.084   2.470   9.776 -1.5032  2.3160 -0.1997
  221MOL0     H29833   4.760   2.449   9.910 -0.1846  2.4157  2.3410
  221MOL0     H29834   4.917   2.528   9.914  0.9096 -0.2070 -0.3056
  221MOL0     H29835   4.773   2.596   9.826  0.6201  0.1268  1.4291
  222MOL0     O29836   1.547   7.049   9.512  0.7221 -0.1459  0.5781
  222MOL0     C29837   1.505   6.952   9.567  0.2189  0.5152 -0.3677
  222MOL0     O29838   1.541   6.912   9.689  0.0920 -0.2978  0.7945
  222MOL0     C29839   1.624   6.976   9.783 -0.0178  0.6905  0.6971
  222MOL0     C29840   1.639   6.909   9.902  0.4032 -0.2122  0.1324
  222MOL0     C29841   1.733   6.957   9.998 -0.0755  0.2507  0.3598
  222MOL0     C29842   1.783   7.085   9.983 -0.6695 -1.0048 -1.4033
  222MOL0     O29843   1.882   7.129  10.068 -0.7775  0.2151  0.6806
  222MOL0     C29844   1.831   7.199  10.183 -0.2356  0.0183  0.3305
  222MOL0     C29845   1.924   7.325  10.195 -0.0719 -0.4678 -0.3966
  222MOL0     C29846   1.913   7.438  10.094  0.0547 -1.0878 -0.0166
  222MOL0     C29847   2.035   7.433  10.007  0.4470  0.7870  0.5390
  222MOL0     C29848   2.029   7.552   9.904  0.5025 -0.1472 -0.5539
  222MOL0     C29849   2.172   7.589   9.844 -0.3494  0.3329  0.4304
  222MOL0     C29850   2.211   7.489   9.735 -0.1503 -0.5541  0.3784
  222MOL0     C29851   2.351   7.500   9.690 -0.6794  0.2504  0.8888
  222MOL0     N29852   2.355   7.617   9.599  0.6111  0.8252 -0.3464
  222MOL0     C29853   2.269   7.648   9.500  1.0527  0.0148 -0.5002
  222MOL0     C29854   2.319   7.761   9.440  0.0869 -0.8264 -0.0934
  222MOL0     C29855   2.267   7.824   9.315  0.5916 -0.5968  0.3673
  222MOL0     C29856   2.337   7.765   9.194 -0.4677 -0.0590  0.2316
  222MOL0     C29857   2.481   7.829   9.170  0.8603  1.1195  0.5048
  222MOL0     C29858   2.518   7.843   9.020 -0.2840 -1.0554 -0.2910
  222MOL0     O29859   2.656   7.888   9.015 -0.0600 -0.6154  0.2158
  222MOL0     C29860   2.748   7.793   9.030 -1.0184 -0.6768  0.0200
  222MOL0     C29861   2.831   7.813   9.140 -0.2555 -0.3029  0.0085
  222MOL0     C29862   2.948   7.730   9.156  0.5407  0.2527  0.2933
  222MOL0     C29863   2.961   7.623   9.068 -0.2970 -0.3444  0.3274
  222MOL0     C29864   3.069   7.520   9.091 -0.3542  0.9310 -0.9238
  222MOL0     O29865   3.113   7.448   8.988  0.6161  0.0405  0.3182
  222MOL0     C29866   3.211   7.355   9.010 -0.0976  0.7426 -0.3278
  222MOL0     C29867   3.198   7.225   9.070  0.7577 -0.5690 -0.2320
  222MOL0     C29868   3.303   7.146   9.092  0.1300  0.0900  0.3347
  222MOL0     C29869   3.427   7.183   9.040 -0.8258  0.2178  0.5213
  222MOL0     O29870   3.539   7.100   9.059  0.2413  0.0160 -0.3468
  222MOL0     C29871   3.658   7.164   9.104 -0.4006  0.4609 -0.0856
  222MOL0     C29872   3.738   7.054   9.177  0.2428  0.3736 -0.8730
  222MOL0     C29873   3.847   7.116   9.259  0.1995 -0.0694  0.0965
  222MOL0     C29874   3.965   7.028   9.289 -0.2048 -0.8027  0.0307
  222MOL0     C29875   4.054   7.103   9.385 -0.0050  0.3709 -0.8414
  222MOL0     C29876   4.175   7.166   9.327 -0.2122  0.6911  0.6241
  222MOL0     C29877   4.265   7.062   9.252  0.5747  0.4923  0.3187
  222MOL0     C29878   4.407   7.118   9.254  0.3431  0.0915  0.2750
  222MOL0    Cl29879   4.489   7.142   9.412  0.2951  0.0351  0.6391
  222MOL0     C29880   3.443   7.304   8.968  0.7977 -0.1544 -0.3649
  222MOL0     C29881   3.328   7.385   8.961 -0.3100  0.1832  0.2184
  222MOL0     O29882   3.094   7.494   9.207 -0.6950 -0.2747  0.3314
  222MOL0     C29883   2.867   7.606   8.962  0.5752  0.5189 -0.2611
  222MOL0     C29884   2.764   7.696   8.940  0.6688  1.5178  0.0115
  222MOL0     N29885   2.440   7.789   9.510 -0.0041 -0.5662 -0.1486
  222MOL0     N29886   2.455   7.704   9.606 -0.4842  0.0424  0.9980
  222MOL0     C29887   1.772   7.160   9.867 -0.7364  0.0059  0.2307
  222MOL0     C29888   1.695   7.105   9.758  0.5876  0.8848  0.7316
  222MOL0     C29889   1.412   6.863   9.495  0.0287  0.4536  0.7518
  222MOL0     C29890   1.423   6.846   9.353  0.4368  0.4880  0.2376
  222MOL0     C29891   1.340   6.750   9.282  0.1244  0.7739 -0.2800
  222MOL0     C29892   1.234   6.683   9.351 -1.2644 -0.7471 -0.7522
  222MOL0     O29893   1.144   6.613   9.267 -0.4760 -0.7172  0.1539
  222MOL0     C29894   1.069   6.501   9.310  0.7577 -0.3753 -0.3462
  222MOL0     C29895   0.929   6.520   9.251 -0.7933 -0.2755  0.5892
  222MOL0     C29896   0.848   6.393   9.247 -0.7024  0.0409 -0.1143
  222MOL0     C29897   0.872   6.309   9.122  0.6268 -0.1507 -0.7793
  222MOL0     C29898   0.795   6.194   9.122  0.0572  0.6438 -0.0927
  222MOL0     C29899   0.732   6.090   9.141  0.5595 -0.5735 -0.8666
  222MOL0     C29900   1.207   6.715   9.483  0.1690  0.4871  0.3080
  222MOL0     C29901   1.302   6.800   9.555  0.3707 -0.6343 -0.6812
  222MOL0     C29902   1.260   6.837   9.696  0.2573  0.2281 -0.3296
  222MOL0     H29903   1.591   6.813   9.909  2.6800 -1.4681 -0.4088
  222MOL0     H29904   1.761   6.888  10.078  2.0015 -0.8797 -1.2542
  222MOL0     H29905   1.727   7.230  10.167 -0.6693 -1.5471  0.0049
  222MOL0     H29906   1.842   7.135  10.271  0.1184 -1.9497 -1.0727
  222MOL0     H29907   2.028   7.291  10.201  1.2583  2.7351 -2.4665
  222MOL0     H29908   1.891   7.366  10.291 -1.6591  0.2143 -1.1927
  222MOL0     H29909   1.915   7.541  10.130 -1.0405 -1.2765  0.6321
  222MOL0     H29910   1.814   7.432  10.048 -1.3792  0.4421  2.6405
  222MOL0     H29911   2.123   7.439  10.072 -1.8062  3.4898  3.6572
  222MOL0     H29912   2.023   7.338   9.953 -0.7000  1.8130 -1.1079
  222MOL0     H29913   1.947   7.526   9.836 -0.7687  0.3587  0.7395
  222MOL0     H29914   1.990   7.643   9.951  0.3706 -0.4118 -0.1438
  222MOL0     H29915   2.173   7.686   9.793  0.4024 -0.2011 -0.6243
  222MOL0     H29916   2.248   7.591   9.923 -1.2728  0.7650  1.3327
  222MOL0     H29917   2.133   7.488   9.659  1.3730 -0.0699 -1.2721
  222MOL0     H29918   2.207   7.390   9.783 -2.4232 -0.3133  0.7619
  222MOL0     H29919   2.419   7.515   9.774 -0.9999 -1.0205  1.3940
  222MOL0     H29920   2.388   7.411   9.638  2.4281  1.8819  0.0294
  222MOL0     H29921   2.175   7.607   9.463 -0.5632  4.5264 -2.1337
  222MOL0     H29922   2.160   7.802   9.307  0.1526  1.3535  0.3668
  222MOL0     H29923   2.275   7.932   9.324  0.3467 -0.5723  0.2961
  222MOL0     H29924   2.350   7.659   9.216  0.3553 -0.0567 -0.2209
  222MOL0     H29925   2.281   7.779   9.101 -3.1265 -1.3329  1.5176
  222MOL0     H29926   2.555   7.768   9.222 -2.3778 -2.7883  1.0206
  222MOL0     H29927   2.480   7.930   9.212 -2.3960  0.4233  2.3933
  222MOL0     H29928   2.454   7.921   8.978  0.6080  0.3339  0.8486
  222MOL0     H29929   2.495   7.751   8.965 -2.8810 -0.4354 -0.3645
  222MOL0     H29930   2.834   7.887   9.219  1.9907 -0.3340  0.0197
  222MOL0     H29931   3.015   7.749   9.239  1.1822  2.4998 -0.6609
  222MOL0     H29932   3.112   7.177   9.115 -1.9996  2.6502 -1.5786
  222MOL0     H29933   3.289   7.053   9.148  0.1140  1.0602  2.0165
  222MOL0     H29934   3.718   7.209   9.024 -1.5820  0.1998 -1.1558
  222MOL0     H29935   3.638   7.234   9.185  2.4205 -0.7699  1.8202
  222MOL0     H29936   3.669   6.987   9.229 -0.3401  0.1631 -1.8914
  222MOL0     H29937   3.800   6.993   9.112  1.9325 -0.9224  1.7746
  222MOL0     H29938   3.894   7.202   9.210  1.0249 -0.0481  0.8856
  222MOL0     H29939   3.805   7.148   9.355  1.1863  1.4572  0.0487
  222MOL0     H29940   4.019   7.003   9.198  1.3934 -0.1426  0.7569
  222MOL0     H29941   3.926   6.935   9.331  1.1494 -1.4413 -0.0828
  222MOL0     H29942   4.083   7.031   9.463  0.9274  0.5305 -1.0271
  222MOL0     H29943   4.004   7.179   9.445  3.1540  1.6371  0.4361
  222MOL0     H29944   4.164   7.244   9.251  0.8460 -0.8511 -1.2187
  222MOL0     H29945   4.241   7.203   9.406 -0.2805 -0.8600  1.4356
  222MOL0     H29946   4.232   7.045   9.149 -1.2243 -0.2830  0.9742
  222MOL0     H29947   4.264   6.965   9.304 -0.2324  1.4422  2.1621
  222MOL0     H29948   4.456   7.033   9.206  2.2455  0.6281  1.1616
  222MOL0     H29949   4.410   7.208   9.193 -1.6110 -0.7194 -1.1102
  222MOL0     H29950   3.531   7.339   8.915  0.6669  1.2923  0.3225
  222MOL0     H29951   3.326   7.479   8.906 -0.7815  1.7426  2.7584
  222MOL0     H29952   2.872   7.515   8.902 -0.9638  0.2495 -0.0192
  222MOL0     H29953   2.698   7.676   8.856  2.5280 -2.4768 -0.7446
  222MOL0     H29954   1.824   7.255   9.863 -1.5083  0.5993  2.6111
  222MOL0     H29955   1.688   7.153   9.661 -1.4308 -3.0610 -1.3203
  222MOL0     H29956   1.493   6.912   9.303  0.5121 -1.5775 -2.6901
  222MOL0     H29957   1.349   6.735   9.175 -0.0433  3.5009 -0.7332
  222MOL0     H29958   1.061   6.491   9.419  0.6486  1.8196 -0.1130
  222MOL0     H29959   1.114   6.408   9.276 -2.0250 -1.5427 -1.1447
  222MOL0     H29960   0.940   6.566   9.152 -0.1846  1.4857  1.4328
  222MOL0     H29961   0.873   6.591   9.313 -1.9324  1.0310 -1.8012
  222MOL0     H29962   0.744   6.423   9.264 -0.2482  0.9549  1.1355
  222MOL0     H29963   0.871   6.346   9.343 -0.2883  0.8138  0.1674
  222MOL0     H29964   0.847   6.373   9.038 -2.4444  1.0847  0.9151
  222MOL0     H29965   0.976   6.276   9.116  1.1059  1.1383  0.1816
  222MOL0     H29966   0.679   6.001   9.168  2.0797 -1.4127 -0.5509
  222MOL0     H29967   1.116   6.679   9.529 -1.7048  0.9267 -2.7649
  222MOL0     H29968   1.251   6.945   9.690 -2.1452  0.0392 -1.3494
  222MOL0     H29969   1.156   6.805   9.712 -0.2615  1.5440 -0.9711
  222MOL0     H29970   1.327   6.795   9.772 -0.2477  1.0692  0.6042
  223MOL0     O29971   9.428   3.182   3.111  0.3543 -0.8114  1.0228
  223MOL0     C29972   9.416   3.159   3.225  0.4324 -0.0656 -0.2519
  223MOL0     O29973   9.487   3.071   3.290 -0.0050  0.7138 -0.5948
  223MOL0     C29974   9.622   3.061   3.265  0.0159  0.5035  0.2659
  223MOL0     C29975   9.708   3.072   3.369  0.3336  0.4625 -0.8452
  223MOL0     C29976   9.839   3.041   3.359 -0.0718 -0.5468  0.7720
  223MOL0     C29977   9.902   2.998   3.236  1.0357 -0.1550 -0.3239
  223MOL0     O29978  10.028   2.958   3.243  0.0719  0.2784  0.6294
  223MOL0     C29979  10.096   2.952   3.118  0.5538  0.2059  0.0384
  223MOL0     C29980  10.237   2.912   3.166  0.3167  0.2230 -0.7322
  223MOL0     C29981  10.310   2.887   3.034  0.9479 -0.3565 -1.0838
  223MOL0     C29982  10.440   2.820   3.048 -1.0959  0.3493 -0.5253
  223MOL0     C29983  10.518   2.834   2.918 -0.2718  0.4027 -0.6407
  223MOL0     C29984  10.650   2.759   2.940  0.0056 -1.1065  0.4005
  223MOL0     C29985  10.749   2.798   2.827  0.6091  0.9605 -0.8598
  223MOL0     C29986  10.900   2.798   2.865 -0.3580 -1.0674 -0.4315
  223MOL0     N29987  10.954   2.684   2.941  0.8031 -0.0630 -0.6918
  223MOL0     C29988  10.961   2.670   3.077  0.3334  0.7556  0.7303
  223MOL0     C29989  11.032   2.560   3.103  0.5616 -0.3439  0.3758
  223MOL0     C29990  11.078   2.501   3.236 -0.1831  0.2198  0.0981
  223MOL0     C29991  11.197   2.564   3.290 -0.2728 -0.4974  0.9386
  223MOL0     C29992  11.323   2.550   3.204  0.5621  0.8366  0.7514
  223MOL0     C29993  11.434   2.637   3.264  0.7283  0.4058  0.1438
  223MOL0     O29994  11.561   2.605   3.206 -0.0389  0.7483 -0.2174
  223MOL0     C29995  11.676   2.668   3.255 -0.4722  0.4681 -0.3870
  223MOL0     C29996  11.792   2.647   3.193 -0.3735 -1.1801 -0.4884
  223MOL0     C29997  11.907   2.714   3.220  0.1971  0.4721 -0.8418
  223MOL0     C29998  11.924   2.800   3.329 -0.6469  0.6420  0.4254
  223MOL0     C29999  12.053   2.869   3.363 -1.4391  0.2671 -0.4001
  223MOL0     O30000  12.165   2.830   3.301  0.0697 -0.3414 -0.2417
  223MOL0     C30001  12.281   2.901   3.328 -0.6284  0.7582 -0.2204
  223MOL0     C30002  12.375   2.873   3.432 -0.4435 -0.2572  0.3617
  223MOL0     C30003  12.489   2.954   3.437 -0.2106  0.2505  0.2285
  223MOL0     C30004  12.516   3.056   3.347  0.2197  0.9076 -0.1906
  223MOL0     O30005  12.621   3.147   3.349  0.1684  0.0389 -0.7213
  223MOL0     C30006  12.734   3.115   3.434  0.3577 -0.2872 -1.0426
  223MOL0     C30007  12.853   3.176   3.366 -1.4134  0.4415 -0.1389
  223MOL0     C30008  12.931   3.075   3.269 -0.2989  0.1038  0.4108
  223MOL0     C30009  13.048   3.144   3.183  0.1432  0.1036  0.1740
  223MOL0     C30010  13.149   3.231   3.267  0.1194  0.5486 -0.3139
  223MOL0     C30011  13.248   3.131   3.342  0.1326  0.0486 -0.0889
  223MOL0     C30012  13.395   3.171   3.337  0.3801  0.1369  0.5234
  223MOL0     C30013  13.487   3.075   3.409  0.0649 -1.0716 -0.3306
  223MOL0    Cl30014  13.651   3.134   3.373  0.0591 -0.1347 -0.0374
  223MOL0     C30015  12.416   3.090   3.258  0.1231 -0.0441  0.2899
  223MOL0     C30016  12.301   3.012   3.242 -0.3158  0.1565 -0.4127
  223MOL0     O30017  12.045   2.963   3.441  0.0846  0.4958 -0.2965
  223MOL0     C30018  11.803   2.819   3.395 -0.7484 -0.2075  0.0156
  223MOL0     C30019  11.682   2.757   3.362 -1.0849 -0.1151 -0.5123
  223MOL0     N30020  11.073   2.506   2.977 -0.3462 -0.5183  0.2327
  223MOL0     N30021  11.034   2.591   2.882  0.4677  0.3588 -0.4460
  223MOL0     C30022   9.810   2.987   3.131 -0.2616 -0.4640  0.0009
  223MOL0     C30023   9.680   3.014   3.146  0.0273 -0.1365  0.6700
  223MOL0     C30024   9.288   3.204   3.295  0.2874 -0.7475  0.2651
  223MOL0     C30025   9.275   3.174   3.429 -0.2477  0.4372  0.6805
  223MOL0     C30026   9.159   3.202   3.500 -0.3947 -0.1569  0.1311
  223MOL0     C30027   9.047   3.262   3.432 -0.3907  1.0552  0.2311
  223MOL0     O30028   8.931   3.263   3.507 -0.0884  0.8507  0.1202
  223MOL0     C30029   8.923   3.360   3.611 -0.4642 -0.3533 -0.7144
  223MOL0     C30030   8.916   3.276   3.743  0.0221  0.8372  0.6319
  223MOL0     C30031   8.774   3.211   3.758 -0.3538 -0.5364 -0.2211
  223MOL0     C30032   8.665   3.304   3.810  0.3124 -0.4588 -0.6546
  223MOL0     C30033   8.676   3.334   3.962  0.8011 -0.3353  0.3718
  223MOL0     C30034   8.687   3.337   4.079  0.0435  0.2419  0.1982
  223MOL0     C30035   9.060   3.304   3.304  0.0320 -0.0734 -0.1408
  223MOL0     C30036   9.179   3.273   3.237 -0.2271 -0.9643 -0.3557
  223MOL0     C30037   9.182   3.333   3.098 -0.0850  0.1132  1.0506
  223MOL0     H30038   9.668   3.108   3.463 -0.5837  2.1561 -1.8253
  223MOL0     H30039   9.904   3.051   3.445  0.8633  1.6301 -0.0817
  223MOL0     H30040  10.048   2.877   3.054 -2.5468 -0.4606  2.8513
  223MOL0     H30041  10.099   3.054   3.078  1.1245  0.3518  0.4462
  223MOL0     H30042  10.241   2.824   3.230 -0.7635  1.1937  0.7154
  223MOL0     H30043  10.282   3.000   3.213 -4.5704  1.5225  2.2494
  223MOL0     H30044  10.321   2.979   2.976 -0.3905 -0.6883 -1.9212
  223MOL0     H30045  10.241   2.825   2.976  1.1953 -1.0256 -0.6684
  223MOL0     H30046  10.507   2.862   3.124 -0.2013 -0.5213 -0.8126
  223MOL0     H30047  10.412   2.718   3.075 -1.7297 -0.0602 -2.5187
  223MOL0     H30048  10.474   2.783   2.831  1.1119 -0.4084 -0.8911
  223MOL0     H30049  10.522   2.942   2.902 -0.9984  0.2217 -2.2713
  223MOL0     H30050  10.694   2.800   3.031  0.7206 -0.2847 -0.3016
  223MOL0     H30051  10.642   2.651   2.955  1.0528 -0.9927  1.9499
  223MOL0     H30052  10.723   2.900   2.800 -1.1522  0.6679 -0.4094
  223MOL0     H30053  10.726   2.730   2.744 -1.0582  0.9370 -0.4072
  223MOL0     H30054  10.963   2.818   2.778  3.4224  1.6714  2.5915
  223MOL0     H30055  10.915   2.884   2.930 -0.5328 -0.2493 -1.4532
  223MOL0     H30056  10.909   2.742   3.141 -2.9746  0.0351 -0.9167
  223MOL0     H30057  11.003   2.511   3.315  1.0721  1.2061  1.2307
  223MOL0     H30058  11.097   2.395   3.220 -0.7813  0.5485 -3.5773
  223MOL0     H30059  11.177   2.666   3.323  3.8682 -0.0833  2.8106
  223MOL0     H30060  11.226   2.511   3.381  0.1881 -0.5905  0.7406
  223MOL0     H30061  11.306   2.578   3.100  2.1007 -0.5954  0.0632
  223MOL0     H30062  11.353   2.445   3.200  1.9659  1.1528  2.0768
  223MOL0     H30063  11.434   2.619   3.372 -4.6654 -0.0402  0.3402
  223MOL0     H30064  11.405   2.739   3.241 -1.8805 -0.8352 -2.7603
  223MOL0     H30065  11.787   2.583   3.105  2.1558 -0.7048 -1.0618
  223MOL0     H30066  11.998   2.704   3.162 -0.2030  0.9176 -1.5780
  223MOL0     H30067  12.366   2.795   3.507 -0.6637 -1.4369 -0.8481
  223MOL0     H30068  12.563   2.927   3.513  0.6705 -2.5038 -1.4650
  223MOL0     H30069  12.709   3.176   3.522  3.9018  2.0348 -1.4421
  223MOL0     H30070  12.755   3.011   3.460 -0.1013 -0.0987  0.1601
  223MOL0     H30071  12.822   3.264   3.309 -0.3648  0.7741 -0.2210
  223MOL0     H30072  12.923   3.214   3.441 -1.2223 -3.5551  1.9528
  223MOL0     H30073  12.979   2.999   3.332 -1.0703  0.5010  1.5257
  223MOL0     H30074  12.852   3.038   3.204  2.4275  0.6549 -3.5995
  223MOL0     H30075  13.004   3.222   3.119 -0.2468  2.7750  3.3996
  223MOL0     H30076  13.093   3.066   3.121  0.1739 -0.0454  0.3834
  223MOL0     H30077  13.109   3.298   3.343  1.0317  0.1374  0.5599
  223MOL0     H30078  13.199   3.285   3.186  1.2616  0.4505  0.2947
  223MOL0     H30079  13.221   3.134   3.448  0.8539 -1.0587  0.1380
  223MOL0     H30080  13.234   3.033   3.295 -1.2714  0.4097 -0.4685
  223MOL0     H30081  13.404   3.270   3.383 -0.8563  0.8400 -0.6694
  223MOL0     H30082  13.435   3.176   3.235  2.0892 -2.3709  0.9923
  223MOL0     H30083  13.474   3.076   3.517 -0.1826  0.4536 -0.3551
  223MOL0     H30084  13.480   2.976   3.362  2.7028  0.1839 -3.7730
  223MOL0     H30085  12.443   3.172   3.192  3.5740 -2.1538 -1.1848
  223MOL0     H30086  12.225   3.027   3.165  0.1256  2.3263 -0.5112
  223MOL0     H30087  11.816   2.889   3.477  0.8661 -1.5944  1.0055
  223MOL0     H30088  11.590   2.773   3.418 -0.5652  1.4978 -0.0508
  223MOL0     H30089   9.832   2.933   3.040 -0.1143  0.5528 -0.5828
  223MOL0     H30090   9.615   3.003   3.060  1.8678  3.5559 -1.4366
  223MOL0     H30091   9.357   3.132   3.486 -0.5986  1.1347  1.7282
  223MOL0     H30092   9.145   3.165   3.601 -1.2331 -0.0137  0.0752
  223MOL0     H30093   8.832   3.417   3.587  1.1882  3.2492  0.7538
  223MOL0     H30094   9.004   3.434   3.611  2.0254 -2.9111  0.0285
  223MOL0     H30095   8.941   3.339   3.829 -0.8926  0.0818  1.4702
  223MOL0     H30096   8.991   3.196   3.741 -0.4693  0.2636  2.8713
  223MOL0     H30097   8.769   3.122   3.822 -2.8177  0.4366  1.0670
  223MOL0     H30098   8.755   3.170   3.659  1.3481 -3.7535  0.6462
  223MOL0     H30099   8.668   3.395   3.749  0.6061 -1.7236 -2.6135
  223MOL0     H30100   8.571   3.251   3.796  0.5064 -1.0513  0.2233
  223MOL0     H30101   8.693   3.354   4.185  0.4363  3.3538 -0.2145
  223MOL0     H30102   8.970   3.341   3.256 -2.1577 -5.2756 -0.6800
  223MOL0     H30103   9.272   3.395   3.084 -0.0175 -0.3729 -1.1702
  223MOL0     H30104   9.188   3.253   3.023 -0.5630  2.2173 -1.3698
  223MOL0     H30105   9.094   3.391   3.069 -0.8761 -2.1722 -1.5174
  224MOL0     O30106   0.005   9.812   9.398  0.4660 -0.4164  0.4292
  224MOL0     C30107  -0.005   9.712   9.475 -0.2487 -0.2632  0.4800
  224MOL0     O30108   0.101   9.622   9.497 -0.5169  0.5660 -0.0974
  224MOL0     C30109   0.223   9.657   9.445 -0.5751  0.0527 -0.6246
  224MOL0     C30110   0.270   9.609   9.322  0.7260 -0.1081  0.1364
  224MOL0     C30111   0.387   9.660   9.266  0.4434  0.0799  0.5547
  224MOL0     C30112   0.460   9.759   9.328 -0.1396  0.2592  0.8506
  224MOL0     O30113   0.564   9.813   9.250 -0.1365 -0.9737 -0.4366
  224MOL0     C30114   0.681   9.879   9.311 -1.7035  0.4662  0.0989
  224MOL0     C30115   0.773   9.777   9.388  0.7691 -0.2402 -0.9408
  224MOL0     C30116   0.826   9.662   9.309  0.2817  0.2495  0.0136
  224MOL0     C30117   0.873   9.691   9.167  0.4258 -1.0135  0.6152
  224MOL0     C30118   0.994   9.610   9.117 -0.7242  0.6254  0.0483
  224MOL0     C30119   0.967   9.457   9.091 -0.0834 -0.6247 -0.2134
  224MOL0     C30120   1.088   9.392   9.033  0.4653  0.7124 -0.5114
  224MOL0     C30121   1.053   9.270   8.938  0.5293  0.0950 -0.1365
  224MOL0     N30122   1.157   9.173   8.918  0.3962 -1.1683 -0.3330
  224MOL0     C30123   1.277   9.206   8.855  0.5958  0.2320 -1.0848
  224MOL0     C30124   1.345   9.097   8.852 -0.1234 -0.0699  0.5979
  224MOL0     C30125   1.488   9.084   8.790 -0.5089 -0.2688  0.2611
  224MOL0     C30126   1.589   9.155   8.871  0.2182 -0.1419  0.0244
  224MOL0     C30127   1.734   9.112   8.834 -0.5103  0.3785 -0.1580
  224MOL0     C30128   1.769   8.977   8.913  0.9832 -0.1125  0.7071
  224MOL0     O30129   1.907   8.938   8.887 -0.5290  0.3328 -0.1734
  224MOL0     C30130   2.002   8.964   8.984 -0.0165 -0.2706  0.1679
  224MOL0     C30131   1.980   9.027   9.108 -0.1402 -0.2477  0.5436
  224MOL0     C30132   2.083   9.031   9.202 -1.2268 -0.3352  0.3918
  224MOL0     C30133   2.213   8.968   9.183 -0.2241  0.1289 -0.1394
  224MOL0     C30134   2.313   8.958   9.291  0.8036  0.6707  0.9731
  224MOL0     O30135   2.410   8.863   9.273 -0.5103 -0.3215  0.4653
  224MOL0     C30136   2.522   8.864   9.344  0.3975  0.1275 -0.0808
  224MOL0     C30137   2.596   8.976   9.372 -0.0083 -0.0092  0.0720
  224MOL0     C30138   2.716   8.970   9.449 -0.0326 -0.2246  0.1366
  224MOL0     C30139   2.755   8.851   9.503  0.1836 -0.9194 -0.3353
  224MOL0     O30140   2.878   8.856   9.564 -0.1086 -0.4689 -0.3591
  224MOL0     C30141   2.963   8.740   9.563 -0.8970  0.0158  0.3030
  224MOL0     C30142   3.092   8.799   9.609  0.8012  0.1659 -0.4536
  224MOL0     C30143   3.203   8.693   9.627  0.4026 -0.2749  0.2097
  224MOL0     C30144   3.241   8.642   9.489  0.0837  0.9119  0.4200
  224MOL0     C30145   3.335   8.522   9.509 -0.0430  0.6208 -0.6524
  224MOL0     C30146   3.368   8.460   9.376 -0.5450  0.3505  0.8979
  224MOL0     C30147   3.474   8.352   9.383  0.5071  0.0866 -0.0164
  224MOL0     C30148   3.516   8.301   9.250 -0.1138  0.5166  0.8872
  224MOL0    Cl30149   3.610   8.138   9.269 -0.1445 -0.3951  0.3089
  224MOL0     C30150   2.669   8.742   9.485 -0.4570  1.3288 -0.5333
  224MOL0     C30151   2.557   8.747   9.396 -0.3426  0.4043 -0.2948
  224MOL0     O30152   2.313   9.039   9.381 -0.3698  0.7217  0.2397
  224MOL0     C30153   2.236   8.909   9.062 -0.6668  0.6568  0.8763
  224MOL0     C30154   2.128   8.905   8.966 -0.7429  0.6363 -0.3113
  224MOL0     N30155   1.265   8.993   8.910 -0.5556  0.7036  0.4870
  224MOL0     N30156   1.154   9.045   8.950 -0.0452  0.2509 -0.1253
  224MOL0     C30157   0.415   9.811   9.448  0.5225  0.3927  0.3819
  224MOL0     C30158   0.296   9.759   9.505  0.4623 -0.4070 -1.0625
  224MOL0     C30159  -0.133   9.692   9.546 -0.4933 -0.2288 -0.1360
  224MOL0     C30160  -0.133   9.641   9.680 -0.5260  0.5528  1.1289
  224MOL0     C30161  -0.249   9.640   9.754 -0.0274  0.2831 -0.0300
  224MOL0     C30162  -0.371   9.674   9.700  0.1758  0.6497 -1.2143
  224MOL0     O30163  -0.492   9.680   9.772  1.2601  0.2801 -0.7272
  224MOL0     C30164  -0.591   9.577   9.724 -1.2638  0.6411 -0.8862
  224MOL0     C30165  -0.725   9.612   9.665 -0.0083  0.1740  0.1639
  224MOL0     C30166  -0.730   9.691   9.533  0.1958 -0.5439  0.4763
  224MOL0     C30167  -0.683   9.607   9.415 -1.1109  1.1098  0.1905
  224MOL0     C30168  -0.782   9.507   9.372  0.4321 -0.4314  0.7230
  224MOL0     C30169  -0.876   9.444   9.333  0.5066 -0.5117 -1.4141
  224MOL0     C30170  -0.369   9.713   9.564 -0.2132 -0.2920 -0.2134
  224MOL0     C30171  -0.257   9.733   9.487 -0.8283  0.0675 -0.7225
  224MOL0     C30172  -0.280   9.774   9.345  0.0864 -1.1821 -0.7640
  224MOL0     H30173   0.219   9.521   9.284 -0.9034  0.9167 -0.1266
  224MOL0     H30174   0.409   9.605   9.175 -1.1966 -1.7793  1.2203
  224MOL0     H30175   0.753   9.927   9.244 -3.0430 -1.8712 -3.2859
  224MOL0     H30176   0.643   9.964   9.370 -0.6719  1.5934 -0.8121
  224MOL0     H30177   0.722   9.743   9.479  0.8360 -1.5761 -1.3781
  224MOL0     H30178   0.871   9.816   9.417  1.0224 -2.7025  2.1939
  224MOL0     H30179   0.749   9.585   9.311 -1.5732  1.9903  2.1387
  224MOL0     H30180   0.911   9.614   9.358 -0.3136 -0.4159  0.4234
  224MOL0     H30181   0.786   9.701   9.101 -1.3425  2.0060  3.0840
  224MOL0     H30182   0.920   9.790   9.167  0.3042 -0.9549  0.9244
  224MOL0     H30183   1.016   9.659   9.022 -3.1980  3.8161  0.9299
  224MOL0     H30184   1.084   9.616   9.178 -0.6137 -1.1560  0.1199
  224MOL0     H30185   0.925   9.399   9.174  0.3900  1.1837  1.3565
  224MOL0     H30186   0.893   9.452   9.011  1.7141 -0.3056 -1.9793
  224MOL0     H30187   1.148   9.353   9.115 -0.8230  0.5255  0.3709
  224MOL0     H30188   1.152   9.460   8.976 -1.1122  0.6783 -2.4397
  224MOL0     H30189   0.964   9.230   8.986 -0.3430  2.7191  0.6285
  224MOL0     H30190   1.015   9.307   8.843 -2.1447 -1.5838  0.1727
  224MOL0     H30191   1.307   9.301   8.812 -0.3291  0.9341 -0.2558
  224MOL0     H30192   1.501   8.976   8.780 -1.1128 -0.2863 -0.3408
  224MOL0     H30193   1.491   9.125   8.689  4.2513 -0.5396  0.0589
  224MOL0     H30194   1.588   9.262   8.846  2.6210  0.2608  1.3129
  224MOL0     H30195   1.579   9.138   8.978  1.9716  0.1026  0.2688
  224MOL0     H30196   1.795   9.189   8.882 -1.9627 -0.0271  2.5973
  224MOL0     H30197   1.748   9.108   8.726  0.6091 -1.6577  0.0278
  224MOL0     H30198   1.708   8.894   8.878 -1.3092  1.2876  1.2038
  224MOL0     H30199   1.751   8.993   9.019  2.8619  0.1564  1.0242
  224MOL0     H30200   1.893   9.091   9.117  0.2358  1.0129 -3.0757
  224MOL0     H30201   2.069   9.079   9.298  0.6960 -0.8618  0.9959
  224MOL0     H30202   2.573   9.074   9.331 -3.7122 -0.2695  1.1520
  224MOL0     H30203   2.770   9.063   9.467  0.2004 -0.1982 -0.6623
  224MOL0     H30204   2.929   8.658   9.627 -0.4650 -1.3354 -1.1362
  224MOL0     H30205   2.986   8.711   9.460 -0.0725 -1.0947  0.7736
  224MOL0     H30206   3.118   8.884   9.547 -2.5528  2.6713  1.2386
  224MOL0     H30207   3.072   8.845   9.706  3.2134 -0.5747  0.4836
  224MOL0     H30208   3.291   8.743   9.669  0.9119 -2.5546  2.0718
  224MOL0     H30209   3.168   8.612   9.692 -0.5805 -0.4923 -0.5708
  224MOL0     H30210   3.290   8.720   9.430 -0.9290  0.0252 -1.7222
  224MOL0     H30211   3.162   8.615   9.418 -0.4868 -0.2843  1.4774
  224MOL0     H30212   3.294   8.445   9.576 -0.3604  0.3870 -1.1072
  224MOL0     H30213   3.432   8.556   9.547 -0.8221  3.3166 -0.9105
  224MOL0     H30214   3.286   8.411   9.323  1.3662 -1.3442 -0.6689
  224MOL0     H30215   3.411   8.524   9.298 -0.9531 -2.7914 -2.1616
  224MOL0     H30216   3.424   8.276   9.443 -0.0366  1.3375  1.1410
  224MOL0     H30217   3.566   8.389   9.430  0.6115  0.1295 -0.2523
  224MOL0     H30218   3.432   8.265   9.190  0.7685  2.8814 -2.0030
  224MOL0     H30219   3.559   8.382   9.190 -0.4497 -0.4359 -0.7041
  224MOL0     H30220   2.686   8.659   9.553 -1.3247  0.4099 -1.4034
  224MOL0     H30221   2.494   8.659   9.391  0.0719  0.1472 -1.1760
  224MOL0     H30222   2.334   8.873   9.033 -0.3197  2.2963 -0.0445
  224MOL0     H30223   2.136   8.843   8.877 -3.1422  0.5005 -0.4952
  224MOL0     H30224   0.453   9.896   9.503  1.4020  1.1920 -1.3960
  224MOL0     H30225   0.270   9.793   9.605 -3.2308  1.0660 -2.3660
  224MOL0     H30226  -0.046   9.614   9.739  0.0408  1.3740  0.6939
  224MOL0     H30227  -0.244   9.597   9.854  0.6522 -2.2935 -1.0803
  224MOL0     H30228  -0.611   9.515   9.813 -1.5052  1.3982 -0.4065
  224MOL0     H30229  -0.544   9.518   9.645 -0.3327 -0.6509  0.5632
  224MOL0     H30230  -0.776   9.676   9.738  1.9438  0.3649  1.4370
  224MOL0     H30231  -0.790   9.525   9.651 -0.9722  1.1765 -2.2435
  224MOL0     H30232  -0.682   9.788   9.547 -1.6026  0.4443  0.1274
  224MOL0     H30233  -0.834   9.720   9.516  0.2454 -0.1618  0.8064
  224MOL0     H30234  -0.674   9.672   9.327  3.3374  0.2451 -0.2418
  224MOL0     H30235  -0.592   9.553   9.442 -0.8656  1.5606  0.2923
  224MOL0     H30236  -0.968   9.411   9.290  0.3721 -0.1452 -1.4126
  224MOL0     H30237  -0.470   9.724   9.528 -0.1459 -0.7647 -0.5579
  224MOL0     H30238  -0.385   9.757   9.319 -1.4227  1.4419  2.7755
  224MOL0     H30239  -0.265   9.881   9.326  0.4109 -1.2252 -0.7632
  224MOL0     H30240  -0.226   9.709   9.276  0.6087 -1.3065 -0.2400
  225MOL0     O30241  10.604  11.266  10.181  0.9457 -0.6861 -0.0121
  225MOL0     C30242  10.556  11.193  10.098  1.2492 -0.1076  0.5554
  225MOL0     O30243  10.630  11.095  10.031  0.4284  0.0548 -0.6397
  225MOL0     C30244  10.756  11.058  10.075  0.2861  0.3277  0.3942
  225MOL0     C30245  10.754  10.930  10.136 -0.0974 -0.0950  0.1767
  225MOL0     C30246  10.871  10.884  10.189 -0.5170  0.2944  1.1370
  225MOL0     C30247  10.986  10.964  10.181 -0.1662 -0.2652 -0.4346
  225MOL0     O30248  11.100  10.909  10.234  0.7159 -0.8999  0.3611
  225MOL0     C30249  11.209  10.919  10.146 -0.2485 -0.1580 -0.7382
  225MOL0     C30250  11.304  10.801  10.198 -0.5294  0.6777  0.0895
  225MOL0     C30251  11.429  10.788  10.112 -0.8464  1.0900 -0.0905
  225MOL0     C30252  11.547  10.894  10.136  0.2176 -0.4924 -0.0097
  225MOL0     C30253  11.653  10.866  10.032  0.0397 -0.7169 -0.0031
  225MOL0     C30254  11.788  10.919  10.075  0.1141 -0.9494 -0.2754
  225MOL0     C30255  11.887  10.903   9.967 -0.0146  0.5618  0.4608
  225MOL0     C30256  12.026  10.953  10.018  0.5960  0.3574  0.0301
  225MOL0     N30257  12.134  10.939   9.923  0.5375  0.8990  0.0221
  225MOL0     C30258  12.265  10.952   9.955  0.2407 -0.0136 -0.1159
  225MOL0     C30259  12.337  10.891   9.861  0.4810  0.1828  0.4679
  225MOL0     C30260  12.487  10.900   9.855  0.1849 -0.5336  0.6416
  225MOL0     C30261  12.543  10.874   9.716  0.2866  0.6433  0.5277
  225MOL0     C30262  12.677  10.944   9.701  0.1358 -0.3921 -0.5592
  225MOL0     C30263  12.724  10.942   9.557  0.9979  0.9968 -0.6997
  225MOL0     O30264  12.763  10.811   9.519  0.4586 -0.1433  0.4134
  225MOL0     C30265  12.891  10.757   9.546  0.4478  0.4882 -1.0022
  225MOL0     C30266  12.925  10.641   9.484  0.7210  1.2363 -0.3976
  225MOL0     C30267  13.057  10.585   9.498  0.1906  0.1677  0.6165
  225MOL0     C30268  13.152  10.647   9.583  0.0100 -1.0996  0.8253
  225MOL0     C30269  13.291  10.592   9.597 -0.0605  0.3215 -0.9096
  225MOL0     O30270  13.384  10.668   9.671  0.3578 -0.1455  0.4882
  225MOL0     C30271  13.506  10.608   9.668 -0.6031  1.5489  0.1418
  225MOL0     C30272  13.560  10.532   9.773  0.1651 -0.5633 -0.0593
  225MOL0     C30273  13.689  10.467   9.760 -0.5467  0.8120 -0.2162
  225MOL0     C30274  13.768  10.486   9.640 -0.1522 -0.6293  0.1702
  225MOL0     O30275  13.903  10.462   9.657 -0.2533 -0.3672  0.6228
  225MOL0     C30276  13.992  10.486   9.550  0.5459 -0.0189 -0.0040
  225MOL0     C30277  14.106  10.386   9.559 -0.3986 -0.2464 -0.1828
  225MOL0     C30278  14.205  10.393   9.676 -0.3147  0.4119 -0.5932
  225MOL0     C30279  14.301  10.520   9.666  0.7633 -0.4736 -0.8373
  225MOL0     C30280  14.407  10.524   9.775  0.0972 -0.5465  0.3386
  225MOL0     C30281  14.362  10.560   9.923  0.3676  0.7420  0.8293
  225MOL0     C30282  14.477  10.519  10.024 -0.2930 -0.4180 -0.5080
  225MOL0     C30283  14.573  10.638  10.052 -0.4904  0.0375 -0.1865
  225MOL0    Cl30284  14.665  10.589  10.187  0.2168  0.1016  0.6077
  225MOL0     C30285  13.717  10.557   9.534  0.4445  0.1663  0.9485
  225MOL0     C30286  13.586  10.610   9.545 -0.7450 -0.5491 -0.1134
  225MOL0     O30287  13.314  10.478   9.552 -0.4600  0.3331 -0.1276
  225MOL0     C30288  13.108  10.752   9.660  0.0659 -1.0739  0.5951
  225MOL0     C30289  12.985  10.809   9.640  0.6022  0.9152  0.2284
  225MOL0     N30290  12.253  10.843   9.767 -0.9228 -0.3179 -1.0123
  225MOL0     N30291  12.134  10.880   9.801  0.0011  0.3182  0.1328
  225MOL0     C30292  10.982  11.094  10.141  0.4798 -0.2697 -0.0602
  225MOL0     C30293  10.870  11.152  10.083 -0.8234  0.2682  0.5326
  225MOL0     C30294  10.406  11.196  10.065 -0.8237  0.0353 -0.2348
  225MOL0     C30295  10.355  11.125   9.955  0.2381 -0.4473 -0.1936
  225MOL0     C30296  10.224  11.117   9.922  0.4596  0.1540 -0.1856
  225MOL0     C30297  10.133  11.176   9.995 -0.9124 -0.1728 -0.2470
  225MOL0     O30298   9.998  11.188   9.955 -0.0286 -0.1224  0.2470
  225MOL0     C30299   9.940  11.089   9.868 -0.7613 -1.4454  0.0789
  225MOL0     C30300   9.802  11.038   9.922 -0.1549  0.4410  0.1585
  225MOL0     C30301   9.767  10.915   9.833  0.7572  0.2004 -0.4107
  225MOL0     C30302   9.684  10.812   9.907  0.2173  0.9413 -0.1809
  225MOL0     C30303   9.778  10.742  10.000  0.4232 -0.2789  0.2204
  225MOL0     C30304   9.854  10.681  10.067 -0.1986 -0.3472  0.2697
  225MOL0     C30305  10.175  11.247  10.107 -0.0271 -0.2467 -0.4455
  225MOL0     C30306  10.307  11.255  10.143 -1.3809 -0.4095 -0.2132
  225MOL0     C30307  10.335  11.342  10.263 -0.7191  0.2666  0.3296
  225MOL0     H30308  10.661  10.876  10.151  0.0570 -0.1558  0.9744
  225MOL0     H30309  10.872  10.787  10.237  0.5867  0.2004  0.9420
  225MOL0     H30310  11.183  10.888  10.045  0.6336  0.6159 -1.2217
  225MOL0     H30311  11.252  11.020  10.141  0.0970 -0.1173  1.7157
  225MOL0     H30312  11.250  10.706  10.199  0.7534 -0.1100  2.2746
  225MOL0     H30313  11.337  10.815  10.301  0.2939 -0.7998  0.0480
  225MOL0     H30314  11.389  10.794  10.010  0.8902  1.2678 -0.8024
  225MOL0     H30315  11.468  10.688  10.131 -1.0924  1.0881  0.4096
  225MOL0     H30316  11.514  10.998  10.135 -1.7404 -1.0770 -0.2238
  225MOL0     H30317  11.594  10.877  10.233  0.8820 -0.2916 -0.2900
  225MOL0     H30318  11.667  10.760  10.009  0.0544 -0.3529 -1.7890
  225MOL0     H30319  11.619  10.913   9.939  4.6879 -0.4974 -1.8601
  225MOL0     H30320  11.778  11.024  10.106 -1.3365 -1.2701  0.3952
  225MOL0     H30321  11.830  10.872  10.164  0.6185  0.2940  0.1682
  225MOL0     H30322  11.867  10.960   9.876  0.5799  0.5574  0.3218
  225MOL0     H30323  11.897  10.796   9.946 -2.4258  0.4170 -0.2748
  225MOL0     H30324  12.016  11.062  10.026  2.8889  0.8647 -2.5510
  225MOL0     H30325  12.067  10.907  10.109 -1.4944 -0.8923  0.3996
  225MOL0     H30326  12.295  11.017  10.037  1.1414  1.1870 -1.3391
  225MOL0     H30327  12.516  11.003   9.878 -0.6399 -0.1389 -0.0503
  225MOL0     H30328  12.525  10.838   9.937 -0.2292 -0.4857  0.8724
  225MOL0     H30329  12.542  10.765   9.701  1.1526  0.7814 -0.6052
  225MOL0     H30330  12.477  10.910   9.638 -0.1556  3.0472  1.9234
  225MOL0     H30331  12.752  10.889   9.758 -1.9915 -2.0899  0.7387
  225MOL0     H30332  12.666  11.050   9.728 -1.0116  0.7104 -4.6927
  225MOL0     H30333  12.792  11.021   9.527  2.6328  0.6703  1.8706
  225MOL0     H30334  12.630  10.964   9.506  0.1373  1.0407  0.8352
  225MOL0     H30335  12.842  10.585   9.441  0.9365 -0.1555  0.9098
  225MOL0     H30336  13.088  10.493   9.450 -2.4080 -0.6533  0.3377
  225MOL0     H30337  13.505  10.521   9.866 -0.5601 -2.8598 -0.6742
  225MOL0     H30338  13.723  10.404   9.842  2.7676  1.1730 -1.1584
  225MOL0     H30339  13.941  10.467   9.455 -2.6974 -0.1178  1.6303
  225MOL0     H30340  14.009  10.594   9.555  0.1773  0.0425 -0.0698
  225MOL0     H30341  14.057  10.288   9.557 -2.1599  0.5863  0.0006
  225MOL0     H30342  14.157  10.392   9.463  0.9601 -5.0043 -0.0415
  225MOL0     H30343  14.166  10.374   9.776  0.2703  1.9821 -0.0336
  225MOL0     H30344  14.266  10.302   9.671  3.6096  2.7550  0.0974
  225MOL0     H30345  14.242  10.612   9.657  0.4722 -0.6505 -0.7664
  225MOL0     H30346  14.358  10.522   9.573  2.3562 -2.6935  0.0003
  225MOL0     H30347  14.482  10.597   9.748 -1.4677  1.3093  0.7872
  225MOL0     H30348  14.461  10.429   9.777  0.8535 -0.1780 -1.3606
  225MOL0     H30349  14.342  10.666   9.937 -0.0315  0.8298 -0.3558
  225MOL0     H30350  14.272  10.502   9.948  2.2055 -2.1642  1.1964
  225MOL0     H30351  14.537  10.438   9.982 -0.7715 -0.2208 -1.6110
  225MOL0     H30352  14.432  10.487  10.119 -2.5890  0.9184 -1.0873
  225MOL0     H30353  14.631  10.665   9.964 -0.3887  2.1624  0.4531
  225MOL0     H30354  14.520  10.728  10.088  0.3343  0.6873 -0.5689
  225MOL0     H30355  13.761  10.574   9.436 -1.4894 -1.7126 -0.3330
  225MOL0     H30356  13.541  10.665   9.463 -1.6501 -1.6065 -0.3595
  225MOL0     H30357  13.174  10.808   9.725 -2.3534  0.7302  1.7045
  225MOL0     H30358  12.962  10.902   9.690 -0.4384  0.4458  0.6515
  225MOL0     H30359  11.071  11.156  10.134  0.3640 -0.2236 -1.4073
  225MOL0     H30360  10.873  11.251  10.039 -0.1538 -0.7609 -1.9325
  225MOL0     H30361  10.428  11.074   9.894  0.7696 -0.7027  0.6457
  225MOL0     H30362  10.200  11.074   9.825  1.0986  2.2316 -1.3324
  225MOL0     H30363  10.019  11.014   9.871  4.0137  3.0350  1.6855
  225MOL0     H30364   9.930  11.126   9.765 -1.5793 -1.3845  0.1726
  225MOL0     H30365   9.723  11.112   9.908 -0.6470  0.7804  3.7502
  225MOL0     H30366   9.812  11.011  10.028  1.4028 -1.8034 -0.4725
  225MOL0     H30367   9.860  10.869   9.797  0.8272 -1.4100  1.6666
  225MOL0     H30368   9.708  10.939   9.744  0.6714  0.4939 -0.2755
  225MOL0     H30369   9.603  10.868   9.955 -2.1276 -0.2494 -2.4880
  225MOL0     H30370   9.645  10.744   9.831  2.9688 -0.0281 -0.8493
  225MOL0     H30371   9.926  10.633  10.130  0.1117  3.1222  2.8216
  225MOL0     H30372  10.101  11.298  10.168  0.7229 -1.3918  1.5102
  225MOL0     H30373  10.238  11.367  10.309  0.0323  1.6405  1.2412
  225MOL0     H30374  10.393  11.285  10.337  1.1027  2.2559  0.5359
  225MOL0     H30375  10.382  11.433  10.225 -2.2010  0.0595 -2.1615
  226MOL0     O30376   5.009   2.261   8.238  0.5965 -0.3046 -0.4297
  226MOL0     C30377   5.041   2.167   8.315 -0.8648  0.3623  0.8605
  226MOL0     O30378   5.168   2.127   8.336 -0.6905 -0.1906  0.1021
  226MOL0     C30379   5.265   2.193   8.258  0.0916  0.4651 -0.2771
  226MOL0     C30380   5.355   2.108   8.199  1.0049 -0.0630  0.2005
  226MOL0     C30381   5.474   2.159   8.140  0.7708 -0.5129 -0.5152
  226MOL0     C30382   5.505   2.299   8.136  0.8280 -0.6763 -0.3876
  226MOL0     O30383   5.618   2.356   8.092 -0.9439  0.2978  0.0253
  226MOL0     C30384   5.703   2.285   7.994  0.4166 -0.7020  0.0462
  226MOL0     C30385   5.793   2.389   7.927 -0.5971  0.2301  1.2082
  226MOL0     C30386   5.897   2.460   8.013 -0.0770 -0.4423  0.0241
  226MOL0     C30387   6.015   2.380   8.048  0.7373  0.1398 -0.3356
  226MOL0     C30388   6.126   2.477   8.105  1.2618  1.0330  0.5391
  226MOL0     C30389   6.201   2.552   7.989 -0.5340  0.7037 -0.4651
  226MOL0     C30390   6.341   2.577   8.037  0.0617 -0.5186 -0.4457
  226MOL0     C30391   6.450   2.493   7.973 -0.2703 -0.0744 -0.1613
  226MOL0     N30392   6.584   2.548   7.987 -0.7289  0.3949 -0.2394
  226MOL0     C30393   6.642   2.562   8.112 -0.8569 -0.0371 -0.2705
  226MOL0     C30394   6.758   2.630   8.074 -0.7945 -0.0818  0.5394
  226MOL0     C30395   6.848   2.685   8.185  0.4678 -0.1183  0.5330
  226MOL0     C30396   7.000   2.700   8.149  0.1546  0.5441 -0.3149
  226MOL0     C30397   7.067   2.566   8.131 -0.9222 -0.3500  0.2774
  226MOL0     C30398   7.207   2.600   8.092 -0.2831  0.8486  0.4045
  226MOL0     O30399   7.283   2.656   8.198 -0.1464  1.3227  0.0652
  226MOL0     C30400   7.418   2.656   8.186  0.9741 -0.9029  0.5141
  226MOL0     C30401   7.497   2.683   8.294  0.8613  0.2235 -0.0323
  226MOL0     C30402   7.637   2.670   8.293  0.0895  0.7751 -0.5538
  226MOL0     C30403   7.699   2.645   8.174 -0.3163  1.2781 -0.2738
  226MOL0     C30404   7.845   2.618   8.173  0.5782 -0.9445  0.0542
  226MOL0     O30405   7.918   2.655   8.279 -0.0002 -0.0378 -0.4869
  226MOL0     C30406   8.057   2.617   8.286  0.3244  1.0603 -0.0213
  226MOL0     C30407   8.142   2.717   8.342 -0.0516  0.4464  0.7612
  226MOL0     C30408   8.275   2.692   8.365  0.2898  0.3147  0.3943
  226MOL0     C30409   8.328   2.566   8.336 -0.6875  0.2699  0.1203
  226MOL0     O30410   8.455   2.535   8.378 -0.2208  0.5919  0.6588
  226MOL0     C30411   8.492   2.589   8.505 -0.3879 -0.7702 -0.5662
  226MOL0     C30412   8.574   2.483   8.583  0.2369  0.7752  0.3481
  226MOL0     C30413   8.696   2.443   8.503 -0.4385 -0.3026  0.3914
  226MOL0     C30414   8.808   2.539   8.497 -0.5257 -0.4660 -0.0296
  226MOL0     C30415   8.942   2.467   8.481  0.2418 -0.7561 -0.2394
  226MOL0     C30416   9.057   2.556   8.426  0.2584 -0.6314 -0.5147
  226MOL0     C30417   9.101   2.675   8.519  0.5287  0.0997  0.1572
  226MOL0     C30418   9.169   2.633   8.642  0.6291 -0.0025 -0.0572
  226MOL0    Cl30419   9.189   2.780   8.742 -0.1858 -0.0481 -0.0405
  226MOL0     C30420   8.246   2.470   8.276  0.2455  0.5104 -0.1748
  226MOL0     C30421   8.108   2.485   8.262 -1.1841 -0.5720 -0.6700
  226MOL0     O30422   7.884   2.570   8.073 -0.3698 -0.1861 -0.4427
  226MOL0     C30423   7.621   2.626   8.061  0.2205 -0.7233 -0.2679
  226MOL0     C30424   7.487   2.632   8.064  0.4023  0.0191 -0.5067
  226MOL0     N30425   6.765   2.650   7.929 -0.5913  0.4211 -0.2715
  226MOL0     N30426   6.659   2.598   7.886 -0.1423 -0.5356  0.8535
  226MOL0     C30427   5.416   2.377   8.214  0.6821 -0.1955 -0.3175
  226MOL0     C30428   5.298   2.329   8.269  0.1441  1.0114 -0.0088
  226MOL0     C30429   4.930   2.096   8.382  0.3701 -0.5099 -0.3392
  226MOL0     C30430   4.962   2.026   8.498  0.7445  0.5412 -0.5513
  226MOL0     C30431   4.868   1.966   8.579  0.4571  0.6201 -0.4421
  226MOL0     C30432   4.739   1.943   8.532  0.0480 -0.5231 -0.3418
  226MOL0     O30433   4.641   1.864   8.595  0.4231 -0.2749  0.0324
  226MOL0     C30434   4.673   1.798   8.720  0.4764 -0.1788  0.3147
  226MOL0     C30435   4.547   1.730   8.790  0.0918 -0.2999  0.4619
  226MOL0     C30436   4.581   1.619   8.889 -0.4836  0.4212 -0.7688
  226MOL0     C30437   4.608   1.662   9.036  1.0811  0.3233  1.1293
  226MOL0     C30438   4.742   1.715   9.057 -0.3365  0.9707 -0.1769
  226MOL0     C30439   4.854   1.749   9.083 -0.7433 -0.5040 -0.4033
  226MOL0     C30440   4.702   2.005   8.418  0.1611 -0.2339 -0.2574
  226MOL0     C30441   4.799   2.079   8.342  1.1436 -0.0740 -0.3299
  226MOL0     C30442   4.745   2.125   8.212  0.5056  0.7703  0.8303
  226MOL0     H30443   5.324   2.004   8.198  1.3815 -0.2394 -2.5454
  226MOL0     H30444   5.532   2.089   8.080 -0.6963 -2.8273  0.6020
  226MOL0     H30445   5.772   2.211   8.034 -0.0203 -1.7534 -1.0996
  226MOL0     H30446   5.647   2.240   7.911  0.7822 -0.8542 -0.1181
  226MOL0     H30447   5.740   2.472   7.880  0.1904  0.3278  0.4643
  226MOL0     H30448   5.856   2.343   7.850 -2.4276  0.8261 -0.7381
  226MOL0     H30449   5.862   2.502   8.108  1.1638 -2.5516  1.4979
  226MOL0     H30450   5.922   2.554   7.962 -0.8324 -0.7463 -0.9295
  226MOL0     H30451   5.993   2.306   8.125 -0.5910  0.2452 -0.5891
  226MOL0     H30452   6.052   2.333   7.956 -2.4145  3.1189 -3.4381
  226MOL0     H30453   6.092   2.539   8.188  4.1110  0.9211  1.8904
  226MOL0     H30454   6.198   2.411   8.153 -0.5280  0.2857  2.3428
  226MOL0     H30455   6.200   2.488   7.900 -0.9871 -1.1902  0.8276
  226MOL0     H30456   6.145   2.644   7.974 -1.1862  0.9843  2.9291
  226MOL0     H30457   6.351   2.571   8.146  1.1662  0.5233 -0.4656
  226MOL0     H30458   6.374   2.676   8.002  1.5393 -0.7948  0.0652
  226MOL0     H30459   6.433   2.396   8.021 -3.3400  0.5020  0.1090
  226MOL0     H30460   6.433   2.482   7.865 -2.7136  0.8804  0.0809
  226MOL0     H30461   6.599   2.550   8.211 -2.2025 -1.7893 -1.0278
  226MOL0     H30462   6.816   2.788   8.202 -2.1216 -0.8740  0.8054
  226MOL0     H30463   6.835   2.629   8.278 -0.2718 -0.2435  0.3630
  226MOL0     H30464   7.006   2.756   8.055 -0.6794  0.2456 -0.5529
  226MOL0     H30465   7.041   2.759   8.232  0.8479  1.7589 -1.4863
  226MOL0     H30466   7.017   2.493   8.067  1.7405 -1.4798 -0.6544
  226MOL0     H30467   7.067   2.513   8.227 -0.8778  1.5862  1.4065
  226MOL0     H30468   7.193   2.663   8.004 -0.9131 -0.4040 -0.4244
  226MOL0     H30469   7.240   2.500   8.062  1.5867  1.2415  1.0236
  226MOL0     H30470   7.432   2.687   8.381  1.9257 -0.5238  0.8304
  226MOL0     H30471   7.692   2.677   8.387 -1.4275  2.6825  0.2652
  226MOL0     H30472   8.116   2.822   8.353 -0.0178  0.5234  0.1380
  226MOL0     H30473   8.330   2.766   8.421 -0.8736 -0.3636  2.5151
  226MOL0     H30474   8.549   2.682   8.498 -0.3749 -0.7118  0.2360
  226MOL0     H30475   8.406   2.610   8.569  0.0349  0.9600 -0.4990
  226MOL0     H30476   8.600   2.505   8.687 -2.1343 -3.5559  2.1153
  226MOL0     H30477   8.510   2.395   8.592  1.7713 -0.7464 -2.1642
  226MOL0     H30478   8.734   2.363   8.567  2.8437 -0.2566 -1.2848
  226MOL0     H30479   8.667   2.408   8.404  0.0601 -2.6704  1.0224
  226MOL0     H30480   8.814   2.603   8.585 -0.6469  1.7136 -1.5472
  226MOL0     H30481   8.800   2.596   8.404  0.1035 -2.0058 -1.0716
  226MOL0     H30482   8.909   2.396   8.405 -4.3857 -0.2411  0.9642
  226MOL0     H30483   8.964   2.415   8.575 -0.4475 -0.8974 -0.1441
  226MOL0     H30484   9.146   2.495   8.406 -0.7171 -1.4713 -2.5081
  226MOL0     H30485   9.043   2.595   8.325  3.3018  1.3572 -0.3142
  226MOL0     H30486   9.016   2.739   8.544  0.1025  1.7022 -4.4546
  226MOL0     H30487   9.177   2.743   8.478  3.0332 -2.9543 -0.6291
  226MOL0     H30488   9.120   2.556   8.703  1.3000  1.8050  3.0024
  226MOL0     H30489   9.267   2.588   8.623 -0.9410 -3.5169 -0.6353
  226MOL0     H30490   8.288   2.370   8.267  0.8329  0.5366  1.8372
  226MOL0     H30491   8.051   2.403   8.219  1.6609 -1.0556 -3.9744
  226MOL0     H30492   7.660   2.616   7.961  0.5252  1.5772 -0.4259
  226MOL0     H30493   7.427   2.629   7.974 -0.2866  0.3999 -0.0680
  226MOL0     H30494   5.433   2.482   8.232  0.9905 -0.6851  2.6701
  226MOL0     H30495   5.224   2.391   8.320  1.7458  3.2951 -0.3152
  226MOL0     H30496   5.064   2.015   8.532  0.6827 -2.0872 -1.0113
  226MOL0     H30497   4.895   1.918   8.672 -0.9705 -0.3242 -0.4941
  226MOL0     H30498   4.731   1.856   8.792  1.4158  0.4846 -0.9307
  226MOL0     H30499   4.734   1.713   8.686  2.1507  0.5354  1.4086
  226MOL0     H30500   4.497   1.678   8.708  1.9323 -2.8663  0.8165
  226MOL0     H30501   4.477   1.809   8.817  0.4512  0.2811 -0.2748
  226MOL0     H30502   4.668   1.561   8.857  1.9713  1.7965  2.7232
  226MOL0     H30503   4.497   1.550   8.898  0.4587 -0.5122  3.0714
  226MOL0     H30504   4.532   1.739   9.052  0.7668 -0.1098  1.7932
  226MOL0     H30505   4.579   1.582   9.105  0.2699  0.1752  0.6262
  226MOL0     H30506   4.958   1.773   9.092 -1.1751  0.6366  3.6572
  226MOL0     H30507   4.597   2.010   8.388  0.2506 -0.3276 -0.5864
  226MOL0     H30508   4.792   2.217   8.176 -2.0345  2.6015  1.9400
  226MOL0     H30509   4.756   2.042   8.142 -3.1442  0.7354  0.1170
  226MOL0     H30510   4.637   2.139   8.209  0.4553  0.1547 -1.7663
  227MOL0     O30511   1.795  10.164   5.968  0.3970 -0.0542 -0.6666
  227MOL0     C30512   1.867  10.130   5.875 -0.0639  0.2684 -0.9388
  227MOL0     O30513   1.828  10.085   5.763  0.1620  0.5917  0.1409
  227MOL0     C30514   1.700  10.064   5.735  0.2873 -0.5297 -0.3584
  227MOL0     C30515   1.663   9.934   5.700 -1.0609  1.4804  0.0468
  227MOL0     C30516   1.527   9.906   5.672 -0.1675  0.1905  0.2884
  227MOL0     C30517   1.427  10.008   5.684  0.0422  0.5904 -0.0015
  227MOL0     O30518   1.294   9.999   5.658  0.0714  0.6611 -0.3291
  227MOL0     C30519   1.239   9.871   5.630 -0.3507 -0.3038  0.1966
  227MOL0     C30520   1.092   9.905   5.599  0.0950  0.2117  0.2613
  227MOL0     C30521   0.993   9.797   5.572  0.1265  0.2177 -0.1515
  227MOL0     C30522   0.839   9.844   5.569 -0.0171 -0.4822 -0.6646
  227MOL0     C30523   0.755   9.727   5.627  0.4329 -0.2530  1.1501
  227MOL0     C30524   0.772   9.600   5.540  0.3806 -0.2362 -0.7652
  227MOL0     C30525   0.640   9.525   5.515 -0.1374 -1.1972 -0.2732
  227MOL0     C30526   0.583   9.429   5.627 -0.0407 -0.6674  0.3606
  227MOL0     N30527   0.667   9.311   5.635 -0.8938 -0.1271  0.7378
  227MOL0     C30528   0.742   9.287   5.743 -0.4851 -0.3094 -0.4166
  227MOL0     C30529   0.772   9.155   5.742  0.6737 -0.3028 -1.3252
  227MOL0     C30530   0.822   9.068   5.854  0.2069 -0.3118  0.3605
  227MOL0     C30531   0.973   9.031   5.851 -1.0871 -0.2556 -0.2181
  227MOL0     C30532   1.059   9.145   5.822  0.2010 -0.6180 -1.1247
  227MOL0     C30533   1.195   9.104   5.867  0.2784  0.0759 -0.1328
  227MOL0     O30534   1.292   9.196   5.819  0.2826  0.0536  0.1665
  227MOL0     C30535   1.428   9.183   5.859  0.0418 -0.1828 -0.0927
  227MOL0     C30536   1.522   9.287   5.830  0.3215 -0.1816  0.6438
  227MOL0     C30537   1.659   9.266   5.862 -0.1471  0.5128 -1.0493
  227MOL0     C30538   1.703   9.138   5.901 -0.3307 -0.0757 -0.1122
  227MOL0     C30539   1.851   9.118   5.930 -0.3285 -1.0093 -0.0040
  227MOL0     O30540   1.901   8.995   5.923  0.3230 -0.2991  0.1202
  227MOL0     C30541   2.033   8.960   5.936  0.2405  0.7979 -0.2326
  227MOL0     C30542   2.051   8.826   5.957 -0.2934 -0.7392  0.2399
  227MOL0     C30543   2.183   8.779   5.977 -0.3378  0.5966 -0.7229
  227MOL0     C30544   2.292   8.860   5.994 -0.1579  0.4855 -1.2402
  227MOL0     O30545   2.420   8.799   6.035 -0.4481 -0.4125 -0.3453
  227MOL0     C30546   2.536   8.876   6.011 -0.1756  0.6329 -0.3949
  227MOL0     C30547   2.659   8.800   6.063  0.8565 -0.3384 -0.2368
  227MOL0     C30548   2.643   8.755   6.207  0.0631 -0.1237 -1.1275
  227MOL0     C30549   2.770   8.682   6.254  0.5640  0.0432 -0.9237
  227MOL0     C30550   2.786   8.687   6.415 -0.9821 -1.0751 -0.3287
  227MOL0     C30551   2.666   8.647   6.496  0.3559 -0.4167 -1.0303
  227MOL0     C30552   2.613   8.504   6.466  0.5270 -0.0399  0.3315
  227MOL0     C30553   2.526   8.438   6.584  0.1883  0.3475  0.3558
  227MOL0    Cl30554   2.615   8.463   6.739 -0.0004 -0.3055  0.7190
  227MOL0     C30555   2.275   8.996   5.965 -0.1798 -0.5624 -0.2366
  227MOL0     C30556   2.145   9.044   5.934  0.3406 -0.5527 -0.8170
  227MOL0     O30557   1.919   9.220   5.956 -0.2209  0.7229  0.9430
  227MOL0     C30558   1.610   9.038   5.933  0.2844 -0.3553  0.3896
  227MOL0     C30559   1.470   9.065   5.914 -0.1431  0.0092 -0.5699
  227MOL0     N30560   0.715   9.103   5.629 -0.1751  0.3481  0.4156
  227MOL0     N30561   0.646   9.193   5.570  0.9075  1.1945  0.7025
  227MOL0     C30562   1.469  10.138   5.730  0.5180 -0.2254  0.2625
  227MOL0     C30563   1.602  10.164   5.759 -0.4905  0.5009  0.1957
  227MOL0     C30564   2.015  10.135   5.899 -0.3369 -0.8190  0.2265
  227MOL0     C30565   2.092  10.214   5.811 -0.1170  0.7004 -0.8304
  227MOL0     C30566   2.226  10.241   5.822  0.9895 -0.6953 -0.4964
  227MOL0     C30567   2.292  10.204   5.943  0.1407 -0.5668 -0.3540
  227MOL0     O30568   2.422  10.224   5.960 -0.2002  0.0769 -0.1925
  227MOL0     C30569   2.509  10.291   5.867  0.1865 -0.4317  0.0953
  227MOL0     C30570   2.587  10.200   5.772 -0.3273 -0.9149  0.5260
  227MOL0     C30571   2.649  10.079   5.857  0.1144 -0.1390 -0.1343
  227MOL0     C30572   2.773  10.124   5.941 -1.2477  0.7926 -1.5488
  227MOL0     C30573   2.899  10.177   5.872  0.1255  0.1948  0.3032
  227MOL0     C30574   2.979  10.235   5.805  0.6596 -0.1146  0.8840
  227MOL0     C30575   2.218  10.122   6.028  0.4865  0.6449 -1.0250
  227MOL0     C30576   2.084  10.090   6.008 -0.6469  0.4082 -0.9153
  227MOL0     C30577   2.018  10.004   6.103  0.1152  0.2484  0.3179
  227MOL0     H30578   1.745   9.864   5.686 -1.6703  0.5605  0.9421
  227MOL0     H30579   1.504   9.807   5.633  0.2833  0.8185 -1.6934
  227MOL0     H30580   1.288   9.839   5.538  0.1150  0.3189  0.2189
  227MOL0     H30581   1.250   9.792   5.705 -1.4955 -1.0996 -0.4405
  227MOL0     H30582   1.094   9.977   5.517  0.4020 -1.6836 -1.4574
  227MOL0     H30583   1.054   9.957   5.687 -0.3403  0.2918  0.0283
  227MOL0     H30584   1.003   9.725   5.654 -1.9247 -2.1109 -1.7889
  227MOL0     H30585   1.011   9.742   5.479  0.3851 -0.6380  0.3969
  227MOL0     H30586   0.836   9.926   5.642 -2.0688 -1.8680  0.9468
  227MOL0     H30587   0.803   9.889   5.476 -0.1022 -1.7587 -1.2708
  227MOL0     H30588   0.784   9.694   5.727 -0.9634 -0.4139  1.5280
  227MOL0     H30589   0.650   9.758   5.621  0.0470 -1.6504 -0.2221
  227MOL0     H30590   0.812   9.630   5.442  0.8042  1.1472 -0.1880
  227MOL0     H30591   0.848   9.536   5.585 -0.1756 -1.5683 -1.6612
  227MOL0     H30592   0.651   9.461   5.427 -0.0065 -1.8870  0.2388
  227MOL0     H30593   0.555   9.589   5.489 -0.4855 -2.1733 -1.6898
  227MOL0     H30594   0.577   9.476   5.725 -0.4532 -1.5643  0.7784
  227MOL0     H30595   0.485   9.398   5.590 -0.4688  2.5127 -1.5626
  227MOL0     H30596   0.773   9.359   5.818  1.3816 -0.6086 -0.8382
  227MOL0     H30597   0.802   9.118   5.948  2.4301 -1.8766  1.7603
  227MOL0     H30598   0.761   8.978   5.863 -1.1030  0.5285  0.1009
  227MOL0     H30599   1.004   8.970   5.936 -0.9733  1.6154  1.1487
  227MOL0     H30600   0.990   8.960   5.770  1.8448 -0.8161  0.7920
  227MOL0     H30601   1.047   9.237   5.879  0.5445 -1.3978  0.2676
  227MOL0     H30602   1.052   9.166   5.715  0.3636  2.1668 -0.6573
  227MOL0     H30603   1.208   9.012   5.809  0.7591  0.2616 -0.3237
  227MOL0     H30604   1.206   9.082   5.974  1.0185  0.2778 -0.1633
  227MOL0     H30605   1.504   9.373   5.766  6.3431  0.1380 -1.2429
  227MOL0     H30606   1.738   9.336   5.839  1.0636 -0.7399 -0.8792
  227MOL0     H30607   1.970   8.754   5.955 -0.3282 -0.7339 -2.2764
  227MOL0     H30608   2.192   8.671   5.983 -2.2363 -0.0648 -5.5059
  227MOL0     H30609   2.547   8.906   5.907 -0.6959  2.9852  0.1808
  227MOL0     H30610   2.542   8.968   6.070 -0.0887 -1.5524  3.3130
  227MOL0     H30611   2.666   8.707   6.006 -0.1509 -2.1746  2.4513
  227MOL0     H30612   2.738   8.874   6.047 -0.7758  1.2091 -1.7360
  227MOL0     H30613   2.644   8.851   6.260 -1.6588 -0.6571 -0.0232
  227MOL0     H30614   2.551   8.700   6.227  1.6135 -3.2443 -2.0211
  227MOL0     H30615   2.856   8.729   6.205  0.4911 -0.1369 -1.2265
  227MOL0     H30616   2.771   8.580   6.214  0.6008 -0.1336 -0.4846
  227MOL0     H30617   2.812   8.787   6.450  0.0638 -1.3228 -0.3761
  227MOL0     H30618   2.871   8.623   6.442 -1.3881 -1.0134  1.2152
  227MOL0     H30619   2.714   8.649   6.594 -0.7525  1.5825 -0.4775
  227MOL0     H30620   2.598   8.732   6.482 -2.3417 -1.7476  2.6813
  227MOL0     H30621   2.693   8.430   6.465  0.6910  0.0984  1.7895
  227MOL0     H30622   2.555   8.503   6.373  0.9387  1.0333  0.0423
  227MOL0     H30623   2.429   8.489   6.595 -0.7695 -1.9299  4.2565
  227MOL0     H30624   2.505   8.333   6.565  1.5806  0.3930 -1.7396
  227MOL0     H30625   2.362   9.061   5.970  0.5984 -1.3929 -1.9694
  227MOL0     H30626   2.138   9.145   5.896  0.0847 -0.2412  0.0158
  227MOL0     H30627   1.646   8.949   5.985  0.6395 -1.5826 -1.8130
  227MOL0     H30628   1.396   8.985   5.922 -1.2535  1.0158 -0.4001
  227MOL0     H30629   1.392  10.213   5.742  1.1095  0.2431  1.2545
  227MOL0     H30630   1.633  10.265   5.783 -1.4052 -0.0457  4.3034
  227MOL0     H30631   2.040  10.235   5.718 -2.6696  0.2073  0.3987
  227MOL0     H30632   2.270  10.302   5.744  0.4979  1.2112  0.6543
  227MOL0     H30633   2.590  10.341   5.920 -0.1400 -0.8723  1.0252
  227MOL0     H30634   2.457  10.362   5.802 -2.5045 -3.5785 -1.5302
  227MOL0     H30635   2.659  10.266   5.722  1.3623 -1.8845  1.6035
  227MOL0     H30636   2.517  10.161   5.697  1.6745  1.0460 -2.5807
  227MOL0     H30637   2.669   9.995   5.790 -0.6624  1.3596 -2.3759
  227MOL0     H30638   2.576  10.048   5.932 -0.0061  2.4490  0.9143
  227MOL0     H30639   2.743  10.195   6.019  2.4179 -0.6005  1.4154
  227MOL0     H30640   2.805  10.033   5.993 -1.9084  0.8296 -1.0624
  227MOL0     H30641   3.049  10.290   5.745  0.5995 -0.5798  0.3754
  227MOL0     H30642   2.262  10.087   6.122 -1.4464  0.1800 -0.2405
  227MOL0     H30643   1.965  10.064   6.177  0.4675  0.9077  0.0470
  227MOL0     H30644   1.943   9.944   6.050 -0.3958 -0.3028  1.6316
  227MOL0     H30645   2.083   9.936   6.158  3.4564  0.3936 -3.0425
  228MOL0     O30646   4.804   4.982   2.087 -0.6446  0.5469 -0.4613
  228MOL0     C30647   4.745   4.987   1.988  0.5082 -0.5540 -0.3506
  228MOL0     O30648   4.772   5.071   1.889 -0.0115 -0.0058 -0.8664
  228MOL0     C30649   4.877   5.159   1.900  0.1902 -0.5566  0.6816
  228MOL0     C30650   4.878   5.260   2.007  0.4551  0.0873  0.5788
  228MOL0     C30651   4.998   5.331   2.033  0.5063 -0.8536  0.0096
  228MOL0     C30652   5.098   5.323   1.940 -1.2936 -0.3816  0.2350
  228MOL0     O30653   5.215   5.400   1.958  0.7395  0.9907  0.2104
  228MOL0     C30654   5.340   5.342   1.939  0.2477  0.5298 -1.1021
  228MOL0     C30655   5.448   5.443   1.969  0.2468  0.0936  0.0114
  228MOL0     C30656   5.592   5.407   1.947  0.0915 -0.4554  0.1280
  228MOL0     C30657   5.682   5.508   2.012 -0.6379  0.2846 -0.0173
  228MOL0     C30658   5.824   5.476   1.972  0.0986  0.4609  0.0122
  228MOL0     C30659   5.855   5.514   1.825  0.0425  0.7159  0.2202
  228MOL0     C30660   6.007   5.527   1.808  0.2682  0.3457 -0.3111
  228MOL0     C30661   6.079   5.635   1.891  1.2038  0.2917 -0.1289
  228MOL0     N30662   6.205   5.677   1.829 -0.8118  0.3415 -0.3411
  228MOL0     C30663   6.333   5.636   1.876  1.3303 -0.0056  0.1610
  228MOL0     C30664   6.425   5.695   1.800 -0.0197 -0.5889  0.3135
  228MOL0     C30665   6.575   5.682   1.802 -0.4919  0.2981 -0.1551
  228MOL0     C30666   6.643   5.790   1.878  0.6994 -0.3563 -0.3411
  228MOL0     C30667   6.782   5.753   1.912  0.0152 -0.5069 -0.4762
  228MOL0     C30668   6.870   5.774   1.788  0.4247  0.1476 -0.4481
  228MOL0     O30669   7.011   5.754   1.824  0.2417 -0.2815 -0.0147
  228MOL0     C30670   7.098   5.779   1.719 -0.0365 -0.5345  0.7431
  228MOL0     C30671   7.232   5.786   1.755  0.6313 -0.3171  0.1225
  228MOL0     C30672   7.333   5.814   1.669  0.4289 -0.6982  0.2132
  228MOL0     C30673   7.315   5.859   1.542  0.1501  0.0903  0.4538
  228MOL0     C30674   7.434   5.896   1.455  0.9410 -0.2923 -1.1979
  228MOL0     O30675   7.555   5.871   1.515  0.3552  0.4843 -0.2024
  228MOL0     C30676   7.659   5.912   1.439 -0.3870 -0.9291  0.2875
  228MOL0     C30677   7.738   5.829   1.352 -0.0447  0.1770  0.2531
  228MOL0     C30678   7.845   5.896   1.285 -0.1505  0.1759  0.7002
  228MOL0     C30679   7.883   6.029   1.299  0.2544  0.9419 -0.2340
  228MOL0     O30680   7.991   6.065   1.226 -0.4991 -0.0589  0.2094
  228MOL0     C30681   8.043   6.198   1.253 -0.8920  0.8649 -0.0463
  228MOL0     C30682   8.166   6.222   1.162 -0.3401  0.5428  0.0780
  228MOL0     C30683   8.239   6.347   1.186  0.1343 -0.3548  0.3227
  228MOL0     C30684   8.363   6.349   1.094 -0.0323  0.2289  0.5471
  228MOL0     C30685   8.451   6.472   1.098 -0.3530 -0.3183  0.4291
  228MOL0     C30686   8.574   6.459   1.006 -0.8477 -0.2941 -0.0293
  228MOL0     C30687   8.656   6.589   1.000 -0.3132 -0.4172 -0.3130
  228MOL0     C30688   8.780   6.576   0.900  0.2237 -1.1954 -0.5588
  228MOL0    Cl30689   8.862   6.732   0.894 -0.2178  0.0472  0.1257
  228MOL0     C30690   7.802   6.109   1.382 -0.2015 -0.6079  0.8633
  228MOL0     C30691   7.689   6.052   1.434  0.7952  0.0970  0.0176
  228MOL0     O30692   7.415   5.964   1.357 -0.9015 -0.3853 -0.1041
  228MOL0     C30693   7.183   5.849   1.491  0.1716 -0.9091  0.2133
  228MOL0     C30694   7.071   5.822   1.580  0.7080 -0.0594  0.1113
  228MOL0     N30695   6.360   5.783   1.711  0.8996  0.3615 -0.1928
  228MOL0     N30696   6.231   5.767   1.727  0.2344  0.8512 -0.1288
  228MOL0     C30697   5.095   5.246   1.819  1.5204 -0.2097 -0.3448
  228MOL0     C30698   4.982   5.165   1.802 -0.3854 -0.7886  0.0146
  228MOL0     C30699   4.623   4.901   1.965 -0.0503  0.3058 -0.2074
  228MOL0     C30700   4.548   4.928   1.848 -0.3834 -0.7156  0.0316
  228MOL0     C30701   4.427   4.858   1.821 -0.4039  0.1565 -0.4987
  228MOL0     C30702   4.389   4.751   1.900 -0.0026  0.1447 -0.8059
  228MOL0     O30703   4.292   4.673   1.851 -0.4074  0.0871  0.1819
  228MOL0     C30704   4.249   4.557   1.923 -0.0483 -0.4971 -0.5187
  228MOL0     C30705   4.126   4.505   1.843  0.7366  0.1871 -0.3548
  228MOL0     C30706   4.008   4.605   1.862 -0.0475 -0.4071  0.8696
  228MOL0     C30707   3.958   4.618   2.008 -0.7518  0.6340 -0.2214
  228MOL0     C30708   3.841   4.700   2.002  1.2086 -1.0266  0.4281
  228MOL0     C30709   3.749   4.782   1.987  0.8017 -0.0008 -0.1640
  228MOL0     C30710   4.467   4.724   2.021  1.0640 -0.1190 -0.5372
  228MOL0     C30711   4.581   4.804   2.056  0.5904  0.1816  0.5178
  228MOL0     C30712   4.658   4.750   2.175  0.2780  0.2322  0.5632
  228MOL0     H30713   4.796   5.270   2.077  0.2568 -2.2894  0.7792
  228MOL0     H30714   5.014   5.398   2.117 -3.7146 -1.3701  1.4884
  228MOL0     H30715   5.348   5.258   2.008 -0.2271  0.7125 -0.8277
  228MOL0     H30716   5.355   5.299   1.839  2.2459  1.9760 -1.4992
  228MOL0     H30717   5.447   5.474   2.074 -3.5170 -2.1500  0.8145
  228MOL0     H30718   5.415   5.525   1.905 -0.9590 -0.9407 -0.7407
  228MOL0     H30719   5.600   5.417   1.839  2.2994  1.3529  0.3795
  228MOL0     H30720   5.615   5.303   1.974 -1.1694 -0.6768  0.4328
  228MOL0     H30721   5.655   5.607   1.975  1.6325  0.7393 -0.6499
  228MOL0     H30722   5.664   5.479   2.116 -2.8433 -1.0485 -0.7111
  228MOL0     H30723   5.888   5.530   2.043  0.6215  2.6501 -1.9899
  228MOL0     H30724   5.836   5.369   1.990 -1.6058  0.1783 -0.3212
  228MOL0     H30725   5.822   5.428   1.766 -0.2691 -1.0972  2.8765
  228MOL0     H30726   5.805   5.609   1.804 -4.6767 -0.8642  2.9280
  228MOL0     H30727   6.005   5.553   1.702 -1.8160  0.5872 -0.2632
  228MOL0     H30728   6.054   5.429   1.821 -2.8105 -1.6869 -2.9409
  228MOL0     H30729   6.012   5.720   1.901  1.9941  0.8955  0.1786
  228MOL0     H30730   6.091   5.593   1.991  0.4770 -1.0229 -0.5663
  228MOL0     H30731   6.345   5.568   1.960 -0.6635  1.4355  1.7347
  228MOL0     H30732   6.615   5.587   1.839  2.0442  1.2443 -0.2935
  228MOL0     H30733   6.608   5.676   1.698  0.1819 -0.9455  0.1076
  228MOL0     H30734   6.637   5.886   1.825 -1.1191  0.4502  1.1962
  228MOL0     H30735   6.591   5.821   1.970 -0.3940 -0.8002 -0.7965
  228MOL0     H30736   6.780   5.654   1.958 -2.4117 -0.5468 -0.5817
  228MOL0     H30737   6.825   5.820   1.987 -2.3532  1.6729 -0.9327
  228MOL0     H30738   6.842   5.873   1.750  0.2144  0.0930 -0.4389
  228MOL0     H30739   6.835   5.701   1.715 -0.2410 -2.5321  2.3171
  228MOL0     H30740   7.255   5.764   1.859 -2.1550  2.0647  1.3713
  228MOL0     H30741   7.430   5.822   1.716 -0.0501  0.2384  1.0797
  228MOL0     H30742   7.744   5.721   1.340  3.2344  0.1488  1.0575
  228MOL0     H30743   7.905   5.839   1.215 -0.7867  2.7650 -2.1441
  228MOL0     H30744   7.968   6.276   1.237 -0.1540  1.8104  0.9567
  228MOL0     H30745   8.079   6.203   1.356  0.1728 -0.6288 -0.3083
  228MOL0     H30746   8.230   6.134   1.177 -2.0692 -0.8359 -0.2898
  228MOL0     H30747   8.142   6.225   1.056  0.7216 -0.1427 -0.2015
  228MOL0     H30748   8.174   6.433   1.167  2.0017  0.9454 -0.4866
  228MOL0     H30749   8.275   6.354   1.289  1.3781 -1.5071 -0.0100
  228MOL0     H30750   8.334   6.324   0.991 -1.1807 -2.9157  1.5069
  228MOL0     H30751   8.433   6.270   1.123  1.1509  0.6797 -0.9932
  228MOL0     H30752   8.486   6.502   1.197 -1.9408  1.4571  0.5102
  228MOL0     H30753   8.379   6.543   1.055  0.9833  1.1871  0.5907
  228MOL0     H30754   8.632   6.368   1.023 -0.1194  0.2940  0.7195
  228MOL0     H30755   8.546   6.442   0.901 -1.3115 -0.2499  0.0865
  228MOL0     H30756   8.686   6.627   1.098 -2.0618  0.3843 -0.0509
  228MOL0     H30757   8.598   6.670   0.954  2.4995  0.9552 -1.7444
  228MOL0     H30758   8.841   6.503   0.954  1.8509 -0.9591 -1.9775
  228MOL0     H30759   8.743   6.540   0.804  0.3426  0.2190 -1.1731
  228MOL0     H30760   7.815   6.216   1.394  4.0477 -1.0155  1.4794
  228MOL0     H30761   7.615   6.108   1.490 -1.6276 -1.1406 -1.7587
  228MOL0     H30762   7.169   5.860   1.384  1.1588  0.1759  0.1656
  228MOL0     H30763   6.965   5.820   1.559  0.7184  0.4726  0.0061
  228MOL0     H30764   5.163   5.245   1.735  1.0265  0.8545 -0.7855
  228MOL0     H30765   4.971   5.100   1.716 -1.0104  0.6257 -1.0295
  228MOL0     H30766   4.581   5.005   1.779 -0.3302 -1.6010 -0.9574
  228MOL0     H30767   4.368   4.877   1.731  0.5362  0.2360 -1.1136
  228MOL0     H30768   4.236   4.575   2.030  2.8132  2.3836 -0.5236
  228MOL0     H30769   4.326   4.482   1.905 -0.2867 -0.6480 -0.9160
  228MOL0     H30770   4.096   4.406   1.879  1.9751 -0.4406 -0.9859
  228MOL0     H30771   4.156   4.489   1.739 -0.9013  1.7439 -1.1222
  228MOL0     H30772   3.923   4.575   1.801 -0.0039  1.0321  0.0533
  228MOL0     H30773   4.027   4.708   1.829  0.4580  0.1001  2.6132
  228MOL0     H30774   3.923   4.522   2.047  1.6124 -0.3521 -0.3821
  228MOL0     H30775   4.030   4.650   2.084  2.0739 -0.0916 -2.4109
  228MOL0     H30776   3.662   4.845   1.975  0.5077 -0.5998 -1.2388
  228MOL0     H30777   4.440   4.636   2.078 -2.5740  1.8610  1.1516
  228MOL0     H30778   4.615   4.657   2.212 -1.1137 -0.0029 -1.4961
  228MOL0     H30779   4.759   4.720   2.144 -0.5184 -0.2210 -1.8263
  228MOL0     H30780   4.664   4.828   2.252 -1.1208 -0.0234  0.9537
  229MOL0     O30781   8.854   3.153   4.895 -0.7077  0.1242 -0.1733
  229MOL0     C30782   8.775   3.248   4.885 -0.2001 -0.2770 -0.2423
  229MOL0     O30783   8.773   3.341   4.784  0.2370 -0.5445 -0.1539
  229MOL0     C30784   8.820   3.315   4.659 -0.2015 -0.2628 -0.0518
  229MOL0     C30785   8.870   3.425   4.587  0.2453 -0.6951  0.0030
  229MOL0     C30786   8.923   3.413   4.456  0.2980  0.1622 -0.5026
  229MOL0     C30787   8.937   3.280   4.401  0.3684 -0.8160  0.6785
  229MOL0     O30788   8.977   3.246   4.272 -0.3506  0.1580  0.5568
  229MOL0     C30789   9.042   3.358   4.205 -0.2682  0.7033 -0.7043
  229MOL0     C30790   9.113   3.295   4.083 -0.2653  0.2536  0.1114
  229MOL0     C30791   9.161   3.407   3.989 -0.2475  0.3092  0.0424
  229MOL0     C30792   9.247   3.364   3.875  0.3560  0.5563  1.4386
  229MOL0     C30793   9.324   3.476   3.818 -1.0255  0.4118  0.1649
  229MOL0     C30794   9.384   3.434   3.690 -0.2778 -0.6339  0.3057
  229MOL0     C30795   9.470   3.534   3.606 -0.8604 -1.0225  0.8499
  229MOL0     C30796   9.601   3.559   3.675  0.7536  0.9991 -1.1495
  229MOL0     N30797   9.707   3.614   3.583  0.5383  0.1430 -0.6942
  229MOL0     C30798   9.785   3.540   3.489  0.2608 -0.6039 -0.1351
  229MOL0     C30799   9.882   3.616   3.446 -0.5415 -1.0949 -0.4712
  229MOL0     C30800   9.980   3.579   3.339 -0.2746 -0.2085  0.6420
  229MOL0     C30801  10.118   3.661   3.352 -0.9055 -0.7765 -0.1904
  229MOL0     C30802  10.201   3.653   3.225  0.3440  0.5611 -0.0567
  229MOL0     C30803  10.337   3.718   3.218 -0.8577 -0.3336  0.1556
  229MOL0     O30804  10.399   3.707   3.086 -0.0604  0.1724 -0.2814
  229MOL0     C30805  10.518   3.768   3.048  1.1328  0.2908  0.3510
  229MOL0     C30806  10.571   3.739   2.926 -0.7833 -0.3873  0.3859
  229MOL0     C30807  10.696   3.784   2.889 -0.7294 -0.4403  0.0169
  229MOL0     C30808  10.784   3.859   2.976 -0.0343 -0.2434 -0.1459
  229MOL0     C30809  10.926   3.887   2.958 -0.6793 -0.6607 -0.1232
  229MOL0     O30810  10.976   3.999   3.007  0.4695 -0.2467  0.2510
  229MOL0     C30811  11.106   4.027   3.014 -0.3607  0.5692 -0.0409
  229MOL0     C30812  11.146   4.144   2.956  0.0762  0.6763  0.4421
  229MOL0     C30813  11.280   4.193   2.970 -0.5906  0.6734 -0.1351
  229MOL0     C30814  11.370   4.124   3.046  0.5040  0.7405  0.0416
  229MOL0     O30815  11.494   4.172   3.053 -0.2164 -0.3137  0.4890
  229MOL0     C30816  11.601   4.086   3.098  0.1142 -0.6329 -0.3034
  229MOL0     C30817  11.724   4.126   3.021 -0.9108  0.7767  1.1804
  229MOL0     C30818  11.792   4.245   3.093  0.4007 -0.4375  0.1489
  229MOL0     C30819  11.885   4.319   2.995 -0.1867  0.6882 -0.9246
  229MOL0     C30820  11.955   4.435   3.066 -0.4251  1.2273 -0.3949
  229MOL0     C30821  12.068   4.497   2.976  1.0210 -0.2506 -0.6970
  229MOL0     C30822  12.171   4.404   2.908 -1.3911 -0.4353  0.3916
  229MOL0     C30823  12.299   4.483   2.874  1.8178  1.1803 -0.2441
  229MOL0    Cl30824  12.421   4.357   2.819  0.0132  0.1109 -0.2699
  229MOL0     C30825  11.330   4.008   3.119  0.5452  0.2147 -0.4253
  229MOL0     C30826  11.197   3.959   3.104  0.2464 -0.9690 -0.1942
  229MOL0     O30827  10.985   3.822   2.873 -0.2447  0.0096  0.2791
  229MOL0     C30828  10.723   3.894   3.093 -0.2221  0.2151  0.4393
  229MOL0     C30829  10.600   3.849   3.130  0.2330 -0.2540 -0.2842
  229MOL0     N30830   9.867   3.738   3.501 -0.6749 -0.8529  0.4014
  229MOL0     N30831   9.768   3.740   3.591  0.8726  0.5863  0.8391
  229MOL0     C30832   8.880   3.175   4.475  0.3662  0.1389 -0.4452
  229MOL0     C30833   8.820   3.192   4.603 -0.3405  0.5146 -0.0957
  229MOL0     C30834   8.667   3.244   4.978  0.5238 -0.3704 -0.2432
  229MOL0     C30835   8.656   3.344   5.083 -0.2852 -0.5712 -0.3913
  229MOL0     C30836   8.542   3.354   5.161  0.5553  1.3238  0.3016
  229MOL0     C30837   8.434   3.258   5.146  0.3326 -0.6527  0.7782
  229MOL0     O30838   8.308   3.269   5.200  0.6036  0.4544  0.9082
  229MOL0     C30839   8.267   3.390   5.266 -0.2162 -0.3033  0.2713
  229MOL0     C30840   8.256   3.505   5.160 -0.3847  0.7474 -0.9225
  229MOL0     C30841   8.176   3.474   5.023  0.1038 -0.0426  0.7587
  229MOL0     C30842   8.168   3.598   4.931 -0.0818  0.1634  0.0374
  229MOL0     C30843   8.088   3.568   4.810  0.4762 -0.9686 -0.0874
  229MOL0     C30844   8.021   3.528   4.719  0.9458 -0.3472 -0.6339
  229MOL0     C30845   8.458   3.150   5.059  0.1581  0.8839 -0.1481
  229MOL0     C30846   8.561   3.147   4.974  0.1624 -0.1586  0.1261
  229MOL0     C30847   8.554   3.041   4.876 -1.0745 -0.2665  0.0278
  229MOL0     H30848   8.845   3.521   4.632  3.5996 -0.3329  1.3803
  229MOL0     H30849   8.954   3.505   4.406  0.2749  2.3270  3.1184
  229MOL0     H30850   8.970   3.436   4.177 -1.5395 -0.4700 -0.8446
  229MOL0     H30851   9.125   3.392   4.267  0.5631 -1.6372 -0.4496
  229MOL0     H30852   9.046   3.230   4.027 -2.1651  1.3011  1.0456
  229MOL0     H30853   9.200   3.248   4.129 -1.7446 -1.7319  1.0336
  229MOL0     H30854   9.211   3.487   4.045 -0.3495 -0.4274  1.2128
  229MOL0     H30855   9.079   3.463   3.942  1.4997  0.0076 -3.7209
  229MOL0     H30856   9.305   3.277   3.905 -0.7153 -0.5740  0.3580
  229MOL0     H30857   9.191   3.318   3.793  1.1551  0.5800  0.8614
  229MOL0     H30858   9.251   3.552   3.789 -0.2041  0.4140 -2.1149
  229MOL0     H30859   9.404   3.512   3.883  0.5023  1.2099 -2.0556
  229MOL0     H30860   9.433   3.337   3.703 -1.2405 -1.0159  1.2582
  229MOL0     H30861   9.300   3.411   3.623  0.3969 -3.3417  0.2456
  229MOL0     H30862   9.424   3.634   3.600 -1.3052 -1.1863  1.4779
  229MOL0     H30863   9.481   3.493   3.505 -1.6894  0.0465  0.2927
  229MOL0     H30864   9.586   3.634   3.753  1.7648  2.4416 -2.2838
  229MOL0     H30865   9.636   3.459   3.702 -0.0725  0.5602 -1.6486
  229MOL0     H30866   9.782   3.434   3.467 -0.4925 -0.8435  1.0015
  229MOL0     H30867  10.004   3.473   3.344  2.1951  0.2575  0.0524
  229MOL0     H30868   9.936   3.606   3.243 -0.0383 -1.8240  0.0574
  229MOL0     H30869  10.090   3.766   3.368 -2.4266 -1.3580  1.3080
  229MOL0     H30870  10.179   3.623   3.434  0.2063  0.0411 -0.6129
  229MOL0     H30871  10.137   3.693   3.146 -1.0342  0.2094  0.8388
  229MOL0     H30872  10.216   3.548   3.198 -3.1373 -0.7494  2.3540
  229MOL0     H30873  10.407   3.684   3.294  2.4111  2.5325 -1.3053
  229MOL0     H30874  10.334   3.822   3.253  2.0103  0.0253 -0.4783
  229MOL0     H30875  10.510   3.678   2.860  1.9356 -3.5555  0.5174
  229MOL0     H30876  10.730   3.761   2.788  2.3452 -4.6746  1.7202
  229MOL0     H30877  11.084   4.188   2.879  0.4616 -0.6027 -0.6265
  229MOL0     H30878  11.300   4.277   2.905 -1.5418 -0.3153 -1.7702
  229MOL0     H30879  11.620   4.092   3.206  0.1304  1.4696 -0.3679
  229MOL0     H30880  11.577   3.984   3.067 -0.6862 -0.1613 -1.3071
  229MOL0     H30881  11.796   4.043   3.032 -2.1537 -0.1729  2.6311
  229MOL0     H30882  11.702   4.149   2.917  0.7895 -1.6424  0.1814
  229MOL0     H30883  11.721   4.320   3.129  0.6512 -0.8321  1.5504
  229MOL0     H30884  11.846   4.213   3.183  3.5566 -1.9787 -2.1286
  229MOL0     H30885  11.840   4.365   2.907  1.6216  1.6717 -1.3938
  229MOL0     H30886  11.967   4.257   2.958  0.2083 -0.4994  1.6799
  229MOL0     H30887  12.007   4.388   3.150 -1.5730 -1.7451 -1.2234
  229MOL0     H30888  11.895   4.520   3.100 -2.0375  0.7309 -1.8658
  229MOL0     H30889  12.014   4.542   2.892  1.5771 -2.2849 -2.2361
  229MOL0     H30890  12.112   4.574   3.039 -0.4801 -2.4205  3.3411
  229MOL0     H30891  12.124   4.368   2.816 -0.9213  2.2824 -1.0322
  229MOL0     H30892  12.193   4.323   2.978 -1.0684  1.6807  2.9222
  229MOL0     H30893  12.282   4.553   2.792  1.1662 -2.8968 -3.9481
  229MOL0     H30894  12.328   4.541   2.963  1.2714  2.2032 -0.7192
  229MOL0     H30895  11.400   3.983   3.197  0.5567 -1.0456 -0.8165
  229MOL0     H30896  11.157   3.876   3.162 -0.0124 -2.2529 -2.1083
  229MOL0     H30897  10.778   3.955   3.163  0.1963 -2.1361  2.2937
  229MOL0     H30898  10.554   3.869   3.226 -0.7639 -1.9623 -0.3755
  229MOL0     H30899   8.887   3.079   4.425 -1.4912 -0.6566  0.6952
  229MOL0     H30900   8.779   3.106   4.655  1.1035  0.9333  1.8625
  229MOL0     H30901   8.738   3.415   5.079 -0.1307 -0.7853 -1.7306
  229MOL0     H30902   8.524   3.424   5.242 -1.5307 -0.1246  1.2135
  229MOL0     H30903   8.319   3.413   5.360  0.5492  0.8702 -0.4056
  229MOL0     H30904   8.163   3.374   5.297 -0.8171  2.7797  0.1966
  229MOL0     H30905   8.356   3.545   5.143  1.4810 -1.6187  3.1660
  229MOL0     H30906   8.195   3.588   5.197 -0.5679  0.8464 -1.4335
  229MOL0     H30907   8.072   3.450   5.046 -0.4382  1.9599  0.6127
  229MOL0     H30908   8.240   3.400   4.973  1.9026 -0.2707  3.1950
  229MOL0     H30909   8.109   3.676   4.981  0.6081 -0.4391  1.8761
  229MOL0     H30910   8.269   3.633   4.910  0.6256  0.3972  3.2308
  229MOL0     H30911   7.942   3.510   4.649  1.0369  1.2386 -1.1927
  229MOL0     H30912   8.395   3.063   5.073  1.5116  0.4252  5.3559
  229MOL0     H30913   8.559   3.098   4.783 -0.0766 -0.9446 -0.3619
  229MOL0     H30914   8.644   2.978   4.884 -0.4605  0.6809  0.7661
  229MOL0     H30915   8.468   2.973   4.878 -0.6831 -0.7500  0.9000
  230MOL0     O30916   6.717   7.717   3.326  0.7827 -0.0104 -0.7903
  230MOL0     C30917   6.639   7.667   3.250  0.3522  1.1381 -0.5372
  230MOL0     O30918   6.670   7.604   3.137  0.5075  0.5344 -1.0020
  230MOL0     C30919   6.797   7.553   3.111  0.0200  0.6728 -0.4486
  230MOL0     C30920   6.836   7.548   2.980 -0.3054 -0.2733 -0.2917
  230MOL0     C30921   6.965   7.506   2.941  0.2446 -0.8770  0.9670
  230MOL0     C30922   7.053   7.464   3.041  0.2455 -0.2959 -0.3140
  230MOL0     O30923   7.175   7.406   3.008  0.1177 -0.1724  0.9546
  230MOL0     C30924   7.264   7.354   3.108  0.9731 -0.3437  0.1393
  230MOL0     C30925   7.402   7.335   3.061  0.7039  0.4867  1.1050
  230MOL0     C30926   7.480   7.455   3.029 -1.3548  0.1222 -0.2154
  230MOL0     C30927   7.622   7.428   2.974  0.5730  0.0925  0.4672
  230MOL0     C30928   7.694   7.562   2.965  0.5025 -0.5538 -0.7125
  230MOL0     C30929   7.835   7.549   2.928  0.5332 -0.3416  1.1837
  230MOL0     C30930   7.894   7.685   2.947 -0.7274  0.3819 -0.2148
  230MOL0     C30931   8.030   7.700   2.871 -0.3882 -0.6050  0.4138
  230MOL0     N30932   8.132   7.604   2.913  0.7300 -0.3625  0.6457
  230MOL0     C30933   8.219   7.642   3.005  0.2275 -0.3767  0.7889
  230MOL0     C30934   8.317   7.548   3.006 -0.7367  0.4576 -0.1479
  230MOL0     C30935   8.436   7.537   3.104 -0.4505  0.2631 -0.7325
  230MOL0     C30936   8.512   7.407   3.110 -0.2782  0.0014 -0.3388
  230MOL0     C30937   8.651   7.449   3.151 -0.0545  0.3525 -0.1504
  230MOL0     C30938   8.758   7.339   3.139 -0.3531 -0.1710  0.8441
  230MOL0     O30939   8.756   7.259   3.252  1.0019 -0.1650  0.3495
  230MOL0     C30940   8.873   7.204   3.284  0.4480  1.4171  0.0831
  230MOL0     C30941   8.884   7.168   3.419 -0.2227  0.3236 -0.5874
  230MOL0     C30942   9.002   7.111   3.468 -0.1504 -0.5315  0.3653
  230MOL0     C30943   9.107   7.063   3.382  0.1280  0.0011  0.2615
  230MOL0     C30944   9.227   6.996   3.428 -0.0346  0.0329  1.0065
  230MOL0     O30945   9.334   7.001   3.346 -0.5527 -0.2061  0.0561
  230MOL0     C30946   9.464   6.987   3.380  0.1108  0.0958 -0.3449
  230MOL0     C30947   9.508   6.898   3.481 -0.5081  0.1015 -0.1224
  230MOL0     C30948   9.639   6.872   3.506 -0.1986  0.5703  0.2988
  230MOL0     C30949   9.737   6.954   3.435  0.0773 -0.9463 -1.0063
  230MOL0     O30950   9.872   6.926   3.463 -0.5487 -0.0940 -0.0434
  230MOL0     C30951   9.975   7.024   3.431 -0.0437 -0.4553  0.1750
  230MOL0     C30952   9.977   7.148   3.528  0.3214 -0.3169  0.3697
  230MOL0     C30953  10.078   7.265   3.492  0.0315 -0.2780  0.2639
  230MOL0     C30954  10.081   7.367   3.609 -0.1691  0.4636  0.3778
  230MOL0     C30955  10.150   7.500   3.562  0.3060 -0.2033 -0.7726
  230MOL0     C30956  10.302   7.485   3.561 -0.4774  0.1789 -1.8096
  230MOL0     C30957  10.378   7.613   3.517 -0.7212  0.4837 -0.1706
  230MOL0     C30958  10.526   7.612   3.539 -1.0954 -0.9087 -0.1341
  230MOL0    Cl30959  10.562   7.610   3.725 -0.0296  0.2205 -0.2413
  230MOL0     C30960   9.693   7.047   3.345  0.4411 -0.6649 -0.5829
  230MOL0     C30961   9.559   7.060   3.310  1.6670  0.8469  0.2027
  230MOL0     O30962   9.225   6.954   3.541  0.4530  0.3382  0.1748
  230MOL0     C30963   9.090   7.102   3.244  0.6074  0.4311  0.4703
  230MOL0     C30964   8.982   7.180   3.198  0.4589  0.4486  0.3015
  230MOL0     N30965   8.278   7.456   2.908  0.0133 -0.5550 -0.2046
  230MOL0     N30966   8.166   7.489   2.853  0.3633  0.1500 -0.2715
  230MOL0     C30967   7.011   7.459   3.174  0.0060 -0.1166 -0.1914
  230MOL0     C30968   6.878   7.495   3.213 -0.3611  0.1359  0.0108
  230MOL0     C30969   6.493   7.666   3.278  0.8289  0.3402 -0.0037
  230MOL0     C30970   6.400   7.733   3.183 -0.0084 -0.0724 -1.0548
  230MOL0     C30971   6.266   7.721   3.217 -0.9228  0.4745  0.3465
  230MOL0     C30972   6.218   7.654   3.324  0.1198 -0.3781  0.3321
  230MOL0     O30973   6.079   7.645   3.328  0.0478 -0.1274 -0.2266
  230MOL0     C30974   6.026   7.581   3.453 -0.0713  0.5193 -0.3864
  230MOL0     C30975   5.871   7.553   3.435 -0.5693  0.1389 -0.5213
  230MOL0     C30976   5.792   7.687   3.398  0.1862  0.7172 -0.6458
  230MOL0     C30977   5.755   7.773   3.517  0.4886 -0.1171  0.6609
  230MOL0     C30978   5.687   7.701   3.627 -0.7294  0.2909  0.5829
  230MOL0     C30979   5.645   7.625   3.714 -0.3426  0.7406 -0.5480
  230MOL0     C30980   6.309   7.602   3.420 -0.4344  0.6573 -0.0169
  230MOL0     C30981   6.447   7.596   3.403 -0.8169 -1.5736  0.1932
  230MOL0     C30982   6.536   7.519   3.490 -0.4484 -0.8353 -0.5695
  230MOL0     H30983   6.774   7.586   2.900  0.3708  2.1129  0.2174
  230MOL0     H30984   6.982   7.504   2.833  2.1904 -1.2299  1.2449
  230MOL0     H30985   7.271   7.416   3.198  0.4749  1.0243 -0.7294
  230MOL0     H30986   7.224   7.257   3.137 -0.3838 -0.0057 -0.5441
  230MOL0     H30987   7.394   7.261   2.981 -1.8673  1.4396  0.3562
  230MOL0     H30988   7.458   7.285   3.140  2.0968 -0.6922 -0.5494
  230MOL0     H30989   7.477   7.517   3.118 -0.9361  0.1281 -0.2017
  230MOL0     H30990   7.422   7.503   2.950 -1.3361 -1.3947 -1.2078
  230MOL0     H30991   7.677   7.363   3.042  2.6575 -1.9066 -2.8388
  230MOL0     H30992   7.612   7.379   2.877  2.8993  2.5861 -1.1846
  230MOL0     H30993   7.648   7.635   2.898  0.5542 -1.7583 -2.0895
  230MOL0     H30994   7.693   7.607   3.065  1.9087  0.5026 -1.1341
  230MOL0     H30995   7.881   7.490   3.008  0.6359  2.7675  3.5806
  230MOL0     H30996   7.835   7.510   2.826 -0.5525 -0.0096  1.0383
  230MOL0     H30997   7.901   7.696   3.055  0.7357 -2.8940  0.1348
  230MOL0     H30998   7.831   7.768   2.912  0.2036  1.4258  0.5106
  230MOL0     H30999   8.015   7.690   2.764  1.2273  0.3165  0.0523
  230MOL0     H31000   8.065   7.804   2.875 -1.1376 -0.3638  3.2946
  230MOL0     H31001   8.216   7.735   3.062  3.1729 -0.7856  1.7729
  230MOL0     H31002   8.502   7.609   3.055  1.3401 -0.9324 -0.1793
  230MOL0     H31003   8.412   7.565   3.207  3.4525  0.5650  0.2484
  230MOL0     H31004   8.472   7.342   3.189  1.6355 -2.4789 -1.2576
  230MOL0     H31005   8.518   7.352   3.016 -0.5976 -1.4582  0.4617
  230MOL0     H31006   8.646   7.479   3.256 -0.5766  1.0783 -0.3700
  230MOL0     H31007   8.694   7.537   3.101 -0.4164  0.2384 -0.6681
  230MOL0     H31008   8.861   7.373   3.124  0.1080 -0.7746  2.3695
  230MOL0     H31009   8.719   7.279   3.057 -2.1953 -0.4275  1.8427
  230MOL0     H31010   8.804   7.186   3.490  1.1397  3.2120  0.3809
  230MOL0     H31011   8.995   7.084   3.573  0.6876 -0.6407  0.4001
  230MOL0     H31012   9.449   6.829   3.541  0.3263  1.8974  2.9745
  230MOL0     H31013   9.680   6.799   3.575 -1.4834  1.1690  1.7317
  230MOL0     H31014  10.067   6.969   3.448 -0.8911 -1.8102  0.5236
  230MOL0     H31015   9.993   7.054   3.327 -1.5261  0.7222  0.2258
  230MOL0     H31016   9.878   7.194   3.538  1.8587  2.6966  3.5600
  230MOL0     H31017   9.997   7.109   3.628  0.0447  2.3977  1.5616
  230MOL0     H31018  10.176   7.231   3.457  1.1498 -0.1617  3.0168
  230MOL0     H31019  10.041   7.315   3.402  1.0384  1.2512  0.6475
  230MOL0     H31020  10.138   7.322   3.691 -1.3403  0.9507  1.4702
  230MOL0     H31021   9.981   7.393   3.645 -0.2660 -1.5299  1.7398
  230MOL0     H31022  10.127   7.568   3.645 -0.3765 -0.6849 -0.5559
  230MOL0     H31023  10.101   7.535   3.471 -2.0858  0.1672  0.5655
  230MOL0     H31024  10.336   7.437   3.653 -0.2038 -0.2631 -2.1381
  230MOL0     H31025  10.327   7.407   3.489 -0.1369 -1.7759  0.3153
  230MOL0     H31026  10.329   7.696   3.569 -1.1428  1.4441 -1.9996
  230MOL0     H31027  10.371   7.621   3.408  2.0081 -1.6136 -0.5884
  230MOL0     H31028  10.564   7.516   3.502 -0.7546 -1.1885  0.8851
  230MOL0     H31029  10.578   7.695   3.491 -0.3447 -1.3430 -0.0875
  230MOL0     H31030   9.766   7.104   3.289  0.5043  1.8118  1.8275
  230MOL0     H31031   9.513   7.130   3.241  2.7676  0.3040 -1.1200
  230MOL0     H31032   9.163   7.060   3.176 -1.2134 -1.0663 -0.6625
  230MOL0     H31033   8.963   7.200   3.093  1.6164  0.5249  0.0956
  230MOL0     H31034   7.063   7.403   3.252 -0.2939  2.7318  2.2161
  230MOL0     H31035   6.836   7.479   3.312 -2.4006  2.2713 -0.4104
  230MOL0     H31036   6.435   7.784   3.094  0.1466 -1.2985 -1.7115
  230MOL0     H31037   6.198   7.759   3.141  1.2577  0.3356 -1.7910
  230MOL0     H31038   6.041   7.653   3.534  0.7288  1.6660 -1.4903
  230MOL0     H31039   6.082   7.489   3.471  0.2171  0.9275  0.9185
  230MOL0     H31040   5.825   7.502   3.520 -1.0125 -4.2169 -3.0577
  230MOL0     H31041   5.848   7.483   3.354 -1.4724  1.5135 -1.5011
  230MOL0     H31042   5.697   7.668   3.347  0.7228 -1.6903 -0.8887
  230MOL0     H31043   5.850   7.752   3.333  2.2544  2.4002  2.5907
  230MOL0     H31044   5.847   7.820   3.554  2.5109  0.7696 -4.6682
  230MOL0     H31045   5.697   7.856   3.478  1.3930  1.3216  2.2450
  230MOL0     H31046   5.617   7.572   3.802 -0.6612  1.2288 -0.3487
  230MOL0     H31047   6.283   7.542   3.506  2.5498  2.3782  2.2956
  230MOL0     H31048   6.591   7.447   3.430  2.1289  1.0303 -0.6278
  230MOL0     H31049   6.609   7.583   3.540  1.0645 -1.9807 -1.2363
  230MOL0     H31050   6.481   7.467   3.569 -1.6263  3.0917  1.4834
  231MOL0     O31051   4.117   5.493   9.542 -0.6568  0.7264 -0.0002
  231MOL0     C31052   4.184   5.478   9.439 -0.2161 -0.2047 -0.2580
  231MOL0     O31053   4.138   5.470   9.314  0.1653 -0.3924 -0.2715
  231MOL0     C31054   4.013   5.429   9.284  0.2291 -0.1903  0.7345
  231MOL0     C31055   3.962   5.491   9.170  0.9424 -0.8264  0.2529
  231MOL0     C31056   3.833   5.459   9.120  0.2809  0.2955 -0.3496
  231MOL0     C31057   3.764   5.354   9.179  0.8552  0.2515 -0.6381
  231MOL0     O31058   3.639   5.320   9.141 -0.2979  0.4129  0.3242
  231MOL0     C31059   3.566   5.407   9.060  0.0734  0.1424  0.3093
  231MOL0     C31060   3.419   5.363   9.040 -0.2207  0.8691  0.4255
  231MOL0     C31061   3.409   5.225   8.969 -0.1752 -0.1908  0.3319
  231MOL0     C31062   3.266   5.205   8.936  0.0202  0.3880  0.2685
  231MOL0     C31063   3.248   5.067   8.871  0.5222 -0.2258 -0.7056
  231MOL0     C31064   3.105   5.016   8.865 -0.6380  0.1800  0.0236
  231MOL0     C31065   3.092   4.861   8.844 -0.1596 -0.6146 -0.5193
  231MOL0     C31066   2.950   4.813   8.869  0.2534 -0.6866  0.4273
  231MOL0     N31067   2.929   4.665   8.880  0.2267 -0.6697  0.7597
  231MOL0     C31068   3.013   4.566   8.844  0.4201  0.6026 -1.0337
  231MOL0     C31069   2.936   4.457   8.861  0.0884  0.7427  0.0130
  231MOL0     C31070   2.983   4.321   8.814  1.2400  0.7813 -0.2073
  231MOL0     C31071   2.907   4.279   8.688 -0.0055 -1.4550  0.9537
  231MOL0     C31072   2.917   4.128   8.659  0.0257  0.2031 -0.6905
  231MOL0     C31073   3.056   4.081   8.604  0.7848 -0.0531 -0.1728
  231MOL0     O31074   3.107   4.180   8.514  0.0473 -0.0469  0.2414
  231MOL0     C31075   3.236   4.185   8.472 -0.3834 -0.3105  0.1668
  231MOL0     C31076   3.331   4.089   8.500 -0.5966  0.0287 -0.4376
  231MOL0     C31077   3.467   4.113   8.464  0.9249  1.0090  0.2242
  231MOL0     C31078   3.496   4.223   8.378 -0.5541  0.5171  0.3813
  231MOL0     C31079   3.631   4.231   8.323  0.8151 -0.7234  0.4545
  231MOL0     O31080   3.707   4.118   8.331  0.5429 -0.1180  0.4728
  231MOL0     C31081   3.834   4.125   8.281 -0.1943 -0.5052  0.6739
  231MOL0     C31082   3.861   4.145   8.144  0.0030 -0.1040 -0.0995
  231MOL0     C31083   3.991   4.146   8.095  0.6672 -0.4330 -0.6950
  231MOL0     C31084   4.098   4.126   8.184  1.1470  0.3243  0.9761
  231MOL0     O31085   4.223   4.129   8.141 -0.3436 -0.0335 -0.5086
  231MOL0     C31086   4.318   4.198   8.230  0.3271  0.2938  0.2656
  231MOL0     C31087   4.444   4.210   8.142 -0.3242 -0.1776 -0.1108
  231MOL0     C31088   4.548   4.279   8.233 -0.0479  0.7409 -0.5761
  231MOL0     C31089   4.692   4.225   8.202  0.5013 -0.0863 -0.1447
  231MOL0     C31090   4.793   4.305   8.293 -0.2788  0.6353  0.2036
  231MOL0     C31091   4.875   4.207   8.382 -0.0094  0.8307 -0.0732
  231MOL0     C31092   4.962   4.107   8.293  0.6113 -0.3033  0.9116
  231MOL0     C31093   5.117   4.121   8.311 -0.3992  0.3203  0.4809
  231MOL0    Cl31094   5.158   4.299   8.296 -0.1038 -0.5256  0.3169
  231MOL0     C31095   4.070   4.109   8.323  0.8015 -0.5201 -0.2521
  231MOL0     C31096   3.933   4.105   8.367 -1.2196  0.5564 -0.4858
  231MOL0     O31097   3.669   4.339   8.273 -0.4029  0.4601 -0.0310
  231MOL0     C31098   3.405   4.314   8.351 -0.2885  0.6237  0.8147
  231MOL0     C31099   3.277   4.294   8.405 -0.5200 -0.4481  0.1931
  231MOL0     N31100   2.817   4.492   8.915  0.4132 -0.4266  0.7585
  231MOL0     N31101   2.807   4.619   8.923 -0.1105 -0.1365 -0.2729
  231MOL0     C31102   3.820   5.279   9.283 -0.2468 -0.1890  0.1208
  231MOL0     C31103   3.937   5.319   9.337  0.3267  0.2921 -0.0738
  231MOL0     C31104   4.328   5.511   9.448  0.5360  0.3341  0.0241
  231MOL0     C31105   4.360   5.608   9.536  0.1292  0.2379 -0.1939
  231MOL0     C31106   4.496   5.647   9.541  0.8609 -0.3359  0.4388
  231MOL0     C31107   4.588   5.596   9.460 -0.1050 -0.5064  0.5186
  231MOL0     O31108   4.715   5.657   9.455  0.6948 -0.0413  0.0997
  231MOL0     C31109   4.801   5.676   9.569 -0.6820  0.5188  0.9544
  231MOL0     C31110   4.912   5.565   9.552 -0.5062 -0.2907  0.1636
  231MOL0     C31111   5.001   5.605   9.437  0.1795 -0.3118  0.2944
  231MOL0     C31112   5.118   5.508   9.418  0.5522 -0.4353  0.0886
  231MOL0     C31113   5.069   5.374   9.383  0.3940 -0.6809  0.8543
  231MOL0     C31114   4.999   5.278   9.366  0.5745 -0.2303 -0.6141
  231MOL0     C31115   4.562   5.490   9.382 -0.1840  1.1135  0.8070
  231MOL0     C31116   4.425   5.448   9.366  0.2200  0.3127  0.7689
  231MOL0     C31117   4.391   5.325   9.281  0.8484 -0.1729 -0.1015
  231MOL0     H31118   4.014   5.571   9.119  2.3768 -0.0261  2.8120
  231MOL0     H31119   3.805   5.520   9.034 -3.0080  0.5200  0.7621
  231MOL0     H31120   3.550   5.502   9.112  0.4093 -0.2691  1.1887
  231MOL0     H31121   3.611   5.425   8.962 -2.3423  1.8924 -0.5765
  231MOL0     H31122   3.364   5.437   8.982 -1.6692 -2.6939 -3.1787
  231MOL0     H31123   3.381   5.362   9.143  1.0566  2.1431  0.9457
  231MOL0     H31124   3.439   5.145   9.037 -1.1172 -0.4071  0.5107
  231MOL0     H31125   3.464   5.232   8.875  0.6471 -0.2757  0.8008
  231MOL0     H31126   3.208   5.215   9.028  2.8567  3.0694  1.9274
  231MOL0     H31127   3.251   5.285   8.863 -0.0392  0.5580  0.4691
  231MOL0     H31128   3.278   5.083   8.767 -5.0686 -0.3311 -2.6379
  231MOL0     H31129   3.312   4.993   8.921 -0.1831 -2.6120 -3.1333
  231MOL0     H31130   3.055   5.030   8.961 -0.5850  1.5160 -0.1216
  231MOL0     H31131   3.056   5.076   8.787 -0.9148  3.0084  2.2136
  231MOL0     H31132   3.165   4.815   8.911 -2.3518 -2.8552  0.4847
  231MOL0     H31133   3.136   4.830   8.749  2.8808 -2.2582  1.2620
  231MOL0     H31134   2.898   4.863   8.951  1.8615 -0.2080  1.1902
  231MOL0     H31135   2.891   4.839   8.780  2.0364  0.9424 -0.3522
  231MOL0     H31136   3.115   4.571   8.806  1.1186  2.7916  0.8411
  231MOL0     H31137   3.090   4.322   8.791  0.6285  1.9807 -3.4802
  231MOL0     H31138   2.961   4.248   8.892 -2.0907  1.3846 -0.4267
  231MOL0     H31139   2.799   4.289   8.704  0.3910  0.7725  2.7082
  231MOL0     H31140   2.942   4.355   8.618 -1.5522  0.4088  2.0820
  231MOL0     H31141   2.841   4.097   8.587  1.0848  0.3108 -1.8828
  231MOL0     H31142   2.917   4.064   8.748  0.0327  0.1439 -0.7318
  231MOL0     H31143   3.024   3.984   8.567 -0.8039  0.0744  0.7932
  231MOL0     H31144   3.134   4.063   8.678  0.4922  0.7366  0.3465
  231MOL0     H31145   3.296   3.997   8.546 -3.6489  0.3400 -1.8940
  231MOL0     H31146   3.545   4.040   8.485  0.0160 -0.0262  0.0772
  231MOL0     H31147   3.782   4.161   8.071  0.1048  1.4392  0.0868
  231MOL0     H31148   4.018   4.150   7.990  1.4907 -0.3521 -0.4873
  231MOL0     H31149   4.283   4.294   8.267  0.1723  0.3815 -0.1044
  231MOL0     H31150   4.354   4.128   8.306  3.3933  0.4401 -0.8784
  231MOL0     H31151   4.486   4.117   8.103  1.9448  0.9081 -0.4407
  231MOL0     H31152   4.433   4.274   8.054  1.6158 -0.1475 -0.3838
  231MOL0     H31153   4.534   4.387   8.224 -0.2262  1.1122  2.8420
  231MOL0     H31154   4.527   4.264   8.339 -0.5605  1.2120 -0.6033
  231MOL0     H31155   4.708   4.239   8.095 -0.9842  2.1455 -0.1504
  231MOL0     H31156   4.703   4.118   8.225 -1.1844  0.0206  1.3660
  231MOL0     H31157   4.748   4.381   8.356 -1.1082  0.2222  0.1270
  231MOL0     H31158   4.857   4.349   8.216 -1.2443 -0.3175 -1.2152
  231MOL0     H31159   4.942   4.251   8.457 -1.2827  0.2670  1.4444
  231MOL0     H31160   4.804   4.145   8.437  0.2202  0.5035 -0.1387
  231MOL0     H31161   4.947   4.133   8.188 -0.2515  2.5241  1.6494
  231MOL0     H31162   4.928   4.003   8.299  1.1363 -0.4743  0.9727
  231MOL0     H31163   5.146   4.088   8.411 -4.3604  1.3677  2.1701
  231MOL0     H31164   5.163   4.056   8.236 -2.6693  0.1751 -0.8817
  231MOL0     H31165   4.149   4.118   8.397  0.4520  2.5524 -0.1177
  231MOL0     H31166   3.905   4.094   8.471 -0.1800 -0.0474 -0.2489
  231MOL0     H31167   3.421   4.404   8.294  1.1433 -0.6996 -0.9672
  231MOL0     H31168   3.204   4.373   8.392  1.2731  1.0265 -1.5909
  231MOL0     H31169   3.764   5.197   9.327  1.7597 -0.2963  2.7191
  231MOL0     H31170   3.980   5.269   9.424  0.6168 -0.4513 -0.6361
  231MOL0     H31171   4.294   5.675   9.591  1.2116  1.6570 -0.5343
  231MOL0     H31172   4.524   5.732   9.603 -0.6412  1.7992 -1.6057
  231MOL0     H31173   4.743   5.655   9.660 -2.1661 -0.3441 -0.1379
  231MOL0     H31174   4.840   5.777   9.579  0.1607  0.1971  0.9467
  231MOL0     H31175   4.852   5.476   9.532  0.1541 -0.7583  0.2508
  231MOL0     H31176   4.963   5.557   9.648 -0.0830  1.3240  0.1094
  231MOL0     H31177   5.040   5.707   9.450 -0.8271  0.6972 -3.3064
  231MOL0     H31178   4.944   5.607   9.344 -2.2121 -1.1988  1.6557
  231MOL0     H31179   5.178   5.556   9.340  1.1183  0.0775  0.8269
  231MOL0     H31180   5.179   5.508   9.509 -1.8477 -0.7958  1.7972
  231MOL0     H31181   4.933   5.194   9.365 -0.5617  0.6318 -1.2329
  231MOL0     H31182   4.645   5.458   9.319 -0.3320  0.9002  0.7199
  231MOL0     H31183   4.399   5.234   9.341 -1.2444 -0.1209  0.3532
  231MOL0     H31184   4.294   5.326   9.230 -0.5729 -1.6088  2.3291
  231MOL0     H31185   4.467   5.318   9.203 -2.0028 -3.1883 -2.9144
  232MOL0     O31186   4.437   0.146  11.267 -0.4543 -0.9064  0.4718
  232MOL0     C31187   4.514   0.107  11.183 -0.4666  0.3868 -0.1822
  232MOL0     O31188   4.646   0.097  11.189  0.4098  0.4072  0.4010
  232MOL0     C31189   4.698   0.069  11.311  0.6861  0.6852  0.5420
  232MOL0     C31190   4.778  -0.041  11.302 -0.3525 -0.6474 -0.0349
  232MOL0     C31191   4.863  -0.067  11.414  0.1953 -1.4812  0.2452
  232MOL0     C31192   4.853   0.004  11.530  0.1508 -0.7400 -0.4935
  232MOL0     O31193   4.936  -0.039  11.633  0.6093 -0.3357  0.3833
  232MOL0     C31194   4.946   0.035  11.760  0.2527 -0.3785 -0.3056
  232MOL0     C31195   5.047  -0.037  11.856  0.2330 -0.6969  0.3176
  232MOL0     C31196   5.105   0.068  11.947  0.4208  0.2535  0.3610
  232MOL0     C31197   5.212   0.004  12.035  0.3478 -0.5864 -0.3008
  232MOL0     C31198   5.282   0.103  12.128 -0.3678 -0.1369 -0.5064
  232MOL0     C31199   5.430   0.099  12.116  0.7931  0.5159  0.0534
  232MOL0     C31200   5.520   0.200  12.195  0.6089  0.3769 -0.8236
  232MOL0     C31201   5.675   0.175  12.192  0.4054  0.6158  0.8524
  232MOL0     N31202   5.721   0.096  12.303  0.2169  0.0912  0.4229
  232MOL0     C31203   5.773   0.139  12.419 -0.5848 -0.0766  0.7643
  232MOL0     C31204   5.826   0.041  12.488 -0.0751  0.3023 -0.3707
  232MOL0     C31205   5.896   0.037  12.626 -0.3988  0.0461  0.0204
  232MOL0     C31206   5.977  -0.096  12.663  0.3242 -0.3395  0.0173
  232MOL0     C31207   5.879  -0.207  12.731  1.2587 -1.6916 -0.3545
  232MOL0     C31208   5.916  -0.342  12.682  0.9877  1.1680  0.0571
  232MOL0     O31209   6.047  -0.375  12.729 -0.0036 -0.2422 -0.1014
  232MOL0     C31210   6.072  -0.442  12.845 -0.1600 -0.3078 -0.0189
  232MOL0     C31211   6.198  -0.441  12.899 -1.4459 -0.7472 -0.0405
  232MOL0     C31212   6.228  -0.475  13.033 -0.3706 -0.0943  1.0917
  232MOL0     C31213   6.137  -0.530  13.119  0.2422  0.1927  0.8592
  232MOL0     C31214   6.173  -0.594  13.241  0.6091 -0.3839 -0.5377
  232MOL0     O31215   6.302  -0.579  13.285  0.9618 -0.2324  0.5600
  232MOL0     C31216   6.353  -0.666  13.381 -0.8780 -0.1466  0.3410
  232MOL0     C31217   6.464  -0.738  13.338  0.1731  0.2154 -0.1912
  232MOL0     C31218   6.525  -0.828  13.430 -0.4565  0.2590 -0.2635
  232MOL0     C31219   6.477  -0.841  13.563  0.2148  1.0473  0.6593
  232MOL0     O31220   6.542  -0.946  13.631  0.2790  0.1783 -0.7292
  232MOL0     C31221   6.451  -1.028  13.711  0.7484  0.2139 -0.3654
  232MOL0     C31222   6.514  -1.149  13.783 -0.1988 -0.2363  0.5287
  232MOL0     C31223   6.425  -1.205  13.889 -0.4434  0.3516 -0.2178
  232MOL0     C31224   6.430  -1.358  13.891  0.7528 -0.0342  0.8075
  232MOL0     C31225   6.331  -1.436  13.802  0.3107  0.0710  0.8079
  232MOL0     C31226   6.305  -1.373  13.667  0.3854  1.0774  0.3347
  232MOL0     C31227   6.213  -1.461  13.585  0.9552  0.2077  1.1030
  232MOL0     C31228   6.072  -1.471  13.626  0.3129  0.6732  0.1337
  232MOL0    Cl31229   5.987  -1.314  13.608 -0.5767 -0.0216 -0.6461
  232MOL0     C31230   6.356  -0.772  13.601  0.6127  0.7458  0.3121
  232MOL0     C31231   6.297  -0.684  13.506 -1.1192 -0.3959  0.2718
  232MOL0     O31232   6.086  -0.654  13.306  0.4135 -0.5480  0.7351
  232MOL0     C31233   6.008  -0.554  13.059  0.0716 -0.2381 -0.3625
  232MOL0     C31234   5.975  -0.506  12.928  0.3441  0.8087  0.3416
  232MOL0     N31235   5.791  -0.075  12.418 -0.0944 -0.2683 -0.4090
  232MOL0     N31236   5.727  -0.042  12.309 -0.1690 -0.0991  0.2215
  232MOL0     C31237   4.765   0.113  11.542 -0.4535 -0.7412 -0.2156
  232MOL0     C31238   4.691   0.146  11.426 -0.0936 -0.0792  0.1963
  232MOL0     C31239   4.444   0.063  11.055 -0.2995 -0.4142 -0.1858
  232MOL0     C31240   4.518   0.039  10.937 -0.6251  1.2369 -0.3355
  232MOL0     C31241   4.455   0.012  10.812  0.0459  0.7986  0.5581
  232MOL0     C31242   4.326   0.006  10.789  1.3764  0.5035 -0.5160
  232MOL0     O31243   4.275  -0.033  10.665 -0.1330  0.7184 -0.0038
  232MOL0     C31244   4.143  -0.087  10.652  0.4272 -0.2424  0.3478
  232MOL0     C31245   4.121  -0.114  10.504 -0.2660  0.4703 -0.2393
  232MOL0     C31246   4.117   0.012  10.409  0.1702 -0.6414 -0.0624
  232MOL0     C31247   4.191  -0.015  10.276  0.1633 -0.1934  0.1881
  232MOL0     C31248   4.199   0.108  10.192  0.6649 -0.4607 -0.5920
  232MOL0     C31249   4.178   0.206  10.123 -0.5249 -0.3280  0.2985
  232MOL0     C31250   4.243   0.040  10.902  0.9333 -0.6862  1.1667
  232MOL0     C31251   4.299   0.057  11.036  0.1800  0.2313 -0.2332
  232MOL0     C31252   4.196   0.066  11.151 -0.0647  0.3280 -0.6809
  232MOL0     H31253   4.797  -0.091  11.207  0.0159  0.9755 -0.8665
  232MOL0     H31254   4.947  -0.137  11.406  3.5880  2.2485  0.1917
  232MOL0     H31255   4.979   0.137  11.742 -0.6353  0.7276  3.4929
  232MOL0     H31256   4.846   0.035  11.802 -0.2546  1.8657 -1.3877
  232MOL0     H31257   5.121  -0.082  11.790  0.5600  0.7038 -0.3164
  232MOL0     H31258   4.994  -0.118  11.907  1.0612 -0.9268  0.8168
  232MOL0     H31259   5.039   0.147  11.984  1.4717  2.8408 -2.8583
  232MOL0     H31260   5.164   0.134  11.883 -0.0132 -0.0424 -0.3559
  232MOL0     H31261   5.165  -0.083  12.081 -1.1440 -1.0364 -2.5142
  232MOL0     H31262   5.272  -0.039  11.955 -0.0760 -0.5872 -0.6214
  232MOL0     H31263   5.252   0.202  12.092 -4.6927 -0.2814  1.9234
  232MOL0     H31264   5.238   0.107  12.229 -1.5407 -1.6722 -0.9042
  232MOL0     H31265   5.461  -0.003  12.140 -0.0444  0.0391 -0.8561
  232MOL0     H31266   5.450   0.107  12.009 -5.1987 -1.5128 -1.6048
  232MOL0     H31267   5.487   0.216  12.299  1.2467  3.8596 -1.0291
  232MOL0     H31268   5.495   0.297  12.152 -1.2522 -1.1018 -3.3239
  232MOL0     H31269   5.688   0.119  12.099 -2.7499 -0.2317  0.8080
  232MOL0     H31270   5.729   0.269  12.177 -1.0080  1.0042 -2.9896
  232MOL0     H31271   5.788   0.247  12.419 -5.4871  0.8609 -1.7157
  232MOL0     H31272   5.967   0.120  12.625  0.6522 -0.8028  0.9563
  232MOL0     H31273   5.825   0.060  12.705  0.5985 -1.1054  1.2969
  232MOL0     H31274   6.020  -0.130  12.569 -0.2551 -0.0125 -0.3718
  232MOL0     H31275   6.063  -0.076  12.727  0.5058  0.9530 -0.6094
  232MOL0     H31276   5.779  -0.176  12.702  1.5079  0.3229  0.7947
  232MOL0     H31277   5.876  -0.212  12.840 -1.2173 -0.2872 -0.2952
  232MOL0     H31278   5.909  -0.350  12.573 -0.3738 -1.5624  0.2782
  232MOL0     H31279   5.841  -0.408  12.727  1.9648 -2.3997 -2.9917
  232MOL0     H31280   6.272  -0.409  12.826 -1.2856  1.1831  0.9085
  232MOL0     H31281   6.332  -0.457  13.058 -0.2643  2.7034 -0.8736
  232MOL0     H31282   6.515  -0.722  13.244  0.5175 -0.5586 -0.1455
  232MOL0     H31283   6.611  -0.887  13.397 -0.7713 -0.8700  0.8508
  232MOL0     H31284   6.421  -0.959  13.790 -0.5076 -0.3663 -0.3177
  232MOL0     H31285   6.362  -1.051  13.653 -0.0856 -0.2028  1.0277
  232MOL0     H31286   6.550  -1.231  13.720  4.2721  1.5281  0.3823
  232MOL0     H31287   6.611  -1.118  13.824  0.9052 -0.6257 -1.6011
  232MOL0     H31288   6.457  -1.166  13.986 -0.0079  2.3677 -1.1370
  232MOL0     H31289   6.318  -1.182  13.891 -1.7073 -4.3205  0.0434
  232MOL0     H31290   6.402  -1.400  13.988  0.6777  0.3778  0.9647
  232MOL0     H31291   6.535  -1.386  13.874  1.2963  2.2049  0.2248
  232MOL0     H31292   6.237  -1.454  13.854 -0.4524  2.2854  0.3040
  232MOL0     H31293   6.383  -1.531  13.789  0.5000  0.2359  0.3059
  232MOL0     H31294   6.250  -1.280  13.684 -4.2727 -1.4336  0.5821
  232MOL0     H31295   6.398  -1.344  13.619 -1.0737  4.4207 -0.7691
  232MOL0     H31296   6.253  -1.563  13.593  2.1065  0.6372  0.9094
  232MOL0     H31297   6.220  -1.432  13.480  2.0534 -1.0480  0.7936
  232MOL0     H31298   6.021  -1.545  13.564  2.0599 -1.0929  0.7199
  232MOL0     H31299   6.072  -1.501  13.731  1.6418  3.8603  1.1801
  232MOL0     H31300   6.302  -0.790  13.693 -1.9656 -1.6249 -1.4792
  232MOL0     H31301   6.215  -0.624  13.545 -0.0509 -0.3767  2.6829
  232MOL0     H31302   5.933  -0.613  13.109 -0.9002  0.1523 -1.3082
  232MOL0     H31303   5.872  -0.520  12.898  0.5529  1.0525 -0.4924
  232MOL0     H31304   4.759   0.167  11.635 -4.9056  0.7242 -1.1175
  232MOL0     H31305   4.637   0.239  11.416  2.0945  1.2463  0.0806
  232MOL0     H31306   4.624   0.024  10.952 -0.5988  0.6392 -1.0821
  232MOL0     H31307   4.510  -0.014  10.722 -0.1192 -2.0382  1.1785
  232MOL0     H31308   4.059  -0.021  10.678 -2.3575 -2.3346 -2.5947
  232MOL0     H31309   4.132  -0.180  10.707 -1.4913  0.6103  1.5071
  232MOL0     H31310   4.022  -0.159  10.497  0.6965 -1.9277  0.4992
  232MOL0     H31311   4.194  -0.188  10.469  0.2640 -0.4565  2.5468
  232MOL0     H31312   4.162   0.095  10.463 -1.2698  1.1068 -1.4135
  232MOL0     H31313   4.011   0.033  10.395 -0.5398 -3.0484  1.0194
  232MOL0     H31314   4.285  -0.066  10.296 -0.8563 -2.3868 -0.3530
  232MOL0     H31315   4.129  -0.080  10.214  0.8121 -1.0077  0.3800
  232MOL0     H31316   4.166   0.281  10.047  0.7148 -0.8441 -0.4277
  232MOL0     H31317   4.136   0.038  10.883  1.2407 -2.2362 -0.6768
  232MOL0     H31318   4.219  -0.013  11.223 -0.9446 -0.9576 -1.7636
  232MOL0     H31319   4.201   0.167  11.192 -0.8293  0.7056 -1.4989
  232MOL0     H31320   4.095   0.052  11.113  0.0740 -1.1919 -0.5881
  233MOL0     O31321   8.014   3.597  11.261 -0.5775  0.3625  0.4403
  233MOL0     C31322   7.996   3.477  11.260 -0.6356 -0.6086 -0.6816
  233MOL0     O31323   8.094   3.391  11.292 -0.4707  0.6779 -0.2972
  233MOL0     C31324   8.210   3.441  11.328 -0.8328  0.2455 -0.6344
  233MOL0     C31325   8.321   3.440  11.245 -0.0791  0.7654 -0.1461
  233MOL0     C31326   8.446   3.490  11.287 -0.5866  0.7443 -0.6278
  233MOL0     C31327   8.470   3.525  11.420  0.4630  0.7813  0.8938
  233MOL0     O31328   8.601   3.545  11.447  0.5995  0.6735  0.2784
  233MOL0     C31329   8.638   3.584  11.580 -1.0352  0.3280  0.2907
  233MOL0     C31330   8.768   3.665  11.572  0.1836 -1.7390  0.3926
  233MOL0     C31331   8.893   3.584  11.554 -0.1159  0.1083  0.0752
  233MOL0     C31332   9.010   3.671  11.500  0.8642 -0.7315  0.1878
  233MOL0     C31333   9.139   3.591  11.479  0.0624  1.0292  0.1363
  233MOL0     C31334   9.190   3.510  11.587 -0.5105  0.5251  0.1170
  233MOL0     C31335   9.324   3.458  11.533 -1.0374 -0.0140  0.4125
  233MOL0     C31336   9.404   3.373  11.640 -0.4069  0.0613  0.1697
  233MOL0     N31337   9.529   3.306  11.583 -0.0359  0.4838  0.2770
  233MOL0     C31338   9.550   3.263  11.453 -0.7234  0.1376 -0.1455
  233MOL0     C31339   9.679   3.223  11.455 -1.2189 -0.2999 -0.0209
  233MOL0     C31340   9.743   3.146  11.343  0.8587  0.1264  0.0676
  233MOL0     C31341   9.887   3.125  11.354  0.0069 -0.5834 -0.8777
  233MOL0     C31342   9.918   2.973  11.374  0.3520 -1.2904 -1.1632
  233MOL0     C31343   9.897   2.871  11.261 -0.0527  0.1200  0.7618
  233MOL0     O31344   9.945   2.938  11.139 -0.3466  0.0521  0.0168
  233MOL0     C31345  10.071   2.914  11.077 -0.1432 -0.6713  0.2619
  233MOL0     C31346  10.181   2.868  11.154  0.0063  0.6003 -0.3810
  233MOL0     C31347  10.302   2.845  11.093 -0.5984  0.0292  0.0993
  233MOL0     C31348  10.329   2.865  10.957 -1.0486 -0.1370 -0.7487
  233MOL0     C31349  10.469   2.862  10.901  0.6639  0.4134 -0.1609
  233MOL0     O31350  10.483   2.934  10.781 -0.4519 -0.1234  0.1957
  233MOL0     C31351  10.601   2.948  10.711 -0.1760  0.3868 -0.8308
  233MOL0     C31352  10.725   2.878  10.723 -0.6207 -0.7682  0.1346
  233MOL0     C31353  10.840   2.895  10.656 -0.1920 -0.7731 -0.4062
  233MOL0     C31354  10.843   2.988  10.554  0.2875 -0.1196 -0.2704
  233MOL0     O31355  10.962   3.000  10.493  0.0113 -0.1831 -0.5754
  233MOL0     C31356  10.970   3.113  10.401 -0.4097  0.1045  0.5123
  233MOL0     C31357  11.085   3.099  10.303 -0.1081  0.0458 -0.6172
  233MOL0     C31358  11.092   3.216  10.202 -0.8447 -0.3174 -0.4800
  233MOL0     C31359  11.181   3.319  10.254 -0.7403  0.6482  0.3653
  233MOL0     C31360  11.193   3.441  10.166 -0.0619  0.4270  0.4238
  233MOL0     C31361  11.298   3.544  10.215 -0.1716 -0.0694 -0.5431
  233MOL0     C31362  11.436   3.477  10.217 -0.1103  0.0968  0.0300
  233MOL0     C31363  11.546   3.577  10.232 -0.1541 -0.1468  0.4205
  233MOL0    Cl31364  11.592   3.666  10.076  0.2727 -0.3053  0.0150
  233MOL0     C31365  10.724   3.068  10.540 -0.0292 -0.3160 -0.4313
  233MOL0     C31366  10.605   3.041  10.612 -0.5770 -0.3668 -0.3210
  233MOL0     O31367  10.552   2.801  10.965  0.4164  1.2509 -0.3226
  233MOL0     C31368  10.219   2.920  10.889  0.1991 -0.0681  0.7534
  233MOL0     C31369  10.095   2.952  10.945 -0.7300  0.7039 -0.8913
  233MOL0     N31370   9.729   3.232  11.587  0.0231 -0.0428  0.3128
  233MOL0     N31371   9.633   3.273  11.660 -0.4418 -0.4214 -0.0427
  233MOL0     C31372   8.352   3.538  11.502  0.1020 -0.1867 -0.1661
  233MOL0     C31373   8.221   3.502  11.454  1.2872 -0.1203 -0.3533
  233MOL0     C31374   7.856   3.437  11.256  0.0366 -0.1401 -0.6646
  233MOL0     C31375   7.833   3.304  11.304 -0.2704 -0.0175 -0.3344
  233MOL0     C31376   7.706   3.248  11.292  0.3777 -1.3021 -0.0001
  233MOL0     C31377   7.591   3.320  11.239 -0.1043  0.6112  0.5645
  233MOL0     O31378   7.466   3.275  11.214  0.2144 -1.0069  0.0824
  233MOL0     C31379   7.439   3.136  11.240 -0.2682  0.1150 -1.3918
  233MOL0     C31380   7.292   3.117  11.220  0.0435  0.7304  0.4175
  233MOL0     C31381   7.258   3.098  11.073  0.0350 -0.3345 -0.7493
  233MOL0     C31382   7.111   3.060  11.042 -0.1262  0.1558 -0.4090
  233MOL0     C31383   7.005   3.149  11.091 -0.2873  1.1684  1.2249
  233MOL0     C31384   6.914   3.215  11.124 -0.2330  1.4187  0.3553
  233MOL0     C31385   7.615   3.452  11.209 -0.5144  0.5640 -0.4684
  233MOL0     C31386   7.747   3.508  11.205  1.0885 -0.1403 -0.1067
  233MOL0     C31387   7.749   3.653  11.145  0.4152  0.3073  1.2113
  233MOL0     H31388   8.311   3.391  11.148 -1.1597 -0.3213  0.4852
  233MOL0     H31389   8.532   3.482  11.222 -0.1366 -0.0567  0.0424
  233MOL0     H31390   8.577   3.654  11.638  2.8201  0.1854  5.2086
  233MOL0     H31391   8.647   3.490  11.636 -0.3390 -0.2481 -0.7442
  233MOL0     H31392   8.770   3.726  11.663 -3.1420  0.6616 -0.9454
  233MOL0     H31393   8.762   3.746  11.500 -0.3341  1.0336  3.3103
  233MOL0     H31394   8.873   3.489  11.503 -2.3016 -1.0661  2.7686
  233MOL0     H31395   8.916   3.557  11.658  0.3409  1.9217  0.4666
  233MOL0     H31396   8.982   3.709  11.402  0.0826  0.0217  0.6970
  233MOL0     H31397   9.029   3.753  11.569 -1.1211 -0.1679  0.1260
  233MOL0     H31398   9.118   3.526  11.393  1.0707  1.4748 -0.4533
  233MOL0     H31399   9.219   3.657  11.445  0.0175  0.2099 -1.6632
  233MOL0     H31400   9.210   3.569  11.677  0.5475  2.3124 -1.2087
  233MOL0     H31401   9.115   3.431  11.599  2.6664 -3.3469 -2.7652
  233MOL0     H31402   9.393   3.535  11.496 -1.5194  0.1479 -0.1653
  233MOL0     H31403   9.300   3.391  11.450 -4.8034  0.9178  0.5751
  233MOL0     H31404   9.423   3.445  11.720  0.7262 -1.5770  1.4334
  233MOL0     H31405   9.342   3.292  11.678  2.4485 -3.3416 -1.8583
  233MOL0     H31406   9.476   3.271  11.373 -0.7124  1.6784 -0.0307
  233MOL0     H31407   9.677   3.059  11.337 -0.3107  1.0496 -0.9865
  233MOL0     H31408   9.717   3.198  11.251  3.4949  0.6006 -0.4923
  233MOL0     H31409   9.923   3.150  11.254 -0.0095 -2.5403 -1.4197
  233MOL0     H31410   9.934   3.187  11.430 -0.0907  0.3220 -1.5430
  233MOL0     H31411   9.861   2.938  11.460  2.4094  0.3427  0.9932
  233MOL0     H31412  10.024   2.970  11.400 -0.1362 -2.7344  0.9740
  233MOL0     H31413   9.789   2.852  11.253  0.2320 -1.3373  0.1843
  233MOL0     H31414   9.949   2.777  11.278 -1.1745 -0.4466  1.1758
  233MOL0     H31415  10.162   2.829  11.254  0.8386 -0.5884 -0.6779
  233MOL0     H31416  10.383   2.806  11.153  0.2723  2.5054  0.6417
  233MOL0     H31417  10.712   2.801  10.798 -1.2079 -3.8718 -2.9319
  233MOL0     H31418  10.934   2.841  10.656  0.4012  0.2336 -0.0375
  233MOL0     H31419  10.880   3.120  10.338 -0.9165 -1.0659  1.0824
  233MOL0     H31420  10.975   3.209  10.453 -3.6433  0.8590 -0.3425
  233MOL0     H31421  11.169   3.055  10.358 -2.0155 -1.7069  1.0416
  233MOL0     H31422  11.052   3.013  10.244  1.5836 -1.2968  0.3069
  233MOL0     H31423  11.125   3.181  10.104  2.6294 -1.4789  0.9512
  233MOL0     H31424  10.992   3.260  10.195 -0.4040  0.9817  0.8994
  233MOL0     H31425  11.279   3.272  10.257 -1.1232 -0.1713  0.2426
  233MOL0     H31426  11.156   3.354  10.354 -0.0279 -0.5769  0.9920
  233MOL0     H31427  11.094   3.484  10.149 -1.1638 -2.1785 -0.1953
  233MOL0     H31428  11.223   3.408  10.067  1.7893  0.2330  1.0097
  233MOL0     H31429  11.302   3.625  10.142  0.3389 -0.5522 -1.0555
  233MOL0     H31430  11.268   3.598  10.306 -1.0093 -0.6033 -0.4872
  233MOL0     H31431  11.453   3.412  10.130 -1.2417  1.7079 -1.4600
  233MOL0     H31432  11.444   3.417  10.308  1.7548  2.4669  1.5097
  233MOL0     H31433  11.523   3.658  10.302  0.6654 -0.0977  0.6397
  233MOL0     H31434  11.628   3.534  10.290 -0.1616  0.4040  0.8479
  233MOL0     H31435  10.715   3.146  10.465  0.7178  0.3403  0.1510
  233MOL0     H31436  10.514   3.100  10.609 -0.9133 -0.8183  0.7624
  233MOL0     H31437  10.239   2.944  10.785  2.4738  1.8953  1.5698
  233MOL0     H31438  10.013   2.987  10.884  0.4755 -0.3715 -3.2806
  233MOL0     H31439   8.368   3.545  11.609 -0.5100 -1.1758  0.0142
  233MOL0     H31440   8.136   3.511  11.521  1.9735  1.2537  0.3693
  233MOL0     H31441   7.913   3.245  11.348  1.6591  2.3242 -0.5224
  233MOL0     H31442   7.690   3.144  11.319 -0.3746 -1.8887 -2.4098
  233MOL0     H31443   7.466   3.115  11.344  0.8392  0.0862 -1.6744
  233MOL0     H31444   7.502   3.074  11.176  0.0032  0.8346 -1.8321
  233MOL0     H31445   7.235   3.203  11.255 -0.1545  1.2715 -1.1952
  233MOL0     H31446   7.267   3.028  11.279  0.4138  0.8276  0.7270
  233MOL0     H31447   7.321   3.014  11.041 -2.0758 -1.6274 -1.7158
  233MOL0     H31448   7.288   3.188  11.018 -0.6459  0.2936 -0.1168
  233MOL0     H31449   7.115   3.054  10.933 -0.4610  2.1380 -0.5633
  233MOL0     H31450   7.101   2.966  11.097 -2.9413  2.0111  2.6140
  233MOL0     H31451   6.834   3.281  11.152 -1.2363  0.2762  0.2541
  233MOL0     H31452   7.537   3.519  11.173 -2.4142 -1.9356 -1.2842
  233MOL0     H31453   7.815   3.654  11.058  1.2209 -1.4844  1.7435
  233MOL0     H31454   7.651   3.690  11.113  1.1240  1.4277  0.2383
  233MOL0     H31455   7.779   3.723  11.223 -3.7581  0.5908  2.8066
  234MOL0     O31456   7.860   0.871  10.705  0.4054 -0.6659 -0.1161
  234MOL0     C31457   7.943   0.784  10.714  0.0338 -0.0292 -0.4261
  234MOL0     O31458   7.911   0.661  10.737 -0.1265 -0.6787 -0.6237
  234MOL0     C31459   7.813   0.608  10.654  0.0103  0.8210  0.3921
  234MOL0     C31460   7.688   0.593  10.712 -0.1204  0.0781 -0.6005
  234MOL0     C31461   7.580   0.526  10.651  0.6182  0.4279 -0.2769
  234MOL0     C31462   7.598   0.477  10.518 -0.1001  0.8680 -0.1610
  234MOL0     O31463   7.496   0.414  10.450  0.6997 -0.0732 -0.5456
  234MOL0     C31464   7.525   0.340  10.329  0.7361 -0.0926 -0.4277
  234MOL0     C31465   7.405   0.252  10.299 -0.7746 -1.1536 -0.3998
  234MOL0     C31466   7.458   0.140  10.210 -0.4663 -0.9082 -0.7903
  234MOL0     C31467   7.345   0.054  10.142  0.0355  0.4187  0.5303
  234MOL0     C31468   7.387  -0.087  10.104  0.2691 -0.2022  0.2445
  234MOL0     C31469   7.276  -0.169  10.016  0.2766  0.0906  0.2030
  234MOL0     C31470   7.340  -0.297   9.963  0.4163  0.6356 -0.3394
  234MOL0     C31471   7.417  -0.263   9.827 -0.4629 -0.2362  0.6477
  234MOL0     N31472   7.489  -0.391   9.785 -0.3075  0.2209 -0.4631
  234MOL0     C31473   7.603  -0.446   9.853  0.8775 -0.2115 -0.7990
  234MOL0     C31474   7.620  -0.562   9.791 -0.6255 -0.0610 -0.2180
  234MOL0     C31475   7.728  -0.647   9.836 -1.2644 -0.1414  0.0991
  234MOL0     C31476   7.680  -0.769   9.906 -0.3953 -0.0093  0.3471
  234MOL0     C31477   7.752  -0.811  10.028 -0.0794 -0.1628  0.3533
  234MOL0     C31478   7.900  -0.838  10.004  0.2520 -0.1164 -0.2843
  234MOL0     O31479   7.950  -0.885  10.128 -0.2503 -0.2382 -0.3862
  234MOL0     C31480   8.081  -0.862  10.148 -0.3502 -0.3125 -0.5437
  234MOL0     C31481   8.126  -0.826  10.277  1.0265 -0.0523  0.3586
  234MOL0     C31482   8.267  -0.811  10.294 -0.1963 -0.4218 -0.3325
  234MOL0     C31483   8.361  -0.807  10.187 -0.2162 -0.9675 -0.1330
  234MOL0     C31484   8.501  -0.790  10.213  0.1264  0.3307 -0.5258
  234MOL0     O31485   8.524  -0.755  10.337 -0.9780  0.2505 -0.3614
  234MOL0     C31486   8.659  -0.746  10.366  0.4181  0.0929  0.5530
  234MOL0     C31487   8.739  -0.865  10.393  1.5129 -0.3336  0.5114
  234MOL0     C31488   8.872  -0.850  10.420 -0.3652  0.8719  0.1231
  234MOL0     C31489   8.934  -0.719  10.418  0.8480  0.3153 -0.2755
  234MOL0     O31490   9.066  -0.689  10.449 -0.4038 -0.2706 -0.2560
  234MOL0     C31491   9.156  -0.795  10.473  0.2125 -0.5999 -0.3401
  234MOL0     C31492   9.291  -0.739  10.511  0.6437 -0.0964  0.2397
  234MOL0     C31493   9.288  -0.702  10.654  0.7589  1.4484 -0.9829
  234MOL0     C31494   9.418  -0.638  10.701  0.3077  0.1726 -0.6022
  234MOL0     C31495   9.436  -0.490  10.669  0.9749  0.1352  0.0906
  234MOL0     C31496   9.583  -0.453  10.681  0.4357 -0.0066 -0.2842
  234MOL0     C31497   9.606  -0.421  10.831  0.5175  0.4368 -0.0301
  234MOL0     C31498   9.736  -0.359  10.858  0.8620  0.6715  1.0403
  234MOL0    Cl31499   9.748  -0.208  10.766  0.1802  0.4124  0.6171
  234MOL0     C31500   8.849  -0.605  10.393  0.3777  0.3688  0.6526
  234MOL0     C31501   8.714  -0.620  10.366  0.4799 -0.3054  0.2785
  234MOL0     O31502   8.584  -0.813  10.124  0.6027  0.4977 -0.0607
  234MOL0     C31503   8.305  -0.833  10.056  0.3835  0.3470 -0.9065
  234MOL0     C31504   8.174  -0.863  10.033  0.5799  1.1179 -0.0470
  234MOL0     N31505   7.535  -0.580   9.684 -0.0643 -0.5480  0.7136
  234MOL0     N31506   7.458  -0.477   9.685 -0.1893 -0.4026 -1.3465
  234MOL0     C31507   7.727   0.495  10.458  0.0265  0.2576 -0.6409
  234MOL0     C31508   7.833   0.561  10.528 -0.2008  1.1520  0.3119
  234MOL0     C31509   8.088   0.811  10.705 -0.6779  0.0154 -0.1980
  234MOL0     C31510   8.189   0.708  10.715 -0.1243 -0.1778  0.5246
  234MOL0     C31511   8.329   0.749  10.702  1.0789 -0.1989 -0.4636
  234MOL0     C31512   8.367   0.874  10.685  0.7570  1.1673 -0.7778
  234MOL0     O31513   8.499   0.912  10.683  0.3770  0.0265  0.1365
  234MOL0     C31514   8.548   0.927  10.550 -0.5487 -0.6579 -0.2566
  234MOL0     C31515   8.639   1.062  10.535  0.8851  0.7573 -0.0219
  234MOL0     C31516   8.559   1.194  10.550  0.0334 -0.0607 -0.2468
  234MOL0     C31517   8.649   1.310  10.554  0.0292 -0.0826 -0.1238
  234MOL0     C31518   8.730   1.323  10.433  0.4007  0.2847 -0.4214
  234MOL0     C31519   8.803   1.347  10.343 -0.5646 -0.1382  0.2632
  234MOL0     C31520   8.274   0.974  10.681  0.4302 -1.2039  1.2077
  234MOL0     C31521   8.131   0.949  10.688 -1.0735  0.6135 -0.0660
  234MOL0     C31522   8.038   1.072  10.669 -0.0391 -0.7538 -0.2379
  234MOL0     H31523   7.664   0.652  10.800 -0.1741  0.4113 -0.8379
  234MOL0     H31524   7.482   0.509  10.697  0.0549  0.6610 -1.3560
  234MOL0     H31525   7.547   0.408  10.246 -0.0237 -0.5388 -1.0078
  234MOL0     H31526   7.604   0.272  10.362  1.0075  1.4496  2.3586
  234MOL0     H31527   7.331   0.323  10.260  1.4638  1.0891 -0.7746
  234MOL0     H31528   7.369   0.209  10.393 -0.7265  1.5585  0.9742
  234MOL0     H31529   7.532   0.081  10.265 -1.7748 -0.2691  1.7567
  234MOL0     H31530   7.503   0.195  10.127 -2.6798  2.8660  0.2962
  234MOL0     H31531   7.257   0.060  10.207  1.2603  2.4181  2.0972
  234MOL0     H31532   7.310   0.111  10.055 -1.7232 -2.1208 -0.5578
  234MOL0     H31533   7.475  -0.081  10.040 -1.1000 -0.2916 -1.7248
  234MOL0     H31534   7.415  -0.144  10.194  0.0656  0.2696  0.6144
  234MOL0     H31535   7.183  -0.194  10.068 -0.1042  1.8453  0.4278
  234MOL0     H31536   7.229  -0.124   9.927 -0.8563 -1.9139 -0.2819
  234MOL0     H31537   7.260  -0.366   9.934  2.5958 -1.6211 -1.3136
  234MOL0     H31538   7.417  -0.342  10.026  0.5603 -0.1803 -1.0803
  234MOL0     H31539   7.339  -0.236   9.756  0.5162 -1.0903 -0.8009
  234MOL0     H31540   7.489  -0.180   9.826  1.3034 -1.4120 -4.7119
  234MOL0     H31541   7.656  -0.401   9.936  1.5743  1.5994 -2.1539
  234MOL0     H31542   7.785  -0.671   9.746 -0.6208  1.1126  0.1543
  234MOL0     H31543   7.791  -0.589   9.905 -2.2731 -2.1435  2.9041
  234MOL0     H31544   7.577  -0.748   9.938 -0.8880  2.2825 -2.3042
  234MOL0     H31545   7.666  -0.857   9.844  1.3424 -1.5132  1.9733
  234MOL0     H31546   7.701  -0.904  10.056 -0.4004  0.1741  0.9019
  234MOL0     H31547   7.740  -0.735  10.106 -1.4900 -0.3174  0.3088
  234MOL0     H31548   7.940  -0.738   9.983  0.3810  0.3038  1.7367
  234MOL0     H31549   7.912  -0.911   9.923 -1.7590 -0.4697 -0.3159
  234MOL0     H31550   8.064  -0.824  10.366 -0.6907  0.4857 -0.7916
  234MOL0     H31551   8.304  -0.790  10.393 -3.6673 -0.3233  1.0706
  234MOL0     H31552   8.680  -0.955  10.407  0.5651  0.7175  4.1540
  234MOL0     H31553   8.923  -0.941  10.452 -0.1892  0.7702 -0.4331
  234MOL0     H31554   9.121  -0.869  10.546 -4.4635 -2.5745 -4.0725
  234MOL0     H31555   9.165  -0.855  10.382  0.7332 -2.8095  1.0976
  234MOL0     H31556   9.369  -0.810  10.481  0.3842  0.0231 -0.7744
  234MOL0     H31557   9.324  -0.656  10.447  1.7606 -0.8964 -0.2581
  234MOL0     H31558   9.200  -0.640  10.669 -1.7410 -2.2247  1.3039
  234MOL0     H31559   9.269  -0.786  10.722 -0.6976  1.8031 -0.9292
  234MOL0     H31560   9.499  -0.692  10.651 -1.7136 -2.3599 -1.3167
  234MOL0     H31561   9.425  -0.652  10.810 -1.2622 -1.4715 -0.6666
  234MOL0     H31562   9.372  -0.422  10.726  1.8296 -0.5560  1.9705
  234MOL0     H31563   9.413  -0.478  10.562  0.0333  0.0875  0.2754
  234MOL0     H31564   9.649  -0.533  10.648  0.4646  0.2432 -0.8495
  234MOL0     H31565   9.615  -0.368  10.620  1.3940 -0.4863 -0.4495
  234MOL0     H31566   9.589  -0.510  10.892 -2.5183  1.8033  1.2778
  234MOL0     H31567   9.535  -0.350  10.873 -4.4354 -3.7847 -0.2771
  234MOL0     H31568   9.746  -0.340  10.965  1.2420  0.9756  0.9529
  234MOL0     H31569   9.812  -0.431  10.827 -0.8524 -0.6653 -0.2387
  234MOL0     H31570   8.887  -0.503  10.387 -2.3601  1.4031 -2.8608
  234MOL0     H31571   8.642  -0.541  10.346 -1.9275 -2.6247 -0.9104
  234MOL0     H31572   8.367  -0.838   9.967  1.5824  2.3490 -0.2465
  234MOL0     H31573   8.151  -0.897   9.932  2.2165  1.9063 -0.7406
  234MOL0     H31574   7.765   0.455  10.364  1.6909 -1.0262  0.5152
  234MOL0     H31575   7.932   0.567  10.484 -0.5643  2.0486 -0.4283
  234MOL0     H31576   8.169   0.602  10.712  0.6661 -0.4722 -5.5105
  234MOL0     H31577   8.400   0.667  10.695  2.3257  0.8026  0.1297
  234MOL0     H31578   8.466   0.924  10.477 -1.5655  2.7907  0.5638
  234MOL0     H31579   8.617   0.843  10.539  0.2148  0.0479 -1.1176
  234MOL0     H31580   8.683   1.068  10.435 -0.2947  0.4551 -0.5784
  234MOL0     H31581   8.710   1.055  10.617 -0.7502 -0.6908  1.3456
  234MOL0     H31582   8.506   1.188  10.645 -0.3922  2.3577 -0.2646
  234MOL0     H31583   8.484   1.198  10.471 -0.9461 -1.5643  0.5873
  234MOL0     H31584   8.594   1.405  10.551 -2.5487 -1.4379  0.9127
  234MOL0     H31585   8.701   1.311  10.650 -0.7964  0.3241  0.3376
  234MOL0     H31586   8.855   1.380  10.255  1.6736 -0.9221  1.2156
  234MOL0     H31587   8.301   1.078  10.668  1.2600 -1.5882 -0.4590
  234MOL0     H31588   8.090   1.164  10.642  2.2489 -1.7802  0.3822
  234MOL0     H31589   7.963   1.067  10.589 -0.7133  0.2178  0.3145
  234MOL0     H31590   7.975   1.090  10.756  0.7439 -0.7019  0.3291
  235MOL0     O31591  10.697   8.857   0.021 -0.0419  0.7005  0.0204
  235MOL0     C31592  10.692   8.946   0.110 -0.0329 -0.5855  0.4915
  235MOL0     O31593  10.800   8.974   0.197 -0.3225 -0.0301  0.0812
  235MOL0     C31594  10.919   8.905   0.175  0.0735 -0.9992  0.5236
  235MOL0     C31595  10.949   8.799   0.253 -0.6442  0.0416  0.8626
  235MOL0     C31596  11.069   8.734   0.240 -0.3556 -0.6219  0.3025
  235MOL0     C31597  11.165   8.780   0.139  0.3924 -0.2730  0.1775
  235MOL0     O31598  11.281   8.703   0.138 -0.3180  0.8464  0.3521
  235MOL0     C31599  11.398   8.762   0.088 -0.1639  0.0637 -0.2332
  235MOL0     C31600  11.520   8.706   0.152 -1.6932 -0.6618 -0.8114
  235MOL0     C31601  11.652   8.790   0.127  0.1955  0.2481  0.5899
  235MOL0     C31602  11.771   8.700   0.183 -0.3503 -0.0784  0.6880
  235MOL0     C31603  11.898   8.784   0.192 -0.0899  0.4648 -0.1484
  235MOL0     C31604  11.967   8.812   0.057 -0.8240  0.0252  0.3174
  235MOL0     C31605  12.085   8.912   0.079  0.5137 -0.9571  0.3102
  235MOL0     C31606  12.203   8.838   0.141 -0.3130  0.0079 -0.0156
  235MOL0     N31607  12.333   8.889   0.095 -0.5803 -1.1722 -0.2048
  235MOL0     C31608  12.405   8.978   0.168 -0.4385 -0.4357  1.0157
  235MOL0     C31609  12.508   9.012   0.092 -0.9088 -0.0329  0.1560
  235MOL0     C31610  12.624   9.109   0.128  0.2193 -0.5573 -0.4507
  235MOL0     C31611  12.673   9.079   0.281  0.2698  0.5140 -0.1640
  235MOL0     C31612  12.810   9.149   0.295 -0.1293  0.2902 -0.5651
  235MOL0     C31613  12.856   9.137   0.440  0.6140 -0.4012 -0.7941
  235MOL0     O31614  12.759   9.206   0.524 -0.3619 -0.2589  0.7421
  235MOL0     C31615  12.769   9.197   0.661 -0.1364  0.8595 -0.4922
  235MOL0     C31616  12.665   9.253   0.732  0.1317 -0.0659  0.3311
  235MOL0     C31617  12.653   9.245   0.864 -0.2397  0.7489 -0.5373
  235MOL0     C31618  12.742   9.167   0.934 -0.5865 -0.1887 -0.7657
  235MOL0     C31619  12.726   9.137   1.078 -0.2678 -0.9776 -0.9091
  235MOL0     O31620  12.643   9.226   1.144 -0.0525 -0.3886 -0.2797
  235MOL0     C31621  12.604   9.186   1.266  0.5101  0.2534 -0.7440
  235MOL0     C31622  12.672   9.217   1.387  0.4076  0.1809 -0.8281
  235MOL0     C31623  12.615   9.179   1.502  0.3677  0.7578  0.2491
  235MOL0     C31624  12.502   9.093   1.506 -0.5550  0.0486  0.1646
  235MOL0     O31625  12.435   9.046   1.620 -0.4705 -0.1626  0.6604
  235MOL0     C31626  12.452   9.121   1.740  0.1974  0.0636  0.9114
  235MOL0     C31627  12.354   9.074   1.855 -0.3723  0.8591 -0.2202
  235MOL0     C31628  12.205   9.067   1.807 -0.1243  0.9554 -0.2281
  235MOL0     C31629  12.104   9.017   1.901  0.3496 -0.3700  0.4131
  235MOL0     C31630  11.975   8.979   1.843  0.7324 -0.2060  0.1304
  235MOL0     C31631  11.871   8.965   1.958  0.1564  0.1857 -0.8843
  235MOL0     C31632  11.735   8.901   1.922 -0.2551  0.7540 -0.7439
  235MOL0     C31633  11.626   8.944   2.020  0.4978  0.4007 -0.4453
  235MOL0    Cl31634  11.594   9.106   2.033  0.3263 -0.2518 -0.0216
  235MOL0     C31635  12.436   9.067   1.388  0.4989  0.1750 -0.7833
  235MOL0     C31636  12.486   9.112   1.266 -0.5705 -0.4956  0.2223
  235MOL0     O31637  12.788   9.036   1.125  0.2521  0.1948  0.0198
  235MOL0     C31638  12.854   9.115   0.866 -0.5359 -0.1294 -0.6463
  235MOL0     C31639  12.865   9.128   0.732  0.0048  0.3356 -0.6679
  235MOL0     N31640  12.501   8.953  -0.033 -0.9473 -0.5106 -0.7764
  235MOL0     N31641  12.397   8.886  -0.027  0.6665  0.0342  0.1663
  235MOL0     C31642  11.141   8.906   0.073 -0.5673  0.4775 -0.6540
  235MOL0     C31643  11.016   8.962   0.094 -0.5401 -0.2403  0.2029
  235MOL0     C31644  10.566   9.037   0.115  0.0590 -0.2271  1.1318
  235MOL0     C31645  10.543   9.121   0.220  0.3704  0.3681  0.4703
  235MOL0     C31646  10.428   9.170   0.262  0.9324  1.1534  0.1506
  235MOL0     C31647  10.315   9.136   0.192 -0.8015  0.2675  0.3251
  235MOL0     O31648  10.195   9.189   0.219 -0.1323 -0.1867 -0.1170
  235MOL0     C31649  10.168   9.248   0.346  0.1382  0.0278 -0.2834
  235MOL0     C31650  10.010   9.237   0.378  0.0184 -0.1859 -0.6669
  235MOL0     C31651   9.972   9.097   0.421  0.7183 -0.0115 -0.7464
  235MOL0     C31652   9.831   9.082   0.480 -0.3792  0.8800  0.2056
  235MOL0     C31653   9.722   9.097   0.388  0.1808  0.5864 -0.0070
  235MOL0     C31654   9.636   9.112   0.309  0.3795 -0.3104  0.6618
  235MOL0     C31655  10.326   9.060   0.071  0.1515  0.8790 -0.3065
  235MOL0     C31656  10.454   9.012   0.031  0.1863 -0.5314 -0.5445
  235MOL0     C31657  10.466   8.957  -0.109  0.5180 -0.3718  0.8176
  235MOL0     H31658  10.875   8.760   0.321 -0.1835 -1.8909  0.3353
  235MOL0     H31659  11.097   8.647   0.299  1.6999  0.6513  1.2979
  235MOL0     H31660  11.413   8.754  -0.020 -1.5571 -1.2329 -0.3683
  235MOL0     H31661  11.404   8.867   0.116  3.2828 -0.4885  1.6737
  235MOL0     H31662  11.552   8.612   0.106  2.7227  0.4939 -0.6324
  235MOL0     H31663  11.516   8.683   0.259  1.6451  2.3811  0.1949
  235MOL0     H31664  11.665   8.888   0.175  0.6781 -0.7519  2.5841
  235MOL0     H31665  11.666   8.804   0.019  0.9009 -0.4442  0.5903
  235MOL0     H31666  11.744   8.667   0.283  0.8722 -3.1352  0.1177
  235MOL0     H31667  11.787   8.609   0.125  2.6091 -0.2016  1.5279
  235MOL0     H31668  11.876   8.869   0.257  0.4123  0.3747  0.1426
  235MOL0     H31669  11.969   8.731   0.256 -0.6665  1.7795  1.6505
  235MOL0     H31670  12.009   8.720   0.014  1.0335  0.3152  1.3998
  235MOL0     H31671  11.892   8.859  -0.006 -1.4597  0.7909  1.6115
  235MOL0     H31672  12.057   8.992   0.148 -0.9839 -2.5330  1.5888
  235MOL0     H31673  12.121   8.962  -0.012  1.9348  0.0960  1.4024
  235MOL0     H31674  12.194   8.832   0.250  0.2250  1.9432  0.1689
  235MOL0     H31675  12.204   8.742   0.089  0.6435  1.4410 -2.8372
  235MOL0     H31676  12.392   9.014   0.270  2.6634  3.8431  0.2186
  235MOL0     H31677  12.707   9.105   0.057 -1.0708  2.1457 -2.2807
  235MOL0     H31678  12.570   9.204   0.126  0.4442 -0.1800  3.4257
  235MOL0     H31679  12.602   9.123   0.352 -1.5025 -3.2278  0.6244
  235MOL0     H31680  12.676   8.970   0.295  0.8972  0.2728 -1.8686
  235MOL0     H31681  12.804   9.250   0.255  0.3549  0.3272 -0.5456
  235MOL0     H31682  12.878   9.093   0.230 -1.4112  1.0658 -2.6756
  235MOL0     H31683  12.957   9.176   0.453 -1.3723  5.0015  1.3964
  235MOL0     H31684  12.870   9.032   0.464 -0.4739 -1.0052 -2.5586
  235MOL0     H31685  12.597   9.317   0.677  1.8423  1.9496  0.4205
  235MOL0     H31686  12.565   9.293   0.905  0.8691  2.0946  0.3483
  235MOL0     H31687  12.768   9.267   1.394 -1.2662  3.5045  0.5503
  235MOL0     H31688  12.667   9.191   1.596  1.4156 -1.8566  0.1034
  235MOL0     H31689  12.555   9.117   1.777 -0.1664  0.9331  2.0933
  235MOL0     H31690  12.435   9.227   1.720 -0.0201  0.1773  1.6628
  235MOL0     H31691  12.382   8.973   1.885  1.6449  2.4014  3.8531
  235MOL0     H31692  12.351   9.134   1.946 -4.0861  1.1247 -0.3713
  235MOL0     H31693  12.178   9.165   1.766 -1.6494  1.0103  0.7926
  235MOL0     H31694  12.195   8.997   1.724  0.5023 -1.6871  1.7715
  235MOL0     H31695  12.086   9.092   1.979 -0.1228  3.0663 -2.7686
  235MOL0     H31696  12.147   8.927   1.947  0.2936  0.0958  1.4173
  235MOL0     H31697  11.982   8.883   1.793  0.0083 -1.2299  1.8944
  235MOL0     H31698  11.948   9.059   1.773  2.2679 -0.1136 -0.3930
  235MOL0     H31699  11.912   8.900   2.037  0.4149 -0.6161 -1.6535
  235MOL0     H31700  11.865   9.072   1.979 -3.4019  0.0665 -0.7871
  235MOL0     H31701  11.742   8.792   1.927 -0.2355  0.8137  1.3128
  235MOL0     H31702  11.702   8.928   1.821  2.3103  2.0656 -1.2941
  235MOL0     H31703  11.530   8.892   2.012  0.5211  0.5438 -1.9760
  235MOL0     H31704  11.661   8.918   2.120 -0.4206  0.2438 -0.1551
  235MOL0     H31705  12.357   8.993   1.399  0.5408  0.5012  3.4724
  235MOL0     H31706  12.436   9.098   1.170  0.0118  0.7068 -0.2876
  235MOL0     H31707  12.927   9.053   0.918 -1.1549 -1.2841 -1.1304
  235MOL0     H31708  12.940   9.070   0.680 -0.7339 -0.9341 -0.3616
  235MOL0     H31709  11.207   8.963   0.008 -2.1053  2.7891 -0.3194
  235MOL0     H31710  10.984   9.053   0.044 -3.5293 -2.0281 -1.3919
  235MOL0     H31711  10.629   9.141   0.283  0.5051 -0.2945  0.5010
  235MOL0     H31712  10.433   9.232   0.351  2.2998 -2.5702  2.8987
  235MOL0     H31713  10.198   9.353   0.345 -3.4556  1.3423  3.4128
  235MOL0     H31714  10.230   9.204   0.425  1.2148  0.8307 -0.6441
  235MOL0     H31715   9.949   9.268   0.293  1.9065  2.7035 -1.1157
  235MOL0     H31716   9.998   9.300   0.466  2.4661  0.0944 -0.4477
  235MOL0     H31717  10.039   9.057   0.497 -0.7582 -2.4952 -0.6508
  235MOL0     H31718   9.982   9.032   0.334  3.4901  2.2312 -2.2986
  235MOL0     H31719   9.826   8.982   0.523  1.5815 -0.1582 -1.7928
  235MOL0     H31720   9.808   9.154   0.559 -0.3919  0.9408  0.1471
  235MOL0     H31721   9.553   9.125   0.243  0.0289 -2.4683  0.6001
  235MOL0     H31722  10.233   9.053   0.015  0.8304  1.4265 -1.5513
  235MOL0     H31723  10.440   8.851  -0.119  0.8896 -0.2281 -3.8415
  235MOL0     H31724  10.397   9.002  -0.181  1.7808  1.3188  0.6003
  235MOL0     H31725  10.568   8.985  -0.138  0.0995 -2.5282 -3.5473
  236MOL0     O31726  10.227   6.323  10.037  0.8673  0.1974  0.6192
  236MOL0     C31727  10.223   6.203  10.069 -0.6944 -0.6238 -0.4119
  236MOL0     O31728  10.211   6.102   9.987 -0.2116 -0.0986 -0.1005
  236MOL0     C31729  10.245   6.115   9.857 -0.2519  0.5333  0.6866
  236MOL0     C31730  10.357   6.059   9.814 -1.0195  0.1064 -0.2605
  236MOL0     C31731  10.408   6.077   9.682 -0.3451  1.5309 -1.0583
  236MOL0     C31732  10.346   6.162   9.601 -0.1232  0.4472 -0.4650
  236MOL0     O31733  10.400   6.180   9.479  0.0509 -0.5279  0.0444
  236MOL0     C31734  10.452   6.316   9.466 -0.0514  0.4853  0.0842
  236MOL0     C31735  10.603   6.316   9.487  0.1877  0.2832 -0.1687
  236MOL0     C31736  10.687   6.411   9.402 -0.5869  1.1075 -0.1085
  236MOL0     C31737  10.840   6.411   9.432  0.1870 -0.0851 -1.4595
  236MOL0     C31738  10.922   6.510   9.347 -0.7751 -0.0654 -0.1874
  236MOL0     C31739  11.070   6.481   9.349 -0.3288 -0.5022 -0.1379
  236MOL0     C31740  11.155   6.568   9.251  0.5828  0.6235  0.1861
  236MOL0     C31741  11.138   6.721   9.255 -0.1879  0.9218  0.1583
  236MOL0     N31742  11.176   6.762   9.393  0.0979  0.3089  0.4178
  236MOL0     C31743  11.305   6.787   9.441 -0.5245  1.0981  0.1731
  236MOL0     C31744  11.288   6.812   9.577  0.2427 -0.1185 -0.2280
  236MOL0     C31745  11.398   6.845   9.667 -0.3575  0.6370 -0.7353
  236MOL0     C31746  11.397   6.779   9.813 -0.0927 -0.0729 -0.2522
  236MOL0     C31747  11.530   6.731   9.866 -0.0429  0.4403 -0.4566
  236MOL0     C31748  11.524   6.653  10.000 -0.3862 -0.0783 -0.0062
  236MOL0     O31749  11.625   6.556  10.007 -1.2618  0.1743 -0.3395
  236MOL0     C31750  11.625   6.435   9.928 -0.8546 -0.1735 -0.5255
  236MOL0     C31751  11.519   6.382   9.861  0.3948 -0.8277 -1.3468
  236MOL0     C31752  11.518   6.249   9.819  0.3687  0.6140 -2.1433
  236MOL0     C31753  11.630   6.169   9.817  0.1334  0.2340  0.2183
  236MOL0     C31754  11.618   6.032   9.756  0.3184 -0.6892  0.2511
  236MOL0     O31755  11.496   5.978   9.727  0.0692  0.0102  0.0154
  236MOL0     C31756  11.480   5.848   9.687  0.2398  0.4286 -0.2174
  236MOL0     C31757  11.562   5.743   9.731  0.1579 -0.3047 -0.7331
  236MOL0     C31758  11.518   5.609   9.717  0.4348  0.3676  0.0754
  236MOL0     C31759  11.401   5.573   9.649 -1.1930  0.1994  0.1819
  236MOL0     O31760  11.365   5.443   9.625  0.4005  1.0451  0.8099
  236MOL0     C31761  11.449   5.343   9.679 -0.0130 -0.5745  0.8236
  236MOL0     C31762  11.380   5.205   9.657 -1.0401  0.1747  0.3573
  236MOL0     C31763  11.234   5.200   9.692 -0.0024 -0.1585  0.0915
  236MOL0     C31764  11.191   5.056   9.716 -0.3685  0.1807 -0.7729
  236MOL0     C31765  11.050   5.041   9.757  0.4529  0.6960  0.6258
  236MOL0     C31766  10.947   5.101   9.658  0.6999 -1.0388  0.2928
  236MOL0     C31767  10.795   5.057   9.692 -0.7932 -0.0149 -0.1308
  236MOL0     C31768  10.693   5.140   9.609 -0.1468  0.5077 -0.1163
  236MOL0    Cl31769  10.548   5.060   9.641  0.6145 -0.2806  0.6753
  236MOL0     C31770  11.315   5.685   9.605  0.0219 -0.7791 -0.5997
  236MOL0     C31771  11.358   5.816   9.622 -0.2345  0.6103 -0.8187
  236MOL0     O31772  11.724   5.989   9.717 -0.7594  0.3087 -1.2236
  236MOL0     C31773  11.737   6.220   9.886 -0.1381 -0.1645 -0.0338
  236MOL0     C31774  11.737   6.352   9.939 -0.3874  0.0949 -0.3082
  236MOL0     N31775  11.148   6.809   9.608 -0.6395  0.1798  0.2305
  236MOL0     N31776  11.089   6.782   9.498  0.0547 -1.0204 -0.4432
  236MOL0     C31777  10.221   6.217   9.643 -1.1971  0.2800  0.3345
  236MOL0     C31778  10.171   6.191   9.767 -0.3299 -0.8511 -0.3740
  236MOL0     C31779  10.222   6.164  10.213  0.2267 -0.1320  0.0991
  236MOL0     C31780  10.285   6.240  10.310 -0.3387 -0.1774  0.2026
  236MOL0     C31781  10.317   6.202  10.442  0.1582 -0.3555 -0.5008
  236MOL0     C31782  10.267   6.085  10.491 -1.0907 -0.0180  0.0400
  236MOL0     O31783  10.306   6.046  10.617 -0.5992  0.1181 -0.0121
  236MOL0     C31784  10.330   5.904  10.641 -0.4032  0.1372  0.2305
  236MOL0     C31785  10.453   5.876  10.719  0.2147  0.8286 -1.0879
  236MOL0     C31786  10.459   5.722  10.744  0.5247  0.2058 -0.1187
  236MOL0     C31787  10.581   5.687  10.832 -0.4804  0.1801 -0.8929
  236MOL0     C31788  10.588   5.743  10.968 -0.2233  0.2359 -0.2382
  236MOL0     C31789  10.575   5.764  11.084  0.7572 -0.3093  0.4328
  236MOL0     C31790  10.186   6.004  10.406 -0.5989  0.9598  1.2977
  236MOL0     C31791  10.176   6.042  10.269  0.3405 -0.1538  1.5682
  236MOL0     C31792  10.091   5.946  10.186  1.1129 -0.6297  0.1419
  236MOL0     H31793  10.400   5.983   9.878 -3.8934 -0.8481  0.6739
  236MOL0     H31794  10.501   6.029   9.653 -1.7737 -2.6560  0.5981
  236MOL0     H31795  10.433   6.345   9.362 -0.1268 -3.1354 -1.0416
  236MOL0     H31796  10.411   6.381   9.543 -2.4241 -1.8863  0.9507
  236MOL0     H31797  10.644   6.216   9.471  0.5530 -0.2005  3.0653
  236MOL0     H31798  10.625   6.329   9.594 -0.7048 -2.6623  0.4757
  236MOL0     H31799  10.651   6.514   9.416  0.8786  1.3317  2.7499
  236MOL0     H31800  10.674   6.382   9.297  1.5760 -4.1412  0.7905
  236MOL0     H31801  10.854   6.435   9.537  1.3606  0.3584 -1.7088
  236MOL0     H31802  10.873   6.307   9.420 -0.1422 -0.5454  1.0997
  236MOL0     H31803  10.893   6.513   9.242 -0.3902  1.5970 -0.2842
  236MOL0     H31804  10.903   6.611   9.385  0.3359 -0.1771  0.7007
  236MOL0     H31805  11.108   6.495   9.450  1.0864 -2.3659 -0.3569
  236MOL0     H31806  11.076   6.380   9.307 -1.7033 -0.7718  0.2571
  236MOL0     H31807  11.126   6.548   9.148  1.3315  0.0314  0.0844
  236MOL0     H31808  11.260   6.539   9.262  0.4746 -0.6515 -1.7821
  236MOL0     H31809  11.202   6.765   9.177 -2.4413  3.1944 -0.5632
  236MOL0     H31810  11.032   6.741   9.236 -0.7466 -1.2523  0.7834
  236MOL0     H31811  11.399   6.775   9.387 -1.8846 -2.3809 -1.6723
  236MOL0     H31812  11.495   6.812   9.629 -0.7237  0.0445 -1.1694
  236MOL0     H31813  11.400   6.954   9.681 -0.3585  0.5982 -0.4208
  236MOL0     H31814  11.361   6.855   9.883  0.3092  0.8610 -1.0322
  236MOL0     H31815  11.332   6.692   9.821  0.2943 -0.2253  1.5785
  236MOL0     H31816  11.590   6.822   9.878 -2.3032  2.4056 -2.8962
  236MOL0     H31817  11.568   6.664   9.788 -0.9997 -2.8634  1.6911
  236MOL0     H31818  11.434   6.594  10.020  0.8703 -1.5696  1.5064
  236MOL0     H31819  11.532   6.726  10.081  0.5207 -0.6460  0.4334
  236MOL0     H31820  11.427   6.438   9.844  0.7533  0.0717 -0.4697
  236MOL0     H31821  11.433   6.200   9.773  0.3522 -2.4932  0.8026
  236MOL0     H31822  11.648   5.770   9.791  0.8873 -0.3195 -1.7505
  236MOL0     H31823  11.587   5.533   9.750  0.2477  1.3019  2.8174
  236MOL0     H31824  11.550   5.350   9.639  0.0423  1.6733  1.2319
  236MOL0     H31825  11.458   5.366   9.786 -3.2419 -1.1030  1.3350
  236MOL0     H31826  11.386   5.185   9.549 -2.0152  0.8107  0.1770
  236MOL0     H31827  11.449   5.140   9.711 -1.4728  1.1395  2.1344
  236MOL0     H31828  11.197   5.261   9.775 -0.3144  0.7502 -0.6831
  236MOL0     H31829  11.181   5.243   9.606 -0.1958  0.2048  0.3844
  236MOL0     H31830  11.248   5.014   9.799 -0.1662 -1.2677 -1.6137
  236MOL0     H31831  11.222   4.996   9.630 -1.3315 -1.0337 -0.2898
  236MOL0     H31832  11.026   5.071   9.860  0.1566 -2.5800  1.6522
  236MOL0     H31833  11.024   4.935   9.767  1.0010  0.6528  1.8490
  236MOL0     H31834  10.949   5.211   9.659  3.8261 -1.0049  0.2236
  236MOL0     H31835  10.975   5.072   9.557  1.7328  1.4558 -0.2026
  236MOL0     H31836  10.784   5.071   9.800 -1.3899 -0.8936 -0.0714
  236MOL0     H31837  10.782   4.951   9.669  1.6212 -0.2939 -0.5327
  236MOL0     H31838  10.687   5.232   9.669 -1.9211 -0.5364  1.4142
  236MOL0     H31839  10.724   5.155   9.505 -1.4498  0.8976 -0.4735
  236MOL0     H31840  11.230   5.660   9.543  1.1917 -0.4518 -2.4268
  236MOL0     H31841  11.288   5.894   9.592 -1.1002  0.6984  1.2510
  236MOL0     H31842  11.823   6.155   9.888  0.1977 -0.0544 -3.6104
  236MOL0     H31843  11.823   6.377  10.001  0.4581  2.0426 -2.1065
  236MOL0     H31844  10.161   6.267   9.568  1.6905  2.9239 -0.4478
  236MOL0     H31845  10.084   6.245   9.801  0.1122 -1.2385  1.4675
  236MOL0     H31846  10.332   6.332  10.277 -1.2264  0.7691  1.4825
  236MOL0     H31847  10.383   6.253  10.512 -3.6587  0.4835  2.8915
  236MOL0     H31848  10.340   5.850  10.547 -1.1040 -1.3711  0.9841
  236MOL0     H31849  10.238   5.870  10.690  0.6048  0.5823  2.5939
  236MOL0     H31850  10.427   5.918  10.816 -3.2214 -0.2956 -1.3723
  236MOL0     H31851  10.544   5.912  10.670  0.8883 -1.1788 -1.4233
  236MOL0     H31852  10.472   5.669  10.649  0.3750  0.7341 -0.4365
  236MOL0     H31853  10.362   5.695  10.788 -0.5110  2.2613 -1.0262
  236MOL0     H31854  10.577   5.578  10.830 -1.4870  0.1282  1.3589
  236MOL0     H31855  10.669   5.732  10.785 -0.0461  1.1599  0.7674
  236MOL0     H31856  10.563   5.779  11.190 -0.6959  1.0153  0.1234
  236MOL0     H31857  10.155   5.907  10.442  1.7764  0.1827  1.3723
  236MOL0     H31858  10.044   5.990  10.098 -0.0292 -0.2103  0.9372
  236MOL0     H31859  10.147   5.855  10.160 -0.0488 -1.4902  0.5663
  236MOL0     H31860  10.010   5.900  10.244 -0.2998 -0.2552 -1.4513
  237MOL0     O31861   1.184   5.326   5.181  0.3849 -0.0783  0.3551
  237MOL0     C31862   1.124   5.236   5.233  0.5254  0.0843  0.6556
  237MOL0     O31863   1.152   5.178   5.354  0.7931  0.7233 -0.3232
  237MOL0     C31864   1.279   5.209   5.402  0.0110  0.9819  0.6680
  237MOL0     C31865   1.392   5.138   5.366 -0.5629 -0.6176 -0.1013
  237MOL0     C31866   1.520   5.165   5.422 -0.2309 -0.6178  1.0155
  237MOL0     C31867   1.539   5.258   5.525 -0.0076  0.0881  0.0696
  237MOL0     O31868   1.679   5.268   5.561  0.1953  0.8685  0.6173
  237MOL0     C31869   1.700   5.309   5.695 -0.1112 -0.0222 -0.1222
  237MOL0     C31870   1.741   5.459   5.704  0.1928  0.1432  1.0781
  237MOL0     C31871   1.758   5.486   5.861 -0.2690  0.0690 -0.4001
  237MOL0     C31872   1.825   5.622   5.892 -0.5215 -0.4994  0.6599
  237MOL0     C31873   1.818   5.668   6.037  0.5035 -0.5676 -0.3972
  237MOL0     C31874   1.919   5.778   6.069 -0.8077  0.0218 -0.0609
  237MOL0     C31875   1.882   5.847   6.206  0.0062 -0.0366 -0.7382
  237MOL0     C31876   2.013   5.837   6.296 -0.2200 -0.7618  0.3640
  237MOL0     N31877   2.135   5.919   6.249 -0.4202  0.0493 -0.5899
  237MOL0     C31878   2.136   6.052   6.236 -0.4987 -0.1242 -0.3559
  237MOL0     C31879   2.267   6.077   6.208 -0.7112 -0.0072  0.1189
  237MOL0     C31880   2.325   6.214   6.192  0.1757 -0.2738 -0.3736
  237MOL0     C31881   2.286   6.291   6.067  0.1967 -0.1017  0.6885
  237MOL0     C31882   2.370   6.409   6.022  0.4824 -0.6659 -1.0391
  237MOL0     C31883   2.493   6.357   5.953 -0.6904  0.3970 -0.1789
  237MOL0     O31884   2.583   6.465   5.905 -0.0637  0.1979 -0.2563
  237MOL0     C31885   2.697   6.414   5.854 -0.0821 -0.5494  1.4138
  237MOL0     C31886   2.804   6.415   5.938  0.3119  0.2814  0.2494
  237MOL0     C31887   2.927   6.383   5.894  0.3040  0.2888  0.2138
  237MOL0     C31888   2.960   6.349   5.761 -0.2356  0.2741 -0.8163
  237MOL0     C31889   3.092   6.311   5.710 -0.4224 -0.2245 -0.8035
  237MOL0     O31890   3.097   6.280   5.580 -0.1641  0.2881 -0.1131
  237MOL0     C31891   3.213   6.229   5.532 -0.8442 -0.6510  0.2631
  237MOL0     C31892   3.297   6.323   5.456  0.4596  0.1443 -0.5810
  237MOL0     C31893   3.426   6.284   5.412  0.1280  0.4104 -0.1934
  237MOL0     C31894   3.455   6.148   5.423 -0.2397  0.5667 -0.1035
  237MOL0     O31895   3.573   6.122   5.353  0.3713  0.6165  0.0180
  237MOL0     C31896   3.590   5.990   5.307  0.0462 -0.3384  0.1576
  237MOL0     C31897   3.641   5.982   5.161  0.0180  0.2186 -0.4462
  237MOL0     C31898   3.780   6.038   5.140 -0.4023 -0.2120 -0.3407
  237MOL0     C31899   3.869   5.976   5.023  0.0749 -0.1779 -0.7227
  237MOL0     C31900   3.979   6.067   4.996  0.3124  0.0480 -0.2347
  237MOL0     C31901   4.072   6.017   4.899 -0.2503  0.5865  0.1140
  237MOL0     C31902   4.130   6.117   4.802  0.3707  0.8559  0.1755
  237MOL0     C31903   4.221   6.072   4.694  0.6608 -0.0799  0.1135
  237MOL0    Cl31904   4.143   5.957   4.580 -0.0241  0.1798 -0.5267
  237MOL0     C31905   3.375   6.056   5.492  0.1617  0.6300 -0.6610
  237MOL0     C31906   3.254   6.096   5.543 -0.6356  0.1170  0.0974
  237MOL0     O31907   3.181   6.288   5.787 -0.2720  1.1299  0.1925
  237MOL0     C31908   2.852   6.355   5.663  0.2962  0.0460 -0.2801
  237MOL0     C31909   2.725   6.390   5.714  0.4648  0.7409  0.6098
  237MOL0     N31910   2.329   5.957   6.196 -0.4267 -0.7724 -0.9914
  237MOL0     N31911   2.254   5.858   6.229  0.4845  0.5170  0.0864
  237MOL0     C31912   1.426   5.331   5.565 -0.7092 -0.1915 -0.5157
  237MOL0     C31913   1.296   5.304   5.511  0.2169 -0.0325  0.0032
  237MOL0     C31914   0.986   5.215   5.182  0.0249  0.1224 -0.1348
  237MOL0     C31915   0.905   5.141   5.275  0.8722 -0.3921 -0.1359
  237MOL0     C31916   0.767   5.136   5.257 -1.2275 -0.9236 -1.0335
  237MOL0     C31917   0.712   5.185   5.142 -0.6476  0.4900  0.1714
  237MOL0     O31918   0.579   5.171   5.132 -0.3139  0.1203  0.0601
  237MOL0     C31919   0.511   5.150   5.009  0.7299 -0.8736 -0.2337
  237MOL0     C31920   0.360   5.126   5.021 -0.3843  0.0773  0.1310
  237MOL0     C31921   0.310   4.975   5.040 -0.2309 -0.7799 -0.5980
  237MOL0     C31922   0.326   4.935   5.187  0.3501 -0.2917 -1.2030
  237MOL0     C31923   0.231   5.004   5.271  0.6018 -0.5029 -0.0043
  237MOL0     C31924   0.134   5.040   5.334  0.2986 -0.0155 -0.3091
  237MOL0     C31925   0.791   5.233   5.042 -0.5873 -1.2728 -0.0114
  237MOL0     C31926   0.933   5.253   5.056 -0.1240 -0.0073 -0.1822
  237MOL0     C31927   1.003   5.320   4.941  0.2230  0.1111  0.2628
  237MOL0     H31928   1.392   5.067   5.284  1.1309 -0.7794  0.0018
  237MOL0     H31929   1.599   5.095   5.396 -0.8177  0.1242 -3.5475
  237MOL0     H31930   1.605   5.288   5.744 -0.4689 -2.2430 -1.6013
  237MOL0     H31931   1.777   5.243   5.737 -1.3753 -0.7878  1.0627
  237MOL0     H31932   1.666   5.522   5.656  3.3263  1.4334 -2.7072
  237MOL0     H31933   1.830   5.469   5.641 -0.0633  0.2145  0.7253
  237MOL0     H31934   1.813   5.403   5.905  0.7366  0.6811 -0.4677
  237MOL0     H31935   1.659   5.489   5.908 -0.5296 -2.3414 -0.6642
  237MOL0     H31936   1.930   5.621   5.862 -0.4069  1.6599  0.8980
  237MOL0     H31937   1.785   5.698   5.825 -0.0129  0.7530  1.7399
  237MOL0     H31938   1.720   5.710   6.062  1.1941 -0.4875  2.6651
  237MOL0     H31939   1.836   5.581   6.102  1.1779 -0.2284 -0.1210
  237MOL0     H31940   2.016   5.729   6.059 -1.4325 -1.1865 -0.5083
  237MOL0     H31941   1.907   5.851   5.988  2.3007  2.5523  1.5717
  237MOL0     H31942   1.807   5.782   6.253 -1.0321 -0.6641 -3.0896
  237MOL0     H31943   1.845   5.949   6.194 -1.1153 -0.1248  1.4767
  237MOL0     H31944   1.987   5.864   6.398 -0.4777  3.7776 -0.6728
  237MOL0     H31945   2.041   5.732   6.304 -3.4324 -1.8126 -0.6946
  237MOL0     H31946   2.055   6.112   6.277 -0.1802 -1.4147  2.3979
  237MOL0     H31947   2.304   6.282   6.276 -0.9602 -1.7166  0.5621
  237MOL0     H31948   2.433   6.197   6.183  0.2489  0.8346 -1.8174
  237MOL0     H31949   2.292   6.225   5.980  0.3718 -0.5854  1.0522
  237MOL0     H31950   2.184   6.330   6.061  1.0812  2.1706 -0.8603
  237MOL0     H31951   2.401   6.477   6.102 -0.3772  0.5370 -1.6949
  237MOL0     H31952   2.313   6.464   5.946  0.0134 -1.8927 -1.5982
  237MOL0     H31953   2.461   6.290   5.873 -1.0889  0.0913  0.2314
  237MOL0     H31954   2.541   6.282   6.016  0.6843  2.3260  1.1870
  237MOL0     H31955   2.794   6.432   6.044  0.1802  2.2999 -0.0341
  237MOL0     H31956   3.009   6.359   5.961 -1.0542  0.0738  1.8708
  237MOL0     H31957   3.263   6.425   5.444 -0.2903  0.1234  1.1108
  237MOL0     H31958   3.479   6.362   5.359 -1.7535  1.0402 -1.2574
  237MOL0     H31959   3.666   5.947   5.372  1.1810  0.3584 -0.6713
  237MOL0     H31960   3.506   5.925   5.331  0.8814 -0.9019  1.6351
  237MOL0     H31961   3.632   5.881   5.119  1.2027  0.1226 -0.5182
  237MOL0     H31962   3.571   6.042   5.103  1.5137  1.8358 -0.6800
  237MOL0     H31963   3.762   6.135   5.093 -0.9247 -0.8008 -1.3886
  237MOL0     H31964   3.831   6.047   5.237 -4.7835 -3.6513  2.7168
  237MOL0     H31965   3.809   5.960   4.933 -0.0250 -1.6035 -0.4287
  237MOL0     H31966   3.907   5.882   5.064 -2.3505 -0.8356  0.1836
  237MOL0     H31967   4.038   6.095   5.083 -0.8369  1.1663  0.2103
  237MOL0     H31968   3.935   6.164   4.970  0.9020  0.6713  1.0197
  237MOL0     H31969   4.160   5.980   4.954 -0.6001 -1.5858 -0.6846
  237MOL0     H31970   4.016   5.940   4.846 -1.0111  1.2701 -0.0890
  237MOL0     H31971   4.185   6.190   4.864  1.4981  0.9028 -0.8438
  237MOL0     H31972   4.048   6.164   4.748 -1.3700 -1.6757  0.4777
  237MOL0     H31973   4.249   6.158   4.634 -2.0788  1.0301  0.2532
  237MOL0     H31974   4.317   6.033   4.727  0.3744 -0.4710  0.5097
  237MOL0     H31975   3.396   5.951   5.510  0.5312  0.8295  0.0888
  237MOL0     H31976   3.186   6.033   5.600 -0.2493 -0.1967  0.2191
  237MOL0     H31977   2.850   6.339   5.556 -0.2804 -0.6708 -0.1660
  237MOL0     H31978   2.646   6.402   5.641  2.9544  1.5423 -2.1467
  237MOL0     H31979   1.429   5.406   5.644 -0.5403 -0.3360 -0.3839
  237MOL0     H31980   1.208   5.351   5.554  0.5545 -0.5099  1.2926
  237MOL0     H31981   0.942   5.103   5.369 -0.6501  1.4218  1.2735
  237MOL0     H31982   0.698   5.089   5.326 -2.4859  0.5811 -1.1991
  237MOL0     H31983   0.548   5.058   4.961 -0.9231 -1.7974  0.2176
  237MOL0     H31984   0.534   5.232   4.940  1.6682 -1.4417 -0.6370
  237MOL0     H31985   0.314   5.166   4.930  2.4958  1.1556 -0.9505
  237MOL0     H31986   0.321   5.191   5.100 -2.6566  2.7985 -2.9263
  237MOL0     H31987   0.377   4.912   4.981  3.1434 -0.3984  2.4673
  237MOL0     H31988   0.207   4.963   5.004 -0.3180  0.4622 -0.8052
  237MOL0     H31989   0.316   4.831   5.217 -1.2279  0.1730  0.0085
  237MOL0     H31990   0.427   4.974   5.207 -0.6107  1.0775  1.6420
  237MOL0     H31991   0.053   5.068   5.398  0.4530 -2.6948  1.1938
  237MOL0     H31992   0.748   5.278   4.954  1.2019  2.0659  0.6751
  237MOL0     H31993   0.941   5.326   4.851 -1.0621 -2.3287  0.9024
  237MOL0     H31994   1.041   5.421   4.961 -2.8557  1.4039  0.1323
  237MOL0     H31995   1.082   5.251   4.912 -1.0815  0.1280 -4.0284
  238MOL0     O31996   4.858   4.471   9.063 -0.4069 -0.0446 -0.3153
  238MOL0     C31997   4.873   4.503   8.946  0.1520 -0.5882 -0.1364
  238MOL0     O31998   4.984   4.477   8.875 -0.0701 -0.1126 -0.1397
  238MOL0     C31999   5.096   4.427   8.949  1.1328 -0.5536  0.0303
  238MOL0     C32000   5.181   4.368   8.851 -0.0691 -0.2309  0.7763
  238MOL0     C32001   5.304   4.312   8.886  0.7018 -0.7659 -0.9154
  238MOL0     C32002   5.344   4.318   9.025  0.3475 -0.7405 -0.7435
  238MOL0     O32003   5.468   4.265   9.044 -0.7689  0.3619 -0.2011
  238MOL0     C32004   5.521   4.209   9.172  0.4398  0.3724  0.0831
  238MOL0     C32005   5.498   4.051   9.174 -0.0562 -0.5696  0.6012
  238MOL0     C32006   5.358   4.013   9.227 -0.5970  1.0373  0.6396
  238MOL0     C32007   5.320   3.870   9.169  0.1993 -0.1842  0.0162
  238MOL0     C32008   5.208   3.817   9.260  0.4863 -0.4864  0.1104
  238MOL0     C32009   5.094   3.926   9.262 -0.6385 -0.4712  1.5542
  238MOL0     C32010   4.975   3.860   9.329 -0.0716  0.3787 -0.6144
  238MOL0     C32011   4.855   3.959   9.332  0.8630  0.4638  0.6158
  238MOL0     N32012   4.785   3.985   9.207  0.1073  0.4505 -0.5799
  238MOL0     C32013   4.816   4.092   9.129 -0.1354  0.2535  0.3979
  238MOL0     C32014   4.761   4.063   9.009  0.1774 -0.1034 -0.1118
  238MOL0     C32015   4.786   4.134   8.875  0.6823 -0.1440  0.3626
  238MOL0     C32016   4.931   4.138   8.836  1.3126  0.0813  0.0225
  238MOL0     C32017   4.972   3.991   8.814 -0.5266  0.3709 -1.0763
  238MOL0     C32018   5.117   3.981   8.784  0.0734  0.2552  0.0554
  238MOL0     O32019   5.156   4.059   8.670  0.3580 -0.4073 -0.7041
  238MOL0     C32020   5.293   4.073   8.656  0.6820 -0.5438 -0.0928
  238MOL0     C32021   5.383   3.976   8.688 -0.0367 -0.2552 -0.5814
  238MOL0     C32022   5.523   3.997   8.682  0.2004 -0.4073  0.6338
  238MOL0     C32023   5.574   4.116   8.612  0.7884  0.0918  0.6368
  238MOL0     C32024   5.711   4.135   8.595  1.0125 -0.3441 -0.3954
  238MOL0     O32025   5.739   4.268   8.599  0.4742 -0.5956 -0.7045
  238MOL0     C32026   5.871   4.310   8.595  0.1207  0.1502 -0.2056
  238MOL0     C32027   5.963   4.263   8.491  0.5410 -0.8296 -0.4132
  238MOL0     C32028   6.102   4.289   8.506 -0.3663  0.1983  0.5481
  238MOL0     C32029   6.150   4.369   8.611  0.3622 -0.4487 -0.0347
  238MOL0     O32030   6.273   4.424   8.595 -0.4342 -0.5717  0.1199
  238MOL0     C32031   6.315   4.543   8.678  0.3579  0.1532 -0.7222
  238MOL0     C32032   6.461   4.582   8.654 -0.0783 -0.6120  0.1541
  238MOL0     C32033   6.469   4.686   8.532  0.1395 -0.0503 -0.0206
  238MOL0     C32034   6.600   4.767   8.534 -0.0398  0.8639  0.0425
  238MOL0     C32035   6.625   4.860   8.411  0.5288 -0.7907  0.8289
  238MOL0     C32036   6.745   4.952   8.436 -0.7904 -0.1519  0.3406
  238MOL0     C32037   6.755   5.054   8.321  0.0527  0.1410 -0.6453
  238MOL0     C32038   6.848   5.175   8.349  0.3562 -0.1273 -0.4348
  238MOL0    Cl32039   6.822   5.300   8.226 -0.0280  0.0021  0.0727
  238MOL0     C32040   6.064   4.408   8.716  0.4092 -0.7080 -0.1984
  238MOL0     C32041   5.928   4.387   8.699  0.1768 -0.4457 -0.0558
  238MOL0     O32042   5.786   4.045   8.615 -0.2715  0.1655 -0.4185
  238MOL0     C32043   5.480   4.213   8.561  0.7720 -0.5016 -0.0281
  238MOL0     C32044   5.345   4.188   8.578  0.3108  0.9842  1.1728
  238MOL0     N32045   4.696   3.943   9.014  0.7731  0.6402  0.6977
  238MOL0     N32046   4.720   3.892   9.133 -0.1149  0.0526  0.3540
  238MOL0     C32047   5.256   4.379   9.121 -0.4513  1.1674 -0.2891
  238MOL0     C32048   5.139   4.437   9.084  0.2870 -0.7427 -0.0564
  238MOL0     C32049   4.750   4.559   8.890 -1.0505 -0.3256 -0.4425
  238MOL0     C32050   4.659   4.613   8.984 -0.6863 -0.0270  0.4148
  238MOL0     C32051   4.543   4.666   8.935  0.3957 -0.1841  1.1637
  238MOL0     C32052   4.507   4.688   8.802  0.0324  1.0572  0.5049
  238MOL0     O32053   4.377   4.739   8.777 -0.3539  0.2777  0.1601
  238MOL0     C32054   4.336   4.768   8.646  0.4168  0.8603  0.1313
  238MOL0     C32055   4.192   4.781   8.637  1.2793 -0.0156  0.4333
  238MOL0     C32056   4.139   4.630   8.648 -0.5786  0.3107 -0.3344
  238MOL0     C32057   3.982   4.643   8.644 -0.1999  0.4520  0.4887
  238MOL0     C32058   3.925   4.509   8.656 -0.4023  0.5002  0.7590
  238MOL0     C32059   3.875   4.400   8.674  0.3690 -0.7757  0.3706
  238MOL0     C32060   4.599   4.636   8.709  0.2712 -0.9930  0.3706
  238MOL0     C32061   4.721   4.578   8.751  0.5131  1.1935 -0.0913
  238MOL0     C32062   4.798   4.509   8.646 -0.1341 -0.4162  1.0727
  238MOL0     H32063   5.155   4.358   8.747 -0.8610  1.8786  0.7090
  238MOL0     H32064   5.358   4.242   8.823 -1.3479 -1.7769 -1.6390
  238MOL0     H32065   5.629   4.222   9.186  0.7436 -1.5182 -0.2325
  238MOL0     H32066   5.474   4.264   9.254  0.3772  0.5669 -0.0804
  238MOL0     H32067   5.572   4.021   9.249  0.7703  1.1775  0.5348
  238MOL0     H32068   5.515   4.006   9.076 -0.8395 -3.7885  1.8032
  238MOL0     H32069   5.284   4.090   9.204 -0.2887  1.7066  1.8022
  238MOL0     H32070   5.369   3.989   9.333  1.4164  1.7526  0.6367
  238MOL0     H32071   5.288   3.886   9.065 -0.4087  2.2697  0.5238
  238MOL0     H32072   5.400   3.795   9.171  0.6454  0.2704 -0.2210
  238MOL0     H32073   5.162   3.725   9.222  0.4696 -0.1117 -0.7786
  238MOL0     H32074   5.246   3.805   9.362 -0.5569  1.6523  0.8089
  238MOL0     H32075   5.126   4.013   9.320  0.1022 -1.4047  2.5916
  238MOL0     H32076   5.067   3.951   9.159 -0.5243 -0.9620  1.4021
  238MOL0     H32077   4.999   3.824   9.430 -0.2880 -3.0591 -1.6419
  238MOL0     H32078   4.940   3.768   9.281  1.6660 -1.9020  2.1745
  238MOL0     H32079   4.774   3.911   9.388  0.3555 -0.0857 -0.5635
  238MOL0     H32080   4.867   4.056   9.381 -2.4838  1.4854 -0.3286
  238MOL0     H32081   4.866   4.182   9.163 -1.3100  1.8697 -1.8596
  238MOL0     H32082   4.719   4.092   8.800 -0.3297  3.3424 -0.8518
  238MOL0     H32083   4.766   4.241   8.883  4.1212  0.7845 -1.4187
  238MOL0     H32084   4.930   4.213   8.756 -2.2313  2.8344  2.3011
  238MOL0     H32085   4.986   4.175   8.923  1.2797 -2.6264  1.2888
  238MOL0     H32086   4.911   3.938   8.741 -0.5325 -1.9231  0.4889
  238MOL0     H32087   4.972   3.931   8.905  2.2596  1.0264 -0.5432
  238MOL0     H32088   5.132   3.875   8.758  1.0400  0.7738 -1.6482
  238MOL0     H32089   5.179   4.000   8.872  0.8220 -0.0616 -0.3895
  238MOL0     H32090   5.338   3.887   8.732 -2.2022  1.1460  0.1916
  238MOL0     H32091   5.586   3.915   8.716  0.7730 -0.7950 -1.2682
  238MOL0     H32092   5.926   4.216   8.400  0.4427  1.9750 -1.9403
  238MOL0     H32093   6.172   4.250   8.432  0.6337 -2.1795  2.5922
  238MOL0     H32094   6.255   4.630   8.647  0.2982 -0.2866 -1.9080
  238MOL0     H32095   6.301   4.533   8.786  0.3112  2.1081 -0.5001
  238MOL0     H32096   6.505   4.633   8.741 -1.2245  2.0431 -0.7340
  238MOL0     H32097   6.514   4.487   8.636 -0.2394 -0.9106  1.1657
  238MOL0     H32098   6.471   4.646   8.431  1.5288  0.6798 -0.3159
  238MOL0     H32099   6.388   4.758   8.547  1.3393  1.4022 -0.3421
  238MOL0     H32100   6.682   4.695   8.542 -1.2529 -0.8078 -1.8491
  238MOL0     H32101   6.606   4.830   8.624  1.5527 -2.8018  2.7847
  238MOL0     H32102   6.536   4.923   8.416  0.2379 -1.0223 -0.9129
  238MOL0     H32103   6.642   4.802   8.319 -0.0944 -0.9966  0.8403
  238MOL0     H32104   6.720   5.005   8.529 -2.1020 -2.0237  1.1080
  238MOL0     H32105   6.841   4.905   8.459 -0.6257  0.5726  1.1795
  238MOL0     H32106   6.657   5.096   8.295 -0.0831  0.3747  0.1913
  238MOL0     H32107   6.791   5.006   8.230  1.5091 -0.2915  0.1386
  238MOL0     H32108   6.828   5.220   8.447  2.5325 -0.0702  0.0424
  238MOL0     H32109   6.953   5.145   8.354  0.3426 -0.0586  3.6226
  238MOL0     H32110   6.108   4.468   8.795  1.7658 -1.1505 -0.5853
  238MOL0     H32111   5.859   4.420   8.777  1.7354  1.3275  0.6380
  238MOL0     H32112   5.517   4.300   8.508 -1.2735 -0.0500 -0.8243
  238MOL0     H32113   5.270   4.257   8.542 -1.4365  0.1738  3.0752
  238MOL0     H32114   5.293   4.379   9.223 -0.8810  1.1529 -0.1329
  238MOL0     H32115   5.090   4.493   9.163  1.4177  0.0018  0.1304
  238MOL0     H32116   4.677   4.618   9.091  0.1774  2.2178  0.2251
  238MOL0     H32117   4.482   4.707   9.015  1.5847  1.1799  1.4122
  238MOL0     H32118   4.369   4.695   8.571 -3.0767 -1.0888  0.2762
  238MOL0     H32119   4.374   4.869   8.625  0.5809  0.7852  0.0715
  238MOL0     H32120   4.155   4.830   8.546 -1.6711 -0.2633  1.3933
  238MOL0     H32121   4.162   4.841   8.723 -1.0146 -0.8251  0.2595
  238MOL0     H32122   4.153   4.588   8.748 -0.3080  5.5216  2.1485
  238MOL0     H32123   4.177   4.563   8.570 -1.1353  0.3550 -0.6554
  238MOL0     H32124   3.935   4.702   8.723  0.1187 -0.0256  1.0406
  238MOL0     H32125   3.957   4.692   8.549  1.0094 -2.0454 -1.2072
  238MOL0     H32126   3.837   4.305   8.705  0.5323 -1.0500 -0.2394
  238MOL0     H32127   4.565   4.650   8.607 -1.7559  0.4865  1.1588
  238MOL0     H32128   4.753   4.533   8.549 -0.3474  0.7839  1.4518
  238MOL0     H32129   4.902   4.542   8.643  0.6223 -2.5684  1.7806
  238MOL0     H32130   4.799   4.400   8.657 -1.1159 -0.4425  0.9810
  239MOL0     O32131   8.076   7.808   2.392  0.5959  0.2071  0.1820
  239MOL0     C32132   8.115   7.731   2.301  0.5568  0.3796  0.0959
  239MOL0     O32133   8.243   7.683   2.291  0.2447 -0.6674 -0.6994
  239MOL0     C32134   8.328   7.662   2.399 -0.2491  0.2093  0.4951
  239MOL0     C32135   8.294   7.577   2.503  0.1617 -0.2229 -0.9202
  239MOL0     C32136   8.400   7.551   2.598 -0.2160 -0.2714  0.4118
  239MOL0     C32137   8.532   7.593   2.572  0.6053  0.3524  0.3683
  239MOL0     O32138   8.610   7.561   2.678 -0.5053  0.9790 -0.4520
  239MOL0     C32139   8.756   7.554   2.645  0.1732  0.0612 -0.0271
  239MOL0     C32140   8.848   7.489   2.748  0.5451  1.6037  0.1936
  239MOL0     C32141   8.986   7.550   2.740 -0.1556 -0.0236  0.1799
  239MOL0     C32142   9.085   7.479   2.829  0.0408  0.6463 -0.8092
  239MOL0     C32143   9.224   7.522   2.812 -0.6304  0.0233 -0.1166
  239MOL0     C32144   9.330   7.417   2.865  0.1948  0.2016  0.3936
  239MOL0     C32145   9.473   7.453   2.838 -0.0870 -0.2012  0.3141
  239MOL0     C32146   9.569   7.340   2.866 -0.6235 -1.1815  0.5898
  239MOL0     N32147   9.686   7.372   2.952  0.4030 -0.0635  0.3157
  239MOL0     C32148   9.802   7.412   2.898 -0.5972  0.3928 -0.1931
  239MOL0     C32149   9.882   7.399   3.007 -1.2172 -0.7128 -0.3134
  239MOL0     C32150  10.032   7.431   3.007 -0.5838  0.3015  0.3017
  239MOL0     C32151  10.084   7.560   3.062 -0.4772 -0.1565  0.2990
  239MOL0     C32152  10.237   7.556   3.079  0.2128 -0.2822 -0.0009
  239MOL0     C32153  10.298   7.448   3.171  0.0324 -0.9712 -0.2878
  239MOL0     O32154  10.439   7.464   3.211  0.6179  0.3901 -0.1862
  239MOL0     C32155  10.536   7.456   3.108  0.6289 -0.1570  0.0350
  239MOL0     C32156  10.667   7.514   3.128  0.1439  0.5783  0.1887
  239MOL0     C32157  10.770   7.496   3.035  0.2198  0.0594 -0.2776
  239MOL0     C32158  10.764   7.411   2.927 -0.4210  0.1729  0.1526
  239MOL0     C32159  10.886   7.369   2.850  0.9599 -0.1590  0.1765
  239MOL0     O32160  10.867   7.292   2.736 -0.1294  0.0928  0.7137
  239MOL0     C32161  10.983   7.271   2.668 -1.1493  0.3388 -0.0175
  239MOL0     C32162  11.023   7.375   2.591 -0.5172 -0.7318 -1.0053
  239MOL0     C32163  11.132   7.362   2.505 -0.3193 -0.1198  0.5547
  239MOL0     C32164  11.209   7.247   2.516 -0.4714 -0.2154  0.9520
  239MOL0     O32165  11.308   7.232   2.422 -0.1492 -0.9196  0.2848
  239MOL0     C32166  11.434   7.295   2.448  0.3518  0.2532 -0.5927
  239MOL0     C32167  11.498   7.228   2.581 -0.8378  0.1538  0.3268
  239MOL0     C32168  11.448   7.286   2.720  0.1035  0.4017  0.2021
  239MOL0     C32169  11.490   7.198   2.836 -0.8698  0.2129  0.5859
  239MOL0     C32170  11.437   7.247   2.974  0.1301 -0.1673 -0.2599
  239MOL0     C32171  11.283   7.235   2.996  0.7696  0.7922 -0.2791
  239MOL0     C32172  11.242   7.102   3.053  0.3094  0.7391  0.7082
  239MOL0     C32173  11.105   7.099   3.119  0.1863  0.1764 -0.2481
  239MOL0    Cl32174  11.062   6.934   3.192 -0.1059  0.2441  0.3655
  239MOL0     C32175  11.173   7.143   2.606  0.4905  0.0794 -0.1734
  239MOL0     C32176  11.053   7.156   2.676 -0.4522 -1.0398 -0.7794
  239MOL0     O32177  10.993   7.422   2.882  0.3630  0.3035 -0.0648
  239MOL0     C32178  10.645   7.344   2.907  0.3701  0.4312  0.0791
  239MOL0     C32179  10.527   7.379   2.987 -0.1904 -0.3958 -1.1838
  239MOL0     N32180   9.813   7.338   3.115  0.1711  1.0364  0.1421
  239MOL0     N32181   9.694   7.322   3.077  0.4946 -0.1837 -0.1614
  239MOL0     C32182   8.557   7.668   2.456  1.3193 -0.3877 -0.5534
  239MOL0     C32183   8.453   7.705   2.375  0.4450  0.0774  1.0790
  239MOL0     C32184   8.026   7.697   2.187 -0.6045 -0.7856 -0.1856
  239MOL0     C32185   8.057   7.579   2.118  1.5994  0.0385 -0.6267
  239MOL0     C32186   7.987   7.537   2.001  0.3838  0.2777  0.3735
  239MOL0     C32187   7.881   7.610   1.955  0.2692  1.2082  0.2042
  239MOL0     O32188   7.789   7.557   1.869 -0.8909 -0.3320 -0.3060
  239MOL0     C32189   7.851   7.491   1.757 -0.4126  0.3418  0.6854
  239MOL0     C32190   7.747   7.483   1.655  0.7245 -0.2745  0.3568
  239MOL0     C32191   7.788   7.380   1.553 -0.3310 -0.4381  0.6489
  239MOL0     C32192   7.691   7.382   1.426  0.6456  0.1299  0.0441
  239MOL0     C32193   7.548   7.424   1.449  0.2901  0.2367 -0.7094
  239MOL0     C32194   7.427   7.453   1.463  0.2525  0.3417 -0.1968
  239MOL0     C32195   7.855   7.735   2.017 -0.1630  0.8683 -0.4266
  239MOL0     C32196   7.931   7.782   2.127 -0.4879 -0.1371 -0.3860
  239MOL0     C32197   7.921   7.928   2.173 -0.2025  0.0937  0.5596
  239MOL0     H32198   8.197   7.533   2.521 -1.1663  2.9487  0.5095
  239MOL0     H32199   8.370   7.491   2.683 -4.6481  0.7221 -0.2215
  239MOL0     H32200   8.759   7.498   2.551 -1.8082  0.5909 -0.4579
  239MOL0     H32201   8.781   7.659   2.626 -1.5211  0.2914 -1.3720
  239MOL0     H32202   8.853   7.381   2.731  2.4688  1.9414 -1.9841
  239MOL0     H32203   8.809   7.501   2.849 -0.3107  1.9871 -0.1738
  239MOL0     H32204   8.983   7.657   2.766  0.8538  0.1110 -0.1957
  239MOL0     H32205   9.022   7.546   2.637  2.2001 -2.6385  0.9848
  239MOL0     H32206   9.058   7.492   2.935  1.3990  0.3770 -0.4108
  239MOL0     H32207   9.073   7.373   2.804  0.6707  0.8359 -1.9999
  239MOL0     H32208   9.252   7.528   2.706  2.4381 -2.2101  0.4469
  239MOL0     H32209   9.250   7.624   2.841  2.4322 -0.2853 -1.3862
  239MOL0     H32210   9.317   7.403   2.973  1.3610  0.0671  0.5299
  239MOL0     H32211   9.304   7.318   2.825 -1.6799 -0.0713  2.1042
  239MOL0     H32212   9.485   7.537   2.907 -2.4522  1.0446 -0.6707
  239MOL0     H32213   9.483   7.498   2.739 -1.0274  0.5463  0.5366
  239MOL0     H32214   9.514   7.261   2.917 -2.0172  0.0096  1.0108
  239MOL0     H32215   9.609   7.295   2.775  2.4075  0.0660  1.2006
  239MOL0     H32216   9.833   7.448   2.801  0.2469 -0.0689 -0.1073
  239MOL0     H32217  10.076   7.353   3.070 -1.2619  0.3018  0.7908
  239MOL0     H32218  10.070   7.423   2.905 -2.5077  0.8595 -0.5093
  239MOL0     H32219  10.076   7.643   2.991  2.8004 -2.0376 -2.5975
  239MOL0     H32220  10.042   7.585   3.160 -0.6535 -0.4067  0.2905
  239MOL0     H32221  10.269   7.652   3.122  0.5672 -0.0098 -0.8575
  239MOL0     H32222  10.286   7.536   2.984  0.3462 -0.4602  0.1055
  239MOL0     H32223  10.286   7.347   3.130  0.8266 -1.9192  1.6930
  239MOL0     H32224  10.240   7.446   3.264 -0.1030 -1.2507 -0.3745
  239MOL0     H32225  10.682   7.579   3.214  2.0508  1.0359 -0.4274
  239MOL0     H32226  10.866   7.539   3.063  0.0438 -0.6586  1.5619
  239MOL0     H32227  10.958   7.463   2.584  2.7381  2.2705  2.3156
  239MOL0     H32228  11.157   7.432   2.426  0.8568 -1.3100 -0.1728
  239MOL0     H32229  11.504   7.281   2.366 -1.1138  0.9389 -1.9978
  239MOL0     H32230  11.421   7.402   2.464 -0.0325 -0.1793  3.0617
  239MOL0     H32231  11.486   7.119   2.587 -2.5201  0.3608  1.3606
  239MOL0     H32232  11.604   7.255   2.576 -0.5298 -1.2440 -1.7996
  239MOL0     H32233  11.480   7.388   2.743  1.6832 -0.0711  0.2445
  239MOL0     H32234  11.339   7.295   2.715 -0.0982 -2.1233 -2.3979
  239MOL0     H32235  11.599   7.198   2.848 -0.7594  0.1227 -0.3827
  239MOL0     H32236  11.458   7.096   2.812 -2.2817  1.0962 -1.5947
  239MOL0     H32237  11.455   7.353   2.992 -2.4465  0.2031  0.4928
  239MOL0     H32238  11.491   7.199   3.056  2.9329 -0.6916 -2.2398
  239MOL0     H32239  11.249   7.311   3.067  1.1575 -1.9178  3.0782
  239MOL0     H32240  11.230   7.243   2.901  0.1424 -1.3380 -0.1735
  239MOL0     H32241  11.323   7.074   3.121  1.5632 -1.0624 -1.3495
  239MOL0     H32242  11.238   7.028   2.973 -0.3044  2.1539 -0.6322
  239MOL0     H32243  11.098   7.168   3.203 -0.2564 -2.0417  1.6587
  239MOL0     H32244  11.028   7.129   3.047  0.3831  1.8532  0.2021
  239MOL0     H32245  11.238   7.056   2.610 -0.2505 -0.4688 -0.0350
  239MOL0     H32246  11.017   7.079   2.745 -2.0323  2.6424  2.9152
  239MOL0     H32247  10.638   7.270   2.828  1.6773  0.8410 -0.4412
  239MOL0     H32248  10.433   7.327   2.970 -1.4576  1.5269 -0.3878
  239MOL0     H32249   8.657   7.711   2.449  2.3171 -1.8546  2.6368
  239MOL0     H32250   8.459   7.785   2.302  3.4568 -2.1373 -1.3743
  239MOL0     H32251   8.121   7.502   2.161  0.5259 -0.3955  0.2414
  239MOL0     H32252   8.010   7.436   1.968  0.5061 -0.1333  1.6726
  239MOL0     H32253   7.880   7.392   1.792 -3.8036 -0.7851  0.6993
  239MOL0     H32254   7.941   7.545   1.727 -0.2620  0.3840  1.2087
  239MOL0     H32255   7.723   7.580   1.609  0.2791 -0.5788 -0.0680
  239MOL0     H32256   7.658   7.447   1.707  0.5101 -1.3484 -0.6820
  239MOL0     H32257   7.796   7.281   1.599 -3.2769 -1.0579  0.0034
  239MOL0     H32258   7.891   7.400   1.519 -0.5630 -1.7257 -0.9619
  239MOL0     H32259   7.727   7.458   1.356  0.1231 -2.1226 -2.8504
  239MOL0     H32260   7.692   7.282   1.381  0.9524 -0.1984  0.7591
  239MOL0     H32261   7.322   7.471   1.465  0.2476  0.4045 -0.8104
  239MOL0     H32262   7.762   7.787   1.994 -0.1132  2.1167  1.9518
  239MOL0     H32263   7.827   7.961   2.128  0.3894 -0.2840 -1.0289
  239MOL0     H32264   7.922   7.961   2.277 -0.5877  2.4762 -0.1386
  239MOL0     H32265   8.007   7.984   2.135  0.1349 -1.0288 -0.4052
  240MOL0     O32266   1.577  10.783   6.353  0.1008  0.5734  0.6228
  240MOL0     C32267   1.468  10.840   6.333  0.2906  0.1666 -0.0796
  240MOL0     O32268   1.352  10.773   6.310  0.2036  0.8886  0.4248
  240MOL0     C32269   1.337  10.637   6.339  0.2293 -0.0014  0.0724
  240MOL0     C32270   1.390  10.564   6.450  0.0778 -0.1771 -0.0570
  240MOL0     C32271   1.360  10.427   6.470  0.2443 -0.7265 -0.6655
  240MOL0     C32272   1.271  10.361   6.382 -0.3568 -0.3238 -0.6879
  240MOL0     O32273   1.210  10.246   6.402 -0.1140  0.3562 -0.2269
  240MOL0     C32274   1.230  10.182   6.526 -0.2202 -0.0967 -0.3176
  240MOL0     C32275   1.125  10.070   6.547  0.3206  1.1447 -0.5835
  240MOL0     C32276   1.097  10.042   6.698 -0.1395  0.2747 -0.7970
  240MOL0     C32277   1.213   9.964   6.760  0.1252 -0.5277 -0.7263
  240MOL0     C32278   1.163   9.884   6.887  0.4889 -1.1593 -0.3088
  240MOL0     C32279   1.283   9.816   6.961 -0.0455 -0.2513 -0.3931
  240MOL0     C32280   1.266   9.832   7.111 -0.3918 -0.1861 -0.1911
  240MOL0     C32281   1.289   9.975   7.148 -0.6719 -0.3986  0.4730
  240MOL0     N32282   1.320   9.974   7.292 -1.0086 -0.3606 -0.0289
  240MOL0     C32283   1.230   9.959   7.396 -0.4788 -0.4678  0.7477
  240MOL0     C32284   1.300   9.984   7.504 -0.8168  0.1540 -1.2568
  240MOL0     C32285   1.260   9.989   7.641  0.6423 -0.3784 -0.0250
  240MOL0     C32286   1.248   9.850   7.702  0.2170 -0.3280  0.0014
  240MOL0     C32287   1.198   9.844   7.848 -0.4169  0.2093 -0.4106
  240MOL0     C32288   1.282   9.931   7.943  0.2987  0.1595  0.0207
  240MOL0     O32289   1.254   9.918   8.083 -0.6297 -0.2563  0.7144
  240MOL0     C32290   1.122   9.950   8.127  0.1285 -1.1098  0.1198
  240MOL0     C32291   1.044  10.040   8.054 -0.5130 -1.0734 -0.7538
  240MOL0     C32292   0.909  10.068   8.091  0.4396 -0.2302 -1.3704
  240MOL0     C32293   0.854  10.024   8.213 -0.6019 -0.1362 -0.5314
  240MOL0     C32294   0.711  10.039   8.237  0.3138 -0.5054 -0.5013
  240MOL0     O32295   0.664   9.979   8.350 -1.0619  0.0195 -0.1974
  240MOL0     C32296   0.532   9.987   8.386 -0.3516 -0.2762  0.1159
  240MOL0     C32297   0.444   9.876   8.363 -0.4310  0.3765  0.6803
  240MOL0     C32298   0.310   9.886   8.399  0.5540  0.1332 -0.2720
  240MOL0     C32299   0.261  10.007   8.461  0.7562 -0.1249  1.1519
  240MOL0     O32300   0.124  10.027   8.504 -0.4853 -0.4187 -0.1169
  240MOL0     C32301   0.046   9.904   8.529 -0.0088 -0.1962  0.4638
  240MOL0     C32302  -0.074   9.951   8.613  0.1998  0.4079 -0.2947
  240MOL0     C32303  -0.177   9.832   8.627  0.6280 -0.8370  0.6240
  240MOL0     C32304  -0.313   9.871   8.697 -0.1299 -0.2970 -0.4613
  240MOL0     C32305  -0.405   9.943   8.599  0.0523 -0.1533 -0.6966
  240MOL0     C32306  -0.538   9.983   8.669  0.2372  0.3478 -0.5071
  240MOL0     C32307  -0.599  10.116   8.609 -0.2648 -0.6534  0.0808
  240MOL0     C32308  -0.729  10.177   8.671 -0.5241 -0.3867 -0.7253
  240MOL0    Cl32309  -0.695  10.239   8.838  0.2412 -0.1736 -0.2585
  240MOL0     C32310   0.355  10.112   8.491  0.0834  0.2753  0.9841
  240MOL0     C32311   0.488  10.099   8.460  0.1736 -0.3640  0.5248
  240MOL0     O32312   0.639  10.098   8.159 -0.1961  0.6771  0.9122
  240MOL0     C32313   0.935   9.922   8.277 -0.1170  0.1742 -0.4108
  240MOL0     C32314   1.067   9.901   8.242  0.7282  0.5285 -0.2677
  240MOL0     N32315   1.432  10.005   7.478 -0.6152  0.6704  0.4826
  240MOL0     N32316   1.447   9.985   7.346  0.0869 -0.0642 -0.2501
  240MOL0     C32317   1.230  10.433   6.267  0.7007 -0.5672  0.0440
  240MOL0     C32318   1.264  10.565   6.252 -0.3576  0.1023  0.4504
  240MOL0     C32319   1.461  10.984   6.350  0.4984  1.0105 -0.7588
  240MOL0     C32320   1.340  11.042   6.322 -0.1334 -0.3555 -0.2210
  240MOL0     C32321   1.318  11.178   6.320 -0.1233  1.0737 -0.0539
  240MOL0     C32322   1.422  11.262   6.356 -0.3658 -0.0282  0.5336
  240MOL0     O32323   1.404  11.399   6.345 -0.0441 -0.9831 -0.4957
  240MOL0     C32324   1.440  11.457   6.223 -0.0029 -0.1278  0.2434
  240MOL0     C32325   1.445  11.612   6.240 -0.6550 -0.2627 -0.3842
  240MOL0     C32326   1.306  11.681   6.262 -0.1072 -0.7806 -0.0217
  240MOL0     C32327   1.314  11.823   6.291 -0.4237 -0.4245 -0.5259
  240MOL0     C32328   1.401  11.862   6.400 -1.1357 -0.2036 -0.6986
  240MOL0     C32329   1.477  11.894   6.492  0.0141  0.2793  0.7952
  240MOL0     C32330   1.546  11.204   6.391  0.7702 -0.3699 -0.0697
  240MOL0     C32331   1.578  11.067   6.383  0.4972  0.3998  0.2998
  240MOL0     C32332   1.707  11.029   6.421 -0.8486 -0.0440  0.4427
  240MOL0     H32333   1.464  10.597   6.523  4.0664 -1.6825 -3.0266
  240MOL0     H32334   1.426  10.375   6.537 -1.3262  0.7976  2.2466
  240MOL0     H32335   1.335  10.157   6.543 -0.8709 -5.0032 -1.9264
  240MOL0     H32336   1.216  10.254   6.608  0.8806  1.5716 -1.5257
  240MOL0     H32337   1.167   9.988   6.488 -0.6793  1.1492 -1.3264
  240MOL0     H32338   1.032  10.105   6.502 -1.4148  0.7043  2.3734
  240MOL0     H32339   1.006   9.982   6.712  0.5480 -0.2982  1.6470
  240MOL0     H32340   1.092  10.144   6.739  6.7301  1.0104 -0.6592
  240MOL0     H32341   1.248   9.896   6.681 -0.0844 -0.3813 -0.9480
  240MOL0     H32342   1.292  10.037   6.775 -0.3967  0.2362 -1.5807
  240MOL0     H32343   1.104   9.951   6.949 -1.0972 -1.1814 -1.7219
  240MOL0     H32344   1.089   9.808   6.859  1.3136 -2.2936  0.4885
  240MOL0     H32345   1.284   9.709   6.938 -0.2395  0.0463 -1.8740
  240MOL0     H32346   1.379   9.861   6.934 -1.4335  1.4267 -2.9087
  240MOL0     H32347   1.338   9.761   7.151  1.5856  2.3426  0.9915
  240MOL0     H32348   1.164   9.801   7.138 -0.2118  0.4204  1.2560
  240MOL0     H32349   1.364  10.020   7.081 -0.9302 -0.2443  0.2869
  240MOL0     H32350   1.206  10.045   7.132 -0.8175 -0.5355  0.6284
  240MOL0     H32351   1.122   9.944   7.397 -0.5253 -0.7279 -1.7269
  240MOL0     H32352   1.334  10.043   7.700  1.2823 -1.0074 -0.2357
  240MOL0     H32353   1.161  10.034   7.647 -0.8089 -3.2235 -0.8473
  240MOL0     H32354   1.175   9.795   7.643  0.3908  2.1167 -2.7528
  240MOL0     H32355   1.338   9.787   7.696  0.3230 -0.2253  0.4818
  240MOL0     H32356   1.209   9.739   7.876  0.8353  0.7260  1.2064
  240MOL0     H32357   1.091   9.864   7.855 -0.9724 -2.6317  0.5826
  240MOL0     H32358   1.271  10.037   7.920 -1.0533  0.0890  0.2335
  240MOL0     H32359   1.390   9.924   7.926  0.2664  1.8154 -1.0968
  240MOL0     H32360   1.086  10.083   7.963 -0.7057 -0.9525 -0.7875
  240MOL0     H32361   0.855  10.120   8.013 -2.1207 -1.1077 -0.3046
  240MOL0     H32362   0.476   9.780   8.324 -1.2827 -0.3290  1.6446
  240MOL0     H32363   0.238   9.807   8.378 -1.0113  1.2507  0.6289
  240MOL0     H32364   0.015   9.871   8.429 -0.5160 -0.0350  0.5688
  240MOL0     H32365   0.109   9.831   8.581 -1.8270 -2.7961 -0.7821
  240MOL0     H32366  -0.041   9.977   8.714 -2.6483 -1.2575  1.1850
  240MOL0     H32367  -0.106  10.042   8.561  1.1554  0.2210 -1.2386
  240MOL0     H32368  -0.203   9.781   8.533 -0.1900  1.8058 -0.6882
  240MOL0     H32369  -0.142   9.759   8.700 -0.4834  0.1667  2.2061
  240MOL0     H32370  -0.287   9.932   8.783 -1.6905 -0.8206  0.4119
  240MOL0     H32371  -0.365   9.785   8.741 -2.4964  1.3395  0.0959
  240MOL0     H32372  -0.419   9.893   8.503  3.9633  1.6061 -2.3734
  240MOL0     H32373  -0.365  10.037   8.562 -1.1577  0.0278 -1.5868
  240MOL0     H32374  -0.616   9.909   8.651 -1.1645  2.6236 -5.2400
  240MOL0     H32375  -0.519   9.996   8.776  1.8612 -0.0495 -0.7272
  240MOL0     H32376  -0.622  10.082   8.508 -1.0881 -0.8785  0.3344
  240MOL0     H32377  -0.525  10.195   8.598  0.9010 -1.2464  2.8654
  240MOL0     H32378  -0.781  10.247   8.605 -0.6934 -1.2761 -1.5590
  240MOL0     H32379  -0.792  10.091   8.695  1.0758 -1.4823 -0.2686
  240MOL0     H32380   0.315  10.190   8.555 -2.2033 -0.1000  0.1264
  240MOL0     H32381   0.558  10.179   8.484 -2.1033  1.2665  2.2050
  240MOL0     H32382   0.902   9.880   8.371 -0.3106 -1.6203 -1.2473
  240MOL0     H32383   1.115   9.832   8.310  0.2218  0.1917 -0.2411
  240MOL0     H32384   1.161  10.392   6.195  2.4305  0.2832 -2.2311
  240MOL0     H32385   1.235  10.620   6.163  1.0651  2.7971  1.5358
  240MOL0     H32386   1.254  10.990   6.279  0.2309 -1.4299  0.3015
  240MOL0     H32387   1.221  11.221   6.297 -0.6241 -0.8698 -1.8980
  240MOL0     H32388   1.361  11.436   6.151  1.2041  0.1040 -1.1896
  240MOL0     H32389   1.537  11.421   6.189 -1.0458 -1.3243 -1.6040
  240MOL0     H32390   1.494  11.659   6.154 -0.1631 -3.1998 -1.8418
  240MOL0     H32391   1.507  11.625   6.329  0.2662 -2.7346 -0.5691
  240MOL0     H32392   1.253  11.634   6.344  1.7476 -0.4761  1.4203
  240MOL0     H32393   1.252  11.669   6.167  0.5819  1.6347 -0.7990
  240MOL0     H32394   1.364  11.871   6.206  2.3033 -0.7183  0.7938
  240MOL0     H32395   1.214  11.865   6.306  0.2643  1.3246 -0.5073
  240MOL0     H32396   1.539  11.917   6.577 -0.2630  0.6484  0.9027
  240MOL0     H32397   1.619  11.278   6.423  2.9778 -2.0250 -1.0376
  240MOL0     H32398   1.763  11.118   6.454 -2.9765  1.7315 -0.4421
  240MOL0     H32399   1.710  10.950   6.495  1.4189 -0.9573 -0.5219
  240MOL0     H32400   1.757  10.990   6.331 -2.5233  1.0328 -1.0197
  241MOL0     O32401   1.006   5.475   8.440  0.8098 -1.1916 -0.8733
  241MOL0     C32402   0.957   5.484   8.329 -0.9021 -0.2018  0.8862
  241MOL0     O32403   1.005   5.569   8.231 -0.1762 -0.9591  0.7047
  241MOL0     C32404   1.067   5.685   8.264  0.3664 -0.3941 -0.3646
  241MOL0     C32405   1.190   5.690   8.340  0.3890 -0.2658 -0.2748
  241MOL0     C32406   1.250   5.812   8.374  0.4497  0.2472  0.4847
  241MOL0     C32407   1.187   5.932   8.334  0.4191 -0.3409 -0.6442
  241MOL0     O32408   1.253   6.049   8.365 -0.2597 -0.3281  0.5753
  241MOL0     C32409   1.186   6.148   8.440 -0.7359  0.1010  2.1447
  241MOL0     C32410   1.186   6.285   8.364  0.0160 -0.0449 -0.4424
  241MOL0     C32411   1.241   6.390   8.457 -0.6065 -0.6985 -0.8713
  241MOL0     C32412   1.228   6.542   8.417  0.5557 -0.2233  0.8094
  241MOL0     C32413   1.271   6.622   8.536  0.5837  0.0156 -0.2039
  241MOL0     C32414   1.275   6.774   8.522 -0.0956  0.9395 -0.6397
  241MOL0     C32415   1.327   6.846   8.645 -0.2618 -0.7371  0.5536
  241MOL0     C32416   1.355   6.986   8.615 -0.6361 -0.7215 -0.3116
  241MOL0     N32417   1.412   7.060   8.730  0.1153 -0.2584  0.4790
  241MOL0     C32418   1.398   7.024   8.859  0.3291 -0.1566 -0.7313
  241MOL0     C32419   1.475   7.118   8.923 -0.9343 -1.2710  0.1498
  241MOL0     C32420   1.465   7.144   9.080 -0.2474 -0.0553 -0.0239
  241MOL0     C32421   1.585   7.070   9.151 -0.3658  0.9835 -0.3746
  241MOL0     C32422   1.725   7.119   9.118  0.4423  0.2022 -0.3399
  241MOL0     C32423   1.831   7.055   9.217  0.3361  0.6596 -0.7035
  241MOL0     O32424   1.961   7.111   9.180  0.0994 -0.1666 -0.2918
  241MOL0     C32425   2.051   7.106   9.282  0.6509 -0.0185 -0.4716
  241MOL0     C32426   2.125   7.222   9.314  0.9318  0.6974 -0.1425
  241MOL0     C32427   2.241   7.214   9.391  0.0787 -1.0237  1.2619
  241MOL0     C32428   2.271   7.092   9.463 -0.3599  0.6749 -0.8008
  241MOL0     C32429   2.397   7.087   9.545  0.2366 -0.5239  0.2560
  241MOL0     O32430   2.472   7.202   9.538 -0.0782 -0.4207  0.1341
  241MOL0     C32431   2.594   7.202   9.600  0.0179  0.6177 -0.5145
  241MOL0     C32432   2.601   7.189   9.741 -0.6625  0.1325 -0.8951
  241MOL0     C32433   2.723   7.175   9.811  0.2956 -0.9128  0.4732
  241MOL0     C32434   2.835   7.175   9.738 -0.5991 -0.4722  0.4470
  241MOL0     O32435   2.953   7.177   9.819 -0.0679  0.6919  0.0260
  241MOL0     C32436   3.071   7.219   9.758  0.1648 -0.6861  0.2476
  241MOL0     C32437   3.195   7.202   9.849  0.5954 -0.2103  0.2042
  241MOL0     C32438   3.207   7.316   9.952  0.1573  0.5724  0.3548
  241MOL0     C32439   3.352   7.321  10.013  0.0396  0.1327 -0.5835
  241MOL0     C32440   3.341   7.389  10.153 -0.1667  0.1600  0.6516
  241MOL0     C32441   3.468   7.387  10.227  0.3662 -0.1749  1.0783
  241MOL0     C32442   3.506   7.253  10.281  0.1854  0.6173 -0.7338
  241MOL0     C32443   3.639   7.257  10.360  0.1484 -0.7933  0.3802
  241MOL0    Cl32444   3.643   7.358  10.500 -0.2135  0.5746 -0.1123
  241MOL0     C32445   2.832   7.197   9.598  0.2774 -0.1955 -0.2700
  241MOL0     C32446   2.715   7.200   9.529  0.5864 -0.0176  0.0090
  241MOL0     O32447   2.436   6.983   9.600 -0.5359 -0.8899  0.5539
  241MOL0     C32448   2.188   6.985   9.444 -0.7368  0.2463  0.5480
  241MOL0     C32449   2.093   6.984   9.341 -0.1789  0.4781  0.6818
  241MOL0     N32450   1.544   7.196   8.833  0.5439 -0.9758  0.4712
  241MOL0     N32451   1.497   7.168   8.719 -0.1106  0.4297 -0.4902
  241MOL0     C32452   1.055   5.925   8.269 -1.0486 -0.4850  0.4246
  241MOL0     C32453   1.002   5.803   8.237 -0.0964  0.5812 -0.0857
  241MOL0     C32454   0.857   5.379   8.298 -0.5491 -0.1706  0.7151
  241MOL0     C32455   0.778   5.328   8.398 -0.2472 -0.9759 -0.1221
  241MOL0     C32456   0.682   5.224   8.372  0.3668 -1.7766  0.5947
  241MOL0     C32457   0.671   5.159   8.250 -0.0242 -0.0163  0.9112
  241MOL0     O32458   0.583   5.057   8.242  0.1226  0.5316 -0.2661
  241MOL0     C32459   0.545   5.016   8.108  0.2076  0.5098  0.5671
  241MOL0     C32460   0.419   4.930   8.090 -0.4559  0.2058 -0.3416
  241MOL0     C32461   0.422   4.811   8.192  0.3214  0.4115 -0.1979
  241MOL0     C32462   0.283   4.740   8.207 -0.8440  0.2780  0.7024
  241MOL0     C32463   0.278   4.659   8.325 -0.5549  0.2219 -0.1768
  241MOL0     C32464   0.254   4.604   8.430  0.6033 -0.5108 -1.1756
  241MOL0     C32465   0.762   5.204   8.156  0.4354  0.3088 -0.6840
  241MOL0     C32466   0.840   5.318   8.171  0.0042  0.7525 -0.0045
  241MOL0     C32467   0.933   5.340   8.047  0.0197  0.6214 -0.4374
  241MOL0     H32468   1.251   5.606   8.372  3.6324  1.8311 -0.4795
  241MOL0     H32469   1.345   5.831   8.425  1.0302  4.2739 -1.6817
  241MOL0     H32470   1.084   6.120   8.467 -0.8443 -0.3854  1.2748
  241MOL0     H32471   1.250   6.159   8.528 -0.0820  0.8671  1.5884
  241MOL0     H32472   1.090   6.326   8.333 -0.0247 -0.2235 -0.5554
  241MOL0     H32473   1.254   6.267   8.280  0.4884 -1.6398  0.2396
  241MOL0     H32474   1.349   6.371   8.465 -0.7303 -1.4268 -0.8467
  241MOL0     H32475   1.207   6.373   8.560  1.0240  3.1194  0.4962
  241MOL0     H32476   1.280   6.566   8.323 -0.0139 -0.7475  0.3491
  241MOL0     H32477   1.121   6.557   8.405  0.5598  0.8658  1.9743
  241MOL0     H32478   1.204   6.592   8.618  0.7794 -0.7712 -0.3170
  241MOL0     H32479   1.372   6.590   8.563  0.2907  1.6893  3.4638
  241MOL0     H32480   1.347   6.801   8.444  1.3428 -3.9229 -1.3577
  241MOL0     H32481   1.177   6.818   8.503  0.1842  2.9619  2.1409
  241MOL0     H32482   1.420   6.796   8.675  1.5046  2.5371  1.0354
  241MOL0     H32483   1.250   6.828   8.720 -1.5792 -1.2143 -0.8551
  241MOL0     H32484   1.430   6.992   8.536  1.8812  1.4264  2.0174
  241MOL0     H32485   1.261   7.034   8.585 -0.2223  0.9548  0.9411
  241MOL0     H32486   1.329   6.953   8.904  0.6249 -0.5816 -0.9478
  241MOL0     H32487   1.455   7.245   9.121 -1.8724  0.2512 -1.0956
  241MOL0     H32488   1.377   7.085   9.110 -1.0315 -0.2763 -2.5258
  241MOL0     H32489   1.590   7.093   9.258  4.2452 -0.2380 -0.1446
  241MOL0     H32490   1.598   6.963   9.133  1.8702  0.9950  0.8530
  241MOL0     H32491   1.724   7.227   9.132 -1.0982  0.1831 -0.1381
  241MOL0     H32492   1.749   7.097   9.014  0.3761 -1.8556  0.0388
  241MOL0     H32493   1.833   6.949   9.189  0.8162  0.4986 -0.0580
  241MOL0     H32494   1.810   7.065   9.324  0.3875 -2.3956 -0.3160
  241MOL0     H32495   2.097   7.304   9.248  0.7789  1.3050  0.6706
  241MOL0     H32496   2.311   7.297   9.390 -0.1642 -0.8247  0.7125
  241MOL0     H32497   2.505   7.185   9.793  0.2626 -2.4985  0.7674
  241MOL0     H32498   2.720   7.164   9.919 -1.0992 -1.1510  0.4300
  241MOL0     H32499   3.088   7.161   9.667 -0.1841  1.3291 -1.1725
  241MOL0     H32500   3.059   7.324   9.728 -0.9481 -1.0667 -0.7008
  241MOL0     H32501   3.193   7.105   9.898  3.9210 -0.4716  0.1073
  241MOL0     H32502   3.275   7.203   9.774  1.0831  2.5200  0.6381
  241MOL0     H32503   3.165   7.409   9.911 -1.6084 -0.4015 -0.1493
  241MOL0     H32504   3.138   7.295  10.034  2.8150  1.1855  2.9011
  241MOL0     H32505   3.421   7.380   9.951  0.6296  0.2307  0.1472
  241MOL0     H32506   3.380   7.216  10.017 -2.2853 -0.5887 -1.6554
  241MOL0     H32507   3.264   7.342  10.215 -0.6770 -2.5941 -1.8428
  241MOL0     H32508   3.314   7.493  10.132 -3.0755 -0.4129  1.1012
  241MOL0     H32509   3.549   7.419  10.161 -0.9351 -1.8347 -1.4972
  241MOL0     H32510   3.457   7.456  10.311 -1.8180  0.1269  0.6116
  241MOL0     H32511   3.520   7.180  10.201 -1.6858  0.1893 -0.7021
  241MOL0     H32512   3.425   7.219  10.346  0.6344  1.6216  0.3856
  241MOL0     H32513   3.672   7.159  10.395  4.0136  0.0798 -0.3522
  241MOL0     H32514   3.722   7.285  10.295 -0.2705 -2.5430 -0.9957
  241MOL0     H32515   2.919   7.210   9.534  0.2618  2.6014  0.1399
  241MOL0     H32516   2.709   7.222   9.423  1.3560  0.7863  0.1216
  241MOL0     H32517   2.217   6.886   9.478 -0.5511 -0.2085 -0.8669
  241MOL0     H32518   2.050   6.888   9.315  1.6930  0.0068 -0.9052
  241MOL0     H32519   1.021   6.023   8.236  0.5549  0.2051  0.7178
  241MOL0     H32520   0.913   5.808   8.175 -0.9879  0.8429  1.1811
  241MOL0     H32521   0.787   5.364   8.501 -0.6116 -0.1270 -0.3729
  241MOL0     H32522   0.621   5.194   8.457 -0.4825  2.6394  1.7710
  241MOL0     H32523   0.629   4.962   8.063 -0.5550  0.2517 -0.6124
  241MOL0     H32524   0.542   5.102   8.041  0.9216 -0.2165 -0.4265
  241MOL0     H32525   0.438   4.884   7.992  0.6609 -0.7326  0.2922
  241MOL0     H32526   0.323   4.982   8.101 -0.3098  0.2763  0.6542
  241MOL0     H32527   0.460   4.846   8.289 -0.5264 -2.4523  1.2746
  241MOL0     H32528   0.491   4.730   8.167 -1.2658 -1.5624  1.5028
  241MOL0     H32529   0.199   4.808   8.200  0.9252  2.6026  0.8766
  241MOL0     H32530   0.273   4.668   8.125  1.3794  0.8161 -0.1096
  241MOL0     H32531   0.201   4.555   8.509  1.6888 -1.9990 -1.3330
  241MOL0     H32532   0.744   5.156   8.060 -2.2289  0.7110 -0.4689
  241MOL0     H32533   1.036   5.346   8.084 -0.4332  0.8042  0.8346
  241MOL0     H32534   0.922   5.255   7.980 -0.6625  1.0511 -0.8829
  241MOL0     H32535   0.917   5.432   7.990 -0.0367  1.4203  0.8161
  242MOL0     O32536   4.923   3.673   5.234  0.3129  0.3454  0.4074
  242MOL0     C32537   4.936   3.571   5.163  0.7718  0.2751 -1.0699
  242MOL0     O32538   5.050   3.502   5.160  0.5022 -0.2285  0.2424
  242MOL0     C32539   5.164   3.558   5.216 -0.3541  0.0719 -0.0325
  242MOL0     C32540   5.244   3.659   5.173 -0.1085 -0.4680 -0.1173
  242MOL0     C32541   5.353   3.699   5.242 -1.0683 -1.1872 -0.5824
  242MOL0     C32542   5.388   3.638   5.366  0.9249  0.0173 -0.3835
  242MOL0     O32543   5.501   3.662   5.436 -0.4124 -0.5101 -0.7146
  242MOL0     C32544   5.602   3.746   5.394 -0.5470 -0.2311  0.3475
  242MOL0     C32545   5.684   3.700   5.273  0.6525  0.0884 -0.3290
  242MOL0     C32546   5.755   3.567   5.278  0.3297  0.3940  0.7404
  242MOL0     C32547   5.668   3.445   5.251 -0.3300 -0.7245  0.3195
  242MOL0     C32548   5.749   3.315   5.253  0.3213 -0.7751 -0.2785
  242MOL0     C32549   5.643   3.207   5.241  0.5982  0.2098  0.4338
  242MOL0     C32550   5.705   3.065   5.232  0.2647 -0.3291 -0.7658
  242MOL0     C32551   5.742   3.002   5.366  0.2691  0.9709  0.1787
  242MOL0     N32552   5.797   2.871   5.346  0.1559 -0.5460 -0.7060
  242MOL0     C32553   5.735   2.757   5.298 -0.1597 -1.4504  0.8959
  242MOL0     C32554   5.811   2.653   5.331  0.3033  0.9368 -0.0375
  242MOL0     C32555   5.791   2.505   5.300 -0.3985 -0.3465  0.5568
  242MOL0     C32556   5.697   2.431   5.397  0.9225  0.7933 -0.0883
  242MOL0     C32557   5.752   2.412   5.535  0.6025  0.6388  0.3890
  242MOL0     C32558   5.899   2.378   5.562 -0.7197 -0.1933 -0.3750
  242MOL0     O32559   5.927   2.245   5.516 -0.3453 -0.2055 -0.0741
  242MOL0     C32560   6.056   2.204   5.531  0.5020 -0.6093  0.1708
  242MOL0     C32561   6.060   2.063   5.537  0.0002 -0.8183  0.0324
  242MOL0     C32562   6.181   1.994   5.543 -0.3753 -0.4184  0.6186
  242MOL0     C32563   6.303   2.057   5.533 -0.5483  0.7898  0.1232
  242MOL0     C32564   6.427   1.980   5.539  0.0852 -0.5687 -0.1645
  242MOL0     O32565   6.421   1.853   5.581  0.1559 -0.4057 -0.1418
  242MOL0     C32566   6.539   1.783   5.570 -0.7786  0.0225  1.1394
  242MOL0     C32567   6.576   1.699   5.676  0.0775 -0.0394 -0.1242
  242MOL0     C32568   6.687   1.609   5.671  0.1122  0.0305  0.3453
  242MOL0     C32569   6.765   1.598   5.548  0.5822  0.7637 -1.0801
  242MOL0     O32570   6.878   1.521   5.539  0.4616  0.0767  0.1817
  242MOL0     C32571   6.874   1.418   5.440 -0.5228  0.0844  0.3520
  242MOL0     C32572   6.894   1.285   5.501 -0.5326 -1.2199  0.1715
  242MOL0     C32573   6.907   1.164   5.408  0.5000 -0.4969 -0.7118
  242MOL0     C32574   7.006   1.201   5.292 -0.2201  0.2178  0.5103
  242MOL0     C32575   7.013   1.086   5.195 -0.2058  0.5780 -0.2172
  242MOL0     C32576   7.105   1.118   5.078 -0.3644  0.5738 -1.1392
  242MOL0     C32577   7.072   1.052   4.950 -0.4527 -0.0387 -0.5821
  242MOL0     C32578   7.161   1.091   4.835  0.7528 -1.1269  0.2236
  242MOL0    Cl32579   7.340   1.086   4.859 -0.4126 -0.0288 -0.1217
  242MOL0     C32580   6.719   1.676   5.440  0.3433 -0.2953  0.1993
  242MOL0     C32581   6.601   1.762   5.450 -0.4139  0.5325  0.1878
  242MOL0     O32582   6.521   2.039   5.499 -0.0895 -0.9098  0.3298
  242MOL0     C32583   6.297   2.205   5.543 -0.8359  1.0775 -0.3297
  242MOL0     C32584   6.173   2.273   5.535 -0.7791  0.6297  0.2282
  242MOL0     N32585   5.925   2.703   5.384  0.2269 -0.0431 -0.5734
  242MOL0     N32586   5.917   2.830   5.395 -0.6203 -0.6492  0.0142
  242MOL0     C32587   5.307   3.540   5.414  0.5868 -0.2025 -0.2883
  242MOL0     C32588   5.196   3.503   5.336 -1.4189  0.3816  0.5672
  242MOL0     C32589   4.830   3.533   5.070  0.0228  0.3672 -0.4709
  242MOL0     C32590   4.867   3.455   4.967  0.0918 -0.2940  0.3089
  242MOL0     C32591   4.786   3.423   4.861  0.4027  0.0019  0.0739
  242MOL0     C32592   4.654   3.470   4.858 -0.1192  0.4037 -1.0340
  242MOL0     O32593   4.573   3.428   4.747 -0.2134 -0.1929  0.3700
  242MOL0     C32594   4.446   3.493   4.736  0.0274  0.0815 -0.7618
  242MOL0     C32595   4.358   3.402   4.651 -0.0700  0.3685 -0.7866
  242MOL0     C32596   4.215   3.442   4.677 -0.5704 -0.1549 -0.4653
  242MOL0     C32597   4.117   3.328   4.666 -0.0573  0.5899 -0.1090
  242MOL0     C32598   4.118   3.246   4.541 -0.6850  0.6393  0.6769
  242MOL0     C32599   4.113   3.182   4.430  1.1011 -0.1936  0.3560
  242MOL0     C32600   4.612   3.546   4.969 -0.5888 -1.0602 -0.8855
  242MOL0     C32601   4.702   3.582   5.072 -0.2803 -0.1626  1.0334
  242MOL0     C32602   4.651   3.674   5.178 -0.1613  0.0171  1.1646
  242MOL0     H32603   5.204   3.705   5.083 -1.5406 -2.6681 -0.6871
  242MOL0     H32604   5.410   3.779   5.196 -0.1219 -1.4956  0.0242
  242MOL0     H32605   5.554   3.844   5.391 -0.8300 -0.3829 -0.2659
  242MOL0     H32606   5.673   3.752   5.478 -0.5033 -3.4512  0.6590
  242MOL0     H32607   5.758   3.779   5.256  1.1992 -0.3503 -0.0490
  242MOL0     H32608   5.626   3.693   5.181  1.7226  1.5754 -1.1504
  242MOL0     H32609   5.811   3.563   5.372 -1.3852  1.6452  1.8599
  242MOL0     H32610   5.832   3.559   5.201 -0.1222  1.5359  0.1526
  242MOL0     H32611   5.601   3.457   5.336  0.5488  0.4419  0.8850
  242MOL0     H32612   5.617   3.451   5.155  1.1773 -2.1230 -0.6324
  242MOL0     H32613   5.822   3.315   5.171 -0.7935 -0.3117 -1.2947
  242MOL0     H32614   5.806   3.317   5.346  2.1049  0.9587 -1.3252
  242MOL0     H32615   5.561   3.226   5.310  1.5073  1.0459  1.3072
  242MOL0     H32616   5.591   3.236   5.149  2.5658  0.4354 -0.6811
  242MOL0     H32617   5.791   3.053   5.165  0.9106 -2.3370  0.3258
  242MOL0     H32618   5.622   3.002   5.199 -1.9128  1.1557  1.5653
  242MOL0     H32619   5.823   3.059   5.413 -0.2852 -1.1636  4.1452
  242MOL0     H32620   5.654   2.994   5.430  2.4127 -1.2523  3.1192
  242MOL0     H32621   5.635   2.749   5.256  0.4456 -0.2176 -0.8463
  242MOL0     H32622   5.751   2.495   5.199  2.8784 -1.7391 -0.7357
  242MOL0     H32623   5.884   2.448   5.292 -1.4836 -2.0800 -0.5176
  242MOL0     H32624   5.601   2.483   5.394  1.2835  1.6081  1.2645
  242MOL0     H32625   5.685   2.326   5.370  3.7603 -0.1240  1.7833
  242MOL0     H32626   5.697   2.331   5.585  0.6247  0.8168  0.7018
  242MOL0     H32627   5.721   2.498   5.594 -3.9318 -0.8274  0.5375
  242MOL0     H32628   5.917   2.380   5.670 -1.8555  2.4628 -0.1646
  242MOL0     H32629   5.966   2.454   5.520 -0.0401 -0.8034 -0.4185
  242MOL0     H32630   5.962   2.017   5.543 -0.0699 -0.4656  3.7242
  242MOL0     H32631   6.167   1.887   5.547  2.9583 -0.9209  0.9834
  242MOL0     H32632   6.533   1.718   5.773  0.9943 -0.3573  0.3614
  242MOL0     H32633   6.709   1.562   5.766 -1.4753  2.5637  2.0787
  242MOL0     H32634   6.784   1.435   5.381  1.7703  3.7965 -2.5698
  242MOL0     H32635   6.957   1.454   5.378 -1.2365  1.7175  0.2814
  242MOL0     H32636   6.981   1.283   5.567 -0.3004  0.3293 -0.0391
  242MOL0     H32637   6.808   1.273   5.568 -1.0131 -0.5463 -0.3069
  242MOL0     H32638   6.941   1.072   5.458 -0.8509 -1.2295 -1.0885
  242MOL0     H32639   6.812   1.134   5.362  1.8029 -4.1091 -1.3838
  242MOL0     H32640   7.106   1.224   5.331  0.6046 -1.1567 -0.6859
  242MOL0     H32641   6.967   1.286   5.236  0.9654  0.6518  0.3179
  242MOL0     H32642   6.917   1.073   5.144  0.2553 -1.2263 -0.7100
  242MOL0     H32643   7.043   0.989   5.236 -1.8744 -1.0015 -2.4622
  242MOL0     H32644   7.111   1.227   5.063  1.7043  0.6772  0.0666
  242MOL0     H32645   7.204   1.080   5.107 -0.3193  1.3151 -0.3038
  242MOL0     H32646   6.970   1.082   4.926 -1.1931 -1.0947  1.1003
  242MOL0     H32647   7.083   0.943   4.960 -0.0490  0.0484 -0.0136
  242MOL0     H32648   7.132   1.032   4.747  0.0313  1.2067 -1.2090
  242MOL0     H32649   7.134   1.191   4.800 -0.7237 -1.9047 -1.0124
  242MOL0     H32650   6.763   1.676   5.340 -3.3821 -0.9723 -1.6467
  242MOL0     H32651   6.565   1.813   5.361  0.8974  2.2040  0.5608
  242MOL0     H32652   6.387   2.266   5.550  0.6132 -0.5111 -3.3520
  242MOL0     H32653   6.163   2.380   5.553 -0.2914  0.8581 -0.7592
  242MOL0     H32654   5.332   3.488   5.506 -2.8437 -0.7957  0.4251
  242MOL0     H32655   5.167   3.404   5.371  0.8483 -0.7686 -0.6061
  242MOL0     H32656   4.967   3.414   4.954  0.3597  0.8894 -1.8026
  242MOL0     H32657   4.842   3.369   4.785 -0.7073 -0.8651 -0.1501
  242MOL0     H32658   4.461   3.580   4.671  1.3264  2.1389  2.0685
  242MOL0     H32659   4.402   3.516   4.834 -0.6457  1.0594 -1.2723
  242MOL0     H32660   4.372   3.294   4.651 -0.0903  0.3641 -1.1077
  242MOL0     H32661   4.391   3.417   4.547  3.2049 -1.2155 -0.0876
  242MOL0     H32662   4.190   3.520   4.605  1.2136  1.7990  0.9309
  242MOL0     H32663   4.202   3.489   4.774  2.6855 -1.0166  0.5124
  242MOL0     H32664   4.138   3.256   4.746  1.5717 -1.3119 -2.1231
  242MOL0     H32665   4.017   3.371   4.677 -1.2922 -1.9689 -0.6781
  242MOL0     H32666   4.127   3.115   4.347  1.9530  1.6366 -1.0438
  242MOL0     H32667   4.518   3.598   4.982  0.8354  0.9588  2.6531
  242MOL0     H32668   4.672   3.632   5.277 -1.7891  0.1550  1.5898
  242MOL0     H32669   4.704   3.770   5.165 -1.2670  0.6569  1.2395
  242MOL0     H32670   4.544   3.690   5.163  0.2354  0.0502 -2.4409
  243MOL0     O32671   9.252   9.227   3.920  0.0585  0.0752 -0.5231
  243MOL0     C32672   9.357   9.296   3.912  0.0240 -0.4444  0.0529
  243MOL0     O32673   9.381   9.426   3.959  0.2194  0.3071 -0.4039
  243MOL0     C32674   9.277   9.499   4.013 -0.0390  0.0263 -1.1464
  243MOL0     C32675   9.277   9.639   4.001  0.7286  0.7573 -0.2978
  243MOL0     C32676   9.195   9.722   4.068  0.0714 -0.1437 -0.7974
  243MOL0     C32677   9.085   9.668   4.146  0.1188 -0.2740  1.0772
  243MOL0     O32678   8.977   9.754   4.175  0.1281  0.0479  0.5570
  243MOL0     C32679   8.837   9.711   4.206  0.3566  0.4146 -0.1736
  243MOL0     C32680   8.791   9.775   4.333 -0.5653 -0.0866  0.4599
  243MOL0     C32681   8.908   9.816   4.437  0.0806  0.1684  0.2724
  243MOL0     C32682   8.849   9.863   4.571  1.1229  1.0463  0.4831
  243MOL0     C32683   8.942   9.868   4.686  0.3324  0.2536  0.8435
  243MOL0     C32684   9.038   9.986   4.675  1.2463 -0.6282 -0.5023
  243MOL0     C32685   9.136   9.976   4.796 -1.3695  0.0085  0.3566
  243MOL0     C32686   9.086  10.072   4.904 -0.8273  0.0544  0.0860
  243MOL0     N32687   8.952  10.045   4.959 -0.4968  0.0664  0.1219
  243MOL0     C32688   8.832  10.094   4.910  0.5828 -0.1140 -0.2355
  243MOL0     C32689   8.744  10.088   5.013 -0.0236 -0.0178 -0.1890
  243MOL0     C32690   8.600  10.138   5.005  0.7772  0.2688 -0.5103
  243MOL0     C32691   8.519  10.053   4.913  0.3222 -0.4084  0.2529
  243MOL0     C32692   8.370  10.077   4.942  0.0069  0.1178  0.1152
  243MOL0     C32693   8.284   9.970   4.872  0.3600  0.3384  0.5346
  243MOL0     O32694   8.141  10.000   4.871 -0.5743 -0.2777 -1.0609
  243MOL0     C32695   8.047   9.909   4.831  0.2485 -0.2525  1.0797
  243MOL0     C32696   8.082   9.782   4.792 -1.1590  0.3023 -0.5658
  243MOL0     C32697   7.983   9.695   4.743 -0.6023 -0.0217  0.5732
  243MOL0     C32698   7.851   9.741   4.736 -0.2671  0.3826  0.2920
  243MOL0     C32699   7.745   9.660   4.682  0.4900 -0.6340  0.8182
  243MOL0     O32700   7.644   9.649   4.766  0.1570  0.0170 -0.3162
  243MOL0     C32701   7.542   9.559   4.739 -0.6572 -0.5588 -0.0289
  243MOL0     C32702   7.454   9.579   4.631 -0.1300  0.5635  0.2666
  243MOL0     C32703   7.354   9.492   4.613 -0.4688  0.4651  0.6708
  243MOL0     C32704   7.328   9.378   4.692  0.6651 -0.3454  0.4394
  243MOL0     O32705   7.224   9.298   4.663  0.3591  0.4301  0.5975
  243MOL0     C32706   7.128   9.327   4.562  0.4586  0.2335  0.6572
  243MOL0     C32707   7.023   9.210   4.561 -0.0866 -0.3898 -1.0091
  243MOL0     C32708   6.930   9.228   4.452 -0.5018 -0.0377  0.1500
  243MOL0     C32709   6.849   9.099   4.429  1.6307 -0.7838 -0.0515
  243MOL0     C32710   6.733   9.135   4.348  1.0624 -0.1848  0.5676
  243MOL0     C32711   6.653   9.006   4.313  0.3416 -0.0594  0.8352
  243MOL0     C32712   6.513   9.057   4.279 -0.1524  0.1375 -0.5983
  243MOL0     C32713   6.416   8.939   4.286 -0.4249 -0.1997 -0.7318
  243MOL0    Cl32714   6.249   8.995   4.229 -0.8644 -0.0006  0.1403
  243MOL0     C32715   7.413   9.361   4.802 -0.4191  0.2765 -0.1139
  243MOL0     C32716   7.519   9.454   4.826 -0.3033 -0.3338 -0.3066
  243MOL0     O32717   7.759   9.603   4.577  0.6801  0.7164  0.0154
  243MOL0     C32718   7.817   9.867   4.795  0.1769  0.0021  0.0334
  243MOL0     C32719   7.915   9.950   4.835  0.9892  0.1240  0.1925
  243MOL0     N32720   8.802  10.033   5.120 -0.5140 -0.4114 -0.2147
  243MOL0     N32721   8.932  10.022   5.091  0.9026  0.6102  0.7868
  243MOL0     C32722   9.074   9.529   4.154  0.0744  0.3314  2.0554
  243MOL0     C32723   9.174   9.444   4.099 -0.4291 -0.0175 -0.1538
  243MOL0     C32724   9.463   9.228   3.824  0.3106  0.0651  0.3339
  243MOL0     C32725   9.443   9.090   3.810  0.9209  0.0981  0.3200
  243MOL0     C32726   9.539   9.014   3.746  0.1706  0.3411 -0.0603
  243MOL0     C32727   9.660   9.068   3.699  0.4287 -0.2759  0.4552
  243MOL0     O32728   9.759   8.999   3.631 -0.0363  0.2280  0.4262
  243MOL0     C32729   9.724   8.882   3.552 -0.5749 -0.2025 -0.0278
  243MOL0     C32730   9.747   8.761   3.642  0.2702 -0.2693  0.5163
  243MOL0     C32731   9.885   8.691   3.613 -0.0077 -1.0208  0.2047
  243MOL0     C32732   9.939   8.616   3.730  0.2456  0.0452  0.4150
  243MOL0     C32733   9.822   8.532   3.782 -0.8490  0.7115  0.6170
  243MOL0     C32734   9.728   8.464   3.821  0.3885 -0.0840 -0.6707
  243MOL0     C32735   9.675   9.210   3.704  0.4094  0.6143  0.0881
  243MOL0     C32736   9.573   9.282   3.766 -0.1715 -0.4869  0.2382
  243MOL0     C32737   9.603   9.434   3.766 -0.1386  0.0727 -0.7151
  243MOL0     H32738   9.363   9.676   3.946  1.9411  0.9223  1.6099
  243MOL0     H32739   9.206   9.830   4.065  5.0655 -0.4376 -0.8935
  243MOL0     H32740   8.761   9.721   4.127 -1.0973 -0.7950  1.0211
  243MOL0     H32741   8.836   9.603   4.217  0.3976  0.4665  0.3412
  243MOL0     H32742   8.714   9.711   4.377 -1.8043  1.8643  1.2103
  243MOL0     H32743   8.731   9.865   4.319  0.6293  1.1569  2.8709
  243MOL0     H32744   8.972   9.897   4.401 -0.7028  1.7728  2.3051
  243MOL0     H32745   8.966   9.728   4.466  1.9186  1.9093  2.1176
  243MOL0     H32746   8.800   9.959   4.551 -1.1006 -0.5156 -2.4058
  243MOL0     H32747   8.760   9.802   4.590  2.1812 -0.6972  0.1022
  243MOL0     H32748   8.870   9.883   4.767 -1.6550  0.5756 -0.9157
  243MOL0     H32749   9.008   9.782   4.702  0.5118  0.0141 -0.9678
  243MOL0     H32750   9.113   9.983   4.595  1.1905  1.5286 -0.6949
  243MOL0     H32751   8.976  10.076   4.680  1.3912 -0.5752  0.5726
  243MOL0     H32752   9.237  10.006   4.766 -0.9622 -2.4999 -1.0239
  243MOL0     H32753   9.144   9.876   4.841  3.3663 -0.3347 -0.7146
  243MOL0     H32754   9.159  10.060   4.985 -1.7163  0.7242  1.0148
  243MOL0     H32755   9.090  10.175   4.868  2.5817 -0.3867 -1.1335
  243MOL0     H32756   8.801  10.139   4.816 -1.0353  3.9265  1.9400
  243MOL0     H32757   8.561  10.156   5.105  3.1735 -0.3970  0.6225
  243MOL0     H32758   8.615  10.241   4.969 -1.7406  0.7518 -0.3636
  243MOL0     H32759   8.545  10.087   4.812 -4.1315  0.4255 -0.8558
  243MOL0     H32760   8.539   9.946   4.913 -3.9583 -1.4200 -1.1896
  243MOL0     H32761   8.346  10.179   4.908  0.8767 -0.7566 -3.5730
  243MOL0     H32762   8.346  10.066   5.048 -1.2206  3.1920  0.2579
  243MOL0     H32763   8.298   9.871   4.917  2.3947 -1.0181 -2.7668
  243MOL0     H32764   8.324   9.969   4.770 -2.0207 -0.6926 -0.4786
  243MOL0     H32765   8.186   9.756   4.800 -0.8157  1.7896  0.2784
  243MOL0     H32766   8.020   9.599   4.708  0.2386  0.1530  0.9571
  243MOL0     H32767   7.458   9.666   4.566  2.0893 -0.0372 -0.4903
  243MOL0     H32768   7.287   9.521   4.532  0.3425  0.6417  0.0431
  243MOL0     H32769   7.102   9.431   4.584 -0.9191 -0.2332  1.3348
  243MOL0     H32770   7.173   9.322   4.462 -0.3067 -1.7393  0.3602
  243MOL0     H32771   7.075   9.114   4.554  3.0897  1.0147  1.0917
  243MOL0     H32772   6.987   9.211   4.665  3.0456  1.3289  0.1778
  243MOL0     H32773   6.866   9.312   4.479  0.1698  0.0193  1.6261
  243MOL0     H32774   6.991   9.253   4.364  1.1417 -0.8580  1.0173
  243MOL0     H32775   6.817   9.065   4.528  3.7957  1.8735  1.6864
  243MOL0     H32776   6.897   9.011   4.385 -2.1189 -2.4483 -1.2481
  243MOL0     H32777   6.765   9.178   4.253 -3.9057 -2.0252 -2.3561
  243MOL0     H32778   6.674   9.208   4.404  0.5243  0.2545 -0.5500
  243MOL0     H32779   6.701   8.943   4.237  0.0753 -0.5102  1.0414
  243MOL0     H32780   6.662   8.948   4.405  0.1724  0.1421  0.9787
  243MOL0     H32781   6.517   9.097   4.177  2.3894 -0.3580 -0.7589
  243MOL0     H32782   6.480   9.144   4.336  1.6398  2.0327 -2.2969
  243MOL0     H32783   6.440   8.847   4.233  0.1549 -0.2789 -0.3445
  243MOL0     H32784   6.399   8.914   4.391 -1.3658  2.1558 -0.2483
  243MOL0     H32785   7.405   9.271   4.862  1.1346 -0.6542 -1.2394
  243MOL0     H32786   7.590   9.439   4.906  1.2264 -0.9857 -1.7350
  243MOL0     H32787   7.718   9.911   4.784  2.0500  4.8898 -0.0491
  243MOL0     H32788   7.889  10.052   4.864  0.6431 -0.2667  1.2914
  243MOL0     H32789   8.990   9.493   4.212 -0.4700 -0.9506  0.5578
  243MOL0     H32790   9.179   9.343   4.138  0.8979  0.2556  0.4184
  243MOL0     H32791   9.365   9.036   3.863  1.6799 -3.0606 -1.4951
  243MOL0     H32792   9.516   8.908   3.734  0.7409  0.2815 -0.6961
  243MOL0     H32793   9.783   8.878   3.459 -2.0182  1.0849 -1.0498
  243MOL0     H32794   9.625   8.895   3.507 -0.3024 -0.5265 -0.7396
  243MOL0     H32795   9.664   8.692   3.654  1.1197 -0.9297  3.2606
  243MOL0     H32796   9.749   8.800   3.744 -2.8826  1.3236  0.0791
  243MOL0     H32797   9.958   8.762   3.575  0.0923 -1.7598 -1.0605
  243MOL0     H32798   9.868   8.618   3.533 -1.6443  2.1277 -2.5324
  243MOL0     H32799  10.025   8.550   3.711 -0.2352 -1.3984  2.8169
  243MOL0     H32800   9.976   8.680   3.811 -1.1203  3.0627 -1.1997
  243MOL0     H32801   9.651   8.401   3.859  0.0378  2.0173  2.5046
  243MOL0     H32802   9.772   9.251   3.675 -1.0305  2.2596 -2.9198
  243MOL0     H32803   9.598   9.468   3.870  1.8452  0.0084 -0.5758
  243MOL0     H32804   9.701   9.462   3.728  0.7486  1.2883  2.1598
  243MOL0     H32805   9.522   9.478   3.707 -2.3673 -2.0711  0.5464
  244MOL0     O32806   8.425  10.310   2.035 -0.1983  0.2597  0.4645
  244MOL0     C32807   8.529  10.250   1.991  0.4976  0.4124 -0.4462
  244MOL0     O32808   8.613  10.314   1.908 -0.6033  0.4556 -0.6060
  244MOL0     C32809   8.630  10.449   1.927  0.9085 -0.5231  0.8429
  244MOL0     C32810   8.568  10.548   1.843 -0.0104 -0.2925  0.2541
  244MOL0     C32811   8.588  10.682   1.859 -0.1491  0.5903 -0.4845
  244MOL0     C32812   8.676  10.729   1.955  0.3630 -0.2113  0.2974
  244MOL0     O32813   8.690  10.863   1.971  0.2665 -0.5262 -0.2481
  244MOL0     C32814   8.750  10.914   1.846 -0.2576  0.4749  0.1505
  244MOL0     C32815   8.850  11.026   1.859  0.4977 -0.2095 -0.6169
  244MOL0     C32816   8.773  11.161   1.890 -0.4845 -1.0395  0.6110
  244MOL0     C32817   8.863  11.282   1.908  0.2738  0.4050 -0.0784
  244MOL0     C32818   8.937  11.270   2.041 -0.1806 -1.0661 -0.8574
  244MOL0     C32819   9.080  11.331   2.035 -0.1409 -0.0331  0.7601
  244MOL0     C32820   9.126  11.357   2.178 -0.8102 -0.2613  0.9061
  244MOL0     C32821   9.263  11.442   2.162 -0.4447 -0.1631 -0.8088
  244MOL0     N32822   9.369  11.365   2.090 -0.0197  0.1296 -0.6384
  244MOL0     C32823   9.427  11.252   2.141  0.0467 -0.3429 -0.8151
  244MOL0     C32824   9.528  11.220   2.049  0.1177 -0.0210  0.0754
  244MOL0     C32825   9.628  11.110   2.069 -0.3294  0.3856  0.2443
  244MOL0     C32826   9.707  11.077   1.940 -0.5307 -0.1403 -0.4159
  244MOL0     C32827   9.832  11.155   1.938 -0.1781  0.1962 -1.0647
  244MOL0     C32828   9.909  11.118   1.812 -0.2983 -0.1163  0.2922
  244MOL0     O32829   9.988  11.001   1.805  0.1853  0.8227 -0.5318
  244MOL0     C32830  10.062  10.982   1.695 -0.0452 -0.1311 -0.3674
  244MOL0     C32831  10.006  10.995   1.564  0.1864 -0.0234 -0.1061
  244MOL0     C32832  10.080  10.973   1.453  0.0961 -0.0208 -0.3101
  244MOL0     C32833  10.217  10.928   1.464  0.5685  0.2189  0.6100
  244MOL0     C32834  10.284  10.891   1.337  0.7861  0.3617  0.3534
  244MOL0     O32835  10.412  10.848   1.341  0.4025  0.2840 -0.0061
  244MOL0     C32836  10.468  10.764   1.247 -0.5230  1.1200  0.5617
  244MOL0     C32837  10.445  10.754   1.113  0.9714 -0.0950  0.2169
  244MOL0     C32838  10.512  10.656   1.036  0.6143  0.8691  0.2111
  244MOL0     C32839  10.616  10.584   1.090 -0.5938  1.5051  0.4353
  244MOL0     O32840  10.675  10.502   1.005 -0.0330 -0.3011  0.4252
  244MOL0     C32841  10.782  10.431   1.056  1.0020 -0.5528 -0.6606
  244MOL0     C32842  10.850  10.356   0.942  0.6214  0.3414  0.3741
  244MOL0     C32843  10.970  10.276   0.996 -0.5904  0.6556  0.4122
  244MOL0     C32844  11.090  10.368   1.013 -0.6749  0.8556 -0.2542
  244MOL0     C32845  11.190  10.315   1.119  0.0273  0.0944 -0.2378
  244MOL0     C32846  11.278  10.434   1.166 -0.0752  0.9700 -0.4290
  244MOL0     C32847  11.386  10.392   1.275  0.2060  0.3453  0.7491
  244MOL0     C32848  11.458  10.527   1.324 -0.4225  0.2791  0.2922
  244MOL0    Cl32849  11.559  10.616   1.196 -0.2505 -0.0708 -0.1197
  244MOL0     C32850  10.647  10.594   1.231  0.4004  0.5946  0.8886
  244MOL0     C32851  10.571  10.686   1.301 -0.2449  0.2924 -0.4114
  244MOL0     O32852  10.218  10.904   1.236  0.5258 -0.1003  0.8589
  244MOL0     C32853  10.270  10.910   1.597 -0.0604 -0.0404 -0.0481
  244MOL0     C32854  10.197  10.933   1.717  0.0321 -1.2906  0.2364
  244MOL0     N32855   9.514  11.310   1.945  0.2096  0.3701  0.4223
  244MOL0     N32856   9.421  11.397   1.970  0.1743  0.3821 -0.6816
  244MOL0     C32857   8.725  10.630   2.039  0.5840 -0.5633 -0.4083
  244MOL0     C32858   8.703  10.491   2.033  0.7805 -0.6370  0.7642
  244MOL0     C32859   8.532  10.095   2.028 -0.2652 -0.1007 -0.3753
  244MOL0     C32860   8.427  10.048   2.107 -0.7995  0.0991 -1.0932
  244MOL0     C32861   8.436   9.916   2.157  0.6207 -0.3381  0.7872
  244MOL0     C32862   8.533   9.826   2.126  0.1384 -0.5571 -0.0950
  244MOL0     O32863   8.518   9.694   2.160  0.4197  0.6788  0.8660
  244MOL0     C32864   8.615   9.602   2.113  0.5416  0.7853 -0.9800
  244MOL0     C32865   8.620   9.565   1.968 -0.6818 -0.1833 -0.7207
  244MOL0     C32866   8.480   9.541   1.917 -0.0099 -0.2349 -0.5567
  244MOL0     C32867   8.477   9.538   1.760  0.0734  0.1888 -0.3498
  244MOL0     C32868   8.542   9.657   1.702 -0.3839  1.0721  0.0681
  244MOL0     C32869   8.604   9.752   1.649  0.1665 -0.1643 -0.5985
  244MOL0     C32870   8.651   9.883   2.061 -0.9119 -0.0351 -0.5909
  244MOL0     C32871   8.649  10.011   2.000  0.6767 -0.2736 -0.1751
  244MOL0     C32872   8.769  10.053   1.922 -0.0467  0.3873  0.5726
  244MOL0     H32873   8.500  10.516   1.765  0.1564 -0.0878  0.0253
  244MOL0     H32874   8.532  10.751   1.796 -0.0064 -0.1684 -1.4686
  244MOL0     H32875   8.802  10.830   1.801 -0.5982 -2.0232  3.9351
  244MOL0     H32876   8.677  10.949   1.772 -1.2801  2.3782  1.9361
  244MOL0     H32877   8.923  11.043   1.780 -2.2969  3.2628 -2.7713
  244MOL0     H32878   8.894  10.994   1.953  0.1432 -2.6380 -1.2116
  244MOL0     H32879   8.716  11.152   1.983 -0.5027  0.3517  0.7574
  244MOL0     H32880   8.699  11.173   1.810  1.9920 -0.7664 -1.8038
  244MOL0     H32881   8.935  11.290   1.826 -0.6828  1.9882 -0.8032
  244MOL0     H32882   8.801  11.371   1.894  0.2275  0.4650  0.4710
  244MOL0     H32883   8.876  11.327   2.113  0.3889 -1.4404 -0.0625
  244MOL0     H32884   8.935  11.171   2.089 -1.6453 -0.1890  1.0577
  244MOL0     H32885   9.140  11.257   1.983 -2.5529 -2.0367  0.6486
  244MOL0     H32886   9.080  11.424   1.977  3.0199 -0.4379 -0.0896
  244MOL0     H32887   9.149  11.261   2.224  2.1140  1.4074  3.3396
  244MOL0     H32888   9.039  11.398   2.230 -3.2516 -3.7777 -0.0484
  244MOL0     H32889   9.235  11.533   2.108 -0.2580  1.2086  1.2781
  244MOL0     H32890   9.308  11.464   2.259  3.2405 -2.1120 -1.8788
  244MOL0     H32891   9.408  11.206   2.238  2.3716 -0.1945 -0.2434
  244MOL0     H32892   9.696  11.125   2.153  0.1147 -0.5646  0.0585
  244MOL0     H32893   9.566  11.020   2.077 -0.6635  0.2149 -3.0418
  244MOL0     H32894   9.730  10.971   1.950  2.3499  0.6045  4.0713
  244MOL0     H32895   9.640  11.104   1.858 -0.8329  2.2356  0.5456
  244MOL0     H32896   9.899  11.141   2.024 -0.7054 -0.5505 -0.7587
  244MOL0     H32897   9.803  11.260   1.941 -3.1788 -0.4637  3.6396
  244MOL0     H32898   9.971  11.200   1.776 -2.1797  0.2057 -2.5730
  244MOL0     H32899   9.827  11.108   1.740  0.1226  2.2072 -0.5963
  244MOL0     H32900   9.905  11.032   1.550  0.1069  0.8969  2.3422
  244MOL0     H32901  10.018  10.979   1.365 -0.7900 -1.2314  0.2030
  244MOL0     H32902  10.380  10.826   1.064 -0.2260 -1.9862 -1.1045
  244MOL0     H32903  10.504  10.650   0.928 -0.9523 -0.6517  0.3655
  244MOL0     H32904  10.858  10.483   1.115 -0.3968 -2.2778  2.9302
  244MOL0     H32905  10.742  10.352   1.119  0.5875 -0.7841 -1.2049
  244MOL0     H32906  10.776  10.286   0.904 -0.5612 -0.3691  3.7416
  244MOL0     H32907  10.885  10.421   0.861 -2.9162  0.7776 -0.9857
  244MOL0     H32908  10.942  10.231   1.091  2.7955 -2.2085  0.2952
  244MOL0     H32909  10.995  10.196   0.925  1.1688  0.0595  1.6291
  244MOL0     H32910  11.061  10.469   1.044 -0.7980  0.9769 -0.7525
  244MOL0     H32911  11.147  10.385   0.921  2.0770  0.1443  1.1781
  244MOL0     H32912  11.247  10.227   1.090 -0.8641  0.2080 -2.5210
  244MOL0     H32913  11.136  10.275   1.205 -1.3672 -3.9756 -2.7486
  244MOL0     H32914  11.320  10.489   1.082  2.6448 -0.2310  0.0299
  244MOL0     H32915  11.207  10.505   1.210  0.8838  2.8278 -1.7841
  244MOL0     H32916  11.461  10.328   1.228 -1.0412  1.2791 -2.7800
  244MOL0     H32917  11.338  10.346   1.362 -1.7683 -0.6776 -0.8208
  244MOL0     H32918  11.368  10.586   1.343 -1.1685 -0.7326  0.0136
  244MOL0     H32919  11.522  10.507   1.410  0.8723  2.5708 -0.0682
  244MOL0     H32920  10.722  10.532   1.279 -1.1840 -2.7305 -0.5391
  244MOL0     H32921  10.598  10.694   1.406  0.7095 -0.3652 -0.5905
  244MOL0     H32922  10.361  10.851   1.601  0.8983  1.3020 -1.1251
  244MOL0     H32923  10.243  10.906   1.811  1.2805 -1.6394 -0.4578
  244MOL0     H32924   8.788  10.663   2.121 -0.2214  2.7711 -0.9678
  244MOL0     H32925   8.749  10.419   2.099  0.3089 -3.9351 -2.1996
  244MOL0     H32926   8.344  10.111   2.137 -0.1523  0.1237  0.7727
  244MOL0     H32927   8.358   9.884   2.226 -0.2557  0.0503 -0.0018
  244MOL0     H32928   8.603   9.515   2.177 -1.7490  0.5679 -1.6219
  244MOL0     H32929   8.714   9.631   2.151  1.8527 -1.1399 -2.6947
  244MOL0     H32930   8.688   9.480   1.960  1.3931  0.6869  4.1666
  244MOL0     H32931   8.665   9.649   1.915  0.4355 -1.1370 -1.3048
  244MOL0     H32932   8.411   9.621   1.945  0.7793  0.8700 -1.6156
  244MOL0     H32933   8.448   9.442   1.951  0.1026  0.4560  1.7317
  244MOL0     H32934   8.520   9.446   1.720  0.9345 -2.0699  4.9849
  244MOL0     H32935   8.376   9.538   1.718 -0.2511 -1.5159  0.3358
  244MOL0     H32936   8.660   9.837   1.615  0.6068  0.7037  2.0513
  244MOL0     H32937   8.741   9.822   2.050 -0.5230  0.6139 -1.0455
  244MOL0     H32938   8.855   9.990   1.944  3.0998  4.4239  1.0210
  244MOL0     H32939   8.749  10.046   1.814  1.9476 -3.7202  0.3028
  244MOL0     H32940   8.803  10.154   1.946  0.9822 -0.1331  1.3609
  245MOL0     O32941   1.468   6.451   2.910 -0.4766  0.0720  0.5383
  245MOL0     C32942   1.360   6.449   2.967  0.3824 -0.2904 -0.5091
  245MOL0     O32943   1.289   6.560   2.992  0.6560 -0.4735 -0.9168
  245MOL0     C32944   1.329   6.688   2.971 -0.3214  0.5820 -1.5942
  245MOL0     C32945   1.227   6.780   2.937 -0.7844 -0.1453  0.5368
  245MOL0     C32946   1.247   6.914   2.913 -0.0260  0.3303  0.6309
  245MOL0     C32947   1.376   6.974   2.936  0.0944 -0.0667 -1.0952
  245MOL0     O32948   1.412   7.098   2.890  0.0502 -0.0021  0.1696
  245MOL0     C32949   1.308   7.173   2.840  0.5054 -0.0637 -0.3391
  245MOL0     C32950   1.362   7.299   2.802 -0.2768 -0.1839  0.1996
  245MOL0     C32951   1.301   7.348   2.668 -0.0242  0.6757 -0.0348
  245MOL0     C32952   1.382   7.448   2.590  0.1127 -0.4307 -0.0187
  245MOL0     C32953   1.501   7.388   2.524  0.4154  0.4266 -0.0690
  245MOL0     C32954   1.547   7.475   2.411  0.6151 -0.5104 -1.1932
  245MOL0     C32955   1.660   7.427   2.317  0.0324  1.0928 -0.1535
  245MOL0     C32956   1.614   7.310   2.218 -0.7814  0.3842 -0.5295
  245MOL0     N32957   1.720   7.243   2.150 -0.7966 -0.5929 -0.8359
  245MOL0     C32958   1.818   7.312   2.085 -0.2265 -1.0788 -0.1871
  245MOL0     C32959   1.912   7.217   2.043  1.2790 -0.0017 -0.8310
  245MOL0     C32960   2.041   7.252   1.988 -0.1710 -0.5459  0.1337
  245MOL0     C32961   2.154   7.170   2.046 -0.3503 -0.0914 -0.0756
  245MOL0     C32962   2.151   7.173   2.194 -0.1378  0.2344  0.0354
  245MOL0     C32963   2.243   7.067   2.251 -0.7515  0.3012  0.4321
  245MOL0     O32964   2.381   7.107   2.232 -0.5318 -0.4971 -0.0010
  245MOL0     C32965   2.481   7.015   2.242  0.5239 -0.0063  0.2265
  245MOL0     C32966   2.593   7.036   2.157 -0.4492  0.0258  0.0770
  245MOL0     C32967   2.697   6.946   2.154  0.1183  0.0400  0.1398
  245MOL0     C32968   2.694   6.823   2.230 -0.5391  1.0227  0.6038
  245MOL0     C32969   2.800   6.724   2.218  0.5614  0.2878  0.1145
  245MOL0     O32970   2.907   6.769   2.148 -0.5726 -0.8090 -0.0102
  245MOL0     C32971   3.008   6.683   2.108  0.3421  0.1891 -0.2258
  245MOL0     C32972   3.024   6.674   1.972  0.4104  0.1776  0.8959
  245MOL0     C32973   3.128   6.598   1.923 -1.2508  0.0062  0.4881
  245MOL0     C32974   3.222   6.526   2.004  0.2016  0.0124 -0.2272
  245MOL0     O32975   3.328   6.455   1.956 -0.7160 -0.1813 -0.0433
  245MOL0     C32976   3.398   6.519   1.850 -0.5406  0.3362 -0.1245
  245MOL0     C32977   3.516   6.429   1.796 -0.9630 -0.2325 -0.8875
  245MOL0     C32978   3.625   6.431   1.906  0.5160  0.0389  0.9502
  245MOL0     C32979   3.701   6.299   1.922 -1.3130 -0.7047  1.6134
  245MOL0     C32980   3.795   6.280   2.043  0.8266  0.0605  0.1076
  245MOL0     C32981   3.917   6.380   2.041 -0.4120 -0.0527  0.0126
  245MOL0     C32982   4.021   6.360   2.157 -1.3225  0.5096 -0.2419
  245MOL0     C32983   4.010   6.454   2.277  0.4584 -0.2600 -0.1328
  245MOL0    Cl32984   4.061   6.616   2.218 -0.3332 -0.5901  0.0875
  245MOL0     C32985   3.196   6.520   2.140 -0.8249  0.1608 -0.0690
  245MOL0     C32986   3.098   6.609   2.188 -1.0416 -0.9999 -0.0485
  245MOL0     O32987   2.792   6.621   2.284 -0.0117  0.9617  0.1623
  245MOL0     C32988   2.573   6.795   2.297  0.6482 -0.0250  0.0648
  245MOL0     C32989   2.474   6.899   2.316  0.4458  0.0487 -0.2479
  245MOL0     N32990   1.860   7.089   2.074 -1.1341 -0.2780 -0.9298
  245MOL0     N32991   1.751   7.110   2.144  0.6412  0.8720  0.2244
  245MOL0     C32992   1.475   6.886   2.973  0.2328 -0.8300 -0.6949
  245MOL0     C32993   1.462   6.749   2.987  0.5309 -0.4624 -0.7399
  245MOL0     C32994   1.310   6.312   3.011 -0.6303  1.1510 -0.1237
  245MOL0     C32995   1.392   6.204   2.978  0.3325  0.0004 -0.0080
  245MOL0     C32996   1.364   6.074   3.013 -0.2412 -0.2618 -0.4424
  245MOL0     C32997   1.251   6.043   3.081  0.1945  1.0036 -0.5391
  245MOL0     O32998   1.209   5.918   3.124 -0.0132 -0.4983  0.2703
  245MOL0     C32999   1.258   5.794   3.063 -1.1141 -0.6091  0.3887
  245MOL0     C33000   1.348   5.724   3.155  0.1109 -0.3346 -0.7441
  245MOL0     C33001   1.481   5.783   3.140  0.2035 -0.2083  0.3015
  245MOL0     C33002   1.595   5.731   3.227 -0.9250 -0.4191 -0.0940
  245MOL0     C33003   1.565   5.737   3.368  0.1569 -0.1459  0.2726
  245MOL0     C33004   1.536   5.722   3.486  0.5936 -0.0808  0.2796
  245MOL0     C33005   1.164   6.156   3.118 -0.0721  0.1547  0.4234
  245MOL0     C33006   1.196   6.292   3.083 -0.5685  0.1768 -0.4991
  245MOL0     C33007   1.105   6.405   3.134  0.2812  0.1915  1.5821
  245MOL0     H33008   1.138   6.719   2.921 -1.4026  0.8400  0.1437
  245MOL0     H33009   1.158   6.959   2.869 -0.3110  1.0768  1.8999
  245MOL0     H33010   1.264   7.131   2.749  1.6451  1.9041 -1.8797
  245MOL0     H33011   1.226   7.187   2.911  1.0378  1.2984  0.0321
  245MOL0     H33012   1.467   7.277   2.779  0.2525  0.1144  2.1561
  245MOL0     H33013   1.353   7.373   2.882 -1.7178  0.4820 -0.5400
  245MOL0     H33014   1.215   7.409   2.700 -0.9148 -0.6484  0.1755
  245MOL0     H33015   1.250   7.281   2.599  0.7788  2.2723 -2.3081
  245MOL0     H33016   1.315   7.479   2.509  2.8622 -0.6334 -2.5630
  245MOL0     H33017   1.409   7.537   2.647  2.3498 -1.7268  1.0690
  245MOL0     H33018   1.577   7.369   2.601  0.6154  3.4797  0.6130
  245MOL0     H33019   1.468   7.296   2.476 -1.6612  2.0015 -1.8388
  245MOL0     H33020   1.464   7.501   2.344 -0.1900 -1.3375 -0.5536
  245MOL0     H33021   1.590   7.556   2.469  0.5254 -1.8657  0.8708
  245MOL0     H33022   1.740   7.400   2.386 -0.4470 -0.6553 -0.2252
  245MOL0     H33023   1.707   7.510   2.263 -0.0823  2.3248  1.5509
  245MOL0     H33024   1.561   7.230   2.270  0.8699  0.8701  2.1088
  245MOL0     H33025   1.545   7.353   2.146  0.3517 -0.4811 -2.2047
  245MOL0     H33026   1.826   7.420   2.088 -0.6863 -1.0499  2.9382
  245MOL0     H33027   2.029   7.254   1.879 -1.0150 -0.4584  0.2205
  245MOL0     H33028   2.060   7.357   2.011  0.3859 -1.3266  3.8294
  245MOL0     H33029   2.157   7.068   2.006  0.9310  0.2138 -0.8189
  245MOL0     H33030   2.247   7.208   2.002 -0.3686  0.3460  0.2529
  245MOL0     H33031   2.053   7.172   2.242 -0.2571  0.7218 -0.1928
  245MOL0     H33032   2.195   7.269   2.223  2.1029 -1.0758  1.2484
  245MOL0     H33033   2.231   6.971   2.200 -0.8061 -0.0765  1.1464
  245MOL0     H33034   2.218   7.054   2.357 -2.4715 -0.5269 -0.0441
  245MOL0     H33035   2.596   7.120   2.088  0.7906  0.9728  1.2415
  245MOL0     H33036   2.773   6.964   2.079  0.6314 -0.5099  0.5123
  245MOL0     H33037   2.964   6.733   1.903  1.6095 -1.0159 -1.2579
  245MOL0     H33038   3.126   6.586   1.816 -0.3507  0.1479  0.4424
  245MOL0     H33039   3.327   6.551   1.774 -0.4415  2.8871  0.7694
  245MOL0     H33040   3.446   6.612   1.883 -0.2754  0.0033  0.4534
  245MOL0     H33041   3.477   6.329   1.778  1.2011 -0.9637 -1.7908
  245MOL0     H33042   3.551   6.460   1.697  1.1895  0.8305  0.1512
  245MOL0     H33043   3.697   6.510   1.882  0.5531 -0.0645  0.7205
  245MOL0     H33044   3.570   6.463   1.995 -1.1344  2.7381 -0.8664
  245MOL0     H33045   3.755   6.274   1.830  0.3668 -1.7964  2.8293
  245MOL0     H33046   3.621   6.224   1.928 -4.2873  1.9923 -0.6911
  245MOL0     H33047   3.838   6.180   2.048  2.8076  0.7394 -1.5093
  245MOL0     H33048   3.737   6.300   2.133 -1.0670 -5.0463  0.3213
  245MOL0     H33049   3.977   6.354   1.953 -0.8134 -2.5770  0.3939
  245MOL0     H33050   3.880   6.482   2.029 -2.8665 -1.1897 -3.9995
  245MOL0     H33051   4.127   6.360   2.128 -0.1542 -0.0686  3.5184
  245MOL0     H33052   4.008   6.262   2.201  1.8109  0.4620  0.8341
  245MOL0     H33053   3.911   6.462   2.321  0.2025  1.4562 -0.9586
  245MOL0     H33054   4.082   6.428   2.355  1.4771  0.6006 -0.7579
  245MOL0     H33055   3.250   6.446   2.198  0.6020  0.5038 -0.9232
  245MOL0     H33056   3.069   6.620   2.292  2.8895 -3.7397  1.5868
  245MOL0     H33057   2.558   6.699   2.345 -1.1147 -0.9680 -2.1823
  245MOL0     H33058   2.392   6.861   2.376 -1.9833 -0.6194 -3.7038
  245MOL0     H33059   1.572   6.931   2.994  0.0823  0.1659 -2.0335
  245MOL0     H33060   1.547   6.690   3.019 -0.6907 -1.2907  1.1659
  245MOL0     H33061   1.483   6.224   2.922 -1.0844  0.6997 -2.1962
  245MOL0     H33062   1.446   6.011   2.980  0.6780  1.4770 -1.5926
  245MOL0     H33063   1.301   5.806   2.963 -7.4392  0.5303 -2.7033
  245MOL0     H33064   1.179   5.726   3.032 -1.9998  0.0662  1.1157
  245MOL0     H33065   1.347   5.618   3.129 -3.8806 -1.2310  2.1017
  245MOL0     H33066   1.310   5.728   3.258  0.5989 -1.9499 -0.4759
  245MOL0     H33067   1.477   5.890   3.160 -0.2666  0.1906 -1.7657
  245MOL0     H33068   1.514   5.775   3.036  0.5669  0.8872  0.3179
  245MOL0     H33069   1.620   5.628   3.200  3.7804  0.4717  0.0694
  245MOL0     H33070   1.692   5.779   3.217 -1.5966  1.6845  2.2653
  245MOL0     H33071   1.493   5.713   3.584 -2.0604  0.7121 -0.7045
  245MOL0     H33072   1.073   6.146   3.175 -1.2074 -1.5345 -1.5501
  245MOL0     H33073   1.069   6.461   3.048  1.8344  0.5545  1.1290
  245MOL0     H33074   1.025   6.365   3.195 -0.5485  0.6935  0.8474
  245MOL0     H33075   1.164   6.467   3.201  0.5822 -0.8078  2.2600
  246MOL0     O33076   2.679   5.080   9.304  0.7128 -0.3590  0.9377
  246MOL0     C33077   2.707   4.981   9.235  1.4262 -0.8572 -0.6362
  246MOL0     O33078   2.828   4.943   9.195 -0.1288  0.1064 -0.2474
  246MOL0     C33079   2.938   5.021   9.225  0.3512 -0.1109 -0.4883
  246MOL0     C33080   3.046   4.947   9.272  0.0226  0.0325  0.1443
  246MOL0     C33081   3.162   5.003   9.317 -0.4598 -0.2149  0.3268
  246MOL0     C33082   3.182   5.136   9.315 -0.2045  0.4416 -0.3446
  246MOL0     O33083   3.304   5.198   9.338 -0.4649  0.2222 -0.3997
  246MOL0     C33084   3.398   5.159   9.437 -0.2698 -0.2089 -0.3242
  246MOL0     C33085   3.505   5.261   9.468  0.6191  0.9360 -0.5011
  246MOL0     C33086   3.437   5.391   9.509  0.3633 -0.0167 -0.0071
  246MOL0     C33087   3.547   5.504   9.499  0.5240  0.6788  0.8753
  246MOL0     C33088   3.484   5.643   9.541  0.5941  0.2669 -0.1635
  246MOL0     C33089   3.581   5.755   9.586  0.0938 -1.1973 -1.5569
  246MOL0     C33090   3.692   5.783   9.495 -1.0734 -0.7191  0.4559
  246MOL0     C33091   3.649   5.851   9.369 -0.8719 -0.2661 -1.6980
  246MOL0     N33092   3.740   5.859   9.266  0.0865  0.4863  0.0208
  246MOL0     C33093   3.849   5.935   9.246  0.6933  0.1852 -0.3769
  246MOL0     C33094   3.891   5.905   9.129 -0.4700  0.4754  0.2427
  246MOL0     C33095   4.009   5.970   9.062 -0.6094  0.2861 -0.2958
  246MOL0     C33096   4.136   5.888   9.064  0.1715  0.5900 -0.4242
  246MOL0     C33097   4.196   5.857   9.205 -1.0891  0.6171  0.0966
  246MOL0     C33098   4.345   5.810   9.185  0.3012 -0.1670 -0.3706
  246MOL0     O33099   4.414   5.909   9.110 -0.1694 -0.3327  0.5457
  246MOL0     C33100   4.547   5.929   9.124 -0.5446  1.2104  0.5833
  246MOL0     C33101   4.628   5.823   9.173 -0.2260  0.0435  0.1783
  246MOL0     C33102   4.769   5.857   9.188  0.1769 -0.2973 -0.3082
  246MOL0     C33103   4.829   5.980   9.152 -0.1403 -0.2414 -0.0463
  246MOL0     C33104   4.971   6.005   9.180  0.5581  0.2695 -0.3702
  246MOL0     O33105   5.017   6.117   9.123  0.3545  0.1735  0.5768
  246MOL0     C33106   5.147   6.152   9.153 -0.0413  1.2253 -0.4501
  246MOL0     C33107   5.173   6.249   9.248 -0.5545  0.8475  0.4699
  246MOL0     C33108   5.291   6.299   9.275 -0.9095 -0.0351 -0.1976
  246MOL0     C33109   5.401   6.270   9.187 -0.4630  0.2190 -0.1049
  246MOL0     O33110   5.527   6.309   9.206  0.0541 -0.1383  0.0915
  246MOL0     C33111   5.576   6.267   9.331  1.4486  0.4555 -0.0234
  246MOL0     C33112   5.724   6.285   9.341 -0.2665  0.0725 -0.3973
  246MOL0     C33113   5.764   6.433   9.347 -0.1146 -0.4851 -0.0964
  246MOL0     C33114   5.922   6.435   9.344 -0.5923 -0.3621  0.3167
  246MOL0     C33115   5.977   6.572   9.328  0.6064  0.4164 -0.3235
  246MOL0     C33116   6.126   6.579   9.294 -0.8572  0.1358  0.2688
  246MOL0     C33117   6.180   6.714   9.310  0.2880 -0.4901 -1.0470
  246MOL0     C33118   6.331   6.725   9.264  0.5580 -0.5110 -0.6739
  246MOL0    Cl33119   6.331   6.703   9.086 -0.3144 -0.0936 -0.1512
  246MOL0     C33120   5.379   6.185   9.081 -0.6866 -0.0307  0.6122
  246MOL0     C33121   5.256   6.131   9.066  0.5854 -0.2149  0.2264
  246MOL0     O33122   5.036   5.928   9.255 -0.0122 -0.1891  0.5190
  246MOL0     C33123   4.740   6.073   9.093  0.1843  0.1923 -0.8317
  246MOL0     C33124   4.608   6.042   9.075  0.0282  0.1202 -0.1690
  246MOL0     N33125   3.818   5.802   9.080  0.0291 -0.5524 -0.2523
  246MOL0     N33126   3.723   5.768   9.165  0.2762 -0.4047 -0.6108
  246MOL0     C33127   3.086   5.208   9.244  0.6382 -0.4526 -0.0154
  246MOL0     C33128   2.954   5.156   9.202  0.2512 -0.1055  0.1540
  246MOL0     C33129   2.586   4.912   9.184  0.1079 -0.3681  0.7517
  246MOL0     C33130   2.605   4.775   9.141 -0.5551 -0.1755 -0.2717
  246MOL0     C33131   2.501   4.698   9.101  0.2203  0.0843  0.7377
  246MOL0     C33132   2.365   4.736   9.110 -0.3851 -0.4606 -0.0564
  246MOL0     O33133   2.252   4.668   9.071 -0.4403  0.0102 -0.2946
  246MOL0     C33134   2.246   4.529   9.100 -0.7380 -0.0332  0.7205
  246MOL0     C33135   2.108   4.462   9.086 -0.2056 -0.5281 -0.2110
  246MOL0     C33136   2.072   4.441   8.939 -0.0563  0.0828  1.1624
  246MOL0     C33137   1.928   4.451   8.889  0.4190 -0.1772  0.5290
  246MOL0     C33138   1.856   4.354   8.968  0.5624 -0.5889 -0.1687
  246MOL0     C33139   1.778   4.285   9.032 -0.1749 -0.1239 -0.7451
  246MOL0     C33140   2.341   4.861   9.163 -0.0599 -0.4155 -0.2460
  246MOL0     C33141   2.441   4.953   9.198 -0.5422 -0.0788 -0.2316
  246MOL0     C33142   2.404   5.093   9.239  0.2565  0.0036  0.4492
  246MOL0     H33143   3.029   4.842   9.291 -0.6787  0.0707 -0.2608
  246MOL0     H33144   3.243   4.940   9.354 -1.5206  0.7330  4.8490
  246MOL0     H33145   3.349   5.151   9.535  0.4251  0.0275  0.0454
  246MOL0     H33146   3.438   5.060   9.416  1.7018  0.1037  1.6084
  246MOL0     H33147   3.583   5.275   9.393  1.7870 -3.0615 -0.2748
  246MOL0     H33148   3.568   5.226   9.550  0.4500  0.8994 -0.3848
  246MOL0     H33149   3.413   5.394   9.616  0.3982  2.1482 -0.0071
  246MOL0     H33150   3.348   5.414   9.449  0.9906  1.9715 -0.2657
  246MOL0     H33151   3.625   5.476   9.570  2.3397  0.6747 -1.0289
  246MOL0     H33152   3.596   5.509   9.401 -0.4568  0.8920  0.3786
  246MOL0     H33153   3.423   5.686   9.461  1.2506  1.9440  0.1966
  246MOL0     H33154   3.418   5.620   9.625  0.9806 -2.3788 -0.4938
  246MOL0     H33155   3.527   5.846   9.616  0.1135 -1.4936 -0.5724
  246MOL0     H33156   3.638   5.719   9.673 -0.4209  1.0596 -0.2044
  246MOL0     H33157   3.735   5.685   9.471  0.5020  0.2543 -0.9429
  246MOL0     H33158   3.766   5.844   9.546 -1.5616 -0.1906  0.5458
  246MOL0     H33159   3.548   5.824   9.335 -2.0392  1.1961  0.4242
  246MOL0     H33160   3.638   5.956   9.397  3.1502 -0.0294 -0.3478
  246MOL0     H33161   3.892   6.019   9.300 -0.4539  0.5469  0.0102
  246MOL0     H33162   3.982   5.984   8.957  1.3802 -2.1394 -1.2456
  246MOL0     H33163   4.029   6.070   9.099  0.5793  0.6935 -1.9305
  246MOL0     H33164   4.115   5.792   9.016 -2.3149  0.2256  1.1844
  246MOL0     H33165   4.209   5.939   9.001  2.4714  0.3023  1.8741
  246MOL0     H33166   4.137   5.783   9.261 -1.9995  2.4770  1.7195
  246MOL0     H33167   4.200   5.951   9.261  1.5491  1.2736 -1.0371
  246MOL0     H33168   4.348   5.708   9.143 -1.9469 -1.3922  2.1709
  246MOL0     H33169   4.397   5.796   9.280 -2.0848  1.2023  1.2248
  246MOL0     H33170   4.592   5.727   9.210 -0.9109  0.6359  1.1107
  246MOL0     H33171   4.828   5.786   9.246 -1.5424 -1.0789  0.5816
  246MOL0     H33172   5.099   6.290   9.316 -0.3522 -0.7107  1.6718
  246MOL0     H33173   5.308   6.373   9.352  2.3257  0.0498 -0.8561
  246MOL0     H33174   5.532   6.317   9.418  1.6010  1.1261 -0.3266
  246MOL0     H33175   5.552   6.161   9.344  0.6925  0.4772 -1.0914
  246MOL0     H33176   5.746   6.243   9.439 -0.0578 -1.6240 -1.1222
  246MOL0     H33177   5.789   6.231   9.272 -0.2284  0.3720 -0.5970
  246MOL0     H33178   5.718   6.491   9.266 -3.7749 -0.7969  1.5373
  246MOL0     H33179   5.730   6.478   9.441  1.3669  0.6988 -0.0971
  246MOL0     H33180   5.952   6.376   9.257 -1.6718  0.5099 -0.6827
  246MOL0     H33181   5.962   6.399   9.440  2.8925  2.1200 -0.0169
  246MOL0     H33182   5.956   6.625   9.421 -0.1443 -2.5838  1.3628
  246MOL0     H33183   5.927   6.622   9.244  3.1624  1.5164 -1.3039
  246MOL0     H33184   6.181   6.518   9.366 -0.0657 -0.0762 -0.5013
  246MOL0     H33185   6.147   6.545   9.193 -0.3781 -0.8066  0.6690
  246MOL0     H33186   6.167   6.735   9.417  0.4072 -2.0421 -0.7064
  246MOL0     H33187   6.116   6.783   9.252 -0.8971 -0.0957  0.6502
  246MOL0     H33188   6.370   6.825   9.286 -0.5742  0.0232 -1.0139
  246MOL0     H33189   6.388   6.644   9.312 -0.2148  0.9752  3.1274
  246MOL0     H33190   5.457   6.159   9.010 -0.4391 -0.4146  1.0232
  246MOL0     H33191   5.248   6.068   8.978 -1.8018  0.4640 -0.1130
  246MOL0     H33192   4.777   6.167   9.054  1.8443 -0.4456 -0.8979
  246MOL0     H33193   4.550   6.123   9.032 -1.0652 -0.0152  1.0168
  246MOL0     H33194   3.109   5.310   9.217 -2.4485  0.1532 -0.7285
  246MOL0     H33195   2.879   5.221   9.157  0.5108  2.4044  3.0004
  246MOL0     H33196   2.706   4.741   9.123  0.2168  2.8817 -2.5710
  246MOL0     H33197   2.524   4.600   9.062  0.5379 -1.2138  3.8941
  246MOL0     H33198   2.282   4.512   9.202  0.6268 -1.2196  0.0841
  246MOL0     H33199   2.318   4.472   9.041  0.4765  2.1963 -0.0838
  246MOL0     H33200   2.028   4.511   9.143 -2.0496  2.3789 -4.6745
  246MOL0     H33201   2.117   4.365   9.135  0.9776  0.0330  0.7088
  246MOL0     H33202   2.104   4.337   8.931 -0.6279 -0.0049 -0.3311
  246MOL0     H33203   2.133   4.516   8.888  1.0041 -0.8637  0.9974
  246MOL0     H33204   1.884   4.551   8.883 -0.6641 -0.6928 -0.5341
  246MOL0     H33205   1.926   4.420   8.784 -0.3484  3.5290 -0.6801
  246MOL0     H33206   1.708   4.230   9.091  0.7626 -2.1039 -1.4110
  246MOL0     H33207   2.240   4.886   9.192  0.2709 -2.3733  3.1260
  246MOL0     H33208   2.429   5.167   9.162  1.8687 -1.6236 -0.6768
  246MOL0     H33209   2.295   5.103   9.238  0.2482 -0.0803 -0.2701
  246MOL0     H33210   2.439   5.134   9.334 -1.0383  1.8594  0.1747
  247MOL0     O33211   1.085   2.528   1.885 -0.4571  0.2802  0.0256
  247MOL0     C33212   1.096   2.490   2.005 -0.3245 -0.0437  0.2304
  247MOL0     O33213   1.173   2.374   2.040  0.0234  0.6679 -0.4152
  247MOL0     C33214   1.244   2.309   1.940 -0.8083  0.3955  0.7941
  247MOL0     C33215   1.192   2.192   1.883  0.1394  0.6639 -0.3902
  247MOL0     C33216   1.260   2.118   1.792 -0.7507  0.3909 -0.6260
  247MOL0     C33217   1.387   2.163   1.737  0.6028  0.3614 -0.8710
  247MOL0     O33218   1.455   2.104   1.638 -0.1799  0.3893 -0.3765
  247MOL0     C33219   1.426   1.964   1.616 -0.3486  0.1060  0.9513
  247MOL0     C33220   1.548   1.898   1.564 -0.2452  0.6804 -0.1186
  247MOL0     C33221   1.533   1.739   1.547 -0.2359  0.2674 -0.8588
  247MOL0     C33222   1.675   1.680   1.515  0.0956 -0.7673  0.4985
  247MOL0     C33223   1.668   1.529   1.492  0.0588 -0.7194  0.4391
  247MOL0     C33224   1.806   1.467   1.509  0.5086  0.1368  0.9696
  247MOL0     C33225   1.812   1.309   1.508  0.9193  0.9100 -0.5737
  247MOL0     C33226   1.954   1.254   1.493  0.5318  0.8387 -0.4887
  247MOL0     N33227   2.041   1.278   1.615 -0.1424 -0.2390 -0.5219
  247MOL0     C33228   2.044   1.196   1.723  0.4775 -0.4282 -0.8497
  247MOL0     C33229   2.134   1.252   1.813  0.0627 -0.2338  0.7120
  247MOL0     C33230   2.174   1.186   1.943 -0.7237  0.9966 -0.4642
  247MOL0     C33231   2.261   1.062   1.908 -0.5247  1.1313  0.0417
  247MOL0     C33232   2.322   1.000   2.031  0.4642 -0.1343  0.0077
  247MOL0     C33233   2.397   0.868   2.016  0.1972  0.0188  0.4691
  247MOL0     O33234   2.520   0.910   1.959 -0.3425  0.3500  0.0929
  247MOL0     C33235   2.627   0.905   2.041 -0.1441  0.3891 -0.2020
  247MOL0     C33236   2.682   1.019   2.100  0.5147  0.4174 -1.0816
  247MOL0     C33237   2.792   1.014   2.181 -0.2147 -0.5749 -0.3352
  247MOL0     C33238   2.864   0.899   2.191  0.5083  0.2408 -0.0365
  247MOL0     C33239   2.999   0.908   2.256 -0.9829  0.3646  0.5499
  247MOL0     O33240   3.022   1.002   2.353 -1.0091  0.4237  0.6118
  247MOL0     C33241   3.141   0.972   2.414 -0.2482  0.2283  0.3163
  247MOL0     C33242   3.245   1.061   2.411  0.0052 -0.2455 -0.8755
  247MOL0     C33243   3.364   1.035   2.498  0.0745 -0.2834 -0.1183
  247MOL0     C33244   3.365   0.926   2.581  0.7303 -0.7665 -0.4241
  247MOL0     O33245   3.468   0.907   2.672  0.1157  0.4674  0.3874
  247MOL0     C33246   3.602   0.934   2.625 -0.8609 -1.5056  0.1938
  247MOL0     C33247   3.719   0.864   2.701 -0.6510 -0.5051 -1.5057
  247MOL0     C33248   3.781   0.943   2.818  0.3029 -0.3240 -0.5552
  247MOL0     C33249   3.894   0.859   2.889  0.4698 -0.4179  0.4781
  247MOL0     C33250   3.942   0.940   3.014  1.3097 -0.4344  0.1217
  247MOL0     C33251   4.044   0.848   3.079  0.4524  0.5987  0.0990
  247MOL0     C33252   4.080   0.908   3.216  0.8217  0.4599 -0.2797
  247MOL0     C33253   4.188   0.822   3.289  0.3676  0.4566 -0.3486
  247MOL0    Cl33254   4.121   0.679   3.365  0.1504 -0.0772 -0.1547
  247MOL0     C33255   3.259   0.833   2.576 -0.4365 -0.1416  0.2858
  247MOL0     C33256   3.150   0.863   2.500 -0.3111  0.3417  0.1113
  247MOL0     O33257   3.083   0.834   2.205 -0.1195  0.0553 -0.0589
  247MOL0     C33258   2.812   0.776   2.136  0.2980  0.3255  0.1723
  247MOL0     C33259   2.695   0.780   2.055  0.4376 -0.4236 -0.6601
  247MOL0     N33260   2.173   1.370   1.758 -0.5376 -0.2099 -0.2211
  247MOL0     N33261   2.128   1.377   1.641  0.5937  0.0710  0.5525
  247MOL0     C33262   1.423   2.284   1.780 -0.9161 -0.2673 -0.9029
  247MOL0     C33263   1.366   2.353   1.887 -0.8382 -0.2603 -1.0264
  247MOL0     C33264   1.033   2.564   2.112  0.3087 -0.4132 -0.2195
  247MOL0     C33265   1.024   2.701   2.092  0.1194 -0.0087  0.3782
  247MOL0     C33266   0.964   2.789   2.178  0.2406 -0.1658 -0.7214
  247MOL0     C33267   0.904   2.741   2.297 -0.5624  0.9928  0.1917
  247MOL0     O33268   0.847   2.840   2.376  0.2698  0.2581 -0.2266
  247MOL0     C33269   0.752   2.791   2.483 -0.6480 -0.4816  0.3611
  247MOL0     C33270   0.615   2.746   2.428 -0.1146 -0.2617 -0.2391
  247MOL0     C33271   0.535   2.671   2.548 -0.8931 -0.4153  0.1156
  247MOL0     C33272   0.451   2.550   2.498  0.4568  0.9969 -0.2385
  247MOL0     C33273   0.538   2.437   2.453  0.3921 -0.2681  0.1681
  247MOL0     C33274   0.612   2.343   2.421  0.3671  0.5167 -0.3106
  247MOL0     C33275   0.907   2.594   2.316 -0.7099  0.6308  1.0587
  247MOL0     C33276   0.962   2.506   2.220  0.1949 -0.2379 -1.0074
  247MOL0     C33277   0.931   2.358   2.237 -0.0495 -0.4640 -0.0572
  247MOL0     H33278   1.101   2.149   1.922  0.2933 -0.1651 -0.9235
  247MOL0     H33279   1.212   2.027   1.756 -1.5793  0.5519  0.0405
  247MOL0     H33280   1.380   1.905   1.696  0.7162  1.3313  2.5270
  247MOL0     H33281   1.362   1.975   1.528  1.4107  1.2811 -0.2448
  247MOL0     H33282   1.623   1.927   1.639 -0.3383  3.3139 -0.9641
  247MOL0     H33283   1.583   1.942   1.471 -0.2454  1.2058  0.1267
  247MOL0     H33284   1.459   1.714   1.470 -1.1884  3.6654 -1.2120
  247MOL0     H33285   1.494   1.698   1.641  0.1401 -0.7823 -1.1422
  247MOL0     H33286   1.727   1.725   1.430  0.8727 -1.1500  0.7641
  247MOL0     H33287   1.732   1.703   1.605  0.4123 -0.6752  0.2773
  247MOL0     H33288   1.596   1.485   1.561  0.5761  1.1537  2.2666
  247MOL0     H33289   1.625   1.507   1.394  1.9602  3.8146 -1.6967
  247MOL0     H33290   1.871   1.502   1.428 -2.1852  0.1276 -1.3689
  247MOL0     H33291   1.856   1.507   1.598 -1.0372  0.1359  1.8686
  247MOL0     H33292   1.763   1.279   1.415 -2.7633  3.2637  0.4364
  247MOL0     H33293   1.761   1.264   1.594 -0.1882  0.4528 -1.4408
  247MOL0     H33294   1.951   1.147   1.469 -1.9309  0.3758  1.4048
  247MOL0     H33295   1.992   1.306   1.405  1.4533  0.6001 -0.2412
  247MOL0     H33296   1.988   1.106   1.743 -0.6393  0.9286  3.2149
  247MOL0     H33297   2.225   1.252   2.014  0.7730 -2.4120  1.8914
  247MOL0     H33298   2.081   1.144   1.983 -0.7581 -1.3723 -2.7120
  247MOL0     H33299   2.205   0.983   1.858  0.5775  0.2525  0.1568
  247MOL0     H33300   2.339   1.084   1.834  1.0231 -2.3489  0.4139
  247MOL0     H33301   2.247   0.994   2.110  1.4632  2.8140  1.3195
  247MOL0     H33302   2.380   1.079   2.080 -1.5675  0.5382  1.4530
  247MOL0     H33303   2.342   0.797   1.954  0.7652  0.4476 -0.5393
  247MOL0     H33304   2.424   0.813   2.107 -0.5494 -1.5374 -0.2060
  247MOL0     H33305   2.620   1.108   2.095 -2.5113 -1.3584  1.3979
  247MOL0     H33306   2.822   1.096   2.246  2.6584  0.1372 -2.3420
  247MOL0     H33307   3.255   1.140   2.338  2.2039  0.0392 -0.3243
  247MOL0     H33308   3.453   1.096   2.489 -0.2279  0.6045  2.2114
  247MOL0     H33309   3.591   0.902   2.521 -1.1392 -0.5522 -0.0711
  247MOL0     H33310   3.627   1.040   2.626 -0.5286 -1.5368 -1.6763
  247MOL0     H33311   3.693   0.761   2.728  2.2181 -0.8395  0.4147
  247MOL0     H33312   3.805   0.858   2.634  0.9580  0.7012  0.3539
  247MOL0     H33313   3.816   1.042   2.787 -0.1323  0.3213  0.9147
  247MOL0     H33314   3.698   0.966   2.886  0.5526  0.8415 -0.6232
  247MOL0     H33315   3.980   0.828   2.828  0.1033 -3.5364  1.3688
  247MOL0     H33316   3.841   0.770   2.924  0.9726 -0.1861  1.8992
  247MOL0     H33317   3.853   0.959   3.075 -0.7208 -1.6291 -2.2738
  247MOL0     H33318   3.981   1.031   2.969 -1.9607 -0.5175 -3.3300
  247MOL0     H33319   3.986   0.757   3.097  0.5568  0.9266  2.4190
  247MOL0     H33320   4.122   0.812   3.010  0.0526  1.1609 -0.6562
  247MOL0     H33321   3.987   0.914   3.273 -0.4251 -2.1115 -1.8741
  247MOL0     H33322   4.116   1.009   3.192 -0.3449  1.2074  1.0161
  247MOL0     H33323   4.268   0.782   3.226  2.3511  2.0861  1.0078
  247MOL0     H33324   4.215   0.890   3.370 -2.8748 -1.3426  2.5032
  247MOL0     H33325   3.254   0.747   2.642  0.9322 -1.5351 -1.3232
  247MOL0     H33326   3.062   0.799   2.501  2.0846 -3.2046  1.7607
  247MOL0     H33327   2.863   0.681   2.146 -0.6139 -0.1940 -0.0653
  247MOL0     H33328   2.658   0.694   1.999  0.3195 -0.2241 -0.8932
  247MOL0     H33329   1.520   2.329   1.762  0.8631 -0.9034  4.8742
  247MOL0     H33330   1.412   2.443   1.925  3.7341 -3.2619  1.5304
  247MOL0     H33331   1.065   2.752   2.005 -0.1489  0.4971  0.5399
  247MOL0     H33332   0.969   2.893   2.146 -1.4720  1.2128  2.8057
  247MOL0     H33333   0.743   2.871   2.556 -0.3620 -0.5750  0.4986
  247MOL0     H33334   0.796   2.702   2.529  1.5353  0.1169 -0.4262
  247MOL0     H33335   0.640   2.686   2.340  0.7784  3.3067 -2.6711
  247MOL0     H33336   0.563   2.832   2.384  1.7113 -0.4131 -2.9384
  247MOL0     H33337   0.469   2.747   2.590 -1.3870 -0.8295  0.0955
  247MOL0     H33338   0.610   2.635   2.617  1.3021  0.6122 -1.5885
  247MOL0     H33339   0.382   2.511   2.573 -0.8649  0.2398 -1.7991
  247MOL0     H33340   0.378   2.587   2.426 -2.3715 -2.9420  0.3232
  247MOL0     H33341   0.662   2.256   2.385 -0.9845  0.2824 -1.7477
  247MOL0     H33342   0.840   2.557   2.392 -1.2767  1.4937  0.9890
  247MOL0     H33343   0.895   2.333   2.338 -2.9824 -2.3260 -1.4173
  247MOL0     H33344   0.850   2.335   2.168  2.0149  1.8493 -3.5439
  247MOL0     H33345   1.022   2.299   2.224  0.3280  0.1196 -0.0928
  248MOL0     O33346   3.616   6.982  10.619 -0.1976  0.1192  0.1555
  248MOL0     C33347   3.496   6.957  10.620  0.8438  0.5758  0.1729
  248MOL0     O33348   3.421   6.937  10.725 -0.3656  0.3868  0.0218
  248MOL0     C33349   3.485   6.957  10.849  0.7881  0.0512 -0.0209
  248MOL0     C33350   3.545   7.084  10.887  0.4189 -0.6913 -0.1446
  248MOL0     C33351   3.601   7.101  11.014  0.6210 -0.1314 -0.5480
  248MOL0     C33352   3.604   6.990  11.106 -0.5345  0.4956 -0.8899
  248MOL0     O33353   3.667   7.000  11.225  0.2014 -0.3778 -0.3761
  248MOL0     C33354   3.728   6.884  11.284 -0.0656  0.0438  0.1984
  248MOL0     C33355   3.845   6.932  11.369  0.6070  0.2483  0.8572
  248MOL0     C33356   3.954   7.008  11.279  0.6000  0.2211 -1.1546
  248MOL0     C33357   4.069   7.070  11.372 -0.0447 -0.5744  0.0980
  248MOL0     C33358   4.171   7.157  11.298  0.6184  0.0775  0.1392
  248MOL0     C33359   4.288   7.212  11.384  0.1157 -0.3593  0.5009
  248MOL0     C33360   4.401   7.296  11.320 -0.5217 -0.7151  0.4507
  248MOL0     C33361   4.344   7.424  11.250 -0.5335 -0.0781 -0.6325
  248MOL0     N33362   4.458   7.500  11.193  0.0035 -0.4042  0.2528
  248MOL0     C33363   4.517   7.462  11.073 -0.8035 -0.2018  0.3536
  248MOL0     C33364   4.593   7.562  11.026 -0.0237  0.4461 -1.0306
  248MOL0     C33365   4.691   7.572  10.912  0.5390 -0.4431 -0.3040
  248MOL0     C33366   4.832   7.533  10.967  0.8365  0.2195  0.1423
  248MOL0     C33367   4.936   7.563  10.856  1.4630 -0.4924  0.7573
  248MOL0     C33368   5.086   7.573  10.899  0.1742  0.4981 -0.1943
  248MOL0     O33369   5.125   7.697  10.960  0.3464  0.2289 -0.4831
  248MOL0     C33370   5.260   7.714  10.946 -0.2917  0.8352 -0.9293
  248MOL0     C33371   5.299   7.841  10.971  0.3725 -0.7808  0.7166
  248MOL0     C33372   5.429   7.883  10.967  0.1642  0.9095  0.5951
  248MOL0     C33373   5.528   7.782  10.940  0.8209  0.0936  0.5415
  248MOL0     C33374   5.668   7.827  10.935 -0.7273 -0.7325  0.3443
  248MOL0     O33375   5.765   7.743  10.989  0.7055  0.0214 -1.1042
  248MOL0     C33376   5.885   7.789  10.969 -0.1502  0.6917  0.3776
  248MOL0     C33377   5.938   7.901  11.031 -1.2814 -0.7741 -0.0287
  248MOL0     C33378   6.066   7.948  11.011 -0.2401 -0.8836 -0.7103
  248MOL0     C33379   6.147   7.871  10.921 -0.6218 -0.4189  0.0827
  248MOL0     O33380   6.275   7.911  10.887  0.7144 -0.4783  0.0373
  248MOL0     C33381   6.289   8.053  10.878  0.2883 -0.0929 -0.1410
  248MOL0     C33382   6.429   8.078  10.834  0.4692 -0.1607 -0.4259
  248MOL0     C33383   6.431   8.231  10.834 -0.2954  0.1541 -0.2375
  248MOL0     C33384   6.568   8.283  10.805  0.3046 -0.2877 -0.4602
  248MOL0     C33385   6.572   8.423  10.738 -0.4110 -0.6941 -1.2174
  248MOL0     C33386   6.536   8.545  10.832  0.2449 -0.2836 -0.1223
  248MOL0     C33387   6.638   8.572  10.944 -0.3151  0.4575  0.0641
  248MOL0     C33388   6.769   8.627  10.892 -0.5969  0.4574 -0.5597
  248MOL0    Cl33389   6.895   8.619  11.030 -0.1329  0.0842 -0.2711
  248MOL0     C33390   6.102   7.756  10.866  0.0728 -0.2106 -0.4500
  248MOL0     C33391   5.971   7.714  10.897 -0.0793  0.5125  0.7026
  248MOL0     O33392   5.694   7.937  10.874  0.0823 -0.2428 -0.1391
  248MOL0     C33393   5.491   7.645  10.922 -0.7025 -0.1892  0.4879
  248MOL0     C33394   5.355   7.615  10.907  0.0644  0.4441 -0.3006
  248MOL0     N33395   4.584   7.665  11.125 -0.0028  0.1909  0.3820
  248MOL0     N33396   4.508   7.624  11.223  0.2267 -0.1757  0.7871
  248MOL0     C33397   3.540   6.871  11.066  0.4592  0.0846 -0.1978
  248MOL0     C33398   3.482   6.849  10.943  0.5571  0.0604  0.7928
  248MOL0     C33399   3.423   6.948  10.486 -0.6028 -0.0237  0.0307
  248MOL0     C33400   3.283   6.973  10.472  0.1426  0.0266 -0.1559
  248MOL0     C33401   3.217   6.962  10.350  0.3466 -0.3665  1.0441
  248MOL0     C33402   3.287   6.914  10.238  0.2921  0.0143 -0.8723
  248MOL0     O33403   3.231   6.870  10.126  0.0272  0.1153 -0.0134
  248MOL0     C33404   3.085   6.855  10.112  0.2599  0.3001  0.2956
  248MOL0     C33405   3.051   6.800   9.966 -0.2106  0.4499 -0.6904
  248MOL0     C33406   2.914   6.736   9.953  1.2734  0.5023 -0.4574
  248MOL0     C33407   2.884   6.661   9.826  1.0558  0.5062  0.0369
  248MOL0     C33408   2.845   6.746   9.718 -0.3208  0.2698  0.2379
  248MOL0     C33409   2.822   6.836   9.640  0.0344  0.6056  0.1981
  248MOL0     C33410   3.427   6.883  10.253 -0.6138 -1.2822  0.6028
  248MOL0     C33411   3.494   6.898  10.378 -0.3049  0.7025 -0.2625
  248MOL0     C33412   3.637   6.848  10.374  0.5923 -0.4500  0.0059
  248MOL0     H33413   3.542   7.162  10.812  0.3966 -0.3261  0.2348
  248MOL0     H33414   3.652   7.195  11.028 -1.1394  0.6184  1.2850
  248MOL0     H33415   3.656   6.835  11.350  2.2201 -0.6403  2.3087
  248MOL0     H33416   3.766   6.813  11.210  1.5127  2.8162 -1.8831
  248MOL0     H33417   3.889   6.849  11.424  2.9716  1.8015  1.4375
  248MOL0     H33418   3.802   7.004  11.440  1.0036 -1.6868  3.1608
  248MOL0     H33419   3.911   7.095  11.228 -2.4184 -2.7011 -4.0489
  248MOL0     H33420   4.007   6.950  11.203 -1.3165  0.4303 -2.7231
  248MOL0     H33421   4.014   7.136  11.441  0.4506 -2.2630  2.2134
  248MOL0     H33422   4.120   6.991  11.428 -3.0209 -1.0817  2.3953
  248MOL0     H33423   4.216   7.103  11.214  0.1881 -2.9228  1.6893
  248MOL0     H33424   4.125   7.246  11.254 -1.0176 -0.9840 -0.3593
  248MOL0     H33425   4.248   7.276  11.463 -0.9256 -0.4402  0.0573
  248MOL0     H33426   4.334   7.126  11.433  0.2963  0.5853  2.0301
  248MOL0     H33427   4.449   7.232  11.246 -0.2173 -0.3723  0.3513
  248MOL0     H33428   4.479   7.323  11.392  0.0266 -0.5141 -0.2172
  248MOL0     H33429   4.277   7.389  11.171 -3.0211 -1.3416  1.8372
  248MOL0     H33430   4.290   7.489  11.320 -0.6686  0.5420 -1.2951
  248MOL0     H33431   4.500   7.372  11.014 -1.4685  0.3123 -0.2447
  248MOL0     H33432   4.654   7.506  10.833  0.3005 -1.2127  0.4370
  248MOL0     H33433   4.706   7.674  10.874 -0.5744 -0.4261 -0.7174
  248MOL0     H33434   4.858   7.591  11.056  5.2977 -0.5879 -0.4033
  248MOL0     H33435   4.830   7.426  10.990  0.5429  0.1467 -0.2114
  248MOL0     H33436   4.917   7.637  10.777 -1.0057 -0.6200  1.1675
  248MOL0     H33437   4.940   7.473  10.794  1.8743 -0.7703  1.1823
  248MOL0     H33438   5.140   7.551  10.806 -0.8354 -0.4392 -0.5712
  248MOL0     H33439   5.116   7.485  10.957  1.9835 -0.5633 -2.5584
  248MOL0     H33440   5.240   7.923  11.010  3.0658 -0.5544  4.9303
  248MOL0     H33441   5.476   7.978  10.990  6.5695 -1.8372  1.0609
  248MOL0     H33442   5.884   7.963  11.102  2.8619  1.7613  1.2965
  248MOL0     H33443   6.089   8.047  11.049 -1.5986 -1.0136  0.5143
  248MOL0     H33444   6.223   8.097  10.802  1.7793  2.2715 -0.1719
  248MOL0     H33445   6.278   8.107  10.973  0.6641 -0.5023  0.1389
  248MOL0     H33446   6.492   8.031  10.910 -0.3386  1.0256  0.9988
  248MOL0     H33447   6.448   8.036  10.734  0.5188 -4.4302  1.1678
  248MOL0     H33448   6.364   8.272  10.759 -0.3817  2.2994  0.9389
  248MOL0     H33449   6.403   8.275  10.931 -0.6606 -0.1876 -0.1862
  248MOL0     H33450   6.596   8.210  10.728 -0.8717  1.0155 -2.2079
  248MOL0     H33451   6.632   8.271  10.893  1.3246  1.3492 -0.9317
  248MOL0     H33452   6.509   8.415  10.649 -2.0526 -2.0757  0.0099
  248MOL0     H33453   6.672   8.443  10.698 -0.5720  0.2647 -1.1759
  248MOL0     H33454   6.536   8.637  10.772  2.4992  2.8710  4.1127
  248MOL0     H33455   6.437   8.532  10.876  0.2558 -3.3399 -0.8087
  248MOL0     H33456   6.667   8.478  10.992 -0.0676  0.8888  0.7695
  248MOL0     H33457   6.596   8.642  11.017 -0.7352 -0.1384  0.4099
  248MOL0     H33458   6.807   8.558  10.816  3.4372  2.7875 -0.9251
  248MOL0     H33459   6.753   8.730  10.859 -2.0254  0.4476  0.0328
  248MOL0     H33460   6.167   7.707  10.795  0.1374 -3.3538  1.5813
  248MOL0     H33461   5.951   7.614  10.860 -2.3447  0.5687  1.6269
  248MOL0     H33462   5.563   7.564  10.916 -0.3847 -0.1382  2.7178
  248MOL0     H33463   5.338   7.510  10.881  1.1463 -0.2176  1.4927
  248MOL0     H33464   3.525   6.791  11.138 -0.2985 -3.0499 -3.5387
  248MOL0     H33465   3.434   6.753  10.928 -0.2318 -0.0397  3.3671
  248MOL0     H33466   3.232   7.007  10.563 -1.0159 -0.1586 -0.7165
  248MOL0     H33467   3.110   6.977  10.347  0.0479 -1.9146  2.4537
  248MOL0     H33468   3.037   6.952  10.129  0.1023 -0.1196  2.5687
  248MOL0     H33469   3.049   6.778  10.181  0.2291  1.1874  1.3056
  248MOL0     H33470   3.126   6.725   9.939 -0.9765 -0.3384 -0.6594
  248MOL0     H33471   3.057   6.873   9.885  2.2373 -1.9790 -2.9467
  248MOL0     H33472   2.819   6.789   9.965  0.7958 -0.5200  0.4821
  248MOL0     H33473   2.917   6.660  10.032  0.3391  2.1296  1.2064
  248MOL0     H33474   2.974   6.606   9.796 -0.1665 -1.4657 -0.1491
  248MOL0     H33475   2.797   6.597   9.841  1.0874  0.4645  0.0429
  248MOL0     H33476   2.805   6.910   9.564 -1.9239 -1.8001 -1.8708
  248MOL0     H33477   3.470   6.832  10.167  1.2367 -0.9109  1.2530
  248MOL0     H33478   3.671   6.809  10.277  2.0880 -0.3369  0.4764
  248MOL0     H33479   3.714   6.919  10.403  4.2314 -3.0420 -2.4227
  248MOL0     H33480   3.641   6.769  10.450 -1.7324 -1.7997 -1.1317
  249MOL0     O33481  10.508   7.527   0.636 -0.8957  0.4457  0.7127
  249MOL0     C33482  10.475   7.426   0.697  0.3652 -0.4740  0.3441
  249MOL0     O33483  10.346   7.374   0.709 -0.4516 -0.4212 -0.3224
  249MOL0     C33484  10.242   7.459   0.673 -0.6823 -0.6182  0.6686
  249MOL0     C33485  10.240   7.589   0.724 -0.2948  0.4460  0.4876
  249MOL0     C33486  10.144   7.683   0.692  0.0563  0.4595  0.3789
  249MOL0     C33487  10.043   7.646   0.608  0.0096  0.0867  0.0665
  249MOL0     O33488   9.949   7.740   0.567  0.1615  0.1930  0.6137
  249MOL0     C33489  10.008   7.875   0.543  0.0501  0.3581  1.4919
  249MOL0     C33490   9.969   7.976   0.644  0.6327 -0.0651  0.9382
  249MOL0     C33491   9.831   7.969   0.706  0.7173  0.2873 -0.0231
  249MOL0     C33492   9.801   8.092   0.791 -0.0413  0.6087 -0.2049
  249MOL0     C33493   9.680   8.067   0.888 -1.0734 -0.3157 -0.9372
  249MOL0     C33494   9.542   8.049   0.818 -0.3504 -0.4709  1.3205
  249MOL0     C33495   9.445   8.176   0.826 -0.0424  0.5360  0.7443
  249MOL0     C33496   9.395   8.175   0.981 -1.0576  0.2191 -0.5729
  249MOL0     N33497   9.338   8.304   1.009  0.1878 -0.1969  0.4259
  249MOL0     C33498   9.221   8.350   0.962 -0.2353  0.3975 -0.1634
  249MOL0     C33499   9.215   8.481   1.005  0.5292 -0.0657  1.2912
  249MOL0     C33500   9.096   8.573   0.973 -0.1206  0.7331 -0.4138
  249MOL0     C33501   8.974   8.540   1.065 -0.0224  0.9329 -0.1108
  249MOL0     C33502   8.883   8.671   1.067  0.2195  0.1590 -0.5334
  249MOL0     C33503   8.751   8.643   1.137 -0.2907 -0.2487 -1.0292
  249MOL0     O33504   8.675   8.557   1.056  0.1518 -0.8832  0.7935
  249MOL0     C33505   8.533   8.559   1.067  0.0379  0.1156 -0.4980
  249MOL0     C33506   8.470   8.605   1.183  0.6567  0.1678  0.3158
  249MOL0     C33507   8.327   8.602   1.180  0.0632  0.0290  0.5533
  249MOL0     C33508   8.255   8.545   1.075  0.5753  0.1344 -0.6137
  249MOL0     C33509   8.106   8.537   1.071  0.5313  0.8163  0.0107
  249MOL0     O33510   8.038   8.484   0.961 -0.4037 -0.1533 -0.2016
  249MOL0     C33511   7.907   8.494   0.986  0.7226  1.0773 -0.2396
  249MOL0     C33512   7.838   8.409   1.077  0.0254 -0.4127  0.4464
  249MOL0     C33513   7.701   8.418   1.075 -0.5038 -0.5015 -0.6372
  249MOL0     C33514   7.624   8.502   0.993 -1.4958 -0.7051 -0.2121
  249MOL0     O33515   7.488   8.496   1.006 -0.1212 -0.3650  0.2709
  249MOL0     C33516   7.416   8.605   0.950  0.2611 -0.4909  0.3403
  249MOL0     C33517   7.269   8.587   0.971 -0.8981  0.6790  0.5784
  249MOL0     C33518   7.224   8.582   1.114  0.4549 -0.3268  0.0380
  249MOL0     C33519   7.068   8.571   1.108  0.4448  0.4140 -0.0095
  249MOL0     C33520   6.995   8.585   1.237  0.2755 -0.9818 -0.2760
  249MOL0     C33521   6.846   8.551   1.218 -1.0335 -0.4315  0.0310
  249MOL0     C33522   6.774   8.628   1.326 -0.3142 -0.2339 -0.9868
  249MOL0     C33523   6.648   8.695   1.277 -0.2529 -0.0872  0.2836
  249MOL0    Cl33524   6.547   8.757   1.410  0.2507 -0.0264  0.1953
  249MOL0     C33525   7.697   8.569   0.898  0.2127 -1.3960  0.8822
  249MOL0     C33526   7.835   8.567   0.898 -0.2169 -0.3179  0.3686
  249MOL0     O33527   8.047   8.595   1.164 -0.0880  0.3121 -0.5668
  249MOL0     C33528   8.326   8.491   0.966  0.2412 -0.2375  0.8238
  249MOL0     C33529   8.461   8.510   0.952 -0.8557 -0.4611 -0.6519
  249MOL0     N33530   9.329   8.505   1.074 -0.1559 -0.4356 -0.5134
  249MOL0     N33531   9.412   8.403   1.068 -0.0140 -0.6705  0.3847
  249MOL0     C33532  10.037   7.513   0.563  0.3701  0.3029  1.0920
  249MOL0     C33533  10.132   7.420   0.598 -0.3806  0.4504 -0.7168
  249MOL0     C33534  10.583   7.339   0.739 -0.6598 -0.9152  0.5441
  249MOL0     C33535  10.548   7.204   0.770 -0.5867  0.7204  0.6868
  249MOL0     C33536  10.658   7.115   0.786 -0.3888  0.2879 -0.4905
  249MOL0     C33537  10.791   7.154   0.798 -0.1832 -0.2249 -0.3921
  249MOL0     O33538  10.881   7.050   0.821  0.9487 -0.5111 -0.0017
  249MOL0     C33539  10.995   7.087   0.898 -0.1531 -0.5517 -0.0529
  249MOL0     C33540  11.058   6.958   0.945 -0.1798  0.0886 -0.7468
  249MOL0     C33541  11.111   6.864   0.842  0.6821  0.1927 -0.6914
  249MOL0     C33542  11.231   6.924   0.763  0.1821 -1.4837 -0.1406
  249MOL0     C33543  11.279   6.821   0.674  0.3550 -0.3027  0.1409
  249MOL0     C33544  11.308   6.738   0.593 -0.6854  0.8649  0.5265
  249MOL0     C33545  10.820   7.288   0.773  0.9419 -0.0760 -0.2032
  249MOL0     C33546  10.722   7.386   0.737  0.1045  0.2025 -0.5575
  249MOL0     C33547  10.776   7.521   0.698 -0.3102 -0.1833 -0.4569
  249MOL0     H33548  10.320   7.615   0.793  0.2031  2.0364 -0.6155
  249MOL0     H33549  10.153   7.785   0.728  2.0840  0.7166 -0.6955
  249MOL0     H33550  10.116   7.873   0.531  0.2122  3.5968  1.3506
  249MOL0     H33551   9.968   7.919   0.450  0.2807  1.0410  1.7099
  249MOL0     H33552   9.961   8.074   0.597 -3.7805 -1.1294 -1.1636
  249MOL0     H33553  10.045   7.977   0.722  1.3045 -2.3362  0.3934
  249MOL0     H33554   9.824   7.876   0.764 -3.4431 -0.3922 -1.3142
  249MOL0     H33555   9.754   7.971   0.629  0.8113  1.3235 -0.1003
  249MOL0     H33556   9.883   8.108   0.861 -1.7637  1.1704  1.7819
  249MOL0     H33557   9.792   8.174   0.718  1.8760 -0.5560 -1.8764
  249MOL0     H33558   9.706   7.986   0.956  0.9886 -0.7211 -2.1263
  249MOL0     H33559   9.674   8.156   0.952  0.9611 -2.0683  1.9664
  249MOL0     H33560   9.559   8.016   0.715  0.7625 -0.3384  1.4547
  249MOL0     H33561   9.483   7.970   0.866 -1.8742  1.1416  2.2427
  249MOL0     H33562   9.367   8.166   0.749  2.1574  2.3589 -1.9191
  249MOL0     H33563   9.492   8.272   0.805 -0.2338  0.6312  0.7456
  249MOL0     H33564   9.331   8.092   1.013 -2.5158  1.2195 -0.7972
  249MOL0     H33565   9.474   8.165   1.057 -1.8343  0.2791  0.2528
  249MOL0     H33566   9.134   8.295   0.929 -0.0525 -1.1318  1.6619
  249MOL0     H33567   9.136   8.674   0.988  1.0026  0.0185  1.7947
  249MOL0     H33568   9.069   8.563   0.867 -1.5054  2.4657 -0.2628
  249MOL0     H33569   8.926   8.452   1.022  0.7604  1.4591 -2.1962
  249MOL0     H33570   9.010   8.525   1.167  1.0180  0.3597 -0.5472
  249MOL0     H33571   8.865   8.711   0.967 -0.5764  1.4119  0.0778
  249MOL0     H33572   8.921   8.754   1.127 -4.3893  1.4846  0.9478
  249MOL0     H33573   8.700   8.740   1.140  0.3645  0.0792 -0.2573
  249MOL0     H33574   8.755   8.600   1.237  0.8348 -2.0782 -1.8184
  249MOL0     H33575   8.519   8.658   1.264 -3.2828  3.9920  0.6214
  249MOL0     H33576   8.287   8.648   1.270  2.8824  2.2438  0.8244
  249MOL0     H33577   7.889   8.344   1.149 -0.3897 -1.1614  0.0758
  249MOL0     H33578   7.644   8.364   1.151  1.6088 -0.7072  0.8924
  249MOL0     H33579   7.451   8.697   0.998  0.0274 -0.2684  0.0847
  249MOL0     H33580   7.434   8.604   0.842  1.3190  0.4431  0.4860
  249MOL0     H33581   7.209   8.663   0.921 -0.5086  1.1071  0.7556
  249MOL0     H33582   7.254   8.491   0.921 -1.1463  1.3045 -0.5708
  249MOL0     H33583   7.267   8.492   1.160  0.4589 -0.2160  0.2543
  249MOL0     H33584   7.253   8.676   1.161  1.6150  1.1413 -3.3250
  249MOL0     H33585   7.030   8.482   1.056  0.5736  0.6200 -0.4547
  249MOL0     H33586   7.023   8.644   1.040  0.0213 -1.0786 -1.4136
  249MOL0     H33587   7.013   8.687   1.273  1.3132 -1.7990  1.6680
  249MOL0     H33588   7.034   8.513   1.310  3.5119  0.3183 -0.5405
  249MOL0     H33589   6.805   8.574   1.119  0.0954 -2.0309 -0.8598
  249MOL0     H33590   6.837   8.444   1.242 -0.4633 -0.7213 -0.9838
  249MOL0     H33591   6.843   8.700   1.371  0.7327  0.3868 -3.4422
  249MOL0     H33592   6.744   8.567   1.412 -0.4714  1.7775  0.4592
  249MOL0     H33593   6.670   8.768   1.199  2.5513  0.6831  1.6662
  249MOL0     H33594   6.588   8.615   1.231  1.9755 -1.4008 -0.4539
  249MOL0     H33595   7.639   8.625   0.826 -0.9219 -1.7803  1.4693
  249MOL0     H33596   7.892   8.605   0.814  0.2175 -1.8866 -0.0878
  249MOL0     H33597   8.264   8.439   0.893 -0.9574  0.0934  1.5736
  249MOL0     H33598   8.521   8.459   0.877  0.0394 -3.7641  2.0130
  249MOL0     H33599   9.956   7.483   0.497  0.5219  1.3553  0.4101
  249MOL0     H33600  10.126   7.320   0.555 -0.0755  0.8724 -1.7631
  249MOL0     H33601  10.445   7.171   0.769 -0.1512 -0.9839 -2.5324
  249MOL0     H33602  10.642   7.009   0.800  0.6131  0.2307  0.3286
  249MOL0     H33603  10.982   7.156   0.981  1.3246  1.8183 -1.6757
  249MOL0     H33604  11.069   7.136   0.835  0.1302 -0.5922  0.2483
  249MOL0     H33605  10.978   6.899   0.990  2.8805 -1.2230  3.7494
  249MOL0     H33606  11.137   6.986   1.015  0.8120  0.5131 -2.0028
  249MOL0     H33607  11.028   6.827   0.781  0.0033 -0.6998  0.7043
  249MOL0     H33608  11.156   6.781   0.898  1.5135  1.3257  0.3465
  249MOL0     H33609  11.221   7.013   0.701  2.0498  0.9782  2.7670
  249MOL0     H33610  11.306   6.950   0.838 -0.7387 -0.1889  0.3817
  249MOL0     H33611  11.365   6.690   0.516  0.3423  1.9998  0.5510
  249MOL0     H33612  10.922   7.322   0.763  0.6199  1.1793  0.6148
  249MOL0     H33613  10.873   7.545   0.742 -0.3032 -1.6843  0.4117
  249MOL0     H33614  10.774   7.527   0.589  0.7861  1.3754 -0.4157
  249MOL0     H33615  10.713   7.599   0.742  1.9239  0.6872  1.3758
  250MOL0     O33616   6.541  11.043   3.338  0.4853  0.2032 -0.8535
  250MOL0     C33617   6.616  11.146   3.354  0.3865 -0.3187 -0.5620
  250MOL0     O33618   6.676  11.208   3.258 -0.4217 -0.1851  0.0586
  250MOL0     C33619   6.669  11.171   3.126  0.1880  0.2773  0.8192
  250MOL0     C33620   6.760  11.081   3.075 -0.2147 -0.3194 -0.3638
  250MOL0     C33621   6.748  11.045   2.942 -0.3281  0.5539 -0.1517
  250MOL0     C33622   6.656  11.103   2.855  0.4231 -0.0862 -1.0619
  250MOL0     O33623   6.658  11.080   2.723  0.2490 -0.5803  0.6102
  250MOL0     C33624   6.774  11.143   2.666 -0.2217  0.3425 -0.0890
  250MOL0     C33625   6.769  11.153   2.509 -1.1193 -0.1279 -0.4366
  250MOL0     C33626   6.898  11.125   2.427  0.0005 -0.7428  0.5039
  250MOL0     C33627   6.950  10.987   2.428  0.2109  0.4050 -0.0739
  250MOL0     C33628   7.072  10.975   2.332  0.3166 -0.1453  0.4289
  250MOL0     C33629   7.123  10.834   2.321 -0.6514 -0.5126  0.3483
  250MOL0     C33630   7.272  10.824   2.301  1.0410  0.4010  1.0322
  250MOL0     C33631   7.311  10.876   2.163  1.1234  0.1315 -0.3442
  250MOL0     N33632   7.449  10.903   2.167  0.5612 -0.0884 -0.4890
  250MOL0     C33633   7.547  10.802   2.171  0.6507  0.5354 -0.3584
  250MOL0     C33634   7.661  10.879   2.174 -0.9176 -0.3220  0.7729
  250MOL0     C33635   7.804  10.822   2.149 -0.8225  0.3421 -0.3829
  250MOL0     C33636   7.915  10.892   2.225 -0.5741  0.2166  0.5963
  250MOL0     C33637   7.987  11.012   2.155 -0.0766 -0.2780  0.0396
  250MOL0     C33638   8.075  10.975   2.023  0.0229  0.1426 -0.7970
  250MOL0     O33639   8.160  10.872   2.050 -0.7986  0.7895 -0.6243
  250MOL0     C33640   8.281  10.893   2.117 -0.7418 -0.7905  1.2509
  250MOL0     C33641   8.341  10.776   2.153 -0.4609  0.5838  0.6205
  250MOL0     C33642   8.466  10.781   2.210 -0.9448  0.3963  0.3944
  250MOL0     C33643   8.527  10.898   2.238  0.1832 -0.2078 -0.3371
  250MOL0     C33644   8.663  10.906   2.302 -0.3811  0.9829 -0.3369
  250MOL0     O33645   8.726  11.028   2.304 -0.1541  0.0490 -0.1575
  250MOL0     C33646   8.854  11.030   2.346 -0.0303  0.0652  0.6602
  250MOL0     C33647   8.958  10.932   2.338 -0.3989 -0.1574  0.1501
  250MOL0     C33648   9.085  10.964   2.410  0.1013 -0.5314  0.1458
  250MOL0     C33649   9.106  11.083   2.474 -0.2559 -0.4052  0.0377
  250MOL0     O33650   9.227  11.123   2.517 -0.7961 -0.6332 -0.3637
  250MOL0     C33651   9.279  11.047   2.623  0.5264 -1.7222 -0.9844
  250MOL0     C33652   9.397  11.144   2.675 -0.9381  0.0238  0.9212
  250MOL0     C33653   9.484  11.085   2.793 -0.6334 -0.2757  0.7813
  250MOL0     C33654   9.559  10.954   2.765  0.5971  0.4928  1.0205
  250MOL0     C33655   9.665  10.917   2.867 -0.0615  0.6409 -0.8577
  250MOL0     C33656   9.723  10.778   2.845  0.4814  0.4128  0.4561
  250MOL0     C33657   9.852  10.756   2.936  0.4333  0.9576 -0.4382
  250MOL0     C33658   9.931  10.633   2.904 -0.2168  1.0161 -0.9705
  250MOL0    Cl33659  10.007  10.652   2.746  0.1426  0.0278 -0.2981
  250MOL0     C33660   9.005  11.181   2.461 -0.1165 -0.2527  0.0429
  250MOL0     C33661   8.882  11.151   2.405 -0.5581  0.2886  0.4517
  250MOL0     O33662   8.704  10.809   2.358  0.3618  0.0758 -0.0702
  250MOL0     C33663   8.468  11.024   2.209  0.3983  0.2934  0.0719
  250MOL0     C33664   8.340  11.021   2.153  0.4548 -0.0611  0.2196
  250MOL0     N33665   7.622  11.010   2.198 -0.1229 -1.3019 -0.2086
  250MOL0     N33666   7.496  11.024   2.190  0.1305 -0.5923  0.6482
  250MOL0     C33667   6.565  11.192   2.912  1.1803  0.1996  1.7175
  250MOL0     C33668   6.564  11.231   3.046 -0.0451  0.1858  1.1848
  250MOL0     C33669   6.632  11.205   3.491 -0.2085 -0.2161  0.0440
  250MOL0     C33670   6.745  11.294   3.511  0.0258  0.3562 -0.3676
  250MOL0     C33671   6.800  11.328   3.635  0.1714 -0.0711 -0.4502
  250MOL0     C33672   6.748  11.273   3.748 -0.5297  0.3801  0.2134
  250MOL0     O33673   6.815  11.270   3.869 -0.1634 -0.0685 -0.4373
  250MOL0     C33674   6.744  11.324   3.975  0.6209  0.0869 -0.3258
  250MOL0     C33675   6.758  11.478   3.993 -0.5272  0.0671 -0.3530
  250MOL0     C33676   6.912  11.518   3.987 -0.5034 -0.5202 -0.7193
  250MOL0     C33677   6.914  11.675   3.983  0.3756  0.3007  0.7416
  250MOL0     C33678   6.860  11.742   4.100 -0.8541 -0.4057 -0.2924
  250MOL0     C33679   6.826  11.781   4.205  0.0833 -0.3164 -0.2562
  250MOL0     C33680   6.635  11.184   3.730  0.6092 -0.0710 -0.8614
  250MOL0     C33681   6.570  11.149   3.609  0.2472 -0.2545 -0.6059
  250MOL0     C33682   6.456  11.058   3.605  0.1279  0.0102  0.4749
  250MOL0     H33683   6.840  11.045   3.139 -0.8404 -2.3334 -0.6355
  250MOL0     H33684   6.822  10.975   2.905 -1.2521 -1.0244  0.8834
  250MOL0     H33685   6.778  11.248   2.698  1.4496  0.3932 -0.3435
  250MOL0     H33686   6.868  11.097   2.698  0.0628  0.4749 -0.7070
  250MOL0     H33687   6.745  11.258   2.491  0.6633  0.6177  1.2040
  250MOL0     H33688   6.684  11.092   2.476 -2.9853  1.6071  0.9108
  250MOL0     H33689   6.974  11.197   2.462  0.9846  0.7469 -4.0214
  250MOL0     H33690   6.879  11.151   2.323  1.1104  3.3345  1.1405
  250MOL0     H33691   6.978  10.956   2.529 -0.8288  0.3898  0.2166
  250MOL0     H33692   6.872  10.916   2.399  0.5488 -1.5000  3.1666
  250MOL0     H33693   7.039  11.025   2.240  1.8121  2.1518  1.0569
  250MOL0     H33694   7.152  11.035   2.375  0.6950 -0.6814  0.4745
  250MOL0     H33695   7.113  10.805   2.426 -1.4991  2.5480  1.2457
  250MOL0     H33696   7.079  10.752   2.263  0.8496 -1.1827  0.1136
  250MOL0     H33697   7.303  10.719   2.299  3.6395  1.0878  0.1191
  250MOL0     H33698   7.326  10.881   2.378  1.2766  1.6119  0.0104
  250MOL0     H33699   7.306  10.806   2.078  1.0370 -0.2135 -0.0562
  250MOL0     H33700   7.256  10.965   2.132  0.5164 -0.5158 -1.1506
  250MOL0     H33701   7.540  10.694   2.162 -2.1904  0.4591  1.4226
  250MOL0     H33702   7.811  10.714   2.165  1.2749 -0.0637 -3.3972
  250MOL0     H33703   7.835  10.833   2.045  0.4505  1.8254  0.1157
  250MOL0     H33704   7.857  10.926   2.312 -2.8027 -3.4085  0.7203
  250MOL0     H33705   8.004  10.834   2.252  0.5475  2.1629  1.3330
  250MOL0     H33706   8.044  11.070   2.228  0.1271 -1.9451  1.2639
  250MOL0     H33707   7.912  11.081   2.115  1.5295  0.6872 -1.4627
  250MOL0     H33708   8.131  11.061   1.985  0.6434 -0.6239 -1.6524
  250MOL0     H33709   8.009  10.958   1.938  1.9335  3.0487 -3.0337
  250MOL0     H33710   8.291  10.681   2.136  0.2678 -0.2980  3.0097
  250MOL0     H33711   8.502  10.682   2.235 -1.4947 -0.4241 -1.8520
  250MOL0     H33712   8.954  10.835   2.290  1.5461  0.1962 -0.8157
  250MOL0     H33713   9.173  10.899   2.409  1.8028  1.6343  0.7675
  250MOL0     H33714   9.217  11.025   2.709  0.7752 -2.2403 -0.9328
  250MOL0     H33715   9.321  10.959   2.573 -0.3879 -2.7847  0.0677
  250MOL0     H33716   9.467  11.151   2.591 -1.7100 -2.0917  0.0362
  250MOL0     H33717   9.356  11.243   2.697 -1.1911  0.0261  0.4567
  250MOL0     H33718   9.558  11.161   2.822 -0.5600  1.3050 -3.0199
  250MOL0     H33719   9.415  11.068   2.876 -1.0548 -1.4323  0.2154
  250MOL0     H33720   9.602  10.955   2.665 -1.8350 -0.8039 -0.1284
  250MOL0     H33721   9.493  10.867   2.767  1.6471 -0.3876 -0.5158
  250MOL0     H33722   9.622  10.910   2.968  0.7718 -1.9780 -0.6190
  250MOL0     H33723   9.752  10.983   2.868  0.0542  0.4843 -0.2619
  250MOL0     H33724   9.644  10.707   2.873  0.3531  0.3032 -0.1716
  250MOL0     H33725   9.744  10.766   2.739  2.6247 -1.9621  1.0640
  250MOL0     H33726   9.826  10.756   3.043  2.9742  1.1373  0.2507
  250MOL0     H33727   9.914  10.841   2.907  1.5392  0.1388 -0.5740
  250MOL0     H33728   9.999  10.612   2.987 -0.3041  1.4521 -0.7845
  250MOL0     H33729   9.864  10.546   2.897 -0.1432  1.0972 -4.4297
  250MOL0     H33730   9.028  11.278   2.504 -0.7433 -1.0101  2.2401
  250MOL0     H33731   8.798  11.219   2.395  0.8379  2.1063  0.4177
  250MOL0     H33732   8.517  11.117   2.239 -0.5757  1.2392 -1.1237
  250MOL0     H33733   8.283  11.112   2.138  0.6914 -0.3052 -2.7205
  250MOL0     H33734   6.493  11.240   2.846  1.8802  1.1430  1.6128
  250MOL0     H33735   6.485  11.302   3.069 -0.7721  0.3359 -1.4294
  250MOL0     H33736   6.792  11.327   3.419  1.6514 -0.1181  0.2604
  250MOL0     H33737   6.881  11.400   3.643  1.4527 -1.6666  2.8766
  250MOL0     H33738   6.785  11.276   4.064  0.7899  1.2224  0.2221
  250MOL0     H33739   6.636  11.308   3.972  0.1576  2.5819  0.3359
  250MOL0     H33740   6.704  11.525   4.075  1.0167  3.6574 -1.2066
  250MOL0     H33741   6.708  11.508   3.900 -0.2372 -2.0364 -1.2681
  250MOL0     H33742   6.959  11.487   3.894  0.8593 -1.5011  0.2502
  250MOL0     H33743   6.969  11.471   4.068  0.3503 -0.4323 -1.2523
  250MOL0     H33744   7.010  11.716   3.950  1.6411 -3.2259 -0.3283
  250MOL0     H33745   6.839  11.694   3.906  0.9547 -0.7766 -0.1030
  250MOL0     H33746   6.785  11.815   4.298 -0.5798  4.0109 -1.8887
  250MOL0     H33747   6.612  11.130   3.821 -0.5860 -2.1172 -2.3095
  250MOL0     H33748   6.389  11.116   3.540  0.4425  0.3701  0.4632
  250MOL0     H33749   6.473  10.961   3.558  1.4624 -0.1221  1.2060
  250MOL0     H33750   6.407  11.057   3.702 -1.5961 -2.7933 -0.2933
  251MOL0     O33751   9.313   5.694   6.859  0.6230 -0.2199 -0.0284
  251MOL0     C33752   9.305   5.754   6.972  0.4015 -0.0480 -0.3464
  251MOL0     O33753   9.390   5.743   7.072  0.2716 -0.3460 -0.8394
  251MOL0     C33754   9.491   5.659   7.056  0.0459  1.5267 -0.8766
  251MOL0     C33755   9.473   5.517   7.084  0.1566 -0.2243 -0.1884
  251MOL0     C33756   9.579   5.429   7.075 -0.9816  0.2856  0.1389
  251MOL0     C33757   9.702   5.474   7.024 -0.1368  0.1312  0.5586
  251MOL0     O33758   9.808   5.386   7.002  0.5032 -0.0675 -0.1908
  251MOL0     C33759   9.933   5.433   7.066  0.2745  0.9023  0.8883
  251MOL0     C33760  10.033   5.310   7.066 -0.5395  0.3575 -0.9240
  251MOL0     C33761  10.141   5.335   7.166  0.1691 -0.0752  0.6197
  251MOL0     C33762  10.230   5.217   7.180  0.5600  0.0037  0.2893
  251MOL0     C33763  10.359   5.266   7.253 -0.8651  0.1736 -0.2733
  251MOL0     C33764  10.461   5.152   7.268  0.1874 -0.3972  0.3828
  251MOL0     C33765  10.529   5.112   7.142  0.0281 -0.0815  0.5919
  251MOL0     C33766  10.626   5.003   7.156  0.9594  0.4022  0.4690
  251MOL0     N33767  10.695   4.959   7.034  0.7887  0.1387  0.1445
  251MOL0     C33768  10.639   4.932   6.914  0.0103 -0.6387  0.2469
  251MOL0     C33769  10.743   4.923   6.822 -0.5394 -1.1604 -0.1566
  251MOL0     C33770  10.741   4.878   6.679  0.3851 -0.4484  0.2593
  251MOL0     C33771  10.607   4.939   6.614 -0.7052  0.4763 -0.0054
  251MOL0     C33772  10.605   4.937   6.467  0.2278  0.0586  0.4802
  251MOL0     C33773  10.489   5.018   6.407 -0.3525  0.3983  0.0650
  251MOL0     O33774  10.355   4.970   6.449  0.0872 -0.0143  0.2057
  251MOL0     C33775  10.241   5.033   6.399 -0.7392 -0.7507  0.4083
  251MOL0     C33776  10.232   5.162   6.353 -0.4039 -0.2569  0.8977
  251MOL0     C33777  10.112   5.214   6.308  0.7552  1.2656 -0.1615
  251MOL0     C33778   9.992   5.135   6.311  0.0949 -0.6636 -0.1733
  251MOL0     C33779   9.864   5.184   6.260 -0.2725  0.2872 -0.4046
  251MOL0     O33780   9.858   5.318   6.237 -0.0201 -0.1405 -0.4875
  251MOL0     C33781   9.751   5.366   6.162 -0.4719  0.6648  0.3572
  251MOL0     C33782   9.688   5.299   6.051  1.4438 -0.3125 -0.3659
  251MOL0     C33783   9.574   5.356   5.987 -0.3872  0.1183  0.8613
  251MOL0     C33784   9.537   5.490   6.013  0.3047  0.4324 -0.2121
  251MOL0     O33785   9.448   5.570   5.948  0.1772  0.1344 -0.2460
  251MOL0     C33786   9.402   5.536   5.811 -0.1381 -0.2140  0.3800
  251MOL0     C33787   9.259   5.476   5.807  0.6535 -0.5156 -0.0364
  251MOL0     C33788   9.236   5.356   5.909 -0.7405  0.0981  0.3981
  251MOL0     C33789   9.085   5.311   5.918 -0.8829 -0.5726 -0.1754
  251MOL0     C33790   9.000   5.418   5.996  0.1378  0.2131  0.1696
  251MOL0     C33791   8.861   5.367   6.009  1.2006  0.9597 -0.7489
  251MOL0     C33792   8.787   5.465   6.104  0.1738  0.6641 -0.3858
  251MOL0     C33793   8.639   5.448   6.101  0.3657  0.2013  0.6304
  251MOL0    Cl33794   8.557   5.585   6.178  0.1861 -0.5095  0.0630
  251MOL0     C33795   9.610   5.556   6.117  0.4230 -0.1173 -0.7918
  251MOL0     C33796   9.716   5.500   6.185  0.2488  0.4295  0.5931
  251MOL0     O33797   9.768   5.108   6.249 -0.3943 -0.3254  0.1262
  251MOL0     C33798   9.992   5.010   6.377  0.0202  0.6291 -0.2183
  251MOL0     C33799  10.116   4.962   6.415 -0.6848 -0.1897 -0.5873
  251MOL0     N33800  10.859   4.942   6.894 -0.0580 -0.0134 -0.3449
  251MOL0     N33801  10.826   4.975   7.016 -0.4135  0.0458 -0.1958
  251MOL0     C33802   9.715   5.613   6.984 -0.3053  0.1954 -0.3935
  251MOL0     C33803   9.613   5.704   7.004  0.8580  0.6751  0.1453
  251MOL0     C33804   9.204   5.860   6.986 -0.7774 -0.1358 -0.4373
  251MOL0     C33805   9.208   5.937   7.111 -0.3000 -0.5383 -0.1553
  251MOL0     C33806   9.133   6.046   7.132  1.8721 -0.0206 -0.3190
  251MOL0     C33807   9.051   6.093   7.030  0.2450  1.0120 -0.9460
  251MOL0     O33808   8.991   6.214   7.041 -0.1214 -0.7023  0.2964
  251MOL0     C33809   9.059   6.327   7.105  0.7485  0.3995  0.4251
  251MOL0     C33810   9.000   6.358   7.241 -0.8795  1.3112 -0.1880
  251MOL0     C33811   9.082   6.460   7.321 -0.3629  0.1054  0.6265
  251MOL0     C33812   9.064   6.599   7.264 -0.2667  0.5939 -0.3042
  251MOL0     C33813   9.134   6.690   7.357  0.2242 -0.5181 -0.6185
  251MOL0     C33814   9.168   6.774   7.440  0.4161 -0.6493  0.5071
  251MOL0     C33815   9.040   6.025   6.910  0.0326  1.2987  0.6149
  251MOL0     C33816   9.106   5.898   6.893 -0.0782 -0.0269  0.1272
  251MOL0     C33817   9.086   5.838   6.752 -0.6113 -0.7994 -0.8097
  251MOL0     H33818   9.374   5.488   7.119 -1.1642  4.1679  0.3404
  251MOL0     H33819   9.560   5.323   7.092 -2.3101  0.4703 -0.0868
  251MOL0     H33820   9.983   5.515   7.013 -1.1134  1.7845  0.8917
  251MOL0     H33821   9.902   5.468   7.165 -1.7172  1.4305  0.1348
  251MOL0     H33822  10.057   5.289   6.962  1.4342  1.2813 -0.6991
  251MOL0     H33823   9.979   5.221   7.099  1.6434 -0.5340  0.5546
  251MOL0     H33824  10.101   5.367   7.262  1.8129  2.2316  0.6373
  251MOL0     H33825  10.209   5.404   7.115 -1.9775  2.1319  0.5685
  251MOL0     H33826  10.180   5.131   7.225  1.3122  0.4117  1.9842
  251MOL0     H33827  10.262   5.178   7.083  2.2579  0.4593  0.6397
  251MOL0     H33828  10.399   5.348   7.192 -1.0585 -0.7943 -1.7531
  251MOL0     H33829  10.326   5.302   7.351  1.9353  0.6777  0.5659
  251MOL0     H33830  10.536   5.176   7.344 -0.3239  0.7954  0.5231
  251MOL0     H33831  10.422   5.059   7.310  0.6823 -0.3445  0.9867
  251MOL0     H33832  10.578   5.197   7.093  0.3642 -0.8059 -0.3502
  251MOL0     H33833  10.446   5.083   7.077 -0.8423  1.7130  0.8367
  251MOL0     H33834  10.692   5.036   7.237  0.7950  0.0441  0.7504
  251MOL0     H33835  10.556   4.928   7.193  1.1638  0.3533  0.7631
  251MOL0     H33836  10.536   4.923   6.881 -0.9241  0.0381  2.7669
  251MOL0     H33837  10.817   4.912   6.608 -1.9324 -1.0402 -2.7011
  251MOL0     H33838  10.719   4.771   6.669  1.0226 -0.4150 -2.4737
  251MOL0     H33839  10.526   4.885   6.665 -0.7090 -0.5952 -1.0934
  251MOL0     H33840  10.604   5.044   6.643  2.4682  0.0486  2.5272
  251MOL0     H33841  10.592   4.843   6.414  0.7370  1.0658 -1.5591
  251MOL0     H33842  10.694   4.989   6.429 -1.6585  2.4804 -0.8856
  251MOL0     H33843  10.505   5.013   6.299  0.4010 -3.4794  0.2190
  251MOL0     H33844  10.499   5.122   6.437 -0.5720 -0.0093  1.6559
  251MOL0     H33845  10.314   5.232   6.341 -0.4816 -0.5378 -2.1711
  251MOL0     H33846  10.101   5.319   6.281 -1.5975  2.0473  3.1758
  251MOL0     H33847   9.724   5.201   6.021 -1.1156 -0.7988 -2.2323
  251MOL0     H33848   9.526   5.302   5.906  2.8204 -1.1900 -0.3344
  251MOL0     H33849   9.403   5.627   5.749  2.5065 -0.9044 -0.7020
  251MOL0     H33850   9.466   5.460   5.765  1.4671  0.2702  1.7397
  251MOL0     H33851   9.199   5.564   5.830  0.0563 -1.0726  0.5944
  251MOL0     H33852   9.222   5.437   5.712 -2.5924 -0.5298  1.1095
  251MOL0     H33853   9.302   5.284   5.860  0.4652  1.4483  0.0064
  251MOL0     H33854   9.271   5.378   6.010  1.1789 -2.4344  0.3926
  251MOL0     H33855   9.091   5.213   5.967 -2.2954 -0.2046  0.7892
  251MOL0     H33856   9.045   5.297   5.818  0.5791  1.5252 -1.1223
  251MOL0     H33857   8.992   5.511   5.939 -1.2012  1.9968  3.0311
  251MOL0     H33858   9.037   5.446   6.095 -0.7361  2.4779 -0.0760
  251MOL0     H33859   8.805   5.367   5.915  3.3846  0.0432 -2.1208
  251MOL0     H33860   8.852   5.269   6.057 -0.3306  0.7032 -1.4885
  251MOL0     H33861   8.823   5.566   6.082 -2.5674  1.9541  0.6130
  251MOL0     H33862   8.832   5.442   6.201 -0.2372 -1.3369 -0.6137
  251MOL0     H33863   8.601   5.457   5.999 -0.8838  1.7384  1.1813
  251MOL0     H33864   8.606   5.353   6.145 -1.5338  0.3069 -0.4905
  251MOL0     H33865   9.574   5.650   6.158 -1.2555 -0.9806 -0.2274
  251MOL0     H33866   9.776   5.550   6.261  3.6303 -0.9811 -0.9860
  251MOL0     H33867   9.903   4.950   6.393  2.9023 -3.3321  3.1454
  251MOL0     H33868  10.120   4.861   6.456 -0.3516  0.5981  1.4209
  251MOL0     H33869   9.804   5.656   6.938  0.0445  0.7599  0.7765
  251MOL0     H33870   9.623   5.811   6.991  2.2785  0.8863  2.4519
  251MOL0     H33871   9.282   5.922   7.189  0.7639  1.4382 -0.7043
  251MOL0     H33872   9.139   6.111   7.220 -3.8269  0.7359 -0.0540
  251MOL0     H33873   9.035   6.408   7.036 -2.0919  0.3735  1.2291
  251MOL0     H33874   9.164   6.299   7.110  0.6511 -1.5060 -3.8265
  251MOL0     H33875   8.992   6.272   7.308  0.5294  0.8189 -0.6099
  251MOL0     H33876   8.897   6.393   7.232 -2.2159 -0.9986  3.6106
  251MOL0     H33877   9.190   6.440   7.321 -0.1625  1.1275  0.4399
  251MOL0     H33878   9.047   6.461   7.424 -4.5619 -0.6600 -0.6113
  251MOL0     H33879   9.116   6.599   7.167  0.9995  0.9537  0.3502
  251MOL0     H33880   8.959   6.622   7.247 -0.0646  0.7842 -1.3919
  251MOL0     H33881   9.188   6.848   7.514  0.1662 -1.6643  1.6188
  251MOL0     H33882   8.971   6.049   6.830  0.9833 -1.6630 -1.2509
  251MOL0     H33883   9.078   5.729   6.749 -1.2878 -0.7763 -0.1642
  251MOL0     H33884   8.995   5.881   6.707 -1.3471 -1.4984 -0.0289
  251MOL0     H33885   9.180   5.858   6.700  1.3433 -0.9605  2.4035
  252MOL0     O33886   3.498   5.342   5.411 -0.7705  0.4035 -0.0027
  252MOL0     C33887   3.512   5.224   5.371  0.3212 -0.3783  0.0731
  252MOL0     O33888   3.411   5.130   5.336  0.4554 -0.2389 -0.3207
  252MOL0     C33889   3.278   5.158   5.373  0.2376  0.4577 -0.0809
  252MOL0     C33890   3.178   5.101   5.298  0.5177 -0.4218 -1.3297
  252MOL0     C33891   3.045   5.136   5.321 -0.3493 -0.0681  0.2337
  252MOL0     C33892   3.010   5.216   5.425  0.5714 -0.5392  0.7689
  252MOL0     O33893   2.879   5.249   5.449  0.5445  0.7468 -0.0967
  252MOL0     C33894   2.836   5.329   5.557 -0.3295  0.3109  0.6022
  252MOL0     C33895   2.692   5.382   5.513 -0.5585 -0.2051 -0.3017
  252MOL0     C33896   2.605   5.258   5.490  0.1180 -0.3953  0.8970
  252MOL0     C33897   2.570   5.176   5.610  1.0236  0.5833 -0.1876
  252MOL0     C33898   2.459   5.085   5.573  0.2428  0.1398 -1.0124
  252MOL0     C33899   2.432   4.981   5.684 -1.0189  0.2147  0.8137
  252MOL0     C33900   2.356   4.852   5.645 -0.0220  0.1823  0.5828
  252MOL0     C33901   2.353   4.732   5.734 -0.3099  0.6184 -0.2516
  252MOL0     N33902   2.467   4.640   5.754  0.3133 -0.6572  0.9168
  252MOL0     C33903   2.509   4.551   5.655 -0.3529  0.1483  0.0940
  252MOL0     C33904   2.626   4.503   5.701  0.2410  0.0943 -0.3771
  252MOL0     C33905   2.711   4.405   5.635  0.2035  0.5347 -0.1928
  252MOL0     C33906   2.658   4.265   5.650  0.0831  0.1934  0.3599
  252MOL0     C33907   2.714   4.163   5.547  0.2452  0.0889 -0.3475
  252MOL0     C33908   2.872   4.172   5.542 -0.2438 -0.3882  0.5501
  252MOL0     O33909   2.929   4.137   5.662 -0.0656  0.3978 -0.4602
  252MOL0     C33910   3.061   4.094   5.668  0.4327  0.3289  1.0658
  252MOL0     C33911   3.116   4.072   5.793 -1.1721 -0.6418  0.0127
  252MOL0     C33912   3.254   4.042   5.806 -0.1765  0.8181 -0.2292
  252MOL0     C33913   3.329   4.016   5.684  0.2296 -0.0541 -0.8047
  252MOL0     C33914   3.461   3.943   5.700 -0.1463  0.8274  0.0621
  252MOL0     O33915   3.504   3.911   5.825  0.1496 -0.2381 -0.5340
  252MOL0     C33916   3.634   3.861   5.846  0.1778  0.3758 -0.1507
  252MOL0     C33917   3.652   3.781   5.956  0.1889 -0.6879  0.1126
  252MOL0     C33918   3.776   3.722   5.986  0.3026  0.7389  0.5157
  252MOL0     C33919   3.888   3.740   5.908  0.5009  0.1665  0.5352
  252MOL0     O33920   3.991   3.687   5.976 -0.6599  0.4000  0.0718
  252MOL0     C33921   4.124   3.720   5.937 -0.6408  0.3769 -0.0043
  252MOL0     C33922   4.248   3.667   6.022  0.5492  0.6135  0.5071
  252MOL0     C33923   4.386   3.697   5.960 -0.7486  0.5881  0.1226
  252MOL0     C33924   4.500   3.658   6.056 -0.5210  0.1243 -0.6801
  252MOL0     C33925   4.642   3.663   5.998 -0.1431 -0.1022 -0.5392
  252MOL0     C33926   4.739   3.586   6.085 -0.5619  0.3710 -0.2109
  252MOL0     C33927   4.719   3.593   6.241  0.1188 -0.5170 -0.1501
  252MOL0     C33928   4.833   3.544   6.327  0.3655  0.5237  1.0435
  252MOL0    Cl33929   4.873   3.377   6.284  0.0176  0.5706 -0.1029
  252MOL0     C33930   3.879   3.832   5.797  0.7786 -1.0447 -0.9245
  252MOL0     C33931   3.755   3.898   5.773 -0.3372  0.9515 -0.3112
  252MOL0     O33932   3.513   3.896   5.601  0.6429  0.4088  0.5603
  252MOL0     C33933   3.275   4.055   5.561  0.1768 -0.0427  1.0698
  252MOL0     C33934   3.143   4.094   5.549  0.0014  0.5976 -0.0052
  252MOL0     N33935   2.643   4.560   5.825  0.0261  0.2184  0.2868
  252MOL0     N33936   2.557   4.655   5.852  0.4095  0.4824 -0.2529
  252MOL0     C33937   3.111   5.261   5.514  0.2739  0.8400  0.5868
  252MOL0     C33938   3.243   5.231   5.480 -0.1102  0.2557 -0.1537
  252MOL0     C33939   3.650   5.167   5.385 -0.4250  0.0018  1.0050
  252MOL0     C33940   3.744   5.239   5.475 -0.5078  0.1616 -0.1025
  252MOL0     C33941   3.876   5.191   5.501 -0.0907  0.2507  0.1235
  252MOL0     C33942   3.911   5.062   5.442  0.0545 -0.8159 -0.1557
  252MOL0     O33943   4.043   5.016   5.446 -0.0453  0.3000 -0.1582
  252MOL0     C33944   4.099   5.004   5.576  0.1222  0.0030  0.1212
  252MOL0     C33945   4.126   4.866   5.626  0.2741 -0.5397 -0.0527
  252MOL0     C33946   4.211   4.781   5.529  0.5008  0.7625 -0.9133
  252MOL0     C33947   4.352   4.831   5.514  0.5799 -0.7236 -0.1961
  252MOL0     C33948   4.423   4.861   5.636 -0.1544 -0.0809  0.3510
  252MOL0     C33949   4.498   4.894   5.727  0.3548 -0.5951  0.2823
  252MOL0     C33950   3.831   5.008   5.339 -0.2986 -0.1603 -0.3758
  252MOL0     C33951   3.700   5.057   5.310 -0.0766 -0.7167  1.2757
  252MOL0     C33952   3.620   4.982   5.195  0.5366 -0.1477 -0.2413
  252MOL0     H33953   3.202   5.039   5.213 -1.4819 -2.6290 -0.3711
  252MOL0     H33954   2.973   5.088   5.255  2.4775 -0.9393 -2.4616
  252MOL0     H33955   2.837   5.275   5.652  0.1270 -1.6464 -0.4742
  252MOL0     H33956   2.907   5.412   5.561 -0.2885  0.2937  0.2867
  252MOL0     H33957   2.695   5.445   5.424  0.2098 -0.0896 -0.1992
  252MOL0     H33958   2.646   5.435   5.597 -1.1136 -0.6071 -0.3468
  252MOL0     H33959   2.649   5.196   5.411  1.0368 -0.0522  1.1230
  252MOL0     H33960   2.514   5.289   5.437  1.4987  1.3673 -0.5929
  252MOL0     H33961   2.665   5.128   5.636  0.1509 -0.4373  1.2554
  252MOL0     H33962   2.533   5.238   5.693 -5.2425 -2.0703 -0.4136
  252MOL0     H33963   2.370   5.147   5.560  1.0482  2.8496  4.0026
  252MOL0     H33964   2.480   5.031   5.480 -0.0949 -0.5059 -0.7152
  252MOL0     H33965   2.531   4.943   5.709 -2.0097 -3.9042 -0.6958
  252MOL0     H33966   2.393   5.029   5.774  3.2376 -0.2309  3.1215
  252MOL0     H33967   2.400   4.806   5.556 -1.4785 -0.6395  0.2596
  252MOL0     H33968   2.257   4.885   5.613  1.2321  1.4859 -2.3532
  252MOL0     H33969   2.322   4.760   5.835  1.7673  3.1001 -0.1852
  252MOL0     H33970   2.268   4.678   5.691  0.7117 -0.9981 -0.2967
  252MOL0     H33971   2.457   4.522   5.564  0.1188 -1.0820  0.2047
  252MOL0     H33972   2.707   4.430   5.528  3.5154 -1.6774 -1.0000
  252MOL0     H33973   2.818   4.403   5.656  0.0205  0.8318  0.7859
  252MOL0     H33974   2.678   4.218   5.747  0.5172  1.3063  0.8282
  252MOL0     H33975   2.549   4.272   5.649 -0.1647 -2.5424  1.0085
  252MOL0     H33976   2.674   4.176   5.446  0.7447  2.2333 -0.3124
  252MOL0     H33977   2.674   4.070   5.586 -1.0377  1.6090  2.2091
  252MOL0     H33978   2.894   4.274   5.509 -2.2297 -0.0721  0.0602
  252MOL0     H33979   2.900   4.108   5.457  0.6325  1.5563 -0.7042
  252MOL0     H33980   3.054   4.098   5.879 -1.3890 -0.6142 -0.1506
  252MOL0     H33981   3.292   4.024   5.906 -1.5025  0.9625  0.3198
  252MOL0     H33982   3.569   3.759   6.022 -0.8270  0.9403 -0.5784
  252MOL0     H33983   3.773   3.646   6.063 -0.0577 -0.1093 -0.3108
  252MOL0     H33984   4.138   3.689   5.833 -0.9855  0.5848 -0.1140
  252MOL0     H33985   4.136   3.828   5.940  0.9816  0.3005 -1.8389
  252MOL0     H33986   4.241   3.712   6.122  0.0400  0.8569  0.3608
  252MOL0     H33987   4.224   3.560   6.031 -1.0985  1.0710  2.2277
  252MOL0     H33988   4.398   3.630   5.874 -0.5320 -0.1829  0.7462
  252MOL0     H33989   4.399   3.803   5.938 -0.1112  0.3562 -0.6641
  252MOL0     H33990   4.490   3.560   6.103  0.2311  0.0426 -0.6684
  252MOL0     H33991   4.492   3.724   6.143 -0.9881 -0.8469  0.0218
  252MOL0     H33992   4.664   3.770   5.990 -2.7353  1.0525  4.1769
  252MOL0     H33993   4.641   3.623   5.896 -0.4231 -3.2777  0.5736
  252MOL0     H33994   4.730   3.481   6.056 -3.1653 -0.0919  1.8698
  252MOL0     H33995   4.836   3.631   6.063 -0.7925  1.4267  0.8122
  252MOL0     H33996   4.627   3.547   6.276 -0.1719  1.4368  1.8327
  252MOL0     H33997   4.705   3.699   6.264  2.6409  0.5093 -2.7576
  252MOL0     H33998   4.918   3.604   6.293  0.5065 -0.8267 -1.2358
  252MOL0     H33999   4.823   3.546   6.436 -1.1640 -2.7752  1.0779
  252MOL0     H34000   3.965   3.873   5.746 -0.5699 -1.2909 -3.5841
  252MOL0     H34001   3.739   3.972   5.696 -1.4478  0.5552 -0.4777
  252MOL0     H34002   3.323   4.033   5.466 -3.0471  1.2379 -0.9961
  252MOL0     H34003   3.095   4.098   5.453 -4.5376 -1.2848  1.8984
  252MOL0     H34004   3.097   5.319   5.604  2.9576  1.0095  0.9693
  252MOL0     H34005   3.318   5.269   5.548 -1.3140 -1.5712  2.3659
  252MOL0     H34006   3.710   5.333   5.517  0.8644  0.9639 -0.7299
  252MOL0     H34007   3.946   5.246   5.562  1.2847  2.3147 -3.0642
  252MOL0     H34008   4.038   5.062   5.646 -2.6587 -1.9660 -0.4614
  252MOL0     H34009   4.197   5.052   5.567  1.5589 -2.9991 -2.2411
  252MOL0     H34010   4.030   4.820   5.651 -0.5362  1.2263  0.2308
  252MOL0     H34011   4.180   4.872   5.721 -0.9390 -3.9381  1.0009
  252MOL0     H34012   4.167   4.778   5.429 -0.0200 -0.2801 -0.6655
  252MOL0     H34013   4.203   4.679   5.567  0.2966  1.6494  1.6082
  252MOL0     H34014   4.413   4.746   5.481  2.5463  1.4894 -2.6362
  252MOL0     H34015   4.357   4.915   5.445  0.6367  0.2453  0.9718
  252MOL0     H34016   4.564   4.924   5.806  2.0570  2.9690 -2.2284
  252MOL0     H34017   3.878   4.922   5.293  1.3209  0.2539  0.4077
  252MOL0     H34018   3.520   4.950   5.224  0.6270 -1.6933 -1.5302
  252MOL0     H34019   3.593   5.049   5.113 -0.3768 -0.7890 -0.4755
  252MOL0     H34020   3.669   4.894   5.153 -0.7597 -0.0627 -2.0259
  253MOL0     O34021   7.963   7.092   4.670  0.2533 -0.4411 -0.1405
  253MOL0     C34022   8.009   7.113   4.779 -0.0640  0.1094  0.0476
  253MOL0     O34023   8.145   7.121   4.806  0.9713  0.0345  0.6465
  253MOL0     C34024   8.254   7.117   4.716  1.1343 -0.3289 -0.2853
  253MOL0     C34025   8.248   7.145   4.582 -0.1109 -0.4845  0.3522
  253MOL0     C34026   8.356   7.129   4.495 -0.4303  0.0179 -0.8454
  253MOL0     C34027   8.487   7.095   4.540 -0.1546 -0.0649 -0.3109
  253MOL0     O34028   8.589   7.098   4.446 -0.1083 -0.6715  0.0222
  253MOL0     C34029   8.722   7.062   4.480 -0.5623 -1.1016 -0.9783
  253MOL0     C34030   8.829   7.134   4.387  0.2348  0.2239 -0.1483
  253MOL0     C34031   8.785   7.107   4.239 -0.2638 -0.1723  0.2511
  253MOL0     C34032   8.893   7.165   4.142 -0.8296  0.0321  0.3207
  253MOL0     C34033   9.025   7.085   4.143  0.9664 -0.5190  0.4173
  253MOL0     C34034   9.122   7.157   4.051  0.4586 -0.0658  0.3560
  253MOL0     C34035   9.263   7.095   4.039 -1.0787 -0.6745 -0.1290
  253MOL0     C34036   9.260   6.941   4.006  0.1288 -0.1828 -0.7709
  253MOL0     N34037   9.390   6.885   4.044  0.3113  0.1738 -0.4449
  253MOL0     C34038   9.507   6.926   3.991 -0.4537 -0.1730  0.0137
  253MOL0     C34039   9.609   6.863   4.072  0.8624 -1.1734 -0.0146
  253MOL0     C34040   9.759   6.876   4.074  0.6286  0.1345  0.4890
  253MOL0     C34041   9.813   6.823   3.939  0.0282  0.3289  0.7776
  253MOL0     C34042   9.967   6.873   3.933  0.6674  0.4090  0.9532
  253MOL0     C34043  10.017   6.850   3.794 -0.0217 -0.6527 -0.1532
  253MOL0     O34044  10.158   6.877   3.815 -0.3502  0.1174 -0.3191
  253MOL0     C34045  10.242   6.792   3.752 -0.4866  0.2088 -0.6086
  253MOL0     C34046  10.348   6.747   3.835 -0.2159  0.7275  0.0096
  253MOL0     C34047  10.448   6.662   3.780  0.2584  0.2578 -1.3857
  253MOL0     C34048  10.431   6.615   3.649 -0.5574  0.6558  0.3025
  253MOL0     C34049  10.523   6.527   3.584  0.5859 -0.5034 -0.2040
  253MOL0     O34050  10.628   6.478   3.650 -1.1643 -0.3781 -1.0366
  253MOL0     C34051  10.708   6.374   3.586 -0.5428 -0.4655 -0.0907
  253MOL0     C34052  10.848   6.376   3.592  0.2072  0.2822 -0.0124
  253MOL0     C34053  10.925   6.264   3.534 -0.0961  0.3883  0.0909
  253MOL0     C34054  10.866   6.164   3.464  0.5453  0.1034 -0.4778
  253MOL0     O34055  10.934   6.075   3.385 -0.1424  0.3902 -0.3329
  253MOL0     C34056  11.004   6.138   3.282 -0.3681 -0.3165  0.3123
  253MOL0     C34057  10.914   6.153   3.157 -0.3178 -0.2684 -0.3376
  253MOL0     C34058  10.810   6.273   3.152 -0.3953 -0.0561  0.5972
  253MOL0     C34059  10.868   6.415   3.158  0.0934 -0.3756  0.3055
  253MOL0     C34060  10.765   6.530   3.119  0.1107 -0.3508 -0.9019
  253MOL0     C34061  10.823   6.662   3.176  0.3688 -0.1441  0.0184
  253MOL0     C34062  10.754   6.786   3.129  0.4785  0.0366 -0.6835
  253MOL0     C34063  10.806   6.834   2.995  0.3437 -0.2148  0.6136
  253MOL0    Cl34064  10.775   7.004   2.982 -0.0615  0.1386  0.1164
  253MOL0     C34065  10.725   6.177   3.454  0.6179 -0.4574 -0.2377
  253MOL0     C34066  10.644   6.271   3.519 -0.7709 -0.9347  0.6421
  253MOL0     O34067  10.508   6.515   3.459 -0.7649 -0.1345 -0.7663
  253MOL0     C34068  10.320   6.662   3.572  0.0365  0.6831  0.9392
  253MOL0     C34069  10.233   6.748   3.623 -0.7206 -0.3184 -0.1906
  253MOL0     N34070   9.543   6.803   4.179 -0.1049  0.7941 -0.2107
  253MOL0     N34071   9.413   6.823   4.157 -0.1557 -0.8546  0.0886
  253MOL0     C34072   8.494   7.067   4.677 -0.3211  0.9351 -0.7169
  253MOL0     C34073   8.381   7.081   4.758 -0.3840 -0.1825 -0.0956
  253MOL0     C34074   7.933   7.102   4.902 -1.0289 -0.2343  0.7054
  253MOL0     C34075   7.881   7.216   4.977  0.1767  0.1369 -0.1880
  253MOL0     C34076   7.781   7.201   5.084 -0.5684 -0.2719  0.2933
  253MOL0     C34077   7.752   7.068   5.120 -0.0373 -0.2132 -1.1815
  253MOL0     O34078   7.678   7.054   5.235  0.0613  0.6023  0.0171
  253MOL0     C34079   7.588   6.943   5.248 -1.0806  0.0221  0.0355
  253MOL0     C34080   7.478   6.948   5.150 -0.0460 -0.2756 -0.3278
  253MOL0     C34081   7.370   6.850   5.196  0.1827  0.4061  0.4149
  253MOL0     C34082   7.249   6.841   5.101 -0.4804  0.2080 -0.1687
  253MOL0     C34083   7.149   6.758   5.168 -0.1479 -0.1898 -0.1255
  253MOL0     C34084   7.061   6.689   5.218 -0.0113  0.5139  0.4959
  253MOL0     C34085   7.804   6.960   5.051  0.1585 -0.5418 -1.1216
  253MOL0     C34086   7.893   6.973   4.943  0.7770 -0.4579 -0.0833
  253MOL0     C34087   7.933   6.845   4.862 -1.0122  0.2173  0.4841
  253MOL0     H34088   8.150   7.168   4.541 -1.2242 -1.9103  2.0872
  253MOL0     H34089   8.350   7.157   4.390 -0.4975  1.4929 -0.4661
  253MOL0     H34090   8.741   7.102   4.580 -1.0220  0.6357 -1.5406
  253MOL0     H34091   8.733   6.954   4.471 -0.0899 -1.0047 -1.6937
  253MOL0     H34092   8.928   7.093   4.407  1.6539  2.8537 -1.4049
  253MOL0     H34093   8.836   7.243   4.387  2.8174  0.1725 -2.5793
  253MOL0     H34094   8.689   7.153   4.214 -0.1018  0.2657  0.4152
  253MOL0     H34095   8.779   7.002   4.211  0.4185  0.1280 -1.0928
  253MOL0     H34096   8.860   7.177   4.039  3.4652 -4.2458 -1.9746
  253MOL0     H34097   8.921   7.263   4.182 -0.7383 -0.3722  1.2840
  253MOL0     H34098   9.078   7.082   4.240 -1.4112  0.3130  1.8240
  253MOL0     H34099   9.009   6.986   4.101 -0.8120  0.2348 -0.7683
  253MOL0     H34100   9.075   7.163   3.952  0.2027 -1.3684  0.3902
  253MOL0     H34101   9.133   7.264   4.070 -2.0957  0.6940 -1.8023
  253MOL0     H34102   9.322   7.105   4.130  2.6176  4.1211 -2.6476
  253MOL0     H34103   9.299   7.147   3.950 -4.1147  2.0047  0.0372
  253MOL0     H34104   9.181   6.885   4.058 -1.4585  1.9178 -0.8128
  253MOL0     H34105   9.242   6.933   3.899 -0.9472  2.7226 -0.8894
  253MOL0     H34106   9.521   7.000   3.913 -2.2653  0.5652  0.3572
  253MOL0     H34107   9.781   6.983   4.072  0.2648  0.2121  0.5023
  253MOL0     H34108   9.807   6.838   4.165  1.9312  0.8612  0.1330
  253MOL0     H34109   9.809   6.714   3.950  0.6814  0.2021 -0.0966
  253MOL0     H34110   9.746   6.852   3.857 -1.9467 -1.6355  1.5734
  253MOL0     H34111  10.027   6.813   4.001  3.8434  1.9904 -0.2293
  253MOL0     H34112   9.972   6.982   3.948 -0.2312  0.8684 -1.4549
  253MOL0     H34113   9.977   6.922   3.723  1.4647  0.6978  0.3260
  253MOL0     H34114  10.002   6.752   3.748 -2.2488  0.6015 -2.3081
  253MOL0     H34115  10.376   6.781   3.934  3.5258  2.7351 -1.5250
  253MOL0     H34116  10.528   6.620   3.840  0.2156 -0.5070 -1.8593
  253MOL0     H34117  10.891   6.458   3.649 -0.7422  0.8990 -0.1616
  253MOL0     H34118  11.033   6.272   3.543  0.5795 -1.0129 -4.2634
  253MOL0     H34119  11.041   6.237   3.310  2.4514 -0.9416 -0.8572
  253MOL0     H34120  11.092   6.078   3.256  1.7953  2.2017  1.3111
  253MOL0     H34121  10.978   6.156   3.068  1.2521 -0.4348  0.7398
  253MOL0     H34122  10.857   6.059   3.155  0.5145 -0.8052  0.5583
  253MOL0     H34123  10.769   6.252   3.053  2.6188 -1.4897 -0.4846
  253MOL0     H34124  10.731   6.263   3.226  0.0456  0.6512  1.1800
  253MOL0     H34125  10.963   6.429   3.104  1.0128  0.3180  2.0153
  253MOL0     H34126  10.906   6.427   3.260  0.4582  1.5826 -0.0235
  253MOL0     H34127  10.669   6.514   3.168 -1.3007 -0.0114 -3.3898
  253MOL0     H34128  10.766   6.521   3.010  0.1182  0.4928 -0.9778
  253MOL0     H34129  10.805   6.652   3.283 -1.1130 -2.0850 -0.3439
  253MOL0     H34130  10.929   6.666   3.150  0.2244 -1.4435 -0.9194
  253MOL0     H34131  10.782   6.859   3.205  1.8735 -0.7971 -0.3700
  253MOL0     H34132  10.646   6.773   3.137  0.4874 -0.1813 -0.8939
  253MOL0     H34133  10.913   6.812   2.998  0.8810  2.1927  2.7963
  253MOL0     H34134  10.765   6.786   2.905 -0.3908  1.2387  0.1374
  253MOL0     H34135  10.681   6.089   3.408  2.7828 -2.0222  0.5316
  253MOL0     H34136  10.538   6.284   3.500 -0.5040 -0.9843 -1.1301
  253MOL0     H34137  10.314   6.626   3.470  1.5593 -0.7906  1.3221
  253MOL0     H34138  10.147   6.774   3.561 -0.6026  0.2395 -0.1255
  253MOL0     H34139   8.585   7.037   4.727 -1.6583  2.1241  2.6884
  253MOL0     H34140   8.386   7.057   4.864  0.8367  0.4917  0.0112
  253MOL0     H34141   7.897   7.312   4.931 -4.3056  1.4937  0.5690
  253MOL0     H34142   7.746   7.293   5.129  2.5142  1.6632 -0.9897
  253MOL0     H34143   7.544   6.948   5.348 -1.6087  1.4135 -0.2446
  253MOL0     H34144   7.646   6.850   5.240 -1.1309  0.0550 -0.8497
  253MOL0     H34145   7.519   6.932   5.050  0.1906  1.4178 -0.5310
  253MOL0     H34146   7.437   7.049   5.146  1.0258  0.1772 -0.4425
  253MOL0     H34147   7.324   6.883   5.290 -0.3862  2.8724 -0.6458
  253MOL0     H34148   7.408   6.752   5.226  1.8865  0.5439 -1.0902
  253MOL0     H34149   7.214   6.942   5.080  1.7705  1.0037 -0.3535
  253MOL0     H34150   7.271   6.800   5.002 -2.1974 -0.2989 -0.3761
  253MOL0     H34151   6.984   6.621   5.248  0.9646 -0.5856  0.5871
  253MOL0     H34152   7.766   6.861   5.074 -2.1230 -0.1484 -2.8046
  253MOL0     H34153   8.035   6.807   4.873 -0.7780 -0.4671 -2.9264
  253MOL0     H34154   7.871   6.762   4.898 -0.8876  0.7192  1.9223
  253MOL0     H34155   7.909   6.856   4.756 -1.7861  0.2086  0.6547
  254MOL0     O34156   3.590   7.493   9.722  0.1933  0.4279  0.3849
  254MOL0     C34157   3.506   7.580   9.751 -0.2680  0.5216 -0.4927
  254MOL0     O34158   3.543   7.683   9.834  0.0343  0.8967 -0.0835
  254MOL0     C34159   3.642   7.677   9.934 -0.1579 -0.6853  1.0468
  254MOL0     C34160   3.762   7.602   9.944  0.2191  0.4463 -0.7922
  254MOL0     C34161   3.859   7.615  10.050  0.9473 -0.0247  0.2192
  254MOL0     C34162   3.825   7.710  10.157 -0.3272 -0.0949  0.6698
  254MOL0     O34163   3.914   7.732  10.260 -0.9266 -0.6219  0.0568
  254MOL0     C34164   4.029   7.646  10.266  0.4369  0.9305  0.5510
  254MOL0     C34165   4.113   7.665  10.391  0.1588 -0.3669 -0.4688
  254MOL0     C34166   4.033   7.654  10.519 -0.7612 -0.0358 -0.6550
  254MOL0     C34167   4.016   7.508  10.554  1.0739 -0.1096  0.0331
  254MOL0     C34168   3.939   7.486  10.684 -0.8352  0.7231 -0.6484
  254MOL0     C34169   3.948   7.332  10.717  0.1437 -0.6197  0.0863
  254MOL0     C34170   3.884   7.312  10.860 -0.0321  0.1347 -0.1592
  254MOL0     C34171   3.913   7.166  10.906  0.0970 -0.7863 -0.3989
  254MOL0     N34172   4.063   7.127  10.931  0.2093 -0.3160  0.1253
  254MOL0     C34173   4.114   7.028  10.852 -0.2936  0.2956 -0.0125
  254MOL0     C34174   4.245   7.042  10.876  0.8348  0.2337  0.3731
  254MOL0     C34175   4.349   6.958  10.824 -0.7307  0.1132  0.3620
  254MOL0     C34176   4.487   7.031  10.810  0.3192 -0.5688 -0.8631
  254MOL0     C34177   4.581   6.951  10.713  0.7896  0.0494 -0.1878
  254MOL0     C34178   4.718   7.019  10.672  0.7596 -0.7613  0.1282
  254MOL0     O34179   4.799   7.074  10.778 -0.6444  0.1916  0.2620
  254MOL0     C34180   4.927   7.115  10.748 -0.3732 -0.4884  0.1608
  254MOL0     C34181   4.997   7.178  10.851 -0.4024 -0.8418 -0.6762
  254MOL0     C34182   5.128   7.223  10.833 -0.2802 -0.7729 -0.1282
  254MOL0     C34183   5.194   7.204  10.709 -0.0973 -0.0774 -0.9413
  254MOL0     C34184   5.341   7.235  10.698 -0.0271  0.0439 -0.9963
  254MOL0     O34185   5.413   7.244  10.814 -0.0593  0.2871  0.0573
  254MOL0     C34186   5.556   7.251  10.819  0.5735 -0.1633 -0.9256
  254MOL0     C34187   5.613   7.195  10.940 -0.2655 -0.4637 -0.0848
  254MOL0     C34188   5.755   7.201  10.960 -0.1461 -0.2789  0.1922
  254MOL0     C34189   5.835   7.254  10.860 -0.1375 -0.1380  0.1481
  254MOL0     O34190   5.972   7.254  10.873 -0.5247  0.3424  0.2637
  254MOL0     C34191   6.054   7.290  10.756  0.4497  0.1412 -0.0345
  254MOL0     C34192   6.202   7.287  10.782 -0.2307 -0.5074 -0.6210
  254MOL0     C34193   6.243   7.419  10.848  0.2399 -0.0840  0.4176
  254MOL0     C34194   6.395   7.428  10.856  0.7243  0.3256 -0.5106
  254MOL0     C34195   6.430   7.559  10.914  0.0111 -0.4075 -1.0394
  254MOL0     C34196   6.382   7.604  11.060 -0.4561  0.2096 -0.5595
  254MOL0     C34197   6.499   7.697  11.111 -1.0896  0.0590 -0.4610
  254MOL0     C34198   6.450   7.773  11.230 -0.6790  0.3352 -0.6966
  254MOL0    Cl34199   6.582   7.847  11.321 -0.0192 -0.1279  0.3537
  254MOL0     C34200   5.775   7.309  10.744  0.4091 -0.3427  0.3628
  254MOL0     C34201   5.636   7.314  10.724 -0.8280 -0.9179 -0.2078
  254MOL0     O34202   5.386   7.242  10.587  0.5908 -0.5754  0.0956
  254MOL0     C34203   5.117   7.144  10.603 -0.4514 -0.5307 -0.1363
  254MOL0     C34204   4.991   7.105  10.623 -0.0971  0.3439 -0.5617
  254MOL0     N34205   4.270   7.157  10.955 -0.0896 -0.1637 -1.1584
  254MOL0     N34206   4.156   7.202  10.989 -0.4344 -0.2659  0.1977
  254MOL0     C34207   3.711   7.786  10.145  0.7340  0.2047 -0.3498
  254MOL0     C34208   3.625   7.771  10.041  0.6016 -0.5000  0.4931
  254MOL0     C34209   3.363   7.585   9.703  0.8139 -0.1383 -0.1302
  254MOL0     C34210   3.285   7.681   9.769  0.3189  0.0374 -0.9244
  254MOL0     C34211   3.151   7.701   9.724  0.1070  0.0521  0.1431
  254MOL0     C34212   3.089   7.618   9.622 -0.8035 -0.0940 -0.3772
  254MOL0     O34213   2.957   7.650   9.595  0.8021  0.1241 -0.5492
  254MOL0     C34214   2.887   7.583   9.493 -1.3082 -0.1102  1.0312
  254MOL0     C34215   2.744   7.631   9.496 -0.3381 -0.6587 -0.2731
  254MOL0     C34216   2.641   7.540   9.424  0.6413 -0.8382 -0.1921
  254MOL0     C34217   2.689   7.489   9.290 -0.6706 -0.5188 -0.2370
  254MOL0     C34218   2.571   7.421   9.237  0.7171 -0.3201 -0.0612
  254MOL0     C34219   2.476   7.358   9.193  0.2283 -0.4071  0.7544
  254MOL0     C34220   3.169   7.517   9.563  0.9135 -0.2462  1.0096
  254MOL0     C34221   3.303   7.503   9.600  0.7902 -0.1958 -0.6197
  254MOL0     C34222   3.389   7.406   9.518  0.5682  0.0566 -0.5105
  254MOL0     H34223   3.797   7.537   9.865  3.3365 -1.8853  2.2432
  254MOL0     H34224   3.947   7.552  10.047 -1.0247 -2.9733  0.0709
  254MOL0     H34225   4.005   7.539  10.261  0.1011  0.9989  0.7031
  254MOL0     H34226   4.104   7.669  10.190  1.4723  4.6383  2.4519
  254MOL0     H34227   4.150   7.768  10.387 -0.5303 -0.0419  0.9188
  254MOL0     H34228   4.191   7.589  10.393 -2.8927 -3.7775 -0.0952
  254MOL0     H34229   3.936   7.704  10.515 -0.5203  0.4764 -0.2108
  254MOL0     H34230   4.091   7.696  10.602 -0.9990 -1.4457  0.2627
  254MOL0     H34231   3.949   7.466  10.478  1.8640  0.2116 -0.8709
  254MOL0     H34232   4.106   7.447  10.546 -0.9651 -3.5194  0.9989
  254MOL0     H34233   3.987   7.539  10.767 -0.5056 -0.8545  0.1998
  254MOL0     H34234   3.837   7.525  10.671 -0.3777  1.8051 -1.0864
  254MOL0     H34235   3.885   7.283  10.642 -0.6695  0.4887  0.0121
  254MOL0     H34236   4.053   7.303  10.706  1.0196  1.4708  2.0949
  254MOL0     H34237   3.780   7.341  10.842  1.1206  4.2574 -1.1597
  254MOL0     H34238   3.922   7.391  10.925  2.0842  0.5521 -1.7900
  254MOL0     H34239   3.863   7.159  11.003  0.4615 -1.5204 -0.2550
  254MOL0     H34240   3.862   7.094  10.840 -0.9015 -0.0015 -0.5127
  254MOL0     H34241   4.063   6.946  10.804  3.8319 -2.2332 -0.5768
  254MOL0     H34242   4.369   6.869  10.885 -2.1002 -1.4553 -1.3658
  254MOL0     H34243   4.322   6.918  10.726 -2.2361  0.7177  0.5076
  254MOL0     H34244   4.471   7.133  10.773 -0.0178 -0.9012 -1.6511
  254MOL0     H34245   4.535   7.036  10.908  0.7731  1.9365 -1.1401
  254MOL0     H34246   4.520   6.947  10.622 -0.4036 -0.1063  0.5973
  254MOL0     H34247   4.581   6.853  10.761 -1.8601 -0.0875 -0.2797
  254MOL0     H34248   4.696   7.101  10.603  0.9534 -1.5829 -0.9351
  254MOL0     H34249   4.781   6.945  10.622  2.3893  1.0888 -0.7211
  254MOL0     H34250   4.952   7.197  10.948 -2.3049 -0.1312 -1.6491
  254MOL0     H34251   5.190   7.256  10.916  1.8723 -0.9842 -1.5606
  254MOL0     H34252   5.535   7.151  11.002 -1.0145 -1.9417 -1.9862
  254MOL0     H34253   5.814   7.165  11.044  4.2730 -0.6847 -2.7238
  254MOL0     H34254   6.016   7.225  10.676  4.2050 -1.2519 -0.9071
  254MOL0     H34255   6.018   7.383  10.712  0.4090  0.5050  0.7474
  254MOL0     H34256   6.245   7.210  10.848 -0.8710  1.1815  1.9145
  254MOL0     H34257   6.254   7.290  10.686 -0.6689  0.6010 -0.8385
  254MOL0     H34258   6.204   7.493  10.778 -0.2654  0.7338  1.5208
  254MOL0     H34259   6.190   7.424  10.944 -1.8404 -0.0237 -0.6716
  254MOL0     H34260   6.446   7.428  10.759  1.5965  2.2398 -0.1127
  254MOL0     H34261   6.443   7.353  10.920  0.9412  1.6040  0.9064
  254MOL0     H34262   6.409   7.642  10.847  1.4373 -0.3061 -1.3827
  254MOL0     H34263   6.539   7.555  10.914  0.0880  1.2802 -1.3625
  254MOL0     H34264   6.282   7.647  11.052 -0.2322  1.4378  2.1763
  254MOL0     H34265   6.380   7.513  11.120  3.3012 -0.2397 -0.8528
  254MOL0     H34266   6.531   7.776  11.043  1.1066  0.1475  0.5972
  254MOL0     H34267   6.575   7.633  11.157 -1.6257 -1.1250 -1.1899
  254MOL0     H34268   6.380   7.842  11.182 -0.5165 -0.6190 -2.3918
  254MOL0     H34269   6.390   7.720  11.305 -1.9279  5.4277  2.3947
  254MOL0     H34270   5.824   7.356  10.659 -0.1197 -0.3949  0.0265
  254MOL0     H34271   5.602   7.367  10.636  0.0887  2.6465  1.4091
  254MOL0     H34272   5.168   7.127  10.509  0.3153  1.2915 -0.0989
  254MOL0     H34273   4.922   7.067  10.548 -2.2482  0.5157  1.2052
  254MOL0     H34274   3.697   7.861  10.222  2.5754 -0.9784  1.2386
  254MOL0     H34275   3.535   7.833  10.040  3.2141  3.7704 -2.0344
  254MOL0     H34276   3.321   7.746   9.848  4.3274 -1.0980 -1.5821
  254MOL0     H34277   3.086   7.766   9.781  2.0327  0.1489  2.3710
  254MOL0     H34278   2.885   7.475   9.514 -1.7285 -0.2392  0.3872
  254MOL0     H34279   2.937   7.595   9.396 -3.2892  0.3582  0.0000
  254MOL0     H34280   2.747   7.729   9.448 -0.0730  0.8505  2.6143
  254MOL0     H34281   2.715   7.631   9.602  2.0667 -1.3398  0.4410
  254MOL0     H34282   2.553   7.597   9.393  0.9434  0.5953  1.4216
  254MOL0     H34283   2.604   7.467   9.497 -3.0259 -0.5201 -1.5351
  254MOL0     H34284   2.724   7.572   9.229 -0.6285  1.9030  2.8613
  254MOL0     H34285   2.771   7.418   9.309  0.6543  0.1810 -2.9571
  254MOL0     H34286   2.387   7.308   9.159 -1.0205  0.1597  2.9742
  254MOL0     H34287   3.114   7.463   9.487 -0.2352  3.5629 -1.1630
  254MOL0     H34288   3.321   7.359   9.446 -5.0456  1.1493  3.4263
  254MOL0     H34289   3.468   7.457   9.461  0.7383 -1.8790 -2.1220
  254MOL0     H34290   3.449   7.335   9.575  1.8337  0.7122 -0.9808
  255MOL0     O34291   7.174   1.458   4.233  0.5004 -0.3408 -0.0784
  255MOL0     C34292   7.092   1.528   4.174  0.4994  1.0207  0.3410
  255MOL0     O34293   7.072   1.526   4.040 -0.1082 -0.0019  0.5552
  255MOL0     C34294   7.140   1.446   3.952  0.5910 -0.0116  0.8284
  255MOL0     C34295   7.281   1.444   3.940 -0.6217 -0.2972  0.8598
  255MOL0     C34296   7.342   1.348   3.859  0.8861 -0.8991  0.9830
  255MOL0     C34297   7.269   1.252   3.781 -0.2274 -0.5743 -0.1852
  255MOL0     O34298   7.313   1.147   3.697 -0.1413 -0.1940  0.1053
  255MOL0     C34299   7.442   1.173   3.639  0.6692  0.0095 -0.5159
  255MOL0     C34300   7.453   1.080   3.518  1.0501 -0.3483  0.0547
  255MOL0     C34301   7.598   1.056   3.481  0.2718  0.0896  0.3012
  255MOL0     C34302   7.668   1.182   3.430 -0.3016 -0.9729 -0.5385
  255MOL0     C34303   7.812   1.168   3.379 -0.2375  0.5306  0.5997
  255MOL0     C34304   7.904   1.099   3.481 -1.1769 -0.1554  0.6770
  255MOL0     C34305   8.048   1.134   3.434 -0.1826  0.2289  0.2598
  255MOL0     C34306   8.152   1.030   3.490 -0.5000 -0.2798  0.0993
  255MOL0     N34307   8.289   1.083   3.474  0.0153 -0.2162  0.4461
  255MOL0     C34308   8.388   1.039   3.390  0.0991 -0.0223 -0.7821
  255MOL0     C34309   8.489   1.131   3.402 -0.0021  0.1004 -0.9149
  255MOL0     C34310   8.625   1.117   3.339 -0.3053 -0.7959 -0.2173
  255MOL0     C34311   8.740   1.090   3.438 -0.2344  0.5635  0.3736
  255MOL0     C34312   8.794   1.222   3.509 -0.0726  0.3566  0.2397
  255MOL0     C34313   8.911   1.193   3.602 -0.0725  0.7799 -0.7911
  255MOL0     O34314   9.023   1.136   3.536 -0.2166  0.1890  0.7515
  255MOL0     C34315   9.142   1.135   3.601 -0.6311  0.0212  0.7583
  255MOL0     C34316   9.154   1.157   3.736 -0.0962 -0.3446  0.3670
  255MOL0     C34317   9.282   1.155   3.797 -0.3006  0.3056  0.2578
  255MOL0     C34318   9.407   1.133   3.723  0.4105  0.6769 -0.9878
  255MOL0     C34319   9.538   1.134   3.792 -0.4351 -0.1777 -0.0078
  255MOL0     O34320   9.657   1.134   3.723  0.0803  0.8299 -0.1244
  255MOL0     C34321   9.772   1.116   3.801  0.6705  0.5909 -0.6999
  255MOL0     C34322   9.855   1.004   3.773  0.4231  0.3689 -0.4529
  255MOL0     C34323   9.961   0.990   3.857 -0.1189  0.0875 -0.7500
  255MOL0     C34324   9.993   1.080   3.953 -0.2579 -0.1073 -0.4063
  255MOL0     O34325  10.104   1.051   4.035  1.0969  0.2858 -0.2176
  255MOL0     C34326  10.093   1.083   4.170  0.2298 -0.2141  0.3466
  255MOL0     C34327  10.218   1.148   4.225  0.2130 -0.3824  0.1065
  255MOL0     C34328  10.232   1.291   4.170  0.5880  1.3063  0.3001
  255MOL0     C34329  10.349   1.369   4.234  0.0737  1.1397  0.8852
  255MOL0     C34330  10.361   1.502   4.167  0.6051  0.7902  0.2277
  255MOL0     C34331  10.475   1.592   4.218 -0.5666 -0.2128 -0.1535
  255MOL0     C34332  10.432   1.641   4.360  0.2789 -0.0002  0.7482
  255MOL0     C34333  10.527   1.747   4.391  0.2140  0.3438 -0.2810
  255MOL0    Cl34334  10.690   1.688   4.389 -0.2773  0.7074 -0.3509
  255MOL0     C34335   9.928   1.200   3.962  0.0338  0.0905  0.1746
  255MOL0     C34336   9.804   1.212   3.892  0.2913 -0.3569  0.5567
  255MOL0     O34337   9.527   1.127   3.912  0.7175  0.3400 -0.0273
  255MOL0     C34338   9.393   1.105   3.591  0.0266  0.6927 -0.5962
  255MOL0     C34339   9.262   1.111   3.534  0.1980  0.9045  0.1395
  255MOL0     N34340   8.456   1.217   3.493 -0.5277 -0.2748  0.1763
  255MOL0     N34341   8.332   1.202   3.520 -0.1909 -0.5111 -0.1876
  255MOL0     C34342   7.133   1.258   3.801 -0.0835 -0.0293  0.5882
  255MOL0     C34343   7.065   1.360   3.877 -0.6327  1.2039 -0.5380
  255MOL0     C34344   6.995   1.605   4.257  0.5562  0.2480 -1.0705
  255MOL0     C34345   7.011   1.633   4.400 -0.6958 -0.1149  0.4531
  255MOL0     C34346   6.913   1.690   4.483  1.2993  0.3072  0.4256
  255MOL0     C34347   6.800   1.755   4.431  0.4884 -0.4746  0.7179
  255MOL0     O34348   6.712   1.802   4.520  0.5325 -0.8525 -0.0764
  255MOL0     C34349   6.590   1.856   4.472  0.6400 -0.1863 -0.4436
  255MOL0     C34350   6.496   1.891   4.592 -0.3163  0.1129  0.1639
  255MOL0     C34351   6.372   1.978   4.541 -0.6029 -0.2437  0.2889
  255MOL0     C34352   6.283   2.017   4.657 -0.5759  0.0148 -0.3788
  255MOL0     C34353   6.183   2.109   4.599 -0.4462 -0.2939 -0.5751
  255MOL0     C34354   6.102   2.179   4.549  0.0271 -0.1541  0.1967
  255MOL0     C34355   6.788   1.750   4.290  0.0923 -0.0571  0.3466
  255MOL0     C34356   6.874   1.672   4.207 -0.2964  0.2465 -0.3856
  255MOL0     C34357   6.853   1.677   4.061  0.2685  0.0669  0.4048
  255MOL0     H34358   7.344   1.512   3.996  1.1116 -2.3011  1.4467
  255MOL0     H34359   7.450   1.341   3.849  1.1063  2.1984 -0.0815
  255MOL0     H34360   7.458   1.277   3.611 -0.8558  0.5647  0.5265
  255MOL0     H34361   7.517   1.158   3.717 -0.9813  1.6359  1.4989
  255MOL0     H34362   7.392   1.119   3.437  0.8069 -2.3487 -0.7884
  255MOL0     H34363   7.411   0.986   3.556 -1.8715  0.5563 -0.7258
  255MOL0     H34364   7.602   0.982   3.400  1.4280  0.4359  0.0312
  255MOL0     H34365   7.655   1.019   3.566  0.7401  1.4564  0.6000
  255MOL0     H34366   7.618   1.220   3.341 -1.5647  1.0655  0.9661
  255MOL0     H34367   7.661   1.273   3.490  0.1263  0.6228 -2.8102
  255MOL0     H34368   7.816   1.111   3.286  0.1228 -0.9335  1.4881
  255MOL0     H34369   7.853   1.266   3.351 -1.2989  1.1483  1.1624
  255MOL0     H34370   7.871   1.134   3.579 -2.4507 -1.6290  0.8204
  255MOL0     H34371   7.895   0.991   3.469  2.4288 -0.3137 -2.0779
  255MOL0     H34372   8.062   1.234   3.476 -0.8230  0.8811 -1.0114
  255MOL0     H34373   8.063   1.129   3.326 -1.5005 -0.5582  0.0835
  255MOL0     H34374   8.143   1.032   3.599  4.2275  0.5428  0.6776
  255MOL0     H34375   8.134   0.927   3.458  0.4892 -0.4459  0.0704
  255MOL0     H34376   8.387   0.960   3.315 -0.9624  0.9438 -1.8382
  255MOL0     H34377   8.606   1.031   3.273 -2.1970 -2.1280  1.9291
  255MOL0     H34378   8.641   1.206   3.278  0.4728 -2.2770 -2.2999
  255MOL0     H34379   8.703   1.018   3.512  1.7784 -1.1603 -0.2059
  255MOL0     H34380   8.827   1.042   3.393 -1.4389 -1.6145  0.2045
  255MOL0     H34381   8.715   1.265   3.572 -1.1892  0.3949 -1.1306
  255MOL0     H34382   8.825   1.300   3.439 -0.4557  0.4459  0.1641
  255MOL0     H34383   8.879   1.117   3.674  3.3119  0.3577  0.4470
  255MOL0     H34384   8.931   1.286   3.657  0.8232  0.2615 -0.2236
  255MOL0     H34385   9.068   1.188   3.795  0.8465  2.2893  0.4461
  255MOL0     H34386   9.273   1.173   3.903  0.8121 -0.6588  0.5320
  255MOL0     H34387   9.832   0.929   3.698  0.0781  0.7577 -0.7395
  255MOL0     H34388  10.030   0.906   3.847 -0.7469 -0.3327 -1.8458
  255MOL0     H34389  10.007   1.141   4.204  1.5455  0.8013  2.1244
  255MOL0     H34390  10.085   0.994   4.233  1.6807  1.6242  3.3926
  255MOL0     H34391  10.216   1.150   4.335  4.1844 -0.1022  0.3385
  255MOL0     H34392  10.312   1.103   4.191  0.1624  0.0918 -0.6619
  255MOL0     H34393  10.249   1.279   4.062 -1.0448  0.6270  0.0893
  255MOL0     H34394  10.144   1.349   4.199  0.6500  0.1860  3.0362
  255MOL0     H34395  10.436   1.303   4.224  0.3337  1.5834  0.1367
  255MOL0     H34396  10.307   1.388   4.333 -1.8824  0.2415  0.2856
  255MOL0     H34397  10.264   1.552   4.173 -0.5740 -1.4983  2.4184
  255MOL0     H34398  10.387   1.479   4.063  1.5552 -0.8871  0.7799
  255MOL0     H34399  10.571   1.542   4.207 -0.8042 -0.2153 -2.7217
  255MOL0     H34400  10.496   1.676   4.151 -1.3541 -0.7626 -1.1156
  255MOL0     H34401  10.440   1.562   4.435  1.6773  0.8361  1.5357
  255MOL0     H34402  10.330   1.678   4.349 -0.0834 -1.5660 -1.7751
  255MOL0     H34403  10.520   1.817   4.308  0.2543  0.9577  0.2287
  255MOL0     H34404  10.496   1.792   4.485  2.9350  1.2560  0.2720
  255MOL0     H34405   9.965   1.275   4.031  2.6558  3.1942 -4.0910
  255MOL0     H34406   9.737   1.297   3.899 -1.0079 -1.3184  0.3198
  255MOL0     H34407   9.482   1.086   3.531 -0.2882 -0.2760 -0.7744
  255MOL0     H34408   9.252   1.101   3.427 -0.6571 -1.1609  0.3639
  255MOL0     H34409   7.078   1.178   3.751 -1.0223  0.9938 -0.0682
  255MOL0     H34410   6.958   1.342   3.889 -0.1520 -3.3593 -1.1562
  255MOL0     H34411   7.106   1.602   4.441  0.2932 -0.3656 -1.8733
  255MOL0     H34412   6.922   1.689   4.591 -0.9104  0.3961  0.6524
  255MOL0     H34413   6.545   1.770   4.423 -2.5223 -0.3994  2.4382
  255MOL0     H34414   6.609   1.936   4.401  1.0650 -3.4705 -4.3559
  255MOL0     H34415   6.537   1.954   4.671 -3.8536  2.2041  0.5459
  255MOL0     H34416   6.460   1.798   4.636 -3.2703  2.3817  3.0761
  255MOL0     H34417   6.311   1.920   4.470 -1.2979  1.0684 -0.2189
  255MOL0     H34418   6.403   2.060   4.476  1.6479 -0.5205  0.9310
  255MOL0     H34419   6.245   1.926   4.705 -0.6994  0.7178  0.8835
  255MOL0     H34420   6.350   2.070   4.725  1.7690 -0.6859 -2.0525
  255MOL0     H34421   6.021   2.234   4.506 -0.8028 -0.1542  1.6951
  255MOL0     H34422   6.698   1.794   4.248 -0.3293 -1.4839 -0.3243
  255MOL0     H34423   6.928   1.738   4.008 -0.7040 -0.6819 -1.9607
  255MOL0     H34424   6.842   1.581   4.011  1.0261  0.6230 -0.8778
  255MOL0     H34425   6.761   1.723   4.025 -0.9816 -2.1037  0.6834
  256MOL0     O34426   6.236   3.487  10.635  0.7579  0.4408 -0.0461
  256MOL0     C34427   6.141   3.557  10.581 -0.5751 -0.5326 -0.9385
  256MOL0     O34428   6.164   3.673  10.507  0.3014 -0.2952 -0.5034
  256MOL0     C34429   6.295   3.715  10.506 -0.7648 -0.0297  0.8062
  256MOL0     C34430   6.381   3.672  10.405  0.1726  0.0705 -1.2040
  256MOL0     C34431   6.518   3.701  10.404 -0.2477  0.7000  0.2826
  256MOL0     C34432   6.578   3.768  10.503  0.4330  0.0299  0.3386
  256MOL0     O34433   6.707   3.801  10.487 -0.3837  0.6089 -0.0625
  256MOL0     C34434   6.766   3.911  10.555  0.4462 -0.1566 -0.5279
  256MOL0     C34435   6.906   3.931  10.494  0.0526 -0.4144 -0.3939
  256MOL0     C34436   6.987   4.033  10.589 -0.3522  0.4438 -0.2549
  256MOL0     C34437   7.132   4.003  10.556 -1.4143 -0.7758 -0.3014
  256MOL0     C34438   7.232   4.090  10.632 -0.0682 -0.2856 -0.2071
  256MOL0     C34439   7.260   4.235  10.571  0.4300  0.6216  0.3744
  256MOL0     C34440   7.148   4.348  10.581  0.0362 -0.4801  0.1879
  256MOL0     C34441   7.128   4.388  10.728  0.0222  0.3603  0.1662
  256MOL0     N34442   7.235   4.479  10.777  0.8049 -0.2262  0.0876
  256MOL0     C34443   7.251   4.614  10.732  0.0727  0.7289 -0.5405
  256MOL0     C34444   7.359   4.663  10.797  0.3609  0.2777 -0.7440
  256MOL0     C34445   7.412   4.793  10.765  0.5670 -0.4922 -0.1770
  256MOL0     C34446   7.544   4.790  10.686  1.0190  0.2608  0.4057
  256MOL0     C34447   7.589   4.931  10.664  0.0694 -0.3307  0.4481
  256MOL0     C34448   7.636   4.994  10.794 -0.6510  0.5852 -0.2760
  256MOL0     O34449   7.693   5.120  10.775 -0.1534  0.6600 -0.3349
  256MOL0     C34450   7.762   5.189  10.874  0.0465  2.3812 -0.9313
  256MOL0     C34451   7.731   5.162  11.007  0.0583  0.2001 -0.3247
  256MOL0     C34452   7.770   5.253  11.111  0.1737 -0.0923 -0.2193
  256MOL0     C34453   7.859   5.357  11.086 -1.4259 -0.4774  0.4221
  256MOL0     C34454   7.914   5.444  11.191 -0.1649 -0.0275 -0.6978
  256MOL0     O34455   8.043   5.491  11.182 -0.3620  0.1611 -0.0297
  256MOL0     C34456   8.073   5.621  11.189  0.2896  0.3927 -0.3982
  256MOL0     C34457   8.204   5.665  11.181 -0.5566 -0.0273  0.3986
  256MOL0     C34458   8.248   5.798  11.199  0.2520  0.2172  0.6863
  256MOL0     C34459   8.159   5.888  11.242  0.1846  0.8956  0.7597
  256MOL0     O34460   8.209   6.013  11.259  0.1773  0.8900  0.3474
  256MOL0     C34461   8.162   6.082  11.379 -0.1536  0.3874 -0.4474
  256MOL0     C34462   8.056   6.196  11.370  0.5096  1.5926  0.2736
  256MOL0     C34463   8.113   6.326  11.328 -0.4320  0.0530 -0.5117
  256MOL0     C34464   8.010   6.437  11.293 -0.0504  1.1554  0.1371
  256MOL0     C34465   7.936   6.486  11.424  0.0543  0.4132 -0.5238
  256MOL0     C34466   7.852   6.600  11.391 -0.0541 -0.4518 -0.5244
  256MOL0     C34467   7.943   6.726  11.393 -0.6827 -0.4797  0.1272
  256MOL0     C34468   7.855   6.859  11.406 -0.1110 -0.3831  0.7763
  256MOL0    Cl34469   7.763   6.842  11.550 -0.5995  0.2636 -0.6942
  256MOL0     C34470   8.025   5.852  11.251 -0.5144  0.5204 -0.5695
  256MOL0     C34471   7.975   5.721  11.224  0.1445 -0.3737 -0.9973
  256MOL0     O34472   7.838   5.465  11.288  0.5762  0.4901 -0.2283
  256MOL0     C34473   7.906   5.373  10.957 -0.1611  0.5216 -0.3161
  256MOL0     C34474   7.851   5.295  10.850 -0.4624  0.2915 -0.4969
  256MOL0     N34475   7.385   4.564  10.895 -0.5697  0.4736 -0.6485
  256MOL0     N34476   7.316   4.460  10.882  0.0231  0.8328  0.3885
  256MOL0     C34477   6.497   3.817  10.606 -0.5376  0.4213 -0.8090
  256MOL0     C34478   6.356   3.795  10.611 -0.0916 -0.6984 -0.3056
  256MOL0     C34479   6.009   3.493  10.596  0.0891  0.2615  0.0992
  256MOL0     C34480   5.950   3.491  10.723 -1.0380  0.3016  0.3472
  256MOL0     C34481   5.829   3.435  10.738 -0.1191  0.7911 -0.2859
  256MOL0     C34482   5.750   3.399  10.630  0.3615  0.8243 -0.1471
  256MOL0     O34483   5.613   3.368  10.650  0.1821  0.4456 -0.3661
  256MOL0     C34484   5.545   3.315  10.532  0.9358  0.1949 -0.4433
  256MOL0     C34485   5.413   3.258  10.583  0.6491 -0.1390 -0.9104
  256MOL0     C34486   5.425   3.159  10.699  0.2252  0.2322 -0.5179
  256MOL0     C34487   5.290   3.075  10.706  1.0142  0.4127  0.7252
  256MOL0     C34488   5.285   3.002  10.837 -0.1789 -0.5902  0.0289
  256MOL0     C34489   5.279   2.949  10.950 -0.4254  0.2855  0.6642
  256MOL0     C34490   5.806   3.422  10.500 -0.0998  0.9040  0.1778
  256MOL0     C34491   5.938   3.460  10.474  0.6037  0.0452  0.1684
  256MOL0     C34492   5.990   3.460  10.336  0.6303 -0.5371  0.3499
  256MOL0     H34493   6.321   3.609  10.340 -0.8099 -2.2252  1.7111
  256MOL0     H34494   6.583   3.675  10.322  0.9708 -1.3250  1.8067
  256MOL0     H34495   6.697   3.996  10.556 -3.2535 -2.9011  1.0425
  256MOL0     H34496   6.769   3.867  10.655  0.2757  0.4024 -0.2726
  256MOL0     H34497   6.909   3.961  10.389  0.2036 -2.3093 -0.9863
  256MOL0     H34498   6.962   3.837  10.495 -1.6396 -1.4784 -1.0876
  256MOL0     H34499   6.976   4.002  10.694  1.8544  1.9791  0.5186
  256MOL0     H34500   6.951   4.134  10.569 -0.5729  0.2853 -0.6650
  256MOL0     H34501   7.153   3.899  10.581 -0.6816 -1.0105 -1.8233
  256MOL0     H34502   7.153   4.013  10.449  3.8112  0.7263  0.5523
  256MOL0     H34503   7.211   4.103  10.739  1.7275  0.2971  0.1042
  256MOL0     H34504   7.329   4.041  10.621  0.5550  0.9207 -0.1545
  256MOL0     H34505   7.340   4.273  10.636  0.2330  0.6424  0.6088
  256MOL0     H34506   7.291   4.212  10.469 -1.1024  0.6144 -0.1141
  256MOL0     H34507   7.052   4.311  10.544  0.9968 -3.5450  0.4937
  256MOL0     H34508   7.178   4.435  10.522  1.8271  0.4508  2.2970
  256MOL0     H34509   7.035   4.446  10.722  0.9223  1.7360 -0.9265
  256MOL0     H34510   7.112   4.294  10.783 -2.0387  0.9029  0.5706
  256MOL0     H34511   7.200   4.654  10.645  0.7166  0.7171 -0.9226
  256MOL0     H34512   7.344   4.855  10.706  2.9809  1.6116 -0.8949
  256MOL0     H34513   7.430   4.847  10.859 -3.6442 -2.0115  1.8010
  256MOL0     H34514   7.627   4.730  10.724  2.4510  2.1237  0.3962
  256MOL0     H34515   7.524   4.738  10.592  2.5674 -3.6513  2.0363
  256MOL0     H34516   7.523   4.997  10.607  1.6208  2.5255  1.6907
  256MOL0     H34517   7.674   4.917  10.597  0.0309  1.1847  0.0285
  256MOL0     H34518   7.708   4.931  10.846 -2.2102 -2.2193 -1.2659
  256MOL0     H34519   7.553   5.001  10.865  0.5408 -1.3002  1.4176
  256MOL0     H34520   7.649   5.092  11.022  1.7447 -1.9223 -0.5561
  256MOL0     H34521   7.729   5.237  11.210 -0.9860 -0.3813 -0.7337
  256MOL0     H34522   8.282   5.597  11.147 -1.1995 -1.1939  1.1957
  256MOL0     H34523   8.350   5.825  11.171  0.9602 -2.1848  0.7131
  256MOL0     H34524   8.124   6.009  11.451 -1.3900  0.5937 -0.8683
  256MOL0     H34525   8.245   6.128  11.434 -0.7254  1.2344 -0.2879
  256MOL0     H34526   7.984   6.166  11.293 -0.0980  1.3069  0.9400
  256MOL0     H34527   7.995   6.201  11.461 -2.1106  0.6398 -1.3152
  256MOL0     H34528   8.183   6.372  11.398  3.5696 -0.4443 -3.8268
  256MOL0     H34529   8.178   6.305  11.242 -1.9344 -3.3366 -0.9742
  256MOL0     H34530   7.944   6.391  11.219 -1.8464  1.3881  1.5272
  256MOL0     H34531   8.068   6.519  11.251  1.5939  1.7204  3.2056
  256MOL0     H34532   8.010   6.502  11.503 -1.1879 -1.1426  1.0305
  256MOL0     H34533   7.867   6.407  11.454 -1.6890  2.2141  0.4596
  256MOL0     H34534   7.811   6.598  11.289 -1.3027  0.5150 -0.0673
  256MOL0     H34535   7.779   6.607  11.472 -2.4837  0.5537 -2.6599
  256MOL0     H34536   8.015   6.728  11.311  2.2527  2.3005  2.5036
  256MOL0     H34537   8.019   6.724  11.472 -0.8807  1.4483  0.4199
  256MOL0     H34538   7.916   6.950  11.407 -0.0161 -0.2406 -3.0474
  256MOL0     H34539   7.785   6.867  11.322 -2.5904  0.6725  2.8197
  256MOL0     H34540   7.956   5.931  11.279  1.2413  2.8121 -2.2936
  256MOL0     H34541   7.869   5.698  11.222  0.1127 -1.0290  2.2845
  256MOL0     H34542   7.985   5.445  10.939  1.1135 -0.3710  1.4529
  256MOL0     H34543   7.881   5.315  10.748  1.2049 -0.7205 -0.2496
  256MOL0     H34544   6.552   3.883  10.672  3.3497 -1.1467 -2.1832
  256MOL0     H34545   6.301   3.834  10.696  3.5474  1.8666  1.1628
  256MOL0     H34546   5.998   3.546  10.803 -0.1783 -0.5370  0.4236
  256MOL0     H34547   5.796   3.429  10.841  0.7944  3.0639  0.1948
  256MOL0     H34548   5.598   3.238  10.475 -1.5885 -0.0210 -2.6666
  256MOL0     H34549   5.529   3.396  10.460 -0.2405  1.8282  1.5315
  256MOL0     H34550   5.348   3.210  10.510 -0.6294  1.0178 -0.5571
  256MOL0     H34551   5.359   3.340  10.630  3.7941  0.7799  1.4871
  256MOL0     H34552   5.438   3.219  10.790 -1.8204  0.1346 -0.1107
  256MOL0     H34553   5.516   3.099  10.699  0.9863  1.2091  2.5042
  256MOL0     H34554   5.209   3.149  10.698  0.6824  0.1368  1.5134
  256MOL0     H34555   5.268   3.005  10.625 -1.1382  0.8662  0.8595
  256MOL0     H34556   5.278   2.905  11.047  2.0072 -0.2359  0.4986
  256MOL0     H34557   5.746   3.407  10.410 -0.8959 -0.0183  0.8412
  256MOL0     H34558   6.078   3.395  10.330  2.2536  1.4464  1.6657
  256MOL0     H34559   5.925   3.421  10.256 -1.8213  1.7081  1.1074
  256MOL0     H34560   6.028   3.560  10.316 -0.7512 -0.1592 -0.5513
  257MOL0     O34561   0.524   8.775   4.088  0.0486  0.0409  0.8824
  257MOL0     C34562   0.447   8.678   4.079  1.2218 -0.2859 -0.0651
  257MOL0     O34563   0.467   8.560   4.006 -1.1295 -0.6716  0.4374
  257MOL0     C34564   0.573   8.549   3.911  0.6037 -0.8995  0.2974
  257MOL0     C34565   0.701   8.589   3.935 -0.5133  0.0604 -0.2939
  257MOL0     C34566   0.802   8.584   3.839  0.0572 -0.1752  0.2261
  257MOL0     C34567   0.774   8.540   3.711 -0.5962  0.2686 -1.0232
  257MOL0     O34568   0.866   8.509   3.615  0.5392 -0.6141  0.7027
  257MOL0     C34569   0.999   8.550   3.626  0.1233  0.4220 -0.4237
  257MOL0     C34570   1.023   8.699   3.588 -0.9536  0.0686 -0.8151
  257MOL0     C34571   0.991   8.741   3.440 -0.1264  0.1012 -0.0270
  257MOL0     C34572   0.838   8.745   3.414 -0.8982 -0.2646  0.2157
  257MOL0     C34573   0.805   8.845   3.306 -0.3617  0.1040 -0.3590
  257MOL0     C34574   0.824   8.784   3.176  0.3797  0.2733  0.8355
  257MOL0     C34575   0.770   8.882   3.062 -0.2944 -0.0935 -0.2412
  257MOL0     C34576   0.726   8.810   2.937 -0.5611 -0.0792  0.7317
  257MOL0     N34577   0.830   8.733   2.882  0.3685 -0.7632  0.2049
  257MOL0     C34578   0.932   8.779   2.805  0.2772  0.7321 -0.3353
  257MOL0     C34579   1.005   8.660   2.781  0.3399 -0.1755  0.3684
  257MOL0     C34580   1.116   8.656   2.685  0.0174  0.3638 -0.6855
  257MOL0     C34581   1.221   8.760   2.724 -0.4833  0.1688  0.6269
  257MOL0     C34582   1.351   8.741   2.651  0.2793 -1.3659 -0.1946
  257MOL0     C34583   1.446   8.850   2.699 -0.4943 -0.4253  0.1913
  257MOL0     O34584   1.470   8.819   2.839 -0.4408  0.3929 -0.0502
  257MOL0     C34585   1.600   8.846   2.888 -0.7833 -0.9663 -0.8514
  257MOL0     C34586   1.696   8.936   2.826 -0.8405 -0.4666 -0.0752
  257MOL0     C34587   1.833   8.950   2.880  0.3620  0.2318 -0.4825
  257MOL0     C34588   1.873   8.873   2.998  0.1174 -0.2074 -0.2027
  257MOL0     C34589   2.012   8.887   3.052 -0.5048 -0.9563  0.1425
  257MOL0     O34590   2.104   8.938   2.956  0.6699  0.4639 -1.0193
  257MOL0     C34591   2.221   8.982   3.007 -0.1077 -0.4656 -0.5042
  257MOL0     C34592   2.232   9.082   3.106 -0.6562  0.2014  0.1738
  257MOL0     C34593   2.362   9.116   3.160  0.0037  0.2162 -0.2126
  257MOL0     C34594   2.474   9.052   3.102 -0.1410  0.2974 -0.0017
  257MOL0     O34595   2.595   9.082   3.149  0.1794 -1.3545 -0.3720
  257MOL0     C34596   2.636   9.216   3.133 -0.1087  0.8506 -0.1648
  257MOL0     C34597   2.600   9.303   3.256  0.0764  0.0935  0.4162
  257MOL0     C34598   2.614   9.228   3.391  0.8252  0.6543 -0.3280
  257MOL0     C34599   2.633   9.311   3.515  0.4501 -0.0195  0.5181
  257MOL0     C34600   2.663   9.212   3.629  0.1446  0.3932 -0.8431
  257MOL0     C34601   2.688   9.274   3.764 -0.0138 -0.4714 -0.2995
  257MOL0     C34602   2.746   9.173   3.859  0.3338 -0.1345  0.0453
  257MOL0     C34603   2.660   9.057   3.905  0.5081 -0.2891  0.1505
  257MOL0    Cl34604   2.748   8.925   3.986 -0.1631 -0.0412  0.3623
  257MOL0     C34605   2.458   8.960   3.001 -0.8768  0.0291 -0.3195
  257MOL0     C34606   2.332   8.921   2.945  0.2180 -0.6525 -0.0252
  257MOL0     O34607   2.039   8.850   3.169 -0.4234 -0.3657 -0.1181
  257MOL0     C34608   1.768   8.787   3.062 -0.1719  0.6556  0.6591
  257MOL0     C34609   1.641   8.776   3.000  1.1677 -0.7514  0.1682
  257MOL0     N34610   0.947   8.557   2.850 -0.3317 -0.2126 -0.1494
  257MOL0     N34611   0.838   8.598   2.901 -0.5878  0.8274  0.1271
  257MOL0     C34612   0.648   8.506   3.685  0.1182 -0.9160  0.6055
  257MOL0     C34613   0.544   8.513   3.777  0.3185 -0.0857  0.7098
  257MOL0     C34614   0.321   8.681   4.153 -0.8217 -0.4940  0.5654
  257MOL0     C34615   0.229   8.582   4.122 -0.3213  1.1775 -0.0442
  257MOL0     C34616   0.100   8.577   4.180 -0.0961 -0.8805  0.5961
  257MOL0     C34617   0.071   8.674   4.287  0.1374  0.2560  0.2861
  257MOL0     O34618  -0.058   8.677   4.332 -0.4132 -0.4353 -0.0281
  257MOL0     C34619  -0.084   8.624   4.465 -0.4992 -0.6261 -0.2864
  257MOL0     C34620  -0.134   8.485   4.452  0.0085  0.1158  0.2245
  257MOL0     C34621  -0.123   8.401   4.576 -0.3558 -0.5884  0.4679
  257MOL0     C34622  -0.221   8.440   4.680 -0.1415 -0.4582  0.2148
  257MOL0     C34623  -0.203   8.362   4.804 -0.9991  0.0505 -0.0799
  257MOL0     C34624  -0.177   8.296   4.899  0.2614  0.0743 -0.0448
  257MOL0     C34625   0.164   8.766   4.306 -0.9624 -0.4831  0.2479
  257MOL0     C34626   0.292   8.779   4.248  0.0624  0.9252  0.1862
  257MOL0     C34627   0.386   8.885   4.302 -0.4474 -0.7775  0.2581
  257MOL0     H34628   0.733   8.622   4.033 -0.0135  0.9016 -0.7271
  257MOL0     H34629   0.902   8.610   3.871  0.1234 -0.4363  0.2369
  257MOL0     H34630   1.034   8.534   3.728  2.0236 -0.1613 -1.1299
  257MOL0     H34631   1.059   8.487   3.560  0.7716 -0.1313  0.6763
  257MOL0     H34632   1.130   8.709   3.609 -1.4632  1.3141  1.5248
  257MOL0     H34633   0.983   8.771   3.660  2.6302  2.1443 -0.6362
  257MOL0     H34634   1.040   8.677   3.366  0.6299 -0.3998  0.8775
  257MOL0     H34635   1.025   8.844   3.427 -0.4451  0.3307  0.8705
  257MOL0     H34636   0.802   8.643   3.394 -0.7787 -0.2401 -0.1361
  257MOL0     H34637   0.786   8.778   3.505 -4.0024 -0.1581 -1.4399
  257MOL0     H34638   0.697   8.860   3.317 -0.3632 -1.4506  2.6571
  257MOL0     H34639   0.857   8.941   3.318  0.8926 -0.1557 -3.0260
  257MOL0     H34640   0.930   8.773   3.151  1.0837  0.1551  3.6137
  257MOL0     H34641   0.775   8.686   3.175 -0.5129  0.6356  3.4088
  257MOL0     H34642   0.847   8.956   3.038 -2.9948  2.3292 -2.2383
  257MOL0     H34643   0.682   8.932   3.104  1.3597  0.7340  2.4879
  257MOL0     H34644   0.635   8.751   2.950 -1.3135  0.4873 -1.5814
  257MOL0     H34645   0.693   8.881   2.861  2.1361  0.1950 -0.3218
  257MOL0     H34646   0.942   8.877   2.759 -1.6158  1.0865 -0.0591
  257MOL0     H34647   1.161   8.557   2.688 -0.3053  0.1992 -1.1858
  257MOL0     H34648   1.076   8.664   2.584 -0.7303  3.3666 -0.2551
  257MOL0     H34649   1.189   8.862   2.703 -0.2271  0.7222  2.7526
  257MOL0     H34650   1.228   8.753   2.833  0.5554  1.3393  0.6521
  257MOL0     H34651   1.329   8.754   2.544  1.9405  0.7569 -0.3500
  257MOL0     H34652   1.400   8.645   2.667  3.3838  0.0222 -0.4348
  257MOL0     H34653   1.408   8.953   2.703  1.0004  0.1146  1.9169
  257MOL0     H34654   1.530   8.850   2.629 -2.6240 -1.4444 -2.5763
  257MOL0     H34655   1.669   9.008   2.750  0.7963 -1.0450 -1.2569
  257MOL0     H34656   1.914   9.007   2.835  3.4924 -2.5237  1.1825
  257MOL0     H34657   2.148   9.126   3.160  0.3253  2.0518  0.2631
  257MOL0     H34658   2.364   9.182   3.245  0.4496  1.8137 -1.4115
  257MOL0     H34659   2.743   9.206   3.113 -0.6766 -1.4096 -2.6265
  257MOL0     H34660   2.590   9.259   3.043  0.1037  2.1578  0.3287
  257MOL0     H34661   2.672   9.385   3.257  0.6118 -0.3510 -0.5091
  257MOL0     H34662   2.498   9.342   3.244 -0.7134 -2.3464 -1.9035
  257MOL0     H34663   2.518   9.176   3.403  1.4244 -0.7616 -1.3859
  257MOL0     H34664   2.688   9.148   3.385  1.5180  1.1951  0.6595
  257MOL0     H34665   2.536   9.361   3.521  2.4076  4.4142 -0.5344
  257MOL0     H34666   2.721   9.369   3.486  0.4918 -0.5033 -0.3648
  257MOL0     H34667   2.750   9.155   3.596 -1.1079 -1.5791 -0.8751
  257MOL0     H34668   2.579   9.145   3.649  0.8589  0.0777  1.4609
  257MOL0     H34669   2.753   9.361   3.752 -0.9083  0.0912 -1.2319
  257MOL0     H34670   2.594   9.317   3.802 -0.7030 -0.3196 -2.0934
  257MOL0     H34671   2.778   9.233   3.944  1.1256 -0.8250  0.2498
  257MOL0     H34672   2.829   9.122   3.809  1.6642  2.3235 -0.4244
  257MOL0     H34673   2.594   9.094   3.985 -0.7280 -1.8729 -0.0879
  257MOL0     H34674   2.613   9.019   3.814  4.1421  0.0849 -2.0551
  257MOL0     H34675   2.545   8.910   2.959 -1.8682 -1.2903 -0.8551
  257MOL0     H34676   2.324   8.839   2.874 -0.9338 -2.4570  2.0881
  257MOL0     H34677   1.806   8.727   3.143  0.2762  1.2224  0.8785
  257MOL0     H34678   1.577   8.697   3.038  2.5298 -0.8341  2.4636
  257MOL0     H34679   0.621   8.468   3.587  0.9731  2.7347 -1.2415
  257MOL0     H34680   0.444   8.475   3.762 -0.2571  0.8184  2.0720
  257MOL0     H34681   0.251   8.512   4.043  0.1063 -0.0813  1.1524
  257MOL0     H34682   0.033   8.495   4.156 -1.8794  0.9433 -1.0368
  257MOL0     H34683  -0.155   8.685   4.520  0.4360  1.6386 -1.4685
  257MOL0     H34684   0.008   8.628   4.525  0.4161 -2.0810 -1.5200
  257MOL0     H34685  -0.092   8.434   4.365  1.9946  0.9817  0.6128
  257MOL0     H34686  -0.243   8.488   4.439 -0.3369 -1.3506  2.2622
  257MOL0     H34687  -0.019   8.405   4.609  0.0055  0.4178 -0.7295
  257MOL0     H34688  -0.146   8.299   4.543 -0.7108 -0.1710 -0.6095
  257MOL0     H34689  -0.215   8.546   4.706 -1.1118 -0.2939 -0.2130
  257MOL0     H34690  -0.324   8.423   4.649 -0.9767 -0.9635  3.0113
  257MOL0     H34691  -0.165   8.249   4.994 -2.9469  1.3351  1.1150
  257MOL0     H34692   0.127   8.841   4.374 -1.8684 -0.1671 -0.5741
  257MOL0     H34693   0.477   8.840   4.343  0.6278  1.2783  0.2454
  257MOL0     H34694   0.412   8.955   4.222  0.2467 -1.5305 -0.1821
  257MOL0     H34695   0.341   8.937   4.388  0.2304  3.2074 -1.5577
  258MOL0     O34696   0.727   9.017   4.721 -0.4475 -0.5295  0.4604
  258MOL0     C34697   0.648   8.943   4.667 -0.8162  0.9455  0.1069
  258MOL0     O34698   0.676   8.847   4.570  0.1125 -0.2394 -0.8152
  258MOL0     C34699   0.796   8.828   4.513  0.0152 -0.3285  0.8824
  258MOL0     C34700   0.924   8.869   4.568 -0.9351 -0.4257  1.0847
  258MOL0     C34701   1.042   8.817   4.512 -0.5814  0.5227 -0.2324
  258MOL0     C34702   1.047   8.719   4.416  0.1714  0.8475 -0.0437
  258MOL0     O34703   1.167   8.694   4.357 -0.3684  0.4253 -0.7769
  258MOL0     C34704   1.236   8.601   4.448  0.5930 -0.7353 -0.1044
  258MOL0     C34705   1.370   8.545   4.386  1.0118  0.0690 -0.3614
  258MOL0     C34706   1.465   8.656   4.391  0.1312  0.2838  0.6382
  258MOL0     C34707   1.568   8.634   4.279  0.7103  0.0475 -0.7533
  258MOL0     C34708   1.625   8.767   4.255  1.0762  0.6133 -0.4334
  258MOL0     C34709   1.724   8.762   4.137 -0.0602  0.5765  0.5878
  258MOL0     C34710   1.806   8.890   4.108 -0.1706  0.2234  0.1512
  258MOL0     C34711   1.903   8.925   4.217  0.0217 -0.1522  1.1457
  258MOL0     N34712   2.012   8.830   4.237  0.2401 -0.5242  0.9601
  258MOL0     C34713   2.011   8.737   4.339  0.1987 -0.3502  0.8227
  258MOL0     C34714   2.124   8.675   4.336 -0.4663  0.2058  0.3147
  258MOL0     C34715   2.175   8.568   4.430 -0.2906 -0.4039 -0.4679
  258MOL0     C34716   2.273   8.624   4.540 -0.4827  0.1802  0.4960
  258MOL0     C34717   2.402   8.673   4.479  0.4074  0.1111 -0.1270
  258MOL0     C34718   2.485   8.722   4.594 -0.0543 -0.2841  0.4251
  258MOL0     O34719   2.537   8.611   4.671  0.2879 -0.5671  0.1594
  258MOL0     C34720   2.621   8.629   4.781  0.9564 -0.3839  0.1844
  258MOL0     C34721   2.642   8.755   4.845  0.3482 -0.4265 -0.1007
  258MOL0     C34722   2.726   8.772   4.959 -0.7015 -0.2547  0.6186
  258MOL0     C34723   2.808   8.665   4.995  0.0493  0.4355  0.5008
  258MOL0     C34724   2.928   8.684   5.093  0.7221  1.1658 -0.1672
  258MOL0     O34725   2.982   8.813   5.116  0.0932 -0.2473  0.4955
  258MOL0     C34726   3.110   8.815   5.185  0.8499 -0.0555 -0.2843
  258MOL0     C34727   3.128   8.752   5.311  0.1408 -0.3261 -0.4354
  258MOL0     C34728   3.249   8.757   5.374 -0.8887 -0.4393 -0.2085
  258MOL0     C34729   3.361   8.819   5.320  0.7027 -0.4417 -0.7770
  258MOL0     O34730   3.482   8.798   5.379  0.0467  0.2672  0.7476
  258MOL0     C34731   3.598   8.865   5.326  0.7761  0.1002  0.1073
  258MOL0     C34732   3.716   8.807   5.398  0.2873 -0.3656  0.0683
  258MOL0     C34733   3.846   8.863   5.355 -0.1156 -0.2567 -0.3035
  258MOL0     C34734   3.950   8.804   5.449  0.8248 -0.2240  1.4766
  258MOL0     C34735   4.093   8.832   5.403 -1.1476  0.0234  0.3252
  258MOL0     C34736   4.189   8.752   5.501  0.1323  0.1655  0.1437
  258MOL0     C34737   4.334   8.753   5.450  1.1411  0.8291 -0.4487
  258MOL0     C34738   4.448   8.700   5.551  0.5060 -0.2746  0.6641
  258MOL0    Cl34739   4.407   8.540   5.607 -0.0434  0.5142  0.1345
  258MOL0     C34740   3.339   8.884   5.193  0.0789 -1.2957 -0.0598
  258MOL0     C34741   3.214   8.876   5.128  0.0187 -0.0674  0.8773
  258MOL0     O34742   2.975   8.575   5.141 -0.1548 -0.3646 -0.5882
  258MOL0     C34743   2.783   8.540   4.941  0.4026 -0.2908  0.2489
  258MOL0     C34744   2.690   8.524   4.840  0.5205 -0.3447  0.1400
  258MOL0     N34745   2.200   8.734   4.238  0.0739 -0.4196 -0.1677
  258MOL0     N34746   2.135   8.836   4.187  0.0820  0.4657 -0.7553
  258MOL0     C34747   0.928   8.679   4.365 -0.4202 -0.4392  0.4250
  258MOL0     C34748   0.799   8.732   4.415  0.2850 -0.0007  0.2869
  258MOL0     C34749   0.504   8.957   4.721  1.0276 -0.3476  0.4394
  258MOL0     C34750   0.415   8.847   4.719  0.0771 -0.4391 -0.3173
  258MOL0     C34751   0.281   8.856   4.741  0.2300 -0.2485 -0.2571
  258MOL0     C34752   0.226   8.984   4.774 -0.6759  0.4823 -0.3134
  258MOL0     O34753   0.092   9.012   4.798 -0.4922 -0.2125 -0.0352
  258MOL0     C34754  -0.007   8.907   4.791 -0.1301 -0.2567 -0.2729
  258MOL0     C34755  -0.133   8.964   4.858  0.1094 -0.6853  0.4994
  258MOL0     C34756  -0.258   8.892   4.817  0.0506  0.8101  1.3002
  258MOL0     C34757  -0.292   8.776   4.899  0.0488  0.7575 -0.2247
  258MOL0     C34758  -0.415   8.716   4.843  0.3080  1.0002  0.3062
  258MOL0     C34759  -0.518   8.665   4.806 -0.8703  0.2263  0.3468
  258MOL0     C34760   0.315   9.098   4.803 -0.9015 -0.1210  0.4979
  258MOL0     C34761   0.455   9.079   4.772 -0.5335  0.4070 -0.6839
  258MOL0     C34762   0.531   9.209   4.778 -0.0895  0.4805  0.1448
  258MOL0     H34763   0.938   8.924   4.661  0.0558  0.6733  0.3139
  258MOL0     H34764   1.140   8.857   4.535  0.3744  0.1071 -3.1161
  258MOL0     H34765   1.275   8.646   4.540  1.7753  0.2087 -1.0516
  258MOL0     H34766   1.167   8.517   4.466 -1.0856  0.0610 -2.3553
  258MOL0     H34767   1.360   8.499   4.287  1.1391  0.2651 -0.4654
  258MOL0     H34768   1.421   8.477   4.456 -0.4815 -1.3326 -0.5555
  258MOL0     H34769   1.521   8.672   4.484 -1.0129  0.0130  1.3995
  258MOL0     H34770   1.414   8.752   4.381  0.1659  0.1994 -0.4071
  258MOL0     H34771   1.641   8.560   4.314 -0.1926 -0.0109  1.1112
  258MOL0     H34772   1.510   8.602   4.192 -0.6492  1.5722 -0.4542
  258MOL0     H34773   1.541   8.834   4.238 -2.7549 -3.4733  0.6682
  258MOL0     H34774   1.677   8.798   4.346  0.6352 -0.5448  0.2378
  258MOL0     H34775   1.795   8.679   4.151 -0.9178 -0.6360 -1.7445
  258MOL0     H34776   1.667   8.737   4.047  0.6587 -4.2015  1.1797
  258MOL0     H34777   1.746   8.974   4.072 -0.5939 -1.4428 -3.4460
  258MOL0     H34778   1.866   8.861   4.022 -2.9193 -0.1376 -1.7518
  258MOL0     H34779   1.943   9.023   4.188  1.6874 -1.1445 -0.1514
  258MOL0     H34780   1.848   8.937   4.310  1.0573  1.3260  1.6057
  258MOL0     H34781   1.932   8.701   4.403 -0.3291 -1.6488 -0.5015
  258MOL0     H34782   2.081   8.535   4.476 -1.0230 -1.7459 -2.7434
  258MOL0     H34783   2.226   8.488   4.375  1.2616  1.1755 -1.4151
  258MOL0     H34784   2.233   8.705   4.601  0.3443  0.3218  0.8595
  258MOL0     H34785   2.289   8.541   4.610 -1.1883 -1.1658 -0.8790
  258MOL0     H34786   2.374   8.759   4.418 -2.2996 -1.5372 -1.4060
  258MOL0     H34787   2.453   8.590   4.430 -2.4157 -1.1768 -1.1257
  258MOL0     H34788   2.420   8.795   4.644  0.2262  1.4871 -1.6220
  258MOL0     H34789   2.577   8.764   4.552  0.0322 -2.7602 -2.1284
  258MOL0     H34790   2.586   8.839   4.806  1.7947 -0.5400 -2.6552
  258MOL0     H34791   2.741   8.870   5.003  1.5281 -0.3139  0.0976
  258MOL0     H34792   3.045   8.708   5.364 -0.8134 -0.2698 -1.8113
  258MOL0     H34793   3.278   8.694   5.458  2.3971 -1.0170 -1.6196
  258MOL0     H34794   3.613   8.861   5.218  0.3219 -1.2190  0.0763
  258MOL0     H34795   3.584   8.972   5.344 -4.1220 -0.1421 -0.8902
  258MOL0     H34796   3.710   8.827   5.506  1.5868  1.0561 -0.0673
  258MOL0     H34797   3.712   8.698   5.395 -2.6875 -0.4265  1.9372
  258MOL0     H34798   3.867   8.830   5.253 -1.1730  0.8730 -0.9190
  258MOL0     H34799   3.831   8.972   5.356 -0.2260 -0.2711 -0.2905
  258MOL0     H34800   3.934   8.696   5.455  1.1380 -0.2937  1.0830
  258MOL0     H34801   3.944   8.843   5.551 -0.2345 -4.3621  3.2107
  258MOL0     H34802   4.111   8.940   5.402  1.0113 -0.2618  1.4029
  258MOL0     H34803   4.116   8.799   5.302  3.0664  3.2720 -0.0616
  258MOL0     H34804   4.192   8.796   5.601  1.3137 -0.2417  0.3076
  258MOL0     H34805   4.164   8.646   5.500 -0.2662  0.2491 -1.3754
  258MOL0     H34806   4.369   8.855   5.435  5.7777 -0.3429  0.7699
  258MOL0     H34807   4.358   8.689   5.364  1.5384 -0.7153  0.7746
  258MOL0     H34808   4.542   8.697   5.496 -1.0782  0.1187 -2.3145
  258MOL0     H34809   4.455   8.755   5.645 -1.6174  0.2378  0.5841
  258MOL0     H34810   3.402   8.948   5.133 -2.7641  2.4638  0.5904
  258MOL0     H34811   3.197   8.927   5.033  2.4153 -1.0052 -0.1544
  258MOL0     H34812   2.827   8.458   4.997 -0.2520  0.8234  2.4999
  258MOL0     H34813   2.659   8.430   4.796  0.7281 -0.2623 -0.1861
  258MOL0     H34814   0.930   8.595   4.297 -0.2166  0.7714 -1.1307
  258MOL0     H34815   0.710   8.692   4.368  1.4074 -3.5170  0.8600
  258MOL0     H34816   0.449   8.745   4.706  1.7746 -0.1623  1.5452
  258MOL0     H34817   0.221   8.768   4.722  1.8951 -1.5662  0.2936
  258MOL0     H34818   0.023   8.824   4.855  0.3934  0.7628  0.8404
  258MOL0     H34819  -0.034   8.875   4.689 -0.0166 -0.8425 -0.1214
  258MOL0     H34820  -0.137   9.069   4.828  0.8471 -1.1241 -1.3126
  258MOL0     H34821  -0.125   8.951   4.966  1.7997  1.2046  0.6603
  258MOL0     H34822  -0.259   8.870   4.710 -1.2354 -1.3186  1.6820
  258MOL0     H34823  -0.341   8.961   4.831 -3.4084 -1.6794 -3.9223
  258MOL0     H34824  -0.207   8.707   4.896  0.5487  1.2816  0.9499
  258MOL0     H34825  -0.297   8.798   5.006 -2.2446 -0.2249 -0.0711
  258MOL0     H34826  -0.608   8.625   4.763 -0.6866  0.5398 -0.3530
  258MOL0     H34827   0.287   9.192   4.850  4.4124  0.8755  2.3063
  258MOL0     H34828   0.628   9.203   4.828  0.7768 -2.9509 -1.6526
  258MOL0     H34829   0.555   9.248   4.678 -0.3733  2.2133  0.7086
  258MOL0     H34830   0.475   9.290   4.826  0.8068  0.7688  0.7408
  259MOL0     O34831   9.068   2.992   2.061 -0.0131 -0.5238 -0.3046
  259MOL0     C34832   9.072   2.933   1.954  0.0741  0.4034  0.2478
  259MOL0     O34833   9.181   2.904   1.876  0.4834  0.6011  0.5903
  259MOL0     C34834   9.303   2.950   1.916 -0.4919 -0.4742 -0.9108
  259MOL0     C34835   9.410   2.866   1.955 -0.0909 -0.4143 -0.8747
  259MOL0     C34836   9.526   2.925   2.016 -0.1908 -0.2819 -0.0283
  259MOL0     C34837   9.541   3.064   2.019 -0.4404  0.2899  0.0316
  259MOL0     O34838   9.667   3.099   2.056 -0.0732  0.4229 -0.0024
  259MOL0     C34839   9.716   3.234   2.019 -0.4035 -0.2191 -0.4871
  259MOL0     C34840   9.871   3.237   2.039  0.0978  0.6146 -0.9123
  259MOL0     C34841   9.909   3.229   2.189  0.2215 -0.0292  0.7166
  259MOL0     C34842  10.040   3.293   2.213 -0.2233 -0.7164  0.6986
  259MOL0     C34843  10.075   3.299   2.354 -0.8932 -0.3512 -0.1502
  259MOL0     C34844  10.228   3.284   2.368 -0.3768 -0.0120 -0.2103
  259MOL0     C34845  10.285   3.152   2.313  0.7142 -0.0252  0.1541
  259MOL0     C34846  10.231   3.024   2.381  0.1220  0.0935  0.0709
  259MOL0     N34847  10.335   2.915   2.395 -0.3820  0.1864 -0.2668
  259MOL0     C34848  10.389   2.858   2.283 -0.6339  1.0092  0.1597
  259MOL0     C34849  10.452   2.739   2.329  0.8327 -0.3885  0.0424
  259MOL0     C34850  10.509   2.629   2.248 -0.7238  0.2205 -0.5753
  259MOL0     C34851  10.413   2.526   2.193  0.3291  0.4935  0.5978
  259MOL0     C34852  10.341   2.441   2.297 -0.3352  0.7889  0.5207
  259MOL0     C34853  10.433   2.338   2.362  0.5285  0.3295 -0.2262
  259MOL0     O34854  10.490   2.251   2.266  0.1530 -0.0746  0.1429
  259MOL0     C34855  10.537   2.122   2.303  0.0412 -0.3074 -0.1025
  259MOL0     C34856  10.582   2.030   2.196  0.1786 -0.1721  1.0981
  259MOL0     C34857  10.624   1.900   2.219  1.2058  0.5705  0.1626
  259MOL0     C34858  10.619   1.847   2.352  0.6533 -0.4110 -0.4691
  259MOL0     C34859  10.645   1.709   2.383 -0.5987  0.0990 -1.1864
  259MOL0     O34860  10.702   1.627   2.285 -0.1641 -0.3305  0.7662
  259MOL0     C34861  10.718   1.499   2.324 -0.8100  0.1157  0.1731
  259MOL0     C34862  10.683   1.384   2.244  0.6571  0.3693  0.0910
  259MOL0     C34863  10.698   1.249   2.272  0.3306  0.0604 -0.0714
  259MOL0     C34864  10.768   1.218   2.388  0.5354 -0.7290  1.5453
  259MOL0     O34865  10.785   1.097   2.438 -0.4213 -0.1355 -0.2269
  259MOL0     C34866  10.693   0.994   2.406  0.1123  0.7346 -0.8570
  259MOL0     C34867  10.711   0.898   2.519 -0.1610 -0.1068 -0.5144
  259MOL0     C34868  10.600   0.795   2.529 -0.8905 -0.3541 -0.7426
  259MOL0     C34869  10.605   0.693   2.420  0.7553 -0.9223  0.2290
  259MOL0     C34870  10.487   0.601   2.424 -0.8553 -0.3715  0.0146
  259MOL0     C34871  10.506   0.494   2.535  0.2160 -0.2558 -0.0984
  259MOL0     C34872  10.391   0.397   2.551 -0.8012  0.4064 -0.7355
  259MOL0     C34873  10.449   0.276   2.623 -0.1171 -0.1004 -0.1792
  259MOL0    Cl34874  10.534   0.316   2.777 -0.5083  0.0379  0.6518
  259MOL0     C34875  10.819   1.321   2.464  0.4960 -0.6565 -0.1689
  259MOL0     C34876  10.801   1.461   2.439 -0.1099 -0.5441  1.1393
  259MOL0     O34877  10.605   1.664   2.492 -0.5073  0.7374 -0.4238
  259MOL0     C34878  10.588   1.941   2.456 -0.7037  0.4163  0.5302
  259MOL0     C34879  10.551   2.075   2.432  1.0128  0.4066  0.4449
  259MOL0     N34880  10.427   2.739   2.467  0.0067 -0.1191  0.0539
  259MOL0     N34881  10.353   2.838   2.510  0.2591  0.2502  0.8903
  259MOL0     C34882   9.438   3.147   1.967 -0.1150 -0.2513 -0.3276
  259MOL0     C34883   9.326   3.081   1.918  0.5406 -0.1864 -0.4253
  259MOL0     C34884   8.938   2.885   1.893  0.5258 -1.3859  0.0418
  259MOL0     C34885   8.921   2.912   1.762 -0.0601  0.4379 -0.6689
  259MOL0     C34886   8.808   2.880   1.693  0.4090 -0.7779  0.6008
  259MOL0     C34887   8.706   2.809   1.760  0.4836 -0.5432 -0.5025
  259MOL0     O34888   8.596   2.752   1.708  0.0261 -0.4627  0.1350
  259MOL0     C34889   8.555   2.791   1.577  0.8736  0.1255 -0.5282
  259MOL0     C34890   8.414   2.732   1.550 -0.1931 -0.0825 -0.1262
  259MOL0     C34891   8.322   2.744   1.671 -0.4879 -0.2785  0.4589
  259MOL0     C34892   8.184   2.680   1.641 -0.1808  0.4316 -0.3123
  259MOL0     C34893   8.101   2.670   1.767  0.1456 -0.6606 -0.6378
  259MOL0     C34894   8.025   2.659   1.863  0.2037 -0.1198 -0.6667
  259MOL0     C34895   8.716   2.806   1.899  0.0930 -0.3864  0.5168
  259MOL0     C34896   8.829   2.847   1.967 -0.2945  0.1970 -0.1052
  259MOL0     C34897   8.826   2.830   2.110  0.1839  0.6609  0.5643
  259MOL0     H34898   9.402   2.759   1.936 -2.6687 -0.1483 -1.7150
  259MOL0     H34899   9.609   2.865   2.052 -0.6712  0.7710  3.1382
  259MOL0     H34900   9.698   3.261   1.915 -3.6469  3.4558  0.7534
  259MOL0     H34901   9.675   3.317   2.078 -1.4414 -1.1865  0.1814
  259MOL0     H34902   9.917   3.326   1.995  1.0338 -0.6787 -2.7035
  259MOL0     H34903   9.922   3.159   1.981  1.3780  1.0679 -0.4518
  259MOL0     H34904   9.912   3.122   2.212  1.8943 -0.6298 -1.8173
  259MOL0     H34905   9.831   3.277   2.248  0.6104 -0.4825  1.6260
  259MOL0     H34906  10.115   3.238   2.156 -0.8290 -2.3806  1.4553
  259MOL0     H34907  10.031   3.398   2.182 -0.5351 -1.8749 -3.8188
  259MOL0     H34908  10.041   3.388   2.409  0.5318 -1.1033  2.0757
  259MOL0     H34909  10.032   3.218   2.414 -3.3687  2.3681  2.0864
  259MOL0     H34910  10.271   3.370   2.315  1.0505 -0.9492 -0.6278
  259MOL0     H34911  10.244   3.279   2.476 -0.3129  0.4767 -0.1949
  259MOL0     H34912  10.391   3.158   2.337  0.1405 -0.1924  3.0346
  259MOL0     H34913  10.277   3.140   2.204  1.1185  3.2838 -0.3321
  259MOL0     H34914  10.178   3.034   2.476  2.0261  1.4994  1.0289
  259MOL0     H34915  10.158   2.984   2.309  0.8144 -0.1557 -0.5021
  259MOL0     H34916  10.390   2.898   2.182  0.1496 -0.9755 -0.6694
  259MOL0     H34917  10.569   2.668   2.165 -1.2443  1.5234 -0.3757
  259MOL0     H34918  10.575   2.574   2.315 -1.1078  0.3942 -0.0446
  259MOL0     H34919  10.346   2.569   2.118  1.9570 -1.9626 -2.5173
  259MOL0     H34920  10.470   2.463   2.124  2.0513 -0.3120  2.6407
  259MOL0     H34921  10.261   2.381   2.254  2.5442 -0.9488 -2.9635
  259MOL0     H34922  10.289   2.501   2.373  0.6884  0.5351  1.4615
  259MOL0     H34923  10.368   2.292   2.436 -0.7948  1.0862 -0.8771
  259MOL0     H34924  10.516   2.375   2.423 -1.1987  1.0625  1.8107
  259MOL0     H34925  10.571   2.069   2.095 -0.6087  0.7790  1.5327
  259MOL0     H34926  10.664   1.833   2.144 -1.0571  0.1142 -0.7032
  259MOL0     H34927  10.621   1.410   2.158 -1.0673 -0.1364  1.1362
  259MOL0     H34928  10.653   1.177   2.205  0.4280 -0.6325  0.5987
  259MOL0     H34929  10.593   1.039   2.411 -0.6870 -1.0966  1.1568
  259MOL0     H34930  10.699   0.942   2.310 -0.4751 -0.6343 -0.1787
  259MOL0     H34931  10.811   0.853   2.518  0.4643  0.8381  3.4696
  259MOL0     H34932  10.714   0.961   2.608  3.1933 -0.7134 -0.0655
  259MOL0     H34933  10.611   0.745   2.626  1.0894 -1.8789 -1.6707
  259MOL0     H34934  10.501   0.842   2.535 -2.5657 -3.7995  2.5214
  259MOL0     H34935  10.692   0.627   2.413 -0.5983 -2.9325  1.2402
  259MOL0     H34936  10.591   0.749   2.327 -3.8440 -1.0628  0.5964
  259MOL0     H34937  10.477   0.569   2.320  0.3892 -0.0582 -0.2139
  259MOL0     H34938  10.392   0.654   2.431 -1.2739 -0.5806 -2.8915
  259MOL0     H34939  10.595   0.436   2.508  2.1514  2.8048 -0.7723
  259MOL0     H34940  10.507   0.534   2.637  1.1282 -1.5713  0.4334
  259MOL0     H34941  10.348   0.365   2.455 -2.6358 -1.7231  0.6759
  259MOL0     H34942  10.312   0.441   2.612  0.3623  2.5640 -0.6962
  259MOL0     H34943  10.367   0.207   2.645 -3.0227  3.0396 -0.4596
  259MOL0     H34944  10.514   0.219   2.556  1.6173  0.1506  1.2243
  259MOL0     H34945  10.862   1.283   2.556  0.3977  1.1272  0.6553
  259MOL0     H34946  10.855   1.523   2.510  0.8079 -2.0449  1.7862
  259MOL0     H34947  10.580   1.899   2.556  0.2510 -2.7638 -0.6207
  259MOL0     H34948  10.515   2.129   2.519 -0.7939 -3.5556  2.4344
  259MOL0     H34949   9.458   3.254   1.970  1.7446 -0.5560 -0.5967
  259MOL0     H34950   9.244   3.146   1.891  0.8115  2.0494  3.5074
  259MOL0     H34951   9.001   2.973   1.722 -0.1233  1.1969  0.3116
  259MOL0     H34952   8.817   2.904   1.588  0.5102 -3.3604 -0.0491
  259MOL0     H34953   8.620   2.755   1.497 -0.2381 -0.6552 -1.1160
  259MOL0     H34954   8.559   2.900   1.578  1.1464  0.1238 -0.9664
  259MOL0     H34955   8.425   2.625   1.531 -1.0767 -0.3930  0.9873
  259MOL0     H34956   8.367   2.769   1.458  0.2260  0.7148 -0.0306
  259MOL0     H34957   8.337   2.848   1.701  2.1003 -1.2525  2.9524
  259MOL0     H34958   8.359   2.675   1.747 -1.5405 -0.1807  1.0896
  259MOL0     H34959   8.148   2.747   1.562  0.7322 -0.1485 -1.2420
  259MOL0     H34960   8.200   2.579   1.602 -1.0571 -0.4622  1.5194
  259MOL0     H34961   7.974   2.642   1.955  1.3651 -1.3456 -0.2097
  259MOL0     H34962   8.635   2.758   1.952 -1.2642  0.3499 -0.8147
  259MOL0     H34963   8.733   2.785   2.146  0.5664 -1.3501 -0.8457
  259MOL0     H34964   8.912   2.770   2.140  1.6451  2.9775  1.3526
  259MOL0     H34965   8.823   2.933   2.149 -1.7439  1.5304 -1.6136
  260MOL0     O34966   8.895   5.719   6.407 -0.2780 -0.5896 -0.4817
  260MOL0     C34967   8.826   5.823   6.418 -0.7087 -0.2149 -0.6989
  260MOL0     O34968   8.788   5.909   6.314 -0.0487 -0.1700 -0.4677
  260MOL0     C34969   8.838   5.879   6.186 -0.4751  0.0390  0.2147
  260MOL0     C34970   8.755   5.842   6.078 -0.2555 -0.0546 -0.2938
  260MOL0     C34971   8.819   5.806   5.959  0.0113 -0.9066  0.2865
  260MOL0     C34972   8.960   5.819   5.940  0.0149 -0.1416  0.7195
  260MOL0     O34973   9.014   5.799   5.819 -0.2302 -0.3154  0.0910
  260MOL0     C34974   8.959   5.883   5.710 -0.3529  0.9592  0.0057
  260MOL0     C34975   9.080   5.929   5.631 -0.1574  0.7011  0.3611
  260MOL0     C34976   9.187   5.831   5.586 -0.4300  0.5735 -0.1161
  260MOL0     C34977   9.150   5.756   5.462  0.4401 -0.4136  0.1472
  260MOL0     C34978   9.244   5.642   5.431  1.0353  0.3344 -0.5212
  260MOL0     C34979   9.250   5.599   5.281 -0.3928 -0.3964 -0.0902
  260MOL0     C34980   9.342   5.468   5.272  0.9294 -0.2542  0.3429
  260MOL0     C34981   9.341   5.418   5.128 -0.2951 -0.1996  0.5664
  260MOL0     N34982   9.440   5.315   5.132  0.6064 -0.5458  0.0296
  260MOL0     C34983   9.574   5.335   5.105 -0.0016 -1.0817  0.6669
  260MOL0     C34984   9.628   5.209   5.111 -0.0938 -0.1423  0.6638
  260MOL0     C34985   9.772   5.174   5.114 -0.3392  0.0860 -0.1402
  260MOL0     C34986   9.828   5.248   5.236 -0.5420  0.5924  0.1023
  260MOL0     C34987   9.973   5.196   5.250  0.1639 -0.1975  0.3441
  260MOL0     C34988  10.032   5.216   5.390 -0.1131  0.8259 -0.0812
  260MOL0     O34989  10.165   5.264   5.376 -0.3034 -0.2067  0.5687
  260MOL0     C34990  10.174   5.390   5.323 -0.5468  0.1345  0.2746
  260MOL0     C34991  10.077   5.482   5.287  0.0846 -0.0851  0.2237
  260MOL0     C34992  10.102   5.598   5.212  0.5722 -0.3701 -0.8274
  260MOL0     C34993  10.236   5.644   5.204 -0.4855 -0.2898 -0.4214
  260MOL0     C34994  10.284   5.770   5.155 -0.0846 -0.4821  0.2339
  260MOL0     O34995  10.412   5.770   5.099 -0.3233  0.5120 -0.2077
  260MOL0     C34996  10.472   5.884   5.042  0.0825 -0.0021  0.0422
  260MOL0     C34997  10.408   5.963   4.944 -0.0990  0.8137 -0.0056
  260MOL0     C34998  10.478   6.071   4.892 -0.2223 -0.4667  0.5729
  260MOL0     C34999  10.606   6.114   4.932 -0.8074 -0.0101 -0.2698
  260MOL0     O35000  10.667   6.227   4.889  0.0183 -0.3518  0.4713
  260MOL0     C35001  10.700   6.230   4.749  0.0328 -0.6350  0.6083
  260MOL0     C35002  10.824   6.311   4.713  1.5091  0.0833  0.0588
  260MOL0     C35003  10.947   6.241   4.760  0.0054 -1.6060 -0.0873
  260MOL0     C35004  11.070   6.322   4.731  0.2163 -0.4343 -0.7958
  260MOL0     C35005  11.197   6.273   4.795  0.0044  0.6843  1.3203
  260MOL0     C35006  11.322   6.365   4.762  0.2276  0.1067 -1.0889
  260MOL0     C35007  11.442   6.314   4.831 -0.3480  0.9254 -0.3987
  260MOL0     C35008  11.553   6.413   4.797  0.1912  0.6134 -0.2965
  260MOL0    Cl35009  11.533   6.572   4.887  0.3948 -0.5735 -0.2896
  260MOL0     C35010  10.666   6.038   5.034 -0.2446  0.4936 -0.4406
  260MOL0     C35011  10.598   5.925   5.092  1.3418  0.0376  0.7832
  260MOL0     O35012  10.207   5.861   5.160  1.1196 -0.3549 -0.4416
  260MOL0     C35013  10.336   5.552   5.238  0.2153 -0.0703 -0.9298
  260MOL0     C35014  10.306   5.431   5.292  0.6498  0.4748 -0.9303
  260MOL0     N35015   9.526   5.119   5.138 -0.4734  0.9560  0.7018
  260MOL0     N35016   9.415   5.180   5.131 -0.4314 -0.3011  0.3203
  260MOL0     C35017   9.031   5.858   6.050  0.0786  0.1155  1.3901
  260MOL0     C35018   8.972   5.886   6.170 -0.5268  0.7685 -0.2240
  260MOL0     C35019   8.786   5.864   6.556 -0.3532  0.1858  0.5289
  260MOL0     C35020   8.760   5.999   6.569 -0.8244 -1.2364  0.3060
  260MOL0     C35021   8.721   6.052   6.692  0.9213  0.3273 -0.7171
  260MOL0     C35022   8.718   5.974   6.810  0.1390  0.3093  0.1952
  260MOL0     O35023   8.695   6.047   6.924  0.4257 -0.7701 -0.6239
  260MOL0     C35024   8.645   5.976   7.041  0.2114  1.1673  0.4282
  260MOL0     C35025   8.592   6.082   7.146 -0.2663 -0.0478  0.0167
  260MOL0     C35026   8.485   6.163   7.083 -1.1362 -0.8378 -0.0461
  260MOL0     C35027   8.400   6.240   7.186  1.1806  0.6537  0.9472
  260MOL0     C35028   8.267   6.261   7.120 -0.2386  0.4658 -0.8342
  260MOL0     C35029   8.166   6.281   7.058 -0.5856  0.1562  0.1350
  260MOL0     C35030   8.749   5.836   6.800  0.5280  0.1692  1.4768
  260MOL0     C35031   8.782   5.778   6.672 -1.0025 -0.2310 -0.9384
  260MOL0     C35032   8.807   5.630   6.671 -0.0888  0.3591 -0.4296
  260MOL0     H35033   8.647   5.835   6.085 -0.6067 -0.2703 -3.9316
  260MOL0     H35034   8.748   5.784   5.881  0.4481  1.6071 -0.9166
  260MOL0     H35035   8.895   5.816   5.652 -0.6153  1.5048 -0.3385
  260MOL0     H35036   8.886   5.959   5.736 -1.7549 -0.8067  1.5636
  260MOL0     H35037   9.127   6.006   5.693 -2.5325  3.2576 -0.7876
  260MOL0     H35038   9.047   5.991   5.546  2.2386  0.7512 -0.6191
  260MOL0     H35039   9.213   5.764   5.668 -1.5771  1.1879  0.7822
  260MOL0     H35040   9.269   5.900   5.561  1.3947 -0.5540  2.2846
  260MOL0     H35041   9.050   5.712   5.471  0.2426 -0.1842 -0.7793
  260MOL0     H35042   9.138   5.831   5.383  1.9673 -0.9151 -0.6116
  260MOL0     H35043   9.347   5.665   5.457  0.0986  3.4217  0.8423
  260MOL0     H35044   9.206   5.553   5.483  0.1533  0.6092 -0.6749
  260MOL0     H35045   9.147   5.593   5.243 -0.1736  0.6832 -0.9008
  260MOL0     H35046   9.310   5.673   5.227  2.4176 -2.1682  0.4004
  260MOL0     H35047   9.302   5.396   5.344  0.6115 -0.7887 -0.3534
  260MOL0     H35048   9.441   5.487   5.314  0.3575  0.8421  1.2717
  260MOL0     H35049   9.247   5.378   5.088 -0.7273 -0.5551  1.8728
  260MOL0     H35050   9.376   5.496   5.060  0.6611 -2.2672 -1.4551
  260MOL0     H35051   9.619   5.434   5.106 -1.6775 -0.2790  1.9578
  260MOL0     H35052   9.776   5.065   5.120 -1.3719  0.1194  4.4682
  260MOL0     H35053   9.827   5.211   5.027 -1.3331 -1.0159 -1.2908
  260MOL0     H35054   9.827   5.356   5.218  1.7537  0.6660  0.0839
  260MOL0     H35055   9.781   5.238   5.334 -0.9766 -1.5472 -0.2681
  260MOL0     H35056  10.035   5.236   5.170 -4.2811 -1.0718 -4.0301
  260MOL0     H35057   9.970   5.087   5.238  0.0111  0.0564 -2.5198
  260MOL0     H35058  10.039   5.121   5.442 -1.1826  0.4727 -0.5389
  260MOL0     H35059   9.972   5.282   5.454  0.0523  0.7619  0.1368
  260MOL0     H35060   9.980   5.451   5.324  1.2243 -4.8513 -0.0796
  260MOL0     H35061  10.017   5.651   5.169  1.6408  1.1743 -1.1177
  260MOL0     H35062  10.312   5.936   4.902  0.6409 -0.6309 -0.8733
  260MOL0     H35063  10.432   6.134   4.817  4.2506  0.5998 -1.6202
  260MOL0     H35064  10.709   6.127   4.714 -0.0189 -0.8214  1.1300
  260MOL0     H35065  10.624   6.275   4.685  0.4062  1.8492  1.7894
  260MOL0     H35066  10.838   6.320   4.605 -0.3807  0.1443 -0.2202
  260MOL0     H35067  10.808   6.415   4.743 -0.1552 -0.5361  1.4956
  260MOL0     H35068  10.929   6.224   4.867 -2.6919  2.7582  0.3835
  260MOL0     H35069  10.964   6.150   4.702  0.6372 -0.0136 -2.5090
  260MOL0     H35070  11.052   6.426   4.759  0.3176 -0.6014 -0.0967
  260MOL0     H35071  11.092   6.317   4.624  3.5943 -1.9266 -0.1679
  260MOL0     H35072  11.230   6.175   4.761  1.6747  1.2168  1.3103
  260MOL0     H35073  11.191   6.266   4.904 -0.3179  0.2926  1.2759
  260MOL0     H35074  11.342   6.368   4.655  2.5986 -2.0940 -0.8194
  260MOL0     H35075  11.294   6.464   4.799 -1.4358  0.2695 -2.6430
  260MOL0     H35076  11.457   6.211   4.797 -1.9371  1.1024 -1.7475
  260MOL0     H35077  11.422   6.302   4.938  0.9078 -3.5150 -0.4610
  260MOL0     H35078  11.648   6.368   4.828  0.0389 -0.6082 -1.5084
  260MOL0     H35079  11.563   6.425   4.689  0.2549  2.5048 -0.1199
  260MOL0     H35080  10.768   6.058   5.067 -1.0984  2.4418  1.1944
  260MOL0     H35081  10.650   5.854   5.156  1.2190 -2.5752 -1.8404
  260MOL0     H35082  10.441   5.577   5.250 -0.4737  1.8775  2.0704
  260MOL0     H35083  10.395   5.373   5.314  0.6219 -0.3157 -2.7541
  260MOL0     H35084   9.138   5.880   6.048 -0.1904  1.6215  1.9696
  260MOL0     H35085   9.046   5.922   6.240 -1.4717 -1.4278  2.0656
  260MOL0     H35086   8.767   6.073   6.490 -0.3965  1.1612  2.4810
  260MOL0     H35087   8.690   6.155   6.704  2.1069  0.4964  1.1830
  260MOL0     H35088   8.710   5.900   7.084 -1.5341  0.0936  1.2897
  260MOL0     H35089   8.559   5.924   6.999  1.1264 -0.6260  0.6861
  260MOL0     H35090   8.683   6.136   7.174 -1.2422  1.8848 -0.3359
  260MOL0     H35091   8.549   6.029   7.232  0.2524 -4.0521 -1.9918
  260MOL0     H35092   8.425   6.094   7.023  0.9415 -2.2847 -0.6155
  260MOL0     H35093   8.526   6.237   7.013 -3.3274  0.7839  0.3055
  260MOL0     H35094   8.392   6.187   7.281 -0.1436 -0.3369  0.3284
  260MOL0     H35095   8.443   6.340   7.199  0.3534  1.4213 -1.6145
  260MOL0     H35096   8.081   6.303   6.997 -1.1096 -0.5795  0.5861
  260MOL0     H35097   8.744   5.766   6.883 -0.8347 -3.9419 -1.7324
  260MOL0     H35098   8.828   5.593   6.771  1.6527 -3.2855 -1.9741
  260MOL0     H35099   8.721   5.576   6.631 -0.7057  1.8593 -1.2281
  260MOL0     H35100   8.898   5.609   6.613  0.4264  1.7507 -0.1771
  261MOL0     O35101   7.650   8.384   5.025  0.1474 -0.4570 -0.5232
  261MOL0     C35102   7.650   8.264   5.042 -0.0483  0.8984 -0.7684
  261MOL0     O35103   7.556   8.180   5.004 -0.3854  0.4106  0.7009
  261MOL0     C35104   7.444   8.217   4.941  0.3632 -0.4211  0.7253
  261MOL0     C35105   7.324   8.196   4.999 -0.6939 -0.0920  0.9533
  261MOL0     C35106   7.205   8.227   4.933 -0.5604 -0.6021  0.1323
  261MOL0     C35107   7.207   8.285   4.800 -0.6547  1.3691  0.4255
  261MOL0     O35108   7.085   8.317   4.740  0.6582 -0.5974 -0.2752
  261MOL0     C35109   6.964   8.299   4.807 -0.6452  0.0253 -0.1150
  261MOL0     C35110   6.855   8.339   4.709 -0.2914  0.0509  0.5183
  261MOL0     C35111   6.760   8.219   4.685 -0.4969 -1.0373  0.6690
  261MOL0     C35112   6.665   8.265   4.572 -0.8429 -0.5774 -0.1237
  261MOL0     C35113   6.544   8.177   4.554  0.6978  0.1059  0.6170
  261MOL0     C35114   6.444   8.180   4.667 -0.1987  1.0975  0.1128
  261MOL0     C35115   6.337   8.068   4.660 -0.2246  0.1561 -0.7435
  261MOL0     C35116   6.307   8.048   4.814 -0.3327 -1.1306  0.5474
  261MOL0     N35117   6.202   7.961   4.846  0.3795  0.4346 -0.0032
  261MOL0     C35118   6.071   7.994   4.827 -0.2654  0.6956  0.7492
  261MOL0     C35119   6.008   7.890   4.882  1.0744 -0.7644 -0.4758
  261MOL0     C35120   5.856   7.874   4.873  0.2352 -0.4701  0.7746
  261MOL0     C35121   5.793   7.848   5.008 -0.3136 -0.6521  0.4845
  261MOL0     C35122   5.646   7.849   4.991 -0.2586  0.7532 -0.2472
  261MOL0     C35123   5.581   7.987   4.957  0.6692  0.4197 -0.4180
  261MOL0     O35124   5.533   7.973   4.824  0.4769  0.2827 -0.3568
  261MOL0     C35125   5.407   7.936   4.788 -0.3347  0.2227  0.6599
  261MOL0     C35126   5.399   7.897   4.652  0.0623  0.3235  0.3399
  261MOL0     C35127   5.281   7.848   4.599  0.2419 -0.3263  0.1724
  261MOL0     C35128   5.172   7.834   4.685  0.2634 -0.3344  0.9761
  261MOL0     C35129   5.039   7.794   4.637  0.3372 -0.0316 -0.2403
  261MOL0     O35130   4.929   7.814   4.709  0.3724 -0.0755 -0.5755
  261MOL0     C35131   4.811   7.784   4.650  0.2686  0.3297  0.2183
  261MOL0     C35132   4.756   7.862   4.543  0.2376 -0.6211 -0.0277
  261MOL0     C35133   4.633   7.823   4.486  0.2695  0.3707 -0.2145
  261MOL0     C35134   4.555   7.725   4.544  0.4473  0.1851 -1.2028
  261MOL0     O35135   4.430   7.689   4.506 -0.2018  0.9465 -0.0700
  261MOL0     C35136   4.408   7.675   4.365  0.4422  0.2889  0.0160
  261MOL0     C35137   4.259   7.696   4.339 -0.8653  0.8160  0.4335
  261MOL0     C35138   4.161   7.594   4.414  0.3561  0.1229 -0.9012
  261MOL0     C35139   4.153   7.454   4.359  0.8818 -0.0989  0.3406
  261MOL0     C35140   4.091   7.364   4.468  1.1223  0.1328  0.1206
  261MOL0     C35141   4.025   7.235   4.419 -0.3413  0.2883 -0.0308
  261MOL0     C35142   4.101   7.155   4.304 -0.0033 -0.2461 -0.7247
  261MOL0     C35143   4.087   6.999   4.325  0.4695 -0.1679 -0.3635
  261MOL0    Cl35144   3.920   6.948   4.355  0.1555 -0.1016  0.0421
  261MOL0     C35145   4.613   7.644   4.642  0.6353 -0.6663 -0.3986
  261MOL0     C35146   4.735   7.683   4.710 -0.2242  0.4740  0.9405
  261MOL0     O35147   5.037   7.767   4.519 -0.4806  0.2887  0.0076
  261MOL0     C35148   5.185   7.870   4.816  1.5770  0.0307  0.4240
  261MOL0     C35149   5.302   7.920   4.871  0.1883  1.1851 -0.9103
  261MOL0     N35150   6.092   7.810   4.947  0.1074 -0.0613  0.6890
  261MOL0     N35151   6.211   7.858   4.927  0.3196  0.7031 -0.7361
  261MOL0     C35152   7.326   8.295   4.739 -0.8234  0.3003 -0.4337
  261MOL0     C35153   7.448   8.262   4.810 -0.3715 -0.4748  0.4746
  261MOL0     C35154   7.751   8.192   5.128 -0.4728  0.4028  0.0835
  261MOL0     C35155   7.749   8.049   5.152 -0.0657  0.1301  0.0085
  261MOL0     C35156   7.855   7.975   5.224  0.0823 -0.4953  0.4110
  261MOL0     C35157   7.967   8.039   5.272  0.2421 -0.2531  0.1342
  261MOL0     O35158   8.063   7.973   5.341  0.0289  0.2066 -0.4618
  261MOL0     C35159   8.144   7.877   5.268 -0.9103 -0.0622  0.9123
  261MOL0     C35160   8.219   7.796   5.371  0.9558  0.4484  0.0596
  261MOL0     C35161   8.315   7.884   5.467  0.4179 -0.3077 -0.3083
  261MOL0     C35162   8.410   7.802   5.552  0.5641 -0.1453  1.0345
  261MOL0     C35163   8.346   7.758   5.678  0.3360  0.2492  0.8135
  261MOL0     C35164   8.281   7.713   5.768 -0.0429 -0.9376 -0.5523
  261MOL0     C35165   7.974   8.173   5.240 -0.4856 -1.2853  0.0383
  261MOL0     C35166   7.869   8.255   5.180  0.7680  0.7189  0.2800
  261MOL0     C35167   7.904   8.396   5.164 -0.5374  0.2006 -0.0178
  261MOL0     H35168   7.327   8.162   5.102 -0.4766 -0.3456  0.8633
  261MOL0     H35169   7.116   8.226   4.995  0.2741 -1.2644  1.3661
  261MOL0     H35170   6.959   8.192   4.827  0.1697  0.2879  1.7069
  261MOL0     H35171   6.966   8.365   4.894  3.5156 -0.2697  0.2064
  261MOL0     H35172   6.904   8.382   4.621  2.3883  0.7929  2.2542
  261MOL0     H35173   6.798   8.424   4.749 -2.7697 -1.8712  1.3666
  261MOL0     H35174   6.699   8.214   4.775 -3.2265  1.6977 -0.8394
  261MOL0     H35175   6.821   8.135   4.653  1.8478 -0.0717  2.3171
  261MOL0     H35176   6.636   8.369   4.592  1.5154 -0.2213  1.8668
  261MOL0     H35177   6.720   8.275   4.478  0.6384 -0.2749  0.7512
  261MOL0     H35178   6.479   8.207   4.471  1.1113 -1.7872 -0.4539
  261MOL0     H35179   6.583   8.076   4.540  0.0631 -0.3400  1.9263
  261MOL0     H35180   6.489   8.165   4.765 -0.9570 -2.8091 -0.0065
  261MOL0     H35181   6.404   8.282   4.674  3.0711  2.5000  0.3740
  261MOL0     H35182   6.387   7.981   4.615 -0.1103  0.2367 -0.7740
  261MOL0     H35183   6.252   8.091   4.595  0.2759  0.8665 -1.1662
  261MOL0     H35184   6.397   8.007   4.861  0.1447 -0.1880  0.4741
  261MOL0     H35185   6.270   8.136   4.866  3.3098  1.2319 -0.4998
  261MOL0     H35186   6.034   8.081   4.772  3.2312  0.3365 -2.6331
  261MOL0     H35187   5.821   7.968   4.829  1.9662 -0.8742 -1.6319
  261MOL0     H35188   5.833   7.789   4.808  2.1533 -1.9905  1.9714
  261MOL0     H35189   5.839   7.762   5.056 -1.2629 -1.2688  0.3318
  261MOL0     H35190   5.822   7.932   5.072  1.2971  0.4616 -1.5901
  261MOL0     H35191   5.612   7.820   5.091  0.0639  0.5068 -0.2091
  261MOL0     H35192   5.611   7.779   4.914  2.3056  2.0279 -2.7632
  261MOL0     H35193   5.655   8.068   4.962  0.9420  0.1889 -0.7088
  261MOL0     H35194   5.506   8.012   5.033  3.2155  0.9540  2.1267
  261MOL0     H35195   5.483   7.912   4.585 -0.2194  3.2232  0.5354
  261MOL0     H35196   5.286   7.829   4.493  0.8162  2.5371 -0.3673
  261MOL0     H35197   4.818   7.935   4.492 -1.6806  1.4547  0.4350
  261MOL0     H35198   4.601   7.876   4.397 -2.1127 -0.6500 -0.0333
  261MOL0     H35199   4.458   7.752   4.304  0.1193 -0.7697 -1.6503
  261MOL0     H35200   4.449   7.585   4.319  2.0186  0.7237  0.4813
  261MOL0     H35201   4.243   7.795   4.382 -0.5507  1.2875 -0.5075
  261MOL0     H35202   4.235   7.693   4.232 -1.9954 -0.7851  0.6975
  261MOL0     H35203   4.180   7.590   4.521 -0.9706 -1.2217 -0.6877
  261MOL0     H35204   4.060   7.634   4.403  0.2969  0.1470 -0.3072
  261MOL0     H35205   4.255   7.419   4.337  0.5807 -0.0247 -1.2196
  261MOL0     H35206   4.106   7.451   4.261  1.3497 -1.7292  0.1452
  261MOL0     H35207   4.016   7.427   4.515 -1.2538 -1.8238 -0.8685
  261MOL0     H35208   4.157   7.338   4.551  1.2840 -1.1377 -0.3853
  261MOL0     H35209   4.020   7.168   4.505 -1.8208 -3.4506 -2.7691
  261MOL0     H35210   3.921   7.259   4.393  0.1885  1.1524 -1.4220
  261MOL0     H35211   4.207   7.180   4.299  0.6478 -2.8318 -1.2210
  261MOL0     H35212   4.051   7.180   4.210 -2.5342  0.9128  0.8027
  261MOL0     H35213   4.129   6.951   4.236  0.7301 -0.0182 -0.3240
  261MOL0     H35214   4.142   6.978   4.417 -1.2451 -2.2678  0.2618
  261MOL0     H35215   4.565   7.557   4.685 -2.7368  2.4805  3.0282
  261MOL0     H35216   4.772   7.637   4.801  0.9651  2.2189  1.3828
  261MOL0     H35217   5.094   7.857   4.873  0.5586  0.6573 -1.0118
  261MOL0     H35218   5.308   7.942   4.977 -1.0590 -1.1117 -0.2797
  261MOL0     H35219   7.321   8.334   4.638  3.0246 -2.1314 -1.7810
  261MOL0     H35220   7.544   8.271   4.761 -0.6570 -1.4947 -0.3004
  261MOL0     H35221   7.660   7.990   5.133 -1.7410  2.0591  1.3006
  261MOL0     H35222   7.827   7.871   5.242 -2.1376 -0.2247 -1.0398
  261MOL0     H35223   8.213   7.922   5.196  0.9049 -1.6604  1.5708
  261MOL0     H35224   8.087   7.812   5.201 -0.3912 -0.6171  1.0067
  261MOL0     H35225   8.278   7.720   5.319  3.2210  2.0624  0.1351
  261MOL0     H35226   8.151   7.752   5.444 -0.0344  0.1645 -1.0026
  261MOL0     H35227   8.245   7.935   5.533 -0.6471 -0.5605 -1.2245
  261MOL0     H35228   8.356   7.966   5.406 -1.5016 -0.6772 -2.1971
  261MOL0     H35229   8.456   7.717   5.501  0.3007  1.1880 -1.5644
  261MOL0     H35230   8.494   7.863   5.588  3.0383 -0.8551 -2.9909
  261MOL0     H35231   8.227   7.669   5.849 -1.9756  0.1009 -1.2062
  261MOL0     H35232   8.062   8.233   5.262 -0.8817 -0.9704  0.7855
  261MOL0     H35233   8.005   8.427   5.194  0.6378 -0.7659 -2.6821
  261MOL0     H35234   7.886   8.441   5.066  1.5214 -0.0222 -0.5400
  261MOL0     H35235   7.836   8.447   5.233  0.5514 -0.1555  1.3768
  262MOL0     O35236   8.378   6.563  10.903  0.3217 -0.0365  0.2637
  262MOL0     C35237   8.418   6.484  10.822  0.2853  0.7639 -0.1077
  262MOL0     O35238   8.408   6.495  10.682 -0.3158  0.7559 -0.3261
  262MOL0     C35239   8.321   6.587  10.625  0.6117  0.6875  0.0715
  262MOL0     C35240   8.333   6.725  10.640 -0.2724  0.2344 -0.0274
  262MOL0     C35241   8.237   6.813  10.579 -0.1482  0.7478 -0.7793
  262MOL0     C35242   8.125   6.765  10.515  0.2585  0.3959 -0.0031
  262MOL0     O35243   8.053   6.862  10.449 -0.0874  0.3765 -0.2428
  262MOL0     C35244   7.920   6.881  10.500 -0.7190  0.5710  0.3489
  262MOL0     C35245   7.864   7.022  10.479  0.5341 -0.4201  0.5311
  262MOL0     C35246   7.971   7.127  10.511 -0.0609 -0.0812  1.4722
  262MOL0     C35247   8.002   7.136  10.665 -0.2839 -0.0742  0.5753
  262MOL0     C35248   8.062   7.272  10.705 -0.4184  0.0286  1.3841
  262MOL0     C35249   8.097   7.270  10.857  0.0308  0.0351 -0.4000
  262MOL0     C35250   8.135   7.410  10.899 -0.0053  0.4452 -0.3974
  262MOL0     C35251   8.175   7.422  11.048  0.2006 -0.9269  0.9238
  262MOL0     N35252   8.314   7.446  11.059 -0.1804  0.0693 -0.7435
  262MOL0     C35253   8.362   7.581  11.049  1.3940 -0.4355 -0.7359
  262MOL0     C35254   8.488   7.579  11.107  0.4185  0.3398  0.5003
  262MOL0     C35255   8.567   7.704  11.095  0.4231 -0.5388  0.3140
  262MOL0     C35256   8.674   7.682  10.989 -0.4540 -0.3387  0.6611
  262MOL0     C35257   8.794   7.595  11.039 -0.3370  0.0748 -0.5116
  262MOL0     C35258   8.898   7.556  10.922 -0.1431  0.1552  0.0605
  262MOL0     O35259   8.949   7.665  10.850  0.4162 -0.1514  0.1067
  262MOL0     C35260   9.061   7.647  10.777  0.0063  0.2427  0.1453
  262MOL0     C35261   9.110   7.533  10.723  0.3086  0.3687 -0.2897
  262MOL0     C35262   9.244   7.527  10.667 -0.4600  0.7758  0.5660
  262MOL0     C35263   9.322   7.639  10.660 -0.4476 -0.0098 -0.3600
  262MOL0     C35264   9.455   7.634  10.584 -0.0208  0.4004 -0.1573
  262MOL0     O35265   9.511   7.511  10.562  0.5731 -0.3116  0.2043
  262MOL0     C35266   9.643   7.492  10.535 -0.1010 -0.3619  0.2811
  262MOL0     C35267   9.747   7.590  10.557  0.8866 -0.2435 -0.1554
  262MOL0     C35268   9.870   7.548  10.500 -0.2420  0.2139 -1.8608
  262MOL0     C35269   9.889   7.419  10.441  0.1314  0.3647  0.9060
  262MOL0     O35270  10.018   7.386  10.388 -0.7087 -0.4560 -0.2915
  262MOL0     C35271  10.034   7.260  10.327 -0.3861  0.2082  0.0638
  262MOL0     C35272  10.178   7.227  10.303  0.7937  0.5764  1.0250
  262MOL0     C35273  10.236   7.301  10.187  0.9122 -0.6959  0.0976
  262MOL0     C35274  10.388   7.272  10.193  0.7813  0.6026  0.1716
  262MOL0     C35275  10.432   7.116  10.174 -0.1303 -0.0746  0.6090
  262MOL0     C35276  10.417   7.058  10.031  0.7161 -0.4416 -0.0581
  262MOL0     C35277  10.507   7.142   9.927  0.0087  0.7328  0.1195
  262MOL0     C35278  10.434   7.181   9.806  0.3141 -0.5674 -0.0729
  262MOL0    Cl35279  10.359   7.043   9.722 -0.0580 -0.2029  0.7655
  262MOL0     C35280   9.783   7.328  10.425  0.1965 -0.6922 -0.0519
  262MOL0     C35281   9.654   7.373  10.470  0.6825  0.1972 -0.5224
  262MOL0     O35282   9.491   7.742  10.536 -0.2680  0.2380  0.5915
  262MOL0     C35283   9.267   7.761  10.708  0.2423  0.6846 -1.0796
  262MOL0     C35284   9.142   7.767  10.763 -0.3424  0.5579  0.4529
  262MOL0     N35285   8.510   7.455  11.162  0.0594  0.4851 -0.5043
  262MOL0     N35286   8.402   7.381  11.145 -0.2536 -0.2221  0.2634
  262MOL0     C35287   8.111   6.624  10.491 -0.1745  0.5549 -0.6726
  262MOL0     C35288   8.213   6.536  10.556  0.7923 -0.6402  0.2017
  262MOL0     C35289   8.507   6.379  10.882  0.5040  0.7584  0.2830
  262MOL0     C35290   8.587   6.300  10.794 -0.0961 -0.3609  0.4224
  262MOL0     C35291   8.684   6.199  10.827  0.4365  0.7673 -0.0135
  262MOL0     C35292   8.693   6.164  10.967 -0.7403 -0.3216  0.3573
  262MOL0     O35293   8.777   6.060  11.003  0.3622 -0.8657 -0.0912
  262MOL0     C35294   8.843   6.061  11.124  0.0272 -0.1572 -0.1764
  262MOL0     C35295   8.937   5.942  11.139  0.4782  0.2153  0.2017
  262MOL0     C35296   8.998   5.933  11.277  0.2815 -0.6030 -0.6627
  262MOL0     C35297   9.144   5.877  11.257 -1.0863  0.3079 -1.0591
  262MOL0     C35298   9.244   5.977  11.232 -0.6806 -0.7264  1.3530
  262MOL0     C35299   9.316   6.068  11.203  0.4493 -0.9916  0.2388
  262MOL0     C35300   8.615   6.242  11.054  0.2325 -0.8080 -0.1014
  262MOL0     C35301   8.529   6.345  11.021  0.8481 -0.1134  0.0235
  262MOL0     C35302   8.439   6.399  11.139  0.3488 -0.2393  0.5301
  262MOL0     H35303   8.417   6.755  10.702  0.5854 -1.3575 -0.3549
  262MOL0     H35304   8.256   6.920  10.583 -2.6187  1.2192  0.4979
  262MOL0     H35305   7.851   6.800  10.474  1.3752 -1.9831  2.2427
  262MOL0     H35306   7.919   6.867  10.608  1.8468  2.2750  0.6941
  262MOL0     H35307   7.772   7.040  10.535  0.1650  2.8649 -0.8921
  262MOL0     H35308   7.847   7.039  10.372  5.0783  1.6142 -0.1224
  262MOL0     H35309   7.944   7.222  10.464  2.7249 -0.4099 -1.1804
  262MOL0     H35310   8.065   7.109  10.457 -0.1864 -0.4411  1.3771
  262MOL0     H35311   7.914   7.132  10.729  0.0403  2.2186  1.2561
  262MOL0     H35312   8.054   7.044  10.694 -0.3311 -0.4142 -0.3764
  262MOL0     H35313   8.156   7.286  10.650  0.7232 -3.1080  2.3303
  262MOL0     H35314   7.993   7.354  10.683 -3.3676 -2.3343  1.2167
  262MOL0     H35315   8.007   7.255  10.918 -0.5524 -1.2209 -1.5149
  262MOL0     H35316   8.168   7.194  10.890 -1.1311 -1.2369 -0.7168
  262MOL0     H35317   8.044   7.467  10.886 -2.0737 -2.6305 -0.4722
  262MOL0     H35318   8.212   7.439  10.827 -0.0905  2.4044  0.2366
  262MOL0     H35319   8.118   7.504  11.093  1.6054 -0.6141  2.2293
  262MOL0     H35320   8.158   7.327  11.098  1.3674 -3.1384 -2.5455
  262MOL0     H35321   8.305   7.658  10.997 -2.4202 -3.6291 -1.8188
  262MOL0     H35322   8.518   7.800  11.075  4.3425  2.9501  4.9813
  262MOL0     H35323   8.607   7.723  11.195  2.8679 -0.3988 -0.6192
  262MOL0     H35324   8.631   7.633  10.901  1.9909 -0.4259 -0.5905
  262MOL0     H35325   8.697   7.784  10.955 -1.1649  0.6603  2.9987
  262MOL0     H35326   8.754   7.506  11.088  0.3390  0.6762  1.2143
  262MOL0     H35327   8.846   7.636  11.126  2.0377 -1.2039 -1.2463
  262MOL0     H35328   8.851   7.478  10.860 -1.2224  2.6323 -2.4712
  262MOL0     H35329   8.980   7.511  10.978 -1.8181 -3.4147 -0.0351
  262MOL0     H35330   9.061   7.436  10.725  3.4685 -1.3781 -0.7573
  262MOL0     H35331   9.277   7.430  10.634 -2.0592  0.5462 -0.4781
  262MOL0     H35332   9.724   7.682  10.610 -2.3054 -0.5670 -0.7326
  262MOL0     H35333   9.960   7.607  10.512 -0.0723  0.1801 -2.9236
  262MOL0     H35334  10.008   7.180  10.397 -1.5392  1.7036  1.4362
  262MOL0     H35335   9.963   7.259  10.244 -1.5356  3.4545  0.8394
  262MOL0     H35336  10.230   7.251  10.396  0.5012  0.1591  1.3006
  262MOL0     H35337  10.187   7.120  10.279  1.4125  0.9475 -0.5287
  262MOL0     H35338  10.199   7.265  10.091  3.8702 -4.6176  0.1914
  262MOL0     H35339  10.207   7.405  10.207  1.3025 -1.2327  4.2643
  262MOL0     H35340  10.425   7.308  10.289 -1.5537  0.1453  1.3061
  262MOL0     H35341  10.429   7.333  10.112  0.6430  0.8166  0.2611
  262MOL0     H35342  10.376   7.056  10.245 -1.0704 -1.3896 -1.1827
  262MOL0     H35343  10.539   7.124  10.196  0.1437  0.8451 -0.8589
  262MOL0     H35344  10.449   6.954  10.034  1.0848 -0.3218  0.2838
  262MOL0     H35345  10.312   7.066  10.000  0.7459 -2.4487 -0.8131
  262MOL0     H35346  10.576   7.066   9.891 -0.5418 -0.1433  0.8641
  262MOL0     H35347  10.567   7.227   9.959  0.5978  1.3938 -2.4700
  262MOL0     H35348  10.352   7.243   9.845  0.3498 -0.2800 -0.4556
  262MOL0     H35349  10.489   7.241   9.734 -2.2676  2.7938  0.5228
  262MOL0     H35350   9.783   7.235  10.368 -0.3532 -1.0959  0.5870
  262MOL0     H35351   9.565   7.313  10.453  1.6026 -1.7933  1.1693
  262MOL0     H35352   9.328   7.851  10.709  0.6124  0.4906  1.5426
  262MOL0     H35353   9.109   7.863  10.800  3.1063  0.7548  3.6071
  262MOL0     H35354   8.035   6.579  10.428  0.7309  0.5547 -1.7796
  262MOL0     H35355   8.210   6.427  10.548  2.8875 -0.7182 -0.0594
  262MOL0     H35356   8.565   6.318  10.689  2.2629  3.3690  0.4113
  262MOL0     H35357   8.757   6.145  10.767  2.7417  1.9916  1.5499
  262MOL0     H35358   8.774   6.065  11.209  1.1608  2.6431  0.7353
  262MOL0     H35359   8.898   6.155  11.135  0.2331 -0.2928 -0.0563
  262MOL0     H35360   9.011   5.958  11.059 -0.0601  0.5344 -0.2372
  262MOL0     H35361   8.883   5.849  11.118 -0.7550  0.1890  3.0969
  262MOL0     H35362   8.948   5.860  11.341 -0.6944  2.1626  1.9906
  262MOL0     H35363   9.002   6.023  11.339 -2.3003 -1.2085  0.5450
  262MOL0     H35364   9.157   5.809  11.342  0.6703 -1.1798 -2.4508
  262MOL0     H35365   9.150   5.810  11.171  1.3901 -1.1366  0.1187
  262MOL0     H35366   9.380   6.152  11.183  0.4789 -0.9824  0.3744
  262MOL0     H35367   8.612   6.220  11.160 -3.8335 -0.8575 -0.0898
  262MOL0     H35368   8.334   6.413  11.110 -0.1343 -0.8688  1.8632
  262MOL0     H35369   8.441   6.327  11.222  0.1608 -1.5105 -0.5442
  262MOL0     H35370   8.467   6.502  11.165 -0.7330  0.2389 -0.1359
  263MOL0     O35371   5.791   9.440   1.154  0.0409  0.2438 -0.2489
  263MOL0     C35372   5.785   9.522   1.246  0.5333  0.1264 -0.2921
  263MOL0     O35373   5.862   9.528   1.357  0.1138  0.2490  0.9168
  263MOL0     C35374   5.986   9.468   1.376  0.7072  0.3708 -0.1562
  263MOL0     C35375   6.057   9.369   1.301 -0.0824 -0.3747 -0.1699
  263MOL0     C35376   6.181   9.323   1.351 -0.0424  0.8982  0.6125
  263MOL0     C35377   6.226   9.347   1.480 -0.5065  0.3589  0.4308
  263MOL0     O35378   6.345   9.299   1.527  0.7756  0.2462  0.1832
  263MOL0     C35379   6.387   9.169   1.488 -0.5107  0.0649 -0.6785
  263MOL0     C35380   6.521   9.141   1.571 -0.5037  0.7792 -0.3721
  263MOL0     C35381   6.644   9.243   1.544  0.4775 -0.1395 -0.1783
  263MOL0     C35382   6.703   9.204   1.400  0.2321  0.3391 -0.4416
  263MOL0     C35383   6.839   9.270   1.387 -0.1969 -0.2613 -0.4502
  263MOL0     C35384   6.837   9.426   1.394  0.8061 -0.2325  0.2107
  263MOL0     C35385   6.974   9.477   1.355 -0.2389  0.2882  0.7367
  263MOL0     C35386   6.982   9.633   1.381  0.9146  0.5316  0.2902
  263MOL0     N35387   7.109   9.696   1.374  0.3364 -0.4865  0.1647
  263MOL0     C35388   7.223   9.690   1.446 -0.7198 -0.3630  0.6506
  263MOL0     C35389   7.303   9.788   1.391  0.1362 -0.3218 -0.9410
  263MOL0     C35390   7.428   9.842   1.464  0.2764  0.6878 -0.2759
  263MOL0     C35391   7.542   9.727   1.440  0.1573 -0.1690  0.5028
  263MOL0     C35392   7.588   9.735   1.298 -0.2068  0.7755 -0.2898
  263MOL0     C35393   7.688   9.619   1.257 -0.0895  0.1230  0.2452
  263MOL0     O35394   7.804   9.627   1.357  0.5989  0.2815 -0.4372
  263MOL0     C35395   7.923   9.610   1.284  0.4911  0.1431 -0.2006
  263MOL0     C35396   8.006   9.517   1.343 -0.8608  0.6410 -0.7919
  263MOL0     C35397   8.132   9.485   1.298  0.4904  0.1351  0.9084
  263MOL0     C35398   8.184   9.559   1.183  0.3903  0.1849  0.1452
  263MOL0     C35399   8.325   9.561   1.148  0.0169 -0.0697  0.0245
  263MOL0     O35400   8.398   9.502   1.244 -0.4002 -0.6120  0.4881
  263MOL0     C35401   8.537   9.508   1.246 -0.6364 -0.3039 -0.9019
  263MOL0     C35402   8.596   9.550   1.357 -0.8390  0.1547  0.6315
  263MOL0     C35403   8.731   9.560   1.362 -0.3993  0.4381  0.2150
  263MOL0     C35404   8.808   9.546   1.239  0.3212  0.6302 -0.2683
  263MOL0     O35405   8.941   9.569   1.239  0.0889  0.0424  0.1743
  263MOL0     C35406   9.007   9.619   1.355  0.2521 -0.5890  0.0195
  263MOL0     C35407   8.990   9.768   1.389  0.0813 -0.2294 -0.2585
  263MOL0     C35408   9.069   9.803   1.518 -0.2996 -0.3177  0.3600
  263MOL0     C35409   8.987   9.790   1.647 -0.0472  0.6406  0.5929
  263MOL0     C35410   9.054   9.702   1.748 -0.7556  0.0406 -0.8421
  263MOL0     C35411   8.962   9.631   1.841  0.2672 -0.4982 -0.4221
  263MOL0     C35412   9.031   9.512   1.914  0.0267 -0.2434  0.5722
  263MOL0     C35413   9.142   9.545   2.014 -0.2402 -0.3126  0.4715
  263MOL0    Cl35414   9.076   9.647   2.141 -0.3006 -0.4668  0.1315
  263MOL0     C35415   8.749   9.514   1.120 -0.5889  0.2695 -0.9496
  263MOL0     C35416   8.614   9.487   1.132  0.5899 -0.4425 -0.4575
  263MOL0     O35417   8.365   9.625   1.054 -0.5217  0.2992  0.0246
  263MOL0     C35418   8.098   9.649   1.119  0.2984 -0.1838 -0.3051
  263MOL0     C35419   7.969   9.681   1.170 -0.6346  0.0530 -0.2596
  263MOL0     N35420   7.242   9.837   1.276  0.3342 -0.2616  0.2785
  263MOL0     N35421   7.135   9.774   1.270 -0.9602 -0.0084 -0.3268
  263MOL0     C35422   6.158   9.449   1.549  0.3447 -1.0303  0.3408
  263MOL0     C35423   6.042   9.499   1.499  0.5627  0.0811 -0.6923
  263MOL0     C35424   5.667   9.611   1.232 -0.2608 -0.2486  0.1484
  263MOL0     C35425   5.600   9.625   1.110  0.4025 -0.1306 -0.2485
  263MOL0     C35426   5.513   9.720   1.085 -0.2858  0.1951  0.3868
  263MOL0     C35427   5.472   9.810   1.181 -0.6868  0.7496  0.5826
  263MOL0     O35428   5.368   9.900   1.175  0.3241 -0.1084 -0.0440
  263MOL0     C35429   5.281   9.905   1.063  0.5449  0.7939 -0.6528
  263MOL0     C35430   5.340   9.983   0.942  0.1714 -0.1674  0.5786
  263MOL0     C35431   5.240  10.048   0.854  0.6427  0.3375 -0.5662
  263MOL0     C35432   5.136   9.948   0.803  0.0037  0.3194 -1.1579
  263MOL0     C35433   5.139   9.943   0.661 -0.2345  1.1119 -1.1029
  263MOL0     C35434   5.145   9.937   0.540 -0.3785 -0.8653  0.5995
  263MOL0     C35435   5.539   9.802   1.301  0.7297  0.3467  0.1581
  263MOL0     C35436   5.636   9.701   1.330  0.0354  0.2460 -0.0050
  263MOL0     C35437   5.698   9.722   1.472  0.0382  0.2448 -0.0211
  263MOL0     H35438   6.038   9.327   1.202  2.0167 -2.9929  0.4250
  263MOL0     H35439   6.242   9.257   1.289  1.5549  2.0730  0.8636
  263MOL0     H35440   6.308   9.096   1.507 -0.6182  0.4602  0.4603
  263MOL0     H35441   6.408   9.167   1.381 -3.5829  1.1435 -1.4029
  263MOL0     H35442   6.556   9.039   1.554  4.0137  2.0522 -0.1415
  263MOL0     H35443   6.492   9.156   1.675  0.7329  2.6986 -0.2479
  263MOL0     H35444   6.720   9.237   1.622  0.0514 -0.7299  0.2049
  263MOL0     H35445   6.615   9.347   1.531  2.0131 -0.0555 -4.5014
  263MOL0     H35446   6.711   9.097   1.381 -2.3529 -0.4793  2.3470
  263MOL0     H35447   6.638   9.244   1.321  0.9279 -0.8395 -1.6558
  263MOL0     H35448   6.897   9.227   1.469 -1.1040 -1.6348 -0.5030
  263MOL0     H35449   6.875   9.223   1.295  1.9900 -2.3258  1.3208
  263MOL0     H35450   6.762   9.456   1.320  0.1619 -1.0806  0.5017
  263MOL0     H35451   6.803   9.469   1.489  2.3747  0.7890  0.3381
  263MOL0     H35452   6.998   9.462   1.250  0.0347  0.5175  0.7645
  263MOL0     H35453   7.050   9.435   1.421 -1.9694 -1.1325  1.9082
  263MOL0     H35454   6.921   9.668   1.297  3.1216 -0.6522 -1.9580
  263MOL0     H35455   6.926   9.660   1.471 -0.1945 -1.3057  0.2060
  263MOL0     H35456   7.244   9.648   1.544  1.4253  1.2230  0.9493
  263MOL0     H35457   7.453   9.937   1.416 -0.7961  0.5156 -1.2468
  263MOL0     H35458   7.413   9.858   1.571  1.2018  1.0740 -0.2020
  263MOL0     H35459   7.629   9.752   1.501  0.0222 -2.8094  1.9241
  263MOL0     H35460   7.509   9.626   1.466 -0.9977 -0.4595 -1.7882
  263MOL0     H35461   7.644   9.828   1.284  2.3459 -0.0643  3.0155
  263MOL0     H35462   7.507   9.729   1.225 -1.3078  0.6050  0.9185
  263MOL0     H35463   7.722   9.639   1.155  0.9283  0.2228  0.5842
  263MOL0     H35464   7.643   9.521   1.274  2.5827 -0.4952  7.4287
  263MOL0     H35465   7.973   9.459   1.428  0.3366 -1.5193 -1.7117
  263MOL0     H35466   8.186   9.411   1.356  2.4033  1.8460  1.3909
  263MOL0     H35467   8.534   9.575   1.442 -0.5947 -1.7142  1.4030
  263MOL0     H35468   8.782   9.580   1.456  0.6452  4.1505 -0.9504
  263MOL0     H35469   8.979   9.560   1.442 -1.7334  1.5453  0.9118
  263MOL0     H35470   9.115   9.602   1.351  0.8476  1.9182  2.1946
  263MOL0     H35471   9.038   9.829   1.312  0.8302 -1.3996 -0.7466
  263MOL0     H35472   8.885   9.800   1.395  0.9662  2.7932  0.4029
  263MOL0     H35473   9.156   9.737   1.532 -1.2197 -1.2766  1.8004
  263MOL0     H35474   9.106   9.904   1.499 -1.2271  0.3158  1.7803
  263MOL0     H35475   8.896   9.740   1.613 -0.2246  1.0377  0.4712
  263MOL0     H35476   8.958   9.880   1.703  2.9939  0.2210  3.0966
  263MOL0     H35477   9.127   9.765   1.799 -2.7338  1.6914  0.1220
  263MOL0     H35478   9.110   9.625   1.696  0.7392 -0.0886  0.8751
  263MOL0     H35479   8.914   9.704   1.908 -2.5952 -3.8021  1.4808
  263MOL0     H35480   8.876   9.597   1.783  1.3708 -0.3551 -2.1964
  263MOL0     H35481   9.057   9.431   1.846 -0.5688  0.3153 -0.3405
  263MOL0     H35482   8.952   9.468   1.976 -1.8289  2.3860  0.2459
  263MOL0     H35483   9.170   9.449   2.058 -0.7868 -1.0286 -0.6876
  263MOL0     H35484   9.232   9.598   1.981 -0.1757  0.1248  1.3320
  263MOL0     H35485   8.799   9.510   1.024 -2.8906 -1.8143 -2.1669
  263MOL0     H35486   8.561   9.452   1.044  1.8815  0.6046 -1.7062
  263MOL0     H35487   8.130   9.697   1.027  0.1826  0.2184 -0.1420
  263MOL0     H35488   7.899   9.752   1.128 -2.2211 -2.2160 -1.7151
  263MOL0     H35489   6.192   9.466   1.650  0.1188 -3.4606  0.8840
  263MOL0     H35490   5.981   9.557   1.568  4.6665 -0.2819  3.8252
  263MOL0     H35491   5.614   9.565   1.020 -1.4864  0.9910 -1.3492
  263MOL0     H35492   5.469   9.695   0.989  2.2525 -3.2102 -0.0835
  263MOL0     H35493   5.188   9.959   1.085  2.0660  2.6363  1.7172
  263MOL0     H35494   5.258   9.804   1.028 -3.0539  1.1994  0.1439
  263MOL0     H35495   5.386   9.904   0.881 -1.7493 -0.9859  0.1131
  263MOL0     H35496   5.413  10.061   0.964  0.0207  0.9408 -2.4333
  263MOL0     H35497   5.281  10.097   0.764  0.1906  1.8325  0.0085
  263MOL0     H35498   5.196  10.124   0.918 -0.4130 -0.6625 -0.0745
  263MOL0     H35499   5.153   9.845   0.835 -2.5837  0.5513  1.3553
  263MOL0     H35500   5.037   9.973   0.843  0.1121 -0.1564 -0.5776
  263MOL0     H35501   5.128   9.932   0.434 -0.0536  3.6693  0.1580
  263MOL0     H35502   5.504   9.879   1.369  1.8920  0.3792  0.7448
  263MOL0     H35503   5.782   9.791   1.460 -0.4929  0.4854 -3.3271
  263MOL0     H35504   5.615   9.768   1.527 -0.5712 -1.7507  0.8319
  263MOL0     H35505   5.720   9.633   1.532 -2.2258  0.6848  1.5922
  264MOL0     O35506   3.892   3.602  10.016 -0.1153  0.0617 -0.6092
  264MOL0     C35507   3.945   3.555  10.114 -0.1895 -0.8371  0.0463
  264MOL0     O35508   3.913   3.430  10.167  0.1414  0.0080 -0.1767
  264MOL0     C35509   3.799   3.376  10.108 -0.2074  0.5364  0.1474
  264MOL0     C35510   3.822   3.297   9.995 -0.1964 -0.1966 -0.0709
  264MOL0     C35511   3.715   3.233   9.935  0.6609 -0.2055  0.6920
  264MOL0     C35512   3.586   3.240   9.985 -0.6185 -0.2788  0.1544
  264MOL0     O35513   3.471   3.180   9.929 -0.1206  0.0047 -0.1151
  264MOL0     C35514   3.486   3.128   9.791 -0.0412  1.1042 -0.3838
  264MOL0     C35515   3.336   3.089   9.741 -0.4049 -0.5266  0.0224
  264MOL0     C35516   3.293   2.953   9.801 -0.7103  0.0160 -0.1146
  264MOL0     C35517   3.145   2.945   9.810 -0.2792  0.1346 -0.1655
  264MOL0     C35518   3.083   2.824   9.884 -0.3146  0.1506  0.2100
  264MOL0     C35519   3.101   2.696   9.801 -0.2195  0.3390  0.0717
  264MOL0     C35520   3.072   2.583   9.901 -0.1088  0.1743  0.8556
  264MOL0     C35521   3.117   2.448   9.852 -1.3144  0.2701 -0.4105
  264MOL0     N35522   3.081   2.401   9.722 -0.1679  0.0865  0.1174
  264MOL0     C35523   2.960   2.360   9.681  0.3560  0.6707  0.1353
  264MOL0     C35524   2.961   2.355   9.545 -0.0670 -0.0866 -0.5012
  264MOL0     C35525   2.841   2.321   9.460 -0.2194  0.7468  0.1608
  264MOL0     C35526   2.862   2.362   9.318  0.8082 -0.1859 -0.0564
  264MOL0     C35527   2.723   2.376   9.242  0.5102 -0.9105 -0.8620
  264MOL0     C35528   2.733   2.395   9.086  0.3032 -0.0128 -0.8829
  264MOL0     O35529   2.797   2.519   9.069  0.5628 -0.0764  0.1014
  264MOL0     C35530   2.850   2.564   8.948  0.1658 -0.0613  0.2198
  264MOL0     C35531   2.919   2.684   8.952  0.4108 -0.5214  0.7951
  264MOL0     C35532   2.999   2.726   8.839 -0.4587  0.4081 -0.7560
  264MOL0     C35533   2.993   2.649   8.720 -0.2364  0.3657 -0.1604
  264MOL0     C35534   3.078   2.691   8.599 -0.2339  0.2285  0.2003
  264MOL0     O35535   3.078   2.606   8.483  0.2247  0.5361 -1.4280
  264MOL0     C35536   3.178   2.627   8.392 -0.2938 -0.9258 -0.2574
  264MOL0     C35537   3.198   2.754   8.325  0.6516  1.4088 -0.3518
  264MOL0     C35538   3.309   2.760   8.245  0.1241  0.2547  0.9803
  264MOL0     C35539   3.411   2.656   8.242  0.5412 -0.2093  1.0589
  264MOL0     O35540   3.521   2.674   8.166 -0.4215 -0.5290 -0.0806
  264MOL0     C35541   3.637   2.670   8.247 -0.5844 -0.0543  0.8531
  264MOL0     C35542   3.745   2.768   8.195 -0.3721  0.9367 -0.1820
  264MOL0     C35543   3.765   2.741   8.040 -0.0575 -0.1203  0.2772
  264MOL0     C35544   3.884   2.816   7.986  0.6932 -0.4108 -0.3909
  264MOL0     C35545   4.030   2.765   8.030  0.8063 -0.2499  0.1799
  264MOL0     C35546   4.069   2.625   7.979 -0.0500 -0.6060 -0.0529
  264MOL0     C35547   4.221   2.596   7.996 -0.1063  0.5043  1.0038
  264MOL0     C35548   4.251   2.458   7.918  0.1043 -0.2158 -0.1145
  264MOL0    Cl35549   4.193   2.311   8.027  0.0329 -0.0684  0.2352
  264MOL0     C35550   3.379   2.532   8.292 -0.7030 -0.0967  0.7756
  264MOL0     C35551   3.262   2.520   8.360 -0.6816  0.0998  0.4205
  264MOL0     O35552   3.155   2.789   8.616 -0.7683 -0.3897  0.3225
  264MOL0     C35553   2.913   2.529   8.717 -0.5876  0.3751  0.5796
  264MOL0     C35554   2.847   2.490   8.829  1.2958 -0.1524  0.5918
  264MOL0     N35555   3.087   2.404   9.508  0.6512  0.1609  0.3989
  264MOL0     N35556   3.161   2.414   9.615 -0.4770 -0.7400 -0.5820
  264MOL0     C35557   3.568   3.322  10.099  0.3444  0.2437  0.0600
  264MOL0     C35558   3.672   3.382  10.171  0.9337  0.0773  0.2238
  264MOL0     C35559   4.057   3.642  10.174  0.6127 -0.8253  0.8519
  264MOL0     C35560   4.114   3.596  10.301  0.1625 -0.1170  0.6667
  264MOL0     C35561   4.216   3.666  10.375  0.3027  0.3510 -0.4359
  264MOL0     C35562   4.249   3.796  10.332 -0.9442  0.0070  0.4279
  264MOL0     O35563   4.340   3.881  10.399  0.5110 -0.3158 -0.3017
  264MOL0     C35564   4.408   3.835  10.512  0.6333  0.2993 -0.5200
  264MOL0     C35565   4.481   3.952  10.572 -0.6779  0.1921  0.0480
  264MOL0     C35566   4.588   3.995  10.480  0.7065  0.5829 -0.0855
  264MOL0     C35567   4.655   4.126  10.516 -1.4473 -0.2291 -0.0638
  264MOL0     C35568   4.557   4.234  10.517 -0.5145  0.6962 -0.3707
  264MOL0     C35569   4.473   4.321  10.521  0.3237 -0.3479 -0.7063
  264MOL0     C35570   4.195   3.837  10.209  0.2743 -0.7542 -0.4362
  264MOL0     C35571   4.106   3.765  10.129  0.5062 -0.6234  0.1508
  264MOL0     C35572   4.044   3.846  10.009  0.0335  0.0072  0.1932
  264MOL0     H35573   3.918   3.290   9.946  1.6352  0.3447  3.1662
  264MOL0     H35574   3.722   3.198   9.832 -1.7953 -0.9375  0.7241
  264MOL0     H35575   3.524   3.207   9.725  1.3146  0.8857  0.1140
  264MOL0     H35576   3.542   3.034   9.802 -1.4618  0.1536 -0.9527
  264MOL0     H35577   3.325   3.084   9.633 -0.5591 -1.2281  0.0650
  264MOL0     H35578   3.258   3.164   9.754 -1.8513 -2.1408  1.0842
  264MOL0     H35579   3.329   2.956   9.904  2.2139 -0.7610 -1.0300
  264MOL0     H35580   3.332   2.869   9.743 -0.8040 -1.2472  1.5951
  264MOL0     H35581   3.101   3.031   9.861  0.6787 -0.1056  1.1449
  264MOL0     H35582   3.102   2.946   9.710 -0.8832  2.0079  0.0834
  264MOL0     H35583   3.110   2.825   9.990 -0.8590 -1.7432  0.4028
  264MOL0     H35584   2.974   2.837   9.886 -0.0223  4.1949 -0.3998
  264MOL0     H35585   3.027   2.700   9.721  0.4549  0.4750 -0.5555
  264MOL0     H35586   3.195   2.693   9.745  1.0264 -0.9973  2.0928
  264MOL0     H35587   2.963   2.580   9.914 -0.3524 -1.1952 -0.9163
  264MOL0     H35588   3.118   2.622   9.992  0.8132 -3.1919  2.0007
  264MOL0     H35589   3.225   2.460   9.847 -1.3755  0.2782 -2.4131
  264MOL0     H35590   3.083   2.370   9.921 -0.7024 -0.3691 -0.8118
  264MOL0     H35591   2.883   2.315   9.744  2.7450 -0.6820  2.2612
  264MOL0     H35592   2.824   2.213   9.458 -1.8748  0.9859  0.0185
  264MOL0     H35593   2.750   2.369   9.498 -3.2069 -2.4480 -2.2981
  264MOL0     H35594   2.927   2.450   9.311  2.3592 -1.2537  0.4716
  264MOL0     H35595   2.907   2.287   9.252 -1.3495 -1.2679 -0.3977
  264MOL0     H35596   2.677   2.457   9.300  1.0324 -1.4734  0.3851
  264MOL0     H35597   2.655   2.294   9.268 -0.9143  1.0202  2.1109
  264MOL0     H35598   2.638   2.380   9.034  1.0751 -1.8244 -1.8838
  264MOL0     H35599   2.796   2.314   9.047  0.0276  0.1131 -1.6057
  264MOL0     H35600   2.927   2.723   9.053  0.1328  2.6988 -0.3214
  264MOL0     H35601   3.058   2.816   8.846 -1.5585  1.1486 -0.7321
  264MOL0     H35602   3.143   2.844   8.350 -1.6675  0.0496 -0.2951
  264MOL0     H35603   3.339   2.849   8.190  0.9293 -0.0721  0.8803
  264MOL0     H35604   3.620   2.691   8.353 -0.7079  0.3729  0.7536
  264MOL0     H35605   3.686   2.573   8.234  0.2940  0.7400 -2.9328
  264MOL0     H35606   3.721   2.873   8.212 -0.7096  0.4649  2.6304
  264MOL0     H35607   3.834   2.732   8.247  1.0581  0.4784 -2.7819
  264MOL0     H35608   3.772   2.634   8.021  0.0910 -0.0191 -0.2639
  264MOL0     H35609   3.687   2.791   7.982  1.4068  0.0183 -1.7050
  264MOL0     H35610   3.870   2.923   8.004 -0.2980 -0.8779  2.0457
  264MOL0     H35611   3.898   2.800   7.878  0.3606  2.9594 -1.0337
  264MOL0     H35612   4.035   2.770   8.139 -1.8751  2.3555  0.2923
  264MOL0     H35613   4.113   2.824   7.990 -0.1164 -0.2341 -1.8440
  264MOL0     H35614   4.018   2.540   8.027 -2.6673  0.2366 -1.1868
  264MOL0     H35615   4.040   2.620   7.874 -0.8527 -0.7241  0.1628
  264MOL0     H35616   4.246   2.573   8.100 -2.5685 -1.1228  1.3176
  264MOL0     H35617   4.287   2.670   7.951  1.1062 -1.9176 -1.4277
  264MOL0     H35618   4.202   2.468   7.821  1.2956  2.9484 -0.5285
  264MOL0     H35619   4.358   2.446   7.899  0.1286  1.2389 -1.0751
  264MOL0     H35620   3.438   2.441   8.298 -0.1619  0.1379 -0.5749
  264MOL0     H35621   3.252   2.417   8.395  0.8025 -0.4716 -0.7574
  264MOL0     H35622   2.917   2.463   8.632  0.2172  0.1141  0.8050
  264MOL0     H35623   2.800   2.393   8.817  1.9202 -0.3671 -0.1749
  264MOL0     H35624   3.471   3.331  10.147  0.8419  0.3542  1.0721
  264MOL0     H35625   3.648   3.438  10.261 -3.2801 -0.2725 -0.4699
  264MOL0     H35626   4.066   3.510  10.346 -2.7291  0.5652 -0.8701
  264MOL0     H35627   4.248   3.624  10.470  0.9426 -1.3851 -1.3631
  264MOL0     H35628   4.474   3.757  10.475 -0.9400 -1.9728  1.2129
  264MOL0     H35629   4.351   3.785  10.590  0.4549  0.9021 -0.2563
  264MOL0     H35630   4.524   3.919  10.667  2.1823 -1.6134 -1.7441
  264MOL0     H35631   4.411   4.034  10.594  0.5388  1.1415  0.4736
  264MOL0     H35632   4.544   4.007  10.381 -0.4384  4.1210  0.7096
  264MOL0     H35633   4.666   3.918  10.471  0.0604 -0.1462  0.4265
  264MOL0     H35634   4.701   4.118  10.614  0.3795 -1.3115 -0.9551
  264MOL0     H35635   4.739   4.144  10.447 -0.2615  0.5730  1.5331
  264MOL0     H35636   4.421   4.415  10.517  0.1880 -0.4420 -1.1523
  264MOL0     H35637   4.242   3.927  10.170 -2.0300  1.6355  1.8846
  264MOL0     H35638   4.075   3.951  10.009 -1.7136  0.6007  2.8926
  264MOL0     H35639   4.043   3.789   9.915  2.2568 -0.3464  0.3210
  264MOL0     H35640   3.939   3.871  10.024  0.5728  0.8407  3.2165
  265MOL0     O35641   0.891   3.943   3.228 -0.6176  0.6646 -0.4907
  265MOL0     C35642   0.792   4.007   3.252  0.1565 -0.3622  0.4462
  265MOL0     O35643   0.790   4.139   3.294  0.7916 -0.4444 -0.4007
  265MOL0     C35644   0.902   4.226   3.297  0.5882  1.0461 -0.1693
  265MOL0     C35645   0.867   4.365   3.309  0.1086  0.4346  0.1361
  265MOL0     C35646   0.969   4.467   3.307 -0.1146 -0.5874  0.3268
  265MOL0     C35647   1.102   4.433   3.308 -0.5466 -0.2236 -0.4656
  265MOL0     O35648   1.192   4.533   3.330 -0.3837  0.4938 -0.4279
  265MOL0     C35649   1.327   4.507   3.384  0.4272 -0.1277 -0.3054
  265MOL0     C35650   1.335   4.579   3.516 -0.3710 -0.4440 -0.2999
  265MOL0     C35651   1.333   4.733   3.498  1.2612  0.2564 -0.5904
  265MOL0     C35652   1.339   4.806   3.635 -0.8488 -0.1107  0.4960
  265MOL0     C35653   1.351   4.956   3.639  0.3960  0.1802  0.6922
  265MOL0     C35654   1.230   5.030   3.568  0.1667 -0.1211  0.2683
  265MOL0     C35655   1.237   5.046   3.415 -1.2550  0.4987  0.6131
  265MOL0     C35656   1.101   5.093   3.349  0.3374  1.2254 -1.2922
  265MOL0     N35657   1.021   4.980   3.326 -0.3449  0.1530 -0.3698
  265MOL0     C35658   0.948   4.898   3.408  0.8182 -0.0001 -0.2135
  265MOL0     C35659   0.867   4.843   3.319 -0.1922 -0.5134  0.4104
  265MOL0     C35660   0.746   4.759   3.353 -1.3891  0.5488  0.0195
  265MOL0     C35661   0.630   4.837   3.415 -0.0465  0.1394 -0.0645
  265MOL0     C35662   0.528   4.898   3.315 -0.3068 -0.3265  0.0307
  265MOL0     C35663   0.441   4.989   3.401 -0.3065  0.1626  0.2817
  265MOL0     O35664   0.321   5.026   3.326  0.3363  0.7264 -0.6310
  265MOL0     C35665   0.207   4.940   3.341  0.2624 -0.6491  0.3091
  265MOL0     C35666   0.096   4.981   3.266 -0.1259 -1.5153 -1.2903
  265MOL0     C35667  -0.023   4.917   3.283 -1.2913  0.4578 -0.3080
  265MOL0     C35668  -0.032   4.794   3.359  0.2357 -0.7265 -0.1137
  265MOL0     C35669  -0.151   4.708   3.354  0.1621  0.5426  0.5351
  265MOL0     O35670  -0.143   4.581   3.385 -0.1389  0.1188  0.1001
  265MOL0     C35671  -0.258   4.503   3.385  0.4921 -0.0697  0.6748
  265MOL0     C35672  -0.372   4.526   3.464 -0.4646  0.8569 -0.6835
  265MOL0     C35673  -0.485   4.446   3.458 -0.8460  0.2331  0.2322
  265MOL0     C35674  -0.486   4.328   3.378 -0.5278 -0.7781  0.2386
  265MOL0     O35675  -0.595   4.245   3.390  0.3763  0.2491 -0.5684
  265MOL0     C35676  -0.685   4.276   3.288  0.0482 -0.0628  0.6455
  265MOL0     C35677  -0.824   4.217   3.326  0.3165  0.0621 -0.3756
  265MOL0     C35678  -0.930   4.242   3.213 -0.3440 -0.3755 -0.5273
  265MOL0     C35679  -1.067   4.248   3.266  0.0649 -0.0612 -1.0361
  265MOL0     C35680  -1.162   4.309   3.170  1.2452 -0.0800 -0.2152
  265MOL0     C35681  -1.312   4.306   3.215 -0.0220  0.0265 -0.8638
  265MOL0     C35682  -1.373   4.164   3.221 -0.2833 -0.0958  0.3455
  265MOL0     C35683  -1.406   4.119   3.077 -0.1418 -0.3993 -1.3882
  265MOL0    Cl35684  -1.553   4.017   3.078 -0.3986  0.1799  0.0622
  265MOL0     C35685  -0.375   4.316   3.298 -0.0057 -0.8645  0.5792
  265MOL0     C35686  -0.264   4.402   3.300  0.6077 -0.1291  0.2755
  265MOL0     O35687  -0.259   4.766   3.326 -0.0698 -0.2656 -0.1909
  265MOL0     C35688   0.082   4.746   3.428  0.6817  0.5877  0.9931
  265MOL0     C35689   0.202   4.817   3.421  0.5728  0.0525  0.1952
  265MOL0     N35690   0.887   4.886   3.189  0.3111 -0.3648 -0.4801
  265MOL0     N35691   0.989   4.961   3.196  0.7397  0.2063  0.2683
  265MOL0     C35692   1.132   4.303   3.284  0.1304  0.2172  1.3014
  265MOL0     C35693   1.039   4.204   3.270  0.0338  0.1695 -0.2898
  265MOL0     C35694   0.655   3.945   3.256  0.0765  0.0462 -0.0780
  265MOL0     C35695   0.554   4.021   3.318  0.1846  0.7105  0.4441
  265MOL0     C35696   0.422   3.973   3.313 -0.3890  0.2189 -0.7654
  265MOL0     C35697   0.389   3.847   3.258  0.1327  0.0931  1.1257
  265MOL0     O35698   0.264   3.800   3.243  0.4394 -0.6225 -0.3389
  265MOL0     C35699   0.221   3.685   3.159  0.1874  0.1412  0.9603
  265MOL0     C35700   0.237   3.567   3.254 -0.2772 -0.1896 -0.2294
  265MOL0     C35701   0.238   3.440   3.185  0.5509  1.0066  0.2962
  265MOL0     C35702   0.312   3.321   3.247 -0.6159 -0.2439 -1.0094
  265MOL0     C35703   0.457   3.353   3.269  0.8043 -0.2322 -0.0304
  265MOL0     C35704   0.572   3.375   3.300  0.4277  0.0289 -0.2120
  265MOL0     C35705   0.500   3.767   3.216 -0.3515 -0.1248  0.1709
  265MOL0     C35706   0.637   3.809   3.215  0.2529  0.2955 -0.2960
  265MOL0     C35707   0.742   3.728   3.140  0.5951  0.5740  0.0601
  265MOL0     H35708   0.764   4.396   3.316  0.1743  1.1591 -1.5565
  265MOL0     H35709   0.936   4.570   3.313  2.0385  0.0628  2.1494
  265MOL0     H35710   1.339   4.400   3.403 -2.1029 -0.2125  1.2734
  265MOL0     H35711   1.402   4.540   3.311  0.4607  2.0035  0.6350
  265MOL0     H35712   1.438   4.557   3.546 -0.3892 -2.3575 -1.5380
  265MOL0     H35713   1.271   4.540   3.595 -3.2130  2.2779 -1.0544
  265MOL0     H35714   1.235   4.761   3.460  0.0019 -1.4377  1.2088
  265MOL0     H35715   1.416   4.766   3.435  0.1424 -0.8784 -2.7391
  265MOL0     H35716   1.262   4.768   3.703  1.1486 -1.3537  2.2065
  265MOL0     H35717   1.435   4.773   3.677 -1.6426 -0.9011  1.7545
  265MOL0     H35718   1.353   4.993   3.742  0.6752 -1.6762  1.3799
  265MOL0     H35719   1.446   4.981   3.592  0.8434 -0.0473  1.4551
  265MOL0     H35720   1.135   4.981   3.591  0.1839 -0.5607 -0.5641
  265MOL0     H35721   1.225   5.133   3.606  1.4259 -0.0677  0.3374
  265MOL0     H35722   1.268   4.955   3.362  0.4009  0.7580  1.0732
  265MOL0     H35723   1.314   5.119   3.390  0.0573 -0.5562  1.4071
  265MOL0     H35724   1.059   5.170   3.415  1.0262 -1.0846  2.1211
  265MOL0     H35725   1.134   5.153   3.264  0.1231  1.9974 -0.8411
  265MOL0     H35726   0.957   4.896   3.516 -0.8776  0.5755 -0.0339
  265MOL0     H35727   0.711   4.692   3.274 -2.3363  0.4523  0.5092
  265MOL0     H35728   0.779   4.686   3.427  0.6020  3.1786  1.9486
  265MOL0     H35729   0.578   4.773   3.486  1.2474 -0.7461  0.1203
  265MOL0     H35730   0.669   4.922   3.473 -0.5480  0.9631 -0.9077
  265MOL0     H35731   0.464   4.826   3.264 -1.9349  2.2021 -1.7660
  265MOL0     H35732   0.573   4.959   3.236  2.8481 -2.1718  0.2301
  265MOL0     H35733   0.498   5.080   3.422 -0.0468  0.3028 -0.9729
  265MOL0     H35734   0.407   4.944   3.495 -0.7087  0.6712  0.3846
  265MOL0     H35735   0.103   5.067   3.200  0.9794 -1.5199 -1.1962
  265MOL0     H35736  -0.109   4.960   3.231 -0.0465  1.8216 -1.3065
  265MOL0     H35737  -0.362   4.619   3.519  2.5190 -0.8286  1.9813
  265MOL0     H35738  -0.573   4.479   3.510 -1.3256  0.4712 -0.7133
  265MOL0     H35739  -0.694   4.385   3.276  0.6884 -0.1346 -0.7335
  265MOL0     H35740  -0.647   4.246   3.190 -0.0942 -1.5569  1.0236
  265MOL0     H35741  -0.810   4.109   3.340 -0.5218 -0.0992 -0.7307
  265MOL0     H35742  -0.864   4.262   3.417 -0.0153 -1.8755  0.4995
  265MOL0     H35743  -0.904   4.336   3.164 -2.1558 -0.0998 -0.9962
  265MOL0     H35744  -0.926   4.159   3.141  0.1398  0.2564 -1.2359
  265MOL0     H35745  -1.060   4.317   3.351  0.0708  1.9789 -2.6204
  265MOL0     H35746  -1.110   4.149   3.284  0.6085 -0.0509  0.4310
  265MOL0     H35747  -1.157   4.269   3.068 -1.7523 -1.1969 -0.0333
  265MOL0     H35748  -1.140   4.416   3.165 -1.8564  0.6401 -0.5659
  265MOL0     H35749  -1.317   4.361   3.310  0.3910 -0.8453 -0.3195
  265MOL0     H35750  -1.380   4.365   3.153 -2.7987 -0.8980  1.1021
  265MOL0     H35751  -1.472   4.174   3.267 -0.2821  0.1278  0.3029
  265MOL0     H35752  -1.315   4.092   3.279  0.2741  2.7195  3.5858
  265MOL0     H35753  -1.434   4.209   3.022  0.3213 -0.1709 -1.2580
  265MOL0     H35754  -1.320   4.067   3.033  1.3276  1.1109 -0.3955
  265MOL0     H35755  -0.360   4.232   3.231 -0.6130 -1.3235  1.0061
  265MOL0     H35756  -0.181   4.380   3.234 -0.3945  1.0802 -1.4860
  265MOL0     H35757   0.085   4.657   3.491  1.2024 -0.9164 -1.0306
  265MOL0     H35758   0.291   4.779   3.470  1.1625  1.3133  0.1416
  265MOL0     H35759   1.233   4.270   3.259 -0.7725 -1.0976 -0.9000
  265MOL0     H35760   1.070   4.106   3.233 -1.4825 -2.1069  3.7924
  265MOL0     H35761   0.582   4.114   3.367 -1.2805  0.1420  2.5016
  265MOL0     H35762   0.352   4.036   3.367  0.7021 -1.1949  2.5481
  265MOL0     H35763   0.273   3.679   3.063 -2.8286 -1.7585 -0.6946
  265MOL0     H35764   0.119   3.693   3.122  0.6423  0.2258 -0.3247
  265MOL0     H35765   0.150   3.563   3.321 -1.5517 -2.3823 -1.9037
  265MOL0     H35766   0.333   3.571   3.307 -0.6672  1.2933  0.4535
  265MOL0     H35767   0.284   3.456   3.088  4.2130  2.3370  2.0949
  265MOL0     H35768   0.137   3.405   3.159  1.0424  1.8628 -3.2179
  265MOL0     H35769   0.267   3.292   3.343  1.0509 -0.5326 -0.2715
  265MOL0     H35770   0.306   3.236   3.178  0.9355  1.2150 -3.0500
  265MOL0     H35771   0.665   3.391   3.351  0.0910  2.6971 -0.3043
  265MOL0     H35772   0.484   3.665   3.181 -1.3540 -0.7368  2.2224
  265MOL0     H35773   0.824   3.723   3.212 -0.6638 -1.8639  1.4730
  265MOL0     H35774   0.712   3.626   3.113  3.4471  0.0702 -1.5550
  265MOL0     H35775   0.765   3.784   3.049 -3.0116  2.0078 -0.1370
  266MOL0     O35776   9.607   7.798   8.146  0.0423 -0.0032 -0.0598
  266MOL0     C35777   9.549   7.888   8.087  1.2786  0.1682 -0.4900
  266MOL0     O35778   9.610   7.973   8.005 -0.2289 -0.4250  0.5621
  266MOL0     C35779   9.745   7.991   8.000  1.0858 -0.0502  0.4981
  266MOL0     C35780   9.835   7.889   7.989  0.0057  0.7122 -0.3964
  266MOL0     C35781   9.972   7.912   7.977  0.0402 -0.5524 -0.1132
  266MOL0     C35782  10.020   8.047   7.968 -0.0635  0.5696  0.2261
  266MOL0     O35783  10.156   8.086   7.979  0.3448 -1.0127  1.2210
  266MOL0     C35784  10.254   8.011   8.048 -2.1327 -0.5898  0.1337
  266MOL0     C35785  10.357   8.101   8.110  0.0730 -0.7000 -0.5137
  266MOL0     C35786  10.425   8.203   8.010  0.5242  0.0030  0.8406
  266MOL0     C35787  10.409   8.348   8.045  0.3323  0.6312  0.1279
  266MOL0     C35788  10.298   8.422   7.972  0.2744 -0.5238 -0.4971
  266MOL0     C35789  10.231   8.536   8.049  0.7126 -0.6059 -0.6154
  266MOL0     C35790  10.329   8.637   8.116 -1.0852 -0.5572  0.3176
  266MOL0     C35791  10.410   8.716   8.010 -0.6071 -0.5172 -0.1643
  266MOL0     N35792  10.515   8.793   8.081  0.8070 -0.0990 -0.4146
  266MOL0     C35793  10.639   8.794   8.029  0.5797 -0.7565 -0.3653
  266MOL0     C35794  10.719   8.848   8.124  0.0126  0.4515  0.1866
  266MOL0     C35795  10.873   8.848   8.123 -0.0977 -0.5103 -0.1034
  266MOL0     C35796  10.930   8.974   8.041  0.4849  0.1919 -0.4610
  266MOL0     C35797  11.080   8.947   8.034  0.2306  0.1945  0.8820
  266MOL0     C35798  11.143   9.041   7.929 -0.2685  0.7881  0.0015
  266MOL0     O35799  11.104   9.166   7.961 -0.4068 -0.5608  0.0769
  266MOL0     C35800  11.139   9.262   7.870  0.1392  0.3876  0.2889
  266MOL0     C35801  11.055   9.373   7.854 -0.6711  0.2841 -0.2340
  266MOL0     C35802  11.096   9.490   7.785  0.2730 -0.6940  0.3261
  266MOL0     C35803  11.225   9.496   7.727 -0.5684  0.7885  0.1823
  266MOL0     C35804  11.270   9.631   7.663 -0.8916  0.0431 -0.6589
  266MOL0     O35805  11.411   9.643   7.639  0.2816  0.4813 -0.3908
  266MOL0     C35806  11.447   9.751   7.566 -0.9197  0.3397 -0.1631
  266MOL0     C35807  11.476   9.879   7.616  0.4144  0.3685  0.7746
  266MOL0     C35808  11.507   9.992   7.533 -1.2748  0.3430 -0.3090
  266MOL0     C35809  11.544   9.964   7.394  0.5741 -0.8507  0.4304
  266MOL0     O35810  11.597  10.055   7.302  0.3724 -0.3312  0.5017
  266MOL0     C35811  11.687  10.145   7.356  0.5176 -0.1586  0.1545
  266MOL0     C35812  11.795  10.182   7.263  0.6405  0.4304 -0.3734
  266MOL0     C35813  11.901  10.074   7.226  0.7869 -0.9948  1.1254
  266MOL0     C35814  11.836   9.965   7.148  0.6673 -0.2720  0.2969
  266MOL0     C35815  11.777  10.004   7.018  0.3167 -0.6868  0.3660
  266MOL0     C35816  11.719   9.886   6.942 -0.0913  0.4472  0.0106
  266MOL0     C35817  11.689   9.919   6.796 -0.0831 -0.0331 -0.3500
  266MOL0     C35818  11.544   9.943   6.769 -0.5240 -0.1745  0.4810
  266MOL0    Cl35819  11.428   9.813   6.833  0.2351 -0.1463 -0.2017
  266MOL0     C35820  11.522   9.830   7.348 -0.3623 -0.4891 -0.6319
  266MOL0     C35821  11.482   9.732   7.435 -0.6113 -0.2448  0.5275
  266MOL0     O35822  11.190   9.723   7.646  0.2143  0.7963 -0.7990
  266MOL0     C35823  11.308   9.385   7.742 -0.7519  0.3079  0.0651
  266MOL0     C35824  11.269   9.268   7.814 -0.4277  0.2085  0.1837
  266MOL0     N35825  10.639   8.893   8.230 -0.3660 -0.1999  0.1415
  266MOL0     N35826  10.524   8.836   8.213  0.5018  0.6550  0.6398
  266MOL0     C35827   9.928   8.138   7.947  0.3219 -0.1870  0.6901
  266MOL0     C35828   9.794   8.119   7.976 -0.6766  0.1483 -0.1714
  266MOL0     C35829   9.394   7.894   8.107 -0.3545 -0.8992  0.1427
  266MOL0     C35830   9.334   7.798   8.190  0.3462 -1.1284 -0.2170
  266MOL0     C35831   9.198   7.803   8.202 -0.3849  0.3711 -0.0368
  266MOL0     C35832   9.116   7.908   8.158  0.5672  0.9204  0.7439
  266MOL0     O35833   8.983   7.912   8.195 -0.2848 -0.7610  0.5150
  266MOL0     C35834   8.898   7.804   8.165  0.8472  0.3146  0.9770
  266MOL0     C35835   8.818   7.823   8.043 -0.4545 -1.1629 -0.0060
  266MOL0     C35836   8.718   7.936   8.057 -0.4011 -0.1355 -0.5232
  266MOL0     C35837   8.617   7.934   7.943 -0.1811  0.1305  0.4058
  266MOL0     C35838   8.671   7.905   7.810 -0.1713 -0.9008 -0.1271
  266MOL0     C35839   8.695   7.860   7.699 -0.9027 -0.2128  0.6617
  266MOL0     C35840   9.173   8.010   8.088  0.0152  0.2717  0.2719
  266MOL0     C35841   9.308   8.000   8.051 -0.1282  0.3975  0.4038
  266MOL0     C35842   9.363   8.117   7.971 -0.0654  0.1753  0.0059
  266MOL0     H35843   9.789   7.792   8.004  0.4560  0.5264 -0.1710
  266MOL0     H35844  10.047   7.833   7.980  0.1502 -0.4283  0.5595
  266MOL0     H35845  10.200   7.944   8.116 -3.1110 -0.0841 -0.1343
  266MOL0     H35846  10.319   7.950   7.984  0.6338  1.5385  0.7074
  266MOL0     H35847  10.434   8.042   8.161 -0.4715  0.4067  1.6802
  266MOL0     H35848  10.302   8.153   8.188  1.6126  2.7043 -1.5129
  266MOL0     H35849  10.388   8.178   7.910  3.1156  1.4230 -0.5789
  266MOL0     H35850  10.533   8.186   8.005  0.5431 -0.0955  1.4888
  266MOL0     H35851  10.390   8.357   8.153 -2.0160  3.1195 -0.4018
  266MOL0     H35852  10.500   8.404   8.022  0.9744 -0.1535  0.6786
  266MOL0     H35853  10.346   8.447   7.876 -0.3817  0.0182 -0.6933
  266MOL0     H35854  10.227   8.349   7.933 -0.5789  0.5955 -1.1248
  266MOL0     H35855  10.160   8.587   7.983  0.4421  0.1048  0.2085
  266MOL0     H35856  10.162   8.509   8.129 -1.8383  2.7714 -1.4606
  266MOL0     H35857  10.404   8.590   8.182  0.0752  0.3807 -0.2967
  266MOL0     H35858  10.277   8.715   8.171  0.8304 -0.1977  1.7516
  266MOL0     H35859  10.461   8.651   7.939  2.4339  1.7475 -0.2548
  266MOL0     H35860  10.347   8.779   7.947  0.2263 -1.0807 -1.6080
  266MOL0     H35861  10.665   8.740   7.939  1.5443 -1.0996  0.0964
  266MOL0     H35862  10.912   8.856   8.225  0.6776 -1.2067 -0.3351
  266MOL0     H35863  10.905   8.753   8.080  0.9630 -0.8811  1.3958
  266MOL0     H35864  10.877   8.980   7.946 -1.5873  0.3271  0.6521
  266MOL0     H35865  10.915   9.067   8.097  1.1010 -0.2653  0.5096
  266MOL0     H35866  11.095   8.843   8.004 -2.9425  0.1871 -1.1243
  266MOL0     H35867  11.138   8.957   8.126  0.3437  1.9630  0.6646
  266MOL0     H35868  11.105   9.018   7.829  1.0177 -1.3787 -0.0768
  266MOL0     H35869  11.250   9.016   7.931 -0.1602  1.2254 -0.2597
  266MOL0     H35870  10.958   9.362   7.900  0.0355  1.1768  1.5739
  266MOL0     H35871  11.033   9.579   7.795 -0.1355 -1.0028  0.5200
  266MOL0     H35872  11.480   9.895   7.723  0.4696 -0.9087  0.9753
  266MOL0     H35873  11.531  10.085   7.584 -1.6999 -0.2250  0.9706
  266MOL0     H35874  11.626  10.234   7.376  1.3075 -0.0892  2.5325
  266MOL0     H35875  11.724  10.109   7.452  1.2347 -0.7974 -0.3485
  266MOL0     H35876  11.748  10.219   7.171  0.8091  0.7746 -0.3230
  266MOL0     H35877  11.848  10.266   7.309  0.6387  0.1873  0.0754
  266MOL0     H35878  11.982  10.114   7.164  0.7701 -2.1938  0.2887
  266MOL0     H35879  11.943  10.027   7.315 -1.6116  0.7753  3.2951
  266MOL0     H35880  11.761   9.916   7.210  0.2458 -0.1230 -0.0880
  266MOL0     H35881  11.910   9.889   7.122  0.1255 -0.2720 -1.3298
  266MOL0     H35882  11.858  10.046   6.957 -0.5235 -1.9767 -1.7763
  266MOL0     H35883  11.696  10.076   7.033 -0.5067 -1.3515 -0.6917
  266MOL0     H35884  11.766   9.788   6.954 -2.6231 -0.8483  0.0300
  266MOL0     H35885  11.621   9.871   6.990 -1.1489  3.0419 -1.1441
  266MOL0     H35886  11.709   9.831   6.734  3.4009  1.9303 -2.3651
  266MOL0     H35887  11.758   9.997   6.762  2.3654 -1.2630  1.5041
  266MOL0     H35888  11.512  10.044   6.798 -2.0059 -0.6759  0.6693
  266MOL0     H35889  11.537   9.935   6.660  1.6034 -1.0161  0.3590
  266MOL0     H35890  11.545   9.812   7.243  0.0180 -0.3915 -0.5672
  266MOL0     H35891  11.467   9.631   7.398 -0.3579  0.1327 -0.6598
  266MOL0     H35892  11.402   9.393   7.688 -1.3930 -1.2249 -1.3724
  266MOL0     H35893  11.339   9.185   7.819  0.7511  1.2229  3.5506
  266MOL0     H35894   9.957   8.239   7.919 -0.3640  0.0699  0.8802
  266MOL0     H35895   9.719   8.197   7.966  0.5205  1.0480 -3.3112
  266MOL0     H35896   9.387   7.718   8.240  0.6468 -0.5761  0.3608
  266MOL0     H35897   9.147   7.725   8.259 -1.2197  2.0846  1.6511
  266MOL0     H35898   8.831   7.790   8.250 -0.1510  1.3653  0.3818
  266MOL0     H35899   8.952   7.709   8.155  1.5732  0.8881 -0.9224
  266MOL0     H35900   8.770   7.727   8.025 -1.6734 -0.3534 -1.2930
  266MOL0     H35901   8.888   7.834   7.959 -1.8213  0.1761 -1.0397
  266MOL0     H35902   8.772   8.031   8.054 -0.7495  0.0435 -1.4580
  266MOL0     H35903   8.658   7.923   8.147 -1.9858  1.0210 -1.3675
  266MOL0     H35904   8.544   7.855   7.963  0.2120 -0.6289 -1.0333
  266MOL0     H35905   8.564   8.029   7.947  0.1069  0.3039  0.1261
  266MOL0     H35906   8.719   7.823   7.602 -0.3194  2.4506 -0.2962
  266MOL0     H35907   9.113   8.097   8.063 -1.2008 -1.0234 -1.5574
  266MOL0     H35908   9.453   8.164   8.011  1.5827 -1.2593 -1.7651
  266MOL0     H35909   9.391   8.064   7.879 -0.4906 -0.7865  0.4181
  266MOL0     H35910   9.290   8.194   7.946  0.5171  0.6052 -0.3825
  267MOL0     O35911   2.549   5.512   8.493 -0.3022  0.2268 -0.0024
  267MOL0     C35912   2.646   5.518   8.421 -0.1638 -0.2289 -0.0307
  267MOL0     O35913   2.674   5.433   8.323  0.2253  0.0682 -0.0168
  267MOL0     C35914   2.603   5.317   8.313 -0.2426 -0.6823  0.1556
  267MOL0     C35915   2.607   5.218   8.412  0.3083  0.6472 -0.6623
  267MOL0     C35916   2.548   5.097   8.400  0.3082 -0.1325  0.2506
  267MOL0     C35917   2.485   5.067   8.281  0.4305  0.2416  0.0961
  267MOL0     O35918   2.434   4.937   8.268 -0.5563 -0.3396  0.7604
  267MOL0     C35919   2.334   4.915   8.166 -0.2331  1.1788  0.1536
  267MOL0     C35920   2.315   4.767   8.195  0.1871 -0.2724 -0.5210
  267MOL0     C35921   2.203   4.708   8.111  0.4336  0.1544  0.1168
  267MOL0     C35922   2.174   4.753   7.972  0.0132  0.8854  0.2500
  267MOL0     C35923   2.042   4.690   7.930  0.4129 -0.4634 -0.1360
  267MOL0     C35924   2.008   4.716   7.791  0.4249  0.0504 -0.1616
  267MOL0     C35925   1.859   4.667   7.760 -0.1318 -0.0330  0.2531
  267MOL0     C35926   1.851   4.659   7.596  0.1044 -0.6819 -0.1453
  267MOL0     N35927   1.856   4.790   7.521 -0.6673  0.3208  0.1276
  267MOL0     C35928   1.762   4.889   7.539 -0.4242 -0.0147  0.4424
  267MOL0     C35929   1.800   4.992   7.459 -0.5142  0.1099  0.3100
  267MOL0     C35930   1.739   5.125   7.434 -0.2188  1.0367  0.8405
  267MOL0     C35931   1.749   5.224   7.540 -0.7427  0.4986 -0.4180
  267MOL0     C35932   1.885   5.273   7.586  0.1557  0.0269  0.1868
  267MOL0     C35933   1.992   5.274   7.466 -0.0911  0.6799 -0.1139
  267MOL0     O35934   1.994   5.388   7.374  0.4802  0.4253 -0.0866
  267MOL0     C35935   2.091   5.484   7.387 -0.5249  0.0847  0.8178
  267MOL0     C35936   2.099   5.563   7.277 -1.4342 -0.6556  0.3429
  267MOL0     C35937   2.195   5.666   7.267 -0.5193  0.0308  1.0777
  267MOL0     C35938   2.282   5.690   7.373  0.6181 -0.2766  0.0495
  267MOL0     C35939   2.373   5.803   7.373 -0.7267 -0.4050  0.9310
  267MOL0     O35940   2.338   5.907   7.295 -0.1363  0.4984  0.0301
  267MOL0     C35941   2.416   6.017   7.298  0.1896 -0.5737  0.8945
  267MOL0     C35942   2.553   6.018   7.264 -0.5057 -0.3963 -0.1479
  267MOL0     C35943   2.630   6.141   7.258 -0.7106  0.5264 -0.1764
  267MOL0     C35944   2.574   6.264   7.286  0.1858 -0.3506 -0.1022
  267MOL0     O35945   2.650   6.374   7.251  0.3712 -0.0587 -0.2104
  267MOL0     C35946   2.638   6.494   7.328  0.0876  0.1264  0.4380
  267MOL0     C35947   2.765   6.512   7.418  0.3602 -0.6608  0.3056
  267MOL0     C35948   2.892   6.507   7.341  0.5164  0.2835 -0.3570
  267MOL0     C35949   3.006   6.542   7.436 -0.1006 -0.6748  0.1476
  267MOL0     C35950   3.122   6.595   7.358 -0.1010 -0.4806 -0.5493
  267MOL0     C35951   3.248   6.598   7.442 -0.5798  0.5610  0.1808
  267MOL0     C35952   3.349   6.687   7.351 -0.4629  0.4574 -0.4091
  267MOL0     C35953   3.323   6.841   7.353  0.1192 -0.0784  0.1680
  267MOL0    Cl35954   3.454   6.915   7.254  0.0762 -0.2983 -0.0046
  267MOL0     C35955   2.443   6.263   7.326 -0.1597 -0.1436 -0.6542
  267MOL0     C35956   2.371   6.143   7.339  0.5435  0.4866 -0.4332
  267MOL0     O35957   2.470   5.790   7.443 -0.2326 -0.7186 -0.2951
  267MOL0     C35958   2.271   5.605   7.490  0.1464  0.4358 -0.1626
  267MOL0     C35959   2.175   5.502   7.495 -0.1284 -0.3957 -0.9691
  267MOL0     N35960   1.904   4.941   7.380  0.1075 -0.2336 -0.8660
  267MOL0     N35961   1.931   4.817   7.413  0.4078 -0.4924  0.4307
  267MOL0     C35962   2.498   5.160   8.175  0.1055  0.0827  0.4037
  267MOL0     C35963   2.551   5.290   8.186  1.1506 -0.3839  0.2252
  267MOL0     C35964   2.722   5.649   8.438  0.5204 -0.6261  0.3383
  267MOL0     C35965   2.727   5.715   8.566 -0.7063  0.0967  0.9914
  267MOL0     C35966   2.785   5.840   8.566 -0.3925 -0.7500  0.7661
  267MOL0     C35967   2.829   5.905   8.450 -0.4644  0.4949  0.1561
  267MOL0     O35968   2.892   6.024   8.463  0.5896 -0.3179  0.9374
  267MOL0     C35969   2.890   6.127   8.357  0.1531  0.1329 -0.1983
  267MOL0     C35970   2.764   6.213   8.366 -0.1781 -0.1713 -0.0955
  267MOL0     C35971   2.650   6.145   8.300  0.7759 -1.2224  0.8449
  267MOL0     C35972   2.524   6.224   8.258  0.7335  0.1296  0.1743
  267MOL0     C35973   2.560   6.318   8.150  0.1168 -0.3220  0.0288
  267MOL0     C35974   2.604   6.397   8.062 -0.6666  0.7647  0.2257
  267MOL0     C35975   2.835   5.842   8.335 -0.5472  0.1465  0.3191
  267MOL0     C35976   2.790   5.706   8.322 -0.7384 -0.1144 -0.4264
  267MOL0     C35977   2.790   5.653   8.176 -0.5127 -0.6902 -0.8331
  267MOL0     H35978   2.647   5.241   8.510  1.4087 -1.4277 -0.5638
  267MOL0     H35979   2.541   5.021   8.478  1.3421 -0.3805  0.1090
  267MOL0     H35980   2.239   4.964   8.185 -0.3500  0.3914  1.7460
  267MOL0     H35981   2.371   4.934   8.065 -0.4780  2.0435  0.2194
  267MOL0     H35982   2.303   4.756   8.303  2.8211 -1.8233 -0.2993
  267MOL0     H35983   2.409   4.722   8.162 -0.0811  1.2792 -3.7844
  267MOL0     H35984   2.113   4.727   8.171  0.1451  3.7697 -1.1996
  267MOL0     H35985   2.211   4.599   8.110 -1.8335 -0.0624 -0.1504
  267MOL0     H35986   2.150   4.860   7.975 -2.7142  0.3724 -0.7583
  267MOL0     H35987   2.257   4.738   7.903  0.1005  1.4010  0.2416
  267MOL0     H35988   2.059   4.583   7.944  4.0919 -0.0302 -0.3430
  267MOL0     H35989   1.966   4.716   8.004  1.4603  1.2881  0.4016
  267MOL0     H35990   2.002   4.820   7.758 -2.9044 -0.1735 -0.5669
  267MOL0     H35991   2.082   4.658   7.735 -0.1905  0.6363 -1.6290
  267MOL0     H35992   1.782   4.729   7.807 -0.0547 -0.8073  1.4500
  267MOL0     H35993   1.840   4.564   7.793 -1.4946  0.2117  0.2780
  267MOL0     H35994   1.934   4.596   7.563  0.7360 -0.6887  1.3721
  267MOL0     H35995   1.760   4.600   7.583 -0.3286 -0.2373  0.7554
  267MOL0     H35996   1.676   4.900   7.605  0.5923 -1.4697  2.1025
  267MOL0     H35997   1.784   5.163   7.342 -3.3043 -2.6590 -2.5209
  267MOL0     H35998   1.633   5.101   7.424 -0.1849 -0.6527  3.5406
  267MOL0     H35999   1.693   5.309   7.501  0.1051  0.2924 -2.2402
  267MOL0     H36000   1.688   5.195   7.625 -0.8017  0.6184 -0.4196
  267MOL0     H36001   1.916   5.208   7.668  0.1017 -0.9613 -0.5549
  267MOL0     H36002   1.862   5.372   7.626 -3.1617 -0.2285 -0.8341
  267MOL0     H36003   1.990   5.189   7.398 -1.0007  1.6199 -1.2899
  267MOL0     H36004   2.089   5.267   7.517 -0.8743  2.5289  1.7829
  267MOL0     H36005   2.027   5.544   7.198 -0.5182 -2.6145 -0.0859
  267MOL0     H36006   2.196   5.726   7.176 -1.1897 -2.8441 -0.9691
  267MOL0     H36007   2.611   5.931   7.235  0.1323  0.3788 -1.3224
  267MOL0     H36008   2.735   6.140   7.232 -1.1814 -0.7501 -2.2261
  267MOL0     H36009   2.622   6.575   7.256 -2.7035  0.1983  1.0245
  267MOL0     H36010   2.553   6.493   7.396 -0.3233 -0.5360 -0.0727
  267MOL0     H36011   2.745   6.604   7.475 -0.4388  1.0059 -2.4589
  267MOL0     H36012   2.770   6.426   7.485 -1.4194 -0.0515  1.3168
  267MOL0     H36013   2.905   6.405   7.306 -4.1181 -1.8710  3.0295
  267MOL0     H36014   2.895   6.584   7.263 -0.5777 -0.9249 -1.6488
  267MOL0     H36015   3.029   6.458   7.502  0.4296  0.2655  1.1843
  267MOL0     H36016   2.973   6.617   7.508 -1.7816  0.0586 -1.3343
  267MOL0     H36017   3.082   6.694   7.337 -1.1910 -0.3048  1.9316
  267MOL0     H36018   3.143   6.532   7.271  0.8860 -0.6798 -0.1818
  267MOL0     H36019   3.240   6.643   7.541  0.2346 -2.1202  1.5751
  267MOL0     H36020   3.299   6.502   7.456 -0.5468  0.9178  3.3710
  267MOL0     H36021   3.348   6.644   7.250  1.1256 -2.8286  0.8535
  267MOL0     H36022   3.448   6.685   7.397 -1.4498  0.8909  1.8385
  267MOL0     H36023   3.221   6.867   7.322  0.4548  0.1778 -0.7575
  267MOL0     H36024   3.325   6.868   7.459 -1.8912 -1.7967  0.7124
  267MOL0     H36025   2.388   6.356   7.335  1.7400  0.8369  2.6328
  267MOL0     H36026   2.272   6.141   7.385  0.8126 -0.4405  0.1379
  267MOL0     H36027   2.334   5.619   7.578  0.2550  4.6714 -0.7125
  267MOL0     H36028   2.167   5.452   7.591 -0.0968 -0.9304 -1.2394
  267MOL0     H36029   2.468   5.119   8.079 -0.4750 -0.2658  0.7296
  267MOL0     H36030   2.536   5.356   8.101 -0.9997  1.1792  1.7215
  267MOL0     H36031   2.684   5.663   8.651  1.0719 -1.3901  1.0526
  267MOL0     H36032   2.792   5.903   8.654  1.1407  1.1652 -0.6095
  267MOL0     H36033   2.908   6.099   8.253 -0.5672  0.0376 -0.3069
  267MOL0     H36034   2.985   6.173   8.384  1.1799 -1.7380 -0.4532
  267MOL0     H36035   2.792   6.311   8.325 -1.5734  0.2238 -0.1522
  267MOL0     H36036   2.736   6.223   8.471 -0.4043  1.0431 -0.2492
  267MOL0     H36037   2.616   6.067   8.369 -0.0847 -2.1118 -0.5542
  267MOL0     H36038   2.687   6.096   8.210  1.3731  1.3137 -0.3747
  267MOL0     H36039   2.442   6.157   8.235 -0.6809  1.2472  1.7730
  267MOL0     H36040   2.483   6.276   8.345  0.3435  0.9078 -0.4567
  267MOL0     H36041   2.643   6.454   7.980 -2.0833 -1.3736 -2.0759
  267MOL0     H36042   2.884   5.893   8.252  2.4413 -2.4598  0.2920
  267MOL0     H36043   2.691   5.634   8.134 -1.1774 -0.3656  0.5291
  267MOL0     H36044   2.829   5.724   8.102  0.4330 -0.0222  0.2747
  267MOL0     H36045   2.849   5.561   8.166  0.5593  0.1910 -3.6416
  268MOL0     O36046   1.551   5.743  11.121 -0.1522 -0.6707 -0.5139
  268MOL0     C36047   1.429   5.716  11.109  0.3193  1.1757 -0.0444
  268MOL0     O36048   1.368   5.702  10.990  0.8405 -0.5353 -0.4544
  268MOL0     C36049   1.428   5.716  10.862 -0.3001  0.1069 -0.3309
  268MOL0     C36050   1.533   5.800  10.832 -0.0586  0.0130  0.1513
  268MOL0     C36051   1.564   5.818  10.695  1.4681  0.3211 -0.3168
  268MOL0     C36052   1.494   5.738  10.598  0.1279  0.2677  0.8832
  268MOL0     O36053   1.514   5.750  10.463  0.5926 -0.6125 -0.3697
  268MOL0     C36054   1.419   5.824  10.390 -0.6113  0.4940  0.1512
  268MOL0     C36055   1.474   5.952  10.329  0.6456 -0.2879  0.3699
  268MOL0     C36056   1.593   5.926  10.231 -0.0545 -0.5183  0.2480
  268MOL0     C36057   1.600   6.051  10.151 -0.4396  0.4537  0.4460
  268MOL0     C36058   1.702   6.036  10.030  0.2382 -0.1778  0.3740
  268MOL0     C36059   1.745   6.177   9.992  0.9376  0.7877 -0.0067
  268MOL0     C36060   1.808   6.196   9.856 -0.8212 -0.3954  0.8129
  268MOL0     C36061   1.956   6.149   9.848 -0.5962 -0.5024  0.2055
  268MOL0     N36062   2.039   6.221   9.751  0.0739 -0.3287  0.2638
  268MOL0     C36063   1.988   6.256   9.627 -0.0544 -0.5554  0.6091
  268MOL0     C36064   2.088   6.336   9.579  0.1921 -0.6942  0.2393
  268MOL0     C36065   2.075   6.408   9.444  0.4135  0.7344  0.7560
  268MOL0     C36066   1.943   6.496   9.440  0.4176  0.0996  0.3327
  268MOL0     C36067   1.956   6.604   9.546 -0.5582 -0.5098  0.9345
  268MOL0     C36068   1.850   6.705   9.543  0.1790  0.4374  0.5655
  268MOL0     O36069   1.719   6.633   9.513  0.5559  0.3979 -0.3552
  268MOL0     C36070   1.658   6.586   9.625  0.8012 -1.0748 -0.0155
  268MOL0     C36071   1.696   6.583   9.759 -0.3618  0.5959  0.1035
  268MOL0     C36072   1.619   6.510   9.854 -0.2983  0.3255  0.9845
  268MOL0     C36073   1.502   6.450   9.817 -0.5464 -0.7919 -0.0715
  268MOL0     C36074   1.410   6.366   9.908  0.0456  0.3874  0.3989
  268MOL0     O36075   1.357   6.250   9.846  0.0498  0.7501 -0.4530
  268MOL0     C36076   1.272   6.168   9.912  0.0294 -0.3362 -0.3185
  268MOL0     C36077   1.293   6.031   9.908 -0.5791  0.0265  0.2729
  268MOL0     C36078   1.196   5.944   9.951  0.3390 -0.4665 -1.1496
  268MOL0     C36079   1.082   5.985  10.024  1.3015 -0.0606 -0.7603
  268MOL0     O36080   0.997   5.891  10.069  0.4326 -0.0012  0.2098
  268MOL0     C36081   0.875   5.933  10.134  0.1172 -0.0509  1.0957
  268MOL0     C36082   0.768   5.819  10.137 -1.1020  0.0376 -0.0952
  268MOL0     C36083   0.818   5.708  10.236 -0.1431 -0.1897  1.3772
  268MOL0     C36084   0.714   5.608  10.266 -0.2925 -0.3943  0.4062
  268MOL0     C36085   0.772   5.489  10.341  0.2890  0.4970 -0.7937
  268MOL0     C36086   0.836   5.509  10.479 -0.1850 -1.0391  0.3982
  268MOL0     C36087   0.880   5.377  10.551  0.0742  0.0424 -0.9041
  268MOL0     C36088   0.765   5.269  10.544  0.0957 -1.4203 -0.6219
  268MOL0    Cl36089   0.600   5.324  10.600 -0.3525  0.0762  0.4045
  268MOL0     C36090   1.068   6.127  10.047 -0.2666  0.3010 -0.3145
  268MOL0     C36091   1.162   6.210   9.982 -0.3720 -0.0218  0.0575
  268MOL0     O36092   1.404   6.393  10.030  0.3057  0.6846 -0.2103
  268MOL0     C36093   1.454   6.460   9.683 -0.6094 -0.3726  0.1049
  268MOL0     C36094   1.531   6.535   9.593  0.8161 -0.0875 -0.4842
  268MOL0     N36095   2.194   6.345   9.672  0.4284  0.2551  0.4615
  268MOL0     N36096   2.168   6.262   9.768  0.4301  0.5792  0.2016
  268MOL0     C36097   1.409   5.644  10.635  0.4559  0.8731 -0.0417
  268MOL0     C36098   1.374   5.633  10.764 -0.7093 -0.4132  0.4129
  268MOL0     C36099   1.328   5.711  11.228  0.5562  0.2823  0.1661
  268MOL0     C36100   1.190   5.717  11.200 -0.0088  0.3694  0.5285
  268MOL0     C36101   1.093   5.710  11.298 -0.6841  0.5721 -0.0538
  268MOL0     C36102   1.132   5.685  11.427 -0.1031 -1.1679 -0.2584
  268MOL0     O36103   1.016   5.693  11.504 -0.8020  1.0530 -0.0104
  268MOL0     C36104   1.038   5.678  11.645  0.2339 -0.3051 -0.3509
  268MOL0     C36105   0.919   5.602  11.692 -0.2117 -0.2892  0.3410
  268MOL0     C36106   0.927   5.572  11.847  0.0379  0.5006  0.1394
  268MOL0     C36107   0.806   5.479  11.886 -0.5414  0.8260  0.3967
  268MOL0     C36108   0.676   5.526  11.857 -0.4815  0.7534 -0.2341
  268MOL0     C36109   0.563   5.566  11.841 -0.2157 -1.1655 -0.9455
  268MOL0     C36110   1.265   5.670  11.463 -0.6774  0.4599  0.5331
  268MOL0     C36111   1.361   5.664  11.357  0.5327  0.3664 -0.7886
  268MOL0     C36112   1.503   5.628  11.397 -0.0941  0.1372  0.6586
  268MOL0     H36113   1.592   5.844  10.912  1.5139 -0.6884 -0.5930
  268MOL0     H36114   1.636   5.897  10.673 -0.0418  2.2805  1.4862
  268MOL0     H36115   1.383   5.757  10.312 -1.1122  1.6187 -0.6067
  268MOL0     H36116   1.328   5.834  10.449 -0.3548 -1.0863  0.8522
  268MOL0     H36117   1.507   6.021  10.407  1.1401  0.2438 -0.3002
  268MOL0     H36118   1.395   6.006  10.277  1.2381 -0.4263 -0.7098
  268MOL0     H36119   1.575   5.835  10.173 -3.3727 -0.4413  0.9352
  268MOL0     H36120   1.684   5.930  10.293 -0.4175 -1.1538  0.8466
  268MOL0     H36121   1.505   6.086  10.109 -0.4675 -1.7296 -1.4714
  268MOL0     H36122   1.642   6.123  10.221  1.4439 -0.5269  0.3784
  268MOL0     H36123   1.789   5.982  10.068  1.9528  2.4508  0.4282
  268MOL0     H36124   1.673   5.977   9.942 -0.8998 -1.0300  1.2852
  268MOL0     H36125   1.653   6.233  10.009 -1.4158 -1.9364 -2.6210
  268MOL0     H36126   1.821   6.213  10.062  4.6271 -2.9332 -1.6943
  268MOL0     H36127   1.797   6.303   9.837 -1.0379 -0.7683 -1.4068
  268MOL0     H36128   1.748   6.146   9.780 -2.2673  1.7611  0.4554
  268MOL0     H36129   1.998   6.171   9.946 -1.6548  2.3202  0.1441
  268MOL0     H36130   1.979   6.043   9.841  5.5709  0.5147 -0.0500
  268MOL0     H36131   1.893   6.230   9.583 -0.0656  0.5233 -0.0265
  268MOL0     H36132   2.164   6.457   9.406  0.2894 -0.3810 -1.0732
  268MOL0     H36133   2.052   6.331   9.370 -0.4671  2.4270 -0.8028
  268MOL0     H36134   1.918   6.546   9.346 -0.8402  2.0733  1.6499
  268MOL0     H36135   1.868   6.421   9.465 -0.6274  1.3131  0.9163
  268MOL0     H36136   2.060   6.636   9.537 -1.1562  0.7790 -3.4235
  268MOL0     H36137   1.943   6.558   9.645  1.0817 -1.9135  0.5387
  268MOL0     H36138   1.873   6.774   9.462  4.3320 -0.7497  0.5112
  268MOL0     H36139   1.850   6.757   9.639  1.9820  0.6794  0.4655
  268MOL0     H36140   1.794   6.621   9.788  0.4336  0.1441 -1.7989
  268MOL0     H36141   1.648   6.498   9.958  1.0252 -0.4882  0.5484
  268MOL0     H36142   1.380   5.986   9.863 -1.2082 -0.7601 -0.1863
  268MOL0     H36143   1.215   5.837   9.941 -2.3365 -1.1241  0.0691
  268MOL0     H36144   0.900   5.976  10.232  0.3170  0.0419  1.0031
  268MOL0     H36145   0.827   6.011  10.074 -0.9565 -0.1948  1.7403
  268MOL0     H36146   0.667   5.845  10.168 -1.9768 -2.8423 -0.2611
  268MOL0     H36147   0.767   5.767  10.041 -1.7226 -0.5546  0.2226
  268MOL0     H36148   0.899   5.655  10.185 -4.2806 -5.3235 -0.8397
  268MOL0     H36149   0.853   5.752  10.330 -1.7005  1.6207  1.1710
  268MOL0     H36150   0.671   5.575  10.171  0.8422  3.2094 -1.5718
  268MOL0     H36151   0.631   5.659  10.315  0.3568  0.0203  1.1034
  268MOL0     H36152   0.846   5.434  10.280 -0.4954 -0.2934 -1.0593
  268MOL0     H36153   0.687   5.422  10.355 -0.6441  1.6111 -1.0494
  268MOL0     H36154   0.923   5.573  10.460 -0.1911 -0.8454  1.0078
  268MOL0     H36155   0.762   5.569  10.533 -0.0498 -0.4681 -0.0368
  268MOL0     H36156   0.901   5.396  10.657  0.0607  0.5597 -0.9877
  268MOL0     H36157   0.970   5.337  10.502  0.1445  0.2306 -0.9310
  268MOL0     H36158   0.750   5.236  10.440 -1.5172  2.9726 -2.0051
  268MOL0     H36159   0.795   5.190  10.614  0.8840 -0.0441  0.6309
  268MOL0     H36160   0.978   6.178  10.080  0.0949  1.1420 -0.5998
  268MOL0     H36161   1.152   6.318   9.987 -0.6556 -0.0507  0.1760
  268MOL0     H36162   1.363   6.412   9.649  0.8067 -2.2924 -1.1897
  268MOL0     H36163   1.491   6.558   9.495  1.1347 -1.5510 -0.9883
  268MOL0     H36164   1.361   5.585  10.557  0.5500  1.2605 -0.3946
  268MOL0     H36165   1.300   5.554  10.773 -1.9182  0.0563 -3.4345
  268MOL0     H36166   1.160   5.738  11.098 -0.2046 -2.2528 -0.0356
  268MOL0     H36167   0.990   5.729  11.269 -0.2197  1.5744 -1.1866
  268MOL0     H36168   1.047   5.767  11.707  1.6279 -0.9869  0.4721
  268MOL0     H36169   1.130   5.622  11.665  2.5670  2.4291 -2.7085
  268MOL0     H36170   0.911   5.505  11.641  0.9904 -0.7549  0.9975
  268MOL0     H36171   0.833   5.668  11.677 -0.5828 -0.8696 -0.1708
  268MOL0     H36172   0.923   5.668  11.900 -0.7956  3.3451 -4.4513
  268MOL0     H36173   1.018   5.520  11.877 -0.2463 -1.0441 -1.5161
  268MOL0     H36174   0.825   5.396  11.817  0.8023  1.0959  0.4189
  268MOL0     H36175   0.811   5.444  11.989  2.3674  0.6097  0.2671
  268MOL0     H36176   0.465   5.605  11.820  0.3788  0.5437 -0.7185
  268MOL0     H36177   1.295   5.652  11.566 -1.2489  2.7694  1.1547
  268MOL0     H36178   1.543   5.566  11.316  0.1072  0.0720  0.8059
  268MOL0     H36179   1.565   5.715  11.420  0.0814 -0.2621  1.7821
  268MOL0     H36180   1.493   5.563  11.485 -2.9316  1.4415  1.4155
  269MOL0     O36181   0.907   6.805   8.494 -1.0527 -0.0753  0.4633
  269MOL0     C36182   0.853   6.771   8.388 -0.1740  0.2452 -0.0551
  269MOL0     O36183   0.918   6.776   8.271  0.0825 -0.1328  0.4318
  269MOL0     C36184   1.043   6.829   8.248  0.5471 -0.0499  0.4898
  269MOL0     C36185   1.089   6.950   8.301 -0.1130 -0.0358 -0.3440
  269MOL0     C36186   1.220   6.997   8.274  0.4590 -0.8801 -0.4837
  269MOL0     C36187   1.294   6.926   8.181 -1.0303 -0.0043  0.0032
  269MOL0     O36188   1.421   6.951   8.134 -0.9281 -0.0163 -0.4907
  269MOL0     C36189   1.482   7.071   8.166  0.1832  1.6191  0.3536
  269MOL0     C36190   1.410   7.182   8.107 -0.0183  0.1647  0.0967
  269MOL0     C36191   1.378   7.156   7.957  0.6726  0.1828 -0.0954
  269MOL0     C36192   1.382   7.293   7.881  0.3630 -0.6950 -0.8039
  269MOL0     C36193   1.363   7.275   7.734 -0.5241 -0.9389 -0.5277
  269MOL0     C36194   1.362   7.412   7.660  0.6810  0.8435  0.3349
  269MOL0     C36195   1.407   7.387   7.513  0.4569  0.5089  1.0041
  269MOL0     C36196   1.545   7.441   7.463 -0.1559  0.5933 -0.2903
  269MOL0     N36197   1.532   7.568   7.406  0.1987  0.2906  0.4580
  269MOL0     C36198   1.557   7.683   7.472 -0.7905 -0.0563 -1.2542
  269MOL0     C36199   1.548   7.787   7.395  0.1239 -0.9454 -0.0205
  269MOL0     C36200   1.562   7.934   7.431 -0.2653 -0.6612  0.4629
  269MOL0     C36201   1.713   7.963   7.456 -0.7859  0.0422 -0.1238
  269MOL0     C36202   1.737   8.117   7.489  1.0643  0.4965  0.2175
  269MOL0     C36203   1.886   8.149   7.464 -0.2358 -0.2604 -0.0302
  269MOL0     O36204   1.914   8.224   7.585  0.3391 -0.3413  0.6908
  269MOL0     C36205   2.041   8.278   7.603  0.1109  0.5473 -0.4807
  269MOL0     C36206   2.051   8.377   7.708  0.1957  0.6991 -0.5657
  269MOL0     C36207   2.173   8.444   7.722  0.1454 -0.2020  0.1331
  269MOL0     C36208   2.280   8.415   7.641 -1.2036 -0.8313  0.0878
  269MOL0     C36209   2.415   8.489   7.657  0.2948 -0.3082  0.6840
  269MOL0     O36210   2.503   8.451   7.561 -0.0809  0.1606  0.2581
  269MOL0     C36211   2.628   8.503   7.530  0.0250  0.3005 -0.1687
  269MOL0     C36212   2.692   8.600   7.603 -0.1291 -1.1134  0.0622
  269MOL0     C36213   2.822   8.654   7.571  0.2464 -0.1944 -0.2770
  269MOL0     C36214   2.882   8.613   7.448 -0.2814  0.0275  0.1241
  269MOL0     O36215   3.000   8.677   7.415 -0.3117  0.3595 -0.4998
  269MOL0     C36216   3.041   8.663   7.277  0.1102 -0.2588  0.1712
  269MOL0     C36217   3.144   8.774   7.249  0.6088  0.5440  0.0354
  269MOL0     C36218   3.137   8.809   7.099  0.1923  0.2900 -0.8711
  269MOL0     C36219   3.247   8.724   7.028 -0.5754  0.2882 -0.3036
  269MOL0     C36220   3.229   8.732   6.878 -0.1120 -0.1823 -0.2177
  269MOL0     C36221   3.301   8.609   6.807 -0.6259 -0.0946 -0.1195
  269MOL0     C36222   3.285   8.608   6.654  0.1186 -0.5377  0.5970
  269MOL0     C36223   3.354   8.489   6.592  0.5854  0.1694  0.6393
  269MOL0    Cl36224   3.332   8.495   6.411 -0.2291  0.1061 -0.6662
  269MOL0     C36225   2.821   8.507   7.379  0.9477  0.2084 -1.0443
  269MOL0     C36226   2.689   8.456   7.419  0.4488 -0.0972  1.1225
  269MOL0     O36227   2.437   8.565   7.752  0.3975  0.2083  0.1064
  269MOL0     C36228   2.271   8.313   7.548  0.0873  0.8943 -0.2201
  269MOL0     C36229   2.154   8.244   7.524  0.5577  0.6333 -0.8494
  269MOL0     N36230   1.517   7.735   7.274 -0.6885 -0.1369  0.8959
  269MOL0     N36231   1.507   7.602   7.279 -0.5767 -0.4635 -0.3810
  269MOL0     C36232   1.239   6.810   8.117 -1.1326 -0.0112 -0.8161
  269MOL0     C36233   1.116   6.767   8.152  0.1689  0.0482 -0.1900
  269MOL0     C36234   0.710   6.741   8.389  0.5484 -0.4222  0.9759
  269MOL0     C36235   0.641   6.714   8.274  0.2596  0.5355 -0.1901
  269MOL0     C36236   0.493   6.709   8.268  0.5020  0.8010  0.2693
  269MOL0     C36237   0.415   6.706   8.382  0.1512  0.9021 -0.1290
  269MOL0     O36238   0.275   6.711   8.371 -1.1428 -0.0468  0.4593
  269MOL0     C36239   0.190   6.746   8.476  0.2016  0.0717  0.1419
  269MOL0     C36240   0.058   6.792   8.426 -0.1178 -0.0047  0.6239
  269MOL0     C36241  -0.041   6.826   8.534  0.0397 -0.2525  0.0572
  269MOL0     C36242  -0.181   6.867   8.483  0.1378 -0.1230 -0.2371
  269MOL0     C36243  -0.262   6.756   8.449  0.4335 -0.2912 -0.3484
  269MOL0     C36244  -0.336   6.667   8.454  0.5234  0.5950  0.2988
  269MOL0     C36245   0.489   6.711   8.496  0.9963  0.1429 -0.0975
  269MOL0     C36246   0.630   6.726   8.503 -0.1034 -0.0666 -0.6445
  269MOL0     C36247   0.694   6.724   8.637  0.0646  0.9496 -0.2033
  269MOL0     H36248   1.031   7.006   8.374 -1.5790 -0.8399 -0.8524
  269MOL0     H36249   1.258   7.085   8.325  1.1012 -0.9794 -0.7824
  269MOL0     H36250   1.493   7.074   8.275  1.2388  3.9570  0.2662
  269MOL0     H36251   1.585   7.067   8.130 -0.5937 -1.5174 -1.8563
  269MOL0     H36252   1.467   7.274   8.121  1.8367 -0.5851 -1.8721
  269MOL0     H36253   1.316   7.195   8.161  1.1643  1.9662  1.8844
  269MOL0     H36254   1.285   7.102   7.939  1.7883 -1.0082 -2.8939
  269MOL0     H36255   1.451   7.086   7.915 -0.1165 -0.3716 -0.5616
  269MOL0     H36256   1.299   7.354   7.919  2.8031  2.1381  0.4900
  269MOL0     H36257   1.464   7.361   7.906 -2.7017  2.8784  0.4380
  269MOL0     H36258   1.454   7.219   7.709  0.2085 -1.7189  3.2933
  269MOL0     H36259   1.273   7.226   7.696 -1.4000  1.8885 -2.4211
  269MOL0     H36260   1.264   7.460   7.661 -0.8088 -1.9367 -1.8123
  269MOL0     H36261   1.443   7.473   7.702  2.4017 -1.1278  0.0333
  269MOL0     H36262   1.330   7.418   7.442  0.8322  1.7869  1.1458
  269MOL0     H36263   1.404   7.278   7.498  0.2567  0.6747 -0.2151
  269MOL0     H36264   1.618   7.441   7.545 -1.2539  0.3202  0.7046
  269MOL0     H36265   1.592   7.369   7.395  1.4714 -2.1875  3.3881
  269MOL0     H36266   1.570   7.671   7.579 -0.7134  0.1403 -1.2400
  269MOL0     H36267   1.526   8.002   7.354 -1.6932 -0.4957  1.2435
  269MOL0     H36268   1.504   7.958   7.521  2.0485 -0.3094  1.9576
  269MOL0     H36269   1.733   7.902   7.545 -1.1001 -0.3536 -0.3221
  269MOL0     H36270   1.772   7.934   7.369 -1.2917 -4.1808  0.7238
  269MOL0     H36271   1.718   8.128   7.596  0.7520  1.5097  0.0683
  269MOL0     H36272   1.681   8.193   7.433 -1.0527  1.6169  3.6016
  269MOL0     H36273   1.916   8.205   7.375  3.0957  2.0556  2.2717
  269MOL0     H36274   1.950   8.060   7.463 -0.0356 -0.1307  0.5500
  269MOL0     H36275   1.964   8.397   7.770  0.5917 -2.8688  1.4635
  269MOL0     H36276   2.173   8.522   7.798 -0.5606  1.5167 -1.5489
  269MOL0     H36277   2.656   8.633   7.700 -1.2287 -1.4915 -0.2133
  269MOL0     H36278   2.888   8.727   7.616  0.0465 -0.6136  0.7343
  269MOL0     H36279   3.084   8.567   7.250 -1.1160 -1.1601  1.2949
  269MOL0     H36280   2.951   8.683   7.218 -0.3652 -1.2490  0.5487
  269MOL0     H36281   3.116   8.858   7.312  1.5131  0.0428  1.1531
  269MOL0     H36282   3.241   8.740   7.288 -0.4631 -1.1318  1.3689
  269MOL0     H36283   3.037   8.787   7.063 -0.8457  1.5003  1.0992
  269MOL0     H36284   3.144   8.917   7.082 -2.7959  0.9976  1.5560
  269MOL0     H36285   3.245   8.623   7.069 -0.1807  0.3041 -0.2397
  269MOL0     H36286   3.344   8.770   7.053 -1.9963  2.3994  1.7997
  269MOL0     H36287   3.281   8.823   6.849  0.9073 -0.8552 -0.5580
  269MOL0     H36288   3.121   8.729   6.856 -0.1426 -0.5102 -0.0323
  269MOL0     H36289   3.407   8.628   6.825 -1.0092  2.6228 -0.4343
  269MOL0     H36290   3.264   8.520   6.860 -1.1148  0.4466  0.4715
  269MOL0     H36291   3.317   8.699   6.603 -3.8688  0.4459 -0.4891
  269MOL0     H36292   3.179   8.585   6.642  0.6459 -4.5003  2.0885
  269MOL0     H36293   3.460   8.490   6.619  1.2934  0.1669 -1.8396
  269MOL0     H36294   3.304   8.396   6.620  0.2580 -0.3853 -1.5547
  269MOL0     H36295   2.860   8.485   7.280 -1.7380 -0.4067 -2.0588
  269MOL0     H36296   2.629   8.384   7.364  2.0877 -1.1341  0.6034
  269MOL0     H36297   2.354   8.287   7.483  1.8004  1.2538  1.6861
  269MOL0     H36298   2.155   8.190   7.431  1.3864  1.3478 -1.2699
  269MOL0     H36299   1.297   6.761   8.040 -1.3568 -2.1055  0.2638
  269MOL0     H36300   1.063   6.681   8.112  0.7809 -1.2641  1.7115
  269MOL0     H36301   0.686   6.704   8.176 -2.8315 -1.0566 -1.6015
  269MOL0     H36302   0.425   6.711   8.184  0.4481 -0.3454  0.2756
  269MOL0     H36303   0.230   6.820   8.546  0.5991  0.9569 -0.9741
  269MOL0     H36304   0.173   6.657   8.537  0.8949 -0.7531 -0.8291
  269MOL0     H36305   0.011   6.704   8.381 -1.7746  0.9614  0.3856
  269MOL0     H36306   0.078   6.882   8.367  0.8314 -0.7184 -0.1782
  269MOL0     H36307   0.002   6.902   8.600 -2.5940 -2.0278  4.2113
  269MOL0     H36308  -0.046   6.739   8.600  1.1264  0.1772  0.7336
  269MOL0     H36309  -0.232   6.935   8.552  2.2607  0.2111  1.0756
  269MOL0     H36310  -0.183   6.916   8.386 -2.0932  1.1341  0.3641
  269MOL0     H36311  -0.424   6.606   8.464  1.3010 -0.7221 -0.5923
  269MOL0     H36312   0.439   6.703   8.592  0.5971  0.0892 -0.3052
  269MOL0     H36313   0.737   6.819   8.669 -0.7472  0.7530  1.5978
  269MOL0     H36314   0.622   6.698   8.715  1.4003 -2.3896  0.0960
  269MOL0     H36315   0.767   6.642   8.631 -1.3526 -0.3327 -0.6606
  270MOL0     O36316   0.656   8.112   5.896 -0.4993  0.2447 -0.2016
  270MOL0     C36317   0.725   8.207   5.878  0.2122  0.5486  0.2748
  270MOL0     O36318   0.679   8.335   5.882 -0.3030  0.0734  0.3458
  270MOL0     C36319   0.539   8.349   5.904 -0.2143  0.3389 -0.1179
  270MOL0     C36320   0.460   8.372   5.795 -0.3671 -0.3111 -0.6244
  270MOL0     C36321   0.324   8.366   5.803  0.1922  0.3987 -0.7244
  270MOL0     C36322   0.261   8.351   5.925 -0.8690  0.0430 -0.7123
  270MOL0     O36323   0.127   8.362   5.929 -0.2348  0.1415 -0.3766
  270MOL0     C36324   0.035   8.301   5.835 -0.7461 -0.4314  0.4521
  270MOL0     C36325  -0.099   8.308   5.904  0.7065 -0.0945 -0.3256
  270MOL0     C36326  -0.221   8.264   5.817 -0.2265 -0.0366 -0.8011
  270MOL0     C36327  -0.218   8.285   5.662  0.1936 -0.1981  2.0563
  270MOL0     C36328  -0.236   8.434   5.606 -0.0255  0.3452 -1.1274
  270MOL0     C36329  -0.255   8.465   5.453 -0.5900 -0.4033  0.4024
  270MOL0     C36330  -0.329   8.598   5.425 -0.2188 -0.8079 -0.1449
  270MOL0     C36331  -0.331   8.621   5.274  0.3457  0.0858 -0.1955
  270MOL0     N36332  -0.199   8.648   5.213 -0.3588 -1.0253 -0.2154
  270MOL0     C36333  -0.121   8.547   5.158  0.5065 -0.5995  1.0571
  270MOL0     C36334  -0.010   8.613   5.117  0.6585 -0.2219  0.4286
  270MOL0     C36335   0.108   8.557   5.037  0.3857 -0.1570  0.5941
  270MOL0     C36336   0.227   8.647   5.038 -1.0579  0.0199  0.6133
  270MOL0     C36337   0.350   8.593   4.971  0.4688  0.1141  0.6525
  270MOL0     C36338   0.480   8.663   5.001  1.3180  0.9363 -0.7670
  270MOL0     O36339   0.557   8.629   4.892 -0.4038  0.4915 -0.2158
  270MOL0     C36340   0.689   8.676   4.893  0.9154 -0.2256  0.8246
  270MOL0     C36341   0.763   8.735   4.996 -0.4711 -1.4890  0.5227
  270MOL0     C36342   0.898   8.770   4.983  0.2888  0.0700  0.5218
  270MOL0     C36343   0.974   8.707   4.882 -0.1342  0.3385 -0.3954
  270MOL0     C36344   1.123   8.717   4.873 -0.2688 -0.1385  0.4666
  270MOL0     O36345   1.182   8.814   4.945 -0.4715 -1.2708  0.4763
  270MOL0     C36346   1.321   8.828   4.945  0.5682  0.8494  0.7129
  270MOL0     C36347   1.384   8.941   4.901  0.5089 -0.7375 -0.0760
  270MOL0     C36348   1.527   8.949   4.907 -0.0621  0.3917 -0.0264
  270MOL0     C36349   1.602   8.834   4.926  0.4007  0.7965 -1.3644
  270MOL0     O36350   1.735   8.834   4.913 -0.6204 -0.5652 -0.8251
  270MOL0     C36351   1.809   8.736   4.832  0.1777 -0.3422 -0.1786
  270MOL0     C36352   1.911   8.817   4.749 -0.3160  1.2590 -0.6804
  270MOL0     C36353   2.014   8.906   4.812  0.5079 -0.3597 -0.2318
  270MOL0     C36354   2.133   8.832   4.878  0.0574 -0.1764 -0.5294
  270MOL0     C36355   2.235   8.937   4.934  0.1770 -0.3223 -0.1488
  270MOL0     C36356   2.349   8.868   5.011  0.1713  0.4487  0.3511
  270MOL0     C36357   2.327   8.862   5.161 -0.6598  0.1190  0.0390
  270MOL0     C36358   2.444   8.784   5.237  0.2806 -0.2424  0.1031
  270MOL0    Cl36359   2.504   8.632   5.168  0.1246 -0.2547  0.0054
  270MOL0     C36360   1.537   8.719   4.965 -0.2433 -0.2120  0.1217
  270MOL0     C36361   1.397   8.717   4.979  0.8107 -0.5392  0.4072
  270MOL0     O36362   1.178   8.650   4.785  0.1424 -0.8181 -0.0697
  270MOL0     C36363   0.901   8.643   4.776 -0.0159 -0.0458 -0.1456
  270MOL0     C36364   0.760   8.634   4.784 -0.5043 -1.0115  0.8482
  270MOL0     N36365  -0.026   8.748   5.143 -0.0278 -0.2115  0.7736
  270MOL0     N36366  -0.126   8.764   5.220  0.0022 -0.2056  0.0340
  270MOL0     C36367   0.340   8.341   6.039 -0.2848  0.1317 -0.6318
  270MOL0     C36368   0.484   8.326   6.028  1.3259 -0.4312  0.0045
  270MOL0     C36369   0.873   8.187   5.848  0.0270  0.6849  0.0936
  270MOL0     C36370   0.958   8.304   5.850  0.3758  0.1664 -0.1431
  270MOL0     C36371   1.095   8.300   5.822  0.1490 -0.8639 -0.2666
  270MOL0     C36372   1.156   8.176   5.789 -0.2803 -0.7298  0.0822
  270MOL0     O36373   1.290   8.167   5.758 -0.0334  0.2101  0.4465
  270MOL0     C36374   1.383   8.224   5.858  0.4333  0.4879 -0.1608
  270MOL0     C36375   1.527   8.162   5.835  0.5215  0.8818  0.3894
  270MOL0     C36376   1.568   8.180   5.690 -0.0330 -0.0444  0.8708
  270MOL0     C36377   1.719   8.145   5.667 -0.4778 -1.3139  0.4649
  270MOL0     C36378   1.811   8.241   5.739  0.7159  0.5165 -0.4133
  270MOL0     C36379   1.894   8.314   5.807  0.6281  0.6492  0.9988
  270MOL0     C36380   1.078   8.060   5.781 -0.0397  0.5540  0.5709
  270MOL0     C36381   0.934   8.072   5.800 -0.1405  0.3230 -0.7225
  270MOL0     C36382   0.866   7.943   5.762 -0.0718  0.0929  0.5370
  270MOL0     H36383   0.499   8.390   5.695  0.7520  1.2602  0.0459
  270MOL0     H36384   0.272   8.389   5.711 -0.2544  2.7449  0.0445
  270MOL0     H36385   0.039   8.349   5.737 -0.6065 -0.3218  0.5114
  270MOL0     H36386   0.058   8.197   5.810  0.9862 -0.3444  1.5541
  270MOL0     H36387  -0.106   8.415   5.927  1.0008 -0.1938  0.2321
  270MOL0     H36388  -0.087   8.264   6.003  0.3903  4.9212  2.2646
  270MOL0     H36389  -0.316   8.295   5.861  0.3177 -1.7055  1.8195
  270MOL0     H36390  -0.221   8.156   5.838 -0.4337 -0.5968 -3.2973
  270MOL0     H36391  -0.129   8.243   5.614 -2.1001 -1.6291 -1.3416
  270MOL0     H36392  -0.286   8.217   5.611  0.2095  0.1486  1.5632
  270MOL0     H36393  -0.318   8.483   5.658 -1.8233 -0.6833 -2.8621
  270MOL0     H36394  -0.140   8.482   5.625 -0.4000  0.9550 -0.7696
  270MOL0     H36395  -0.160   8.481   5.402 -0.5161  0.2357  0.7232
  270MOL0     H36396  -0.309   8.379   5.415  0.7436 -2.1203  2.2025
  270MOL0     H36397  -0.285   8.687   5.471 -2.2928  0.1778  0.0669
  270MOL0     H36398  -0.432   8.594   5.462 -0.8800 -0.6614 -1.8674
  270MOL0     H36399  -0.370   8.520   5.256  0.8243  0.0251 -0.9283
  270MOL0     H36400  -0.404   8.700   5.252  1.5122  1.6142  1.2596
  270MOL0     H36401  -0.149   8.442   5.160  1.8634 -0.9884  1.0442
  270MOL0     H36402   0.127   8.453   5.066  1.2242 -0.6615 -1.5644
  270MOL0     H36403   0.076   8.557   4.932  0.8848  0.0425  0.4391
  270MOL0     H36404   0.203   8.741   4.990  2.4260  1.6956  1.7997
  270MOL0     H36405   0.249   8.672   5.142 -2.3131  0.9414  0.6772
  270MOL0     H36406   0.332   8.609   4.864  0.0662  0.4328  0.7627
  270MOL0     H36407   0.354   8.484   4.969 -3.4108 -0.1613 -0.0224
  270MOL0     H36408   0.518   8.636   5.100 -3.1506 -0.8942  0.6619
  270MOL0     H36409   0.459   8.770   5.011 -0.9219  0.3610  1.7947
  270MOL0     H36410   0.713   8.763   5.088 -1.3862 -1.8884  0.1623
  270MOL0     H36411   0.932   8.825   5.070 -3.9004  0.1057  2.3803
  270MOL0     H36412   1.317   9.019   4.868 -1.9203 -3.1441 -1.2674
  270MOL0     H36413   1.563   9.049   4.886 -0.3694  0.9088  1.7488
  270MOL0     H36414   1.866   8.679   4.906 -2.3350  0.3646  2.4809
  270MOL0     H36415   1.748   8.680   4.760  1.0826 -0.6659 -0.7115
  270MOL0     H36416   1.959   8.745   4.682  2.6223  2.8694 -0.4996
  270MOL0     H36417   1.848   8.883   4.688 -1.1389  0.3724 -0.8120
  270MOL0     H36418   2.049   8.973   4.733  0.2848  3.9558  2.9731
  270MOL0     H36419   1.964   8.968   4.887 -2.8901 -2.1618 -0.7751
  270MOL0     H36420   2.173   8.769   4.799 -2.0070 -0.2648 -1.5514
  270MOL0     H36421   2.093   8.784   4.968  2.5092  0.1706  0.8294
  270MOL0     H36422   2.184   9.011   4.997  0.7177  1.4721 -1.7299
  270MOL0     H36423   2.278   8.988   4.848 -0.7560  0.8326  0.0437
  270MOL0     H36424   2.379   8.773   4.966 -2.8487 -0.2497 -0.4416
  270MOL0     H36425   2.446   8.919   5.006  1.0246 -1.2084 -1.4677
  270MOL0     H36426   2.236   8.802   5.166 -1.4668  1.0999 -2.0025
  270MOL0     H36427   2.312   8.960   5.208 -1.9013 -1.2329  2.6945
  270MOL0     H36428   2.520   8.859   5.261  1.9041 -0.9014 -2.5994
  270MOL0     H36429   2.395   8.759   5.332  1.5055 -0.8776  0.5939
  270MOL0     H36430   1.599   8.631   4.982  2.2660  0.8960 -2.2917
  270MOL0     H36431   1.344   8.625   5.004 -0.7288 -0.4489 -2.1432
  270MOL0     H36432   0.949   8.597   4.691  0.0788  1.3414 -0.8661
  270MOL0     H36433   0.708   8.578   4.706 -1.7674 -0.1035  1.0067
  270MOL0     H36434   0.298   8.346   6.139  0.4361 -0.0216 -0.3130
  270MOL0     H36435   0.545   8.295   6.112  1.2378 -1.3606 -0.2638
  270MOL0     H36436   0.907   8.398   5.871 -0.1809 -0.6663  2.6359
  270MOL0     H36437   1.157   8.389   5.817 -0.9879 -0.1035 -2.8481
  270MOL0     H36438   1.337   8.217   5.957 -0.7628  3.3440 -0.4179
  270MOL0     H36439   1.390   8.331   5.839  2.8052  0.7783  1.8215
  270MOL0     H36440   1.515   8.055   5.854  1.4105  0.6805 -0.1401
  270MOL0     H36441   1.591   8.223   5.900  0.1128  1.6193  0.1070
  270MOL0     H36442   1.556   8.285   5.659  0.2452 -0.6806 -1.6715
  270MOL0     H36443   1.512   8.120   5.617  2.7148 -1.4152 -0.2430
  270MOL0     H36444   1.748   8.044   5.696 -0.7672 -0.8227  2.6170
  270MOL0     H36445   1.758   8.162   5.566 -2.6834  1.0606 -0.0996
  270MOL0     H36446   1.960   8.366   5.873 -1.4441 -1.0335  4.6800
  270MOL0     H36447   1.124   7.964   5.761  0.0061  0.2581  2.0055
  270MOL0     H36448   0.850   7.872   5.843 -2.3596 -0.1436 -0.0585
  270MOL0     H36449   0.767   7.965   5.720 -2.1633 -1.4793  4.1661
  270MOL0     H36450   0.914   7.892   5.678  2.6277  1.3313  1.2315
  271MOL0     O36451   3.601   8.699   6.208  1.0832 -0.5276  0.4527
  271MOL0     C36452   3.594   8.825   6.220 -0.2732 -0.2121  0.7943
  271MOL0     O36453   3.686   8.900   6.281  0.6258 -0.8208 -0.3268
  271MOL0     C36454   3.807   8.844   6.321  0.1755 -1.4989  0.3391
  271MOL0     C36455   3.859   8.886   6.442 -0.0035  1.4494 -0.4743
  271MOL0     C36456   3.984   8.837   6.475  0.8257  0.4193 -0.7972
  271MOL0     C36457   4.054   8.745   6.406 -0.3803 -0.3826  0.5231
  271MOL0     O36458   4.167   8.685   6.459  0.2523  0.4787 -0.3183
  271MOL0     C36459   4.193   8.543   6.442  1.0093 -0.4574  0.4680
  271MOL0     C36460   4.300   8.482   6.538  0.0994 -0.3570 -0.1583
  271MOL0     C36461   4.298   8.332   6.516  1.0064 -0.5776  0.8103
  271MOL0     C36462   4.389   8.247   6.605 -0.3325 -0.4452 -0.0721
  271MOL0     C36463   4.543   8.280   6.601  0.3606 -0.4013 -0.1668
  271MOL0     C36464   4.593   8.249   6.457 -0.3719  0.2710 -0.2173
  271MOL0     C36465   4.745   8.273   6.456 -0.6167  0.3163  0.6360
  271MOL0     C36466   4.804   8.279   6.313 -0.1270 -0.2669  0.4659
  271MOL0     N36467   4.935   8.358   6.301  0.4281 -1.1779 -0.1133
  271MOL0     C36468   5.050   8.290   6.284 -0.6259  0.3972  0.8533
  271MOL0     C36469   5.130   8.385   6.229 -0.5499  0.0271  0.3899
  271MOL0     C36470   5.268   8.372   6.179  0.7633 -0.0932  0.5148
  271MOL0     C36471   5.277   8.296   6.052 -0.0458  0.3412  0.9598
  271MOL0     C36472   5.408   8.312   5.990 -1.1842  0.4472 -0.7110
  271MOL0     C36473   5.451   8.199   5.888  0.7941  0.2982 -1.2331
  271MOL0     O36474   5.582   8.229   5.843 -0.1172 -0.6892  0.1692
  271MOL0     C36475   5.666   8.121   5.825 -0.6540  0.2105  0.1084
  271MOL0     C36476   5.805   8.131   5.842 -0.1351  0.4387 -0.5619
  271MOL0     C36477   5.882   8.017   5.838  0.4065  0.2279  0.3217
  271MOL0     C36478   5.822   7.891   5.799  0.1794  0.1981  0.3417
  271MOL0     C36479   5.919   7.769   5.803  0.1373 -1.1595  0.2019
  271MOL0     O36480   6.046   7.779   5.842  0.1899  0.2858 -0.1178
  271MOL0     C36481   6.108   7.655   5.871 -1.1328 -0.5344 -0.5592
  271MOL0     C36482   6.045   7.574   5.965  0.0042 -0.4546 -0.7236
  271MOL0     C36483   6.091   7.441   5.984  0.5384 -0.9497  0.4472
  271MOL0     C36484   6.197   7.391   5.913  0.0010  0.6089 -0.6552
  271MOL0     O36485   6.247   7.260   5.906 -0.2460  0.4370 -0.6547
  271MOL0     C36486   6.261   7.206   6.032  0.0084  0.3164 -0.0129
  271MOL0     C36487   6.355   7.086   6.023  0.5905 -0.2328 -0.3968
  271MOL0     C36488   6.382   7.013   6.151 -0.5478 -0.0065 -0.0706
  271MOL0     C36489   6.474   6.896   6.114 -0.2708  0.5923  0.2560
  271MOL0     C36490   6.483   6.785   6.219 -0.1393 -0.5516  0.1097
  271MOL0     C36491   6.352   6.713   6.219 -0.1242  0.3220  0.0652
  271MOL0     C36492   6.342   6.633   6.343  0.6842 -0.5403  0.2220
  271MOL0     C36493   6.290   6.701   6.467 -0.2393 -0.8087  0.0280
  271MOL0    Cl36494   6.290   6.564   6.589  0.4983  0.1511  0.4372
  271MOL0     C36495   6.267   7.479   5.819 -0.3963  0.2500  0.0950
  271MOL0     C36496   6.222   7.614   5.799 -0.7934  0.4857 -0.3221
  271MOL0     O36497   5.865   7.665   5.760 -0.2025 -0.0435 -0.0449
  271MOL0     C36498   5.683   7.886   5.772 -0.1580  0.5008 -0.3402
  271MOL0     C36499   5.615   8.002   5.776 -0.1488 -0.8716 -0.9905
  271MOL0     N36500   5.065   8.505   6.207  0.0522  0.1217 -0.5578
  271MOL0     N36501   4.953   8.484   6.253  0.4761  0.3863 -0.4970
  271MOL0     C36502   4.011   8.711   6.274  0.2365 -0.7173 -1.1248
  271MOL0     C36503   3.889   8.771   6.234  0.5241 -0.0308 -0.3115
  271MOL0     C36504   3.495   8.906   6.134  0.0589  0.5009 -0.9577
  271MOL0     C36505   3.511   9.043   6.113  0.5216 -0.1519 -0.1638
  271MOL0     C36506   3.420   9.122   6.036  0.1731 -0.1468  0.2644
  271MOL0     C36507   3.311   9.057   5.981 -0.3673 -0.5170  0.9295
  271MOL0     O36508   3.204   9.121   5.905  0.4676 -0.9248  0.0468
  271MOL0     C36509   3.227   9.257   5.859  0.0529 -0.0568  0.3486
  271MOL0     C36510   3.104   9.291   5.782  0.5851  0.1038 -0.0844
  271MOL0     C36511   3.074   9.192   5.663 -0.1784 -0.5368 -0.1672
  271MOL0     C36512   2.947   9.241   5.590 -0.4080  0.5567 -0.3949
  271MOL0     C36513   2.910   9.140   5.491 -0.3606  0.4441 -0.7541
  271MOL0     C36514   2.895   9.041   5.413  0.4544 -0.6299  0.1552
  271MOL0     C36515   3.277   8.924   6.002 -0.0708 -0.1330 -0.0747
  271MOL0     C36516   3.374   8.847   6.078  0.3588  0.2528  0.2666
  271MOL0     C36517   3.319   8.713   6.110 -0.2006 -0.3697 -0.5569
  271MOL0     H36518   3.789   8.934   6.509 -0.7232 -0.9579  0.6014
  271MOL0     H36519   4.038   8.873   6.563 -1.5174 -2.1441  1.9038
  271MOL0     H36520   4.105   8.484   6.468  0.8807 -0.6231 -0.3228
  271MOL0     H36521   4.215   8.524   6.337  0.6327 -2.0556  0.6646
  271MOL0     H36522   4.261   8.495   6.639  1.0671 -0.6073  0.2607
  271MOL0     H36523   4.398   8.522   6.509  0.1343 -1.4843 -1.7622
  271MOL0     H36524   4.330   8.320   6.413 -3.0988  1.0680 -0.8735
  271MOL0     H36525   4.199   8.289   6.533  1.6981 -1.7036  2.2138
  271MOL0     H36526   4.358   8.264   6.708 -2.2696  5.0023 -1.2347
  271MOL0     H36527   4.381   8.138   6.601 -2.6778 -0.2911 -1.6282
  271MOL0     H36528   4.568   8.385   6.614 -2.4843  0.4214 -0.5560
  271MOL0     H36529   4.600   8.218   6.670  0.0978 -1.0553 -0.5256
  271MOL0     H36530   4.568   8.149   6.422  0.7611  0.7613 -2.6363
  271MOL0     H36531   4.537   8.308   6.382  2.6039  2.4425 -0.9073
  271MOL0     H36532   4.782   8.184   6.508 -4.7362  0.2088  3.8827
  271MOL0     H36533   4.775   8.366   6.505 -0.1897  0.1930  0.6188
  271MOL0     H36534   4.817   8.178   6.274 -0.0996 -1.5639  3.5783
  271MOL0     H36535   4.731   8.328   6.247  0.6159  2.2312  1.3646
  271MOL0     H36536   5.072   8.184   6.294 -1.9330  0.0014 -0.1713
  271MOL0     H36537   5.306   8.474   6.173  2.1688 -0.6219 -0.0079
  271MOL0     H36538   5.332   8.322   6.251  1.2398  0.8723  0.7729
  271MOL0     H36539   5.267   8.188   6.065 -0.9058  0.3066  0.1693
  271MOL0     H36540   5.204   8.337   5.981  2.5142  1.2977 -1.2885
  271MOL0     H36541   5.483   8.303   6.069 -0.4017 -0.6965 -1.5568
  271MOL0     H36542   5.418   8.413   5.949  0.7261  2.1005  3.2643
  271MOL0     H36543   5.383   8.200   5.803 -0.0540 -3.7007 -0.7893
  271MOL0     H36544   5.448   8.111   5.954  2.7970  2.2620  1.7298
  271MOL0     H36545   5.853   8.224   5.869 -0.4747  0.1024  1.2946
  271MOL0     H36546   5.989   8.026   5.852  0.4304  1.2757 -0.4586
  271MOL0     H36547   5.957   7.594   6.026  1.2741  0.5417  0.8806
  271MOL0     H36548   6.037   7.392   6.064  0.3963 -0.5471  0.5981
  271MOL0     H36549   6.297   7.276   6.108 -0.8746 -1.1462  1.8139
  271MOL0     H36550   6.159   7.174   6.055 -0.8905  2.2741 -0.9840
  271MOL0     H36551   6.326   7.011   5.949 -2.5786  0.7227 -0.2354
  271MOL0     H36552   6.451   7.127   5.988 -0.3234  0.9311 -1.6159
  271MOL0     H36553   6.418   7.074   6.233 -0.9118 -1.1612  0.9804
  271MOL0     H36554   6.285   6.979   6.189 -0.0895  0.5446  1.6383
  271MOL0     H36555   6.571   6.935   6.083 -0.7094  0.7912 -0.9158
  271MOL0     H36556   6.436   6.835   6.032  2.7618 -0.8359 -0.2338
  271MOL0     H36557   6.495   6.831   6.318  0.1254 -0.9702  0.2745
  271MOL0     H36558   6.562   6.716   6.188  0.7615  1.6596 -3.0391
  271MOL0     H36559   6.257   6.764   6.199  0.5507  0.4572 -3.3382
  271MOL0     H36560   6.350   6.640   6.138  1.7859  0.2071  0.0685
  271MOL0     H36561   6.437   6.586   6.368  1.7622  2.1914  1.7441
  271MOL0     H36562   6.271   6.553   6.322 -0.5655  0.0122  2.0263
  271MOL0     H36563   6.359   6.780   6.498  1.1219 -1.3228 -1.6005
  271MOL0     H36564   6.188   6.738   6.448 -0.3615  1.0169  3.4973
  271MOL0     H36565   6.350   7.436   5.764  1.0375  1.7548  0.9991
  271MOL0     H36566   6.278   7.675   5.729  3.3764 -1.8939  0.6191
  271MOL0     H36567   5.633   7.792   5.755 -0.9499  0.8235  0.1636
  271MOL0     H36568   5.507   7.998   5.768 -0.0670  0.5352 -3.6535
  271MOL0     H36569   4.062   8.640   6.210  2.9672  1.7947 -1.9719
  271MOL0     H36570   3.854   8.740   6.137 -1.1929  4.4546 -1.3790
  271MOL0     H36571   3.590   9.102   6.159  0.5033 -1.3711  1.5020
  271MOL0     H36572   3.412   9.230   6.042  0.1529 -0.1899  1.1776
  271MOL0     H36573   3.317   9.254   5.797  1.0397  0.0450  1.7218
  271MOL0     H36574   3.249   9.323   5.944 -1.0495 -0.0983  0.6774
  271MOL0     H36575   3.110   9.393   5.742  0.5123  0.7987  1.5938
  271MOL0     H36576   3.022   9.296   5.854  1.0228 -0.9610  0.5117
  271MOL0     H36577   3.051   9.095   5.708  0.6937  0.1064  1.7571
  271MOL0     H36578   3.154   9.180   5.590  1.1359 -0.7246  1.2650
  271MOL0     H36579   2.876   9.245   5.673  2.8951 -0.3430  2.7090
  271MOL0     H36580   2.973   9.337   5.545 -0.4462  1.8774  2.1855
  271MOL0     H36581   2.900   8.958   5.346 -3.1588 -0.4141 -0.5669
  271MOL0     H36582   3.189   8.897   5.945 -0.6695 -1.2043  1.2955
  271MOL0     H36583   3.393   8.641   6.076  0.3392  0.1630 -0.5196
  271MOL0     H36584   3.334   8.698   6.218  1.6343  0.3474 -0.6798
  271MOL0     H36585   3.219   8.678   6.080  0.2191 -0.1645 -2.2929
  272MOL0     O36586   2.325   3.332  10.246  0.4390 -0.3326 -0.0330
  272MOL0     C36587   2.410   3.249  10.278 -0.2617  0.0214  0.3648
  272MOL0     O36588   2.413   3.113  10.230  0.1384  0.1126  0.5437
  272MOL0     C36589   2.318   3.079  10.137  0.3708  0.6901 -1.2358
  272MOL0     C36590   2.257   2.952  10.131 -0.7150  0.3626 -0.7165
  272MOL0     C36591   2.191   2.913  10.012  0.8270  0.6218  0.3055
  272MOL0     C36592   2.175   2.992   9.899 -0.0259 -0.1043  0.0619
  272MOL0     O36593   2.111   2.948   9.780  0.4348 -0.1516  0.0918
  272MOL0     C36594   2.000   3.026   9.740  0.4924  0.3617 -0.3213
  272MOL0     C36595   1.875   2.949   9.780  0.1796  0.1371  0.1929
  272MOL0     C36596   1.744   2.989   9.703  0.2657  0.4778 -0.3469
  272MOL0     C36597   1.683   3.113   9.767  0.2351 -0.1646 -0.1349
  272MOL0     C36598   1.595   3.186   9.665  0.2325  0.0303 -0.1862
  272MOL0     C36599   1.520   3.313   9.712 -0.4156 -0.5088  0.2762
  272MOL0     C36600   1.626   3.425   9.736  0.2103  0.4134 -0.2844
  272MOL0     C36601   1.621   3.553   9.645 -0.5207  0.5302  0.0580
  272MOL0     N36602   1.690   3.539   9.518 -0.1803  0.3446  0.4209
  272MOL0     C36603   1.643   3.452   9.424 -0.0436  0.2620  0.1537
  272MOL0     C36604   1.740   3.454   9.331  0.2070 -0.6956 -0.3305
  272MOL0     C36605   1.729   3.370   9.207 -1.3177 -1.0221  0.8556
  272MOL0     C36606   1.633   3.418   9.099 -0.2922 -0.1703  0.4216
  272MOL0     C36607   1.652   3.560   9.022  0.0530  0.5704 -0.0876
  272MOL0     C36608   1.763   3.544   8.910  0.8005 -0.0118  0.0232
  272MOL0     O36609   1.886   3.472   8.933 -0.3806 -0.5297  0.4527
  272MOL0     C36610   1.987   3.478   8.840  0.1622  0.3100 -0.7650
  272MOL0     C36611   2.112   3.492   8.896  1.0434  0.6814  0.0308
  272MOL0     C36612   2.222   3.523   8.823 -0.3203  0.4633  0.5201
  272MOL0     C36613   2.213   3.543   8.684  0.8094  0.0749 -1.3791
  272MOL0     C36614   2.332   3.585   8.606 -0.0649  0.4549  0.1253
  272MOL0     O36615   2.449   3.584   8.675 -0.8086 -0.2781  0.3257
  272MOL0     C36616   2.561   3.575   8.600 -0.5364 -0.2520  0.5926
  272MOL0     C36617   2.652   3.673   8.624 -0.2330  0.1654  0.8207
  272MOL0     C36618   2.770   3.696   8.546 -0.1777  0.3511  0.1703
  272MOL0     C36619   2.794   3.607   8.442  0.4295  0.9669 -0.9022
  272MOL0     O36620   2.893   3.653   8.353  0.1220 -0.6171 -0.2254
  272MOL0     C36621   2.869   3.631   8.213  0.6778  0.6483 -0.6343
  272MOL0     C36622   2.973   3.693   8.118  1.3125  0.0214 -0.4380
  272MOL0     C36623   2.919   3.827   8.071  0.3249  0.3182 -0.2895
  272MOL0     C36624   3.018   3.893   7.981  0.4331  0.5803  0.6028
  272MOL0     C36625   3.122   3.961   8.071  0.0513 -0.0345  0.7360
  272MOL0     C36626   3.223   4.034   7.986  1.3082  0.7949 -0.7018
  272MOL0     C36627   3.345   4.097   8.060 -0.2987  0.3011  0.2186
  272MOL0     C36628   3.446   3.992   8.096 -0.5632 -0.3378 -0.4595
  272MOL0    Cl36629   3.586   3.980   7.975 -0.0025 -0.3793 -0.4084
  272MOL0     C36630   2.714   3.487   8.427  0.7726  0.2724 -0.6385
  272MOL0     C36631   2.600   3.472   8.505  0.2800 -0.8723 -1.4287
  272MOL0     O36632   2.321   3.588   8.482 -0.4166  0.4858  0.7398
  272MOL0     C36633   2.085   3.523   8.626  0.0753 -0.9067  0.0643
  272MOL0     C36634   1.969   3.498   8.698 -1.0118 -0.7338  0.4920
  272MOL0     N36635   1.843   3.537   9.376 -0.0065  0.8192  0.9586
  272MOL0     N36636   1.803   3.601   9.478  0.1910  0.3074 -0.8282
  272MOL0     C36637   2.243   3.114   9.902 -0.0236 -0.2800 -0.2307
  272MOL0     C36638   2.315   3.162  10.019  0.0377  0.1802  0.2956
  272MOL0     C36639   2.493   3.281  10.399  0.2971  0.6746 -0.1436
  272MOL0     C36640   2.537   3.178  10.486 -0.1591  0.0491  0.7098
  272MOL0     C36641   2.621   3.197  10.599  0.5438  0.0021 -0.6894
  272MOL0     C36642   2.669   3.321  10.630 -0.3286 -0.6801  0.5729
  272MOL0     O36643   2.758   3.317  10.731  0.1285 -0.2186 -0.0596
  272MOL0     C36644   2.838   3.427  10.756 -0.2267 -0.0760 -0.3560
  272MOL0     C36645   2.924   3.398  10.881  0.3557 -0.1295 -0.2361
  272MOL0     C36646   2.845   3.390  11.017  0.2671 -0.1142 -0.0207
  272MOL0     C36647   2.942   3.411  11.143  0.5656 -0.5338 -0.2529
  272MOL0     C36648   3.012   3.537  11.152 -0.2718  0.1617  0.2199
  272MOL0     C36649   3.092   3.636  11.149  0.3469  0.3492  0.1280
  272MOL0     C36650   2.622   3.433  10.546  0.0241  0.8251  0.6378
  272MOL0     C36651   2.543   3.417  10.428  0.9366  0.8141  0.0364
  272MOL0     C36652   2.513   3.535  10.336 -0.1421  0.5882  0.1069
  272MOL0     H36653   2.269   2.886  10.217 -2.1050  1.1128  0.0918
  272MOL0     H36654   2.149   2.813  10.020  0.4685  0.6562 -0.8760
  272MOL0     H36655   1.986   3.131   9.768 -0.7165  0.3711 -0.9031
  272MOL0     H36656   2.007   3.022   9.630  2.2865  1.0806 -0.2708
  272MOL0     H36657   1.856   2.938   9.887  0.7428  0.5978  0.3461
  272MOL0     H36658   1.898   2.851   9.737  3.1882  0.6020  0.5248
  272MOL0     H36659   1.661   2.919   9.707 -0.9323  1.5406 -3.1984
  272MOL0     H36660   1.766   3.007   9.597 -0.8566  1.5396 -0.4275
  272MOL0     H36661   1.620   3.077   9.849 -0.7094 -1.8207 -1.5212
  272MOL0     H36662   1.758   3.185   9.801 -1.9367  3.0680 -1.6051
  272MOL0     H36663   1.657   3.208   9.578  2.1976 -0.6795  0.9785
  272MOL0     H36664   1.527   3.107   9.633 -0.6544  0.8005 -0.2634
  272MOL0     H36665   1.452   3.350   9.635  1.0949  2.2766  0.1488
  272MOL0     H36666   1.470   3.297   9.808 -0.9769  2.9257  0.6784
  272MOL0     H36667   1.727   3.386   9.753  1.0675  2.4667 -0.4676
  272MOL0     H36668   1.598   3.456   9.837 -0.8236  1.1248 -0.7750
  272MOL0     H36669   1.523   3.598   9.626 -0.4368  1.7833  2.3085
  272MOL0     H36670   1.677   3.632   9.695  0.2203  0.5473 -0.7605
  272MOL0     H36671   1.551   3.395   9.418 -0.6510  1.3209 -0.9039
  272MOL0     H36672   1.829   3.359   9.163  0.0004 -1.9754  3.8240
  272MOL0     H36673   1.695   3.269   9.231  0.3808 -2.7388 -3.1708
  272MOL0     H36674   1.631   3.338   9.025  0.1715 -1.9369  2.2353
  272MOL0     H36675   1.533   3.428   9.141  0.2867 -1.2244  2.1678
  272MOL0     H36676   1.674   3.637   9.097  1.5405 -0.6705  0.8275
  272MOL0     H36677   1.552   3.578   8.981  0.1258 -0.6373 -0.8489
  272MOL0     H36678   1.781   3.645   8.871 -0.1833  0.0300 -0.3677
  272MOL0     H36679   1.708   3.490   8.832  1.0596 -2.0799  1.1974
  272MOL0     H36680   2.128   3.467   9.001  0.4888 -0.8886 -0.2217
  272MOL0     H36681   2.320   3.531   8.870  0.2355  1.2465 -0.7142
  272MOL0     H36682   2.622   3.729   8.712 -3.0021  0.9621 -0.5315
  272MOL0     H36683   2.823   3.789   8.558 -1.2044  1.5499 -3.3430
  272MOL0     H36684   2.879   3.522   8.205  2.4808  0.8675 -2.0060
  272MOL0     H36685   2.770   3.662   8.178  0.4060  1.7000  0.9543
  272MOL0     H36686   3.074   3.694   8.158  1.0356  1.0172  0.2745
  272MOL0     H36687   2.967   3.635   8.025  0.0673 -0.8681  0.1668
  272MOL0     H36688   2.821   3.816   8.024  0.4614 -0.4057 -0.4181
  272MOL0     H36689   2.890   3.890   8.156 -1.3329  2.2035 -2.1581
  272MOL0     H36690   2.975   3.966   7.911 -1.8502 -0.0346  1.2809
  272MOL0     H36691   3.069   3.823   7.914 -0.5757  0.7318 -0.3515
  272MOL0     H36692   3.178   3.890   8.134 -1.8648 -1.1290  1.2924
  272MOL0     H36693   3.070   4.033   8.134 -0.2491  2.5997 -2.3219
  272MOL0     H36694   3.264   3.969   7.908  2.3203  0.6900 -0.1020
  272MOL0     H36695   3.156   4.112   7.950 -0.3523 -1.9568 -4.3217
  272MOL0     H36696   3.307   4.145   8.150 -2.1443 -0.5751 -0.0418
  272MOL0     H36697   3.382   4.174   7.992 -0.3910 -2.2151 -2.9309
  272MOL0     H36698   3.496   4.018   8.189  1.3382 -0.9605 -1.2633
  272MOL0     H36699   3.393   3.898   8.112  2.1931 -1.6059  2.0125
  272MOL0     H36700   2.727   3.417   8.345 -1.7172 -1.0891  0.0644
  272MOL0     H36701   2.532   3.390   8.485  0.4856 -0.6691 -3.0533
  272MOL0     H36702   2.072   3.522   8.519 -2.0425 -3.3620  0.2395
  272MOL0     H36703   1.870   3.501   8.654  0.3630  0.0407 -2.8409
  272MOL0     H36704   2.241   3.167   9.807  1.4754 -0.0921 -0.1742
  272MOL0     H36705   2.372   3.254  10.014 -1.4642  1.1415  0.3883
  272MOL0     H36706   2.518   3.072  10.469  1.7940 -0.5922  2.1316
  272MOL0     H36707   2.643   3.117  10.668 -1.4163  0.1595  0.1849
  272MOL0     H36708   2.787   3.522  10.776  0.0421  0.2428 -1.1551
  272MOL0     H36709   2.901   3.439  10.667  0.2717  1.2920  0.1454
  272MOL0     H36710   3.004   3.472  10.891  1.4609 -1.3781  0.3184
  272MOL0     H36711   2.971   3.302  10.861 -2.8294 -1.7476 -0.6551
  272MOL0     H36712   2.807   3.287  11.023  2.2398 -1.1304 -2.6155
  272MOL0     H36713   2.761   3.460  11.018  0.0712 -0.3019 -1.3584
  272MOL0     H36714   2.899   3.392  11.242 -1.6395  1.0299 -0.8361
  272MOL0     H36715   3.028   3.344  11.134  0.7509 -0.3844  0.3446
  272MOL0     H36716   3.137   3.733  11.153  0.6699  0.2015  0.0990
  272MOL0     H36717   2.651   3.532  10.580  1.5093  0.1708  1.3947
  272MOL0     H36718   2.425   3.596  10.359 -0.5213 -0.0357  0.3628
  272MOL0     H36719   2.602   3.598  10.335  1.0371 -1.0142 -0.9607
  272MOL0     H36720   2.504   3.503  10.232 -1.9533 -2.8520  1.1314
  273MOL0     O36721   1.575   8.280  11.343 -0.4444  0.0612  0.3830
  273MOL0     C36722   1.521   8.179  11.385 -0.4129  0.4654 -0.4447
  273MOL0     O36723   1.582   8.086  11.476 -0.1211  0.7235 -0.0796
  273MOL0     C36724   1.721   8.094  11.483 -0.0427 -0.2034  0.6626
  273MOL0     C36725   1.793   7.984  11.450 -0.0391  0.2262  0.4556
  273MOL0     C36726   1.932   7.978  11.463 -0.7833 -0.0775  0.1403
  273MOL0     C36727   1.999   8.087  11.524  0.7012  0.1981 -0.5830
  273MOL0     O36728   2.126   8.068  11.564 -0.2312 -0.3454  0.7510
  273MOL0     C36729   2.214   8.168  11.627  0.1634  0.1406 -0.5836
  273MOL0     C36730   2.352   8.104  11.635 -0.7847 -0.0410  0.0375
  273MOL0     C36731   2.461   8.205  11.644 -0.2539 -0.1321 -0.5517
  273MOL0     C36732   2.445   8.314  11.755  1.0759  0.9691 -0.5194
  273MOL0     C36733   2.569   8.410  11.768  0.1533 -0.0516  0.2008
  273MOL0     C36734   2.535   8.500  11.878  0.4094  0.4952  0.3196
  273MOL0     C36735   2.636   8.611  11.906  0.1325  0.3039  0.0609
  273MOL0     C36736   2.610   8.691  12.041  0.1404  0.8259  0.7075
  273MOL0     N36737   2.615   8.595  12.159  0.0411 -0.7521 -0.0630
  273MOL0     C36738   2.725   8.522  12.196 -0.2822  0.6735 -0.5847
  273MOL0     C36739   2.696   8.456  12.315 -0.4961  0.0536  1.5988
  273MOL0     C36740   2.801   8.387  12.391  0.0939  0.1982 -0.2327
  273MOL0     C36741   2.749   8.350  12.535  0.4693 -1.1396 -0.2770
  273MOL0     C36742   2.842   8.264  12.627 -0.4588  0.0590 -0.1609
  273MOL0     C36743   2.887   8.130  12.565 -0.0608  0.7669  0.5394
  273MOL0     O36744   2.997   8.159  12.469  0.0910  0.6444  0.0600
  273MOL0     C36745   3.010   8.064  12.363 -0.2154 -0.4750 -0.4799
  273MOL0     C36746   3.110   8.083  12.275  0.5760 -0.6057  0.6763
  273MOL0     C36747   3.139   7.998  12.165  0.5655  0.2944 -0.9294
  273MOL0     C36748   3.059   7.891  12.137  0.8577  0.7971  0.1330
  273MOL0     C36749   3.082   7.813  12.013  0.4257  0.0080  0.4959
  273MOL0     O36750   3.213   7.789  11.983  0.0378 -0.1606 -0.9598
  273MOL0     C36751   3.248   7.702  11.892 -0.1266  1.0263 -0.6416
  273MOL0     C36752   3.214   7.699  11.759  0.3136  0.2466  0.1674
  273MOL0     C36753   3.276   7.607  11.672 -0.0194 -0.1353 -0.0348
  273MOL0     C36754   3.374   7.519  11.713 -0.2204 -0.5099 -0.8629
  273MOL0     O36755   3.426   7.442  11.615  1.2440  0.6280 -0.5846
  273MOL0     C36756   3.471   7.310  11.657 -0.0802  0.4370  0.1147
  273MOL0     C36757   3.453   7.207  11.545 -0.2055  0.3831 -0.0241
  273MOL0     C36758   3.303   7.182  11.504  0.5867  0.5836 -0.2921
  273MOL0     C36759   3.290   7.066  11.399  0.0282  0.0803  0.0318
  273MOL0     C36760   3.174   7.072  11.298  0.1512 -0.1819  0.2376
  273MOL0     C36761   3.208   6.968  11.189 -0.7762  0.6795  0.2004
  273MOL0     C36762   3.103   6.942  11.085 -0.3125 -0.2718  0.6129
  273MOL0     C36763   3.089   7.060  10.992 -0.3262 -0.1970 -0.0252
  273MOL0    Cl36764   2.955   7.028  10.891 -0.0349  0.0596 -0.1659
  273MOL0     C36765   3.401   7.519  11.848  0.3627  0.6457  1.0782
  273MOL0     C36766   3.345   7.608  11.940 -0.1206 -0.3014 -0.6110
  273MOL0     O36767   2.984   7.756  11.961 -0.4224  1.0252 -0.7167
  273MOL0     C36768   2.941   7.883  12.212  0.5680  0.3010  0.0405
  273MOL0     C36769   2.923   7.959  12.332 -0.5772  0.3558 -0.5725
  273MOL0     N36770   2.557   8.477  12.330  0.2829  0.2761 -0.8378
  273MOL0     N36771   2.510   8.547  12.233  0.4063  0.0441  0.3162
  273MOL0     C36772   1.924   8.198  11.566 -0.5034 -0.1926  0.3251
  273MOL0     C36773   1.783   8.209  11.539 -0.6959 -0.0485  0.3717
  273MOL0     C36774   1.386   8.145  11.340 -0.1400 -0.1134  0.0965
  273MOL0     C36775   1.337   8.016  11.381  0.5648  0.0018 -0.6726
  273MOL0     C36776   1.205   7.982  11.377 -1.1029 -0.4335  0.5843
  273MOL0     C36777   1.122   8.077  11.314 -0.0310  0.3577 -0.6903
  273MOL0     O36778   0.991   8.045  11.306 -0.0773  0.7569  0.2813
  273MOL0     C36779   0.939   7.950  11.207 -0.1146  0.3298 -0.1932
  273MOL0     C36780   0.900   8.009  11.065 -0.2218 -0.5951  0.1130
  273MOL0     C36781   0.876   7.892  10.966 -0.6273  0.1930  0.0024
  273MOL0     C36782   0.802   7.942  10.839  0.2580 -0.6190  0.0757
  273MOL0     C36783   0.669   7.996  10.880 -0.8677 -0.2645 -0.3334
  273MOL0     C36784   0.576   8.064  10.906  0.0961 -0.0727  0.9760
  273MOL0     C36785   1.166   8.189  11.249  0.0929 -0.4608  0.5849
  273MOL0     C36786   1.299   8.233  11.265  0.2797 -0.5865 -1.0011
  273MOL0     C36787   1.333   8.365  11.206 -0.7537 -0.3329 -0.1301
  273MOL0     H36788   1.755   7.899  11.394  0.3942 -0.0814  0.6228
  273MOL0     H36789   1.988   7.892  11.427  0.5349  1.3434 -1.4652
  273MOL0     H36790   2.232   8.253  11.561  2.3852 -2.2398 -3.3182
  273MOL0     H36791   2.169   8.193  11.724 -2.2990 -1.6316 -1.1797
  273MOL0     H36792   2.362   8.036  11.551 -1.2669  1.3341 -1.1702
  273MOL0     H36793   2.360   8.041  11.724  2.2167  2.0701  1.4320
  273MOL0     H36794   2.456   8.256  11.547 -0.8560  4.0309  1.4761
  273MOL0     H36795   2.557   8.153  11.659  0.0392  0.4616 -0.3404
  273MOL0     H36796   2.365   8.383  11.725  0.1421 -0.0140 -0.3709
  273MOL0     H36797   2.424   8.267  11.852  0.7621 -0.6212 -1.3334
  273MOL0     H36798   2.655   8.346  11.791  1.0318  0.4631 -1.5124
  273MOL0     H36799   2.582   8.473  11.679 -1.5965  2.3949  1.5578
  273MOL0     H36800   2.433   8.541  11.876 -1.4276 -3.4636  1.7466
  273MOL0     H36801   2.528   8.438  11.967 -0.3356  0.5095  0.2824
  273MOL0     H36802   2.610   8.678  11.824 -0.5154 -0.6902 -0.5768
  273MOL0     H36803   2.737   8.573  11.893 -0.4511 -3.0891  3.6138
  273MOL0     H36804   2.688   8.767  12.053 -0.5027  1.2314  2.4711
  273MOL0     H36805   2.513   8.740  12.032  1.2385  3.2127  0.9811
  273MOL0     H36806   2.818   8.532  12.141  0.6526  1.1339  1.0306
  273MOL0     H36807   2.817   8.294  12.336 -2.3433  1.6766 -3.8094
  273MOL0     H36808   2.890   8.451  12.396 -0.6620  1.2077  0.6641
  273MOL0     H36809   2.725   8.440  12.592  2.0247 -1.4503  0.9323
  273MOL0     H36810   2.659   8.291  12.513  0.2535 -0.8971 -0.0464
  273MOL0     H36811   2.791   8.248  12.723 -1.6941 -0.6770 -0.9193
  273MOL0     H36812   2.931   8.325  12.646 -1.1876  1.6960 -1.7219
  273MOL0     H36813   2.792   8.087  12.531 -1.0076  1.4441  2.1682
  273MOL0     H36814   2.926   8.058  12.638  0.5172  0.1410 -0.3650
  273MOL0     H36815   3.176   8.169  12.279  2.5890 -2.0376 -0.2558
  273MOL0     H36816   3.229   8.016  12.107 -1.0117 -1.4708 -4.2054
  273MOL0     H36817   3.141   7.767  11.716 -0.9088 -1.9615 -1.4818
  273MOL0     H36818   3.250   7.588  11.568  1.4564 -3.3554  0.0682
  273MOL0     H36819   3.577   7.325  11.681  0.0330  1.4885 -0.9970
  273MOL0     H36820   3.415   7.276  11.745  1.2268 -1.4895  0.2698
  273MOL0     H36821   3.498   7.239  11.451  0.2867 -1.1923 -0.3572
  273MOL0     H36822   3.494   7.109  11.572  0.8712  0.9259  0.3886
  273MOL0     H36823   3.238   7.167  11.591  1.5708  1.6500  0.6550
  273MOL0     H36824   3.260   7.269  11.453 -1.0827  0.3897  0.6801
  273MOL0     H36825   3.287   6.971  11.453 -2.0725  0.9219  1.5806
  273MOL0     H36826   3.386   7.081  11.348 -0.6419  0.2221 -1.2231
  273MOL0     H36827   3.168   7.171  11.251 -0.4474 -0.7409 -0.9121
  273MOL0     H36828   3.081   7.051  11.351 -0.0688 -1.7346 -0.6910
  273MOL0     H36829   3.306   6.984  11.142 -0.6881 -0.0036  0.1480
  273MOL0     H36830   3.223   6.876  11.246  2.0235 -0.2448 -1.7724
  273MOL0     H36831   3.004   6.926  11.130 -0.6033  0.2515  0.1617
  273MOL0     H36832   3.131   6.850  11.033 -0.7598 -0.4695  0.7047
  273MOL0     H36833   3.063   7.156  11.039  1.2367  0.1934  0.0980
  273MOL0     H36834   3.176   7.077  10.929 -1.4515  2.1107 -1.0994
  273MOL0     H36835   3.483   7.455  11.881 -0.1724 -2.4797 -2.8863
  273MOL0     H36836   3.371   7.608  12.045 -2.4910  1.1442  0.0639
  273MOL0     H36837   2.872   7.804  12.184  2.5746 -0.9230 -1.7940
  273MOL0     H36838   2.833   7.937  12.389  0.3884 -0.1541  0.7961
  273MOL0     H36839   1.984   8.273  11.615  1.2745 -0.5568 -1.1701
  273MOL0     H36840   1.721   8.297  11.556 -3.4969 -1.2355 -2.7345
  273MOL0     H36841   1.400   7.945  11.433  0.6870  1.4079  1.2056
  273MOL0     H36842   1.167   7.890  11.421  0.0480 -1.4433 -0.4771
  273MOL0     H36843   0.864   7.894  11.263  2.2023 -2.2493  0.5568
  273MOL0     H36844   1.009   7.870  11.183 -0.8965 -0.0085 -1.4274
  273MOL0     H36845   0.985   8.068  11.030 -1.0304  1.1976  0.9945
  273MOL0     H36846   0.814   8.075  11.080  0.3014  1.3228 -3.9148
  273MOL0     H36847   0.835   7.799  11.006  1.2684 -0.6661  0.0648
  273MOL0     H36848   0.976   7.866  10.930 -0.0331  0.1417  1.6168
  273MOL0     H36849   0.874   8.011  10.795 -0.1318  1.0512  1.9027
  273MOL0     H36850   0.779   7.862  10.768 -2.5978  1.7164 -1.8902
  273MOL0     H36851   0.481   8.108  10.927 -0.5307 -0.6162 -0.5321
  273MOL0     H36852   1.091   8.250  11.199  1.3673  0.0442 -0.7770
  273MOL0     H36853   1.433   8.354  11.163  0.5159 -0.8563  2.6936
  273MOL0     H36854   1.263   8.407  11.133 -1.3989  1.0898  1.2497
  273MOL0     H36855   1.322   8.441  11.284 -1.9396 -0.6573  0.0429
  274MOL0     O36856   3.821   9.812   2.200  0.1745 -0.0903 -0.2091
  274MOL0     C36857   3.841   9.854   2.318  0.7559  0.4366  0.7360
  274MOL0     O36858   3.749   9.924   2.391  0.4440  0.5468 -0.1264
  274MOL0     C36859   3.639  10.002   2.353  0.2998 -0.1113  0.2066
  274MOL0     C36860   3.561   9.976   2.239 -0.2733 -1.1409 -0.8807
  274MOL0     C36861   3.460  10.064   2.207 -0.4947 -0.8148 -0.0971
  274MOL0     C36862   3.421  10.164   2.298 -0.5265  0.2965 -0.6200
  274MOL0     O36863   3.312  10.248   2.269  0.5743  0.4159  0.4979
  274MOL0     C36864   3.328  10.389   2.290 -0.5361 -0.9182  0.2528
  274MOL0     C36865   3.286  10.465   2.158 -0.3190  0.1517  0.4466
  274MOL0     C36866   3.137  10.453   2.130  0.1681  0.1899  0.0958
  274MOL0     C36867   3.081  10.582   2.046 -0.7370  0.9304 -0.5616
  274MOL0     C36868   2.946  10.542   1.986 -0.3729  0.0779  0.0451
  274MOL0     C36869   2.863  10.664   1.947 -0.6516  0.3303 -0.5140
  274MOL0     C36870   2.939  10.762   1.847 -0.0789  0.4979 -0.0495
  274MOL0     C36871   2.853  10.882   1.793  0.3116 -0.9966  0.0858
  274MOL0     N36872   2.928  10.976   1.716  0.3304 -0.7169 -0.7470
  274MOL0     C36873   2.996  11.079   1.771  0.3930 -0.1215  0.1405
  274MOL0     C36874   3.052  11.135   1.664  0.0419 -0.0027  0.6421
  274MOL0     C36875   3.135  11.259   1.687 -0.0953  0.4061 -0.3611
  274MOL0     C36876   3.056  11.374   1.747 -0.4895 -0.2540 -0.7634
  274MOL0     C36877   2.956  11.434   1.644 -0.6000  0.8613  0.1384
  274MOL0     C36878   2.907  11.570   1.679 -0.5648 -0.2841 -0.5538
  274MOL0     O36879   2.814  11.597   1.577  0.1748  0.0439  0.0597
  274MOL0     C36880   2.721  11.695   1.601 -1.2111  0.1133  1.1942
  274MOL0     C36881   2.755  11.808   1.673  0.2386 -0.1938  0.5525
  274MOL0     C36882   2.654  11.905   1.693 -0.2824 -0.0734 -0.2106
  274MOL0     C36883   2.527  11.880   1.638  0.0824 -0.0454  0.4700
  274MOL0     C36884   2.420  11.972   1.661  0.1217 -0.5522 -0.3735
  274MOL0     O36885   2.312  11.968   1.572 -0.3062  0.1201  0.3350
  274MOL0     C36886   2.211  12.065   1.573  0.3700  0.4256  0.2271
  274MOL0     C36887   2.079  12.018   1.571 -0.1883  0.4147 -0.3039
  274MOL0     C36888   1.976  12.103   1.565 -0.2963 -0.6002  0.1300
  274MOL0     C36889   1.995  12.240   1.570 -0.5353 -0.5336 -0.6766
  274MOL0     O36890   1.902  12.336   1.541  0.4181 -0.2617 -0.4657
  274MOL0     C36891   1.773  12.288   1.493 -0.4238 -0.2890 -0.2444
  274MOL0     C36892   1.679  12.402   1.473 -0.4075 -0.9156 -0.1742
  274MOL0     C36893   1.554  12.351   1.408  0.1279  0.0454 -0.9359
  274MOL0     C36894   1.454  12.461   1.408  0.3743 -0.1423  0.0304
  274MOL0     C36895   1.337  12.430   1.318  1.0723  0.0088  0.9707
  274MOL0     C36896   1.240  12.547   1.302  0.2162 -0.1109 -0.3298
  274MOL0     C36897   1.101  12.522   1.241  0.7668 -0.1932  0.0256
  274MOL0     C36898   1.003  12.423   1.305 -0.9073  0.6600  0.8492
  274MOL0    Cl36899   0.904  12.484   1.435  0.2994  0.2399 -0.1693
  274MOL0     C36900   2.128  12.288   1.571 -0.5257 -1.1913  0.6155
  274MOL0     C36901   2.239  12.200   1.580  0.6329  0.0078 -0.7266
  274MOL0     O36902   2.421  12.054   1.754  0.0520 -0.0863 -0.2567
  274MOL0     C36903   2.488  11.766   1.570  0.4367 -0.8114  0.0217
  274MOL0     C36904   2.587  11.674   1.540  0.7790 -0.2931 -0.6361
  274MOL0     N36905   3.013  11.072   1.541 -0.1810 -0.6737 -0.1814
  274MOL0     N36906   2.932  10.979   1.582 -0.6529  0.5975 -0.0146
  274MOL0     C36907   3.503  10.194   2.411 -0.3156 -0.0625 -0.5367
  274MOL0     C36908   3.612  10.106   2.441 -0.1819 -0.3489  0.6196
  274MOL0     C36909   3.959   9.820   2.392 -0.6074 -0.1273  0.0394
  274MOL0     C36910   3.965   9.859   2.528  0.1791 -0.5239 -0.0858
  274MOL0     C36911   4.062   9.814   2.616  0.0039  0.0585 -0.0917
  274MOL0     C36912   4.168   9.738   2.557  0.2264 -0.3070 -0.4906
  274MOL0     O36913   4.264   9.667   2.632 -0.4957 -0.2036  0.1361
  274MOL0     C36914   4.257   9.679   2.782 -0.4746  0.1909  0.7054
  274MOL0     C36915   4.361   9.597   2.853  0.2436  0.1173 -0.1239
  274MOL0     C36916   4.358   9.446   2.817  0.1041  0.8839 -0.2975
  274MOL0     C36917   4.299   9.354   2.930 -0.7115 -0.7646  0.2384
  274MOL0     C36918   4.288   9.215   2.886  0.2118 -0.1487  0.4515
  274MOL0     C36919   4.266   9.103   2.825 -0.6329 -0.0928  0.7394
  274MOL0     C36920   4.170   9.709   2.421  0.0020 -0.3738 -0.9450
  274MOL0     C36921   4.063   9.745   2.341  0.5570 -0.3814  0.8759
  274MOL0     C36922   4.092   9.706   2.193  0.5042 -0.2714 -0.5327
  274MOL0     H36923   3.590   9.891   2.178 -1.8827 -1.7344 -0.8666
  274MOL0     H36924   3.410  10.066   2.111 -2.3379  4.2810  0.6410
  274MOL0     H36925   3.263  10.415   2.373 -0.2670 -0.6127  0.3702
  274MOL0     H36926   3.431  10.422   2.305 -1.2514  0.5251  2.3737
  274MOL0     H36927   3.355  10.427   2.082  0.2904  1.4559  0.3273
  274MOL0     H36928   3.313  10.571   2.165 -1.7203  0.6805 -1.4053
  274MOL0     H36929   3.080  10.430   2.221 -2.1233  1.0537 -1.0323
  274MOL0     H36930   3.124  10.367   2.065  0.7060  0.2173 -0.0516
  274MOL0     H36931   3.066  10.676   2.100  1.8029  1.8883 -1.4099
  274MOL0     H36932   3.149  10.602   1.963  0.2907  1.7539  0.4543
  274MOL0     H36933   2.956  10.477   1.898 -2.8039 -0.9640  0.4438
  274MOL0     H36934   2.896  10.477   2.059  0.9880  0.1871  1.1149
  274MOL0     H36935   2.767  10.635   1.902 -0.8746  1.5877 -0.8736
  274MOL0     H36936   2.852  10.719   2.041 -0.6767 -0.8185  0.1815
  274MOL0     H36937   2.974  10.706   1.760  1.2383 -0.2891  0.9432
  274MOL0     H36938   3.032  10.795   1.893  0.9538  0.1025 -1.7411
  274MOL0     H36939   2.768  10.852   1.732 -0.2012  1.7850 -0.7208
  274MOL0     H36940   2.816  10.930   1.884  0.2560  0.5162 -0.7084
  274MOL0     H36941   3.013  11.113   1.872 -0.2076  0.0727  0.1745
  274MOL0     H36942   3.211  11.237   1.762 -0.3834 -1.2260 -0.4975
  274MOL0     H36943   3.175  11.290   1.590 -4.8364  0.2861 -2.6482
  274MOL0     H36944   3.000  11.346   1.837 -1.3265 -0.2257 -1.2682
  274MOL0     H36945   3.112  11.456   1.792 -2.0223 -0.6175  2.0420
  274MOL0     H36946   2.860  11.381   1.642 -0.3472  0.4014 -1.6590
  274MOL0     H36947   2.995  11.427   1.542 -0.2049  0.2688  0.3220
  274MOL0     H36948   2.996  11.633   1.682 -1.7563  1.4313  1.5913
  274MOL0     H36949   2.865  11.578   1.780  0.9632 -0.3798  0.1162
  274MOL0     H36950   2.851  11.820   1.721 -0.9117  0.7967  2.7376
  274MOL0     H36951   2.672  11.999   1.744  1.1992 -0.3312 -0.2296
  274MOL0     H36952   2.061  11.913   1.550  0.8938  0.4272 -1.4288
  274MOL0     H36953   1.875  12.065   1.548 -0.1507 -0.5341 -0.9864
  274MOL0     H36954   1.781  12.229   1.401 -0.8776 -1.8015  0.6636
  274MOL0     H36955   1.723  12.221   1.563 -0.9411  1.3394  0.9984
  274MOL0     H36956   1.656  12.443   1.572  1.5435 -0.6937  0.2216
  274MOL0     H36957   1.730  12.476   1.410 -0.4325  1.4028  2.3625
  274MOL0     H36958   1.577  12.324   1.304 -2.1572  0.9365 -1.7391
  274MOL0     H36959   1.508  12.263   1.453  0.6335  2.1216  4.3676
  274MOL0     H36960   1.507  12.553   1.382  1.7736 -1.2374 -1.1133
  274MOL0     H36961   1.411  12.488   1.506  0.6837 -1.0440  0.4214
  274MOL0     H36962   1.287  12.341   1.357 -0.6087  0.7030  0.4870
  274MOL0     H36963   1.372  12.403   1.217 -0.7365  1.4808 -0.1216
  274MOL0     H36964   1.229  12.595   1.399 -0.4937  5.1212 -2.6885
  274MOL0     H36965   1.288  12.628   1.247 -3.3878  2.3920 -0.1526
  274MOL0     H36966   1.128  12.487   1.141  1.8966 -5.1834  1.7954
  274MOL0     H36967   1.041  12.613   1.240 -0.4977 -0.9432  1.6947
  274MOL0     H36968   0.921  12.403   1.235  0.0179  0.6159 -0.2473
  274MOL0     H36969   1.052  12.328   1.330  2.7726  2.0328 -0.5333
  274MOL0     H36970   2.155  12.393   1.572  0.9575 -1.5473  1.0484
  274MOL0     H36971   2.339  12.241   1.595  0.0802  0.6136  1.6895
  274MOL0     H36972   2.386  11.751   1.534  0.2263  1.7025 -0.6028
  274MOL0     H36973   2.569  11.575   1.501 -2.0589 -0.7805  1.5930
  274MOL0     H36974   3.478  10.265   2.490 -0.9742 -0.0732 -0.7250
  274MOL0     H36975   3.679  10.109   2.526 -3.1186 -2.2572  3.1777
  274MOL0     H36976   3.883   9.905   2.583 -0.7707 -1.9232 -0.2681
  274MOL0     H36977   4.068   9.833   2.722  3.2493  0.4854 -0.2346
  274MOL0     H36978   4.154   9.650   2.802 -0.4849  1.2287  2.3992
  274MOL0     H36979   4.268   9.785   2.809 -2.6495  0.1694  1.8950
  274MOL0     H36980   4.329   9.597   2.957 -2.4808 -1.4902 -0.8695
  274MOL0     H36981   4.461   9.639   2.839 -0.7462  2.0590 -1.9030
  274MOL0     H36982   4.456   9.408   2.784  0.2495  0.7642  0.2608
  274MOL0     H36983   4.296   9.431   2.729 -0.4912  3.8853 -0.5028
  274MOL0     H36984   4.349   9.358   3.027 -0.0175  0.0439 -0.1407
  274MOL0     H36985   4.201   9.395   2.954 -1.1778 -1.7142 -0.0260
  274MOL0     H36986   4.229   9.015   2.776 -2.2242  0.0506  1.5918
  274MOL0     H36987   4.253   9.650   2.384  0.0687 -0.6515 -0.3609
  274MOL0     H36988   4.149   9.614   2.178 -0.5298 -0.5206 -3.5278
  274MOL0     H36989   4.001   9.680   2.138 -0.0271 -1.3131  0.7835
  274MOL0     H36990   4.141   9.786   2.137  1.4242 -1.1684 -1.0275
  275MOL0     O36991   5.909   1.307   5.264 -0.2971 -0.3054  0.0642
  275MOL0     C36992   5.821   1.331   5.350  0.4412 -1.0574  1.0804
  275MOL0     O36993   5.798   1.256   5.451  0.0801  0.0000 -0.5284
  275MOL0     C36994   5.855   1.131   5.463 -0.0836  0.2345  0.6313
  275MOL0     C36995   5.784   1.004   5.446 -0.8686 -0.2297 -0.5481
  275MOL0     C36996   5.850   0.885   5.476 -0.1577 -0.5407 -0.0807
  275MOL0     C36997   5.980   0.888   5.514  0.2581 -0.1020  1.0298
  275MOL0     O36998   6.042   0.765   5.530  0.0567 -0.2599 -0.2164
  275MOL0     C36999   6.157   0.750   5.607 -0.3829 -0.2412 -0.7680
  275MOL0     C37000   6.159   0.615   5.676 -0.2716 -0.1489 -0.2723
  275MOL0     C37001   6.301   0.597   5.732  0.0914  0.1485  0.1106
  275MOL0     C37002   6.338   0.697   5.844  0.0273  0.0300 -0.3406
  275MOL0     C37003   6.468   0.664   5.908 -0.5298  1.1508 -0.2930
  275MOL0     C37004   6.595   0.678   5.823 -0.4981  0.0816 -0.5093
  275MOL0     C37005   6.733   0.666   5.908 -0.6435 -0.6607  0.3821
  275MOL0     C37006   6.778   0.526   5.912 -0.3318 -0.7081  0.1440
  275MOL0     N37007   6.904   0.515   5.980 -0.7794 -0.8406  0.2157
  275MOL0     C37008   7.023   0.557   5.929 -0.0313 -0.5785 -0.2926
  275MOL0     C37009   7.114   0.521   6.014 -0.0842  0.9910  0.6027
  275MOL0     C37010   7.258   0.547   6.004  0.2934 -0.6765 -0.3951
  275MOL0     C37011   7.308   0.637   6.128 -0.6921  0.2607 -0.7247
  275MOL0     C37012   7.286   0.787   6.126 -0.9498 -0.0409 -0.5400
  275MOL0     C37013   7.137   0.834   6.102 -0.5018 -0.2441 -0.2933
  275MOL0     O37014   7.115   0.854   5.964 -0.3372 -0.1440 -0.6180
  275MOL0     C37015   6.993   0.914   5.934  0.4483 -1.0673 -0.0009
  275MOL0     C37016   6.902   0.968   6.026 -0.0680  0.4435  0.0891
  275MOL0     C37017   6.788   1.036   5.974 -1.0358 -0.2238 -0.4321
  275MOL0     C37018   6.762   1.045   5.829 -0.3789 -0.0280 -0.2417
  275MOL0     C37019   6.633   1.097   5.776 -0.4632 -0.1082  1.2621
  275MOL0     O37020   6.571   1.191   5.853 -0.5188  0.3167  0.1213
  275MOL0     C37021   6.446   1.240   5.824 -0.2303  0.3412 -1.3107
  275MOL0     C37022   6.425   1.318   5.711 -0.6725 -0.9155 -0.4773
  275MOL0     C37023   6.302   1.358   5.682  1.0014 -0.4983 -0.2651
  275MOL0     C37024   6.201   1.346   5.775  0.4114  0.1173  0.5847
  275MOL0     O37025   6.073   1.400   5.757 -0.6212  0.1496  0.2771
  275MOL0     C37026   6.063   1.494   5.648 -0.8134 -0.5737  0.1514
  275MOL0     C37027   5.927   1.571   5.642 -0.0247  0.3508 -0.4830
  275MOL0     C37028   5.901   1.644   5.778 -1.0190 -0.3451 -0.1136
  275MOL0     C37029   5.779   1.737   5.752 -0.1738  0.1165  0.4441
  275MOL0     C37030   5.723   1.792   5.874 -0.4665 -0.1073  0.7016
  275MOL0     C37031   5.643   1.697   5.961 -0.4592  0.4991  0.3027
  275MOL0     C37032   5.595   1.761   6.087 -0.6222 -0.1953  0.5058
  275MOL0     C37033   5.490   1.688   6.162 -0.0912 -0.8665  0.1643
  275MOL0    Cl37034   5.451   1.794   6.298 -0.2291 -0.1441 -0.8472
  275MOL0     C37035   6.214   1.276   5.888  0.4084  0.1009  0.1826
  275MOL0     C37036   6.339   1.216   5.913 -0.5647 -0.2559 -0.5082
  275MOL0     O37037   6.598   1.065   5.660 -0.5831 -0.6004 -0.0215
  275MOL0     C37038   6.867   0.995   5.741  0.3617  0.4331 -0.8231
  275MOL0     C37039   6.978   0.920   5.791  1.3067 -0.4611 -0.1637
  275MOL0     N37040   7.052   0.443   6.107  0.4374  0.0683  0.1663
  275MOL0     N37041   6.924   0.433   6.080 -0.4719 -0.5465 -0.1267
  275MOL0     C37042   6.047   1.007   5.536 -0.1337 -0.6396 -0.3987
  275MOL0     C37043   5.985   1.130   5.511  0.0214 -0.2516  0.6416
  275MOL0     C37044   5.732   1.450   5.326 -0.1055  0.0113  0.0078
  275MOL0     C37045   5.781   1.570   5.257  0.2369  0.6129  0.3530
  275MOL0     C37046   5.702   1.686   5.240  0.3576  0.1420 -0.7361
  275MOL0     C37047   5.571   1.678   5.287  0.0183  0.0351 -0.6653
  275MOL0     O37048   5.480   1.787   5.271 -0.2998  0.6212 -0.3437
  275MOL0     C37049   5.523   1.926   5.263  0.1319  0.7545 -0.0331
  275MOL0     C37050   5.589   1.984   5.386  0.0984 -0.0238 -0.1122
  275MOL0     C37051   5.503   1.965   5.511 -0.1232 -0.6193  0.2386
  275MOL0     C37052   5.457   2.095   5.589  0.0389 -0.1905 -0.6997
  275MOL0     C37053   5.486   2.089   5.734  0.1107  0.1791 -0.0883
  275MOL0     C37054   5.502   2.104   5.852 -0.3782 -0.9502 -0.2805
  275MOL0     C37055   5.516   1.560   5.337 -0.2914 -0.4595  0.2787
  275MOL0     C37056   5.594   1.446   5.354  0.5422  0.3514  0.6625
  275MOL0     C37057   5.521   1.323   5.372  0.1999 -0.1682  0.0111
  275MOL0     H37058   5.681   1.009   5.413 -2.2318 -1.1998  3.0751
  275MOL0     H37059   5.777   0.805   5.468 -1.4492  0.7249 -1.2597
  275MOL0     H37060   6.248   0.764   5.548 -0.4877 -0.7638 -1.0569
  275MOL0     H37061   6.164   0.829   5.683  0.4393 -0.0587 -1.0228
  275MOL0     H37062   6.133   0.532   5.609  4.1180 -2.4160  0.4301
  275MOL0     H37063   6.086   0.612   5.757 -2.8306  0.2588 -2.4294
  275MOL0     H37064   6.361   0.595   5.641  0.5907  1.8119  0.3698
  275MOL0     H37065   6.298   0.495   5.772 -1.6634  0.4891  0.9347
  275MOL0     H37066   6.333   0.800   5.807 -1.5455 -0.4817 -1.7224
  275MOL0     H37067   6.271   0.680   5.929  1.4012 -1.4352  0.5060
  275MOL0     H37068   6.473   0.734   5.992  1.9425  0.8382 -0.1121
  275MOL0     H37069   6.466   0.564   5.951 -2.4206  0.7923 -1.1358
  275MOL0     H37070   6.592   0.599   5.747 -2.7271 -0.4533  0.0533
  275MOL0     H37071   6.597   0.773   5.770 -0.2171 -0.7289 -2.0197
  275MOL0     H37072   6.719   0.704   6.010 -0.3827 -3.6053  1.6274
  275MOL0     H37073   6.801   0.734   5.855 -1.8476  1.1165  1.0093
  275MOL0     H37074   6.699   0.480   5.972 -1.2278  1.3312  0.6064
  275MOL0     H37075   6.775   0.471   5.817 -2.1164 -2.3379  1.0765
  275MOL0     H37076   7.039   0.616   5.839 -0.5810 -1.4331 -0.9635
  275MOL0     H37077   7.305   0.449   6.021  0.8697 -0.0595  2.0584
  275MOL0     H37078   7.293   0.594   5.912 -0.9053  0.1360 -0.4609
  275MOL0     H37079   7.277   0.598   6.226  2.8606 -0.5435  0.2368
  275MOL0     H37080   7.415   0.616   6.133 -1.1215 -2.0575 -0.1595
  275MOL0     H37081   7.343   0.828   6.042 -1.6229  1.1685 -0.4359
  275MOL0     H37082   7.324   0.838   6.215 -0.9533 -0.3427 -0.3648
  275MOL0     H37083   7.132   0.929   6.157 -1.5401 -0.9838  0.9755
  275MOL0     H37084   7.064   0.763   6.142 -1.0298  0.0648 -0.7032
  275MOL0     H37085   6.930   0.965   6.131  0.8804 -0.4374 -0.1599
  275MOL0     H37086   6.721   1.076   6.049  0.5218 -0.1842  1.0017
  275MOL0     H37087   6.498   1.325   5.632 -1.4946  2.1209 -1.0903
  275MOL0     H37088   6.290   1.400   5.582 -0.7984 -0.0376  0.1077
  275MOL0     H37089   6.145   1.566   5.653 -0.3238 -1.1524  0.7004
  275MOL0     H37090   6.080   1.430   5.561 -0.9693 -1.6200  0.8685
  275MOL0     H37091   5.927   1.646   5.563  0.3562 -0.6658 -1.4769
  275MOL0     H37092   5.847   1.497   5.631 -1.4748  1.5281  1.5511
  275MOL0     H37093   5.865   1.573   5.852 -2.5947 -1.7342 -2.0813
  275MOL0     H37094   5.993   1.694   5.810  0.0141  0.7536 -4.1636
  275MOL0     H37095   5.704   1.674   5.704  0.3936 -0.7171  0.6288
  275MOL0     H37096   5.809   1.825   5.695 -2.3877  0.8141  0.2447
  275MOL0     H37097   5.651   1.870   5.848  1.0190  2.1421  2.8611
  275MOL0     H37098   5.809   1.838   5.925  0.1059 -1.6334  1.1762
  275MOL0     H37099   5.560   1.668   5.897 -3.2764  0.8672  3.4683
  275MOL0     H37100   5.697   1.609   5.997 -2.5383 -1.7294 -1.7106
  275MOL0     H37101   5.560   1.853   6.041  3.3652  0.2338 -2.1044
  275MOL0     H37102   5.687   1.796   6.136  0.9542 -0.5773 -2.0203
  275MOL0     H37103   5.403   1.683   6.096 -0.4987 -0.3001  0.6542
  275MOL0     H37104   5.510   1.583   6.187 -1.3288 -1.5685 -1.5815
  275MOL0     H37105   6.120   1.264   5.941  0.3717  3.3363  1.0526
  275MOL0     H37106   6.369   1.149   5.993  2.1780 -1.5386 -2.4818
  275MOL0     H37107   6.849   0.987   5.635  2.5659 -2.8236 -1.1076
  275MOL0     H37108   7.031   0.875   5.708  0.1681  1.6999 -2.1695
  275MOL0     H37109   6.148   1.006   5.575 -1.5563 -0.6302  3.7732
  275MOL0     H37110   6.038   1.223   5.529  0.4491 -0.7875  2.3889
  275MOL0     H37111   5.887   1.574   5.234  0.5293  1.2622  1.7408
  275MOL0     H37112   5.746   1.771   5.188 -0.8403 -0.7265 -3.3530
  275MOL0     H37113   5.438   1.985   5.229  0.5149  1.5524  0.3597
  275MOL0     H37114   5.590   1.930   5.176  0.4592  1.5638  0.2518
  275MOL0     H37115   5.607   2.091   5.372 -0.6835  0.2387  0.7681
  275MOL0     H37116   5.684   1.930   5.390  0.9341  1.2052 -1.7974
  275MOL0     H37117   5.561   1.901   5.578  1.0203  2.0960  2.0133
  275MOL0     H37118   5.413   1.907   5.489 -0.6675 -0.3705  1.6664
  275MOL0     H37119   5.514   2.181   5.554  1.9739 -0.0184  2.5224
  275MOL0     H37120   5.350   2.112   5.573 -0.2350 -0.3145  0.8679
  275MOL0     H37121   5.499   2.122   5.957 -0.2902 -4.0507  0.3240
  275MOL0     H37122   5.408   1.560   5.350 -0.3975  1.6317 -0.2346
  275MOL0     H37123   5.555   1.304   5.475  0.4472  1.8783  0.3363
  275MOL0     H37124   5.414   1.344   5.367 -0.0381 -1.5737 -1.7608
  275MOL0     H37125   5.534   1.245   5.297 -1.1958  0.8477 -1.3299
  276MOL0     O37126   3.505   9.946   1.838  0.3055 -0.0375 -0.5781
  276MOL0     C37127   3.422   9.873   1.896 -0.3523  0.5609 -0.2000
  276MOL0     O37128   3.449   9.756   1.957 -0.0223  0.3702 -0.0132
  276MOL0     C37129   3.568   9.693   1.911  0.7374  0.5695  0.0362
  276MOL0     C37130   3.602   9.681   1.778  0.3729 -0.0826  0.1578
  276MOL0     C37131   3.707   9.598   1.743  0.0991  0.1768 -0.1595
  276MOL0     C37132   3.776   9.533   1.841 -1.0796 -0.0005  0.6867
  276MOL0     O37133   3.888   9.466   1.800  0.0545  0.6827 -0.3273
  276MOL0     C37134   3.998   9.456   1.892 -0.1357 -0.5071  0.2260
  276MOL0     C37135   4.125   9.417   1.810  0.6697  0.1464 -0.1872
  276MOL0     C37136   4.160   9.526   1.708  0.1033 -0.5577 -0.1001
  276MOL0     C37137   4.227   9.452   1.588  0.7687  1.4147  0.7939
  276MOL0     C37138   4.298   9.540   1.489  0.4751 -0.3759 -0.8458
  276MOL0     C37139   4.432   9.577   1.550 -0.4353 -0.3069  0.2705
  276MOL0     C37140   4.520   9.659   1.456 -0.2514  0.5855  0.8996
  276MOL0     C37141   4.621   9.752   1.522  0.4233 -0.1655  1.0376
  276MOL0     N37142   4.714   9.670   1.603  0.2734 -0.4785 -1.7600
  276MOL0     C37143   4.797   9.576   1.554  1.5463  0.9446  0.3260
  276MOL0     C37144   4.855   9.525   1.662 -0.1224  0.1326  0.1823
  276MOL0     C37145   4.939   9.401   1.659  0.2871 -0.3073  0.6410
  276MOL0     C37146   4.998   9.347   1.792  0.7881 -0.7134 -0.1130
  276MOL0     C37147   5.036   9.197   1.772  1.1637 -0.6563 -0.2609
  276MOL0     C37148   5.183   9.180   1.795  0.2037 -0.3752  0.2600
  276MOL0     O37149   5.219   9.207   1.935  0.2798 -1.3253  0.2370
  276MOL0     C37150   5.333   9.158   1.990  0.1660  0.3053 -0.3921
  276MOL0     C37151   5.393   9.242   2.088  0.0485 -0.8836  0.0372
  276MOL0     C37152   5.514   9.210   2.148 -0.0108  0.2807  0.2663
  276MOL0     C37153   5.582   9.090   2.112 -0.2836 -0.6205  0.3941
  276MOL0     C37154   5.726   9.073   2.157  0.1483  0.1994  0.3095
  276MOL0     O37155   5.786   8.949   2.136  0.9118 -0.2372  0.5736
  276MOL0     C37156   5.922   8.934   2.144  0.2508 -0.4089 -0.1864
  276MOL0     C37157   5.973   8.861   2.039 -0.6991 -0.2063  1.2147
  276MOL0     C37158   6.116   8.829   2.035  0.4146 -0.4365 -0.3798
  276MOL0     C37159   6.192   8.876   2.146 -1.1417  0.9638 -0.6616
  276MOL0     O37160   6.329   8.870   2.133 -0.6669 -0.4659 -0.2915
  276MOL0     C37161   6.423   8.834   2.241  0.3466  0.4884  0.7150
  276MOL0     C37162   6.477   8.967   2.283  1.1765 -0.8227  0.3073
  276MOL0     C37163   6.610   8.932   2.356  0.1293 -0.3202 -0.3784
  276MOL0     C37164   6.629   9.021   2.480  0.1137 -0.8313  0.5132
  276MOL0     C37165   6.771   9.006   2.532 -1.1073 -0.8247  0.1731
  276MOL0     C37166   6.835   9.127   2.609  0.4461  0.3582  1.0991
  276MOL0     C37167   6.964   9.081   2.675 -0.4874 -0.1224  0.0317
  276MOL0     C37168   6.979   9.173   2.793 -0.3258  0.0994  0.3411
  276MOL0    Cl37169   6.963   9.347   2.769 -0.1634  0.1695 -0.1340
  276MOL0     C37170   6.139   8.944   2.248 -1.3240  0.5084 -0.2075
  276MOL0     C37171   6.004   8.975   2.250  0.4273 -0.9063  0.6751
  276MOL0     O37172   5.788   9.175   2.194  0.0643 -0.5383  0.5944
  276MOL0     C37173   5.516   9.003   2.027  0.4577 -0.5900 -0.2041
  276MOL0     C37174   5.390   9.033   1.972 -0.3136  0.3894  0.7395
  276MOL0     N37175   4.804   9.578   1.771  0.0640  0.0337 -0.6964
  276MOL0     N37176   4.722   9.679   1.738  0.1078  0.8188 -0.0575
  276MOL0     C37177   3.738   9.542   1.975  0.5343 -0.1114  0.2946
  276MOL0     C37178   3.629   9.618   2.008  0.3731 -0.7270 -0.0474
  276MOL0     C37179   3.277   9.911   1.888 -0.4340  0.4785 -0.0927
  276MOL0     C37180   3.185   9.809   1.898 -0.0054  0.1246  0.0318
  276MOL0     C37181   3.052   9.829   1.876  0.6075 -0.3141  0.2234
  276MOL0     C37182   2.999   9.954   1.870  0.3810 -0.1907  0.5540
  276MOL0     O37183   2.866   9.985   1.837 -0.2385  0.3557  0.1131
  276MOL0     C37184   2.756   9.937   1.920 -0.6693  0.0565  0.4949
  276MOL0     C37185   2.757  10.021   2.046  0.2791 -0.2221 -0.2335
  276MOL0     C37186   2.732  10.169   2.008  0.8793  0.6782 -0.1133
  276MOL0     C37187   2.720  10.247   2.133  0.7732 -1.1701  0.2541
  276MOL0     C37188   2.590  10.226   2.187  0.5181  0.0289  0.1726
  276MOL0     C37189   2.474  10.212   2.229 -0.3748  0.1445  0.3715
  276MOL0     C37190   3.082  10.065   1.879 -0.2023  0.0688 -0.0782
  276MOL0     C37191   3.221  10.042   1.875 -0.1884 -0.0408  1.0971
  276MOL0     C37192   3.300  10.172   1.878  1.1905 -0.0622  1.2381
  276MOL0     H37193   3.543   9.741   1.709 -3.1979 -0.3547  2.6935
  276MOL0     H37194   3.736   9.602   1.638 -2.0498  3.6048 -0.7825
  276MOL0     H37195   4.014   9.554   1.938  1.7491  0.1702 -1.7478
  276MOL0     H37196   3.980   9.374   1.962 -5.5524 -1.2242 -1.5098
  276MOL0     H37197   4.106   9.322   1.760 -2.2095 -0.5081  1.9151
  276MOL0     H37198   4.208   9.399   1.879  0.9733 -1.8115 -0.9840
  276MOL0     H37199   4.224   9.607   1.745 -0.4482  0.8616 -2.0546
  276MOL0     H37200   4.068   9.567   1.667 -0.1079  2.3392  2.8462
  276MOL0     H37201   4.292   9.370   1.618 -2.6747 -2.1500 -0.6021
  276MOL0     H37202   4.139   9.401   1.547  3.2942 -0.4743 -2.8375
  276MOL0     H37203   4.317   9.481   1.400 -1.7108  1.2339 -2.4731
  276MOL0     H37204   4.235   9.628   1.470  0.0400 -0.9723 -2.2977
  276MOL0     H37205   4.407   9.618   1.648 -0.5885 -3.2225  1.5596
  276MOL0     H37206   4.487   9.489   1.585 -0.0528 -0.3887 -0.5122
  276MOL0     H37207   4.461   9.731   1.399  0.7597  1.3102  0.7277
  276MOL0     H37208   4.569   9.592   1.385 -2.1697  0.1849 -0.0915
  276MOL0     H37209   4.682   9.807   1.449  0.6666 -2.3350 -0.4899
  276MOL0     H37210   4.568   9.816   1.594  2.1599  0.6880  1.6220
  276MOL0     H37211   4.817   9.543   1.453  2.8206  0.5653  0.6867
  276MOL0     H37212   4.896   9.318   1.603  2.3756 -2.3220  1.8496
  276MOL0     H37213   5.027   9.436   1.603 -1.0182  1.6047 -0.3346
  276MOL0     H37214   5.085   9.408   1.821  0.1840 -0.6704  1.7546
  276MOL0     H37215   4.923   9.341   1.872  1.2790 -0.1261  0.4063
  276MOL0     H37216   5.019   9.158   1.671  2.1016 -0.0447 -0.6729
  276MOL0     H37217   4.981   9.137   1.845  0.1217  0.3401 -0.1828
  276MOL0     H37218   5.237   9.246   1.726 -1.0893 -2.7021 -3.2368
  276MOL0     H37219   5.197   9.074   1.775 -0.4630 -0.5492  0.6855
  276MOL0     H37220   5.336   9.331   2.113 -0.4888 -0.0037 -3.7985
  276MOL0     H37221   5.559   9.280   2.218 -0.3226 -0.7130  1.5009
  276MOL0     H37222   5.910   8.817   1.963 -0.2492 -0.8999  1.2362
  276MOL0     H37223   6.170   8.781   1.953  2.2084  2.1652 -0.8524
  276MOL0     H37224   6.375   8.770   2.315  0.7389 -2.6529 -1.5670
  276MOL0     H37225   6.505   8.770   2.210 -0.4581 -1.1901  1.9322
  276MOL0     H37226   6.491   9.032   2.196  2.2072 -3.0689 -1.2943
  276MOL0     H37227   6.410   9.017   2.353 -0.8491 -2.4268 -0.3951
  276MOL0     H37228   6.617   8.826   2.381 -2.7824 -0.3973  0.3933
  276MOL0     H37229   6.693   8.940   2.285  1.0613 -2.7446  0.3248
  276MOL0     H37230   6.554   8.993   2.555  0.8038 -0.2716  1.4371
  276MOL0     H37231   6.621   9.126   2.452 -0.4446 -1.3211 -1.2799
  276MOL0     H37232   6.849   8.986   2.457 -0.3910 -0.9718  0.9378
  276MOL0     H37233   6.759   8.921   2.601  2.1280 -1.6578 -0.0923
  276MOL0     H37234   6.857   9.207   2.538 -2.7863 -1.8447 -2.8673
  276MOL0     H37235   6.761   9.161   2.682 -1.2213 -1.3550  0.3116
  276MOL0     H37236   7.054   9.100   2.615  0.9770 -2.9627  1.1406
  276MOL0     H37237   6.957   8.976   2.705 -0.8091  0.9810  4.4312
  276MOL0     H37238   6.897   9.138   2.857  1.0821 -0.5403  1.8499
  276MOL0     H37239   7.067   9.150   2.853  0.0410  0.3557 -0.0888
  276MOL0     H37240   6.212   8.962   2.326  1.3488 -5.0772 -0.8588
  276MOL0     H37241   5.957   9.028   2.332 -1.1160 -0.6848 -0.3186
  276MOL0     H37242   5.564   8.906   2.012  0.3047 -1.7982  5.0530
  276MOL0     H37243   5.341   8.953   1.917  1.2590 -1.3905  1.7999
  276MOL0     H37244   3.799   9.500   2.054  4.7319  2.7316 -1.0806
  276MOL0     H37245   3.592   9.632   2.109 -0.5599 -0.9874 -0.3417
  276MOL0     H37246   3.208   9.710   1.936 -3.8854 -0.8269  0.3592
  276MOL0     H37247   2.992   9.740   1.858  2.5597 -1.1582 -2.6718
  276MOL0     H37248   2.762   9.835   1.957 -2.4102  0.1504  1.1375
  276MOL0     H37249   2.667   9.948   1.857  0.1784  1.2092 -0.5672
  276MOL0     H37250   2.843   9.999   2.110 -1.2438 -1.9995  1.3894
  276MOL0     H37251   2.670   9.984   2.102 -0.6128  1.8507 -0.1469
  276MOL0     H37252   2.641  10.189   1.951  0.3236  1.8034  1.1153
  276MOL0     H37253   2.821  10.209   1.958  0.4562  2.1935  0.2928
  276MOL0     H37254   2.802  10.210   2.196 -0.3882 -1.2297  1.7924
  276MOL0     H37255   2.728  10.355   2.118 -3.3266 -0.8442 -0.7419
  276MOL0     H37256   2.374  10.200   2.267 -0.8241 -1.1469 -1.1257
  276MOL0     H37257   3.035  10.162   1.865 -2.3514 -0.8555  0.2775
  276MOL0     H37258   3.271  10.226   1.969  0.4834  4.1067 -1.1650
  276MOL0     H37259   3.408  10.157   1.878  1.2201 -0.7188 -2.0288
  276MOL0     H37260   3.262  10.247   1.807 -1.3032  0.2223  2.7398
  277MOL0     O37261   1.771   3.066   6.797 -0.1527  0.1595  0.6236
  277MOL0     C37262   1.720   3.034   6.905  0.0308  0.3627  0.3350
  277MOL0     O37263   1.679   3.133   7.003 -0.2118 -0.0800  0.2056
  277MOL0     C37264   1.717   3.266   6.978  0.2868 -0.4418  0.2731
  277MOL0     C37265   1.759   3.342   7.088 -0.5009  0.2762  0.7266
  277MOL0     C37266   1.779   3.484   7.071 -0.0881  0.7902  0.0983
  277MOL0     C37267   1.774   3.548   6.948  0.1995 -0.1312 -1.3245
  277MOL0     O37268   1.793   3.681   6.932 -0.7036  0.5323 -0.6965
  277MOL0     C37269   1.820   3.730   6.799  0.2129  0.7961  0.1744
  277MOL0     C37270   1.848   3.878   6.801  0.5258 -0.2389  0.2057
  277MOL0     C37271   1.979   3.896   6.877 -0.1666  0.1545  0.3117
  277MOL0     C37272   2.026   4.043   6.886 -0.1731 -1.0367 -0.3702
  277MOL0     C37273   2.157   4.058   6.969  0.1868 -0.6793 -0.4699
  277MOL0     C37274   2.289   4.041   6.878  0.3958 -0.1740 -0.3576
  277MOL0     C37275   2.418   4.042   6.948  0.1725  0.6130 -1.7306
  277MOL0     C37276   2.440   3.920   7.042  0.4685  1.0156  0.5035
  277MOL0     N37277   2.579   3.891   7.058 -0.3694 -0.4428  0.0809
  277MOL0     C37278   2.664   3.860   6.954  0.4938  0.0372  0.1678
  277MOL0     C37279   2.795   3.873   7.007  0.5378 -0.2307  0.2737
  277MOL0     C37280   2.920   3.866   6.930 -0.3788  0.4925  1.7470
  277MOL0     C37281   3.047   3.876   7.010 -0.7600 -0.7555 -0.6284
  277MOL0     C37282   3.059   3.757   7.095 -0.8452 -0.0361 -0.3902
  277MOL0     C37283   3.204   3.756   7.161  0.8011 -0.1161  0.4141
  277MOL0     O37284   3.228   3.866   7.244 -0.4860  0.2209 -0.4450
  277MOL0     C37285   3.363   3.893   7.254  0.2807 -0.0243  0.0302
  277MOL0     C37286   3.398   3.945   7.376  0.6294 -0.0324 -0.5555
  277MOL0     C37287   3.533   3.988   7.408  0.7396  0.7237  0.5555
  277MOL0     C37288   3.632   3.988   7.308 -0.0130 -0.1854  0.7853
  277MOL0     C37289   3.766   4.045   7.334  0.9371  0.4637  0.4230
  277MOL0     O37290   3.855   4.015   7.236 -0.2485  0.2558 -0.9105
  277MOL0     C37291   3.989   4.051   7.242 -0.3105 -0.7621  0.8001
  277MOL0     C37292   4.078   4.052   7.349 -0.7511  0.4368  0.5294
  277MOL0     C37293   4.216   4.065   7.330 -0.0679  0.5218 -1.4222
  277MOL0     C37294   4.272   4.084   7.211  0.2959 -0.5598  0.2546
  277MOL0     O37295   4.401   4.110   7.177  0.4686  0.3456 -0.7281
  277MOL0     C37296   4.511   4.074   7.263 -0.6215 -0.1751 -0.2933
  277MOL0     C37297   4.639   4.078   7.181 -0.4419  0.5122 -0.5658
  277MOL0     C37298   4.764   4.026   7.254 -0.7005  0.5906  0.1831
  277MOL0     C37299   4.889   4.071   7.179  0.4917  0.2561  0.6377
  277MOL0     C37300   4.924   3.974   7.064 -0.7266 -0.4189  0.3411
  277MOL0     C37301   5.052   4.008   6.992 -0.1856  0.1055  0.0457
  277MOL0     C37302   5.034   4.145   6.922 -0.3630  0.2064  0.0208
  277MOL0     C37303   5.152   4.154   6.829  0.1707 -1.1459 -0.0602
  277MOL0    Cl37304   5.304   4.227   6.886  0.0135  0.2016 -0.0984
  277MOL0     C37305   4.181   4.094   7.098  0.2182 -0.4465  0.2663
  277MOL0     C37306   4.043   4.077   7.115 -0.4909  0.3490 -0.7572
  277MOL0     O37307   3.789   4.100   7.446  0.4389  0.2039 -0.6094
  277MOL0     C37308   3.592   3.931   7.187 -0.5540  1.2372  0.0911
  277MOL0     C37309   3.461   3.890   7.158  0.0639 -0.5514 -0.0350
  277MOL0     N37310   2.786   3.927   7.134 -0.4478  0.6494 -0.2545
  277MOL0     N37311   2.655   3.925   7.170  0.6643  0.2372  0.3608
  277MOL0     C37312   1.737   3.464   6.840 -0.4480 -0.1037 -0.3007
  277MOL0     C37313   1.693   3.335   6.862  0.7781  0.1043  0.3991
  277MOL0     C37314   1.673   2.892   6.914 -0.3050  1.0800  0.0177
  277MOL0     C37315   1.609   2.845   7.036  0.1177 -1.0964  0.5424
  277MOL0     C37316   1.575   2.718   7.070 -0.3747 -0.0227  0.5773
  277MOL0     C37317   1.596   2.622   6.970 -0.4000  0.3102 -0.0938
  277MOL0     O37318   1.564   2.485   6.988 -0.2016 -0.1381 -0.2537
  277MOL0     C37319   1.501   2.443   7.110  0.1677  0.3283 -0.2687
  277MOL0     C37320   1.435   2.300   7.081 -0.0652 -0.4960  0.5157
  277MOL0     C37321   1.319   2.270   7.181  0.4881  0.1689  0.1861
  277MOL0     C37322   1.198   2.195   7.118  0.4002  0.0557  0.5135
  277MOL0     C37323   1.236   2.092   7.024 -0.7517 -0.6878  0.7749
  277MOL0     C37324   1.272   2.023   6.934  0.2136 -0.1560 -0.1579
  277MOL0     C37325   1.662   2.653   6.847 -0.3703  0.5623  0.7224
  277MOL0     C37326   1.709   2.789   6.822  0.4269  0.4629 -0.1194
  277MOL0     C37327   1.790   2.799   6.694 -1.3861  0.0301  0.5590
  277MOL0     H37328   1.769   3.292   7.184 -0.4974  0.9159  1.0647
  277MOL0     H37329   1.789   3.538   7.164 -1.5586 -2.2007  2.1334
  277MOL0     H37330   1.906   3.678   6.755  0.4121 -0.0349  1.4705
  277MOL0     H37331   1.734   3.723   6.733  0.2109 -1.1023  0.3255
  277MOL0     H37332   1.762   3.932   6.843  0.3410 -0.0316 -0.4250
  277MOL0     H37333   1.857   3.907   6.696  1.6232 -2.9980 -0.5391
  277MOL0     H37334   2.056   3.833   6.831  0.6548  1.0172  0.4895
  277MOL0     H37335   1.978   3.848   6.975 -0.0827 -1.1405 -0.2984
  277MOL0     H37336   2.043   4.083   6.786  0.9285 -1.7171 -0.4775
  277MOL0     H37337   1.947   4.096   6.940  2.0244  1.2599  0.8145
  277MOL0     H37338   2.171   4.158   7.013  2.2481 -0.1889 -2.0436
  277MOL0     H37339   2.157   3.995   7.058 -2.6791  2.5750  2.0921
  277MOL0     H37340   2.282   3.954   6.812  0.9401 -0.6989  0.2613
  277MOL0     H37341   2.293   4.125   6.807  3.1501  2.4001  2.5635
  277MOL0     H37342   2.433   4.130   7.012 -2.2128  0.6395 -1.1292
  277MOL0     H37343   2.492   4.039   6.867  3.2271  1.3832  0.8069
  277MOL0     H37344   2.381   3.943   7.131 -0.5348 -0.7962  0.3598
  277MOL0     H37345   2.403   3.824   7.004 -0.9888  1.6868  0.1701
  277MOL0     H37346   2.644   3.847   6.848 -0.1952 -1.7283  0.4746
  277MOL0     H37347   2.934   3.774   6.872  1.6875  1.5925  0.3600
  277MOL0     H37348   2.911   3.947   6.857 -0.7863 -0.0755  1.1502
  277MOL0     H37349   3.135   3.882   6.945  0.7905 -2.2320  1.1949
  277MOL0     H37350   3.044   3.972   7.063  2.0437 -0.6091 -0.6090
  277MOL0     H37351   3.038   3.669   7.033  0.6602 -1.7840  1.4206
  277MOL0     H37352   2.987   3.768   7.176  0.3592 -0.3965  0.7628
  277MOL0     H37353   3.268   3.736   7.075 -1.7126  0.7081 -1.8111
  277MOL0     H37354   3.204   3.664   7.221 -4.1098 -0.0285  1.0091
  277MOL0     H37355   3.319   3.959   7.449  0.0950 -3.8791 -0.1848
  277MOL0     H37356   3.546   4.040   7.502 -2.3617 -2.0114  2.7269
  277MOL0     H37357   4.050   4.030   7.451  0.8077 -0.2253  0.8525
  277MOL0     H37358   4.281   4.061   7.416 -1.0203 -1.2561 -0.7382
  277MOL0     H37359   4.533   4.131   7.354  0.2275 -2.3814  0.9581
  277MOL0     H37360   4.498   3.973   7.302 -0.1389 -2.5368 -5.4378
  277MOL0     H37361   4.626   4.017   7.092 -1.1748 -1.9203  1.1115
  277MOL0     H37362   4.656   4.184   7.163  0.9780  0.3132 -0.4889
  277MOL0     H37363   4.769   4.064   7.357  0.3561  0.3146  0.2449
  277MOL0     H37364   4.753   3.919   7.273 -1.5945 -0.0738 -3.3722
  277MOL0     H37365   4.974   4.075   7.248  0.3570 -0.3377  0.8476
  277MOL0     H37366   4.873   4.170   7.136  1.1779 -0.2336 -0.8018
  277MOL0     H37367   4.845   3.966   6.989  0.0507  2.3133 -0.9247
  277MOL0     H37368   4.946   3.880   7.115 -2.6117 -1.3272 -0.4153
  277MOL0     H37369   5.131   4.012   7.067 -0.4175  1.3439  0.2463
  277MOL0     H37370   5.078   3.928   6.921  1.9658  1.0295 -0.2740
  277MOL0     H37371   5.030   4.236   6.983  1.6530  2.3742 -2.7990
  277MOL0     H37372   4.942   4.141   6.863 -1.0273 -2.0490  1.1101
  277MOL0     H37373   5.166   4.058   6.778  1.6730 -0.6407 -0.6538
  277MOL0     H37374   5.112   4.230   6.762  1.6887  0.3406  0.6233
  277MOL0     H37375   4.215   4.116   6.997 -6.3360 -3.2298 -3.1551
  277MOL0     H37376   3.982   4.079   7.025 -0.1117  1.8264 -1.0031
  277MOL0     H37377   3.660   3.919   7.103  2.1547  1.4013  2.1444
  277MOL0     H37378   3.419   3.873   7.060 -1.0777 -0.2848  0.3850
  277MOL0     H37379   1.716   3.518   6.748  0.9012  1.0944  0.0653
  277MOL0     H37380   1.652   3.272   6.782 -2.4418 -0.8001  2.5505
  277MOL0     H37381   1.578   2.916   7.112 -3.1512  0.2963 -1.8746
  277MOL0     H37382   1.526   2.699   7.165 -3.1180 -3.5098 -1.2849
  277MOL0     H37383   1.429   2.521   7.134 -1.0273 -1.5287  2.7108
  277MOL0     H37384   1.571   2.450   7.193  3.5305  2.0023 -2.9998
  277MOL0     H37385   1.503   2.217   7.100 -1.1013 -0.8862  2.7896
  277MOL0     H37386   1.393   2.293   6.980  0.9867  2.8358 -0.3139
  277MOL0     H37387   1.293   2.362   7.235  1.8292  0.4750  0.3427
  277MOL0     H37388   1.358   2.202   7.257  0.9464  2.9507  2.6543
  277MOL0     H37389   1.146   2.150   7.203 -1.3321  2.0389  0.5923
  277MOL0     H37390   1.126   2.262   7.068  1.3204  0.8098  0.1627
  277MOL0     H37391   1.298   1.952   6.858 -2.4590 -4.0523  2.2165
  277MOL0     H37392   1.680   2.570   6.779  3.7417  2.6473 -1.0540
  277MOL0     H37393   1.884   2.848   6.721  0.1488  0.6377 -4.6830
  277MOL0     H37394   1.825   2.702   6.659 -1.7004 -0.1946  0.8540
  277MOL0     H37395   1.727   2.838   6.614 -0.2704  0.7882  0.0342
  278MOL0     O37396   6.974   3.630   2.139  0.3952  0.7778  0.2366
  278MOL0     C37397   6.920   3.635   2.027 -0.2026 -0.4003 -0.3738
  278MOL0     O37398   6.977   3.588   1.905  0.4040  0.7228 -0.1852
  278MOL0     C37399   7.099   3.549   1.904 -1.0827 -0.3898  0.9612
  278MOL0     C37400   7.191   3.626   1.832 -0.1828  0.4578  0.7364
  278MOL0     C37401   7.318   3.575   1.818 -0.6109 -0.2050  0.2262
  278MOL0     C37402   7.371   3.465   1.891  0.4200  0.0487 -0.9541
  278MOL0     O37403   7.498   3.415   1.884  0.6617 -0.6024  0.2457
  278MOL0     C37404   7.618   3.499   1.892 -0.0551  0.0321  1.5410
  278MOL0     C37405   7.742   3.407   1.915 -0.4148 -0.0091  0.1581
  278MOL0     C37406   7.861   3.501   1.933 -0.3251 -0.0247  0.3240
  278MOL0     C37407   7.918   3.569   1.808  0.1378 -0.7355  0.5949
  278MOL0     C37408   8.060   3.604   1.849  0.1273 -0.3198 -0.4360
  278MOL0     C37409   8.144   3.655   1.725  0.8868  0.4417 -0.7056
  278MOL0     C37410   8.135   3.562   1.597 -0.3673  0.2059  0.7359
  278MOL0     C37411   8.220   3.624   1.476  0.4285  0.3216  0.7120
  278MOL0     N37412   8.361   3.587   1.493 -0.3768 -0.8734  0.5190
  278MOL0     C37413   8.408   3.456   1.479  0.4502 -0.2573 -0.0640
  278MOL0     C37414   8.532   3.455   1.532  1.1972  0.7070  0.8314
  278MOL0     C37415   8.626   3.342   1.548 -0.8064 -0.7953 -0.6248
  278MOL0     C37416   8.647   3.249   1.428  0.1123 -0.6942  0.0421
  278MOL0     C37417   8.758   3.144   1.440 -0.1571 -0.0857  0.4804
  278MOL0     C37418   8.892   3.211   1.406 -0.5005  0.1152  0.2490
  278MOL0     O37419   9.000   3.136   1.484  0.6297  0.2557 -0.1089
  278MOL0     C37420   9.127   3.183   1.489  0.7936 -0.7536 -0.1816
  278MOL0     C37421   9.218   3.100   1.563  0.2627 -0.2952  0.3391
  278MOL0     C37422   9.356   3.140   1.562  0.6260  0.8743 -0.1868
  278MOL0     C37423   9.398   3.260   1.495  0.4892 -0.2254 -0.0704
  278MOL0     C37424   9.539   3.311   1.506  0.6905 -0.3501 -0.9164
  278MOL0     O37425   9.607   3.261   1.613 -0.0902 -0.8414  0.2382
  278MOL0     C37426   9.742   3.265   1.604  0.2809  0.5074  0.2175
  278MOL0     C37427   9.816   3.171   1.536  0.7344 -0.2223 -0.0936
  278MOL0     C37428   9.955   3.179   1.535  0.4891  0.4457  0.1287
  278MOL0     C37429  10.020   3.283   1.590  0.2197  0.6678  0.9941
  278MOL0     O37430  10.158   3.306   1.579  0.7291 -0.6313  0.3560
  278MOL0     C37431  10.228   3.234   1.472  0.0209 -0.4670 -0.2287
  278MOL0     C37432  10.358   3.300   1.435 -0.4546 -0.1882 -0.0257
  278MOL0     C37433  10.452   3.320   1.555 -0.0799 -0.2338 -0.0038
  278MOL0     C37434  10.601   3.299   1.526 -0.6161  0.4428 -0.3844
  278MOL0     C37435  10.690   3.321   1.648 -0.1476  0.5981 -0.1885
  278MOL0     C37436  10.697   3.473   1.693  0.6658  0.1386  0.0469
  278MOL0     C37437  10.769   3.566   1.598  0.3120  0.5176  0.2933
  278MOL0     C37438  10.820   3.689   1.669 -0.1996 -0.2718  0.0646
  278MOL0    Cl37439  10.917   3.643   1.824 -0.2108  0.0657 -0.1031
  278MOL0     C37440   9.947   3.384   1.657  0.1766 -1.1247  0.5609
  278MOL0     C37441   9.810   3.368   1.671  1.0250  0.0052 -0.6429
  278MOL0     O37442   9.587   3.389   1.424 -0.2786  0.4480 -0.6829
  278MOL0     C37443   9.299   3.336   1.431 -0.6883 -0.6017 -0.2805
  278MOL0     C37444   9.169   3.298   1.424 -0.4829 -0.0473 -0.3786
  278MOL0     N37445   8.550   3.577   1.586 -0.3573  0.7830 -0.7098
  278MOL0     N37446   8.458   3.666   1.551 -0.2005 -0.1995 -0.5131
  278MOL0     C37447   7.270   3.393   1.968  0.3038  0.3116 -0.3359
  278MOL0     C37448   7.134   3.433   1.967 -0.6510 -0.4147 -0.7503
  278MOL0     C37449   6.786   3.704   2.017  0.1477  1.0368 -0.3437
  278MOL0     C37450   6.718   3.669   1.897 -1.4508 -0.1683  0.2938
  278MOL0     C37451   6.607   3.736   1.855  0.2394 -0.1088  0.3266
  278MOL0     C37452   6.547   3.832   1.927  0.2771  0.1390 -0.1980
  278MOL0     O37453   6.424   3.876   1.870  0.4366  0.6954  0.1504
  278MOL0     C37454   6.336   3.957   1.952  0.4673  0.1051  0.3790
  278MOL0     C37455   6.385   4.105   1.958 -0.1228 -0.2277  0.0392
  278MOL0     C37456   6.294   4.190   2.050 -0.3238 -0.7931 -0.2810
  278MOL0     C37457   6.358   4.247   2.182  1.3033 -0.0178  0.2840
  278MOL0     C37458   6.407   4.138   2.269  0.3102 -0.2715  0.3897
  278MOL0     C37459   6.429   4.040   2.336 -0.4859 -0.0367  0.0731
  278MOL0     C37460   6.605   3.865   2.045  0.1307 -0.3931  0.5101
  278MOL0     C37461   6.728   3.805   2.092  0.4149 -0.3250  0.3150
  278MOL0     C37462   6.778   3.843   2.218  0.7454  0.0126 -0.5454
  278MOL0     H37463   7.156   3.723   1.799 -2.1186 -0.8375 -1.3490
  278MOL0     H37464   7.387   3.625   1.750  1.0283  0.2427  2.1221
  278MOL0     H37465   7.632   3.549   1.796  1.6443 -2.2653  0.4818
  278MOL0     H37466   7.597   3.560   1.980 -5.7096  0.4919  0.2292
  278MOL0     H37467   7.764   3.347   1.826  3.1914 -0.5545  1.2216
  278MOL0     H37468   7.720   3.345   2.002 -3.1833 -1.6911 -1.6065
  278MOL0     H37469   7.939   3.434   1.970 -1.4189 -0.9149  1.0548
  278MOL0     H37470   7.839   3.575   2.011  0.7371  0.1739  0.4578
  278MOL0     H37471   7.917   3.501   1.722  1.5388 -1.2086  0.9133
  278MOL0     H37472   7.856   3.653   1.776  0.8774 -0.9224 -1.4933
  278MOL0     H37473   8.069   3.675   1.932 -1.6178  0.7038 -1.0687
  278MOL0     H37474   8.108   3.509   1.875 -1.4389 -1.3479 -1.1614
  278MOL0     H37475   8.094   3.749   1.697 -0.2827  0.6565  1.8374
  278MOL0     H37476   8.245   3.667   1.764  1.5875 -1.4816 -1.8111
  278MOL0     H37477   8.033   3.577   1.560  1.0757  0.3307 -3.8761
  278MOL0     H37478   8.151   3.455   1.611 -1.9831 -0.2370 -0.4545
  278MOL0     H37479   8.191   3.595   1.375  1.1684  2.0476 -0.0343
  278MOL0     H37480   8.209   3.733   1.473  2.1130  0.4954 -1.3156
  278MOL0     H37481   8.344   3.385   1.427 -2.4701  2.5697 -0.6868
  278MOL0     H37482   8.716   3.388   1.590 -2.0467 -0.4066  1.8187
  278MOL0     H37483   8.585   3.287   1.634 -3.3948  1.1697 -0.4567
  278MOL0     H37484   8.557   3.190   1.407  0.3835 -1.9166  1.9777
  278MOL0     H37485   8.670   3.308   1.340  2.5816 -0.5534  0.6972
  278MOL0     H37486   8.734   3.053   1.384 -0.6036 -0.0824  0.6562
  278MOL0     H37487   8.762   3.112   1.545  0.8816  1.7804  1.0478
  278MOL0     H37488   8.903   3.309   1.452  0.7880 -1.9405  4.8424
  278MOL0     H37489   8.910   3.203   1.298  1.3460 -1.6912  0.6332
  278MOL0     H37490   9.185   3.007   1.608 -0.1821  0.3472  1.4068
  278MOL0     H37491   9.442   3.089   1.604  0.6524  2.4567  1.8501
  278MOL0     H37492   9.756   3.102   1.478  1.4085  0.1108 -1.2181
  278MOL0     H37493  10.012   3.101   1.486  0.4486 -0.2487  1.1369
  278MOL0     H37494  10.249   3.131   1.502 -0.6473 -0.7251 -0.6247
  278MOL0     H37495  10.167   3.222   1.381  0.7153  3.5640 -1.4031
  278MOL0     H37496  10.406   3.248   1.352 -0.0091 -0.1166  0.1839
  278MOL0     H37497  10.336   3.402   1.401  1.1374 -0.3002 -1.5206
  278MOL0     H37498  10.444   3.426   1.584 -3.1301 -0.5185  0.5238
  278MOL0     H37499  10.417   3.253   1.634  2.8872  0.5405  2.1347
  278MOL0     H37500  10.618   3.373   1.448  0.8466  0.1673 -0.3576
  278MOL0     H37501  10.624   3.198   1.491 -1.6020  0.0019  0.1886
  278MOL0     H37502  10.793   3.288   1.629  1.2698  3.0643  2.3217
  278MOL0     H37503  10.639   3.262   1.724  1.2135  2.5279  2.3778
  278MOL0     H37504  10.592   3.504   1.699  1.2321  2.8622 -2.1935
  278MOL0     H37505  10.724   3.484   1.798 -1.4952  0.3048  0.6484
  278MOL0     H37506  10.698   3.585   1.516 -2.4963 -0.2805  2.3737
  278MOL0     H37507  10.854   3.518   1.550 -0.7558 -0.2849 -0.8762
  278MOL0     H37508  10.891   3.739   1.603  0.2371 -1.1065 -0.1215
  278MOL0     H37509  10.743   3.760   1.700 -0.6728  1.0569 -3.6867
  278MOL0     H37510   9.981   3.479   1.698  1.4274 -2.0534  1.7437
  278MOL0     H37511   9.756   3.448   1.722  1.1251 -1.3456  1.7036
  278MOL0     H37512   9.344   3.422   1.382  0.0044 -1.5609 -1.3812
  278MOL0     H37513   9.109   3.366   1.364  2.7697  2.3640 -1.1327
  278MOL0     H37514   7.304   3.318   2.039 -0.4000 -0.6469 -0.9775
  278MOL0     H37515   7.062   3.391   2.036  0.4242  1.7916  1.9143
  278MOL0     H37516   6.768   3.600   1.829 -0.1140  2.6950 -1.8814
  278MOL0     H37517   6.546   3.691   1.777 -0.5348  2.4554 -0.6331
  278MOL0     H37518   6.336   3.920   2.055 -0.3460  2.5904  1.3409
  278MOL0     H37519   6.234   3.956   1.913  1.1731  0.4402 -1.5712
  278MOL0     H37520   6.377   4.142   1.856  1.9877  2.0122  0.5875
  278MOL0     H37521   6.486   4.117   1.999 -0.7434  0.3679  1.4742
  278MOL0     H37522   6.204   4.138   2.086 -1.3015  2.0661  1.7533
  278MOL0     H37523   6.267   4.280   1.995  2.7733  0.3937 -0.0255
  278MOL0     H37524   6.439   4.314   2.152  2.3764 -1.4790 -0.2497
  278MOL0     H37525   6.285   4.310   2.232 -0.3489 -1.0448 -0.7448
  278MOL0     H37526   6.438   3.943   2.380  1.8408  1.2927  2.8123
  278MOL0     H37527   6.559   3.938   2.112  1.4985  0.4532  0.5709
  278MOL0     H37528   6.870   3.793   2.250  0.9876  0.8522  0.0998
  278MOL0     H37529   6.809   3.948   2.225  1.3698 -0.1854 -0.2473
  278MOL0     H37530   6.697   3.832   2.291 -3.2494 -0.2755 -4.5804
  279MOL0     O37531   6.804   9.161   4.871  1.6670 -0.8307 -0.1652
  279MOL0     C37532   6.843   9.234   4.957  0.1255  0.5214  0.5410
  279MOL0     O37533   6.923   9.204   5.065  0.0257  0.3972 -0.7989
  279MOL0     C37534   7.020   9.114   5.048 -0.0041  0.6152  0.1945
  279MOL0     C37535   7.124   9.133   4.950 -0.0638  0.2731  0.0138
  279MOL0     C37536   7.235   9.047   4.954  0.8808  0.5453  0.2152
  279MOL0     C37537   7.231   8.926   5.034  0.7612 -0.3366 -0.3152
  279MOL0     O37538   7.334   8.835   5.043  0.1123  0.0340 -0.2470
  279MOL0     C37539   7.452   8.848   4.957  0.3665 -0.2512  0.5069
  279MOL0     C37540   7.538   8.715   4.968  0.7467 -0.0662  0.6585
  279MOL0     C37541   7.664   8.713   4.876 -0.0527  0.1374 -0.8449
  279MOL0     C37542   7.642   8.728   4.728 -0.5041  0.4355  0.7622
  279MOL0     C37543   7.780   8.759   4.654  0.6319 -0.3965  0.5718
  279MOL0     C37544   7.734   8.791   4.502 -0.2216 -0.1080  0.1880
  279MOL0     C37545   7.848   8.751   4.405 -0.0883 -0.3865  0.7711
  279MOL0     C37546   7.971   8.836   4.441 -0.1361  0.7480 -0.3641
  279MOL0     N37547   8.073   8.858   4.338  0.1149  0.2764 -0.6960
  279MOL0     C37548   8.070   8.820   4.207  0.2477 -0.3979 -0.5205
  279MOL0     C37549   8.182   8.873   4.156 -0.2010  0.2461  0.1156
  279MOL0     C37550   8.216   8.872   4.009  0.0158 -0.7926  0.2538
  279MOL0     C37551   8.342   8.793   3.998  0.2677  0.3112  0.4978
  279MOL0     C37552   8.399   8.795   3.850 -0.1840 -0.3635  0.3583
  279MOL0     C37553   8.510   8.697   3.822  0.5465 -0.0269  0.2622
  279MOL0     O37554   8.542   8.704   3.677  0.3017  0.5305 -1.0292
  279MOL0     C37555   8.670   8.672   3.628 -0.0489 -0.7201 -0.2585
  279MOL0     C37556   8.688   8.672   3.496  0.0813 -0.1660 -0.1582
  279MOL0     C37557   8.811   8.639   3.437 -0.7984 -0.3798  0.2019
  279MOL0     C37558   8.919   8.611   3.523  0.1415 -0.8500 -0.2210
  279MOL0     C37559   9.054   8.578   3.460  0.4154 -0.9891 -0.5944
  279MOL0     O37560   9.119   8.490   3.527  0.0067  0.1830  0.3751
  279MOL0     C37561   9.243   8.448   3.480 -0.2225 -0.1727 -0.1023
  279MOL0     C37562   9.265   8.390   3.346 -0.4904 -0.4305 -0.3595
  279MOL0     C37563   9.382   8.334   3.317 -0.7002  0.8943 -0.6063
  279MOL0     C37564   9.496   8.344   3.406  0.6933  0.2497 -0.2185
  279MOL0     O37565   9.602   8.266   3.368  0.1238 -0.5798 -0.2836
  279MOL0     C37566   9.730   8.334   3.401 -0.1035 -0.3620  0.1139
  279MOL0     C37567   9.801   8.255   3.503  0.0969  0.5862  0.7742
  279MOL0     C37568   9.847   8.116   3.448  0.5554 -1.2400  1.0477
  279MOL0     C37569   9.938   8.130   3.332 -0.4801  0.1579 -0.4381
  279MOL0     C37570  10.036   8.019   3.310 -0.1032 -0.0336  0.5866
  279MOL0     C37571  10.140   8.059   3.205 -0.0368 -0.3210  0.5763
  279MOL0     C37572  10.245   7.951   3.174  0.1617 -0.1496 -0.0601
  279MOL0     C37573  10.371   7.966   3.265 -0.7954 -0.0167 -1.3880
  279MOL0    Cl37574  10.494   7.841   3.227  0.1447  0.1212  0.2086
  279MOL0     C37575   9.475   8.410   3.531 -0.2397 -0.4587 -1.1401
  279MOL0     C37576   9.348   8.453   3.563  0.0576 -0.5994  0.1044
  279MOL0     O37577   9.097   8.642   3.365  0.5404  0.9357  0.3767
  279MOL0     C37578   8.902   8.603   3.658 -0.1074  0.2593  0.0263
  279MOL0     C37579   8.779   8.647   3.713 -0.1751  0.7705  0.0125
  279MOL0     N37580   8.249   8.941   4.251 -0.2357  0.2417  0.0733
  279MOL0     N37581   8.185   8.936   4.362  1.0785  0.1259 -0.3980
  279MOL0     C37582   7.122   8.909   5.129 -0.1437 -0.6080 -0.1241
  279MOL0     C37583   7.029   9.011   5.139  0.0988  0.4600 -0.0902
  279MOL0     C37584   6.781   9.364   4.947  0.8568 -0.0299 -0.7698
  279MOL0     C37585   6.709   9.410   4.835 -0.1892  0.8280 -0.4501
  279MOL0     C37586   6.644   9.532   4.833 -0.6657 -0.3068  0.2419
  279MOL0     C37587   6.645   9.612   4.952  0.2430 -0.0354 -0.0146
  279MOL0     O37588   6.572   9.723   4.935 -0.2461 -0.4417 -0.4048
  279MOL0     C37589   6.489   9.776   5.041 -0.8702  0.4522 -0.7533
  279MOL0     C37590   6.380   9.856   4.977 -0.2013 -0.2124  0.1756
  279MOL0     C37591   6.314   9.952   5.081  0.4900 -0.6754  0.7531
  279MOL0     C37592   6.212   9.875   5.171 -0.2001 -0.3120  0.3584
  279MOL0     C37593   6.134   9.969   5.251 -0.0352  0.8867 -0.4167
  279MOL0     C37594   6.052  10.045   5.299 -0.9606  1.1887 -0.2904
  279MOL0     C37595   6.722   9.575   5.052  1.0360  0.3470 -0.4521
  279MOL0     C37596   6.786   9.450   5.059  0.2080 -0.1908  0.1669
  279MOL0     C37597   6.837   9.427   5.196  0.2283  0.2009 -0.6288
  279MOL0     H37598   7.113   9.203   4.868 -1.8592 -1.2810 -1.1530
  279MOL0     H37599   7.320   9.053   4.887  2.1921 -0.2794  1.7361
  279MOL0     H37600   7.418   8.864   4.854 -0.2661  0.7227  0.8522
  279MOL0     H37601   7.523   8.921   4.996  2.2681 -0.6879 -1.8404
  279MOL0     H37602   7.473   8.631   4.942  1.7250 -1.4851  2.5101
  279MOL0     H37603   7.572   8.693   5.070  4.3644 -1.7837 -0.7483
  279MOL0     H37604   7.716   8.618   4.892 -0.1754  0.1806 -0.1490
  279MOL0     H37605   7.730   8.785   4.926  0.7178 -0.4745 -0.9551
  279MOL0     H37606   7.592   8.640   4.685 -0.9116  0.0069  2.0691
  279MOL0     H37607   7.578   8.816   4.711 -0.4165  0.6110  1.3379
  279MOL0     H37608   7.838   8.842   4.696 -1.1525  2.8689 -2.8227
  279MOL0     H37609   7.851   8.676   4.664 -1.5069 -2.1480  2.1640
  279MOL0     H37610   7.645   8.729   4.487 -1.3324  1.3704  0.4483
  279MOL0     H37611   7.702   8.894   4.483 -0.6445 -0.3522 -0.4668
  279MOL0     H37612   7.827   8.765   4.299  0.8840  1.1615  0.7497
  279MOL0     H37613   7.884   8.650   4.425 -3.3614 -1.9700 -0.5299
  279MOL0     H37614   7.936   8.937   4.465 -3.7697  0.2504 -2.7346
  279MOL0     H37615   8.006   8.789   4.533 -3.4569  3.0694  2.3238
  279MOL0     H37616   7.984   8.771   4.164 -0.6911  0.5996  0.1742
  279MOL0     H37617   8.128   8.836   3.955  1.1277 -2.3868 -0.5737
  279MOL0     H37618   8.224   8.976   3.977  0.9388 -0.5916  1.0928
  279MOL0     H37619   8.422   8.835   4.061  1.2554 -1.3085  0.3633
  279MOL0     H37620   8.326   8.690   4.030 -0.1475  0.3794  0.5116
  279MOL0     H37621   8.426   8.898   3.824  2.8084 -1.3456 -0.8411
  279MOL0     H37622   8.316   8.769   3.784  0.5527 -0.7333 -0.4452
  279MOL0     H37623   8.473   8.597   3.848  3.0112 -1.2974 -0.7656
  279MOL0     H37624   8.592   8.716   3.892 -1.2983  0.8333  2.2997
  279MOL0     H37625   8.605   8.685   3.427  1.2972 -4.0409 -2.7179
  279MOL0     H37626   8.832   8.637   3.331  0.9740  0.0038  0.5176
  279MOL0     H37627   9.179   8.383   3.280 -2.3381 -0.0078  1.8844
  279MOL0     H37628   9.396   8.278   3.225 -1.7955  2.3663 -1.7224
  279MOL0     H37629   9.787   8.343   3.308 -0.7733  1.1781 -0.1821
  279MOL0     H37630   9.718   8.438   3.433 -1.6101 -0.8395  1.1872
  279MOL0     H37631   9.893   8.301   3.540  1.1176 -0.0363 -0.8992
  279MOL0     H37632   9.738   8.240   3.592 -1.0235 -2.5004 -0.4100
  279MOL0     H37633   9.903   8.068   3.529  2.2816 -1.0828  0.0160
  279MOL0     H37634   9.761   8.055   3.419  2.1550 -1.6511 -3.7092
  279MOL0     H37635  10.001   8.218   3.340  0.0166 -0.1835 -0.5445
  279MOL0     H37636   9.867   8.145   3.250 -1.9185  0.6254  0.8438
  279MOL0     H37637   9.970   7.937   3.281 -3.0166  3.2017 -3.0033
  279MOL0     H37638  10.090   7.991   3.401  0.2732  1.8169  0.9782
  279MOL0     H37639  10.087   8.087   3.114  0.9286 -0.6863 -0.1104
  279MOL0     H37640  10.188   8.151   3.242 -2.4014  2.1400 -1.9887
  279MOL0     H37641  10.277   7.968   3.071 -2.0044 -0.7752 -0.8807
  279MOL0     H37642  10.197   7.854   3.189 -1.4646  0.5858 -0.3153
  279MOL0     H37643  10.418   8.065   3.255 -0.4482  0.0834  0.8442
  279MOL0     H37644  10.362   7.950   3.372  3.7700  0.0268 -0.8025
  279MOL0     H37645   9.554   8.416   3.605 -1.5723  1.5846  0.2145
  279MOL0     H37646   9.338   8.504   3.658 -3.2690  0.8077 -0.8832
  279MOL0     H37647   8.995   8.593   3.714  0.8830  2.6074 -1.0827
  279MOL0     H37648   8.791   8.649   3.821  2.5577 -2.1218 -0.0899
  279MOL0     H37649   7.132   8.823   5.194  0.4029 -1.7596 -1.6722
  279MOL0     H37650   6.942   9.004   5.204 -0.2480 -1.3833 -0.7042
  279MOL0     H37651   6.705   9.347   4.746  0.3154 -1.5652  1.1330
  279MOL0     H37652   6.582   9.563   4.750 -1.9508  0.9796  1.6160
  279MOL0     H37653   6.556   9.833   5.107 -1.3684  1.7909 -1.3778
  279MOL0     H37654   6.445   9.694   5.099  2.8007 -0.3257  1.3145
  279MOL0     H37655   6.301   9.800   4.927  0.9917  0.0788 -2.1755
  279MOL0     H37656   6.418   9.912   4.891 -1.5362  2.4654  1.2448
  279MOL0     H37657   6.260  10.032   5.030 -1.2146 -2.0258  0.3352
  279MOL0     H37658   6.394  10.000   5.138  0.2616  2.0354 -1.0320
  279MOL0     H37659   6.148   9.823   5.099 -0.4879 -1.8301  1.6771
  279MOL0     H37660   6.261   9.797   5.228  3.9448  0.7250 -1.4099
  279MOL0     H37661   5.989  10.112   5.354 -3.2347  0.2603 -1.6131
  279MOL0     H37662   6.711   9.638   5.140  0.4703 -0.1908 -0.1310
  279MOL0     H37663   6.789   9.339   5.238  0.5769  0.8896  1.3487
  279MOL0     H37664   6.943   9.401   5.207  0.1827  0.2176 -0.1210
  279MOL0     H37665   6.823   9.515   5.259  0.2289 -0.8587  0.8957
  280MOL0     O37666   5.265   0.659  10.829 -0.4041 -0.2611 -0.0028
  280MOL0     C37667   5.276   0.783  10.813  0.6981 -0.2195  1.0771
  280MOL0     O37668   5.297   0.861  10.922  0.3768  0.0314  0.0347
  280MOL0     C37669   5.347   0.816  11.046 -0.2879  0.5274 -0.1559
  280MOL0     C37670   5.309   0.876  11.159 -0.1583 -0.2135  0.3267
  280MOL0     C37671   5.359   0.838  11.278 -0.0278  0.2326  0.0510
  280MOL0     C37672   5.468   0.748  11.290 -0.5454  0.3774  1.3318
  280MOL0     O37673   5.537   0.724  11.403 -0.9569 -0.0771  0.5879
  280MOL0     C37674   5.519   0.805  11.524 -0.2388  0.1104  0.0061
  280MOL0     C37675   5.592   0.744  11.643 -0.5898  0.1464 -0.3752
  280MOL0     C37676   5.749   0.749  11.645  0.3486  0.3767  0.6158
  280MOL0     C37677   5.806   0.638  11.555 -0.4474  0.3792 -0.3076
  280MOL0     C37678   5.959   0.657  11.544  0.1664  1.2395 -0.3431
  280MOL0     C37679   6.033   0.545  11.468  0.1459 -0.3021  0.6679
  280MOL0     C37680   6.182   0.568  11.444 -0.3876 -0.5242 -0.5410
  280MOL0     C37681   6.263   0.554  11.566 -0.4149 -0.1437  0.4140
  280MOL0     N37682   6.236   0.427  11.642 -0.1825  0.1239  0.1309
  280MOL0     C37683   6.322   0.320  11.630  0.5725  0.3983  0.0236
  280MOL0     C37684   6.263   0.241  11.723  0.0718 -0.0064 -0.0482
  280MOL0     C37685   6.319   0.096  11.733  0.3624 -0.0495 -0.4041
  280MOL0     C37686   6.422   0.087  11.849 -0.5127  0.4730 -0.6014
  280MOL0     C37687   6.490  -0.055  11.873  0.3489 -0.1193 -0.1776
  280MOL0     C37688   6.584  -0.097  11.752  0.4741 -0.0847 -0.7922
  280MOL0     O37689   6.676   0.010  11.728 -0.5779  1.1647 -0.6819
  280MOL0     C37690   6.798   0.006  11.782  0.3347 -1.7939 -1.1712
  280MOL0     C37691   6.890   0.095  11.735  0.3682 -0.3225 -0.2701
  280MOL0     C37692   7.018   0.107  11.784  0.1353 -0.1367 -0.9852
  280MOL0     C37693   7.056   0.031  11.899  0.0440 -0.3773 -1.0794
  280MOL0     C37694   7.189   0.052  11.957 -0.0488 -1.5168  1.2505
  280MOL0     O37695   7.213   0.050  12.091  0.4698 -0.2971  0.1283
  280MOL0     C37696   7.344   0.051  12.126 -0.2151 -0.3229  0.2243
  280MOL0     C37697   7.388  -0.065  12.201  0.0632 -0.2171 -0.2852
  280MOL0     C37698   7.507  -0.062  12.272 -0.9886 -0.1853 -0.0352
  280MOL0     C37699   7.600   0.044  12.243 -1.1145  0.5006  0.1035
  280MOL0     O37700   7.715   0.053  12.310 -0.4735  0.7968  0.1445
  280MOL0     C37701   7.829   0.121  12.253 -0.3856  0.0561  0.0818
  280MOL0     C37702   7.963   0.046  12.263  1.6723  0.0855 -0.1749
  280MOL0     C37703   7.969  -0.076  12.167  0.4996 -0.1596 -0.6615
  280MOL0     C37704   8.093  -0.159  12.198  0.6324 -0.5700  0.3217
  280MOL0     C37705   8.119  -0.288  12.125  0.1125 -1.2363  0.0920
  280MOL0     C37706   8.225  -0.381  12.182  0.7419 -0.5746  0.0595
  280MOL0     C37707   8.363  -0.333  12.158  0.1555 -1.0121  0.2149
  280MOL0     C37708   8.465  -0.418  12.230 -0.1245  0.0057 -0.2515
  280MOL0    Cl37709   8.620  -0.354  12.173 -0.0634 -0.1871  0.0972
  280MOL0     C37710   7.562   0.146  12.154  0.1856  0.6449 -0.3486
  280MOL0     C37711   7.435   0.154  12.094 -0.5386  0.1051 -0.1845
  280MOL0     O37712   7.272   0.077  11.864  0.0105 -0.0867  0.6704
  280MOL0     C37713   6.957  -0.048  11.959  0.2936 -0.6542 -1.2509
  280MOL0     C37714   6.830  -0.066  11.900 -0.3300 -0.4731  0.2808
  280MOL0     N37715   6.146   0.286  11.771  0.1059  0.8236  0.1528
  280MOL0     N37716   6.137   0.407  11.733 -0.5466  0.8348  0.2353
  280MOL0     C37717   5.516   0.696  11.169  0.2899  0.0309  0.3712
  280MOL0     C37718   5.445   0.719  11.046 -1.0920 -0.9183 -0.7279
  280MOL0     C37719   5.255   0.839  10.675  0.2702  0.7195  0.1463
  280MOL0     C37720   5.249   0.977  10.668  0.7572  0.8867  0.7376
  280MOL0     C37721   5.263   1.037  10.546  0.2742 -0.3984  0.4222
  280MOL0     C37722   5.270   0.978  10.425 -0.3796  0.0798  0.6357
  280MOL0     O37723   5.287   1.046  10.310 -0.1956 -0.2563 -0.2883
  280MOL0     C37724   5.186   1.031  10.214  0.7110  0.0598  0.3653
  280MOL0     C37725   5.083   1.145  10.203  0.0882  0.5414 -0.0223
  280MOL0     C37726   5.147   1.279  10.191  0.7119  0.1301 -0.2205
  280MOL0     C37727   5.242   1.301  10.075  0.7745  0.4718  0.1397
  280MOL0     C37728   5.180   1.318   9.947  0.6109  0.2491 -0.2183
  280MOL0     C37729   5.103   1.332   9.853 -1.0585  0.0780 -0.7212
  280MOL0     C37730   5.269   0.837  10.431  0.1785 -0.6647  0.3954
  280MOL0     C37731   5.250   0.765  10.551 -0.6464 -0.1867  0.5136
  280MOL0     C37732   5.254   0.621  10.542 -0.1579  0.0347 -0.7620
  280MOL0     H37733   5.249   0.965  11.152 -1.6025 -0.9618  2.2476
  280MOL0     H37734   5.336   0.903  11.361  3.3127  1.3554  0.2716
  280MOL0     H37735   5.577   0.898  11.522  1.7143 -1.0362  0.2440
  280MOL0     H37736   5.417   0.827  11.555  0.1847 -0.7058  2.1647
  280MOL0     H37737   5.545   0.645  11.641 -1.4563  0.4013  2.5913
  280MOL0     H37738   5.563   0.796  11.735  2.2223  2.3621 -0.6284
  280MOL0     H37739   5.773   0.731  11.750 -2.1279 -4.5399  0.6384
  280MOL0     H37740   5.780   0.851  11.618 -1.5960  0.8188 -0.1168
  280MOL0     H37741   5.798   0.536  11.596  1.0779  0.8009  1.1351
  280MOL0     H37742   5.761   0.637  11.455  0.8049 -1.9717 -0.9317
  280MOL0     H37743   5.979   0.754  11.496 -1.6610  0.9667 -1.7645
  280MOL0     H37744   5.993   0.645  11.647  0.4725 -2.2685 -0.7451
  280MOL0     H37745   6.013   0.449  11.517  0.5948  0.2170  1.9271
  280MOL0     H37746   5.978   0.536  11.374  2.3512  4.5352 -1.4262
  280MOL0     H37747   6.202   0.666  11.401 -0.9311  0.0141  0.3948
  280MOL0     H37748   6.225   0.493  11.376  0.9264 -0.0636 -0.2570
  280MOL0     H37749   6.371   0.561  11.548 -0.4316  5.2994  0.8936
  280MOL0     H37750   6.251   0.638  11.634 -0.4316 -1.1569  1.6911
  280MOL0     H37751   6.403   0.302  11.560 -1.6162  0.3250 -2.6730
  280MOL0     H37752   6.235   0.027  11.740  0.0550  0.1744 -1.6453
  280MOL0     H37753   6.371   0.080  11.638 -1.6788  0.7179 -1.7061
  280MOL0     H37754   6.507   0.155  11.837  1.3969 -1.7180 -0.1062
  280MOL0     H37755   6.379   0.133  11.939  2.2240  3.9868 -0.8598
  280MOL0     H37756   6.409  -0.126  11.888 -1.0518  1.3834 -0.3410
  280MOL0     H37757   6.551  -0.038  11.962  1.0163 -0.9581 -0.4681
  280MOL0     H37758   6.525  -0.108  11.660  2.5018 -1.5957 -1.9918
  280MOL0     H37759   6.635  -0.192  11.772 -0.7966 -0.6748 -0.1898
  280MOL0     H37760   6.870   0.154  11.646  1.1938  1.5990  0.7647
  280MOL0     H37761   7.091   0.168  11.732  0.1057  1.3958  0.6852
  280MOL0     H37762   7.315  -0.144  12.213 -1.6246  1.2840 -0.3325
  280MOL0     H37763   7.533  -0.131  12.351  0.6326  0.5983  0.1586
  280MOL0     H37764   7.829   0.131  12.144  0.3246 -3.7562 -0.4004
  280MOL0     H37765   7.836   0.220  12.300 -0.5702  0.6783 -1.1414
  280MOL0     H37766   8.047   0.114  12.246  1.2981  0.0422 -2.4715
  280MOL0     H37767   7.981   0.011  12.365 -3.0124 -0.4428  0.6824
  280MOL0     H37768   7.886  -0.147  12.165  0.1096  0.2999 -1.0543
  280MOL0     H37769   7.966  -0.045  12.062 -0.9402  1.6019 -0.1588
  280MOL0     H37770   8.096  -0.171  12.306  1.2086 -1.7377  0.1875
  280MOL0     H37771   8.174  -0.097  12.160 -1.1056  0.3704 -2.1790
  280MOL0     H37772   8.144  -0.268  12.021 -1.0611  1.3743  0.2466
  280MOL0     H37773   8.024  -0.342  12.133 -0.9956  0.5149 -0.7140
  280MOL0     H37774   8.219  -0.387  12.291  2.1203  1.6101  0.3118
  280MOL0     H37775   8.202  -0.481  12.144  4.0182 -0.4908 -2.5412
  280MOL0     H37776   8.378  -0.229  12.187  0.9426 -0.2765 -2.4875
  280MOL0     H37777   8.368  -0.329  12.049 -0.8513  0.6991  0.1942
  280MOL0     H37778   8.442  -0.410  12.336 -2.6240  1.0304 -0.8010
  280MOL0     H37779   8.462  -0.523  12.199  1.0412  0.6625 -2.9072
  280MOL0     H37780   7.636   0.223  12.132  0.7696  0.0640 -0.4696
  280MOL0     H37781   7.394   0.235  12.033 -4.4436 -2.7659 -1.7915
  280MOL0     H37782   6.981  -0.099  12.052 -1.2829 -2.4084 -1.7498
  280MOL0     H37783   6.764  -0.138  11.946  0.7972 -1.9294 -0.3094
  280MOL0     H37784   5.599   0.627  11.163  0.6325  0.4478  0.3424
  280MOL0     H37785   5.478   0.662  10.960 -1.4344  0.7800 -2.0265
  280MOL0     H37786   5.244   1.041  10.755 -4.2365  2.1916 -0.1795
  280MOL0     H37787   5.277   1.144  10.550 -2.2597 -0.0504  2.2967
  280MOL0     H37788   5.130   0.939  10.229  0.3481  0.2082 -0.0256
  280MOL0     H37789   5.240   1.015  10.120  1.6023 -3.2420  1.3175
  280MOL0     H37790   5.027   1.143  10.297  1.4102  0.4827  0.7811
  280MOL0     H37791   5.017   1.123  10.118 -1.3448 -3.8673  1.9126
  280MOL0     H37792   5.192   1.302  10.288 -2.9476 -1.3381  2.0315
  280MOL0     H37793   5.074   1.360  10.195  2.3386  1.6259  1.6429
  280MOL0     H37794   5.295   1.396  10.088 -1.7408  1.7187  2.2308
  280MOL0     H37795   5.319   1.226  10.056  0.7979  0.9212 -1.6786
  280MOL0     H37796   5.043   1.362   9.770 -0.1770  1.9064 -0.7545
  280MOL0     H37797   5.299   0.788  10.339 -0.4119  2.0592 -1.3819
  280MOL0     H37798   5.215   0.558  10.623  4.1100 -1.4817  0.3462
  280MOL0     H37799   5.191   0.582  10.461 -2.9895 -0.1130  1.3284
  280MOL0     H37800   5.356   0.588  10.520  0.4166  2.4126 -2.0042
  281MOL0     O37801   5.813   7.254   0.072  0.0654 -0.0218 -0.0106
  281MOL0     C37802   5.803   7.302  -0.040  0.0639 -0.0638 -0.8087
  281MOL0     O37803   5.909   7.335  -0.120  0.3042  0.0374  0.3080
  281MOL0     C37804   6.037   7.342  -0.059  0.4098  0.6576 -1.4349
  281MOL0     C37805   6.142   7.285  -0.127 -0.4497 -1.4173  0.2965
  281MOL0     C37806   6.274   7.295  -0.073 -0.6519  0.6690  0.3281
  281MOL0     C37807   6.304   7.363   0.041 -0.8021 -0.3165 -0.7821
  281MOL0     O37808   6.432   7.377   0.094 -0.0388 -0.2959  0.0575
  281MOL0     C37809   6.536   7.301   0.040  0.3333 -0.2411  0.5267
  281MOL0     C37810   6.617   7.386  -0.060 -1.0338 -0.1665  0.3901
  281MOL0     C37811   6.705   7.497  -0.003  0.4298 -0.0407 -0.1769
  281MOL0     C37812   6.820   7.434   0.079 -0.2748  1.2947  0.4379
  281MOL0     C37813   6.899   7.524   0.176  0.7129 -1.0433  1.5105
  281MOL0     C37814   6.806   7.559   0.299 -0.0528 -0.0017 -0.1935
  281MOL0     C37815   6.874   7.656   0.395  0.3590 -0.2416  1.1043
  281MOL0     C37816   6.992   7.592   0.459 -0.3517  0.2022 -0.4944
  281MOL0     N37817   7.047   7.671   0.570 -0.1210 -0.2101  0.4113
  281MOL0     C37818   7.159   7.640   0.652  0.6028 -0.3268  0.2793
  281MOL0     C37819   7.170   7.732   0.744 -0.4917 -0.5762 -0.8508
  281MOL0     C37820   7.263   7.748   0.856 -0.0197 -0.5294 -0.0454
  281MOL0     C37821   7.202   7.710   0.990 -0.2992  0.1822 -0.1861
  281MOL0     C37822   7.301   7.693   1.105 -0.2351  0.2041  0.8261
  281MOL0     C37823   7.433   7.780   1.098  0.2086 -0.2497 -0.2514
  281MOL0     O37824   7.518   7.735   1.201 -0.3410  0.1506 -0.9133
  281MOL0     C37825   7.626   7.812   1.240  0.7309  0.0673  0.5347
  281MOL0     C37826   7.675   7.923   1.167  0.5865  0.8710  0.3513
  281MOL0     C37827   7.789   7.992   1.204 -0.0196 -0.0880  0.5418
  281MOL0     C37828   7.863   7.948   1.317  0.9681 -0.4378  0.5476
  281MOL0     C37829   7.998   8.012   1.344  0.2805 -0.9053 -0.2832
  281MOL0     O37830   8.043   8.102   1.254 -0.4414  0.3310  0.6228
  281MOL0     C37831   8.167   8.154   1.265 -0.5428  0.1790 -1.1336
  281MOL0     C37832   8.180   8.273   1.336  0.4054  0.2148 -0.9539
  281MOL0     C37833   8.302   8.327   1.362 -0.2589 -0.1346 -0.2519
  281MOL0     C37834   8.421   8.260   1.310 -0.3936 -0.2900  0.2615
  281MOL0     O37835   8.548   8.318   1.345  0.3111  0.3624  0.0004
  281MOL0     C37836   8.667   8.269   1.283 -0.1837 -0.3638 -0.4938
  281MOL0     C37837   8.776   8.302   1.382  0.1052 -0.8939 -0.1220
  281MOL0     C37838   8.905   8.237   1.337 -0.7650 -1.1713 -0.6322
  281MOL0     C37839   9.010   8.278   1.430  0.1381 -0.1752  1.1673
  281MOL0     C37840   9.139   8.196   1.410  0.8480 -0.6504  0.4361
  281MOL0     C37841   9.250   8.263   1.492 -0.4190 -0.0187 -0.2440
  281MOL0     C37842   9.386   8.245   1.430  0.0207  0.7223  0.8394
  281MOL0     C37843   9.436   8.104   1.457 -0.2542 -0.1462  0.3118
  281MOL0    Cl37844   9.593   8.085   1.366  0.1698  0.1234 -0.5503
  281MOL0     C37845   8.411   8.142   1.227 -0.2171  0.0570  0.1370
  281MOL0     C37846   8.283   8.085   1.216  1.2027  0.1123  0.1641
  281MOL0     O37847   8.056   7.984   1.443 -0.5228  0.0445  0.1111
  281MOL0     C37848   7.807   7.850   1.390 -1.0028  0.6245 -0.1493
  281MOL0     C37849   7.698   7.780   1.351  0.3437  0.2747 -0.5280
  281MOL0     N37850   7.072   7.824   0.720  0.2279 -0.5542  0.3227
  281MOL0     N37851   6.992   7.786   0.622  0.5838  0.6142 -0.0524
  281MOL0     C37852   6.202   7.418   0.104  0.9218 -0.2894 -0.1408
  281MOL0     C37853   6.073   7.407   0.058 -0.0134  0.4337  0.6453
  281MOL0     C37854   5.674   7.318  -0.111  0.0897 -0.7311 -0.6513
  281MOL0     C37855   5.574   7.216  -0.104  0.5070  0.5551  1.4844
  281MOL0     C37856   5.445   7.235  -0.159  0.9538  0.2925 -1.7673
  281MOL0     C37857   5.407   7.343  -0.221 -1.1266 -0.0250 -0.3496
  281MOL0     O37858   5.286   7.356  -0.274 -0.4896  0.3618 -0.4178
  281MOL0     C37859   5.188   7.425  -0.185  0.4300  0.0445  1.1435
  281MOL0     C37860   5.047   7.379  -0.180 -0.3237  0.2630 -0.0855
  281MOL0     C37861   4.968   7.471  -0.076  0.2268  0.4118  0.2374
  281MOL0     C37862   4.826   7.423  -0.073  0.0703  0.4234 -0.0827
  281MOL0     C37863   4.812   7.293   0.006  0.2569  0.4447 -0.0164
  281MOL0     C37864   4.790   7.189   0.064  0.2555  0.8316 -0.2863
  281MOL0     C37865   5.496   7.449  -0.220  0.8121 -0.1646  0.1872
  281MOL0     C37866   5.623   7.446  -0.156  0.7954  0.1741  0.0535
  281MOL0     C37867   5.713   7.567  -0.146  0.3453  0.4521  1.0082
  281MOL0     H37868   6.117   7.236  -0.221 -2.3501  2.4069 -1.4105
  281MOL0     H37869   6.346   7.251  -0.142 -1.0695  1.6509 -0.7824
  281MOL0     H37870   6.605   7.286   0.124 -2.3495  0.0197  2.9690
  281MOL0     H37871   6.521   7.196   0.012  0.0124 -0.1252  0.2569
  281MOL0     H37872   6.558   7.426  -0.143 -1.8418  0.3156  1.1880
  281MOL0     H37873   6.684   7.313  -0.108 -2.3253 -1.9156  1.1326
  281MOL0     H37874   6.649   7.572   0.054 -2.0438 -1.6166 -0.4022
  281MOL0     H37875   6.739   7.558  -0.087  1.0801 -1.3406 -0.8989
  281MOL0     H37876   6.782   7.352   0.141  1.2342 -0.3458 -0.6780
  281MOL0     H37877   6.890   7.393   0.006  1.1974  3.6598  0.4152
  281MOL0     H37878   6.989   7.471   0.209  0.3632 -3.8491 -1.5119
  281MOL0     H37879   6.931   7.617   0.127  1.1042 -2.1190 -0.3862
  281MOL0     H37880   6.706   7.594   0.274 -0.1891 -0.5506 -0.4240
  281MOL0     H37881   6.797   7.468   0.359  1.7447  0.8320  1.4666
  281MOL0     H37882   6.793   7.676   0.466 -0.0558 -3.4855  1.6817
  281MOL0     H37883   6.891   7.752   0.344 -4.0056 -1.0961 -2.6221
  281MOL0     H37884   6.962   7.493   0.495 -1.1324  0.4313 -0.5060
  281MOL0     H37885   7.070   7.568   0.387 -0.4895 -1.1291 -0.2295
  281MOL0     H37886   7.227   7.556   0.650  1.0095 -0.0109 -2.0716
  281MOL0     H37887   7.351   7.689   0.827 -0.1554 -0.4406 -0.6570
  281MOL0     H37888   7.301   7.850   0.851  0.2849 -0.5805  0.9823
  281MOL0     H37889   7.117   7.774   1.017 -1.3257 -0.7792 -1.0219
  281MOL0     H37890   7.155   7.613   0.976 -0.1385  0.2194 -1.0451
  281MOL0     H37891   7.328   7.590   1.130  0.2961 -0.0010 -0.4960
  281MOL0     H37892   7.243   7.728   1.190 -0.2454 -0.1131  0.9515
  281MOL0     H37893   7.389   7.879   1.114 -0.4131 -0.5484 -0.1222
  281MOL0     H37894   7.483   7.790   1.001  0.4068  0.3088 -0.0992
  281MOL0     H37895   7.625   7.957   1.077  1.4925  0.7141 -0.2184
  281MOL0     H37896   7.833   8.074   1.148  0.9019  0.2713  1.7312
  281MOL0     H37897   8.091   8.325   1.370 -1.1311 -1.0522 -2.8355
  281MOL0     H37898   8.315   8.415   1.425  1.6274 -1.0603  0.7340
  281MOL0     H37899   8.673   8.161   1.268 -1.7070 -0.2794 -2.0699
  281MOL0     H37900   8.677   8.311   1.183  0.6412 -1.8589 -1.0668
  281MOL0     H37901   8.785   8.411   1.389  0.5931 -0.7803 -2.0674
  281MOL0     H37902   8.742   8.261   1.478 -2.9038  0.0047 -0.7028
  281MOL0     H37903   8.906   8.130   1.317 -0.0586 -0.6817 -3.9386
  281MOL0     H37904   8.933   8.284   1.242 -0.6717  0.4535  0.1674
  281MOL0     H37905   8.979   8.275   1.535  0.4831  2.6418  1.4327
  281MOL0     H37906   9.024   8.383   1.400 -1.7593 -1.1960 -4.2023
  281MOL0     H37907   9.164   8.194   1.303 -0.1442  0.7581  0.1459
  281MOL0     H37908   9.114   8.093   1.437 -3.7031 -0.0156 -0.5259
  281MOL0     H37909   9.224   8.368   1.508 -2.7651 -0.9401  3.2602
  281MOL0     H37910   9.258   8.219   1.592  1.9107 -2.0472 -1.2099
  281MOL0     H37911   9.461   8.311   1.474 -0.1642  0.7806  1.0742
  281MOL0     H37912   9.380   8.262   1.322  0.1500  2.2185  1.0463
  281MOL0     H37913   9.452   8.088   1.564  1.7709  2.0526  0.4219
  281MOL0     H37914   9.370   8.023   1.424  1.1452 -1.4708  0.6386
  281MOL0     H37915   8.490   8.083   1.182 -0.7455 -0.9199  0.4696
  281MOL0     H37916   8.272   7.984   1.176  3.2138  0.4262 -1.3105
  281MOL0     H37917   7.861   7.809   1.475  2.6831  2.5757 -1.2884
  281MOL0     H37918   7.674   7.691   1.407 -0.1513 -1.2761 -3.0640
  281MOL0     H37919   6.219   7.487   0.186  0.9623  0.3628 -0.6986
  281MOL0     H37920   5.991   7.449   0.116 -0.4953 -1.6045  1.5115
  281MOL0     H37921   5.594   7.125  -0.049 -2.4297 -1.8418 -1.0199
  281MOL0     H37922   5.368   7.159  -0.153 -1.4851  2.6256 -1.6371
  281MOL0     H37923   5.188   7.531  -0.212  1.8376 -0.1956  0.0557
  281MOL0     H37924   5.219   7.421  -0.080  1.6349 -0.7721  0.7817
  281MOL0     H37925   5.044   7.277  -0.141 -1.0157  0.6430  0.8976
  281MOL0     H37926   5.010   7.379  -0.283  0.5887 -1.0887 -0.4412
  281MOL0     H37927   4.972   7.573  -0.116 -2.1345 -0.0789 -1.5050
  281MOL0     H37928   5.005   7.471   0.027 -0.2661  0.7631  0.4214
  281MOL0     H37929   4.766   7.496  -0.018  0.0238  0.2565  0.0896
  281MOL0     H37930   4.788   7.412  -0.175  2.9218  1.2733 -1.3347
  281MOL0     H37931   4.770   7.094   0.111 -2.5409  0.1672 -2.5578
  281MOL0     H37932   5.452   7.536  -0.268  1.3573  0.2058  0.3636
  281MOL0     H37933   5.815   7.545  -0.181 -0.1755  0.9577 -0.9640
  281MOL0     H37934   5.690   7.645  -0.220 -0.5604  0.5088  1.3372
  281MOL0     H37935   5.718   7.607  -0.044 -1.1332 -0.4847  1.4734
  282MOL0     O37936   3.774   2.086   1.275 -0.0728  0.1410  0.2120
  282MOL0     C37937   3.722   2.009   1.360 -0.3183 -0.3122  0.6623
  282MOL0     O37938   3.782   1.939   1.457 -0.2267 -0.2760  0.4503
  282MOL0     C37939   3.919   1.937   1.462  0.7513 -0.0812 -0.5514
  282MOL0     C37940   3.967   2.020   1.568  1.4488 -0.3578 -0.6060
  282MOL0     C37941   4.101   2.022   1.594  0.2718 -0.7365  0.1040
  282MOL0     C37942   4.194   1.966   1.504  0.1926  0.8088 -0.3527
  282MOL0     O37943   4.325   1.980   1.517 -0.8079 -0.2590  0.2738
  282MOL0     C37944   4.372   1.947   1.655  0.0723  0.1967 -0.1233
  282MOL0     C37945   4.527   1.917   1.652 -0.4679  0.2824  0.2284
  282MOL0     C37946   4.570   1.783   1.589 -0.0097 -0.3401 -0.6763
  282MOL0     C37947   4.559   1.776   1.439 -0.2768  0.2355  0.3962
  282MOL0     C37948   4.606   1.637   1.403 -0.1379 -0.0567 -0.5862
  282MOL0     C37949   4.602   1.608   1.252 -0.0093 -0.7764 -0.8770
  282MOL0     C37950   4.723   1.673   1.173 -0.2525 -0.5927 -0.5567
  282MOL0     C37951   4.750   1.599   1.046 -0.2834  0.2826 -0.2248
  282MOL0     N37952   4.879   1.632   0.995 -0.2123  0.0640 -0.2506
  282MOL0     C37953   4.923   1.762   0.946  0.8025  0.7809  0.2080
  282MOL0     C37954   5.052   1.750   0.915  0.1774 -0.3439  0.2868
  282MOL0     C37955   5.125   1.857   0.850  0.5760 -0.7449  0.3207
  282MOL0     C37956   5.272   1.840   0.898 -0.7590  0.3265 -0.1335
  282MOL0     C37957   5.366   1.954   0.862 -0.1756  0.1150 -0.6827
  282MOL0     C37958   5.500   1.936   0.935  0.0364 -0.4066  0.3545
  282MOL0     O37959   5.598   2.006   0.861 -0.0030  0.4412  0.5525
  282MOL0     C37960   5.732   1.981   0.865  0.2702  0.2965 -0.2228
  282MOL0     C37961   5.830   2.061   0.808  1.0973  0.1133  0.4793
  282MOL0     C37962   5.967   2.031   0.814 -0.8015  1.2460 -1.0177
  282MOL0     C37963   6.011   1.930   0.894  0.5829  0.4924 -0.2015
  282MOL0     C37964   6.148   1.903   0.916 -0.1986 -0.2222  0.5314
  282MOL0     O37965   6.223   2.004   0.870 -0.8359 -0.2148 -0.1447
  282MOL0     C37966   6.355   2.023   0.895  0.3796 -0.9196  1.0309
  282MOL0     C37967   6.410   2.138   0.963 -0.3442  0.2902 -0.5077
  282MOL0     C37968   6.546   2.152   0.984 -0.8628 -1.0565 -0.6897
  282MOL0     C37969   6.636   2.046   0.940 -0.0035 -0.1684 -0.5773
  282MOL0     O37970   6.774   2.055   0.964 -0.7941 -0.0189 -0.1736
  282MOL0     C37971   6.804   2.126   1.087  0.7055  0.0455  0.1649
  282MOL0     C37972   6.932   2.060   1.157 -1.1225  0.5804  0.4643
  282MOL0     C37973   7.054   2.062   1.066 -0.0525 -0.1952 -0.0728
  282MOL0     C37974   7.162   1.986   1.139 -0.9730 -0.8707  0.3493
  282MOL0     C37975   7.311   2.003   1.102  0.3689 -0.1368  0.5616
  282MOL0     C37976   7.342   1.957   0.961  0.1330  0.0311  0.5877
  282MOL0     C37977   7.455   2.033   0.889 -0.1974 -0.0860 -0.6662
  282MOL0     C37978   7.592   2.005   0.954  0.3421 -0.0925  0.6962
  282MOL0    Cl37979   7.727   2.061   0.850 -0.1583  0.2930  0.0507
  282MOL0     C37980   6.584   1.934   0.870  0.1960  0.1352 -0.3323
  282MOL0     C37981   6.445   1.923   0.849 -0.5910 -1.6263  0.4123
  282MOL0     O37982   6.184   1.808   0.978  0.2321 -0.2386  0.1405
  282MOL0     C37983   5.911   1.844   0.960 -0.3226 -0.9594 -0.1096
  282MOL0     C37984   5.777   1.877   0.953  0.8382 -0.3895  0.0256
  282MOL0     N37985   5.088   1.613   0.935  0.7441  0.8606  0.5690
  282MOL0     N37986   4.982   1.548   0.971  0.1445  0.4487 -0.8206
  282MOL0     C37987   4.138   1.881   1.403 -1.1032 -0.9138 -0.1025
  282MOL0     C37988   4.009   1.866   1.383 -0.0927 -0.2721  0.1686
  282MOL0     C37989   3.570   2.001   1.370 -0.3994 -0.0726 -1.3985
  282MOL0     C37990   3.508   1.896   1.442  0.4581  0.1756 -0.8369
  282MOL0     C37991   3.370   1.887   1.456  0.2722 -0.6404  0.3190
  282MOL0     C37992   3.284   1.986   1.399 -0.2585 -0.0260 -0.6891
  282MOL0     O37993   3.152   1.979   1.427  0.2783 -0.3553 -0.6411
  282MOL0     C37994   3.066   1.956   1.315 -0.4372 -0.2159 -0.4587
  282MOL0     C37995   2.920   1.926   1.355  0.1436  1.3496  0.7394
  282MOL0     C37996   2.807   1.954   1.243 -0.5678  0.2253 -0.4034
  282MOL0     C37997   2.673   1.908   1.275  0.0114 -0.1724  0.3127
  282MOL0     C37998   2.629   1.993   1.388  0.5814  0.3199  0.1021
  282MOL0     C37999   2.586   2.057   1.479 -0.4188  0.7559 -0.1750
  282MOL0     C38000   3.345   2.090   1.339 -0.1405 -0.2987  1.3516
  282MOL0     C38001   3.485   2.100   1.322  0.9377  0.5435  0.6853
  282MOL0     C38002   3.532   2.226   1.249 -0.6611 -0.4127  0.4105
  282MOL0     H38003   3.907   2.086   1.631 -0.8243 -3.7246  1.0343
  282MOL0     H38004   4.149   2.089   1.665  1.7219  0.9401 -2.2967
  282MOL0     H38005   4.349   2.035   1.716 -0.6426  1.1024 -1.6471
  282MOL0     H38006   4.318   1.865   1.704  0.5543  0.2287  0.4781
  282MOL0     H38007   4.565   1.910   1.754  0.1022 -2.0767 -0.0804
  282MOL0     H38008   4.590   1.993   1.604  0.1959  0.3220  1.1520
  282MOL0     H38009   4.521   1.694   1.628 -0.2179 -0.0900 -0.3663
  282MOL0     H38010   4.677   1.768   1.607 -0.2337 -0.6461  0.4410
  282MOL0     H38011   4.456   1.790   1.405  0.4272 -0.5619 -2.3310
  282MOL0     H38012   4.623   1.852   1.393 -0.4222  1.3392  1.9607
  282MOL0     H38013   4.704   1.620   1.449  0.1272  3.3766  0.4232
  282MOL0     H38014   4.542   1.562   1.450 -1.1240  0.1639 -1.5496
  282MOL0     H38015   4.616   1.500   1.247 -1.0348 -1.0238  0.8032
  282MOL0     H38016   4.510   1.635   1.200  0.6259 -0.3314 -1.7926
  282MOL0     H38017   4.819   1.677   1.224  1.1807 -0.0962 -3.1213
  282MOL0     H38018   4.711   1.781   1.163  3.2352 -0.0124  0.3165
  282MOL0     H38019   4.738   1.493   1.072 -1.5407  0.7660  1.3275
  282MOL0     H38020   4.666   1.618   0.979 -2.3128 -2.3599  1.3539
  282MOL0     H38021   4.857   1.848   0.934 -0.4776  0.2745  2.9844
  282MOL0     H38022   5.113   1.855   0.741  0.2673  2.8313  0.1676
  282MOL0     H38023   5.086   1.957   0.869 -0.5407 -1.3434  1.2542
  282MOL0     H38024   5.269   1.814   1.005 -3.0457 -1.6482 -0.5818
  282MOL0     H38025   5.306   1.748   0.849  1.1643  0.1569  1.4079
  282MOL0     H38026   5.322   2.047   0.898  1.3085  1.0503 -1.1899
  282MOL0     H38027   5.376   1.957   0.753  1.0041  3.2809 -0.5843
  282MOL0     H38028   5.514   1.828   0.931  1.1465 -0.2467 -0.8298
  282MOL0     H38029   5.501   1.967   1.039  2.1611 -1.8326  0.8283
  282MOL0     H38030   5.796   2.146   0.751 -0.9379 -1.0675 -0.1714
  282MOL0     H38031   6.039   2.092   0.761 -1.2883  1.0727 -1.8913
  282MOL0     H38032   6.335   2.205   1.003 -1.1696 -0.9178  0.0253
  282MOL0     H38033   6.584   2.237   1.040 -0.9911 -0.8109 -0.9798
  282MOL0     H38034   6.816   2.234   1.069  0.3259  0.8529  3.9112
  282MOL0     H38035   6.724   2.133   1.162 -1.4730  0.4839 -2.0776
  282MOL0     H38036   6.953   2.111   1.252  1.9691 -0.1267  0.2753
  282MOL0     H38037   6.906   1.957   1.182 -1.5197  0.1410 -1.5694
  282MOL0     H38038   7.036   2.017   0.968  0.9185 -3.4393  1.1392
  282MOL0     H38039   7.085   2.164   1.038  4.9543 -1.9775 -2.1830
  282MOL0     H38040   7.128   1.883   1.121 -0.2188 -1.5560  2.5118
  282MOL0     H38041   7.163   2.014   1.245 -0.3550 -3.7973  1.1939
  282MOL0     H38042   7.366   1.932   1.164  3.4170  0.7765 -0.9061
  282MOL0     H38043   7.339   2.107   1.120 -1.4014 -0.0727  3.5197
  282MOL0     H38044   7.373   1.852   0.958 -0.6567 -0.3107  2.5078
  282MOL0     H38045   7.252   1.971   0.901  0.7668 -0.3578 -0.4742
  282MOL0     H38046   7.444   2.141   0.879 -0.6163  0.1325  1.6323
  282MOL0     H38047   7.458   1.990   0.788  4.2321  1.7275 -1.5546
  282MOL0     H38048   7.610   2.053   1.051  1.2071  0.5999  0.2124
  282MOL0     H38049   7.614   1.899   0.970  1.4938 -0.7702 -4.0262
  282MOL0     H38050   6.644   1.850   0.837  1.7394  0.0943  2.2829
  282MOL0     H38051   6.408   1.833   0.800 -2.2544 -1.2435  0.8989
  282MOL0     H38052   5.930   1.759   1.024  1.3481 -2.1778 -2.1080
  282MOL0     H38053   5.704   1.823   1.012 -1.9677  0.4058 -2.4795
  282MOL0     H38054   4.214   1.828   1.347  0.3233  0.9826 -0.0655
  282MOL0     H38055   3.969   1.796   1.311 -0.1422 -0.3327  0.2545
  282MOL0     H38056   3.566   1.824   1.498 -0.5974 -0.7284 -0.8835
  282MOL0     H38057   3.327   1.801   1.506  2.2749 -3.4051 -2.4053
  282MOL0     H38058   3.118   1.873   1.266 -0.3165  0.2328 -1.1149
  282MOL0     H38059   3.065   2.043   1.248  1.8481 -0.7174 -1.2526
  282MOL0     H38060   2.892   1.987   1.441 -0.1964 -0.0766  1.6797
  282MOL0     H38061   2.922   1.820   1.380 -1.9791  1.4866  1.7046
  282MOL0     H38062   2.847   1.901   1.156  3.1420 -0.4037  1.4535
  282MOL0     H38063   2.807   2.063   1.231 -0.3814  0.7704  3.4202
  282MOL0     H38064   2.616   1.940   1.187  2.7333  1.8405 -0.8522
  282MOL0     H38065   2.666   1.804   1.306 -0.9999  1.0238  4.7095
  282MOL0     H38066   2.558   2.108   1.570  2.7588  0.0595  1.3124
  282MOL0     H38067   3.278   2.170   1.309  1.8744  0.8692 -0.2867
  282MOL0     H38068   3.600   2.287   1.309  1.5592 -3.7330  1.5438
  282MOL0     H38069   3.582   2.211   1.153 -0.9003  0.0411  0.2146
  282MOL0     H38070   3.457   2.298   1.215  1.5130  0.4236 -3.1486
  283MOL0     O38071   2.745   4.987   0.243  1.0361 -0.0054 -0.1363
  283MOL0     C38072   2.704   4.874   0.275 -0.4709 -0.1306  0.1368
  283MOL0     O38073   2.582   4.821   0.235 -0.2225  0.6317  0.4841
  283MOL0     C38074   2.532   4.880   0.122 -0.6367 -0.9330  0.2041
  283MOL0     C38075   2.530   4.809  -0.004 -0.7208  0.2283 -0.3648
  283MOL0     C38076   2.469   4.854  -0.109 -0.3095  0.2797 -0.5690
  283MOL0     C38077   2.400   4.982  -0.104 -0.6102  0.9034  0.3414
  283MOL0     O38078   2.350   5.016  -0.226 -0.2511 -0.6650 -0.4502
  283MOL0     C38079   2.312   5.150  -0.256 -0.0790  0.5628  0.8077
  283MOL0     C38080   2.212   5.140  -0.366 -1.1018 -0.5066 -0.6267
  283MOL0     C38081   2.171   5.276  -0.420 -0.5116  0.3387  0.3976
  283MOL0     C38082   2.259   5.347  -0.526 -0.2356  0.5383 -0.4013
  283MOL0     C38083   2.181   5.418  -0.642  0.1269  0.6335  1.2071
  283MOL0     C38084   2.096   5.322  -0.734  0.1844 -0.0446  0.0117
  283MOL0     C38085   2.181   5.208  -0.795  0.1840 -0.7575  0.3046
  283MOL0     C38086   2.125   5.152  -0.925  0.2071  0.2990 -0.1433
  283MOL0     N38087   1.986   5.117  -0.904  0.0020 -0.1326  0.0631
  283MOL0     C38088   1.951   5.005  -0.829  0.1949 -0.2116  0.5588
  283MOL0     C38089   1.827   5.022  -0.800 -0.0480 -0.1689 -0.1540
  283MOL0     C38090   1.746   4.933  -0.706 -0.3610  0.6129 -1.3127
  283MOL0     C38091   1.749   5.001  -0.563 -0.1603 -0.7207  0.2983
  283MOL0     C38092   1.658   4.928  -0.460 -0.2575  0.4269 -1.0207
  283MOL0     C38093   1.728   4.804  -0.402  0.1184 -0.8977  0.2431
  283MOL0     O38094   1.855   4.845  -0.341  0.4775 -0.2530  0.4107
  283MOL0     C38095   1.932   4.741  -0.290  0.5094 -0.3154  0.0982
  283MOL0     C38096   2.068   4.770  -0.265 -0.6291 -0.5868  0.5645
  283MOL0     C38097   2.151   4.680  -0.189  0.0819  0.1300  0.4795
  283MOL0     C38098   2.106   4.549  -0.169 -0.9560  0.2851 -1.1531
  283MOL0     C38099   2.193   4.451  -0.085  0.6375  0.5944  0.7301
  283MOL0     O38100   2.299   4.505  -0.017  0.0499  0.0455 -0.3011
  283MOL0     C38101   2.375   4.414   0.051 -0.3016 -0.2891 -0.2218
  283MOL0     C38102   2.364   4.406   0.188  0.0390 -0.2367 -0.4092
  283MOL0     C38103   2.442   4.318   0.264  0.6029  0.3429 -0.1388
  283MOL0     C38104   2.556   4.252   0.197 -0.2815 -0.2062  1.3628
  283MOL0     O38105   2.645   4.181   0.269 -0.8955  0.0155  0.7886
  283MOL0     C38106   2.591   4.090   0.353  0.0950 -0.0984 -0.5241
  283MOL0     C38107   2.708   3.988   0.404  0.8341 -0.0114 -0.6625
  283MOL0     C38108   2.831   4.059   0.453 -0.4096  0.1127  0.2226
  283MOL0     C38109   2.937   3.958   0.504  0.9650  0.0014  0.1673
  283MOL0     C38110   3.066   4.032   0.534 -0.2954  0.8092 -0.0590
  283MOL0     C38111   3.063   4.122   0.657 -0.5081  1.0541  0.4737
  283MOL0     C38112   3.033   4.034   0.785 -0.7393 -0.1603  0.0383
  283MOL0     C38113   3.063   4.106   0.921  0.3238 -0.3107 -0.2048
  283MOL0    Cl38114   3.210   4.215   0.925 -0.0733 -0.0238 -0.2769
  283MOL0     C38115   2.571   4.273   0.059  0.4091  0.3253  0.3157
  283MOL0     C38116   2.477   4.349  -0.009  0.1134 -0.4743  0.3794
  283MOL0     O38117   2.153   4.333  -0.079  0.0265 -0.5732  0.9910
  283MOL0     C38118   1.971   4.516  -0.191  0.0757 -1.0396 -0.2565
  283MOL0     C38119   1.881   4.610  -0.248 -0.5069 -0.6137  0.4777
  283MOL0     N38120   1.778   5.130  -0.881  0.8086  0.1280  0.0506
  283MOL0     N38121   1.872   5.173  -0.951  0.0984 -0.5454  0.3316
  283MOL0     C38122   2.388   5.048   0.016  0.0750 -0.4649  1.1422
  283MOL0     C38123   2.460   5.001   0.127 -0.3447  0.9169 -0.7867
  283MOL0     C38124   2.787   4.802   0.377  0.3000  0.2754  0.1228
  283MOL0     C38125   2.897   4.860   0.435 -0.0034  0.3533 -0.3687
  283MOL0     C38126   2.985   4.791   0.520  0.6951  0.8277 -0.4026
  283MOL0     C38127   2.954   4.657   0.574  1.3251 -0.1053  0.1901
  283MOL0     O38128   3.028   4.605   0.672  0.4013 -0.5433 -0.1081
  283MOL0     C38129   3.001   4.476   0.722 -0.5081  0.1134 -0.0487
  283MOL0     C38130   2.884   4.469   0.823  0.2158  0.0372 -0.7352
  283MOL0     C38131   2.927   4.515   0.964  0.0510  0.2348  0.8421
  283MOL0     C38132   2.808   4.521   1.061  0.1811  0.3616  0.4146
  283MOL0     C38133   2.715   4.633   1.041 -1.0732 -0.5188 -0.3638
  283MOL0     C38134   2.635   4.720   1.041 -0.0026 -0.2763 -0.5416
  283MOL0     C38135   2.833   4.608   0.521  0.3820 -0.2004  0.1920
  283MOL0     C38136   2.750   4.676   0.428  0.0808  0.6633 -0.2969
  283MOL0     C38137   2.643   4.588   0.370 -0.2382 -0.3133 -0.1395
  283MOL0     H38138   2.573   4.709  -0.007 -2.5482 -0.5542 -2.6548
  283MOL0     H38139   2.465   4.791  -0.197 -0.4223  0.1144 -0.4467
  283MOL0     H38140   2.269   5.201  -0.169 -0.1219  2.3422 -0.1970
  283MOL0     H38141   2.404   5.206  -0.274  1.1838 -0.9884  2.1306
  283MOL0     H38142   2.121   5.100  -0.320 -0.2327  0.4075  2.0579
  283MOL0     H38143   2.250   5.076  -0.447 -0.4531  1.9216 -2.3448
  283MOL0     H38144   2.173   5.350  -0.339  0.6600  0.8177 -0.0524
  283MOL0     H38145   2.075   5.264  -0.471 -1.2390 -0.1731  1.8362
  283MOL0     H38146   2.317   5.423  -0.472  0.2119 -1.6089  2.3698
  283MOL0     H38147   2.337   5.281  -0.564  0.3610  0.7595  0.4070
  283MOL0     H38148   2.122   5.495  -0.592 -0.1261 -0.0606  2.0055
  283MOL0     H38149   2.254   5.473  -0.702 -1.0524  0.4036 -0.5268
  283MOL0     H38150   2.012   5.279  -0.679 -0.0848  0.5831  0.1012
  283MOL0     H38151   2.061   5.391  -0.811  1.1721 -1.1363 -1.4685
  283MOL0     H38152   2.178   5.135  -0.714 -1.7910 -0.1502  0.8479
  283MOL0     H38153   2.285   5.236  -0.813 -0.0523 -0.0919 -0.0725
  283MOL0     H38154   2.147   5.221  -1.007  2.1921 -1.4432 -1.1823
  283MOL0     H38155   2.185   5.061  -0.941 -0.2481  0.3313 -2.2935
  283MOL0     H38156   2.020   4.927  -0.799  3.1315  1.6613 -0.8379
  283MOL0     H38157   1.647   4.926  -0.753 -0.5934  4.1190 -1.6068
  283MOL0     H38158   1.783   4.830  -0.710 -0.1670  0.6813 -1.3059
  283MOL0     H38159   1.852   4.995  -0.527  0.1273 -1.4985 -0.6194
  283MOL0     H38160   1.720   5.107  -0.566  0.1414 -0.6576 -1.3968
  283MOL0     H38161   1.561   4.895  -0.497 -2.3790  1.8311  2.7748
  283MOL0     H38162   1.626   4.986  -0.374  0.2767  1.8217 -1.7332
  283MOL0     H38163   1.753   4.736  -0.484  1.6701  1.5515 -1.4799
  283MOL0     H38164   1.656   4.756  -0.335  1.3823 -3.0149  0.1754
  283MOL0     H38165   2.113   4.866  -0.288  0.5598 -2.1314 -4.8961
  283MOL0     H38166   2.253   4.713  -0.170 -0.3123  0.9215  1.3541
  283MOL0     H38167   2.284   4.464   0.234  1.2189 -0.0757  1.5367
  283MOL0     H38168   2.414   4.316   0.369 -1.4710  1.2847 -0.6153
  283MOL0     H38169   2.544   4.133   0.442 -1.0916 -3.5246  0.6795
  283MOL0     H38170   2.526   4.028   0.292  1.1367 -1.7112 -0.0505
  283MOL0     H38171   2.662   3.933   0.486 -3.0967  0.7317 -2.1718
  283MOL0     H38172   2.737   3.915   0.328  0.8354 -1.3366  0.5786
  283MOL0     H38173   2.875   4.109   0.366  0.6847  0.8359  1.1545
  283MOL0     H38174   2.813   4.141   0.523 -2.5454 -0.0321 -0.0818
  283MOL0     H38175   2.954   3.880   0.428  2.7507 -2.7876  3.1330
  283MOL0     H38176   2.898   3.907   0.593 -0.5212 -0.2975 -0.6178
  283MOL0     H38177   3.082   4.102   0.452 -0.1448 -0.7198 -1.3606
  283MOL0     H38178   3.150   3.962   0.535  1.2918  2.6121 -0.3720
  283MOL0     H38179   3.159   4.175   0.665  0.7118 -0.8857 -0.5204
  283MOL0     H38180   2.987   4.200   0.654 -0.8350  0.7389  0.4924
  283MOL0     H38181   3.107   3.953   0.788  1.2117  1.5379  0.4466
  283MOL0     H38182   2.929   4.001   0.781  0.3246 -3.8578 -1.8888
  283MOL0     H38183   2.983   4.173   0.953  0.9706 -0.5806  2.2028
  283MOL0     H38184   3.071   4.033   1.002  2.5149  1.0542  0.9255
  283MOL0     H38185   2.641   4.221  -0.006  0.5630  0.7436  0.1466
  283MOL0     H38186   2.494   4.366  -0.114 -0.8973 -1.3365  0.0565
  283MOL0     H38187   1.933   4.424  -0.150  0.1600 -0.1498  1.9753
  283MOL0     H38188   1.780   4.574  -0.263  1.2147 -5.7188 -0.8924
  283MOL0     H38189   2.325   5.136   0.028 -0.3789  0.3285 -4.4206
  283MOL0     H38190   2.465   5.039   0.229 -0.0651 -0.3370 -0.3185
  283MOL0     H38191   2.923   4.962   0.408 -1.1327  0.3615 -1.5854
  283MOL0     H38192   3.079   4.837   0.549  0.9906  0.8027 -1.2643
  283MOL0     H38193   3.089   4.433   0.772 -0.9361 -2.4865 -1.3481
  283MOL0     H38194   2.985   4.405   0.640 -0.6434  0.2607 -0.1497
  283MOL0     H38195   2.856   4.363   0.827 -2.1255  0.5978 -1.1104
  283MOL0     H38196   2.798   4.521   0.780  1.0230  0.9290 -1.2968
  283MOL0     H38197   2.987   4.606   0.971 -1.0679  1.0267  0.4175
  283MOL0     H38198   2.997   4.440   1.002  1.9580  0.3163 -2.2238
  283MOL0     H38199   2.754   4.426   1.056  0.2012  0.3926 -0.8271
  283MOL0     H38200   2.850   4.533   1.161  1.6692  0.5869 -0.2167
  283MOL0     H38201   2.566   4.801   1.050  1.3084  1.2210 -2.9924
  283MOL0     H38202   2.800   4.507   0.544  0.0511 -0.8710 -2.8104
  283MOL0     H38203   2.655   4.484   0.403 -1.8225 -0.9177 -1.3770
  283MOL0     H38204   2.550   4.624   0.416 -0.5439  1.1065 -1.8038
  283MOL0     H38205   2.644   4.593   0.261 -0.1625 -1.1297 -0.1833
  284MOL0     O38206   2.589   3.517   7.387 -0.2379 -0.3715  0.5283
  284MOL0     C38207   2.542   3.631   7.413 -0.3428 -0.2923 -0.1209
  284MOL0     O38208   2.604   3.723   7.500 -0.3770  0.3232  0.6118
  284MOL0     C38209   2.733   3.700   7.545  0.5838  0.0603 -0.1147
  284MOL0     C38210   2.840   3.755   7.479  0.0860 -0.0692  0.1145
  284MOL0     C38211   2.971   3.744   7.542  0.8678  0.4329  0.8128
  284MOL0     C38212   2.982   3.686   7.673 -0.3160 -0.0503 -0.0879
  284MOL0     O38213   3.102   3.656   7.746 -0.3839 -0.0708 -1.5596
  284MOL0     C38214   3.224   3.724   7.698  0.0133  0.4932  0.1110
  284MOL0     C38215   3.332   3.666   7.782  0.2217  0.4887  0.1493
  284MOL0     C38216   3.462   3.733   7.742  0.8470 -0.0666  0.4683
  284MOL0     C38217   3.584   3.659   7.798 -0.2605 -0.0659 -0.5796
  284MOL0     C38218   3.711   3.736   7.764 -0.2465  0.0518 -0.7831
  284MOL0     C38219   3.831   3.675   7.842 -0.0180 -0.2929 -0.0901
  284MOL0     C38220   3.953   3.763   7.839  0.2253  0.1475 -0.2270
  284MOL0     C38221   3.969   3.842   7.707 -0.8754  0.2247  0.8871
  284MOL0     N38222   4.112   3.877   7.692  0.0728  0.3049 -0.7960
  284MOL0     C38223   4.166   3.987   7.737  0.5645  0.3411  0.4564
  284MOL0     C38224   4.287   3.990   7.677  0.2852 -0.7379 -0.3734
  284MOL0     C38225   4.396   4.098   7.684  0.3276 -0.1248 -0.2657
  284MOL0     C38226   4.534   4.035   7.719 -1.0489  0.1244 -0.4852
  284MOL0     C38227   4.645   4.141   7.721  0.3506 -0.6193  0.2554
  284MOL0     C38228   4.757   4.125   7.817  0.2275  0.0323 -0.0822
  284MOL0     O38229   4.825   4.003   7.798 -0.2082  0.4076  0.3730
  284MOL0     C38230   4.947   3.998   7.728 -0.1259 -0.2624 -0.2779
  284MOL0     C38231   5.024   3.881   7.730  0.3393  0.3973 -0.3061
  284MOL0     C38232   5.141   3.867   7.655 -0.9783  0.0197 -0.0624
  284MOL0     C38233   5.194   3.980   7.574  0.3506 -0.6122 -0.4497
  284MOL0     C38234   5.329   3.986   7.507  0.1375 -0.7911 -0.1806
  284MOL0     O38235   5.373   4.113   7.473 -0.1932 -0.0469 -0.1917
  284MOL0     C38236   5.475   4.109   7.375 -0.0067  0.4144  1.0614
  284MOL0     C38237   5.451   4.157   7.242 -0.2746 -0.6776  0.6811
  284MOL0     C38238   5.553   4.155   7.146 -0.3299 -0.1858 -0.0308
  284MOL0     C38239   5.684   4.115   7.174  0.5017  0.1006 -0.9535
  284MOL0     O38240   5.775   4.098   7.077  0.4159  0.0553  0.0837
  284MOL0     C38241   5.905   4.101   7.120 -0.3250 -0.8231  0.0003
  284MOL0     C38242   5.983   4.095   6.989 -0.8614  0.6097 -0.1883
  284MOL0     C38243   6.134   4.111   7.008  0.2383  0.9039  0.5732
  284MOL0     C38244   6.195   4.107   6.861  0.1560 -0.1141 -0.3575
  284MOL0     C38245   6.350   4.140   6.862 -0.3288  0.5828 -0.0304
  284MOL0     C38246   6.406   4.140   6.724  0.1511  0.3197  0.6100
  284MOL0     C38247   6.558   4.123   6.729  0.3140 -0.1761 -0.0845
  284MOL0     C38248   6.598   4.140   6.581  0.0848  0.2224  0.1407
  284MOL0    Cl38249   6.775   4.199   6.568  0.4541 -0.1039  0.6792
  284MOL0     C38250   5.708   4.082   7.307  0.2024 -0.2142 -0.9402
  284MOL0     C38251   5.608   4.073   7.405 -0.0667  0.2924 -0.7988
  284MOL0     O38252   5.381   3.876   7.477 -0.8121 -0.5372 -0.3183
  284MOL0     C38253   5.124   4.102   7.593 -0.0810 -0.5336 -0.2339
  284MOL0     C38254   4.997   4.108   7.649 -0.1383  1.0278 -0.5598
  284MOL0     N38255   4.301   3.876   7.603  0.3950 -0.3789  0.4126
  284MOL0     N38256   4.194   3.801   7.614  0.1114 -0.1650 -0.4903
  284MOL0     C38257   2.867   3.642   7.735  0.5062  0.4111  0.7634
  284MOL0     C38258   2.743   3.647   7.676  0.5138 -0.4829 -0.0379
  284MOL0     C38259   2.402   3.666   7.366 -0.1195  0.4736 -0.0006
  284MOL0     C38260   2.359   3.803   7.383  0.2457  0.5820 -0.1683
  284MOL0     C38261   2.232   3.845   7.342  0.1666  0.0134  0.0833
  284MOL0     C38262   2.146   3.759   7.282 -0.2340  0.4534 -0.0204
  284MOL0     O38263   2.019   3.796   7.243  0.6151 -0.5469  0.4097
  284MOL0     C38264   1.943   3.893   7.318 -1.2287  0.3904  1.0599
  284MOL0     C38265   1.848   3.958   7.215 -1.0067  0.0544  0.9071
  284MOL0     C38266   1.715   3.895   7.233 -0.8710 -0.8466 -0.7820
  284MOL0     C38267   1.604   3.958   7.146 -0.1002 -0.5055  0.5541
  284MOL0     C38268   1.578   4.100   7.177 -0.6121  0.1139  1.2746
  284MOL0     C38269   1.550   4.221   7.208 -0.1150  0.6294  0.4192
  284MOL0     C38270   2.181   3.629   7.265  0.4639  0.2875  0.3117
  284MOL0     C38271   2.307   3.579   7.300  0.6220  0.1374  0.0407
  284MOL0     C38272   2.338   3.431   7.255  0.5836 -0.0875 -0.5976
  284MOL0     H38273   2.828   3.794   7.378 -0.9009 -2.4760 -0.7576
  284MOL0     H38274   3.070   3.758   7.500  1.3233 -5.1404 -0.8774
  284MOL0     H38275   3.246   3.691   7.596  2.7777  1.5937  0.2719
  284MOL0     H38276   3.213   3.833   7.700 -0.7834  0.4457 -0.7142
  284MOL0     H38277   3.325   3.557   7.790  1.4903  0.2997 -0.9050
  284MOL0     H38278   3.313   3.688   7.887 -2.6875 -3.4156  0.6466
  284MOL0     H38279   3.474   3.840   7.761 -1.6954  0.1791  1.0559
  284MOL0     H38280   3.465   3.724   7.633 -1.9166  0.8757  0.2245
  284MOL0     H38281   3.575   3.642   7.906  0.7272 -0.2920 -0.5228
  284MOL0     H38282   3.568   3.561   7.751 -0.0944  0.7089 -2.2933
  284MOL0     H38283   3.725   3.725   7.656 -1.1424 -1.7076 -0.7720
  284MOL0     H38284   3.696   3.836   7.805  0.5100  0.2767 -1.0416
  284MOL0     H38285   3.811   3.639   7.943  1.5998 -0.3265  0.2459
  284MOL0     H38286   3.854   3.575   7.805 -1.1170 -0.1800 -1.1480
  284MOL0     H38287   4.042   3.699   7.847  1.2400  1.6184  0.8577
  284MOL0     H38288   3.948   3.824   7.930  1.7368 -1.4882  1.0404
  284MOL0     H38289   3.937   3.784   7.620 -1.4562  0.7624  0.7363
  284MOL0     H38290   3.910   3.934   7.702  0.4663  1.0291 -0.9033
  284MOL0     H38291   4.121   4.070   7.791  3.5464  0.8340  2.3669
  284MOL0     H38292   4.417   4.149   7.589  1.9991 -0.5089 -0.1422
  284MOL0     H38293   4.372   4.175   7.757 -1.3516 -0.3359 -0.5536
  284MOL0     H38294   4.524   3.990   7.819 -1.7043  0.1941 -0.5177
  284MOL0     H38295   4.557   3.950   7.653  1.6239  2.5686 -3.0066
  284MOL0     H38296   4.597   4.238   7.735  0.5609 -0.5133  0.2443
  284MOL0     H38297   4.693   4.157   7.625 -1.2126  0.8900 -0.3332
  284MOL0     H38298   4.708   4.118   7.915 -0.4100 -0.9792 -0.4603
  284MOL0     H38299   4.825   4.210   7.820  1.1495 -0.6124 -1.7515
  284MOL0     H38300   4.984   3.805   7.796 -6.1282  4.9483  2.0828
  284MOL0     H38301   5.189   3.770   7.653 -1.7044 -0.3396 -1.9885
  284MOL0     H38302   5.351   4.184   7.208  0.4176  0.5472 -0.4709
  284MOL0     H38303   5.538   4.181   7.041  2.8394  1.7099 -0.1688
  284MOL0     H38304   5.916   4.196   7.173  4.4820 -0.8535 -0.4649
  284MOL0     H38305   5.934   4.016   7.183 -0.9073 -0.1061  1.2772
  284MOL0     H38306   5.978   3.989   6.962  1.6325 -0.7869  3.9243
  284MOL0     H38307   5.945   4.162   6.912 -2.5851 -2.4581 -2.2233
  284MOL0     H38308   6.154   4.203   7.064  0.0403  1.1703  0.2120
  284MOL0     H38309   6.176   4.027   7.063 -0.6517 -0.7991 -1.2607
  284MOL0     H38310   6.153   4.190   6.803  0.5363 -1.2579 -2.3537
  284MOL0     H38311   6.180   4.022   6.794 -0.1312  1.8645 -3.0054
  284MOL0     H38312   6.390   4.057   6.920 -1.1262  0.8692  0.9457
  284MOL0     H38313   6.378   4.228   6.921 -1.2440 -0.4599  2.0675
  284MOL0     H38314   6.362   4.062   6.662  1.4453 -0.3943  0.5578
  284MOL0     H38315   6.377   4.238   6.683  2.4730  2.2817  3.3090
  284MOL0     H38316   6.582   4.025   6.773  1.2389  0.1954  0.2566
  284MOL0     H38317   6.604   4.208   6.780  1.6664 -0.0409 -1.4482
  284MOL0     H38318   6.577   4.047   6.528 -0.0534 -0.5799  1.5664
  284MOL0     H38319   6.537   4.220   6.538 -1.5624 -1.6012 -1.0892
  284MOL0     H38320   5.810   4.054   7.332 -0.2919 -0.5820  0.8504
  284MOL0     H38321   5.622   4.031   7.504 -0.0368  2.1103  0.0009
  284MOL0     H38322   5.150   4.199   7.553 -1.9046  0.3469  0.5976
  284MOL0     H38323   4.950   4.205   7.645  0.7921  1.8291  3.3192
  284MOL0     H38324   2.864   3.599   7.835 -0.1039  1.3280  1.1576
  284MOL0     H38325   2.654   3.602   7.717 -0.2818 -0.6995 -1.9076
  284MOL0     H38326   2.422   3.878   7.431 -1.1997  1.3678  0.5700
  284MOL0     H38327   2.198   3.948   7.349  1.3684  0.3475  1.5680
  284MOL0     H38328   2.001   3.980   7.350 -2.0059  0.7160  1.6028
  284MOL0     H38329   1.884   3.834   7.389  0.7509 -2.4724  0.5386
  284MOL0     H38330   1.882   3.949   7.112  1.0035 -3.4159  1.7176
  284MOL0     H38331   1.854   4.062   7.249  1.1792  1.0890 -2.2506
  284MOL0     H38332   1.688   3.907   7.338  0.3875  1.2651 -0.6585
  284MOL0     H38333   1.718   3.788   7.209 -1.0796 -1.2128  0.7251
  284MOL0     H38334   1.641   3.945   7.044 -0.8769  1.3602 -0.0089
  284MOL0     H38335   1.510   3.905   7.165 -0.1941  0.2151  2.3486
  284MOL0     H38336   1.537   4.327   7.219 -2.0844  0.5549 -0.6832
  284MOL0     H38337   2.110   3.565   7.214  1.3592  1.4388 -2.5972
  284MOL0     H38338   2.372   3.373   7.342 -2.9408  0.6696  1.4982
  284MOL0     H38339   2.243   3.386   7.225  1.2432 -0.5133 -2.1543
  284MOL0     H38340   2.403   3.434   7.167 -1.0862 -2.4750 -2.0369
  285MOL0     O38341   8.714  10.110  10.021 -0.3566 -0.7783  0.1751
  285MOL0     C38342   8.776  10.095   9.913  1.1521  0.3916 -0.0787
  285MOL0     O38343   8.756   9.988   9.837 -0.7708  0.8191  0.2529
  285MOL0     C38344   8.639   9.916   9.826  0.2166 -0.3287  0.4267
  285MOL0     C38345   8.651   9.782   9.778 -0.2687 -0.3073 -0.1800
  285MOL0     C38346   8.537   9.704   9.757  0.1438 -0.5739 -0.0978
  285MOL0     C38347   8.406   9.753   9.790 -0.0438  1.3660 -0.9491
  285MOL0     O38348   8.293   9.677   9.788 -0.8598 -0.5310  0.1893
  285MOL0     C38349   8.302   9.533   9.770  0.0996 -0.7047 -0.6439
  285MOL0     C38350   8.261   9.484   9.629 -0.3770 -0.0289 -0.2328
  285MOL0     C38351   8.249   9.329   9.636  0.3418  0.1998  0.6526
  285MOL0     C38352   8.395   9.253   9.637 -0.0649 -0.0207  0.4139
  285MOL0     C38353   8.357   9.109   9.599 -0.2725  0.0230  0.2067
  285MOL0     C38354   8.476   9.009   9.584  0.4484 -0.2907 -0.1502
  285MOL0     C38355   8.427   8.870   9.555 -0.0508 -0.6733 -0.5282
  285MOL0     C38356   8.524   8.779   9.495 -0.0879  0.3421  0.1730
  285MOL0     N38357   8.657   8.752   9.551 -0.0207 -0.2485  0.7463
  285MOL0     C38358   8.768   8.784   9.476  0.3538 -0.7128 -0.0491
  285MOL0     C38359   8.875   8.773   9.558 -0.1145 -0.9915 -0.4980
  285MOL0     C38360   9.019   8.792   9.517 -0.1998  0.9781  0.5140
  285MOL0     C38361   9.042   8.945   9.497 -0.0143 -0.1665  0.2876
  285MOL0     C38362   9.186   8.961   9.447 -0.4696 -0.2573 -0.6133
  285MOL0     C38363   9.289   8.933   9.559 -0.2252  0.2563  0.0547
  285MOL0     O38364   9.261   9.026   9.663  0.2615  0.1960 -0.8266
  285MOL0     C38365   9.322   9.151   9.654  0.6669  1.1646  0.1835
  285MOL0     C38366   9.442   9.185   9.578  0.4823  1.1685  0.5842
  285MOL0     C38367   9.497   9.313   9.587 -0.9019 -0.3901 -0.1959
  285MOL0     C38368   9.436   9.411   9.671  0.9719 -1.2850 -1.6583
  285MOL0     C38369   9.491   9.552   9.689 -0.4870  0.3372 -0.3506
  285MOL0     O38370   9.617   9.574   9.620  0.6081  0.0429  0.1846
  285MOL0     C38371   9.683   9.690   9.613 -0.2792 -0.1078 -0.5851
  285MOL0     C38372   9.819   9.689   9.626  0.2719  0.4688 -0.1864
  285MOL0     C38373   9.896   9.802   9.633  0.7642 -0.4261 -0.5701
  285MOL0     C38374   9.844   9.931   9.618 -0.0848  0.3614 -1.4923
  285MOL0     O38375   9.914  10.045   9.638  0.5646 -1.0684 -0.5979
  285MOL0     C38376  10.030  10.041   9.723 -0.8801  0.0238 -0.6612
  285MOL0     C38377  10.060  10.186   9.769  0.6463  0.5985  0.3782
  285MOL0     C38378  10.180  10.213   9.859 -0.6704  0.1884 -0.2595
  285MOL0     C38379  10.178  10.362   9.888  0.6924  0.2384  1.5698
  285MOL0     C38380  10.302  10.421   9.959 -0.1937 -0.7515 -0.0004
  285MOL0     C38381  10.275  10.532  10.058 -0.5225 -0.8878  0.4643
  285MOL0     C38382  10.237  10.662   9.997  0.2211  0.1342 -0.0013
  285MOL0     C38383  10.192  10.779  10.079  0.6954 -0.6993  0.9093
  285MOL0    Cl38384  10.331  10.844  10.178  0.0079  0.2299  0.0293
  285MOL0     C38385   9.703   9.932   9.598  0.2864 -0.3149 -0.1506
  285MOL0     C38386   9.624   9.818   9.586  0.1462  0.2532  0.1743
  285MOL0     O38387   9.429   9.636   9.751 -1.0528  0.5630 -0.9954
  285MOL0     C38388   9.325   9.377   9.739  0.5368 -0.4406  1.1383
  285MOL0     C38389   9.274   9.252   9.739  0.9877  0.5314  0.3104
  285MOL0     N38390   8.835   8.744   9.686  0.2019 -0.1517 -0.1665
  285MOL0     N38391   8.705   8.734   9.684 -0.3210  0.1218 -0.4606
  285MOL0     C38392   8.399   9.884   9.838  0.1952  0.3837 -0.2464
  285MOL0     C38393   8.513   9.968   9.846  0.3217  0.2805 -0.1304
  285MOL0     C38394   8.868  10.196   9.858 -0.5131  0.9812  0.3518
  285MOL0     C38395   8.934  10.161   9.743 -1.2114 -0.2069  0.7268
  285MOL0     C38396   9.033  10.244   9.684  0.2857  0.3244 -0.5480
  285MOL0     C38397   9.061  10.372   9.734  0.1755  0.0767 -0.1472
  285MOL0     O38398   9.151  10.454   9.668 -0.2166  0.4131  0.1509
  285MOL0     C38399   9.223  10.541   9.752 -0.2628 -0.5773  0.4347
  285MOL0     C38400   9.300  10.636   9.670 -0.5559 -0.0326 -0.1205
  285MOL0     C38401   9.212  10.714   9.573 -1.1323 -0.1861 -0.3971
  285MOL0     C38402   9.285  10.829   9.507  0.0103  0.4290  0.3042
  285MOL0     C38403   9.382  10.790   9.410 -0.4603  0.2650  0.6322
  285MOL0     C38404   9.458  10.761   9.324  0.1164 -0.5914 -0.2654
  285MOL0     C38405   8.984  10.407   9.841 -0.4670 -0.5291  0.4448
  285MOL0     C38406   8.889  10.326   9.904 -0.1097  0.5296  0.3858
  285MOL0     C38407   8.813  10.386  10.020  0.3240  0.4601 -0.4112
  285MOL0     H38408   8.742   9.739   9.736 -2.0699 -2.4605 -2.1890
  285MOL0     H38409   8.560   9.609   9.711 -0.9231 -0.2576 -1.3514
  285MOL0     H38410   8.403   9.495   9.791  0.1086 -0.6077 -0.5106
  285MOL0     H38411   8.239   9.499   9.852 -0.0084  3.9135  1.4998
  285MOL0     H38412   8.340   9.509   9.557  0.2909  1.5198  0.9853
  285MOL0     H38413   8.160   9.525   9.619 -1.0250 -0.9230  2.0559
  285MOL0     H38414   8.186   9.303   9.551  0.3880  1.1090  0.3247
  285MOL0     H38415   8.196   9.300   9.727 -0.5073 -2.2881 -0.5583
  285MOL0     H38416   8.465   9.289   9.561  1.2545 -2.1111  0.5644
  285MOL0     H38417   8.444   9.265   9.734  0.6698 -0.0165  0.0466
  285MOL0     H38418   8.290   9.075   9.678 -2.2174  1.3696 -0.7922
  285MOL0     H38419   8.313   9.100   9.499 -0.3323  1.1928  0.1154
  285MOL0     H38420   8.553   9.046   9.516  0.9243  2.6218  1.8031
  285MOL0     H38421   8.519   8.996   9.684  0.4578 -0.9299 -0.2295
  285MOL0     H38422   8.343   8.886   9.487  1.1324 -0.5886 -2.0172
  285MOL0     H38423   8.391   8.831   9.650 -1.9766  0.7882 -0.6163
  285MOL0     H38424   8.465   8.688   9.503 -1.1256  0.7003 -2.4065
  285MOL0     H38425   8.534   8.795   9.388  2.4666 -2.9025 -0.2159
  285MOL0     H38426   8.769   8.800   9.368  2.4863 -1.0038 -0.1230
  285MOL0     H38427   9.081   8.756   9.600  0.4545 -2.1377 -1.1606
  285MOL0     H38428   9.042   8.740   9.424  0.7511 -0.6397  1.6163
  285MOL0     H38429   8.980   8.979   9.413  1.8538  1.4914 -0.5105
  285MOL0     H38430   9.032   9.005   9.588 -0.3776 -0.5122  0.4760
  285MOL0     H38431   9.196   9.067   9.422  0.2697  0.8956  3.7184
  285MOL0     H38432   9.209   8.896   9.362  0.2663 -2.5212  1.1962
  285MOL0     H38433   9.383   8.941   9.505  0.1110  0.9894  0.7266
  285MOL0     H38434   9.288   8.828   9.591  1.7965  0.4839  1.0399
  285MOL0     H38435   9.488   9.110   9.514  0.0696 -0.6729  2.3433
  285MOL0     H38436   9.594   9.330   9.542 -0.1474  3.4547  2.4192
  285MOL0     H38437   9.858   9.587   9.631  2.2448  1.1154 -1.3329
  285MOL0     H38438  10.003   9.797   9.649  1.0099  0.2783 -1.8484
  285MOL0     H38439  10.014   9.981   9.813  0.8801  1.2179  0.5307
  285MOL0     H38440  10.113  10.001   9.663  0.7704 -1.0240  2.0741
  285MOL0     H38441  10.053  10.257   9.686 -0.6570  2.7305  2.2015
  285MOL0     H38442   9.970  10.213   9.825  0.4147  0.2670  0.1671
  285MOL0     H38443  10.188  10.154   9.950 -0.8958 -1.6479 -1.3782
  285MOL0     H38444  10.264  10.185   9.794 -0.8876 -3.0692  0.7118
  285MOL0     H38445  10.095  10.380   9.956 -0.8368  0.1692 -0.1996
  285MOL0     H38446  10.151  10.419   9.799 -1.5685 -0.4347  1.7700
  285MOL0     H38447  10.383  10.446   9.889  0.7675 -2.7637  0.3269
  285MOL0     H38448  10.347  10.336  10.013 -0.4475 -0.7589  0.1982
  285MOL0     H38449  10.195  10.498  10.125 -0.5089  1.2401  1.6467
  285MOL0     H38450  10.363  10.541  10.123  0.5215 -1.7227 -0.7866
  285MOL0     H38451  10.156  10.642   9.926 -0.6334 -0.1432  1.0270
  285MOL0     H38452  10.331  10.699   9.954  1.6402 -3.4082 -0.2626
  285MOL0     H38453  10.154  10.856  10.012  2.4080 -0.2657  0.3797
  285MOL0     H38454  10.106  10.751  10.140  0.2067  0.5620  0.8066
  285MOL0     H38455   9.653  10.028   9.590  1.6430  0.4378 -0.0544
  285MOL0     H38456   9.523   9.813   9.546 -0.1045  1.5289  0.6057
  285MOL0     H38457   9.270   9.446   9.801 -1.7794 -0.4662 -0.7498
  285MOL0     H38458   9.194   9.221   9.806  1.3163  0.5498  0.7123
  285MOL0     H38459   8.300   9.917   9.867 -0.6603 -2.0991 -0.0432
  285MOL0     H38460   8.501  10.067   9.888  0.3493 -1.9108  6.1153
  285MOL0     H38461   8.930  10.060   9.703 -0.4767 -0.9478  2.3976
  285MOL0     H38462   9.084  10.197   9.601 -0.7132 -1.3246 -0.2890
  285MOL0     H38463   9.288  10.485   9.819  1.4922 -0.6169 -1.2037
  285MOL0     H38464   9.158  10.608   9.809  2.0325  1.7556  0.5134
  285MOL0     H38465   9.362  10.579   9.600 -3.2336 -3.1569 -0.2063
  285MOL0     H38466   9.353  10.710   9.731 -2.4584  1.3608 -0.0645
  285MOL0     H38467   9.127  10.765   9.621 -0.3975 -1.8199  2.9217
  285MOL0     H38468   9.176  10.645   9.496  0.4360 -1.3009 -0.1828
  285MOL0     H38469   9.220  10.901   9.457 -0.0552  1.2130  1.4613
  285MOL0     H38470   9.330  10.889   9.588 -1.6952  1.8931  0.2418
  285MOL0     H38471   9.531  10.728   9.254  0.8764 -1.1520  0.7699
  285MOL0     H38472   8.998  10.509   9.877  1.2719 -1.3330  2.2281
  285MOL0     H38473   8.826  10.494  10.020  0.5871  0.5807  3.5534
  285MOL0     H38474   8.708  10.355  10.015  1.5143 -4.5114 -0.1371
  285MOL0     H38475   8.842  10.354  10.121  0.7534 -0.0191 -0.6797
  286MOL0     O38476   2.503   5.970   8.569  0.1210 -0.3947 -0.7062
  286MOL0     C38477   2.438   5.950   8.671 -0.9319 -0.4435  0.2943
  286MOL0     O38478   2.478   5.989   8.795 -0.1516 -0.0767 -0.8700
  286MOL0     C38479   2.600   6.045   8.807  0.2490 -0.0623  0.2931
  286MOL0     C38480   2.693   6.004   8.907  0.5543  1.0713  0.6691
  286MOL0     C38481   2.813   6.070   8.927  0.2300  0.3729  0.2159
  286MOL0     C38482   2.844   6.174   8.848 -0.8713 -0.9417  0.2064
  286MOL0     O38483   2.961   6.240   8.855 -0.4156 -0.5896  0.5233
  286MOL0     C38484   3.071   6.180   8.786 -0.0103 -0.3209  1.0274
  286MOL0     C38485   3.197   6.258   8.825 -0.3392  0.2767 -0.7303
  286MOL0     C38486   3.249   6.188   8.944 -1.0800  0.4955 -1.2753
  286MOL0     C38487   3.362   6.263   9.015  0.5180  0.3649  0.1554
  286MOL0     C38488   3.382   6.186   9.150 -0.6312 -0.0938  0.3585
  286MOL0     C38489   3.465   6.277   9.247  0.7647  0.1199 -0.1892
  286MOL0     C38490   3.610   6.264   9.212  0.2466  0.1064  0.6664
  286MOL0     C38491   3.673   6.395   9.193 -0.9724  0.0443  0.9755
  286MOL0     N38492   3.818   6.379   9.154  0.2091  0.2837 -0.6726
  286MOL0     C38493   3.882   6.385   9.034  1.1828 -1.5867  0.5994
  286MOL0     C38494   4.011   6.341   9.049  0.0422  0.4554  0.7427
  286MOL0     C38495   4.114   6.316   8.944 -0.9024 -0.0554 -0.4940
  286MOL0     C38496   4.242   6.386   8.983 -0.8879 -0.4415 -0.7576
  286MOL0     C38497   4.337   6.369   8.866 -0.2914 -0.5365 -0.6695
  286MOL0     C38498   4.480   6.425   8.874  0.5568  0.4114 -0.7756
  286MOL0     O38499   4.526   6.409   9.017  0.0676  0.1161  0.1017
  286MOL0     C38500   4.651   6.448   9.055 -0.3048 -0.0598  0.0369
  286MOL0     C38501   4.741   6.508   8.972  0.3646  0.1649 -0.0891
  286MOL0     C38502   4.861   6.554   9.035  0.6483  0.8212 -0.0399
  286MOL0     C38503   4.890   6.529   9.164 -0.5841  0.4700 -1.0427
  286MOL0     C38504   5.026   6.562   9.228  0.1098 -0.3483  0.6640
  286MOL0     O38505   5.109   6.635   9.144  0.6641  0.1268  0.5343
  286MOL0     C38506   5.221   6.694   9.188 -0.2738 -0.5360 -0.5552
  286MOL0     C38507   5.351   6.650   9.160  0.1720 -0.6808 -0.1634
  286MOL0     C38508   5.455   6.730   9.208  0.6228 -0.1603  0.2061
  286MOL0     C38509   5.435   6.843   9.288 -0.4658 -0.1363 -0.4658
  286MOL0     O38510   5.531   6.917   9.351  0.0417  0.1528 -0.0040
  286MOL0     C38511   5.669   6.909   9.320 -0.2335 -0.4179  0.6743
  286MOL0     C38512   5.735   7.017   9.403 -0.5577  0.1389  0.1447
  286MOL0     C38513   5.891   6.989   9.376  0.7537 -0.2538 -0.8708
  286MOL0     C38514   5.963   7.131   9.393 -0.3308  0.5121  0.0433
  286MOL0     C38515   6.118   7.126   9.372  0.1425  1.2541 -0.1726
  286MOL0     C38516   6.180   7.065   9.490 -0.2041  1.0306 -0.3218
  286MOL0     C38517   6.330   7.067   9.477  0.0321 -0.8221  0.0681
  286MOL0     C38518   6.378   7.000   9.604  0.1049  0.1781  0.8150
  286MOL0    Cl38519   6.321   6.838   9.648  0.3546 -0.4774  0.2674
  286MOL0     C38520   5.307   6.892   9.311  0.4990 -0.0471 -0.5981
  286MOL0     C38521   5.199   6.817   9.254 -0.3724 -0.3069  0.4986
  286MOL0     O38522   5.053   6.541   9.347 -0.3450 -0.3234  0.4475
  286MOL0     C38523   4.794   6.459   9.248 -0.1815  0.0283 -1.1217
  286MOL0     C38524   4.675   6.423   9.190 -0.7260 -0.3686  0.9103
  286MOL0     N38525   4.018   6.312   9.189 -0.7206  0.7482  0.0923
  286MOL0     N38526   3.908   6.352   9.250 -0.5088 -0.8524 -0.2268
  286MOL0     C38527   2.750   6.228   8.763 -0.6165 -0.1427  0.0409
  286MOL0     C38528   2.624   6.169   8.742  0.9961  0.7194  0.6027
  286MOL0     C38529   2.306   5.892   8.656 -0.5401  0.3299  0.1333
  286MOL0     C38530   2.226   5.877   8.771  0.1985  0.1235 -0.1503
  286MOL0     C38531   2.109   5.796   8.774 -0.1868  0.9216  0.2483
  286MOL0     C38532   2.063   5.745   8.655  0.5867  0.6214 -0.2373
  286MOL0     O38533   1.946   5.676   8.666  0.0648 -0.0951  0.1469
  286MOL0     C38534   1.867   5.632   8.557 -1.7659  0.4896  0.7566
  286MOL0     C38535   1.810   5.752   8.494  0.2152  0.4708  0.1157
  286MOL0     C38536   1.724   5.720   8.371  0.2491 -0.8290  0.2872
  286MOL0     C38537   1.605   5.628   8.391  0.2356 -0.0148 -0.4118
  286MOL0     C38538   1.535   5.579   8.270 -0.0752  0.0344  1.3277
  286MOL0     C38539   1.465   5.529   8.178  0.5175 -0.4845 -0.0924
  286MOL0     C38540   2.135   5.764   8.542  0.1229 -0.2475  0.0819
  286MOL0     C38541   2.252   5.841   8.534 -1.0891  0.4054  0.3366
  286MOL0     C38542   2.310   5.870   8.400 -1.2771  0.5183 -0.2573
  286MOL0     H38543   2.677   5.909   8.956 -2.1071  0.2355 -1.5907
  286MOL0     H38544   2.893   6.037   8.991 -0.4962  0.7785  1.3625
  286MOL0     H38545   3.074   6.078   8.825  1.9436 -0.8590 -0.3907
  286MOL0     H38546   3.050   6.185   8.679 -3.0196  0.8503  1.5542
  286MOL0     H38547   3.177   6.364   8.840 -0.3280  0.2071 -0.2178
  286MOL0     H38548   3.273   6.241   8.748 -0.2760 -0.7592 -0.4611
  286MOL0     H38549   3.285   6.086   8.924  1.0308  1.1881 -1.2244
  286MOL0     H38550   3.174   6.175   9.022  1.3505  1.9520  1.5066
  286MOL0     H38551   3.454   6.276   8.958  1.8153  0.0704  2.0699
  286MOL0     H38552   3.327   6.367   9.020 -0.2533  0.1688 -0.8427
  286MOL0     H38553   3.283   6.171   9.194  0.0184 -0.7273  1.6650
  286MOL0     H38554   3.435   6.094   9.124 -0.0340  0.5926 -0.9439
  286MOL0     H38555   3.425   6.379   9.251  1.4750  0.3739  0.5407
  286MOL0     H38556   3.446   6.245   9.350 -3.6421  2.4250 -0.0432
  286MOL0     H38557   3.621   6.206   9.120 -3.0036  1.6938 -0.8753
  286MOL0     H38558   3.664   6.206   9.287 -0.8946 -1.2964  0.4433
  286MOL0     H38559   3.622   6.449   9.113  0.7957  1.3201  0.6369
  286MOL0     H38560   3.667   6.453   9.286 -0.1262  0.2805  0.8960
  286MOL0     H38561   3.840   6.433   8.946 -0.4268 -0.9601  1.6622
  286MOL0     H38562   4.138   6.210   8.939 -2.1694 -0.5771  2.5010
  286MOL0     H38563   4.085   6.356   8.846  0.8731 -1.2306 -1.5640
  286MOL0     H38564   4.199   6.486   8.994 -1.5620 -0.8762  0.9005
  286MOL0     H38565   4.288   6.350   9.076  1.2119 -2.1142 -2.3611
  286MOL0     H38566   4.295   6.420   8.779 -0.0495  1.4977  0.3527
  286MOL0     H38567   4.350   6.262   8.843 -0.1802 -1.5930  3.5934
  286MOL0     H38568   4.485   6.527   8.835  0.7537  0.0934 -1.6029
  286MOL0     H38569   4.554   6.365   8.820 -0.2660 -2.6230  1.2177
  286MOL0     H38570   4.725   6.544   8.871  3.9467  1.5659 -0.2756
  286MOL0     H38571   4.943   6.589   8.973  1.3743 -1.5316 -0.5396
  286MOL0     H38572   5.376   6.574   9.086 -1.1690  0.1239 -1.5064
  286MOL0     H38573   5.556   6.709   9.174  0.7920 -1.6071  1.5009
  286MOL0     H38574   5.697   6.808   9.352 -1.3694 -0.9405  0.0665
  286MOL0     H38575   5.686   6.928   9.214 -2.0856 -0.3581  0.3474
  286MOL0     H38576   5.684   7.108   9.369 -1.5572 -0.7145 -0.7301
  286MOL0     H38577   5.713   7.016   9.510 -1.3235 -0.8951 -0.0043
  286MOL0     H38578   5.915   6.921   9.458 -0.6731  0.7274  0.4201
  286MOL0     H38579   5.920   6.952   9.277  5.0884  2.1119 -0.7095
  286MOL0     H38580   5.937   7.185   9.485  0.6292  0.8736  0.1165
  286MOL0     H38581   5.930   7.194   9.310  2.4422  1.0618 -0.7283
  286MOL0     H38582   6.157   7.229   9.371 -1.8897  2.0820  0.0785
  286MOL0     H38583   6.150   7.074   9.282  0.8378 -1.2503  1.4072
  286MOL0     H38584   6.157   7.121   9.581 -2.8804  0.7429 -0.7431
  286MOL0     H38585   6.143   6.963   9.496  1.0610  0.6517  2.5487
  286MOL0     H38586   6.374   7.167   9.470 -6.1191  2.5033  1.4070
  286MOL0     H38587   6.364   7.006   9.393  0.6488 -0.9972  0.4433
  286MOL0     H38588   6.485   6.981   9.588 -0.4668 -1.1039 -2.4085
  286MOL0     H38589   6.359   7.077   9.679  0.6376 -0.7484  1.9367
  286MOL0     H38590   5.286   6.986   9.360  2.8658 -0.0354  0.5751
  286MOL0     H38591   5.096   6.849   9.261 -0.4244 -0.7288  2.0300
  286MOL0     H38592   4.815   6.451   9.354  0.2943  0.1172 -1.2074
  286MOL0     H38593   4.626   6.347   9.250  1.8671 -2.7659  0.1631
  286MOL0     H38594   2.766   6.310   8.694 -0.0526  0.1126  0.4681
  286MOL0     H38595   2.562   6.207   8.662  0.6432  1.7982  1.3763
  286MOL0     H38596   2.271   5.917   8.862  0.5148 -1.4175  0.4042
  286MOL0     H38597   2.045   5.764   8.856  0.3396 -1.6385 -0.2471
  286MOL0     H38598   1.791   5.561   8.592 -3.7647  2.1495 -0.0436
  286MOL0     H38599   1.934   5.578   8.489 -1.1544 -0.4966  2.0960
  286MOL0     H38600   1.890   5.825   8.478  0.8681  0.3302  2.3987
  286MOL0     H38601   1.750   5.807   8.567  0.1636  3.7187 -2.1745
  286MOL0     H38602   1.790   5.685   8.291  1.2766 -2.2445  1.6843
  286MOL0     H38603   1.686   5.816   8.336 -2.8624 -2.6443 -1.8015
  286MOL0     H38604   1.635   5.544   8.454 -1.0425 -2.6060 -3.0210
  286MOL0     H38605   1.520   5.680   8.435 -1.3698 -1.6054 -1.4944
  286MOL0     H38606   1.411   5.490   8.094 -0.6468 -0.8435  0.7996
  286MOL0     H38607   2.102   5.709   8.455  1.8002 -0.8139 -0.2236
  286MOL0     H38608   2.402   5.816   8.374 -1.1041  1.4459 -1.6484
  286MOL0     H38609   2.241   5.841   8.321  0.5669 -2.5847 -0.9075
  286MOL0     H38610   2.319   5.979   8.408  0.3303  0.2837  2.9561
  287MOL0     O38611   5.573   3.519   9.195  0.1145 -0.2217  0.3244
  287MOL0     C38612   5.544   3.401   9.200 -0.0116 -0.5411  0.0192
  287MOL0     O38613   5.634   3.302   9.185  0.1191  0.0415 -0.3398
  287MOL0     C38614   5.770   3.324   9.169  0.3189 -0.1284  0.0122
  287MOL0     C38615   5.856   3.230   9.240  0.1139  0.1761  0.5805
  287MOL0     C38616   5.991   3.245   9.225 -0.7475 -0.5987 -1.0659
  287MOL0     C38617   6.051   3.347   9.146  0.5557 -0.9275  0.3562
  287MOL0     O38618   6.188   3.356   9.121 -0.3542 -0.5998 -0.5648
  287MOL0     C38619   6.248   3.492   9.102  0.2781  0.6253 -0.0415
  287MOL0     C38620   6.381   3.495   9.036 -0.5305 -0.5459 -0.0910
  287MOL0     C38621   6.505   3.420   9.122  0.5872  0.0390 -0.2095
  287MOL0     C38622   6.523   3.283   9.068  0.4247 -0.0416 -1.3420
  287MOL0     C38623   6.601   3.290   8.935 -1.2938  1.4688 -0.6662
  287MOL0     C38624   6.614   3.162   8.860  0.2156  0.4533 -0.1039
  287MOL0     C38625   6.731   3.074   8.895 -0.6038 -0.4461  0.2435
  287MOL0     C38626   6.702   2.954   8.983 -0.6703 -0.8466 -0.5712
  287MOL0     N38627   6.824   2.867   8.985  0.8669 -0.0045  0.0090
  287MOL0     C38628   6.946   2.895   9.035 -0.8972  0.1916  0.4427
  287MOL0     C38629   7.017   2.782   9.025 -0.4912 -0.6972  0.0561
  287MOL0     C38630   7.170   2.781   9.050 -0.4816  0.2087  0.4182
  287MOL0     C38631   7.201   2.652   9.130 -0.4195  0.5131 -0.3009
  287MOL0     C38632   7.351   2.630   9.157  0.0166  0.5018 -1.0253
  287MOL0     C38633   7.382   2.565   9.292  0.4607  1.0724  0.1887
  287MOL0     O38634   7.375   2.663   9.390 -0.8733  0.5245  0.3147
  287MOL0     C38635   7.436   2.628   9.504 -0.5521  0.4224 -0.0604
  287MOL0     C38636   7.371   2.578   9.615  0.1640  0.2158  0.3341
  287MOL0     C38637   7.440   2.545   9.735  0.2717 -0.8538 -0.6486
  287MOL0     C38638   7.584   2.549   9.741  0.0432  0.2044  0.1602
  287MOL0     C38639   7.660   2.497   9.861  0.3730  0.5166  0.1438
  287MOL0     O38640   7.801   2.495   9.853  0.4513  0.9645 -0.3117
  287MOL0     C38641   7.867   2.498   9.968  0.2881  0.4206 -0.6021
  287MOL0     C38642   7.899   2.380  10.031  0.0836 -0.0873  0.1356
  287MOL0     C38643   7.984   2.371  10.147 -0.2746 -0.0621 -0.2614
  287MOL0     C38644   8.041   2.493  10.192 -0.4179  0.3716  0.5258
  287MOL0     O38645   8.120   2.494  10.301 -0.1557  0.2364  0.0230
  287MOL0     C38646   8.255   2.465  10.262  0.5115  0.0398 -0.4147
  287MOL0     C38647   8.328   2.459  10.393 -0.2479 -0.0617 -0.2397
  287MOL0     C38648   8.480   2.473  10.370 -0.1735 -0.0203 -0.4340
  287MOL0     C38649   8.534   2.349  10.292 -0.3998 -0.1130  0.0415
  287MOL0     C38650   8.683   2.324  10.308 -0.3960  0.0428  0.4436
  287MOL0     C38651   8.765   2.446  10.273  0.5676 -0.6911  0.0234
  287MOL0     C38652   8.904   2.448  10.334 -1.0843  0.1490  0.4950
  287MOL0     C38653   9.006   2.358  10.271  0.0772 -0.8835 -0.0180
  287MOL0    Cl38654   9.170   2.371  10.336  0.5227 -0.2053  0.2037
  287MOL0     C38655   8.012   2.611  10.130 -0.6246 -0.2712 -0.6633
  287MOL0     C38656   7.929   2.613  10.015 -1.8516  0.0366  0.2417
  287MOL0     O38657   7.590   2.463   9.963  0.6033 -0.1547 -0.2052
  287MOL0     C38658   7.649   2.599   9.620 -0.1026  0.9295 -0.1645
  287MOL0     C38659   7.575   2.643   9.505 -0.0707  0.4170 -0.1740
  287MOL0     N38660   6.939   2.685   8.968 -0.0734  0.9749  0.1442
  287MOL0     N38661   6.822   2.736   8.954 -0.9784  0.0771  0.0542
  287MOL0     C38662   5.962   3.430   9.069 -0.0093  0.1334 -0.8185
  287MOL0     C38663   5.823   3.420   9.093  0.1379  0.1241  1.2130
  287MOL0     C38664   5.400   3.356   9.223  0.5373 -0.0212 -0.0352
  287MOL0     C38665   5.296   3.454   9.190 -1.0233  0.8463 -0.2641
  287MOL0     C38666   5.166   3.425   9.211  0.0188 -0.3897  0.0589
  287MOL0     C38667   5.127   3.317   9.275  0.4337 -0.6118  0.2326
  287MOL0     O38668   4.992   3.314   9.282 -0.1526  0.5864  0.2068
  287MOL0     C38669   4.921   3.201   9.321  1.2103 -0.3334 -0.1779
  287MOL0     C38670   4.922   3.101   9.200 -0.3227 -0.4364  0.6035
  287MOL0     C38671   4.839   2.976   9.232  0.4547 -0.0380  0.5769
  287MOL0     C38672   4.691   3.013   9.266 -0.9172 -0.9517 -0.1828
  287MOL0     C38673   4.620   3.103   9.179 -0.3799 -0.2187 -0.4073
  287MOL0     C38674   4.559   3.177   9.110 -0.0938  0.2349  0.0537
  287MOL0     C38675   5.220   3.215   9.296 -0.0096  0.6417 -0.2546
  287MOL0     C38676   5.361   3.234   9.276  0.0281 -0.1123 -0.0459
  287MOL0     C38677   5.453   3.117   9.290  0.0441  0.4458  0.6602
  287MOL0     H38678   5.824   3.146   9.300  1.6327 -1.2994 -0.5823
  287MOL0     H38679   6.055   3.188   9.292 -0.5374 -0.8382 -1.4683
  287MOL0     H38680   6.187   3.550   9.032  1.9426 -1.3081 -3.4032
  287MOL0     H38681   6.261   3.541   9.198  2.6384 -0.5028  0.2821
  287MOL0     H38682   6.408   3.598   9.010 -1.0861 -0.5219 -0.6107
  287MOL0     H38683   6.367   3.453   8.936 -1.3092 -2.3658  0.7453
  287MOL0     H38684   6.467   3.417   9.225 -1.5075 -3.0305 -0.9277
  287MOL0     H38685   6.595   3.482   9.119  0.3677  0.3258 -1.9627
  287MOL0     H38686   6.574   3.232   9.151 -1.8249  0.4522  0.4732
  287MOL0     H38687   6.427   3.233   9.053  1.4311 -2.0900 -1.4139
  287MOL0     H38688   6.552   3.364   8.871 -1.0995  2.1840 -0.0054
  287MOL0     H38689   6.700   3.327   8.965 -1.9738  1.6694  1.5044
  287MOL0     H38690   6.525   3.099   8.857  1.2855 -1.1387  0.4192
  287MOL0     H38691   6.625   3.197   8.757 -0.5649 -2.4607 -1.2900
  287MOL0     H38692   6.817   3.119   8.947  1.0827 -4.3837  1.2317
  287MOL0     H38693   6.783   3.042   8.805 -0.5944 -1.6027  0.6383
  287MOL0     H38694   6.687   2.985   9.087 -0.2295 -1.1487 -0.4154
  287MOL0     H38695   6.623   2.895   8.937 -1.5262  0.6195 -1.0603
  287MOL0     H38696   6.984   2.994   9.058 -0.1001  1.0338 -3.6927
  287MOL0     H38697   7.226   2.782   8.957  0.1133  0.3325  0.7710
  287MOL0     H38698   7.189   2.881   9.092  0.2630  1.2665 -2.2674
  287MOL0     H38699   7.146   2.656   9.224  0.0300  1.4528 -0.0721
  287MOL0     H38700   7.166   2.563   9.076  3.5933 -3.3524  2.7376
  287MOL0     H38701   7.410   2.722   9.158  0.5596  0.1680 -1.3826
  287MOL0     H38702   7.387   2.565   9.077  2.0149 -0.8853  0.8854
  287MOL0     H38703   7.478   2.512   9.293 -0.0363  0.0830  2.4964
  287MOL0     H38704   7.310   2.491   9.327  1.8081 -0.4499 -0.1023
  287MOL0     H38705   7.263   2.570   9.607 -0.3406  1.1495  4.2775
  287MOL0     H38706   7.394   2.540   9.833 -0.2073  2.5974 -0.5996
  287MOL0     H38707   7.840   2.297   9.993  0.5897 -0.7803  0.8210
  287MOL0     H38708   8.006   2.278  10.199  1.4593 -0.6543 -1.9100
  287MOL0     H38709   8.257   2.365  10.219  1.4867 -1.0281  1.9289
  287MOL0     H38710   8.299   2.528  10.184  2.6871 -0.8525  0.0051
  287MOL0     H38711   8.291   2.538  10.458 -0.0275  0.6779 -0.9962
  287MOL0     H38712   8.306   2.365  10.443  1.7058 -2.0506 -2.7840
  287MOL0     H38713   8.501   2.563  10.311 -0.7421 -0.2109 -0.9356
  287MOL0     H38714   8.534   2.476  10.465  0.8867 -0.6249 -0.9938
  287MOL0     H38715   8.520   2.359  10.184  1.3638 -0.3670 -0.2412
  287MOL0     H38716   8.479   2.258  10.316 -0.8801  0.5036  1.4335
  287MOL0     H38717   8.710   2.234  10.252  0.8085 -0.1947  1.3675
  287MOL0     H38718   8.700   2.303  10.414  2.0841 -1.3215 -0.1474
  287MOL0     H38719   8.778   2.458  10.165  1.7500  1.5928  0.3742
  287MOL0     H38720   8.729   2.542  10.310 -0.5048 -0.4201 -1.6493
  287MOL0     H38721   8.906   2.421  10.440  1.8888 -2.6833 -0.1001
  287MOL0     H38722   8.945   2.549  10.338 -1.0448  0.1351  0.4579
  287MOL0     H38723   8.970   2.255  10.274 -2.4137 -0.0538  0.8747
  287MOL0     H38724   9.033   2.392  10.170  0.0606 -4.2035 -1.2636
  287MOL0     H38725   8.051   2.704  10.171 -0.8126 -1.2328  1.9137
  287MOL0     H38726   7.907   2.705   9.963 -4.7054  0.2971  1.6853
  287MOL0     H38727   7.757   2.597   9.617 -0.0063 -3.2325  0.2150
  287MOL0     H38728   7.634   2.672   9.418  1.7703 -0.3244  0.7658
  287MOL0     H38729   5.994   3.497   8.991  1.0227  1.0692  0.3716
  287MOL0     H38730   5.750   3.474   9.034 -0.0926 -0.6128  0.8211
  287MOL0     H38731   5.327   3.546   9.141 -2.1525  1.0312 -0.6672
  287MOL0     H38732   5.089   3.495   9.179  0.8228  1.9356  2.8624
  287MOL0     H38733   4.818   3.230   9.341  0.7548 -1.6079 -0.5745
  287MOL0     H38734   4.960   3.169   9.419  4.4463  4.2947  0.3650
  287MOL0     H38735   5.022   3.070   9.170 -0.8751 -2.4975  0.6824
  287MOL0     H38736   4.876   3.154   9.116 -0.3077 -2.1513 -0.5312
  287MOL0     H38737   4.885   2.915   9.311 -0.1254 -2.2997 -0.7396
  287MOL0     H38738   4.828   2.911   9.146 -2.6773  0.5893  0.3986
  287MOL0     H38739   4.640   2.916   9.259  1.7381 -2.4739  0.1013
  287MOL0     H38740   4.684   3.051   9.369 -1.9525 -1.6730  0.0302
  287MOL0     H38741   4.505   3.227   9.032  0.6521  1.9831  0.6011
  287MOL0     H38742   5.190   3.121   9.341  1.0865  0.4966  0.1940
  287MOL0     H38743   5.544   3.133   9.349  0.5821  0.3006 -0.1198
  287MOL0     H38744   5.399   3.026   9.319  1.3510 -0.8918 -0.9133
  287MOL0     H38745   5.485   3.097   9.187 -0.3689  0.6105  0.5010
  288MOL0     O38746   5.798   1.072   2.208  0.1530  0.2466 -0.6193
  288MOL0     C38747   5.736   1.089   2.100 -0.1485  0.0668 -0.0403
  288MOL0     O38748   5.786   1.131   1.980  0.2300 -0.4849 -0.1899
  288MOL0     C38749   5.920   1.172   1.971  0.2168 -0.3368  1.2776
  288MOL0     C38750   5.988   1.243   2.069  0.2139  0.3684 -0.3798
  288MOL0     C38751   6.126   1.274   2.066 -0.1324  0.7489  0.2231
  288MOL0     C38752   6.188   1.246   1.947  0.4100 -0.4068  0.4305
  288MOL0     O38753   6.323   1.277   1.935  0.8614  0.6415  0.3203
  288MOL0     C38754   6.372   1.328   1.809 -0.2879 -0.0440  0.2409
  288MOL0     C38755   6.479   1.418   1.857  0.8600 -1.3015  1.0682
  288MOL0     C38756   6.599   1.346   1.911  0.0907  0.8873  0.8980
  288MOL0     C38757   6.698   1.451   1.965  0.2626  1.0758 -0.5082
  288MOL0     C38758   6.820   1.382   2.045 -0.6494 -0.5672 -0.0096
  288MOL0     C38759   6.861   1.436   2.180  0.6081 -0.3190  1.1676
  288MOL0     C38760   6.734   1.438   2.268 -0.1924  0.0977 -0.0638
  288MOL0     C38761   6.775   1.426   2.416 -0.8523 -0.5681  0.0820
  288MOL0     N38762   6.887   1.522   2.457 -0.2740  0.0573  0.5227
  288MOL0     C38763   6.904   1.661   2.432 -0.0630 -0.4074  0.1956
  288MOL0     C38764   7.010   1.691   2.512 -0.3658  1.2133 -0.1446
  288MOL0     C38765   7.071   1.826   2.525 -0.0748 -0.2184  0.8679
  288MOL0     C38766   6.962   1.934   2.551  1.2489 -0.0082  0.0902
  288MOL0     C38767   7.011   2.073   2.581 -0.2636  0.2608  0.3969
  288MOL0     C38768   7.075   2.143   2.463  0.9557  0.0728  0.9767
  288MOL0     O38769   7.011   2.126   2.326  0.7365  0.5370 -0.5978
  288MOL0     C38770   6.888   2.175   2.314 -0.7874  0.1315 -0.2833
  288MOL0     C38771   6.824   2.273   2.391 -1.0712 -0.5765  0.7085
  288MOL0     C38772   6.692   2.322   2.360  0.0933  1.1896  0.5451
  288MOL0     C38773   6.625   2.263   2.253  0.4793 -0.3477 -0.1993
  288MOL0     C38774   6.488   2.305   2.217 -0.4391  0.3188 -0.2341
  288MOL0     O38775   6.436   2.234   2.115  0.0263  0.8219 -0.3548
  288MOL0     C38776   6.298   2.229   2.088 -0.5080 -0.6565  0.2217
  288MOL0     C38777   6.267   2.218   1.950 -0.6474 -0.0613  0.3449
  288MOL0     C38778   6.130   2.196   1.922 -1.5897  0.1339 -0.1423
  288MOL0     C38779   6.036   2.201   2.024 -0.5442  0.0681 -0.2930
  288MOL0     O38780   5.895   2.196   2.004  1.0458 -0.8774 -0.7005
  288MOL0     C38781   5.853   2.181   1.870 -0.1683 -0.3884  0.0530
  288MOL0     C38782   5.695   2.189   1.880  0.1840 -0.0716  0.3573
  288MOL0     C38783   5.642   2.161   1.739  0.7737 -0.3262 -0.0059
  288MOL0     C38784   5.646   2.004   1.722  0.6232  0.7523  0.7098
  288MOL0     C38785   5.592   1.988   1.575 -0.3412  0.4103 -0.8669
  288MOL0     C38786   5.591   1.850   1.513 -0.9369 -0.4293  1.3465
  288MOL0     C38787   5.588   1.867   1.367  0.2139  0.4126  0.0713
  288MOL0     C38788   5.580   1.730   1.300 -0.2106  0.2407 -0.6232
  288MOL0    Cl38789   5.739   1.648   1.291  0.2320 -0.1468 -0.1218
  288MOL0     C38790   6.071   2.205   2.159  0.0546 -1.3454 -0.0795
  288MOL0     C38791   6.206   2.220   2.189  0.1418 -0.1765 -0.3077
  288MOL0     O38792   6.435   2.399   2.275  0.0325  0.4138  0.4762
  288MOL0     C38793   6.689   2.160   2.178  1.2508 -0.1977 -0.1830
  288MOL0     C38794   6.817   2.118   2.209  0.1049 -0.2070  0.1935
  288MOL0     N38795   7.045   1.584   2.594 -0.9888  1.0795 -0.7896
  288MOL0     N38796   6.976   1.486   2.555 -0.7407  0.4824 -0.0798
  288MOL0     C38797   6.122   1.181   1.844 -0.0265  1.0487  0.3588
  288MOL0     C38798   5.990   1.156   1.848  0.4990  0.8248  0.4588
  288MOL0     C38799   5.587   1.059   2.065 -0.0879 -0.3216 -0.1582
  288MOL0     C38800   5.559   0.969   1.960  0.2779  1.0757 -0.5261
  288MOL0     C38801   5.424   0.921   1.944 -0.0387 -0.3375 -0.4636
  288MOL0     C38802   5.320   0.984   2.018  0.0013  0.2228 -0.3768
  288MOL0     O38803   5.193   0.935   2.001 -0.0161  0.3975  1.1542
  288MOL0     C38804   5.084   1.010   2.057 -0.4925  0.9027  0.4340
  288MOL0     C38805   5.064   1.132   1.978  0.3164 -1.4188  0.0384
  288MOL0     C38806   4.920   1.191   1.988  0.5337  0.0966 -0.1457
  288MOL0     C38807   4.813   1.115   1.907  0.3237 -0.5768  0.1691
  288MOL0     C38808   4.847   1.103   1.765  0.3992  0.1278 -0.6809
  288MOL0     C38809   4.897   1.079   1.657  0.2732  0.5623  0.1880
  288MOL0     C38810   5.351   1.077   2.116  0.0457 -0.0587 -0.0627
  288MOL0     C38811   5.484   1.115   2.138 -0.3206  0.6542  0.3759
  288MOL0     C38812   5.511   1.216   2.245  0.0642  0.4703 -1.2312
  288MOL0     H38813   5.936   1.263   2.163 -0.7824 -2.0063 -0.3571
  288MOL0     H38814   6.172   1.322   2.152 -0.3280 -0.0402  0.7835
  288MOL0     H38815   6.417   1.253   1.743 -1.9132 -0.8327 -0.0302
  288MOL0     H38816   6.288   1.379   1.760 -1.5953 -1.2828  1.1351
  288MOL0     H38817   6.431   1.475   1.937 -1.0830  0.1238 -0.9894
  288MOL0     H38818   6.505   1.485   1.775 -3.9711 -1.3686 -0.8854
  288MOL0     H38819   6.652   1.287   1.835  0.8783  0.2247  1.9383
  288MOL0     H38820   6.570   1.270   1.984  0.1647 -1.7587 -1.6349
  288MOL0     H38821   6.744   1.508   1.883  1.6594 -1.5459 -1.6680
  288MOL0     H38822   6.643   1.528   2.020  0.8609  0.3749  1.1229
  288MOL0     H38823   6.790   1.280   2.070  2.4875 -0.8793  3.5092
  288MOL0     H38824   6.910   1.382   1.982  0.8083 -0.3845  1.9620
  288MOL0     H38825   6.950   1.380   2.211 -0.7762 -2.3431  1.7239
  288MOL0     H38826   6.894   1.536   2.152  0.2788 -0.5318 -0.0395
  288MOL0     H38827   6.666   1.361   2.232  0.6989 -0.5275 -0.4559
  288MOL0     H38828   6.679   1.531   2.250 -0.0892 -0.0357 -1.1313
  288MOL0     H38829   6.690   1.446   2.482 -0.3507  2.0188  0.0636
  288MOL0     H38830   6.816   1.328   2.441  0.5445 -0.0323 -0.0356
  288MOL0     H38831   6.849   1.736   2.376 -0.0868 -0.3761  0.2611
  288MOL0     H38832   7.142   1.833   2.608  1.9624  0.0770 -0.8091
  288MOL0     H38833   7.142   1.847   2.445  0.4655  1.8804  1.8114
  288MOL0     H38834   6.893   1.933   2.466  0.5736  0.7778  0.6126
  288MOL0     H38835   6.908   1.890   2.636  1.1726 -1.6620 -0.7614
  288MOL0     H38836   7.077   2.080   2.668 -2.3579  1.8659  1.9484
  288MOL0     H38837   6.927   2.140   2.604 -0.4736  0.9136 -1.9297
  288MOL0     H38838   7.168   2.087   2.455  0.1308 -1.5578  2.2296
  288MOL0     H38839   7.091   2.250   2.484  0.1101  0.0831  1.6122
  288MOL0     H38840   6.869   2.301   2.485 -0.5404  1.1096  0.0126
  288MOL0     H38841   6.663   2.402   2.427 -0.2449  1.8766 -0.3884
  288MOL0     H38842   6.330   2.221   1.862 -0.0739 -1.5805  0.6840
  288MOL0     H38843   6.096   2.184   1.819  0.5408  0.3907 -0.9144
  288MOL0     H38844   5.895   2.260   1.808  4.0765 -0.8319  2.0151
  288MOL0     H38845   5.880   2.082   1.834  0.3845 -0.1506 -0.1854
  288MOL0     H38846   5.648   2.120   1.951 -0.4339  0.3528  0.3700
  288MOL0     H38847   5.662   2.289   1.910 -2.0479 -1.0450  1.3772
  288MOL0     H38848   5.538   2.193   1.726 -0.1436 -2.1225  2.1028
  288MOL0     H38849   5.703   2.214   1.665  2.2287  1.4013  2.2755
  288MOL0     H38850   5.569   1.959   1.785  0.0181  2.5737  1.3364
  288MOL0     H38851   5.748   1.973   1.746  1.5659  5.0536  3.3947
  288MOL0     H38852   5.645   2.060   1.511  1.3054  0.6653  0.6959
  288MOL0     H38853   5.489   2.023   1.578 -0.6232 -0.3894 -1.0420
  288MOL0     H38854   5.688   1.801   1.531 -0.1960  0.2818 -0.4691
  288MOL0     H38855   5.506   1.787   1.540 -0.4036 -0.7947  2.2214
  288MOL0     H38856   5.675   1.918   1.325  1.4209 -0.4416  1.4647
  288MOL0     H38857   5.497   1.921   1.336  1.0925  0.4567 -2.7491
  288MOL0     H38858   5.519   1.668   1.366 -0.2900  0.1312 -0.8004
  288MOL0     H38859   5.552   1.746   1.196  1.1967 -0.4494 -1.1344
  288MOL0     H38860   5.995   2.188   2.234  0.0972 -2.2991 -0.2334
  288MOL0     H38861   6.235   2.221   2.294 -3.3056  3.6469  0.8542
  288MOL0     H38862   6.637   2.111   2.097 -1.2877  0.0924  1.1801
  288MOL0     H38863   6.862   2.041   2.146  1.0034 -0.4680  1.1388
  288MOL0     H38864   6.183   1.162   1.757  0.6052 -0.1186  1.0312
  288MOL0     H38865   5.933   1.115   1.766 -0.4214 -0.4823  1.6915
  288MOL0     H38866   5.637   0.926   1.897 -0.1686  1.7619 -1.5867
  288MOL0     H38867   5.403   0.843   1.872  1.2646 -2.9250  1.7926
  288MOL0     H38868   5.091   1.034   2.164  0.3708 -1.1613  0.8954
  288MOL0     H38869   4.993   0.950   2.047 -0.6308  0.7705  2.1041
  288MOL0     H38870   5.097   1.121   1.874  0.4204  1.8871 -0.3826
  288MOL0     H38871   5.127   1.213   2.013  2.5706 -3.1099  0.1205
  288MOL0     H38872   4.913   1.295   1.955 -1.4516 -0.2880 -1.0611
  288MOL0     H38873   4.890   1.184   2.093 -1.9227 -1.9131 -0.8967
  288MOL0     H38874   4.814   1.014   1.948 -1.7442 -0.9635 -0.6488
  288MOL0     H38875   4.719   1.170   1.911  2.1341  3.3713 -3.0923
  288MOL0     H38876   4.945   1.058   1.563 -3.1949 -3.3700 -0.9721
  288MOL0     H38877   5.279   1.131   2.177  1.6048  0.9764  0.9308
  288MOL0     H38878   5.568   1.174   2.328 -1.8318  2.6416  1.3518
  288MOL0     H38879   5.563   1.304   2.205 -0.6906  1.4610 -0.0879
  288MOL0     H38880   5.422   1.264   2.287  1.4009  0.7951  1.4255
  289MOL0     O38881   1.856   9.127   3.762  0.6856  0.3124 -0.7841
  289MOL0     C38882   1.849   9.006   3.775 -0.1070  0.2073 -0.0805
  289MOL0     O38883   1.961   8.920   3.782 -0.0539 -0.4797 -0.6052
  289MOL0     C38884   2.078   8.936   3.722 -0.6547  0.3811  0.3001
  289MOL0     C38885   2.195   8.904   3.790  0.2531  0.2132 -0.8682
  289MOL0     C38886   2.319   8.887   3.728  0.3202 -0.2563 -0.7063
  289MOL0     C38887   2.331   8.893   3.586  0.4428 -0.6680  0.1008
  289MOL0     O38888   2.448   8.855   3.529  0.3122  0.0044  0.1599
  289MOL0     C38889   2.455   8.839   3.386 -0.1646  0.3476 -0.3149
  289MOL0     C38890   2.391   8.700   3.334  0.0006  0.2769  0.8291
  289MOL0     C38891   2.455   8.582   3.411 -0.7575  0.0367  0.1436
  289MOL0     C38892   2.553   8.520   3.300 -0.4577  0.4439 -0.2592
  289MOL0     C38893   2.631   8.406   3.361  0.6170 -0.1376  0.7412
  289MOL0     C38894   2.729   8.346   3.264 -0.1784 -0.3263  0.0250
  289MOL0     C38895   2.781   8.200   3.312  0.6084  0.3374  1.0106
  289MOL0     C38896   2.899   8.165   3.227  0.0476 -0.3684  0.6430
  289MOL0     N38897   2.867   8.128   3.085  0.5437  0.1955 -0.5648
  289MOL0     C38898   2.857   8.003   3.033 -0.6075  0.3687 -0.3035
  289MOL0     C38899   2.822   8.020   2.905 -0.1339  0.4453  0.8417
  289MOL0     C38900   2.811   7.909   2.809  0.8306  0.3294 -0.0343
  289MOL0     C38901   2.849   7.936   2.665  0.2828  0.3311 -0.4358
  289MOL0     C38902   2.889   7.817   2.572 -0.6936 -0.7207  0.1033
  289MOL0     C38903   2.915   7.880   2.437 -0.1076 -0.4422  0.5773
  289MOL0     O38904   3.051   7.926   2.441  0.6001 -0.0549 -0.2349
  289MOL0     C38905   3.071   8.063   2.436 -0.0280  1.5913  0.0109
  289MOL0     C38906   2.982   8.173   2.465 -0.4228 -0.8367 -0.3137
  289MOL0     C38907   3.032   8.304   2.464 -1.0857  0.3893 -0.1727
  289MOL0     C38908   3.173   8.325   2.438  0.4836  0.2557 -0.3797
  289MOL0     C38909   3.225   8.469   2.445  0.2119  0.9792  0.0605
  289MOL0     O38910   3.140   8.562   2.494  0.4264  0.2380 -0.3080
  289MOL0     C38911   3.201   8.676   2.549  0.4994  0.1901 -0.5469
  289MOL0     C38912   3.153   8.720   2.668  1.5971  0.6942  0.3405
  289MOL0     C38913   3.196   8.825   2.742 -0.3399 -0.2838 -0.9826
  289MOL0     C38914   3.300   8.892   2.699  0.0217 -0.7510 -0.3170
  289MOL0     O38915   3.347   8.986   2.793  0.2348 -0.6900 -0.4622
  289MOL0     C38916   3.487   8.996   2.821 -0.0145 -0.2911 -0.6276
  289MOL0     C38917   3.526   8.941   2.962  0.3359  0.3166  0.3885
  289MOL0     C38918   3.463   9.008   3.082  0.0765  0.2363  0.7851
  289MOL0     C38919   3.525   8.974   3.214 -1.1552  0.1507 -0.6443
  289MOL0     C38920   3.473   8.837   3.261  0.2254 -0.0552  0.7122
  289MOL0     C38921   3.481   8.813   3.411 -0.5275  0.1325 -0.2241
  289MOL0     C38922   3.629   8.830   3.483 -0.6231 -0.0275 -0.3198
  289MOL0     C38923   3.625   8.789   3.626 -0.7695 -0.5698 -0.0835
  289MOL0    Cl38924   3.643   8.618   3.643 -0.5034 -0.0985 -0.1073
  289MOL0     C38925   3.355   8.868   2.572  0.1273  0.2671 -0.2040
  289MOL0     C38926   3.309   8.754   2.497  0.1476  0.1818  0.6702
  289MOL0     O38927   3.349   8.487   2.422 -0.0743 -0.0638  0.2950
  289MOL0     C38928   3.246   8.211   2.406 -0.0263  0.1021 -0.2911
  289MOL0     C38929   3.199   8.089   2.399 -0.1285  0.9135 -0.5503
  289MOL0     N38930   2.818   8.153   2.875  0.1795  0.2548 -0.2948
  289MOL0     N38931   2.835   8.213   2.985  0.5636  0.0093  0.5677
  289MOL0     C38932   2.215   8.950   3.520  0.0453  0.4565 -0.2188
  289MOL0     C38933   2.092   8.956   3.585 -0.7672 -0.7168 -0.4200
  289MOL0     C38934   1.705   8.958   3.791 -0.4969 -0.2936 -1.3479
  289MOL0     C38935   1.602   9.049   3.810 -0.2987 -0.0042 -0.1155
  289MOL0     C38936   1.477   8.996   3.807  0.8545  0.3717 -0.4187
  289MOL0     C38937   1.443   8.862   3.781  0.0240 -1.2332 -0.2460
  289MOL0     O38938   1.308   8.824   3.788 -0.1469 -0.1752  0.1904
  289MOL0     C38939   1.267   8.685   3.829 -0.4542  0.1690 -0.8541
  289MOL0     C38940   1.314   8.647   3.974 -0.1237 -0.4129  0.1307
  289MOL0     C38941   1.196   8.567   4.033 -0.8277  0.4617 -1.1022
  289MOL0     C38942   1.195   8.432   3.971 -0.0092  0.0259 -0.0103
  289MOL0     C38943   1.071   8.365   4.002  0.3967 -0.5460 -0.8538
  289MOL0     C38944   0.972   8.312   4.038  0.3607  0.6448 -0.5906
  289MOL0     C38945   1.546   8.769   3.770  0.8773 -0.1840  0.2020
  289MOL0     C38946   1.678   8.818   3.787 -0.2739  0.6987  0.1812
  289MOL0     C38947   1.784   8.705   3.779 -0.7509 -0.3633 -0.6672
  289MOL0     H38948   2.192   8.904   3.898  0.6563  4.0273 -0.7191
  289MOL0     H38949   2.407   8.860   3.785 -1.4907  1.2891  3.1794
  289MOL0     H38950   2.408   8.926   3.340 -1.3401 -0.2119 -0.2212
  289MOL0     H38951   2.559   8.821   3.357  0.1241 -4.0420  2.4806
  289MOL0     H38952   2.401   8.694   3.225  0.7148  0.2160  0.8938
  289MOL0     H38953   2.285   8.714   3.360  0.7075  2.2726  2.9077
  289MOL0     H38954   2.386   8.498   3.423 -0.7627 -0.0752 -0.5843
  289MOL0     H38955   2.503   8.606   3.506 -0.2847  1.2369 -0.3778
  289MOL0     H38956   2.487   8.480   3.223 -0.9971 -2.6086  1.6445
  289MOL0     H38957   2.624   8.590   3.256  0.4356  2.6726  4.1182
  289MOL0     H38958   2.666   8.437   3.460  0.4045  1.2302  0.4099
  289MOL0     H38959   2.557   8.328   3.382  1.2401 -2.3769 -4.0315
  289MOL0     H38960   2.668   8.322   3.176 -0.0998 -2.9875  0.6024
  289MOL0     H38961   2.813   8.410   3.235  0.6333 -1.4185 -0.1044
  289MOL0     H38962   2.699   8.128   3.307 -0.0861  1.0895  1.2101
  289MOL0     H38963   2.809   8.195   3.418  0.7023  1.0829  1.0305
  289MOL0     H38964   2.956   8.258   3.224  2.6324 -1.8943 -0.4479
  289MOL0     H38965   2.954   8.081   3.269 -2.7029 -2.8203 -0.2463
  289MOL0     H38966   2.882   7.909   3.081 -0.2675  0.4258 -0.3658
  289MOL0     H38967   2.876   7.829   2.844  1.6881  0.7398 -0.6416
  289MOL0     H38968   2.707   7.875   2.804  0.2211  1.6004  2.4444
  289MOL0     H38969   2.775   8.000   2.618 -1.7329 -0.9471  0.8437
  289MOL0     H38970   2.935   8.003   2.667  0.6736 -0.1693  0.4935
  289MOL0     H38971   2.802   7.751   2.572  0.0003 -1.7681 -2.3854
  289MOL0     H38972   2.975   7.757   2.602 -1.1082 -0.9774  0.7937
  289MOL0     H38973   2.848   7.964   2.419  0.8069 -0.3405 -3.2450
  289MOL0     H38974   2.897   7.805   2.359  2.1048 -2.2655  1.6996
  289MOL0     H38975   2.877   8.161   2.486 -0.3856 -1.0696 -0.2646
  289MOL0     H38976   2.968   8.384   2.499  1.6524  1.9987  1.5530
  289MOL0     H38977   3.062   8.667   2.696 -0.3141  3.8118  0.4428
  289MOL0     H38978   3.159   8.863   2.837 -3.5662  0.1317 -2.2881
  289MOL0     H38979   3.545   8.933   2.752  3.8760 -0.5023  2.4638
  289MOL0     H38980   3.524   9.098   2.808 -1.2075  0.2469  0.0325
  289MOL0     H38981   3.491   8.837   2.967 -0.8601  0.7495  1.6698
  289MOL0     H38982   3.635   8.942   2.965  0.4028 -0.3236 -0.9451
  289MOL0     H38983   3.486   9.114   3.066 -0.0744 -0.1707 -2.8432
  289MOL0     H38984   3.355   9.001   3.068  0.0226 -0.3327  1.4357
  289MOL0     H38985   3.495   9.049   3.288  0.8715  0.6844 -0.2854
  289MOL0     H38986   3.634   8.982   3.218 -1.1058 -0.7757  0.8586
  289MOL0     H38987   3.533   8.752   3.226 -0.1181 -1.3166  2.9989
  289MOL0     H38988   3.368   8.827   3.232  0.2317 -2.4430  1.2782
  289MOL0     H38989   3.408   8.882   3.455 -0.0967  0.6391 -0.2884
  289MOL0     H38990   3.442   8.715   3.443 -1.2291 -0.3922 -2.5227
  289MOL0     H38991   3.640   8.939   3.489 -2.5864  0.1699  0.6365
  289MOL0     H38992   3.707   8.781   3.424  0.1228 -1.5068  1.7999
  289MOL0     H38993   3.709   8.834   3.680 -1.4927  3.1947 -1.7683
  289MOL0     H38994   3.532   8.825   3.672 -1.4245  0.1989 -1.9215
  289MOL0     H38995   3.438   8.929   2.539  1.2077 -0.4399  1.0840
  289MOL0     H38996   3.356   8.721   2.405 -3.6075 -1.3417 -0.9308
  289MOL0     H38997   3.350   8.226   2.380  0.2322  2.7095  1.7952
  289MOL0     H38998   3.258   8.000   2.379 -0.0717  0.2713  2.1049
  289MOL0     H38999   2.226   8.966   3.413 -3.0343  1.7240 -0.4440
  289MOL0     H39000   1.998   8.981   3.537 -0.4317 -2.1420 -1.8974
  289MOL0     H39001   1.612   9.153   3.840 -0.4708  0.8582 -2.8378
  289MOL0     H39002   1.396   9.053   3.851  0.6584  2.4477 -3.1712
  289MOL0     H39003   1.311   8.617   3.756  2.6412 -0.8175  1.7109
  289MOL0     H39004   1.158   8.688   3.823 -0.5112  0.2782  0.0819
  289MOL0     H39005   1.319   8.737   4.037 -0.3063 -0.2908 -0.0266
  289MOL0     H39006   1.404   8.586   3.973 -0.1865 -0.4995 -0.2179
  289MOL0     H39007   1.099   8.615   4.017 -1.4650  0.3640  1.8948
  289MOL0     H39008   1.213   8.545   4.139  1.5992 -0.2152 -1.5626
  289MOL0     H39009   1.205   8.435   3.862  1.0315 -1.1275  0.0273
  289MOL0     H39010   1.280   8.378   4.015 -0.6706 -0.1466  1.0887
  289MOL0     H39011   0.884   8.260   4.069  0.8183  0.4810  0.4652
  289MOL0     H39012   1.510   8.667   3.756  1.4492 -0.2390 -0.9180
  289MOL0     H39013   1.740   8.605   3.785 -0.5670 -0.3817  0.6066
  289MOL0     H39014   1.842   8.703   3.685 -1.4619 -2.2473 -1.1140
  289MOL0     H39015   1.848   8.711   3.867 -0.4394  0.4209 -0.9363
  290MOL0     O39016   9.609   3.331  10.140  0.0087 -0.6333  0.1661
  290MOL0     C39017   9.495   3.285  10.117  1.0140  0.3178  0.6107
  290MOL0     O39018   9.468   3.154  10.081 -0.5808  0.2770  0.1958
  290MOL0     C39019   9.571   3.063  10.083  0.2865  0.6208  0.9579
  290MOL0     C39020   9.607   2.998  10.204  1.0460  0.1027 -0.8533
  290MOL0     C39021   9.705   2.899  10.199  0.4211 -0.3800  0.6890
  290MOL0     C39022   9.760   2.859  10.079  0.5740 -0.2768 -1.1062
  290MOL0     O39023   9.855   2.762  10.067  0.3894 -0.0234  0.1837
  290MOL0     C39024   9.872   2.652  10.164 -0.4783 -0.0560  0.8247
  290MOL0     C39025   9.935   2.544  10.088 -0.0796  0.4809  0.0541
  290MOL0     C39026   9.938   2.400  10.160 -0.2870  0.6367  0.4536
  290MOL0     C39027  10.012   2.401  10.291 -0.3336  0.8109  0.0638
  290MOL0     C39028  10.099   2.275  10.316 -0.3039  0.0773 -0.3854
  290MOL0     C39029  10.231   2.260  10.243  0.0481  0.2366  0.5780
  290MOL0     C39030  10.288   2.113  10.250  0.4983  0.1548  0.5671
  290MOL0     C39031  10.317   2.069  10.393 -0.0963 -0.3115 -0.3112
  290MOL0     N39032  10.405   2.156  10.476 -0.0847 -0.0368  0.4083
  290MOL0     C39033  10.543   2.163  10.484  1.0610 -0.1773  0.5078
  290MOL0     C39034  10.572   2.269  10.565 -0.1283  0.7275  0.5939
  290MOL0     C39035  10.704   2.313  10.613  1.0837 -0.0465 -0.0343
  290MOL0     C39036  10.721   2.464  10.597 -0.6591  0.0732  0.5790
  290MOL0     C39037  10.717   2.518  10.451  0.1001 -0.0606 -0.6608
  290MOL0     C39038  10.577   2.547  10.400 -0.2083  0.4222 -0.6505
  290MOL0     O39039  10.576   2.593  10.265 -0.4597 -0.1802 -0.9587
  290MOL0     C39040  10.563   2.736  10.258  0.5290  0.6431  0.2377
  290MOL0     C39041  10.458   2.806  10.316  1.2625 -0.7117 -0.3037
  290MOL0     C39042  10.438   2.949  10.320  0.6827 -0.3359 -0.5963
  290MOL0     C39043  10.539   3.018  10.252 -0.5127 -0.1610  0.0861
  290MOL0     C39044  10.536   3.164  10.256  0.4407  0.0103 -0.3014
  290MOL0     O39045  10.644   3.221  10.202 -0.1331 -0.0922  0.0757
  290MOL0     C39046  10.675   3.356  10.171  0.3432 -0.8368  0.5671
  290MOL0     C39047  10.654   3.461  10.261 -0.3212  0.0033 -0.0779
  290MOL0     C39048  10.689   3.591  10.226 -0.9705 -0.4408 -0.2296
  290MOL0     C39049  10.748   3.622  10.105  1.1984 -0.3108 -0.9213
  290MOL0     O39050  10.768   3.751  10.078 -0.5642  0.2971  0.2531
  290MOL0     C39051  10.882   3.817  10.129  0.2010  0.6350 -0.5194
  290MOL0     C39052  10.886   3.954  10.076  0.1000 -0.1301 -0.7254
  290MOL0     C39053  11.005   4.045  10.126  0.4039  1.0227  0.1429
  290MOL0     C39054  11.139   4.008  10.082 -0.3627 -0.4209 -0.1871
  290MOL0     C39055  11.240   4.108  10.112 -0.2401  0.4593  0.0612
  290MOL0     C39056  11.372   4.069  10.047  0.1278 -0.6637 -0.0528
  290MOL0     C39057  11.496   4.163  10.071  0.5384 -1.0682 -0.0746
  290MOL0     C39058  11.622   4.105  10.037 -0.2037 -0.2685  0.7353
  290MOL0    Cl39059  11.635   4.093   9.863 -0.3818 -0.0846  0.3427
  290MOL0     C39060  10.758   3.523  10.014 -0.2474 -0.0313 -0.1296
  290MOL0     C39061  10.718   3.385  10.038  0.1368  0.4396 -0.1561
  290MOL0     O39062  10.453   3.225  10.321 -0.0072 -0.0057  0.7965
  290MOL0     C39063  10.643   2.948  10.193 -0.9609 -0.3918  0.4470
  290MOL0     C39064  10.660   2.809  10.194  0.3650  0.1976  0.3807
  290MOL0     N39065  10.456   2.306  10.627  0.2013 -0.1352 -0.5618
  290MOL0     N39066  10.355   2.244  10.568 -1.0566 -0.3237  0.2677
  290MOL0     C39067   9.717   2.920   9.970 -0.2329  0.0418  0.6891
  290MOL0     C39068   9.616   3.021   9.955 -0.3940  1.1005 -0.2090
  290MOL0     C39069   9.374   3.370  10.111  0.2684  0.9245 -0.1407
  290MOL0     C39070   9.252   3.314  10.051 -0.4430 -0.2087  0.5396
  290MOL0     C39071   9.126   3.372  10.060 -0.2104 -0.2030 -0.5872
  290MOL0     C39072   9.123   3.499  10.110  0.4529  1.3056 -0.0698
  290MOL0     O39073   8.997   3.555  10.105  0.1077  0.6427 -0.4814
  290MOL0     C39074   8.963   3.686  10.142  0.7670  0.2921 -0.2191
  290MOL0     C39075   8.827   3.731  10.090 -0.9303 -0.2272 -1.0847
  290MOL0     C39076   8.716   3.629  10.119 -0.0210  0.7737  0.2906
  290MOL0     C39077   8.645   3.638  10.254 -0.1674 -0.2830 -0.0592
  290MOL0     C39078   8.716   3.594  10.379  0.1081 -0.0538  0.3067
  290MOL0     C39079   8.782   3.545  10.472  0.4714  0.4261 -0.4203
  290MOL0     C39080   9.233   3.568  10.158 -0.5154  0.0493  0.0711
  290MOL0     C39081   9.356   3.501  10.168  1.1307 -0.1251 -0.2665
  290MOL0     C39082   9.473   3.573  10.227  0.9208  0.5459 -0.5802
  290MOL0     H39083   9.559   3.018  10.300  1.1877 -0.9560 -0.5512
  290MOL0     H39084   9.731   2.840  10.286  0.1967  1.6834  2.2390
  290MOL0     H39085   9.943   2.688  10.239  1.3485  1.0163 -1.3182
  290MOL0     H39086   9.777   2.615  10.203 -1.1733 -1.8151 -2.1857
  290MOL0     H39087  10.039   2.573  10.068  1.0496 -3.9086 -1.8095
  290MOL0     H39088   9.881   2.536   9.993  1.0749 -0.0835 -0.5827
  290MOL0     H39089   9.981   2.339  10.080 -0.9782  0.9829 -0.1966
  290MOL0     H39090   9.834   2.369  10.172  0.3854 -1.6537  0.8838
  290MOL0     H39091  10.087   2.481  10.283 -0.4846  0.8742 -0.7241
  290MOL0     H39092   9.939   2.406  10.372 -0.5590 -2.4481  0.1581
  290MOL0     H39093  10.135   2.271  10.419  1.9578  0.5975 -1.0980
  290MOL0     H39094  10.040   2.185  10.294 -2.0428  0.5569  1.9104
  290MOL0     H39095  10.218   2.270  10.135  2.1707  1.3592  0.3881
  290MOL0     H39096  10.301   2.341  10.263 -0.3118  1.2614 -1.9103
  290MOL0     H39097  10.379   2.105  10.190  0.7841  0.4231  0.9708
  290MOL0     H39098  10.226   2.034  10.205  1.5338 -1.1470  1.3333
  290MOL0     H39099  10.230   2.049  10.457  0.2887  1.9777  1.0201
  290MOL0     H39100  10.376   1.977  10.392 -1.3729 -1.1516 -0.9266
  290MOL0     H39101  10.616   2.100  10.434  0.5335  0.2715 -0.8664
  290MOL0     H39102  10.720   2.293  10.720  4.0019  0.9123 -0.2038
  290MOL0     H39103  10.781   2.264  10.553  1.9343 -0.4481  1.3396
  290MOL0     H39104  10.645   2.522  10.651 -0.3940  2.0444 -1.0272
  290MOL0     H39105  10.820   2.485  10.638  1.4182 -1.3960 -3.1737
  290MOL0     H39106  10.769   2.440  10.394 -2.4595 -1.5018 -1.1655
  290MOL0     H39107  10.768   2.615  10.446  1.2813 -0.4879  1.6287
  290MOL0     H39108  10.526   2.619  10.464 -2.0696  1.2949 -2.9618
  290MOL0     H39109  10.515   2.458  10.407 -2.6274  1.9814 -1.1847
  290MOL0     H39110  10.379   2.762  10.377 -1.4735  2.0468 -1.5831
  290MOL0     H39111  10.359   3.004  10.370  0.4525  0.6983 -2.0303
  290MOL0     H39112  10.606   3.434  10.355  1.3381 -1.6541  0.3349
  290MOL0     H39113  10.686   3.665  10.305  0.5280 -0.2897 -0.2757
  290MOL0     H39114  10.888   3.809  10.237 -0.9811  0.2026 -0.4627
  290MOL0     H39115  10.972   3.768  10.091  0.1369  0.3412 -0.2974
  290MOL0     H39116  10.907   3.948   9.969  2.0083 -3.8951 -0.3033
  290MOL0     H39117  10.791   3.999  10.106 -0.2898 -1.0743 -0.5100
  290MOL0     H39118  10.979   4.145  10.090  0.8979  0.7759 -0.9326
  290MOL0     H39119  10.994   4.043  10.235 -0.9480 -0.2578  0.0068
  290MOL0     H39120  11.137   3.990   9.974  1.6729  0.8008 -0.4860
  290MOL0     H39121  11.169   3.916  10.132  0.3154  1.0665  2.3398
  290MOL0     H39122  11.247   4.107  10.221 -0.7306 -2.1136  0.1213
  290MOL0     H39123  11.214   4.205  10.068  3.5100  2.0990  1.0544
  290MOL0     H39124  11.405   3.973  10.086 -1.7463 -2.0904 -1.7603
  290MOL0     H39125  11.356   4.049   9.940 -2.0979  0.3004  0.0353
  290MOL0     H39126  11.488   4.193  10.176  0.1348  2.1063 -0.8846
  290MOL0     H39127  11.483   4.253  10.010  0.6807 -1.9076 -1.3870
  290MOL0     H39128  11.700   4.175  10.070  1.3600 -1.9852  0.8644
  290MOL0     H39129  11.644   4.011  10.088  3.1992  0.0784  0.2016
  290MOL0     H39130  10.808   3.543   9.919 -1.3878 -0.5955 -0.8685
  290MOL0     H39131  10.732   3.301   9.971 -4.3734 -0.3216 -0.4513
  290MOL0     H39132  10.724   3.000  10.143 -1.6422  1.8874  1.5282
  290MOL0     H39133  10.745   2.749  10.162 -1.0314 -2.4138  1.2600
  290MOL0     H39134   9.781   2.898   9.886  1.1353  0.5848  1.5648
  290MOL0     H39135   9.591   3.061   9.857  0.3665  2.3630  0.0821
  290MOL0     H39136   9.243   3.224   9.991  0.4856 -0.0213  0.1021
  290MOL0     H39137   9.032   3.329  10.028 -0.7890  0.8838 -0.3958
  290MOL0     H39138   9.034   3.754  10.095  1.4530  1.3154  2.1177
  290MOL0     H39139   8.961   3.701  10.251 -3.3853 -1.2232  0.1369
  290MOL0     H39140   8.840   3.735   9.981  2.1070  1.4184 -0.7727
  290MOL0     H39141   8.802   3.833  10.120 -2.2896 -0.7155 -0.4676
  290MOL0     H39142   8.745   3.527  10.093  1.8370 -0.0008  4.5808
  290MOL0     H39143   8.631   3.658  10.056  1.6682  1.5782 -1.7498
  290MOL0     H39144   8.609   3.740  10.270  0.0217 -0.2348  0.0576
  290MOL0     H39145   8.556   3.575  10.245 -0.7855  0.4843  0.5447
  290MOL0     H39146   8.833   3.503  10.557 -1.8993  0.0089  0.8920
  290MOL0     H39147   9.226   3.669  10.196  1.1027  0.1094  0.2898
  290MOL0     H39148   9.437   3.664  10.276  1.4295  0.6049 -0.3099
  290MOL0     H39149   9.526   3.512  10.300 -0.6144 -1.0194 -0.7146
  290MOL0     H39150   9.545   3.601  10.149 -2.9674 -0.9208 -5.1769
  291MOL0     O39151   4.803   6.962   6.580 -0.0412  0.3324  0.3785
  291MOL0     C39152   4.743   6.918   6.678 -0.2290  0.2091  0.8038
  291MOL0     O39153   4.715   6.989   6.792  0.0693  0.6604 -0.5729
  291MOL0     C39154   4.756   7.114   6.809 -0.7863 -0.0532 -0.2059
  291MOL0     C39155   4.840   7.128   6.921  0.2649 -0.6736  0.1742
  291MOL0     C39156   4.873   7.260   6.958  0.2421 -0.3628 -0.3264
  291MOL0     C39157   4.825   7.366   6.879 -0.2125  0.1057  0.4942
  291MOL0     O39158   4.863   7.493   6.902  0.2831 -0.1006  0.3608
  291MOL0     C39159   4.771   7.544   7.002  0.1557 -0.2753  1.4197
  291MOL0     C39160   4.803   7.679   7.056 -0.0941  0.9239  0.3463
  291MOL0     C39161   4.724   7.711   7.169  0.0065 -0.5500  0.2310
  291MOL0     C39162   4.749   7.853   7.204 -0.9185 -0.5112 -0.0119
  291MOL0     C39163   4.700   7.882   7.346  0.3321 -0.8320  0.4507
  291MOL0     C39164   4.671   8.033   7.364  0.1256  0.4479  0.5014
  291MOL0     C39165   4.603   8.063   7.504  0.0564 -0.4962 -0.1344
  291MOL0     C39166   4.458   8.013   7.514  0.8677  0.8825 -0.4368
  291MOL0     N39167   4.372   8.041   7.400 -1.0891  0.3665 -0.2288
  291MOL0     C39168   4.360   7.969   7.287  0.3506  0.6560 -1.7844
  291MOL0     C39169   4.292   8.044   7.204 -0.4463 -0.3197  0.1424
  291MOL0     C39170   4.263   8.043   7.060 -0.3241  0.1085 -1.1615
  291MOL0     C39171   4.280   8.171   6.980 -0.3920 -0.5997 -0.0661
  291MOL0     C39172   4.433   8.223   6.994  0.1765 -0.2467 -0.4576
  291MOL0     C39173   4.546   8.129   6.969  0.8302  0.9109  1.2065
  291MOL0     O39174   4.673   8.195   6.966 -0.0899 -0.3329 -0.4317
  291MOL0     C39175   4.791   8.128   6.935 -0.2586 -0.3414  0.5523
  291MOL0     C39176   4.906   8.211   6.956  0.3644 -0.6204  0.5890
  291MOL0     C39177   5.030   8.161   6.926  0.4528  0.0997 -0.5921
  291MOL0     C39178   5.048   8.032   6.879  0.4089 -1.0203  0.1912
  291MOL0     C39179   5.181   7.978   6.844 -0.2530 -0.3708  0.4073
  291MOL0     O39180   5.173   7.847   6.813  0.0788 -0.3050 -0.1968
  291MOL0     C39181   5.279   7.769   6.771  0.6475  0.3655  0.8578
  291MOL0     C39182   5.387   7.809   6.684  0.1218  0.1944  0.3930
  291MOL0     C39183   5.489   7.718   6.658 -0.6426 -0.1135  0.3488
  291MOL0     C39184   5.480   7.587   6.708 -0.1213 -0.3209 -0.5156
  291MOL0     O39185   5.590   7.512   6.673 -0.0161 -0.0582  0.0557
  291MOL0     C39186   5.597   7.383   6.729  0.8841 -0.1176  0.7101
  291MOL0     C39187   5.732   7.334   6.724 -0.8278 -0.1309 -0.0543
  291MOL0     C39188   5.733   7.181   6.745 -0.0218 -0.0770  0.0789
  291MOL0     C39189   5.880   7.128   6.761  0.3566  0.0784 -0.3067
  291MOL0     C39190   5.910   6.987   6.693  0.2238  0.5251 -0.6778
  291MOL0     C39191   5.836   6.862   6.750 -0.3134  0.2510 -0.0242
  291MOL0     C39192   5.870   6.740   6.665  0.3125  0.1578 -0.0130
  291MOL0     C39193   5.768   6.638   6.702  0.2687 -0.4570  0.2545
  291MOL0    Cl39194   5.612   6.692   6.625  0.5380 -0.2282  0.1741
  291MOL0     C39195   5.364   7.547   6.769  0.1967  0.1947  0.5090
  291MOL0     C39196   5.262   7.635   6.809  0.1368  0.7801  0.1480
  291MOL0     O39197   5.283   8.048   6.842  0.4536 -0.0607  0.6883
  291MOL0     C39198   4.930   7.952   6.856  0.1528 -0.0001  0.9153
  291MOL0     C39199   4.802   8.002   6.887 -0.6155  0.4053  0.0157
  291MOL0     N39200   4.267   8.164   7.268 -0.2022  0.6283  0.2791
  291MOL0     N39201   4.314   8.163   7.388 -0.4767 -0.5119  0.4505
  291MOL0     C39202   4.754   7.344   6.761 -0.4004 -0.2296  0.9211
  291MOL0     C39203   4.708   7.216   6.724  0.5989 -1.2970  0.3185
  291MOL0     C39204   4.692   6.777   6.673 -0.3818 -0.3760 -0.2661
  291MOL0     C39205   4.693   6.718   6.546  0.5403  0.0044  0.5205
  291MOL0     C39206   4.682   6.581   6.529 -0.0834  0.0553  1.2264
  291MOL0     C39207   4.630   6.505   6.637  0.1369  1.2649  0.4857
  291MOL0     O39208   4.591   6.377   6.619 -0.0407 -0.3846  0.9501
  291MOL0     C39209   4.691   6.280   6.584 -0.2917  0.1664 -0.2131
  291MOL0     C39210   4.688   6.158   6.672 -0.9040  0.5137  0.4812
  291MOL0     C39211   4.770   6.049   6.606 -0.0648 -0.1184 -0.3693
  291MOL0     C39212   4.674   5.941   6.554 -0.0530 -0.6077  0.9840
  291MOL0     C39213   4.728   5.875   6.436 -0.5241  0.0447 -0.7206
  291MOL0     C39214   4.768   5.821   6.336  0.1451 -0.6169 -0.2111
  291MOL0     C39215   4.612   6.571   6.759 -1.6126  1.1607  0.2171
  291MOL0     C39216   4.656   6.696   6.784 -0.5689 -0.4202 -0.0696
  291MOL0     C39217   4.668   6.737   6.932  0.2802 -0.6101  0.9657
  291MOL0     H39218   4.864   7.041   6.981  1.2591 -0.2495  0.4121
  291MOL0     H39219   4.932   7.280   7.047 -0.2793 -1.7068  0.3570
  291MOL0     H39220   4.669   7.539   6.963  0.7054  1.1922 -0.3509
  291MOL0     H39221   4.771   7.479   7.091 -0.3689  1.1720  2.5201
  291MOL0     H39222   4.797   7.753   6.975 -0.7720 -1.8241 -2.2564
  291MOL0     H39223   4.907   7.684   7.091 -0.7205 -0.5129  2.5734
  291MOL0     H39224   4.727   7.636   7.249 -1.9816  1.1965  2.0945
  291MOL0     H39225   4.616   7.695   7.157 -0.0277 -0.6377  0.6216
  291MOL0     H39226   4.857   7.873   7.202 -1.0937  0.5441  0.3901
  291MOL0     H39227   4.698   7.917   7.131 -2.4707 -0.4672  1.0643
  291MOL0     H39228   4.605   7.830   7.364 -1.8739  1.7271 -2.6507
  291MOL0     H39229   4.773   7.854   7.423 -0.2176 -0.9333  0.9478
  291MOL0     H39230   4.758   8.099   7.356 -1.5616  2.5881 -1.3786
  291MOL0     H39231   4.607   8.072   7.285 -1.3859  2.7376  2.7006
  291MOL0     H39232   4.593   8.172   7.505  0.0307 -0.4996 -0.0474
  291MOL0     H39233   4.662   8.029   7.589  1.3148 -0.1289 -0.8183
  291MOL0     H39234   4.463   7.904   7.522 -3.0594  0.7247  2.3974
  291MOL0     H39235   4.417   8.053   7.607  1.8020  0.3911  0.2101
  291MOL0     H39236   4.386   7.864   7.277 -2.6132 -0.0760 -3.0461
  291MOL0     H39237   4.309   7.963   7.001 -1.4712  1.0221 -3.4355
  291MOL0     H39238   4.157   8.019   7.058  0.1721 -2.3996 -1.3209
  291MOL0     H39239   4.253   8.146   6.877  0.5952  0.6053 -0.6347
  291MOL0     H39240   4.212   8.245   7.023 -1.5518 -1.4178 -0.4366
  291MOL0     H39241   4.443   8.269   7.092 -0.7623 -1.9525  0.4788
  291MOL0     H39242   4.446   8.304   6.921 -1.0662 -1.7492 -2.4527
  291MOL0     H39243   4.528   8.079   6.873  1.1742 -0.5845  1.8948
  291MOL0     H39244   4.547   8.050   7.044 -0.5635  0.2781  0.6069
  291MOL0     H39245   4.890   8.314   6.987 -0.1054  0.3560 -2.5549
  291MOL0     H39246   5.114   8.228   6.946  0.6013 -0.1025 -0.5335
  291MOL0     H39247   5.402   7.910   6.648  3.9979  0.5134  2.3445
  291MOL0     H39248   5.569   7.742   6.589 -2.3429  0.8723 -1.3873
  291MOL0     H39249   5.566   7.381   6.833 -2.2071 -3.0200 -0.0698
  291MOL0     H39250   5.534   7.310   6.677  2.4316 -1.0805  0.0976
  291MOL0     H39251   5.782   7.353   6.628  1.7943 -0.5329  1.1474
  291MOL0     H39252   5.797   7.383   6.797  1.2306 -0.8174 -1.3354
  291MOL0     H39253   5.662   7.157   6.825 -3.1326 -1.3647 -2.8686
  291MOL0     H39254   5.691   7.138   6.654 -1.3020  0.3911  0.4348
  291MOL0     H39255   5.902   7.130   6.868 -1.5527  1.4908  0.0979
  291MOL0     H39256   5.953   7.195   6.714  0.7589  0.8259  1.3168
  291MOL0     H39257   6.018   6.972   6.700  0.4805  2.6465  0.8947
  291MOL0     H39258   5.875   6.989   6.590 -0.9359 -1.1917 -0.3696
  291MOL0     H39259   5.872   6.833   6.849 -0.1796 -2.1781 -0.7046
  291MOL0     H39260   5.729   6.881   6.738 -0.2199  1.0819  0.4230
  291MOL0     H39261   5.968   6.696   6.686  1.0790  0.7182 -2.1792
  291MOL0     H39262   5.867   6.760   6.558 -1.6937  1.7195  0.2581
  291MOL0     H39263   5.785   6.541   6.656 -0.3511 -1.0211  1.1756
  291MOL0     H39264   5.763   6.614   6.809 -4.7026  1.1522  0.6318
  291MOL0     H39265   5.358   7.439   6.780 -0.7117 -0.1323 -2.3081
  291MOL0     H39266   5.183   7.598   6.874  1.7728 -0.9727  1.2575
  291MOL0     H39267   4.942   7.853   6.814 -2.1353  0.2453 -0.4776
  291MOL0     H39268   4.715   7.941   6.865 -1.7927 -0.1724  5.0915
  291MOL0     H39269   4.743   7.430   6.695  3.8720 -1.0794 -1.2738
  291MOL0     H39270   4.642   7.186   6.644  0.8266 -0.8225 -0.0574
  291MOL0     H39271   4.718   6.775   6.457 -2.1769  1.4967  0.5791
  291MOL0     H39272   4.695   6.538   6.431 -2.2474  1.4020  0.2695
  291MOL0     H39273   4.790   6.327   6.577 -0.7855  1.2901  0.0797
  291MOL0     H39274   4.665   6.238   6.486  0.7215  0.2575 -0.5372
  291MOL0     H39275   4.583   6.139   6.697 -0.9736 -2.0992 -1.4788
  291MOL0     H39276   4.740   6.173   6.768  0.1056 -0.4029  0.0996
  291MOL0     H39277   4.836   6.000   6.677 -1.5164 -0.8434  0.5372
  291MOL0     H39278   4.833   6.087   6.525  3.5230 -2.0563  1.2867
  291MOL0     H39279   4.654   5.870   6.635 -1.4819 -2.8818 -1.2158
  291MOL0     H39280   4.588   5.994   6.514  0.3708 -0.8911 -0.3442
  291MOL0     H39281   4.801   5.767   6.250 -1.3368 -2.7692  0.4821
  291MOL0     H39282   4.584   6.504   6.839  1.5826 -1.4453 -0.6119
  291MOL0     H39283   4.673   6.654   7.003  2.1601 -1.8703 -0.5247
  291MOL0     H39284   4.758   6.798   6.943 -1.0404  1.4258  0.9968
  291MOL0     H39285   4.587   6.805   6.959  0.1743 -0.1428 -0.4327
  292MOL0     O39286   9.388   1.012   7.386  0.1093  0.2171 -0.9145
  292MOL0     C39287   9.338   0.955   7.481 -0.3554  0.7940 -0.5225
  292MOL0     O39288   9.405   0.937   7.597  0.1759  0.1233 -0.2322
  292MOL0     C39289   9.539   0.920   7.588  0.4430 -0.4027 -0.8105
  292MOL0     C39290   9.598   0.839   7.490  0.3092  0.3237 -0.0697
  292MOL0     C39291   9.739   0.813   7.493 -0.4306 -0.3270  0.1217
  292MOL0     C39292   9.824   0.885   7.572  0.3961  0.0390  0.5087
  292MOL0     O39293   9.964   0.882   7.591  0.6048  0.1286 -0.1417
  292MOL0     C39294  10.049   0.842   7.479  1.0281 -0.5483  0.5866
  292MOL0     C39295  10.043   0.937   7.359  0.3794  0.6210  1.7847
  292MOL0     C39296  10.117   0.892   7.236 -0.2235  0.2308 -0.1137
  292MOL0     C39297  10.147   1.013   7.149 -0.0408  0.0599  0.4510
  292MOL0     C39298  10.221   0.970   7.016  0.4430 -0.2343 -0.8371
  292MOL0     C39299  10.367   0.923   7.045  0.1917  0.2221 -0.3310
  292MOL0     C39300  10.421   0.863   6.913 -0.8511  0.5101 -0.2382
  292MOL0     C39301  10.565   0.798   6.944 -0.3550 -0.2397  0.0429
  292MOL0     N39302  10.646   0.767   6.823 -0.1560 -0.1915 -0.5247
  292MOL0     C39303  10.734   0.844   6.756 -0.0598  0.2302 -0.4185
  292MOL0     C39304  10.806   0.755   6.680  0.6393 -0.0217 -0.6484
  292MOL0     C39305  10.922   0.786   6.587  0.2858 -0.1799  0.8055
  292MOL0     C39306  11.043   0.805   6.676 -0.4999 -0.5274 -0.3517
  292MOL0     C39307  11.080   0.947   6.712  0.3954 -0.2434 -0.5129
  292MOL0     C39308  11.228   0.962   6.740  0.3878 -0.0917 -0.6242
  292MOL0     O39309  11.310   0.971   6.626  0.8023  0.1420  0.6256
  292MOL0     C39310  11.445   0.995   6.650  0.0078 -0.0666 -0.0006
  292MOL0     C39311  11.511   0.973   6.773 -1.1477 -0.2243 -0.0439
  292MOL0     C39312  11.651   0.977   6.777 -0.1686  0.9532  1.1660
  292MOL0     C39313  11.719   1.007   6.659  0.4929  0.5678 -0.0657
  292MOL0     C39314  11.867   1.002   6.660  0.3975  0.7771  0.0221
  292MOL0     O39315  11.934   1.002   6.545  0.2393  1.1512  0.2017
  292MOL0     C39316  12.051   1.074   6.543 -0.4556  0.4639 -0.4102
  292MOL0     C39317  12.090   1.193   6.612  0.2587  0.2870 -0.4805
  292MOL0     C39318  12.230   1.245   6.603  0.0514  0.3146 -0.8061
  292MOL0     C39319  12.319   1.188   6.514 -0.8195  0.0981 -0.4266
  292MOL0     O39320  12.437   1.249   6.493  0.1164  0.1757  0.2957
  292MOL0     C39321  12.549   1.164   6.472  0.5535  0.5287  0.6171
  292MOL0     C39322  12.652   1.247   6.402 -0.6537  0.3440 -0.3673
  292MOL0     C39323  12.776   1.155   6.393 -0.4117  0.7700  0.3139
  292MOL0     C39324  12.879   1.200   6.292 -0.3964 -0.7541  0.5658
  292MOL0     C39325  12.931   1.353   6.327 -0.5165  0.2539  0.4794
  292MOL0     C39326  13.050   1.398   6.229 -0.4593 -0.7174 -0.1658
  292MOL0     C39327  13.052   1.332   6.087  0.3052 -0.0382  0.2977
  292MOL0     C39328  13.147   1.399   5.991  0.4744  0.4582  0.3410
  292MOL0    Cl39329  13.145   1.333   5.824 -0.5271  0.2510 -0.0961
  292MOL0     C39330  12.271   1.081   6.429 -0.5395 -0.0601 -1.1223
  292MOL0     C39331  12.147   1.020   6.454  0.3540  0.4021 -0.8070
  292MOL0     O39332  11.923   0.987   6.769  0.5704  0.0039  0.2951
  292MOL0     C39333  11.650   1.036   6.544 -0.7690 -0.2701  0.3304
  292MOL0     C39334  11.516   1.034   6.542  0.3110  1.8011  0.4338
  292MOL0     N39335  10.750   0.632   6.687  0.1881 -0.4440 -0.7061
  292MOL0     N39336  10.656   0.643   6.773  0.5190 -0.0110 -0.3016
  292MOL0     C39337   9.765   0.975   7.657  0.6549  0.3258  0.8092
  292MOL0     C39338   9.623   0.992   7.675 -0.3206  0.9859 -0.8647
  292MOL0     C39339   9.198   0.917   7.490  0.5455  0.4207  0.1586
  292MOL0     C39340   9.157   0.826   7.587 -0.0867  0.2208 -0.2022
  292MOL0     C39341   9.024   0.800   7.607  0.7046  0.6976 -0.3141
  292MOL0     C39342   8.923   0.856   7.529 -0.7634  0.3949  0.8070
  292MOL0     O39343   8.792   0.835   7.551 -0.2596  0.8643  0.1375
  292MOL0     C39344   8.747   0.714   7.619 -0.3534 -0.8201 -0.4397
  292MOL0     C39345   8.597   0.714   7.602 -0.3150 -0.5952 -0.0167
  292MOL0     C39346   8.554   0.720   7.447  0.3228  0.1172 -0.7635
  292MOL0     C39347   8.411   0.692   7.398  0.0232 -0.4929 -0.2646
  292MOL0     C39348   8.393   0.614   7.277  1.1723  0.2048  0.1141
  292MOL0     C39349   8.390   0.551   7.173  0.2815  0.6931 -1.1337
  292MOL0     C39350   8.957   0.940   7.430 -0.3658 -0.1311  0.2434
  292MOL0     C39351   9.092   0.965   7.401  0.4323 -1.3498  0.0705
  292MOL0     C39352   9.111   1.048   7.274 -0.6838 -0.3236 -0.5782
  292MOL0     H39353   9.536   0.779   7.425 -3.1791  0.1459  3.0538
  292MOL0     H39354   9.785   0.754   7.414  0.9321  1.4311 -0.4757
  292MOL0     H39355  10.156   0.830   7.502  1.7432 -2.9783 -3.1899
  292MOL0     H39356   9.995   0.750   7.459 -2.5127  1.7228 -1.4302
  292MOL0     H39357  10.074   1.037   7.390 -1.4809  1.9329 -0.3127
  292MOL0     H39358   9.943   0.959   7.322  0.6997  0.9411  1.0725
  292MOL0     H39359  10.056   0.819   7.183 -2.1111  2.9972 -2.0614
  292MOL0     H39360  10.210   0.852   7.278 -1.2540  1.2114  3.4166
  292MOL0     H39361  10.052   1.060   7.122  0.0333 -0.4887 -0.8268
  292MOL0     H39362  10.207   1.089   7.201 -2.7284  1.7675  1.2844
  292MOL0     H39363  10.159   0.891   6.972 -0.3493 -0.6584  0.9564
  292MOL0     H39364  10.221   1.058   6.951 -2.0313  1.9200  1.7926
  292MOL0     H39365  10.432   1.003   7.081 -0.6612  1.5222 -1.5215
  292MOL0     H39366  10.378   0.845   7.121 -0.5459  1.2829  0.9181
  292MOL0     H39367  10.435   0.946   6.844 -0.0587 -0.4145 -1.2325
  292MOL0     H39368  10.343   0.793   6.880 -0.8573  0.1576  0.5090
  292MOL0     H39369  10.629   0.856   7.011  1.7089 -3.6795  1.2878
  292MOL0     H39370  10.538   0.707   6.999  2.3889 -0.0463  1.8817
  292MOL0     H39371  10.746   0.951   6.743 -0.2996  0.1056 -1.7768
  292MOL0     H39372  10.936   0.701   6.519  0.9588  2.1884 -2.2244
  292MOL0     H39373  10.897   0.874   6.527  3.3037 -0.4554 -1.0454
  292MOL0     H39374  11.031   0.749   6.769 -0.9211  0.7611  0.4026
  292MOL0     H39375  11.125   0.757   6.621 -1.3257 -0.8918 -1.2933
  292MOL0     H39376  11.031   0.978   6.805  1.4614 -0.9578  0.3216
  292MOL0     H39377  11.031   1.009   6.636  0.5570  0.4659 -0.0482
  292MOL0     H39378  11.257   0.877   6.802 -0.0812 -0.1079 -0.4254
  292MOL0     H39379  11.242   1.052   6.801  0.9798  0.8718 -2.1148
  292MOL0     H39380  11.456   0.948   6.863 -0.9937 -2.7908 -0.5885
  292MOL0     H39381  11.702   0.963   6.872  0.6578  1.3641  0.7891
  292MOL0     H39382  12.019   1.241   6.678 -1.9236  1.5010 -3.4985
  292MOL0     H39383  12.250   1.334   6.662  0.4106 -1.0058  1.1363
  292MOL0     H39384  12.587   1.122   6.566  0.1825 -0.5106  0.3209
  292MOL0     H39385  12.525   1.082   6.403 -3.4406  1.0139  1.2394
  292MOL0     H39386  12.608   1.277   6.307 -0.0489  1.2143 -0.3840
  292MOL0     H39387  12.673   1.343   6.449  0.5593 -0.4214  0.7361
  292MOL0     H39388  12.827   1.155   6.490  3.2409  0.8336 -1.4156
  292MOL0     H39389  12.746   1.055   6.359  0.4540  1.2989 -2.2145
  292MOL0     H39390  12.820   1.212   6.201 -1.8533  0.3752  1.6170
  292MOL0     H39391  12.955   1.123   6.273 -0.9185 -1.1898  0.2121
  292MOL0     H39392  12.964   1.355   6.431  1.5547  0.7427 -0.1239
  292MOL0     H39393  12.852   1.425   6.308  1.5023  2.1244 -1.4277
  292MOL0     H39394  13.043   1.507   6.220 -1.4391 -0.5812  1.6957
  292MOL0     H39395  13.145   1.373   6.277 -0.7969 -0.0523  0.8964
  292MOL0     H39396  12.950   1.351   6.052  0.0233 -3.4899 -1.1477
  292MOL0     H39397  13.067   1.223   6.092 -0.1007 -0.0994  0.2057
  292MOL0     H39398  13.128   1.506   5.972  2.5908  0.6376 -1.1786
  292MOL0     H39399  13.244   1.378   6.037 -0.3873 -1.9044  1.1711
  292MOL0     H39400  12.337   1.053   6.348 -0.5491  0.3821 -1.2852
  292MOL0     H39401  12.118   0.938   6.389  1.3187 -0.8883  0.3481
  292MOL0     H39402  11.700   1.061   6.451 -0.3105  0.2141  0.7064
  292MOL0     H39403  11.454   1.058   6.457  0.5411 -0.9717 -0.6184
  292MOL0     H39404   9.822   1.053   7.707 -1.5610  2.7473 -0.1977
  292MOL0     H39405   9.582   1.076   7.731 -0.2452  0.3477  0.1766
  292MOL0     H39406   9.227   0.784   7.658 -0.4556  2.3234  1.5048
  292MOL0     H39407   8.991   0.731   7.684  3.0857 -1.5798 -1.1831
  292MOL0     H39408   8.783   0.708   7.722 -0.2716 -2.9565 -0.5439
  292MOL0     H39409   8.789   0.624   7.572 -0.2729  0.0308 -2.0937
  292MOL0     H39410   8.545   0.793   7.658 -3.6368 -2.3002 -0.4229
  292MOL0     H39411   8.557   0.619   7.640 -0.0219  0.1211  2.2251
  292MOL0     H39412   8.627   0.672   7.381  1.1576  2.4559 -1.6663
  292MOL0     H39413   8.565   0.828   7.432 -0.9665  0.5552  1.1406
  292MOL0     H39414   8.346   0.658   7.479 -1.4865  0.0213 -1.2271
  292MOL0     H39415   8.370   0.789   7.370  2.3149  0.1811 -1.5818
  292MOL0     H39416   8.376   0.497   7.082 -1.1045 -0.9055 -0.0389
  292MOL0     H39417   8.878   0.965   7.359  2.1553 -1.2425 -3.2599
  292MOL0     H39418   9.025   1.051   7.208 -0.6053 -0.6225 -0.6954
  292MOL0     H39419   9.138   1.153   7.290  2.0705 -0.8148 -1.4292
  292MOL0     H39420   9.181   0.993   7.210  0.9448  1.3446 -0.3221
  293MOL0     O39421   0.374   9.560   6.407 -0.2052 -0.2810  0.1069
  293MOL0     C39422   0.293   9.487   6.353  0.5629  0.2466 -0.1377
  293MOL0     O39423   0.318   9.416   6.239  0.2467  0.2473  0.2265
  293MOL0     C39424   0.427   9.460   6.167  0.1277  0.3341  0.8238
  293MOL0     C39425   0.516   9.362   6.116 -0.2382 -0.5832  0.6428
  293MOL0     C39426   0.634   9.387   6.052 -0.3925 -0.0629  0.3115
  293MOL0     C39427   0.658   9.520   6.011  0.1484  0.3293 -0.2711
  293MOL0     O39428   0.772   9.565   5.949  0.5250  0.8218  0.1271
  293MOL0     C39429   0.888   9.552   6.029 -0.0335 -1.0248 -0.3174
  293MOL0     C39430   0.993   9.553   5.922  0.9240  0.8029  0.5586
  293MOL0     C39431   1.130   9.499   5.974 -0.8617 -0.2313  0.1555
  293MOL0     C39432   1.239   9.614   6.012 -0.3500 -0.7082  0.1788
  293MOL0     C39433   1.373   9.572   6.033 -0.8205  0.6668 -0.3520
  293MOL0     C39434   1.383   9.453   6.136 -0.4939 -0.4801  0.3835
  293MOL0     C39435   1.530   9.423   6.169  0.4215  0.8498  1.0964
  293MOL0     C39436   1.590   9.512   6.276 -0.7725 -0.3057 -0.3134
  293MOL0     N39437   1.547   9.471   6.407  0.2690  0.5789  0.5010
  293MOL0     C39438   1.586   9.355   6.468  0.0434  0.3507  0.3667
  293MOL0     C39439   1.531   9.362   6.584  0.2798 -0.7041 -0.2773
  293MOL0     C39440   1.553   9.268   6.697 -0.3493  0.1315 -0.1777
  293MOL0     C39441   1.438   9.166   6.716 -0.8462 -0.1380  0.2463
  293MOL0     C39442   1.301   9.220   6.753  0.3827  0.1708 -0.3708
  293MOL0     C39443   1.206   9.099   6.769  0.4037 -0.1522  0.1837
  293MOL0     O39444   1.081   9.164   6.805  0.1666  0.1506 -0.6146
  293MOL0     C39445   0.984   9.072   6.845  0.0177 -1.0646 -0.2485
  293MOL0     C39446   0.988   8.932   6.830  1.0707 -0.4242  0.1289
  293MOL0     C39447   0.886   8.844   6.850  0.3288  0.1934 -0.0518
  293MOL0     C39448   0.771   8.901   6.903  0.8322 -0.5493 -0.5899
  293MOL0     C39449   0.657   8.811   6.944  0.0212 -0.4140  0.0113
  293MOL0     O39450   0.557   8.864   7.026  0.5388  0.4191 -0.5693
  293MOL0     C39451   0.434   8.791   7.042 -0.5095 -0.5205  0.0347
  293MOL0     C39452   0.361   8.827   7.153  0.3090  0.1688  0.3416
  293MOL0     C39453   0.232   8.763   7.169 -0.2692  0.6269  1.3582
  293MOL0     C39454   0.185   8.658   7.070 -0.4286 -0.6095  0.3844
  293MOL0     O39455   0.055   8.604   7.060 -1.0006 -0.2267 -0.3590
  293MOL0     C39456  -0.031   8.622   7.175  0.0495  0.4245  0.3601
  293MOL0     C39457  -0.166   8.532   7.170 -0.1379 -0.3726  0.8903
  293MOL0     C39458  -0.245   8.518   7.299  0.4521  0.3298 -0.0349
  293MOL0     C39459  -0.251   8.659   7.369  0.6336 -0.7951  0.7065
  293MOL0     C39460  -0.365   8.678   7.467  1.2850  0.6511 -0.2769
  293MOL0     C39461  -0.502   8.667   7.392 -0.1656 -0.6009  0.0558
  293MOL0     C39462  -0.616   8.736   7.469 -0.6588 -0.7705  0.5522
  293MOL0     C39463  -0.636   8.688   7.615  0.7236 -0.0534 -0.0845
  293MOL0    Cl39464  -0.545   8.780   7.733 -0.0743 -0.1269  0.2970
  293MOL0     C39465   0.264   8.634   6.964 -0.0018 -0.3242  0.1633
  293MOL0     C39466   0.380   8.707   6.946  0.1517 -0.8599 -0.0197
  293MOL0     O39467   0.668   8.697   6.899 -0.1040 -0.0746  0.5739
  293MOL0     C39468   0.753   9.044   6.910  0.2442 -0.1705 -0.5745
  293MOL0     C39469   0.854   9.128   6.875  0.0580 -0.1250  0.2725
  293MOL0     N39470   1.453   9.474   6.593  0.4530 -0.8401 -0.4146
  293MOL0     N39471   1.450   9.530   6.481 -0.0864 -0.2832 -0.6104
  293MOL0     C39472   0.575   9.615   6.064  0.7033  0.7147 -0.4520
  293MOL0     C39473   0.458   9.592   6.139  0.9862  0.1780  0.6793
  293MOL0     C39474   0.164   9.473   6.412  0.3260  0.3373  0.6286
  293MOL0     C39475   0.159   9.458   6.549  0.2444 -0.6001 -0.4038
  293MOL0     C39476   0.028   9.449   6.615  0.7254  0.9960 -0.0912
  293MOL0     C39477  -0.093   9.454   6.547  0.9719  0.2837  0.4950
  293MOL0     O39478  -0.220   9.461   6.602  0.3971  0.9948 -0.4279
  293MOL0     C39479  -0.225   9.497   6.739 -0.2214  0.1419 -0.8450
  293MOL0     C39480  -0.359   9.565   6.761 -0.5232  1.8978  0.6407
  293MOL0     C39481  -0.374   9.644   6.889  0.0091  0.9892  0.5848
  293MOL0     C39482  -0.518   9.696   6.924  0.7575  0.0579  0.6539
  293MOL0     C39483  -0.564   9.812   6.847 -0.4690  0.1339  0.3776
  293MOL0     C39484  -0.602   9.915   6.788 -0.0201 -0.7045  0.0444
  293MOL0     C39485  -0.079   9.470   6.409 -0.1394  0.0961  0.3210
  293MOL0     C39486   0.043   9.472   6.339 -0.1605 -0.6397 -0.3027
  293MOL0     C39487   0.041   9.480   6.192 -0.0340  0.4397 -1.0310
  293MOL0     H39488   0.487   9.259   6.131  1.0920 -0.8018  1.9769
  293MOL0     H39489   0.704   9.309   6.026  1.2625  0.2452  3.3849
  293MOL0     H39490   0.895   9.632   6.103 -2.3122 -0.1978 -0.9161
  293MOL0     H39491   0.901   9.459   6.086  2.0803 -0.9177 -0.5253
  293MOL0     H39492   1.010   9.649   5.874  0.9397  1.5853  2.0846
  293MOL0     H39493   0.952   9.486   5.846 -1.9493  3.9979 -0.9434
  293MOL0     H39494   1.157   9.425   5.899 -4.3655 -2.4043  0.8082
  293MOL0     H39495   1.114   9.439   6.065  0.7115 -0.1792  0.4991
  293MOL0     H39496   1.233   9.690   5.934 -1.2873 -0.2954  0.6311
  293MOL0     H39497   1.211   9.672   6.100 -0.1382  0.4923 -0.5259
  293MOL0     H39498   1.427   9.560   5.939  3.6703  0.7905  1.9207
  293MOL0     H39499   1.427   9.658   6.073 -0.8007  0.6629 -0.3717
  293MOL0     H39500   1.317   9.481   6.218 -2.4272  3.7859 -2.2555
  293MOL0     H39501   1.348   9.368   6.077 -1.7220  0.5810 -0.4825
  293MOL0     H39502   1.583   9.418   6.073 -1.0367 -3.0880  0.2710
  293MOL0     H39503   1.538   9.319   6.203 -1.6273  0.4030  0.3532
  293MOL0     H39504   1.700   9.513   6.270 -0.7597  2.6700 -1.2111
  293MOL0     H39505   1.553   9.614   6.263  1.0130 -0.0153 -5.2974
  293MOL0     H39506   1.657   9.277   6.443  1.0404  1.1178  0.7235
  293MOL0     H39507   1.649   9.221   6.676  0.1358  0.4440  1.2373
  293MOL0     H39508   1.569   9.310   6.797  1.1099  0.0441 -0.3627
  293MOL0     H39509   1.421   9.115   6.621  0.5210  0.0185 -0.1092
  293MOL0     H39510   1.476   9.098   6.793  0.6370 -1.1101 -1.2724
  293MOL0     H39511   1.261   9.284   6.674  0.9431 -0.8835 -1.5483
  293MOL0     H39512   1.318   9.281   6.842 -0.6200 -0.3511  0.1904
  293MOL0     H39513   1.242   9.032   6.847 -1.3965 -0.9154  0.4032
  293MOL0     H39514   1.188   9.056   6.670 -1.8439  1.6277 -0.2899
  293MOL0     H39515   1.081   8.888   6.795  0.0299 -2.7926  0.1345
  293MOL0     H39516   0.901   8.737   6.842  0.3265 -0.0774  2.6382
  293MOL0     H39517   0.385   8.901   7.228 -4.2144 -0.0074  2.3476
  293MOL0     H39518   0.172   8.799   7.252  2.5851  4.4875  2.0115
  293MOL0     H39519   0.030   8.597   7.262  1.1009  1.2769 -0.1038
  293MOL0     H39520  -0.050   8.729   7.185 -3.6974  0.0257 -0.9154
  293MOL0     H39521  -0.225   8.590   7.099 -0.2310  0.7279  1.8342
  293MOL0     H39522  -0.139   8.434   7.130 -0.7898 -0.2239  0.0686
  293MOL0     H39523  -0.349   8.489   7.278 -0.9079  0.7575  4.7734
  293MOL0     H39524  -0.202   8.442   7.365 -0.7675 -0.4674 -0.1183
  293MOL0     H39525  -0.264   8.726   7.285 -2.5940 -0.8466  1.0316
  293MOL0     H39526  -0.160   8.680   7.427 -0.8862  1.3352  2.4855
  293MOL0     H39527  -0.356   8.777   7.513  0.6457  0.6750 -0.2036
  293MOL0     H39528  -0.374   8.606   7.550 -2.1088  3.0578  1.6684
  293MOL0     H39529  -0.499   8.723   7.298  1.3267 -1.8493 -0.6877
  293MOL0     H39530  -0.528   8.562   7.375  0.3053 -0.7305  0.1244
  293MOL0     H39531  -0.706   8.719   7.410 -0.2634  1.4050 -0.8231
  293MOL0     H39532  -0.588   8.842   7.470 -1.2176 -0.5452 -1.9053
  293MOL0     H39533  -0.740   8.672   7.644  1.2371 -1.8976  0.8900
  293MOL0     H39534  -0.599   8.585   7.611 -0.9613 -0.6961  0.1703
  293MOL0     H39535   0.251   8.571   6.876  2.9138 -1.4977  0.4508
  293MOL0     H39536   0.426   8.696   6.848 -0.2541  0.1722 -0.3407
  293MOL0     H39537   0.664   9.099   6.941  1.4468  2.1908 -1.0539
  293MOL0     H39538   0.833   9.234   6.884 -3.9285 -0.7888  0.6288
  293MOL0     H39539   0.602   9.719   6.053  0.8925  1.1648  3.1160
  293MOL0     H39540   0.388   9.668   6.170  1.9301  0.7713  1.4360
  293MOL0     H39541   0.250   9.462   6.607 -1.0316  2.0848  1.6593
  293MOL0     H39542   0.037   9.456   6.723  0.4582  0.6786 -0.0466
  293MOL0     H39543  -0.151   9.572   6.768 -2.5920  2.2998  0.0416
  293MOL0     H39544  -0.228   9.406   6.800 -1.8538 -0.2180 -1.4047
  293MOL0     H39545  -0.433   9.485   6.754 -0.2119  1.6334  0.3464
  293MOL0     H39546  -0.368   9.636   6.677  1.0124  1.4563  0.0749
  293MOL0     H39547  -0.299   9.723   6.893 -0.6443  1.6704 -0.3175
  293MOL0     H39548  -0.348   9.570   6.965 -3.0807  0.4553  1.2568
  293MOL0     H39549  -0.590   9.621   6.892  1.0945  0.9167 -2.4943
  293MOL0     H39550  -0.534   9.714   7.031 -1.3015 -2.9651  0.9803
  293MOL0     H39551  -0.634  10.010   6.751  0.2483 -0.5051  0.3157
  293MOL0     H39552  -0.167   9.481   6.346 -0.1865  0.2137  0.4076
  293MOL0     H39553  -0.053   9.516   6.148 -0.8292  2.9107  2.3357
  293MOL0     H39554   0.126   9.544   6.167 -0.8252  1.3157 -1.5227
  293MOL0     H39555   0.056   9.377   6.157 -1.6852  0.1049 -0.8370
  294MOL0     O39556   4.937   1.645   0.071  0.3056 -0.1144 -0.4639
  294MOL0     C39557   4.862   1.708   0.146  0.2330  0.0134 -0.5028
  294MOL0     O39558   4.726   1.706   0.126  0.2930  0.3287  0.8923
  294MOL0     C39559   4.672   1.612   0.047 -1.0753 -0.2897  0.8876
  294MOL0     C39560   4.635   1.634  -0.081  0.7832 -0.1615 -0.4223
  294MOL0     C39561   4.595   1.528  -0.169 -0.0221  0.2216  0.3245
  294MOL0     C39562   4.587   1.397  -0.123 -0.1642 -0.1134  0.0178
  294MOL0     O39563   4.528   1.293  -0.190 -0.7912 -0.6087  0.2125
  294MOL0     C39564   4.461   1.334  -0.315 -0.3315 -0.0244 -0.1013
  294MOL0     C39565   4.557   1.333  -0.437 -1.7177  0.5410  0.2447
  294MOL0     C39566   4.495   1.396  -0.562 -0.9194  0.0422  0.0812
  294MOL0     C39567   4.367   1.309  -0.610  0.2503 -0.0180 -0.5143
  294MOL0     C39568   4.324   1.329  -0.750 -0.0405  0.6694 -0.3655
  294MOL0     C39569   4.427   1.285  -0.866 -0.6851  0.7136  0.2986
  294MOL0     C39570   4.363   1.276  -1.002  1.2013  0.5209  0.0725
  294MOL0     C39571   4.453   1.284  -1.130 -0.7843  0.8463 -0.7271
  294MOL0     N39572   4.571   1.195  -1.131 -0.3784  0.9500 -0.4661
  294MOL0     C39573   4.572   1.060  -1.159 -0.0849  0.6051  1.0107
  294MOL0     C39574   4.696   1.009  -1.140  0.2448  0.3131 -0.3377
  294MOL0     C39575   4.742   0.869  -1.171 -0.5973 -0.3237  0.3377
  294MOL0     C39576   4.732   0.844  -1.326 -1.2272 -0.0371 -0.5989
  294MOL0     C39577   4.656   0.720  -1.344 -0.3739 -0.0369 -0.3863
  294MOL0     C39578   4.664   0.680  -1.496 -0.3033  0.5476 -0.4478
  294MOL0     O39579   4.588   0.782  -1.565  0.8724  0.4780 -0.0555
  294MOL0     C39580   4.592   0.781  -1.700  0.1725 -0.0480  0.3162
  294MOL0     C39581   4.528   0.890  -1.764 -0.6717 -0.1713 -0.3193
  294MOL0     C39582   4.511   0.898  -1.898  0.4535 -0.0908  0.2078
  294MOL0     C39583   4.555   0.787  -1.979 -0.3143  0.0515 -0.8837
  294MOL0     C39584   4.532   0.787  -2.116  0.0227  0.2989  0.2082
  294MOL0     O39585   4.483   0.660  -2.159  0.5334  0.2371 -0.0720
  294MOL0     C39586   4.481   0.642  -2.298 -0.6247 -0.1736 -0.1948
  294MOL0     C39587   4.394   0.718  -2.383 -0.9594  0.4285 -0.1324
  294MOL0     C39588   4.401   0.688  -2.518 -0.1845  0.7571  0.2835
  294MOL0     C39589   4.479   0.586  -2.576 -0.6590  0.3375  0.1453
  294MOL0     O39590   4.474   0.557  -2.714  0.6689  0.3257  0.4259
  294MOL0     C39591   4.487   0.655  -2.811  0.3446  0.0858 -0.2916
  294MOL0     C39592   4.443   0.609  -2.955  0.4217  0.4779  0.8533
  294MOL0     C39593   4.478   0.719  -3.057 -0.0626  0.4500 -0.5089
  294MOL0     C39594   4.440   0.684  -3.198 -0.0920 -0.0879  0.2643
  294MOL0     C39595   4.516   0.550  -3.241  0.1575  0.6830 -0.0277
  294MOL0     C39596   4.498   0.544  -3.396 -0.5499  0.3547 -0.0954
  294MOL0     C39597   4.524   0.400  -3.446 -0.3010 -0.6692  0.4230
  294MOL0     C39598   4.419   0.301  -3.396  0.1677  0.0808 -0.5371
  294MOL0    Cl39599   4.468   0.132  -3.437 -0.0807 -0.4835  0.0806
  294MOL0     C39600   4.554   0.505  -2.487  0.0719  0.2995  0.8510
  294MOL0     C39601   4.556   0.533  -2.349  0.5077  0.2265  0.7430
  294MOL0     O39602   4.570   0.876  -2.189  0.0965 -0.2310  0.4456
  294MOL0     C39603   4.651   0.699  -1.927 -0.0748  0.9723  0.1046
  294MOL0     C39604   4.661   0.689  -1.780  0.7813 -0.1930  0.1357
  294MOL0     N39605   4.769   1.115  -1.098 -0.1334  0.0793 -0.2671
  294MOL0     N39606   4.695   1.226  -1.090 -0.1573 -0.4210  0.7018
  294MOL0     C39607   4.605   1.380   0.017  0.5507 -0.0906 -0.1269
  294MOL0     C39608   4.651   1.483   0.102  0.7293  0.2729 -0.1307
  294MOL0     C39609   4.924   1.796   0.258 -0.0386  0.6651 -0.1602
  294MOL0     C39610   5.053   1.838   0.249  0.5427  0.0900  0.1556
  294MOL0     C39611   5.099   1.934   0.344  0.0486  0.8340  0.2976
  294MOL0     C39612   5.029   1.992   0.447  1.3200  0.0014 -0.3275
  294MOL0     O39613   5.088   2.076   0.540  0.9711 -0.0873 -0.2724
  294MOL0     C39614   5.085   2.211   0.513 -0.5847 -0.6335  0.3308
  294MOL0     C39615   5.154   2.304   0.621  0.0232 -0.7066 -0.3921
  294MOL0     C39616   5.300   2.281   0.646 -0.4406  0.2364  0.0569
  294MOL0     C39617   5.385   2.345   0.536  0.1287 -0.0378 -1.0025
  294MOL0     C39618   5.531   2.336   0.554  0.0963  0.0641  0.1449
  294MOL0     C39619   5.650   2.345   0.579 -0.5196  0.3072 -0.6774
  294MOL0     C39620   4.902   1.941   0.463 -0.4975 -0.1320 -0.8257
  294MOL0     C39621   4.852   1.842   0.374 -0.4243  0.5604 -0.0558
  294MOL0     C39622   4.719   1.783   0.409  0.0212 -0.3902 -0.6110
  294MOL0     H39623   4.652   1.736  -0.113 -0.2373 -0.0997 -0.7944
  294MOL0     H39624   4.586   1.562  -0.271 -1.5545  2.8982  1.2499
  294MOL0     H39625   4.399   1.250  -0.347  4.3906 -4.4910  1.2374
  294MOL0     H39626   4.404   1.428  -0.313  0.7922  0.6709 -0.0649
  294MOL0     H39627   4.591   1.230  -0.456 -1.3728  0.4097  1.4651
  294MOL0     H39628   4.641   1.401  -0.420 -2.1466  0.9965  0.5237
  294MOL0     H39629   4.567   1.403  -0.644  0.2444  0.9706  1.1495
  294MOL0     H39630   4.470   1.500  -0.540 -1.3639 -0.0414 -0.0097
  294MOL0     H39631   4.381   1.201  -0.603 -1.0018 -0.2294 -1.0375
  294MOL0     H39632   4.279   1.322  -0.547  0.1616  1.2913 -0.8721
  294MOL0     H39633   4.227   1.279  -0.761  0.0774  0.8160 -2.4289
  294MOL0     H39634   4.315   1.438  -0.745  0.2892  0.7106 -0.6664
  294MOL0     H39635   4.508   1.353  -0.894 -0.1826 -0.4229 -1.1616
  294MOL0     H39636   4.475   1.189  -0.843 -1.0482  0.1198 -1.3280
  294MOL0     H39637   4.296   1.362  -1.013 -1.3012 -1.5272 -2.3816
  294MOL0     H39638   4.304   1.184  -0.994 -0.0058  1.4134  2.2741
  294MOL0     H39639   4.385   1.255  -1.210 -3.7382  0.1640  1.8448
  294MOL0     H39640   4.492   1.387  -1.137  0.9156  0.4340  1.4635
  294MOL0     H39641   4.493   1.000  -1.201  0.6961  2.3696 -3.4658
  294MOL0     H39642   4.846   0.868  -1.136  0.2372 -0.4368 -1.9369
  294MOL0     H39643   4.692   0.782  -1.129  1.1673 -2.1224 -1.1059
  294MOL0     H39644   4.690   0.929  -1.381 -1.4938 -0.3920 -0.9488
  294MOL0     H39645   4.833   0.814  -1.358 -0.8122 -2.6564  2.6254
  294MOL0     H39646   4.552   0.745  -1.321 -0.6786 -2.4699  1.2964
  294MOL0     H39647   4.694   0.640  -1.279 -3.2496  0.7470  2.5331
  294MOL0     H39648   4.628   0.579  -1.516  1.1962 -0.2696  0.7602
  294MOL0     H39649   4.771   0.679  -1.518 -0.2684  1.0581 -0.3166
  294MOL0     H39650   4.490   0.965  -1.695  1.5755 -0.5138  1.4072
  294MOL0     H39651   4.445   0.975  -1.937 -1.9515 -1.9302  0.4190
  294MOL0     H39652   4.336   0.799  -2.340  1.3058  3.4968 -2.4320
  294MOL0     H39653   4.337   0.749  -2.581 -1.9650  1.2662  2.4245
  294MOL0     H39654   4.428   0.742  -2.779 -2.6248 -1.8858 -0.0214
  294MOL0     H39655   4.591   0.680  -2.832  0.0831 -0.2292 -2.1503
  294MOL0     H39656   4.495   0.513  -2.969 -0.1347  0.3854 -0.6893
  294MOL0     H39657   4.336   0.593  -2.967  0.2700  2.8683 -2.0152
  294MOL0     H39658   4.429   0.814  -3.032  0.8952  0.8113  0.0956
  294MOL0     H39659   4.585   0.742  -3.049  0.1455 -1.0912  2.7902
  294MOL0     H39660   4.454   0.767  -3.269  0.6419  0.0189  0.5266
  294MOL0     H39661   4.332   0.670  -3.209  0.2261 -0.8848 -2.9839
  294MOL0     H39662   4.462   0.475  -3.183 -1.6758  1.6801 -0.3453
  294MOL0     H39663   4.622   0.566  -3.221 -0.0306  2.8642 -0.4242
  294MOL0     H39664   4.400   0.579  -3.428 -0.8319  0.6240  1.0199
  294MOL0     H39665   4.573   0.604  -3.448  0.3594 -1.2732 -0.7293
  294MOL0     H39666   4.620   0.372  -3.401 -1.4510 -0.8792  2.9277
  294MOL0     H39667   4.542   0.407  -3.553  0.0824  0.6499  0.5588
  294MOL0     H39668   4.424   0.292  -3.287 -0.7808 -0.9549 -0.5533
  294MOL0     H39669   4.318   0.330  -3.424 -0.4367 -1.3634  0.0599
  294MOL0     H39670   4.608   0.416  -2.517 -3.2354 -2.7270  3.0606
  294MOL0     H39671   4.613   0.471  -2.280  2.2481  3.5867  2.5728
  294MOL0     H39672   4.703   0.618  -1.977 -2.5891 -1.1200  0.6603
  294MOL0     H39673   4.724   0.606  -1.747  1.4790 -1.3948 -3.7751
  294MOL0     H39674   4.584   1.285   0.065  1.1652 -0.2046 -0.0680
  294MOL0     H39675   4.687   1.462   0.202 -0.0445  1.9865  0.5346
  294MOL0     H39676   5.120   1.801   0.171 -0.8246 -2.1242 -0.0638
  294MOL0     H39677   5.201   1.962   0.319  1.0920 -3.7705 -1.5710
  294MOL0     H39678   4.983   2.248   0.498 -0.3425 -0.6155 -1.5767
  294MOL0     H39679   5.135   2.228   0.417 -1.2933  0.1730  0.0837
  294MOL0     H39680   5.092   2.292   0.711 -0.6262  0.3559 -0.6864
  294MOL0     H39681   5.140   2.406   0.583 -0.4298 -0.7914 -0.4535
  294MOL0     H39682   5.308   2.173   0.663 -1.9495  0.2173  0.8525
  294MOL0     H39683   5.317   2.334   0.740 -1.9919  1.4182 -0.2817
  294MOL0     H39684   5.348   2.304   0.442 -2.8377  0.1591  0.0009
  294MOL0     H39685   5.358   2.450   0.522  1.7796  0.2009 -2.7743
  294MOL0     H39686   5.754   2.361   0.598 -0.1449  0.4563 -2.6255
  294MOL0     H39687   4.844   1.983   0.545 -1.2190 -0.5009 -1.1279
  294MOL0     H39688   4.703   1.685   0.363 -0.0705 -0.4389 -0.4756
  294MOL0     H39689   4.713   1.766   0.517  2.0575  0.4427 -0.3162
  294MOL0     H39690   4.649   1.862   0.379  2.3629  2.6185  1.3083
  295MOL0     O39691   5.954   1.569   7.574 -0.8158 -0.3145  0.1052
  295MOL0     C39692   5.888   1.632   7.498  0.6919 -0.2244 -1.1333
  295MOL0     O39693   5.931   1.722   7.411  0.2797 -0.3203  0.0211
  295MOL0     C39694   6.058   1.775   7.403 -1.0003  0.1121 -0.9672
  295MOL0     C39695   6.110   1.806   7.268 -0.1550  0.1969  0.0784
  295MOL0     C39696   6.241   1.846   7.245  0.3689  0.9059 -0.5859
  295MOL0     C39697   6.330   1.858   7.353 -0.0143 -0.7749  1.0339
  295MOL0     O39698   6.454   1.917   7.333 -1.0204  0.1743  0.4011
  295MOL0     C39699   6.565   1.885   7.430  0.3000  0.1031 -0.4731
  295MOL0     C39700   6.702   1.914   7.363 -0.2259  0.1081  0.4755
  295MOL0     C39701   6.708   1.864   7.218  0.3431 -0.6417  0.7173
  295MOL0     C39702   6.845   1.896   7.153  0.6977 -0.1601  1.1093
  295MOL0     C39703   6.860   1.839   7.013 -0.4989 -0.2487 -0.7808
  295MOL0     C39704   6.911   1.694   7.017  1.0447  0.0654  0.3422
  295MOL0     C39705   6.905   1.643   6.868 -0.9956 -0.5047 -0.8661
  295MOL0     C39706   7.038   1.688   6.796 -0.0790 -0.1440 -1.0522
  295MOL0     N39707   7.165   1.642   6.860  0.8066  0.3365 -0.3247
  295MOL0     C39708   7.252   1.550   6.800  0.3843 -0.3363 -0.4416
  295MOL0     C39709   7.365   1.559   6.876 -0.4739  0.1039 -0.1861
  295MOL0     C39710   7.484   1.470   6.847  0.5922 -1.2620 -0.8108
  295MOL0     C39711   7.461   1.320   6.864 -0.0818 -0.9640  1.5367
  295MOL0     C39712   7.449   1.276   7.009 -0.3788 -0.2230 -0.9074
  295MOL0     C39713   7.575   1.310   7.089 -0.1292  0.0114  0.0252
  295MOL0     O39714   7.693   1.265   7.023  0.1069 -0.7594 -0.3310
  295MOL0     C39715   7.821   1.321   7.032 -0.6110  0.4010 -0.4636
  295MOL0     C39716   7.844   1.450   7.084 -0.7166  0.1420 -1.1531
  295MOL0     C39717   7.976   1.509   7.087 -0.0932 -0.7574  0.1655
  295MOL0     C39718   8.081   1.438   7.047 -0.4017 -0.5996 -1.1351
  295MOL0     C39719   8.217   1.502   7.048 -0.3846 -0.9757 -0.6008
  295MOL0     O39720   8.243   1.616   7.107  1.1791  0.6482 -0.3339
  295MOL0     C39721   8.378   1.646   7.121 -0.5336  0.5061  1.1761
  295MOL0     C39722   8.433   1.613   7.252 -0.6567 -0.2960  0.4355
  295MOL0     C39723   8.572   1.629   7.260  0.6972 -0.4570 -0.8733
  295MOL0     C39724   8.656   1.683   7.151  0.2238 -0.0334  0.2226
  295MOL0     O39725   8.786   1.701   7.170  0.4668  1.0381 -0.0372
  295MOL0     C39726   8.862   1.810   7.134 -0.2242 -0.4007  0.7160
  295MOL0     C39727   8.821   1.939   7.212 -0.3013 -0.3057 -0.3573
  295MOL0     C39728   8.889   1.949   7.351 -0.1727 -0.5798  0.0928
  295MOL0     C39729   8.853   2.091   7.406 -0.0257  0.6216 -0.2383
  295MOL0     C39730   8.890   2.097   7.557  0.3286 -0.8415  0.1224
  295MOL0     C39731   9.048   2.106   7.586  2.0950 -0.2996 -1.1209
  295MOL0     C39732   9.085   2.108   7.733 -0.2862 -0.3360  1.1640
  295MOL0     C39733   9.022   2.215   7.812 -0.5115  0.4895  0.1049
  295MOL0    Cl39734   9.046   2.384   7.743  0.1467 -0.1838 -0.1824
  295MOL0     C39735   8.589   1.722   7.035  0.8100 -0.0616 -0.3482
  295MOL0     C39736   8.457   1.705   7.016 -0.8663 -0.7455  0.0611
  295MOL0     O39737   8.311   1.422   7.004  0.9919 -0.3285  0.0032
  295MOL0     C39738   8.060   1.313   6.998 -0.4530  0.2411  0.8908
  295MOL0     C39739   7.931   1.252   6.992 -0.2825  0.2662 -0.3046
  295MOL0     N39740   7.348   1.659   6.971 -0.0962 -0.8799 -0.7624
  295MOL0     N39741   7.229   1.706   6.964  0.1033  0.4066 -0.0379
  295MOL0     C39742   6.268   1.846   7.481 -0.4260  0.1827  0.9997
  295MOL0     C39743   6.140   1.808   7.508  1.3766  1.1773 -0.3029
  295MOL0     C39744   5.743   1.613   7.503  0.7586  0.4142  0.5324
  295MOL0     C39745   5.704   1.474   7.497 -0.2377  0.7024  0.6057
  295MOL0     C39746   5.570   1.441   7.500  0.6228  0.0554  0.3230
  295MOL0     C39747   5.471   1.545   7.513 -0.4498  0.6667 -1.1937
  295MOL0     O39748   5.338   1.524   7.529  0.1619 -0.0195 -0.1400
  295MOL0     C39749   5.282   1.392   7.519  0.6830 -0.0499  0.4708
  295MOL0     C39750   5.131   1.389   7.561  0.4925 -0.1506  0.3881
  295MOL0     C39751   5.096   1.419   7.703 -0.5390 -0.3253 -0.2120
  295MOL0     C39752   4.949   1.382   7.721  0.0902 -0.5126  0.2257
  295MOL0     C39753   4.907   1.431   7.854  1.6722  0.1325 -0.2362
  295MOL0     C39754   4.894   1.470   7.965 -0.1927  0.5440  0.4156
  295MOL0     C39755   5.507   1.676   7.509  0.9525  0.7630 -0.8599
  295MOL0     C39756   5.639   1.717   7.506 -0.4560 -0.0905 -0.2513
  295MOL0     C39757   5.662   1.870   7.518  0.5429 -0.5419  0.3868
  295MOL0     H39758   6.047   1.775   7.185  1.4593  1.2749 -1.6188
  295MOL0     H39759   6.265   1.864   7.141 -0.6379  0.3676 -0.9355
  295MOL0     H39760   6.552   1.946   7.520 -1.5022 -1.9671  0.7659
  295MOL0     H39761   6.575   1.783   7.467  1.4865  0.0890 -0.7964
  295MOL0     H39762   6.784   1.864   7.416 -0.5227 -2.1052 -1.0602
  295MOL0     H39763   6.719   2.022   7.368 -0.2600  0.1526 -0.3320
  295MOL0     H39764   6.630   1.921   7.167  0.3680 -1.3034 -0.0715
  295MOL0     H39765   6.681   1.758   7.222  1.9796 -1.3697 -3.3427
  295MOL0     H39766   6.852   2.004   7.137 -0.4049 -0.4455 -1.8520
  295MOL0     H39767   6.925   1.868   7.222 -1.4298  0.3443  4.0121
  295MOL0     H39768   6.762   1.861   6.970 -0.2929  2.6222  0.0053
  295MOL0     H39769   6.938   1.904   6.970  2.1012 -0.6601  2.7864
  295MOL0     H39770   7.009   1.675   7.062  0.4276 -0.5188  1.5077
  295MOL0     H39771   6.835   1.645   7.079 -1.2438  2.3752 -0.4737
  295MOL0     H39772   6.817   1.686   6.820 -1.8683 -1.1435  0.0918
  295MOL0     H39773   6.894   1.534   6.861  2.2012 -1.0200  0.5296
  295MOL0     H39774   7.022   1.637   6.700 -3.5960  0.7596 -1.1106
  295MOL0     H39775   7.038   1.796   6.782  2.3140 -0.1460 -1.3859
  295MOL0     H39776   7.239   1.484   6.715  2.0775  0.4207 -1.3436
  295MOL0     H39777   7.508   1.498   6.744 -1.3147  1.0350 -0.7290
  295MOL0     H39778   7.561   1.500   6.920 -2.3824 -2.9759  3.4666
  295MOL0     H39779   7.373   1.283   6.811  1.1957 -3.9652  1.2810
  295MOL0     H39780   7.532   1.256   6.810  0.9781  0.9521  0.5444
  295MOL0     H39781   7.437   1.167   7.009 -1.0636 -0.1515 -0.2730
  295MOL0     H39782   7.363   1.319   7.060 -1.8033 -0.9301 -2.6013
  295MOL0     H39783   7.573   1.258   7.185 -3.3697 -3.9669 -1.8650
  295MOL0     H39784   7.578   1.417   7.108  0.1672 -0.3116  1.9933
  295MOL0     H39785   7.760   1.503   7.129  1.0347  1.8713  0.2641
  295MOL0     H39786   7.992   1.609   7.125  3.8554 -0.9188 -0.6857
  295MOL0     H39787   8.386   1.539   7.316  0.9689 -1.5600  0.2391
  295MOL0     H39788   8.626   1.591   7.347  1.5719  0.7017 -0.8843
  295MOL0     H39789   8.968   1.784   7.144 -0.6711 -3.6764 -1.4551
  295MOL0     H39790   8.854   1.829   7.026 -1.6843 -2.9503  0.3065
  295MOL0     H39791   8.817   2.033   7.155  0.0740  0.8352  1.3902
  295MOL0     H39792   8.713   1.934   7.232 -0.0877 -1.0621  0.6634
  295MOL0     H39793   8.844   1.871   7.414 -1.3968 -2.3772 -2.8108
  295MOL0     H39794   8.997   1.933   7.346  0.4625  1.1631  4.3052
  295MOL0     H39795   8.746   2.104   7.392 -0.2928  1.2313  1.9743
  295MOL0     H39796   8.909   2.162   7.344  0.9521 -0.4308 -0.5980
  295MOL0     H39797   8.842   2.015   7.610  1.7809 -0.5607  1.9944
  295MOL0     H39798   8.843   2.187   7.598 -2.5071 -2.0250 -0.2854
  295MOL0     H39799   9.076   2.013   7.535 -3.4091 -1.7834 -2.1081
  295MOL0     H39800   9.080   2.194   7.531 -0.9337  1.6880  0.0208
  295MOL0     H39801   9.192   2.123   7.746 -0.4797  3.4279 -0.3819
  295MOL0     H39802   9.054   2.010   7.772  2.4184 -2.3139 -1.2027
  295MOL0     H39803   8.916   2.189   7.818 -0.0546 -1.9842 -1.0779
  295MOL0     H39804   9.064   2.221   7.913 -0.9534  2.3916  0.2061
  295MOL0     H39805   8.645   1.767   6.953 -2.3520 -0.1063 -2.7045
  295MOL0     H39806   8.422   1.720   6.914  0.8546  1.5560 -0.2813
  295MOL0     H39807   8.142   1.247   6.973 -0.6472 -2.0196  5.2296
  295MOL0     H39808   7.918   1.149   6.960 -2.6628  0.1514  0.7797
  295MOL0     H39809   6.333   1.879   7.562 -1.0589  1.9335  0.8150
  295MOL0     H39810   6.105   1.800   7.610 -0.0728 -2.2577 -0.9327
  295MOL0     H39811   5.789   1.406   7.503 -0.0957  0.9603  1.8072
  295MOL0     H39812   5.538   1.338   7.486  0.1794  0.4074 -1.4892
  295MOL0     H39813   5.351   1.332   7.579  3.5319  3.4118  1.0286
  295MOL0     H39814   5.298   1.344   7.422  1.3545 -1.0265  1.0422
  295MOL0     H39815   5.104   1.284   7.544  1.5533 -0.2308 -0.9403
  295MOL0     H39816   5.077   1.451   7.489  1.2684 -1.2023 -1.1579
  295MOL0     H39817   5.135   1.516   7.735  0.2486 -1.2223  1.7547
  295MOL0     H39818   5.152   1.363   7.779 -1.2068  1.9523  2.0910
  295MOL0     H39819   4.887   1.426   7.642 -0.2265 -1.0361  0.1789
  295MOL0     H39820   4.924   1.276   7.717 -2.0311 -0.2247  2.7263
  295MOL0     H39821   4.888   1.486   8.071  0.6345 -3.8268  1.3037
  295MOL0     H39822   5.431   1.752   7.523  1.7119  1.4259 -0.2242
  295MOL0     H39823   5.574   1.918   7.475  0.1558 -2.1194 -0.6839
  295MOL0     H39824   5.686   1.906   7.619  1.6913  3.5005 -1.1257
  295MOL0     H39825   5.757   1.897   7.472  1.7953 -1.3459  2.3375
  296MOL0     O39826  10.892   8.059   1.306  0.1752 -0.9573 -0.3051
  296MOL0     C39827  10.854   8.025   1.414  0.4643 -0.6580 -0.2329
  296MOL0     O39828  10.931   7.989   1.524 -0.1621  0.5150 -0.3500
  296MOL0     C39829  11.070   7.969   1.511  0.0975 -0.1612 -0.2317
  296MOL0     C39830  11.161   8.033   1.603  0.4491  1.1401  0.6407
  296MOL0     C39831  11.297   8.026   1.586  0.2460  0.8651  0.0679
  296MOL0     C39832  11.350   7.970   1.468 -0.6286 -0.1911 -0.0480
  296MOL0     O39833  11.490   7.976   1.441 -0.2024 -0.1457  0.6391
  296MOL0     C39834  11.560   7.936   1.560  0.2066 -0.1049 -0.7657
  296MOL0     C39835  11.691   7.871   1.530 -0.1062 -0.5632 -0.7570
  296MOL0     C39836  11.784   7.859   1.652 -0.3612  0.4099 -1.0555
  296MOL0     C39837  11.846   7.993   1.688  0.8716 -0.1551  0.6746
  296MOL0     C39838  11.891   7.983   1.836  1.0150 -0.1774  0.2482
  296MOL0     C39839  11.996   7.874   1.850 -0.3029  0.4771 -0.4716
  296MOL0     C39840  12.107   7.909   1.953  0.9172 -0.6077  0.1859
  296MOL0     C39841  12.237   7.827   1.922  0.5126  0.5098 -0.2720
  296MOL0     N39842  12.354   7.879   2.000  0.3348 -0.8724  0.9886
  296MOL0     C39843  12.385   7.863   2.133  0.5205  0.3011  0.6727
  296MOL0     C39844  12.504   7.912   2.154 -1.1638 -0.4732 -0.8474
  296MOL0     C39845  12.576   7.914   2.280  0.4700  0.5834  0.1646
  296MOL0     C39846  12.699   7.816   2.288 -0.3122 -0.4776  0.7296
  296MOL0     C39847  12.768   7.816   2.426 -0.3616 -0.8720  0.2943
  296MOL0     C39848  12.673   7.843   2.546 -0.1646 -0.1118  0.3971
  296MOL0     O39849  12.591   7.725   2.551 -0.2354 -0.2705 -0.3857
  296MOL0     C39850  12.458   7.734   2.562  0.2225  0.3431 -0.8876
  296MOL0     C39851  12.372   7.650   2.490 -0.0253 -0.4091  0.6100
  296MOL0     C39852  12.229   7.654   2.506 -0.5667  0.6114 -0.0957
  296MOL0     C39853  12.177   7.755   2.589 -0.1547  0.0427 -1.2478
  296MOL0     C39854  12.029   7.761   2.592 -0.0606  0.8344  0.0175
  296MOL0     O39855  11.973   7.718   2.707 -0.0852 -0.2098  0.0661
  296MOL0     C39856  11.837   7.715   2.722 -1.0437 -0.5599 -0.5148
  296MOL0     C39857  11.731   7.686   2.634 -0.7928 -0.4720 -0.1837
  296MOL0     C39858  11.597   7.699   2.670  0.1387  0.2959 -0.2917
  296MOL0     C39859  11.561   7.746   2.798 -0.2011  0.8525 -0.7898
  296MOL0     O39860  11.424   7.752   2.831 -0.3024  0.3243 -0.2954
  296MOL0     C39861  11.391   7.652   2.932 -0.5708  1.0310  0.1952
  296MOL0     C39862  11.240   7.628   2.939 -0.6534 -0.3280 -1.2358
  296MOL0     C39863  11.162   7.762   2.933 -0.2512  0.4531  0.0019
  296MOL0     C39864  11.023   7.760   2.992  0.8594 -0.6296 -0.3433
  296MOL0     C39865  10.957   7.902   2.995 -0.5638 -0.3949 -0.1119
  296MOL0     C39866  10.934   7.971   2.863  0.2343 -0.2019 -0.0257
  296MOL0     C39867  10.819   8.062   2.887  1.0749  0.2753 -0.9626
  296MOL0     C39868  10.802   8.150   2.764 -0.5965  1.1299  0.3687
  296MOL0    Cl39869  10.762   8.056   2.612 -0.2341 -0.3528  0.0890
  296MOL0     C39870  11.665   7.780   2.891 -0.4891  0.1285  0.8446
  296MOL0     C39871  11.797   7.761   2.844 -0.2344 -0.5795 -0.6406
  296MOL0     O39872  11.973   7.814   2.492  0.3105 -0.8158 -1.1007
  296MOL0     C39873  12.259   7.839   2.665 -0.5619 -0.4391  0.6280
  296MOL0     C39874  12.397   7.827   2.655 -0.8477  0.3323  0.1350
  296MOL0     N39875  12.563   7.951   2.034 -0.1467  0.1924 -0.0597
  296MOL0     N39876  12.469   7.939   1.950  0.4166 -0.2317 -0.7089
  296MOL0     C39877  11.262   7.905   1.384 -0.0588 -0.9935 -0.1074
  296MOL0     C39878  11.122   7.910   1.405  0.5828  0.6155 -0.0472
  296MOL0     C39879  10.704   7.993   1.425 -0.1256 -0.0767 -0.2328
  296MOL0     C39880  10.659   7.918   1.539  0.9838  0.7219 -0.4993
  296MOL0     C39881  10.524   7.877   1.565 -0.8210  0.6259 -0.2361
  296MOL0     C39882  10.432   7.890   1.459 -0.4604  0.7683 -0.4435
  296MOL0     O39883  10.301   7.835   1.471 -0.1850 -0.3252 -0.0620
  296MOL0     C39884  10.252   7.797   1.605 -0.1877  0.1537  0.3297
  296MOL0     C39885  10.105   7.746   1.597 -0.1308 -0.4093 -0.1801
  296MOL0     C39886  10.064   7.673   1.725  0.6784  0.0463 -0.9926
  296MOL0     C39887   9.924   7.628   1.723 -0.3622 -0.4133  1.2622
  296MOL0     C39888   9.820   7.732   1.723 -0.0677 -1.2202  0.6262
  296MOL0     C39889   9.729   7.814   1.732 -0.9042  0.5953 -0.1142
  296MOL0     C39890  10.483   7.944   1.341  0.6553 -0.0322  0.0715
  296MOL0     C39891  10.601   8.015   1.333 -0.3355 -0.6663  0.0010
  296MOL0     C39892  10.601   8.110   1.216  0.2766 -0.6165  0.1388
  296MOL0     H39893  11.120   8.073   1.696 -1.1985  0.2795  0.3201
  296MOL0     H39894  11.359   8.060   1.668 -0.7424 -2.2135  2.2954
  296MOL0     H39895  11.573   8.023   1.625  0.6235 -1.9862  1.8329
  296MOL0     H39896  11.507   7.859   1.618  0.7571 -0.8298 -1.2060
  296MOL0     H39897  11.743   7.931   1.455  0.0459  1.4083  0.8288
  296MOL0     H39898  11.684   7.767   1.497  1.3000 -2.0521  3.1128
  296MOL0     H39899  11.857   7.778   1.642  0.4399  1.1883 -1.5143
  296MOL0     H39900  11.722   7.825   1.736  1.0857 -0.2171 -0.1923
  296MOL0     H39901  11.927   8.016   1.618  0.1417  2.3270  0.5361
  296MOL0     H39902  11.773   8.073   1.671 -1.8143 -2.4242  0.7922
  296MOL0     H39903  11.936   8.081   1.854  1.4719 -0.5658  1.2660
  296MOL0     H39904  11.806   7.968   1.903 -0.7622 -0.8742 -2.0316
  296MOL0     H39905  11.960   7.776   1.885  0.6015  0.2074 -0.2737
  296MOL0     H39906  12.021   7.858   1.744 -3.7479  1.4226 -1.5864
  296MOL0     H39907  12.068   7.887   2.053 -0.2675 -1.5308 -0.4644
  296MOL0     H39908  12.138   8.014   1.945 -1.3665  0.2082  1.1591
  296MOL0     H39909  12.212   7.723   1.945 -2.6309  1.0371 -0.9070
  296MOL0     H39910  12.265   7.830   1.816 -0.6369 -2.9810 -0.7751
  296MOL0     H39911  12.327   7.813   2.209 -0.0758  2.3732  1.6668
  296MOL0     H39912  12.619   8.013   2.298  0.7757  0.4452  0.2113
  296MOL0     H39913  12.507   7.881   2.358  2.7530 -2.4547  1.1197
  296MOL0     H39914  12.662   7.713   2.280  2.0955 -1.2653 -2.1736
  296MOL0     H39915  12.764   7.821   2.200  0.3546 -1.4126  1.1549
  296MOL0     H39916  12.838   7.900   2.435 -1.8932  0.4080  0.7380
  296MOL0     H39917  12.816   7.718   2.432  1.0937 -0.5844 -3.5149
  296MOL0     H39918  12.606   7.930   2.536 -0.2788 -0.3469 -1.2524
  296MOL0     H39919  12.719   7.840   2.645 -1.0889 -5.8096  1.0118
  296MOL0     H39920  12.422   7.577   2.427  0.9975  2.7762 -2.6082
  296MOL0     H39921  12.177   7.575   2.453 -0.4692  0.7001 -0.3260
  296MOL0     H39922  11.750   7.662   2.530 -1.6870  0.5016 -0.6001
  296MOL0     H39923  11.513   7.688   2.602  0.7228  1.9699 -1.3205
  296MOL0     H39924  11.438   7.555   2.915 -2.3254  0.1433  0.0913
  296MOL0     H39925  11.425   7.695   3.027 -3.9656  5.5614 -0.2518
  296MOL0     H39926  11.205   7.567   2.855 -4.9159 -0.4942  0.3742
  296MOL0     H39927  11.196   7.576   3.024 -3.0327  0.6091 -1.7885
  296MOL0     H39928  11.228   7.825   2.993  3.1465 -3.5410  0.9132
  296MOL0     H39929  11.176   7.795   2.830  0.6061 -1.6729 -0.6127
  296MOL0     H39930  11.011   7.721   3.093 -0.5734 -1.1685 -0.6955
  296MOL0     H39931  10.963   7.698   2.925  1.5389 -0.6855 -0.9095
  296MOL0     H39932  11.010   7.979   3.052  1.8422 -2.2947  0.3783
  296MOL0     H39933  10.863   7.885   3.048 -1.7474 -0.2962 -2.0681
  296MOL0     H39934  11.024   8.028   2.837 -0.9681  2.1031  0.5180
  296MOL0     H39935  10.896   7.913   2.779 -1.3309  1.5390 -0.5949
  296MOL0     H39936  10.829   8.121   2.978  3.2252 -1.7321  0.2071
  296MOL0     H39937  10.736   7.993   2.907  1.8134  0.0917  1.8495
  296MOL0     H39938  10.711   8.209   2.782 -2.1266 -1.4590  1.8319
  296MOL0     H39939  10.887   8.218   2.754  1.2937 -1.1994 -0.0919
  296MOL0     H39940  11.647   7.833   2.984  1.3804  1.0724  0.6949
  296MOL0     H39941  11.883   7.796   2.901 -1.2481  0.6455  0.1896
  296MOL0     H39942  12.206   7.907   2.731 -1.0361 -0.4442  0.2554
  296MOL0     H39943  12.456   7.890   2.720  0.2356  0.1470 -0.6345
  296MOL0     H39944  11.291   7.855   1.293 -1.6224  0.1004 -1.2555
  296MOL0     H39945  11.067   7.857   1.328 -0.8349  0.0651  1.2975
  296MOL0     H39946  10.732   7.874   1.606  3.9418  2.0203 -2.6477
  296MOL0     H39947  10.512   7.824   1.658  0.1206  3.8269  1.8904
  296MOL0     H39948  10.262   7.875   1.681  2.4777 -2.0012  2.4088
  296MOL0     H39949  10.319   7.715   1.635  0.1151  0.1074 -0.4335
  296MOL0     H39950  10.096   7.667   1.522 -1.8103 -1.5388  1.1469
  296MOL0     H39951  10.039   7.832   1.578  1.9763  1.5065  0.7696
  296MOL0     H39952  10.088   7.727   1.818  0.7467 -0.5540 -0.6587
  296MOL0     H39953  10.127   7.584   1.736  0.2880  0.0564  2.1209
  296MOL0     H39954   9.913   7.569   1.632  0.1803  0.8294  0.3508
  296MOL0     H39955   9.910   7.558   1.806  2.4387 -1.3628  1.0262
  296MOL0     H39956   9.651   7.888   1.735  0.4598  2.1515 -1.5449
  296MOL0     H39957  10.405   7.958   1.266 -1.4540 -0.7208  2.0199
  296MOL0     H39958  10.499   8.144   1.195  1.4713  1.4696 -3.1178
  296MOL0     H39959  10.659   8.200   1.240  0.5772 -0.8023  0.1181
  296MOL0     H39960  10.648   8.049   1.139  1.2996  1.0798 -0.6404
  297MOL0     O39961  11.084   9.371   1.316  0.3983 -0.6969 -0.0366
  297MOL0     C39962  11.200   9.362   1.293  0.3989 -0.1773  0.9153
  297MOL0     O39963  11.257   9.340   1.173  0.0091  0.2356  0.9124
  297MOL0     C39964  11.185   9.285   1.069 -0.7188  0.0620 -0.1553
  297MOL0     C39965  11.056   9.323   1.032 -0.7453 -0.4930 -0.3669
  297MOL0     C39966  10.991   9.260   0.923 -0.2034 -0.6154 -1.2673
  297MOL0     C39967  11.062   9.170   0.841 -0.0030 -0.7477  0.0662
  297MOL0     O39968  10.992   9.130   0.731 -0.1757  0.8316  0.3388
  297MOL0     C39969  11.041   9.025   0.655 -0.8796  0.0373 -0.1140
  297MOL0     C39970  10.921   8.975   0.575  0.0200 -0.4299  0.1694
  297MOL0     C39971  10.776   8.962   0.643  0.0036 -0.3819 -0.7340
  297MOL0     C39972  10.676   8.907   0.541  0.2781 -0.3599  0.9736
  297MOL0     C39973  10.541   8.912   0.604 -0.3012 -0.2055  0.4351
  297MOL0     C39974  10.448   8.835   0.513  0.1582 -0.4345 -0.1941
  297MOL0     C39975  10.302   8.856   0.559  0.3617 -0.6656  0.3954
  297MOL0     C39976  10.198   8.808   0.453 -0.8339 -0.1598 -0.3203
  297MOL0     N39977  10.232   8.693   0.368 -0.2829 -1.0055  0.0171
  297MOL0     C39978  10.290   8.701   0.245  0.7347  0.0893 -0.7946
  297MOL0     C39979  10.303   8.569   0.214 -0.2424 -0.1892  0.0815
  297MOL0     C39980  10.367   8.517   0.094  0.8067  0.0864  0.3035
  297MOL0     C39981  10.512   8.556   0.080  0.4045  0.2363  0.5173
  297MOL0     C39982  10.582   8.470  -0.032  0.9723 -0.3508  0.3758
  297MOL0     C39983  10.714   8.538  -0.070 -0.4246  0.3003  0.0157
  297MOL0     O39984  10.782   8.462  -0.172  0.1325  0.9871 -0.1726
  297MOL0     C39985  10.916   8.486  -0.198  0.6409  0.6457  0.2835
  297MOL0     C39986  11.006   8.379  -0.233  0.4379  0.5448  0.7600
  297MOL0     C39987  11.142   8.401  -0.249 -0.4070  0.1485 -0.4144
  297MOL0     C39988  11.201   8.524  -0.235  0.2082 -0.7770 -0.5287
  297MOL0     C39989  11.342   8.552  -0.269  0.3240 -0.6553 -0.2281
  297MOL0     O39990  11.385   8.684  -0.253 -0.4445  0.8298 -0.0410
  297MOL0     C39991  11.520   8.706  -0.287 -0.9417  0.3049  0.0607
  297MOL0     C39992  11.613   8.663  -0.202 -1.2721  0.2861  0.3018
  297MOL0     C39993  11.751   8.698  -0.222  0.4065  0.8324  0.8635
  297MOL0     C39994  11.790   8.754  -0.338  0.2446 -0.4284  0.6109
  297MOL0     O39995  11.924   8.775  -0.370 -0.0070 -0.2706  0.4597
  297MOL0     C39996  12.011   8.858  -0.289 -0.8826 -0.5794  0.1536
  297MOL0     C39997  12.147   8.869  -0.358 -0.9214 -0.8274 -0.3292
  297MOL0     C39998  12.133   8.958  -0.486  0.3918  0.3423 -0.8977
  297MOL0     C39999  12.259   8.947  -0.573  0.6101  0.6821 -0.5463
  297MOL0     C40000  12.348   9.072  -0.561 -1.0968 -0.2660  0.6032
  297MOL0     C40001  12.285   9.191  -0.607  0.7650 -0.6773 -0.5723
  297MOL0     C40002  12.393   9.303  -0.653  0.5765  0.5150  0.7454
  297MOL0     C40003  12.331   9.415  -0.739 -0.6105  0.0935 -0.3596
  297MOL0    Cl40004  12.317   9.345  -0.898  0.1251  0.2478 -0.3266
  297MOL0     C40005  11.700   8.808  -0.434 -0.0722 -0.3222  0.1358
  297MOL0     C40006  11.562   8.784  -0.407  0.4491  0.3956 -0.6448
  297MOL0     O40007  11.415   8.457  -0.282  0.1978 -0.2157 -0.0434
  297MOL0     C40008  11.114   8.627  -0.203  0.1296 -0.0226 -0.1585
  297MOL0     C40009  10.976   8.608  -0.189  0.8488 -0.5123 -0.2801
  297MOL0     N40010  10.236   8.485   0.309 -0.4492  0.2852 -0.8084
  297MOL0     N40011  10.205   8.564   0.397  0.0956 -0.2364  0.2431
  297MOL0     C40012  11.194   9.147   0.862  0.0380 -0.7224  0.1511
  297MOL0     C40013  11.252   9.194   0.980  0.6613 -0.5055 -0.7933
  297MOL0     C40014  11.290   9.396   1.410 -1.0540 -0.1875 -0.0054
  297MOL0     C40015  11.430   9.410   1.393  1.3444  0.0220 -0.9842
  297MOL0     C40016  11.520   9.431   1.492  0.0470  1.2745 -1.0202
  297MOL0     C40017  11.474   9.424   1.627  0.2775 -0.4358 -0.0767
  297MOL0     O40018  11.563   9.434   1.734  0.5688 -0.2811  0.0181
  297MOL0     C40019  11.686   9.362   1.719 -0.5367 -0.5010 -0.1611
  297MOL0     C40020  11.800   9.459   1.762 -0.0150  0.4975  0.4772
  297MOL0     C40021  11.933   9.382   1.784  0.3931 -1.0814 -0.8328
  297MOL0     C40022  12.040   9.495   1.829 -0.0164  0.3965  0.4934
  297MOL0     C40023  12.164   9.436   1.880 -0.6903  0.5887  0.6186
  297MOL0     C40024  12.265   9.398   1.925 -0.4241  0.0946  1.0932
  297MOL0     C40025  11.337   9.422   1.648  0.4254 -0.3548  0.3673
  297MOL0     C40026  11.244   9.413   1.540 -0.0136  0.0784 -0.4209
  297MOL0     C40027  11.103   9.425   1.576  0.5665  0.2383 -0.2645
  297MOL0     H40028  11.001   9.395   1.091 -1.5577 -0.6005 -0.9671
  297MOL0     H40029  10.888   9.288   0.904 -0.9825 -1.6272  1.0230
  297MOL0     H40030  11.116   9.070   0.589  0.5785 -0.8115  0.9168
  297MOL0     H40031  11.084   8.952   0.724  1.4523  2.4557  1.2154
  297MOL0     H40032  10.948   8.880   0.526 -3.1229 -1.4486  0.1267
  297MOL0     H40033  10.922   9.036   0.484 -0.8436  0.4998  0.7571
  297MOL0     H40034  10.729   9.056   0.675 -0.8516 -0.6914 -1.0593
  297MOL0     H40035  10.774   8.895   0.729 -0.3753  2.1662  1.3800
  297MOL0     H40036  10.677   8.974   0.455  0.9907  0.5632  1.6811
  297MOL0     H40037  10.703   8.806   0.508  2.5000  0.4517  0.1421
  297MOL0     H40038  10.543   8.864   0.702  0.3779 -2.2332 -0.5286
  297MOL0     H40039  10.507   9.016   0.602 -0.6244 -0.3072  0.7928
  297MOL0     H40040  10.452   8.852   0.405 -0.6508 -0.5565 -0.2452
  297MOL0     H40041  10.489   8.733   0.515 -0.9539 -0.8858 -0.0321
  297MOL0     H40042  10.278   8.963   0.562 -1.3285 -0.9956 -0.5729
  297MOL0     H40043  10.288   8.815   0.660 -4.1102 -0.2403  0.1544
  297MOL0     H40044  10.107   8.785   0.509 -0.3078 -1.7954 -0.0759
  297MOL0     H40045  10.186   8.897   0.390 -3.4338 -0.8570 -0.9259
  297MOL0     H40046  10.316   8.792   0.191  0.7179  0.0510 -0.8665
  297MOL0     H40047  10.352   8.408   0.093 -3.9263  0.4876  1.5513
  297MOL0     H40048  10.320   8.556   0.004  2.6574  0.4640 -0.5395
  297MOL0     H40049  10.508   8.663   0.057 -0.6784 -0.0288 -0.6398
  297MOL0     H40050  10.564   8.545   0.175  1.3119 -1.0964 -0.1090
  297MOL0     H40051  10.522   8.468  -0.123  0.9592  0.0227  0.3741
  297MOL0     H40052  10.583   8.370   0.011 -4.2787 -0.4855  0.8506
  297MOL0     H40053  10.775   8.550   0.020 -0.3302  1.2823 -0.1707
  297MOL0     H40054  10.704   8.637  -0.115  1.8525 -0.0464 -1.3687
  297MOL0     H40055  10.963   8.291  -0.278  0.9436  0.6887 -0.0359
  297MOL0     H40056  11.197   8.317  -0.289 -0.9818  0.0793 -1.0641
  297MOL0     H40057  11.589   8.610  -0.110 -0.9512  1.4870  1.1124
  297MOL0     H40058  11.823   8.655  -0.153  1.4225 -1.8741 -1.6797
  297MOL0     H40059  11.966   8.956  -0.270  0.2141  0.0518 -0.4297
  297MOL0     H40060  12.032   8.807  -0.195 -1.1160 -0.6778  0.1518
  297MOL0     H40061  12.218   8.913  -0.288  1.6908 -1.3780 -2.4601
  297MOL0     H40062  12.192   8.772  -0.384  0.3744 -0.2910 -0.1769
  297MOL0     H40063  12.054   8.918  -0.550  0.9753 -1.1971 -0.6896
  297MOL0     H40064  12.101   9.058  -0.455  0.4170 -0.0388  0.3895
  297MOL0     H40065  12.236   8.927  -0.678  0.2369 -2.0551 -0.0176
  297MOL0     H40066  12.319   8.861  -0.540  1.0437 -0.1965 -3.3526
  297MOL0     H40067  12.431   9.058  -0.631  1.2628  2.1896  2.6811
  297MOL0     H40068  12.384   9.086  -0.459  0.4006  0.9457 -0.0577
  297MOL0     H40069  12.199   9.187  -0.674  0.1618  0.8162  0.0727
  297MOL0     H40070  12.242   9.231  -0.515  3.7739  0.1131  0.6290
  297MOL0     H40071  12.480   9.260  -0.703  0.9982  1.7621  0.3751
  297MOL0     H40072  12.421   9.349  -0.558 -2.9785  0.9400  1.7443
  297MOL0     H40073  12.235   9.456  -0.705 -0.3138  0.2385  0.3250
  297MOL0     H40074  12.401   9.498  -0.742 -1.8453  1.1570 -0.7445
  297MOL0     H40075  11.731   8.891  -0.497  0.3166  0.5170  1.4055
  297MOL0     H40076  11.488   8.831  -0.472 -0.7832 -2.1331 -1.1855
  297MOL0     H40077  11.152   8.725  -0.176 -0.5302  0.8620 -2.2551
  297MOL0     H40078  10.921   8.698  -0.161  1.4496 -0.2142 -0.0381
  297MOL0     H40079  11.246   9.094   0.782 -2.1448  0.0966 -1.9470
  297MOL0     H40080  11.356   9.171   1.004  0.8205  0.9998  0.0591
  297MOL0     H40081  11.447   9.419   1.286  1.0537 -1.8572 -1.2377
  297MOL0     H40082  11.617   9.474   1.467  1.7937 -2.9110 -2.3652
  297MOL0     H40083  11.693   9.318   1.619 -1.4273 -0.6843 -0.1548
  297MOL0     H40084  11.687   9.277   1.788  0.6071 -0.1017  0.3372
  297MOL0     H40085  11.772   9.518   1.850 -0.5696 -0.9624  1.3026
  297MOL0     H40086  11.807   9.519   1.671 -1.7483  0.2449  0.1412
  297MOL0     H40087  11.967   9.326   1.696 -1.0160  0.0538 -2.1761
  297MOL0     H40088  11.912   9.314   1.867  2.8371 -0.6899  0.1913
  297MOL0     H40089  12.066   9.553   1.740 -0.5152 -2.6314 -1.7814
  297MOL0     H40090  12.000   9.556   1.911 -2.3472 -2.8608  1.9880
  297MOL0     H40091  12.363   9.368   1.954  0.0813 -1.5535 -1.9496
  297MOL0     H40092  11.300   9.436   1.749  0.2693  0.4907  0.2027
  297MOL0     H40093  11.044   9.499   1.520  2.2487  2.7424  1.0675
  297MOL0     H40094  11.052   9.330   1.563  0.0345 -0.1149  3.2247
  297MOL0     H40095  11.080   9.447   1.681  1.0642  0.1183 -0.1293
  298MOL0     O40096   3.460   0.387   5.129 -0.2522 -0.2811  0.0827
  298MOL0     C40097   3.490   0.302   5.217  0.3901 -0.0089 -0.1240
  298MOL0     O40098   3.409   0.257   5.314 -0.0181  0.3537  0.4085
  298MOL0     C40099   3.271   0.281   5.314 -0.7290 -0.1542 -0.1992
  298MOL0     C40100   3.191   0.324   5.209  0.0408 -0.6933  0.4506
  298MOL0     C40101   3.053   0.340   5.230 -0.2213  0.0099 -0.2981
  298MOL0     C40102   2.992   0.321   5.356 -1.3884 -0.6026  0.5947
  298MOL0     O40103   2.857   0.330   5.365 -0.3361  0.2603  0.4307
  298MOL0     C40104   2.788   0.240   5.445 -0.3966 -0.0462  0.0076
  298MOL0     C40105   2.656   0.222   5.385 -0.0951 -0.5506  0.3516
  298MOL0     C40106   2.659   0.148   5.246  0.4745 -0.0765 -0.0357
  298MOL0     C40107   2.522   0.089   5.218  0.3403  0.1307  0.0200
  298MOL0     C40108   2.406   0.190   5.220  0.3232 -0.4324 -0.1550
  298MOL0     C40109   2.278   0.112   5.190  0.9047  0.9325  0.6209
  298MOL0     C40110   2.155   0.210   5.191 -0.4678  0.2564 -0.3750
  298MOL0     C40111   2.109   0.258   5.048  0.3984 -0.2489 -0.8449
  298MOL0     N40112   1.982   0.332   5.050 -0.3525  0.0814  0.2435
  298MOL0     C40113   1.966   0.464   5.023  0.4027  0.8175  0.1663
  298MOL0     C40114   1.836   0.496   5.049 -0.2965 -0.0532  0.6385
  298MOL0     C40115   1.759   0.616   5.015 -0.7981  0.1021 -1.5926
  298MOL0     C40116   1.693   0.614   4.881 -0.3121  0.4789  0.3952
  298MOL0     C40117   1.783   0.589   4.760 -0.2888  0.0161 -0.4541
  298MOL0     C40118   1.883   0.714   4.735  0.7915  0.8061  0.0822
  298MOL0     O40119   2.002   0.703   4.813 -0.0005 -0.0490  0.1403
  298MOL0     C40120   2.110   0.639   4.749  0.3541 -0.3156  0.3337
  298MOL0     C40121   2.110   0.515   4.680  0.0010  0.4484 -0.1622
  298MOL0     C40122   2.225   0.459   4.632  0.0296  0.1886 -0.3173
  298MOL0     C40123   2.350   0.529   4.642 -0.0456  0.2147 -0.2543
  298MOL0     C40124   2.477   0.458   4.601  0.5392 -0.9576  0.3755
  298MOL0     O40125   2.459   0.347   4.531  0.0020 -0.2943 -0.4146
  298MOL0     C40126   2.554   0.266   4.464 -0.3640 -0.0169 -0.0687
  298MOL0     C40127   2.504   0.161   4.389  0.6393  0.5731 -0.7832
  298MOL0     C40128   2.582   0.066   4.333  0.3032 -0.6796 -0.3631
  298MOL0     C40129   2.717   0.058   4.368  0.5209  0.8147 -0.0222
  298MOL0     O40130   2.799  -0.045   4.331  0.0983  0.1378 -0.1101
  298MOL0     C40131   2.837  -0.124   4.444 -0.3273  0.8398  0.7946
  298MOL0     C40132   2.917  -0.238   4.389  0.7291  0.8565  0.2804
  298MOL0     C40133   3.059  -0.196   4.350 -0.9811  0.3936 -0.1198
  298MOL0     C40134   3.148  -0.313   4.335  0.6321  0.3818 -0.8883
  298MOL0     C40135   3.291  -0.273   4.289  0.3794  0.3730  1.4760
  298MOL0     C40136   3.377  -0.209   4.397 -0.6371 -0.1972 -0.6534
  298MOL0     C40137   3.512  -0.179   4.330 -1.3656 -0.5079  1.1140
  298MOL0     C40138   3.632  -0.172   4.429  0.2569 -0.7273  0.2224
  298MOL0    Cl40139   3.790  -0.175   4.328  0.1840 -0.2423 -0.0214
  298MOL0     C40140   2.768   0.158   4.434  0.3346 -0.1753 -1.1833
  298MOL0     C40141   2.694   0.264   4.492  0.6403  0.2019 -0.2881
  298MOL0     O40142   2.580   0.517   4.633  0.1586  0.4447 -0.3584
  298MOL0     C40143   2.348   0.647   4.703 -0.1770 -0.0445  0.0259
  298MOL0     C40144   2.232   0.711   4.758 -0.0105  1.0866  0.5245
  298MOL0     N40145   1.783   0.385   5.099 -0.0557  0.4103  0.4013
  298MOL0     N40146   1.864   0.281   5.104  0.7567  0.1419 -0.4961
  298MOL0     C40147   3.074   0.291   5.467  0.9666 -0.4763 -0.0328
  298MOL0     C40148   3.208   0.267   5.439 -0.4522 -0.0573  0.6827
  298MOL0     C40149   3.613   0.226   5.197 -0.2374 -0.0909 -0.0816
  298MOL0     C40150   3.625   0.102   5.259  0.7528 -0.0064  0.1306
  298MOL0     C40151   3.736   0.021   5.248  0.1908 -0.1976 -0.5586
  298MOL0     C40152   3.848   0.057   5.177  0.6461  0.0175  0.3875
  298MOL0     O40153   3.959  -0.008   5.191 -0.2020 -0.0688  0.2122
  298MOL0     C40154   4.054  -0.033   5.090  0.2924 -0.1564  0.6470
  298MOL0     C40155   4.168   0.065   5.094  0.1806 -0.1943  0.0997
  298MOL0     C40156   4.280   0.032   5.203 -0.7443  0.1970 -0.6443
  298MOL0     C40157   4.388  -0.064   5.146  0.0658  0.1036  0.0654
  298MOL0     C40158   4.470  -0.141   5.237  0.9677 -0.5503  0.3440
  298MOL0     C40159   4.533  -0.194   5.318 -0.1052 -0.2016 -0.2118
  298MOL0     C40160   3.840   0.174   5.098  0.2082  0.1761 -0.1386
  298MOL0     C40161   3.725   0.260   5.112 -1.2570  0.3963  0.6283
  298MOL0     C40162   3.736   0.390   5.040 -0.6212 -0.6273 -0.1521
  298MOL0     H40163   3.236   0.321   5.111  3.2901 -2.5518  1.8575
  298MOL0     H40164   2.991   0.388   5.154 -0.4964  3.1691  1.7500
  298MOL0     H40165   2.844   0.146   5.451  2.8136  1.7582  1.1958
  298MOL0     H40166   2.782   0.290   5.542  0.3042  1.7366 -0.8319
  298MOL0     H40167   2.612   0.322   5.371 -1.7359 -1.5167 -2.1229
  298MOL0     H40168   2.594   0.169   5.458  1.4504  1.6801  3.5177
  298MOL0     H40169   2.741   0.076   5.245 -0.7520 -1.5836 -3.1257
  298MOL0     H40170   2.680   0.226   5.172  1.0320  0.3027  0.5085
  298MOL0     H40171   2.528   0.063   5.112 -0.2332  1.7624 -0.4390
  298MOL0     H40172   2.510  -0.004   5.276 -0.1865 -1.0782 -1.9458
  298MOL0     H40173   2.394   0.251   5.310 -3.9178  0.0666 -0.8902
  298MOL0     H40174   2.435   0.263   5.143  0.7881  2.2457  2.3791
  298MOL0     H40175   2.297   0.063   5.094  2.0017  0.7617  0.9104
  298MOL0     H40176   2.264   0.035   5.267 -0.3859  2.8750  2.4397
  298MOL0     H40177   2.168   0.293   5.261  2.0633 -0.3620 -0.0121
  298MOL0     H40178   2.080   0.136   5.220  2.8575 -2.6833  1.3902
  298MOL0     H40179   2.195   0.318   5.016  0.7311  0.1309  0.6661
  298MOL0     H40180   2.095   0.169   4.986  0.2715 -1.3318  0.6855
  298MOL0     H40181   2.051   0.524   4.991 -0.9888  1.6178 -2.2551
  298MOL0     H40182   1.676   0.616   5.087  0.7422  1.7015  0.3127
  298MOL0     H40183   1.819   0.707   5.028 -2.2480  0.8291  0.6802
  298MOL0     H40184   1.621   0.532   4.885 -1.5050  1.3932 -1.1627
  298MOL0     H40185   1.640   0.709   4.870 -3.1519 -1.2425 -2.5290
  298MOL0     H40186   1.721   0.589   4.670  1.0409  2.6510 -1.4595
  298MOL0     H40187   1.839   0.494   4.762  0.9779  0.7442  0.1639
  298MOL0     H40188   1.822   0.802   4.757  0.3554  1.7445 -4.1517
  298MOL0     H40189   1.914   0.723   4.631  1.5730 -1.3169  0.0861
  298MOL0     H40190   2.026   0.446   4.686 -0.0490  0.6006  1.0934
  298MOL0     H40191   2.232   0.362   4.584  1.1850 -0.7894  1.7264
  298MOL0     H40192   2.396   0.151   4.380  0.9880 -1.9494 -3.9592
  298MOL0     H40193   2.557  -0.022   4.275  2.6580 -1.6030 -0.0680
  298MOL0     H40194   2.901  -0.059   4.505  0.3503  1.4934 -0.5801
  298MOL0     H40195   2.759  -0.158   4.514  0.5468 -0.2749  1.2445
  298MOL0     H40196   2.909  -0.307   4.474 -3.7055  2.4406  1.4280
  298MOL0     H40197   2.873  -0.282   4.300  2.8223 -0.7393 -0.0399
  298MOL0     H40198   3.046  -0.140   4.256  0.7065 -3.5625 -2.9819
  298MOL0     H40199   3.115  -0.131   4.417 -0.6738  1.4701 -1.3730
  298MOL0     H40200   3.098  -0.375   4.259 -1.9780  0.5696  0.5655
  298MOL0     H40201   3.147  -0.357   4.435  0.5545  2.4869  0.0777
  298MOL0     H40202   3.263  -0.198   4.214  0.1881 -0.7004  0.4375
  298MOL0     H40203   3.325  -0.362   4.235 -3.1027  0.6664 -1.5994
  298MOL0     H40204   3.328  -0.120   4.438 -1.2553 -1.2041  0.8793
  298MOL0     H40205   3.406  -0.269   4.483  0.6391  0.9441 -0.2631
  298MOL0     H40206   3.486  -0.091   4.271 -3.4431 -0.9350  1.3352
  298MOL0     H40207   3.529  -0.259   4.257  0.2237  0.9361 -0.1799
  298MOL0     H40208   3.625  -0.084   4.494  0.0703  0.4614 -1.3375
  298MOL0     H40209   3.633  -0.264   4.488  0.4115 -0.4974  0.5811
  298MOL0     H40210   2.872   0.148   4.462 -0.0043 -1.8913 -0.3943
  298MOL0     H40211   2.744   0.325   4.566 -2.3809 -0.1087  2.2059
  298MOL0     H40212   2.441   0.702   4.714 -0.9004  1.4657 -0.8932
  298MOL0     H40213   2.237   0.804   4.815  0.1809 -0.1445  2.6145
  298MOL0     H40214   3.044   0.268   5.569  2.9201  0.3299  0.7646
  298MOL0     H40215   3.264   0.241   5.528 -0.1522 -1.2266  0.1571
  298MOL0     H40216   3.536   0.066   5.311 -0.7575  0.4128 -2.0287
  298MOL0     H40217   3.730  -0.074   5.301 -0.0221  0.6213  0.9376
  298MOL0     H40218   4.011  -0.037   4.989  0.0186  0.0809  0.7532
  298MOL0     H40219   4.100  -0.131   5.105  1.8305  0.1303 -1.6242
  298MOL0     H40220   4.121   0.157   5.130 -2.8580 -1.0519 -1.3545
  298MOL0     H40221   4.210   0.085   4.995  1.0055  2.8917  0.9701
  298MOL0     H40222   4.236  -0.001   5.297  0.5346 -0.1279 -0.1358
  298MOL0     H40223   4.335   0.124   5.226  0.7310 -1.1251  1.4834
  298MOL0     H40224   4.337  -0.143   5.090 -0.0066  1.1583 -1.3952
  298MOL0     H40225   4.455  -0.026   5.069  1.8256 -2.7064  0.0699
  298MOL0     H40226   4.603  -0.223   5.394 -0.7537  1.3283  1.0368
  298MOL0     H40227   3.928   0.217   5.052 -0.0588  2.7189  1.5135
  298MOL0     H40228   3.666   0.380   4.958  2.5608 -2.3577 -2.9098
  298MOL0     H40229   3.715   0.471   5.111 -1.9501 -2.5756  1.8022
  298MOL0     H40230   3.832   0.415   4.993 -1.8085  1.2696 -1.7050
  299MOL0     O40231   8.921   6.367   2.570 -0.3306  0.4000  0.4938
  299MOL0     C40232   8.918   6.412   2.678 -0.1272  0.2729 -0.0143
  299MOL0     O40233   8.811   6.465   2.741  0.2844 -0.5508  0.3262
  299MOL0     C40234   8.687   6.514   2.681 -0.2505  0.2287  0.4291
  299MOL0     C40235   8.595   6.564   2.764  0.0036 -0.1503 -0.2903
  299MOL0     C40236   8.473   6.611   2.716  0.4478 -0.4428  0.3016
  299MOL0     C40237   8.445   6.605   2.575  0.0697  0.1108  0.1546
  299MOL0     O40238   8.323   6.650   2.534  0.3142  0.7323 -0.1104
  299MOL0     C40239   8.288   6.788   2.554  0.4275 -0.4357  0.5701
  299MOL0     C40240   8.168   6.828   2.471  0.3331 -0.0518  0.2161
  299MOL0     C40241   8.045   6.753   2.514  0.4600 -0.3058 -0.1813
  299MOL0     C40242   7.918   6.807   2.436 -0.1113  0.1337 -0.3898
  299MOL0     C40243   7.790   6.756   2.506 -0.2513  0.0132  0.6427
  299MOL0     C40244   7.763   6.606   2.498 -0.5014  0.7668  0.0040
  299MOL0     C40245   7.633   6.581   2.576  0.2250  0.7078  0.0392
  299MOL0     C40246   7.499   6.620   2.516  0.7556 -0.3212  0.1669
  299MOL0     N40247   7.465   6.560   2.374  0.4659 -0.4322 -0.6614
  299MOL0     C40248   7.516   6.606   2.254  0.6602  0.1757 -1.6597
  299MOL0     C40249   7.472   6.521   2.156  0.5534  0.8114  0.4973
  299MOL0     C40250   7.506   6.512   2.014 -0.6039  0.0301  0.2436
  299MOL0     C40251   7.657   6.511   2.001 -0.3990  1.2037  0.5002
  299MOL0     C40252   7.714   6.396   2.078 -0.7572 -0.7348 -0.1576
  299MOL0     C40253   7.862   6.382   2.051  0.4427 -0.6304  0.1664
  299MOL0     O40254   7.928   6.511   2.037  0.4306 -0.8448 -0.1641
  299MOL0     C40255   8.063   6.498   2.018  0.0525 -0.8451  0.1231
  299MOL0     C40256   8.119   6.415   1.922  0.1346 -0.1485  0.1600
  299MOL0     C40257   8.252   6.409   1.911 -1.3592 -0.3140 -0.0730
  299MOL0     C40258   8.348   6.481   1.989  0.0826 -0.9688 -0.0089
  299MOL0     C40259   8.495   6.470   1.965 -0.8069  0.1035  0.6545
  299MOL0     O40260   8.531   6.461   1.830 -0.3194 -0.4216  0.1571
  299MOL0     C40261   8.662   6.482   1.799  0.2322 -0.5358 -0.9593
  299MOL0     C40262   8.709   6.616   1.794 -0.1649  0.6958 -0.0540
  299MOL0     C40263   8.843   6.650   1.776 -0.5792  0.2688 -0.3930
  299MOL0     C40264   8.932   6.540   1.751  0.0006 -0.0415 -0.6429
  299MOL0     O40265   9.067   6.580   1.756  0.3270  0.0982 -0.5345
  299MOL0     C40266   9.168   6.489   1.719 -0.2464 -1.0505 -0.1620
  299MOL0     C40267   9.214   6.418   1.847 -0.8132 -0.6556  0.2535
  299MOL0     C40268   9.349   6.357   1.816  0.4362 -0.3924 -0.4550
  299MOL0     C40269   9.414   6.318   1.948  0.1851 -0.3847  0.9015
  299MOL0     C40270   9.552   6.246   1.941  0.8975 -0.2267 -0.0221
  299MOL0     C40271   9.657   6.346   1.887 -0.7591  0.0266  0.0687
  299MOL0     C40272   9.795   6.299   1.937  0.2576 -0.0463 -0.2580
  299MOL0     C40273   9.896   6.410   1.904 -0.0523 -0.0752  1.1441
  299MOL0    Cl40274  10.058   6.347   1.949  0.0990  0.0507  0.4189
  299MOL0     C40275   8.881   6.402   1.740 -0.1369 -0.5608 -0.3299
  299MOL0     C40276   8.751   6.382   1.773  0.2668  0.2635  0.3735
  299MOL0     O40277   8.574   6.480   2.061 -0.3561 -0.1072  0.0937
  299MOL0     C40278   8.291   6.547   2.099 -0.4077 -0.8101 -0.2397
  299MOL0     C40279   8.151   6.563   2.105 -0.1906  0.5333 -0.5572
  299MOL0     N40280   7.394   6.424   2.215 -0.3517  0.2320 -0.3272
  299MOL0     N40281   7.387   6.453   2.345 -0.2794 -0.5403 -0.7440
  299MOL0     C40282   8.532   6.536   2.498  0.4509 -0.5170  0.5913
  299MOL0     C40283   8.653   6.495   2.546  0.8931 -1.0380  1.1237
  299MOL0     C40284   9.043   6.434   2.757  0.1770 -1.0240 -0.4693
  299MOL0     C40285   9.058   6.540   2.853  0.6366 -0.1630 -0.8471
  299MOL0     C40286   9.185   6.569   2.907 -0.8683  0.6247 -0.6760
  299MOL0     C40287   9.294   6.497   2.886 -1.0955  0.2684  0.0934
  299MOL0     O40288   9.411   6.522   2.944  0.2739  0.2844 -0.2879
  299MOL0     C40289   9.420   6.590   3.069 -0.0931 -0.0575  0.8327
  299MOL0     C40290   9.560   6.583   3.122  0.2204  0.5608  0.0961
  299MOL0     C40291   9.565   6.445   3.182  0.1365 -0.0129 -0.1114
  299MOL0     C40292   9.717   6.405   3.206  0.4812 -0.0501 -0.5433
  299MOL0     C40293   9.792   6.492   3.300 -0.0378  0.6555  0.2048
  299MOL0     C40294   9.848   6.556   3.386 -0.2430  0.3803  0.0579
  299MOL0     C40295   9.284   6.385   2.807  0.8167  0.1813 -0.0744
  299MOL0     C40296   9.166   6.366   2.728  1.0087  0.1790  0.3022
  299MOL0     C40297   9.166   6.235   2.647  0.0718 -0.7370 -1.3157
  299MOL0     H40298   8.620   6.573   2.870  2.3331  1.6323 -0.9006
  299MOL0     H40299   8.411   6.661   2.790  1.8441  1.1971  0.4071
  299MOL0     H40300   8.257   6.803   2.658  0.1798  0.8360  0.3291
  299MOL0     H40301   8.365   6.862   2.527  0.2641 -0.7867 -0.9638
  299MOL0     H40302   8.194   6.810   2.366  1.7138 -0.1757  0.5580
  299MOL0     H40303   8.151   6.933   2.494  0.6255 -0.3412  1.8377
  299MOL0     H40304   8.024   6.772   2.619  0.1249 -0.7541 -0.1659
  299MOL0     H40305   8.065   6.648   2.490  1.9656  0.5905 -3.4799
  299MOL0     H40306   7.906   6.916   2.432 -1.0027  0.0099 -1.3112
  299MOL0     H40307   7.923   6.777   2.331  1.7743  2.0969 -0.9484
  299MOL0     H40308   7.787   6.793   2.609  2.6160 -0.8438  1.1227
  299MOL0     H40309   7.710   6.795   2.441 -1.0278 -0.8839  1.0482
  299MOL0     H40310   7.745   6.572   2.396  0.8438 -2.3735  0.7014
  299MOL0     H40311   7.839   6.554   2.557 -1.4419 -0.6319  0.0200
  299MOL0     H40312   7.649   6.619   2.677  1.5329 -0.3406  0.2527
  299MOL0     H40313   7.624   6.472   2.586 -3.6154  0.6354 -2.0323
  299MOL0     H40314   7.422   6.583   2.585  0.8817 -1.5304 -0.3275
  299MOL0     H40315   7.472   6.726   2.505 -3.4519 -1.2589 -0.5155
  299MOL0     H40316   7.591   6.684   2.247 -1.1577  2.3262  0.8757
  299MOL0     H40317   7.465   6.422   1.968 -1.7584  0.3501  0.6117
  299MOL0     H40318   7.447   6.593   1.970 -0.5074  1.1127  1.9890
  299MOL0     H40319   7.679   6.496   1.895  1.6932 -1.4037  1.1918
  299MOL0     H40320   7.684   6.612   2.033 -0.3756  1.9747 -1.7471
  299MOL0     H40321   7.663   6.301   2.058 -1.4823 -0.3240 -0.2985
  299MOL0     H40322   7.708   6.419   2.184 -1.1663 -3.2652  0.4434
  299MOL0     H40323   7.877   6.319   1.962 -1.6244 -0.1274 -0.5895
  299MOL0     H40324   7.910   6.318   2.126 -1.2824 -2.6579 -0.3449
  299MOL0     H40325   8.056   6.360   1.853  1.2703 -4.1128  1.9703
  299MOL0     H40326   8.299   6.342   1.839 -0.2568  0.5926 -0.2296
  299MOL0     H40327   8.652   6.709   1.802  0.9578  1.3343  0.8043
  299MOL0     H40328   8.876   6.752   1.784 -0.4572  0.1207  1.4056
  299MOL0     H40329   9.136   6.436   1.629  2.0198 -0.6361 -1.3182
  299MOL0     H40330   9.246   6.557   1.681 -1.1859  1.3251  1.9230
  299MOL0     H40331   9.221   6.488   1.931 -3.4026 -1.6941  1.4650
  299MOL0     H40332   9.142   6.340   1.873 -1.8211 -0.2211 -1.1135
  299MOL0     H40333   9.337   6.264   1.761  0.5459 -1.3757  1.1050
  299MOL0     H40334   9.415   6.422   1.759 -0.2960  0.1912 -0.6541
  299MOL0     H40335   9.356   6.236   1.991 -0.3084 -0.0188  0.9447
  299MOL0     H40336   9.418   6.406   2.014  1.7953  1.2523 -1.2446
  299MOL0     H40337   9.561   6.162   1.872  0.5543 -0.1386 -0.1751
  299MOL0     H40338   9.563   6.215   2.046 -0.6033 -0.6466  0.0385
  299MOL0     H40339   9.658   6.353   1.778  1.2210  0.1414  0.0489
  299MOL0     H40340   9.642   6.445   1.932 -0.8204 -0.1453  0.4320
  299MOL0     H40341   9.837   6.221   1.872  0.9235 -0.7406  0.9654
  299MOL0     H40342   9.796   6.277   2.044  2.2952 -0.2797 -0.2877
  299MOL0     H40343   9.897   6.431   1.797  0.7000  0.0995  1.1750
  299MOL0     H40344   9.872   6.502   1.957  0.1195  1.7060 -1.6754
  299MOL0     H40345   8.948   6.317   1.724  1.5551  0.7903 -0.7409
  299MOL0     H40346   8.707   6.284   1.754 -1.1658  1.6506 -5.3684
  299MOL0     H40347   8.354   6.578   2.182  0.6246 -4.5150  0.5434
  299MOL0     H40348   8.120   6.622   2.191  3.9069 -1.3252  2.5088
  299MOL0     H40349   8.500   6.532   2.394 -0.6076  3.4421  0.6027
  299MOL0     H40350   8.716   6.444   2.473 -3.9675 -2.7924 -2.3282
  299MOL0     H40351   8.974   6.604   2.877  0.6642 -0.2519 -0.5065
  299MOL0     H40352   9.186   6.664   2.960 -0.3964  0.8206 -1.0234
  299MOL0     H40353   9.347   6.544   3.136 -2.1275 -0.4176 -1.4713
  299MOL0     H40354   9.377   6.690   3.064 -0.2602 -0.1692 -0.1924
  299MOL0     H40355   9.576   6.653   3.205 -1.6935 -1.5850  2.4393
  299MOL0     H40356   9.635   6.582   3.043  2.4059 -0.5480  2.0711
  299MOL0     H40357   9.533   6.376   3.104  0.8251  1.4394 -1.7496
  299MOL0     H40358   9.513   6.428   3.277 -3.7856  0.9691 -1.8804
  299MOL0     H40359   9.720   6.305   3.249 -0.8784  0.2172  0.2311
  299MOL0     H40360   9.765   6.407   3.108  1.6005 -0.2647 -0.0101
  299MOL0     H40361   9.903   6.615   3.456  0.2851 -1.0235  0.8892
  299MOL0     H40362   9.373   6.322   2.811  1.6655  1.3715  3.4362
  299MOL0     H40363   9.076   6.177   2.669 -0.2956 -0.3445 -1.7431
  299MOL0     H40364   9.191   6.252   2.542 -0.6509 -2.0532 -1.7336
  299MOL0     H40365   9.250   6.176   2.684  3.7229  4.7139  0.3078
  300MOL0     O40366   2.770   7.389   7.744  0.6432  0.1152  0.6913
  300MOL0     C40367   2.702   7.343   7.646  0.2826  0.2408  0.4545
  300MOL0     O40368   2.765   7.310   7.528  0.1660  0.3915 -0.1052
  300MOL0     C40369   2.882   7.374   7.483  0.4415  0.5691 -0.5385
  300MOL0     C40370   2.915   7.510   7.503  0.5206  0.9936 -1.1863
  300MOL0     C40371   3.042   7.552   7.471 -0.2789 -0.6932  0.0624
  300MOL0     C40372   3.134   7.466   7.415  0.2967 -0.8930  0.9074
  300MOL0     O40373   3.258   7.503   7.388  0.2516  0.4489 -0.0326
  300MOL0     C40374   3.257   7.567   7.262  0.2247  0.1609 -0.1649
  300MOL0     C40375   3.405   7.605   7.216  0.1006 -0.4162 -0.4532
  300MOL0     C40376   3.401   7.673   7.084  0.0720 -0.4705 -0.3366
  300MOL0     C40377   3.546   7.680   7.014 -0.2572 -0.9201  0.7978
  300MOL0     C40378   3.536   7.730   6.863  0.4189  0.5041 -0.2397
  300MOL0     C40379   3.463   7.855   6.815 -0.3985  0.0400  0.3629
  300MOL0     C40380   3.509   7.968   6.903 -0.0914  0.6702  0.0614
  300MOL0     C40381   3.462   8.101   6.837  0.8055 -0.5241 -0.3796
  300MOL0     N40382   3.494   8.220   6.929  0.2363 -0.1282  0.0269
  300MOL0     C40383   3.617   8.280   6.944  0.0201  0.2543  0.1073
  300MOL0     C40384   3.588   8.382   7.023 -0.2702  0.7719 -0.4122
  300MOL0     C40385   3.688   8.462   7.089 -0.1640  0.0367  0.0625
  300MOL0     C40386   3.637   8.608   7.125 -0.0625  1.1344  0.2343
  300MOL0     C40387   3.588   8.635   7.268  0.0475 -0.2063 -0.0448
  300MOL0     C40388   3.713   8.663   7.371  0.2201  0.7407  0.4313
  300MOL0     O40389   3.819   8.747   7.320 -0.0324  0.2005  0.6251
  300MOL0     C40390   3.944   8.707   7.277  0.2120  0.3554 -0.3012
  300MOL0     C40391   4.044   8.801   7.258  0.5220 -0.7940  0.3022
  300MOL0     C40392   4.163   8.771   7.186  0.9029 -0.3064 -0.6603
  300MOL0     C40393   4.191   8.641   7.140 -0.3174  0.2014 -0.3934
  300MOL0     C40394   4.308   8.619   7.051  0.1494  0.0281  0.3082
  300MOL0     O40395   4.420   8.704   7.064  0.0939  0.3348 -0.2614
  300MOL0     C40396   4.532   8.704   6.988 -0.4355 -0.5308  0.0582
  300MOL0     C40397   4.575   8.593   6.917  0.2870  0.4508 -0.1228
  300MOL0     C40398   4.678   8.607   6.828 -0.0372 -0.2259  0.1708
  300MOL0     C40399   4.734   8.726   6.790  0.3723 -0.5883 -0.5334
  300MOL0     O40400   4.822   8.736   6.689 -0.2146  0.1297 -0.4930
  300MOL0     C40401   4.948   8.677   6.718  1.1787  0.7604  0.6588
  300MOL0     C40402   5.052   8.720   6.620  0.1413  0.1739 -0.2741
  300MOL0     C40403   5.193   8.657   6.650  0.6543  0.1570 -0.7978
  300MOL0     C40404   5.297   8.685   6.553 -0.0475 -1.1397 -0.6104
  300MOL0     C40405   5.420   8.609   6.570  0.7603 -0.5794  1.1368
  300MOL0     C40406   5.510   8.624   6.449  0.7049  0.1112 -0.2534
  300MOL0     C40407   5.633   8.526   6.448  0.5794 -0.6610  0.5028
  300MOL0     C40408   5.629   8.409   6.346  0.2239 -0.8665  0.2606
  300MOL0    Cl40409   5.790   8.332   6.354 -0.0781 -0.2651 -0.5775
  300MOL0     C40410   4.704   8.837   6.876 -0.3731  0.0512 -0.7825
  300MOL0     C40411   4.610   8.822   6.973  0.4969  0.2450 -0.1774
  300MOL0     O40412   4.293   8.533   6.967 -0.0095  0.3627  0.1029
  300MOL0     C40413   4.090   8.543   7.166  0.4299 -0.2629 -0.0700
  300MOL0     C40414   3.976   8.577   7.237 -0.1035 -0.0605  0.2044
  300MOL0     N40415   3.448   8.391   7.035 -0.3094  0.1389  0.3543
  300MOL0     N40416   3.385   8.298   6.972 -0.1007 -0.4852  0.1884
  300MOL0     C40417   3.103   7.329   7.385  0.8415  0.1935 -0.2167
  300MOL0     C40418   2.973   7.285   7.415 -0.6189 -0.8453 -0.1615
  300MOL0     C40419   2.560   7.324   7.663 -0.4786 -0.2856  0.1802
  300MOL0     C40420   2.493   7.245   7.568  0.0060  0.0474 -0.2321
  300MOL0     C40421   2.354   7.223   7.575  0.3361 -0.7446  1.0190
  300MOL0     C40422   2.282   7.260   7.682  0.3783  1.0609 -0.3387
  300MOL0     O40423   2.152   7.252   7.696 -0.8065  0.4756  0.1318
  300MOL0     C40424   2.076   7.127   7.666  0.3098 -0.0583 -0.3410
  300MOL0     C40425   1.961   7.163   7.589  1.1513 -0.2704 -0.7256
  300MOL0     C40426   1.865   7.266   7.652 -1.0734  0.2315 -0.4835
  300MOL0     C40427   1.820   7.234   7.800 -0.7806  0.8052  0.1160
  300MOL0     C40428   1.758   7.104   7.812  0.4185 -0.2680 -0.1669
  300MOL0     C40429   1.718   6.994   7.819  1.1011  0.1241  0.6354
  300MOL0     C40430   2.359   7.310   7.794  0.2499 -0.0295  0.3430
  300MOL0     C40431   2.494   7.354   7.783  0.2519  0.0375 -0.9653
  300MOL0     C40432   2.548   7.420   7.914  0.0450  0.2267  0.8130
  300MOL0     H40433   2.844   7.574   7.554 -1.4077 -3.2437  2.0357
  300MOL0     H40434   3.082   7.651   7.491  0.4936 -0.4942 -2.1332
  300MOL0     H40435   3.214   7.504   7.183  0.5027  0.5992 -0.6788
  300MOL0     H40436   3.203   7.662   7.262  2.9919  1.8776 -1.5569
  300MOL0     H40437   3.465   7.516   7.192 -0.1556  0.1221 -3.5542
  300MOL0     H40438   3.442   7.672   7.293 -1.9188  1.4227 -0.9971
  300MOL0     H40439   3.356   7.771   7.103 -1.6736 -1.3450  0.2560
  300MOL0     H40440   3.347   7.608   7.015 -1.8981  1.2302 -0.5095
  300MOL0     H40441   3.613   7.751   7.063  1.1054  0.0455 -2.1790
  300MOL0     H40442   3.604   7.588   7.021  0.6764 -0.5566 -1.3494
  300MOL0     H40443   3.641   7.738   6.833  0.2059  0.8766 -0.8939
  300MOL0     H40444   3.497   7.646   6.806  0.8501 -0.1036  0.3521
  300MOL0     H40445   3.481   7.873   6.709  0.1796 -2.0113  0.0689
  300MOL0     H40446   3.357   7.838   6.835 -0.5666  1.0259  0.3405
  300MOL0     H40447   3.618   7.970   6.909 -0.1320  0.7915  0.9400
  300MOL0     H40448   3.460   7.963   7.001 -0.4771  1.0897 -0.1087
  300MOL0     H40449   3.504   8.117   6.737 -0.4882  2.8406 -0.5106
  300MOL0     H40450   3.353   8.100   6.827  0.6892  0.0610  0.7340
  300MOL0     H40451   3.716   8.251   6.912  1.7651  0.4665  4.6193
  300MOL0     H40452   3.712   8.399   7.175  0.9591  0.8675  0.3771
  300MOL0     H40453   3.767   8.477   7.015  0.4218 -3.4099 -0.1946
  300MOL0     H40454   3.714   8.681   7.101  1.3737 -0.0475  1.0919
  300MOL0     H40455   3.545   8.629   7.069  0.5063  0.0239 -1.1693
  300MOL0     H40456   3.518   8.558   7.303 -1.6140  1.8239  1.3199
  300MOL0     H40457   3.524   8.724   7.266 -0.7278 -0.7207 -3.3655
  300MOL0     H40458   3.749   8.562   7.392  0.4398  0.8359  0.5043
  300MOL0     H40459   3.685   8.701   7.470  2.5214 -0.1517  1.5010
  300MOL0     H40460   4.027   8.905   7.282  1.0764  0.1374 -2.9214
  300MOL0     H40461   4.229   8.857   7.184 -0.9185  1.1362 -0.8332
  300MOL0     H40462   4.518   8.502   6.932 -2.4712  1.3890 -3.6171
  300MOL0     H40463   4.710   8.519   6.772 -3.0375 -1.7594  0.6843
  300MOL0     H40464   4.990   8.686   6.818  1.4129  0.2319  0.6115
  300MOL0     H40465   4.933   8.570   6.698 -3.4903  1.3196  0.0477
  300MOL0     H40466   5.022   8.697   6.517  0.2816  1.6201 -0.6654
  300MOL0     H40467   5.063   8.827   6.642  1.5648 -0.9062  6.2809
  300MOL0     H40468   5.228   8.698   6.745  1.8128 -0.5565 -0.8858
  300MOL0     H40469   5.187   8.550   6.672 -3.5859 -0.0403 -2.0632
  300MOL0     H40470   5.308   8.794   6.551 -2.8459 -0.6972  2.0136
  300MOL0     H40471   5.264   8.665   6.450  2.0406  0.1515 -1.6172
  300MOL0     H40472   5.398   8.502   6.576  1.3640 -1.0399 -2.4077
  300MOL0     H40473   5.469   8.637   6.663 -0.8743  1.7260  1.3959
  300MOL0     H40474   5.456   8.615   6.355 -1.2135  1.8001  0.6289
  300MOL0     H40475   5.541   8.727   6.431  3.0389 -0.8158 -2.1266
  300MOL0     H40476   5.652   8.482   6.547 -1.3525 -1.7032  0.4784
  300MOL0     H40477   5.718   8.590   6.426 -0.4001  0.9384  1.1666
  300MOL0     H40478   5.556   8.329   6.362 -0.3823 -0.8156 -1.9688
  300MOL0     H40479   5.605   8.446   6.246  0.8313  0.4818  0.5990
  300MOL0     H40480   4.756   8.933   6.877 -2.0621  1.1176  2.8380
  300MOL0     H40481   4.581   8.903   7.039 -1.4821 -0.6300  0.0895
  300MOL0     H40482   4.110   8.441   7.132 -0.2376 -0.5061  0.2459
  300MOL0     H40483   3.903   8.498   7.243  0.5097 -0.5807  1.0285
  300MOL0     H40484   3.183   7.266   7.349  2.3648  1.2574  1.1366
  300MOL0     H40485   2.941   7.183   7.397 -1.9256 -0.3761 -0.6235
  300MOL0     H40486   2.540   7.218   7.474  2.3098  2.2742  0.1762
  300MOL0     H40487   2.307   7.165   7.496 -1.1203 -1.7107  2.5480
  300MOL0     H40488   2.048   7.073   7.757  0.2761 -1.0433 -0.9226
  300MOL0     H40489   2.124   7.049   7.605 -2.4184 -1.0985 -1.2758
  300MOL0     H40490   1.900   7.073   7.579 -1.3213  1.0887  0.9020
  300MOL0     H40491   1.986   7.202   7.490  1.1419  0.2841 -0.5118
  300MOL0     H40492   1.778   7.274   7.586 -0.1934 -0.5319 -1.7862
  300MOL0     H40493   1.917   7.362   7.651 -0.0751 -0.2585 -2.9062
  300MOL0     H40494   1.900   7.234   7.874 -1.3593 -1.7226  0.8435
  300MOL0     H40495   1.751   7.316   7.824  0.5311  2.0193 -0.1766
  300MOL0     H40496   1.692   6.891   7.836 -3.8130  1.0650  0.3378
  300MOL0     H40497   2.305   7.331   7.885  1.7247 -3.0328  2.0598
  300MOL0     H40498   2.577   7.525   7.901  1.1404 -0.1734 -0.0801
  300MOL0     H40499   2.476   7.417   7.996 -1.6716  1.6579 -0.5454
  300MOL0     H40500   2.628   7.357   7.953 -0.7655 -0.5014  1.3432
  301MOL0     O40501   5.980   3.883   0.016  0.7061  0.5592  0.0584
  301MOL0     C40502   5.992   3.987   0.084  0.8206 -0.2116 -0.0418
  301MOL0     O40503   6.110   4.026   0.143  0.4546 -0.6083 -0.0620
  301MOL0     C40504   6.231   3.972   0.126  0.2306  0.4164  0.4203
  301MOL0     C40505   6.294   3.933   0.237  0.3092 -0.1987  0.4369
  301MOL0     C40506   6.423   3.863   0.230 -0.0365  0.2222  0.1997
  301MOL0     C40507   6.482   3.846   0.108 -0.1039 -0.3850 -0.8442
  301MOL0     O40508   6.605   3.787   0.105  0.5954  0.4203  0.0518
  301MOL0     C40509   6.644   3.689   0.012 -0.3878 -0.8814  0.0938
  301MOL0     C40510   6.799   3.699  -0.019  1.0801 -0.2303  0.0049
  301MOL0     C40511   6.849   3.549  -0.049 -0.3305 -0.1045 -0.0415
  301MOL0     C40512   6.996   3.519  -0.040 -0.6417 -0.4759  0.0913
  301MOL0     C40513   7.092   3.601  -0.139 -0.1189  0.7153 -0.0228
  301MOL0     C40514   7.237   3.604  -0.096  0.5197  0.2336  0.5386
  301MOL0     C40515   7.267   3.720  -0.003 -0.7324 -0.2031  0.2534
  301MOL0     C40516   7.415   3.722   0.037  0.5542 -1.0936  0.0806
  301MOL0     N40517   7.473   3.860   0.056  0.9638 -0.1286  1.0061
  301MOL0     C40518   7.589   3.906  -0.004 -0.5355  0.6174 -0.1205
  301MOL0     C40519   7.613   4.023   0.053 -1.0510  0.1242 -0.4426
  301MOL0     C40520   7.728   4.116   0.015 -0.5526  0.1265  0.2309
  301MOL0     C40521   7.679   4.240  -0.069  0.4642  0.5142  0.4411
  301MOL0     C40522   7.797   4.331  -0.099 -0.0439  0.8022  0.8816
  301MOL0     C40523   7.756   4.452  -0.186  0.6550  0.2971  0.3841
  301MOL0     O40524   7.837   4.560  -0.155  0.0457 -0.3136  0.3495
  301MOL0     C40525   7.976   4.559  -0.176  0.0394 -0.2255 -1.3014
  301MOL0     C40526   8.045   4.481  -0.266 -0.2738  0.1545  0.8188
  301MOL0     C40527   8.189   4.476  -0.260 -0.4560 -0.4106 -0.2147
  301MOL0     C40528   8.262   4.556  -0.177 -0.2206  0.6764  0.2559
  301MOL0     C40529   8.409   4.549  -0.175 -0.1716 -0.5145  0.1259
  301MOL0     O40530   8.459   4.432  -0.219  0.2982  0.5284 -0.1937
  301MOL0     C40531   8.590   4.431  -0.244  0.1863  0.3740  0.1307
  301MOL0     C40532   8.658   4.513  -0.325 -0.7146 -0.6789 -0.4015
  301MOL0     C40533   8.791   4.497  -0.348 -0.0891  0.6337  1.4617
  301MOL0     C40534   8.864   4.392  -0.282  0.3698  0.1503 -0.1671
  301MOL0     O40535   9.001   4.383  -0.293 -0.2025  0.4452  0.6033
  301MOL0     C40536   9.072   4.255  -0.261  0.1004 -0.2441 -1.1013
  301MOL0     C40537   9.217   4.267  -0.257 -0.4565 -0.4723 -0.2836
  301MOL0     C40538   9.275   4.379  -0.161  0.4087  0.1192  0.2603
  301MOL0     C40539   9.274   4.310  -0.023 -0.0664 -0.8250 -0.5019
  301MOL0     C40540   9.321   4.419   0.075 -0.5148 -0.3010  1.1021
  301MOL0     C40541   9.326   4.361   0.222  0.3482 -1.2152  0.9128
  301MOL0     C40542   9.433   4.255   0.246  0.1746  0.1874 -0.0834
  301MOL0     C40543   9.417   4.189   0.385  1.4980  0.2706 -0.5008
  301MOL0    Cl40544   9.261   4.105   0.399  0.3214  0.1546  0.0597
  301MOL0     C40545   8.796   4.298  -0.214  0.0119  0.1093 -0.0491
  301MOL0     C40546   8.664   4.321  -0.193  0.5195  0.5005 -1.4955
  301MOL0     O40547   8.474   4.648  -0.139 -0.6588  0.2843  0.4240
  301MOL0     C40548   8.192   4.620  -0.074  0.3573 -0.4831 -0.4048
  301MOL0     C40549   8.046   4.630  -0.072 -0.7716 -0.1063 -0.1475
  301MOL0     N40550   7.507   4.051   0.132  0.4638 -0.3174 -1.3876
  301MOL0     N40551   7.425   3.959   0.136 -0.5091  0.0295  0.6436
  301MOL0     C40552   6.408   3.874  -0.012  0.0384 -0.6430 -0.0368
  301MOL0     C40553   6.279   3.927   0.005 -0.0464 -0.2510  0.5005
  301MOL0     C40554   5.877   4.083   0.084 -0.5769  0.3805 -0.1271
  301MOL0     C40555   5.748   4.020   0.056  0.1319 -0.8116 -1.1593
  301MOL0     C40556   5.639   4.102   0.042  0.3261 -0.0355  0.0307
  301MOL0     C40557   5.649   4.236   0.061  0.2521  0.1455  0.2586
  301MOL0     O40558   5.525   4.298   0.049  0.9219  0.6658  0.1903
  301MOL0     C40559   5.509   4.437   0.081  0.3230  0.4871  0.0817
  301MOL0     C40560   5.355   4.469   0.067 -0.3679  0.0400  0.6588
  301MOL0     C40561   5.343   4.623   0.089 -0.1889 -0.3176 -0.1726
  301MOL0     C40562   5.421   4.725   0.013 -1.0612 -0.6849 -0.4142
  301MOL0     C40563   5.415   4.845   0.097  0.8134 -0.0928 -0.3792
  301MOL0     C40564   5.416   4.952   0.158  0.4868  0.4651 -0.7144
  301MOL0     C40565   5.768   4.296   0.095 -0.5125 -0.5967  0.3624
  301MOL0     C40566   5.882   4.223   0.119  0.6061  0.4323 -0.0485
  301MOL0     C40567   6.011   4.294   0.165 -0.5268 -0.1785 -0.2734
  301MOL0     H40568   6.260   3.968   0.334 -0.6393  0.3291 -0.0715
  301MOL0     H40569   6.470   3.827   0.320 -0.1568  0.9177  0.5517
  301MOL0     H40570   6.626   3.589   0.053  0.0196 -0.5919  1.0042
  301MOL0     H40571   6.581   3.682  -0.077 -1.1099 -1.1401  0.6152
  301MOL0     H40572   6.852   3.734   0.070  0.8937 -2.0782  0.8930
  301MOL0     H40573   6.827   3.755  -0.109 -2.6918  0.3727 -0.9464
  301MOL0     H40574   6.817   3.524  -0.151  0.5012  2.3151 -0.9793
  301MOL0     H40575   6.804   3.487   0.028  3.3235 -0.9731  1.6043
  301MOL0     H40576   7.031   3.552   0.059 -1.0971  1.9145 -0.4644
  301MOL0     H40577   7.018   3.415  -0.066  3.7366  0.3157 -0.2152
  301MOL0     H40578   7.092   3.572  -0.244 -0.9200  1.1281 -0.1505
  301MOL0     H40579   7.047   3.701  -0.137 -3.2507 -0.5619  1.1761
  301MOL0     H40580   7.276   3.515  -0.046  0.8344 -0.5521 -1.0182
  301MOL0     H40581   7.292   3.607  -0.191 -2.6058  1.1893 -1.3903
  301MOL0     H40582   7.219   3.719   0.095 -0.9996 -0.6325  0.1208
  301MOL0     H40583   7.236   3.814  -0.049 -1.2318  0.2064  1.4004
  301MOL0     H40584   7.430   3.656   0.123 -1.9584 -1.9497 -0.0523
  301MOL0     H40585   7.481   3.685  -0.042  3.2054  2.6550  0.2714
  301MOL0     H40586   7.651   3.860  -0.080 -0.7370 -0.3099  0.2667
  301MOL0     H40587   7.779   4.147   0.107 -2.6133  3.6526  0.3585
  301MOL0     H40588   7.802   4.057  -0.040  0.4916 -0.0345  1.7407
  301MOL0     H40589   7.637   4.214  -0.166 -0.1507  2.1318  0.2485
  301MOL0     H40590   7.605   4.308  -0.026 -0.2703  1.9831 -2.8105
  301MOL0     H40591   7.870   4.275  -0.158 -0.5251  0.0506  0.9884
  301MOL0     H40592   7.835   4.360  -0.000 -0.7933 -0.5189  1.5959
  301MOL0     H40593   7.655   4.487  -0.162  0.8143  0.1345  1.3257
  301MOL0     H40594   7.758   4.425  -0.292  3.0968  0.8208  0.2379
  301MOL0     H40595   7.986   4.416  -0.330 -0.9100  2.9803 -1.7131
  301MOL0     H40596   8.244   4.402  -0.318 -0.3071 -0.4759  0.0062
  301MOL0     H40597   8.602   4.591  -0.375 -1.0398  0.3109  1.4298
  301MOL0     H40598   8.829   4.568  -0.421 -0.2825  1.6164  2.2930
  301MOL0     H40599   9.030   4.212  -0.169 -0.5058 -2.0455 -2.1625
  301MOL0     H40600   9.053   4.179  -0.338  3.1728 -0.4542 -1.7661
  301MOL0     H40601   9.267   4.170  -0.247  0.2131 -0.0894  0.1738
  301MOL0     H40602   9.258   4.300  -0.353 -3.5465  1.3044 -1.1529
  301MOL0     H40603   9.376   4.414  -0.182  0.8232 -0.2623  1.5418
  301MOL0     H40604   9.214   4.470  -0.165  2.0439  1.2830  0.5206
  301MOL0     H40605   9.349   4.231  -0.022  3.1365  1.9628  1.3205
  301MOL0     H40606   9.176   4.275   0.009  0.4755 -0.2133  2.1045
  301MOL0     H40607   9.255   4.505   0.067 -1.9761 -1.5683 -2.0294
  301MOL0     H40608   9.418   4.458   0.042  0.9308 -2.3914  2.5910
  301MOL0     H40609   9.349   4.441   0.293 -0.3923  0.3720 -0.5351
  301MOL0     H40610   9.227   4.320   0.244 -0.2875 -0.2782 -0.1016
  301MOL0     H40611   9.528   4.310   0.245 -0.7493  1.8669  0.6571
  301MOL0     H40612   9.434   4.177   0.170  0.0641  1.5999 -1.5731
  301MOL0     H40613   9.504   4.132   0.417 -0.3038 -0.5344  3.6879
  301MOL0     H40614   9.414   4.266   0.463 -1.3911 -1.0021  0.8353
  301MOL0     H40615   8.840   4.202  -0.185 -2.4180 -0.3004  2.7090
  301MOL0     H40616   8.603   4.250  -0.139  0.6843  0.6628 -1.0940
  301MOL0     H40617   8.256   4.668   0.000 -2.3026  2.5362  0.1697
  301MOL0     H40618   8.010   4.685   0.015  2.0288 -0.7169  1.5319
  301MOL0     H40619   6.456   3.857  -0.108  1.0036  1.3064  0.0673
  301MOL0     H40620   6.232   3.945  -0.092  2.2941 -1.8668 -1.0442
  301MOL0     H40621   5.723   3.914   0.063  1.4330 -1.1053 -0.6383
  301MOL0     H40622   5.536   4.076   0.017  0.1115  1.3745 -0.6349
  301MOL0     H40623   5.574   4.505   0.024 -0.5131  0.9501 -0.3415
  301MOL0     H40624   5.529   4.447   0.188 -2.4536 -1.5375  0.9050
  301MOL0     H40625   5.290   4.411   0.133 -3.1471  2.8854  0.6794
  301MOL0     H40626   5.325   4.459  -0.038 -0.4148  2.3186  0.3981
  301MOL0     H40627   5.346   4.633   0.197  3.1256 -3.2494  0.1714
  301MOL0     H40628   5.246   4.650   0.045  0.4141  0.0006 -1.3693
  301MOL0     H40629   5.524   4.695  -0.008 -0.7909  0.2434 -0.4764
  301MOL0     H40630   5.385   4.745  -0.089 -0.3681  2.4840 -0.1639
  301MOL0     H40631   5.419   5.046   0.209  4.8599 -0.8956  2.1110
  301MOL0     H40632   5.774   4.404   0.100 -1.5438 -0.5356  0.5236
  301MOL0     H40633   6.000   4.402   0.173  0.7529 -0.0941  0.7748
  301MOL0     H40634   6.053   4.246   0.255  0.0993  0.6420 -0.1224
  301MOL0     H40635   6.093   4.282   0.093  0.9392  3.4598  0.5946
  302MOL0     O40636   3.034   4.879  10.457  0.7669  0.6832 -0.9962
  302MOL0     C40637   2.953   4.788  10.439  0.1611  0.1551  0.3181
  302MOL0     O40638   2.892   4.770  10.317 -0.1927  0.4369  0.2526
  302MOL0     C40639   2.948   4.846  10.216 -0.3465 -0.0334 -0.5096
  302MOL0     C40640   2.853   4.913  10.139  0.0489 -0.8964  0.1089
  302MOL0     C40641   2.892   5.001  10.036  0.6733 -0.2748 -0.4325
  302MOL0     C40642   3.025   5.024  10.007 -0.1135  0.0909  0.2007
  302MOL0     O40643   3.078   5.116   9.929  0.5903 -0.0416  0.6153
  302MOL0     C40644   2.995   5.188   9.839 -0.0987 -0.2646 -0.2592
  302MOL0     C40645   3.093   5.252   9.745 -0.5034  0.0428  0.1546
  302MOL0     C40646   3.035   5.235   9.605 -0.3819 -0.3878  0.5862
  302MOL0     C40647   2.890   5.270   9.583 -0.0481  0.2265 -0.5699
  302MOL0     C40648   2.857   5.412   9.618  0.3441  0.2244  0.3087
  302MOL0     C40649   2.718   5.465   9.596 -0.6988 -1.1780  0.1135
  302MOL0     C40650   2.694   5.542   9.459 -0.1787  0.4388  0.1832
  302MOL0     C40651   2.735   5.454   9.330 -0.5957 -0.4710  0.3850
  302MOL0     N40652   2.707   5.532   9.212 -0.8068 -0.1924  0.6908
  302MOL0     C40653   2.580   5.553   9.162 -0.6512 -0.5084  0.0326
  302MOL0     C40654   2.600   5.613   9.042  1.3625  0.7192  0.8242
  302MOL0     C40655   2.493   5.635   8.944 -0.2865  0.6844 -0.6369
  302MOL0     C40656   2.422   5.497   8.898  0.2031  0.0336  0.8309
  302MOL0     C40657   2.302   5.536   8.802 -0.5365 -0.6074 -0.6964
  302MOL0     C40658   2.252   5.428   8.711  0.1211  0.1165  0.4088
  302MOL0     O40659   2.236   5.298   8.775  0.4681  0.0670 -0.4342
  302MOL0     C40660   2.126   5.287   8.869  0.1750  0.5403  0.1316
  302MOL0     C40661   2.141   5.197   8.976  0.0335  0.2711  1.2050
  302MOL0     C40662   2.035   5.195   9.079 -0.6922 -0.0766 -0.9023
  302MOL0     C40663   1.931   5.291   9.079  0.3609  0.3548  0.2146
  302MOL0     C40664   1.825   5.310   9.192  0.0827 -0.2791  0.2570
  302MOL0     O40665   1.829   5.221   9.294  0.2947 -0.2719  0.2524
  302MOL0     C40666   1.747   5.242   9.405 -0.2205 -0.2503 -0.5919
  302MOL0     C40667   1.805   5.308   9.511 -0.1234 -0.9597  0.4915
  302MOL0     C40668   1.745   5.305   9.640 -0.2459  0.0637 -0.0872
  302MOL0     C40669   1.616   5.243   9.648 -0.7159 -0.5484 -0.4316
  302MOL0     O40670   1.537   5.222   9.758 -0.0665 -0.4859  0.0298
  302MOL0     C40671   1.604   5.206   9.880  0.0682 -0.5358  0.1479
  302MOL0     C40672   1.505   5.168   9.989  0.5852  0.8178  0.3676
  302MOL0     C40673   1.425   5.050   9.939  0.2666 -0.6348 -0.0590
  302MOL0     C40674   1.350   5.009  10.064 -0.7223  0.5497  0.4850
  302MOL0     C40675   1.250   4.901  10.028 -1.1322 -0.6784  0.1597
  302MOL0     C40676   1.123   4.906  10.127 -0.7216 -0.1825 -0.4480
  302MOL0     C40677   1.019   5.011  10.083  0.5154 -0.2878  0.2528
  302MOL0     C40678   0.904   5.004  10.173 -0.3299  0.0360 -0.2727
  302MOL0    Cl40679   0.847   5.172  10.191  0.0964  0.7649  0.2966
  302MOL0     C40680   1.554   5.186   9.545 -0.5843  1.3377  0.4589
  302MOL0     C40681   1.613   5.183   9.415 -0.2206 -1.2688 -0.0882
  302MOL0     O40682   1.753   5.410   9.186  0.6345  1.0515  0.0942
  302MOL0     C40683   1.919   5.380   8.972 -0.6022 -0.7337 -0.1280
  302MOL0     C40684   2.015   5.381   8.868  0.1755  0.5363 -0.5331
  302MOL0     N40685   2.731   5.636   9.031  0.2419 -0.4896 -0.2339
  302MOL0     N40686   2.798   5.589   9.126 -0.7911 -0.0315 -0.4211
  302MOL0     C40687   3.116   4.955  10.082 -1.1234  1.0848 -0.5839
  302MOL0     C40688   3.086   4.872  10.192  0.8469  0.4359  0.8541
  302MOL0     C40689   2.889   4.698  10.544  0.3424  0.8344  0.4876
  302MOL0     C40690   2.780   4.608  10.518  0.3290 -0.0721 -0.9178
  302MOL0     C40691   2.723   4.518  10.616  0.2967 -0.8053  0.3967
  302MOL0     C40692   2.778   4.519  10.737 -0.2603  0.2514  0.4153
  302MOL0     O40693   2.724   4.447  10.841  0.0123 -0.4576 -0.3459
  302MOL0     C40694   2.585   4.455  10.879 -0.4536  0.5936  0.8942
  302MOL0     C40695   2.516   4.321  10.824 -0.1469 -0.1283 -0.5494
  302MOL0     C40696   2.404   4.268  10.916  0.0474  0.6577 -1.2367
  302MOL0     C40697   2.280   4.364  10.896 -0.0336  0.3252 -0.0874
  302MOL0     C40698   2.173   4.304  10.966 -0.2792 -0.1137  0.3689
  302MOL0     C40699   2.081   4.254  11.022  0.3082 -0.6372  0.8247
  302MOL0     C40700   2.883   4.601  10.771 -0.3547  0.2797  0.1767
  302MOL0     C40701   2.946   4.688  10.673 -0.0661  0.4603  0.4072
  302MOL0     C40702   3.059   4.776  10.728  0.1942 -0.1304  0.4922
  302MOL0     H40703   2.747   4.913  10.160 -0.4737  0.9436 -2.1556
  302MOL0     H40704   2.813   5.056   9.984 -0.3879 -0.5364  0.8469
  302MOL0     H40705   2.937   5.108   9.792 -2.0219 -0.2437  1.8970
  302MOL0     H40706   2.925   5.266   9.872  0.2764 -0.1838  0.3542
  302MOL0     H40707   3.193   5.211   9.758  0.7627  1.0216 -4.6123
  302MOL0     H40708   3.111   5.359   9.756  2.3389 -0.0780 -2.1447
  302MOL0     H40709   3.055   5.138   9.557  0.8480  0.8381 -1.5412
  302MOL0     H40710   3.088   5.304   9.539 -1.4405 -1.9738 -2.0767
  302MOL0     H40711   2.871   5.247   9.478 -2.3254  2.1644 -0.6648
  302MOL0     H40712   2.822   5.208   9.643  0.2689  0.9271  0.5215
  302MOL0     H40713   2.878   5.421   9.725  1.2170  0.7560  0.0928
  302MOL0     H40714   2.927   5.479   9.569  1.3996 -0.1419  1.2881
  302MOL0     H40715   2.648   5.380   9.596 -0.3550 -1.4681 -0.2821
  302MOL0     H40716   2.696   5.534   9.678 -0.8826  5.1599 -4.5196
  302MOL0     H40717   2.761   5.629   9.459 -2.2244  2.0908 -0.2520
  302MOL0     H40718   2.591   5.577   9.450 -0.9931 -2.2492 -2.5709
  302MOL0     H40719   2.842   5.439   9.348 -0.7966 -3.0991 -0.2465
  302MOL0     H40720   2.689   5.356   9.320 -2.0368  0.1046  1.1137
  302MOL0     H40721   2.486   5.553   9.217 -0.3415 -0.1214  0.5753
  302MOL0     H40722   2.416   5.695   8.992  2.2336  1.7254  2.4824
  302MOL0     H40723   2.539   5.688   8.860 -1.4669  3.0077  0.1141
  302MOL0     H40724   2.492   5.444   8.833  1.0630 -0.8339  2.3975
  302MOL0     H40725   2.391   5.443   8.988  0.7763 -2.1464 -0.2065
  302MOL0     H40726   2.334   5.628   8.752 -0.1889 -0.3181  0.0415
  302MOL0     H40727   2.223   5.573   8.868  2.4000  0.2375  2.6495
  302MOL0     H40728   2.323   5.419   8.629 -0.6482 -0.4395 -0.2113
  302MOL0     H40729   2.163   5.465   8.659 -0.7275 -2.1968  0.0890
  302MOL0     H40730   2.221   5.124   8.976  1.3766  1.5519  4.2063
  302MOL0     H40731   2.037   5.129   9.165 -0.8017  1.0884  0.0305
  302MOL0     H40732   1.903   5.354   9.496 -2.4911  4.5510 -0.8760
  302MOL0     H40733   1.800   5.345   9.725 -1.4867  1.6410  0.0426
  302MOL0     H40734   1.682   5.129   9.888  1.6713  0.9516 -0.7071
  302MOL0     H40735   1.648   5.302   9.906 -0.9055 -0.4025  1.4554
  302MOL0     H40736   1.553   5.152  10.086 -1.3337 -0.8616  1.1224
  302MOL0     H40737   1.442   5.257  10.001  0.0034  0.8146 -2.0846
  302MOL0     H40738   1.360   5.084   9.858  3.7677 -0.4919 -3.0389
  302MOL0     H40739   1.493   4.973   9.902 -2.9247 -2.9573 -1.6116
  302MOL0     H40740   1.294   5.088  10.113 -0.6974 -0.7072  2.6541
  302MOL0     H40741   1.424   4.966  10.133  0.0861  0.6853 -0.2686
  302MOL0     H40742   1.281   4.796  10.026 -0.5912 -0.5344  0.7161
  302MOL0     H40743   1.218   4.913   9.924  2.9884 -0.0838 -1.2004
  302MOL0     H40744   1.071   4.809  10.124  2.0373 -1.7822 -0.4301
  302MOL0     H40745   1.157   4.910  10.231  0.6427 -1.9501 -0.7723
  302MOL0     H40746   0.995   5.001   9.976 -0.5968 -3.3975  0.6819
  302MOL0     H40747   1.058   5.110  10.106 -0.3386  0.6012 -1.8437
  302MOL0     H40748   0.825   4.938  10.133 -1.4670  0.3445  1.3437
  302MOL0     H40749   0.926   4.959  10.270 -0.7627 -0.2201 -0.2895
  302MOL0     H40750   1.458   5.140   9.565  0.5680 -0.2538  2.8024
  302MOL0     H40751   1.573   5.137   9.326  1.2412 -1.2537 -0.7849
  302MOL0     H40752   1.834   5.444   8.955  0.4913  1.1247  0.9976
  302MOL0     H40753   1.985   5.458   8.799 -1.5742  2.2235  1.9311
  302MOL0     H40754   3.220   4.983  10.068 -0.6077 -0.2026  0.4799
  302MOL0     H40755   3.153   4.803  10.243 -0.6419 -2.9531 -1.3532
  302MOL0     H40756   2.747   4.608  10.414  1.2277  1.6085 -1.2309
  302MOL0     H40757   2.638   4.451  10.605 -2.1219  1.9558  1.0900
  302MOL0     H40758   2.553   4.550  10.836  2.4754 -0.2913 -3.9751
  302MOL0     H40759   2.576   4.462  10.987 -3.3915 -0.6543  0.8383
  302MOL0     H40760   2.579   4.234  10.806 -1.7879 -0.8189 -3.7118
  302MOL0     H40761   2.479   4.345  10.724  0.7962  0.1978 -0.8305
  302MOL0     H40762   2.443   4.264  11.018  2.0591  4.7585 -1.6466
  302MOL0     H40763   2.370   4.167  10.890  1.8314 -0.2531 -0.2325
  302MOL0     H40764   2.294   4.467  10.932 -0.5413  1.1159 -2.0271
  302MOL0     H40765   2.273   4.366  10.787  1.4652  0.0750 -0.2135
  302MOL0     H40766   1.991   4.208  11.057 -0.6122 -0.6580 -1.3624
  302MOL0     H40767   2.934   4.584  10.865  2.1809 -2.5880 -1.5366
  302MOL0     H40768   3.137   4.764  10.653 -0.9006  1.9464 -1.1191
  302MOL0     H40769   3.038   4.884  10.735  0.9815 -0.0479  1.9038
  302MOL0     H40770   3.088   4.741  10.828  1.5840  3.1258  1.3645
  303MOL0     O40771   2.427   8.337  10.395 -0.7992  1.4624 -0.6469
  303MOL0     C40772   2.422   8.227  10.457 -0.0260 -0.3617 -0.4604
  303MOL0     O40773   2.460   8.209  10.587  0.0984  0.7510  0.0342
  303MOL0     C40774   2.522   8.301  10.663 -0.7409  0.6048 -0.7475
  303MOL0     C40775   2.474   8.330  10.790 -0.8001  0.5082 -1.0671
  303MOL0     C40776   2.539   8.427  10.875 -0.8723  0.0446 -0.3920
  303MOL0     C40777   2.657   8.484  10.830 -0.5432  0.0688 -0.1277
  303MOL0     O40778   2.722   8.563  10.920  0.0954  0.3848 -0.3768
  303MOL0     C40779   2.769   8.683  10.870 -0.9031  0.3503  0.1525
  303MOL0     C40780   2.814   8.751  10.989  0.2315 -0.4860 -0.1434
  303MOL0     C40781   2.954   8.720  11.038 -0.3271  0.0855 -0.5457
  303MOL0     C40782   3.060   8.770  10.951  0.1350  1.5207  0.2233
  303MOL0     C40783   3.201   8.764  11.010  0.6375  0.5513 -0.0391
  303MOL0     C40784   3.305   8.755  10.894  0.6572 -0.4252  0.0595
  303MOL0     C40785   3.439   8.779  10.960 -0.4182 -0.8702  0.6896
  303MOL0     C40786   3.493   8.928  10.970  0.2809  0.2574 -1.0277
  303MOL0     N40787   3.635   8.959  10.928  0.9207  0.6073 -0.2918
  303MOL0     C40788   3.687   9.080  10.915 -1.3750 -0.1736 -0.7264
  303MOL0     C40789   3.819   9.058  10.887 -0.3259  0.8697 -0.0357
  303MOL0     C40790   3.926   9.153  10.871  0.4036 -0.3337 -0.5810
  303MOL0     C40791   3.974   9.241  10.989  0.8190  0.1994  0.0513
  303MOL0     C40792   3.964   9.177  11.130  0.0768 -0.1903 -0.4912
  303MOL0     C40793   4.054   9.247  11.236 -0.1635  0.0389 -0.1868
  303MOL0     O40794   4.189   9.192  11.209  0.8733  0.7882  0.3725
  303MOL0     C40795   4.288   9.240  11.291  0.1752 -1.2027  0.3309
  303MOL0     C40796   4.364   9.354  11.258 -0.3446  0.1937  0.3452
  303MOL0     C40797   4.452   9.409  11.348 -0.2035 -1.0213  0.6121
  303MOL0     C40798   4.473   9.351  11.474  0.9705  0.0850  0.3683
  303MOL0     C40799   4.552   9.418  11.576  0.0992 -0.7973 -0.0686
  303MOL0     O40800   4.588   9.546  11.552  0.2735  0.5571 -0.1560
  303MOL0     C40801   4.714   9.588  11.586  0.1727 -0.5671 -0.9745
  303MOL0     C40802   4.759   9.625  11.714 -0.3836 -1.2879 -0.1635
  303MOL0     C40803   4.885   9.671  11.731 -0.0478 -0.5037  0.9722
  303MOL0     C40804   4.978   9.685  11.631  0.7008  0.1764  0.2823
  303MOL0     O40805   5.097   9.747  11.664  0.5954  0.4906  0.0682
  303MOL0     C40806   5.191   9.791  11.567 -0.4242 -0.2154 -0.3624
  303MOL0     C40807   5.295   9.903  11.608  0.0306  0.2198  0.6853
  303MOL0     C40808   5.389   9.939  11.499  0.5547  0.5863 -0.7260
  303MOL0     C40809   5.490  10.054  11.540  0.3887 -0.0998  0.2623
  303MOL0     C40810   5.608  10.085  11.453 -0.0810 -0.1390 -0.1625
  303MOL0     C40811   5.568  10.117  11.313  0.5438 -0.4287  0.2581
  303MOL0     C40812   5.689  10.159  11.224 -0.9470 -0.1980  0.1631
  303MOL0     C40813   5.650  10.172  11.076 -0.1897  0.0166  0.2343
  303MOL0    Cl40814   5.607  10.009  11.010 -0.2735 -0.2737 -0.1810
  303MOL0     C40815   4.937   9.639  11.504 -0.6063  0.2868 -1.3071
  303MOL0     C40816   4.806   9.598  11.481 -0.2288 -0.3510 -0.2416
  303MOL0     O40817   4.617   9.344  11.651 -0.2880  0.6368  0.3688
  303MOL0     C40818   4.402   9.238  11.504 -0.5971  0.5890  0.2765
  303MOL0     C40819   4.303   9.185  11.422  0.5109  0.0432  0.7785
  303MOL0     N40820   3.827   8.919  10.859  0.1945 -0.4396 -0.2548
  303MOL0     N40821   3.718   8.860  10.895 -0.0977  0.4630  0.5054
  303MOL0     C40822   2.707   8.465  10.702  0.3011  0.8900 -0.7383
  303MOL0     C40823   2.634   8.375  10.616 -0.1753  0.3181  0.4939
  303MOL0     C40824   2.391   8.102  10.388 -0.3549 -0.2556  0.8252
  303MOL0     C40825   2.433   7.984  10.447 -0.2162  0.8326 -0.5260
  303MOL0     C40826   2.404   7.855  10.400  0.2735 -0.5654 -0.3309
  303MOL0     C40827   2.311   7.847  10.295  0.1907 -0.3506 -0.1041
  303MOL0     O40828   2.272   7.722  10.257  0.0564 -0.0318 -0.6078
  303MOL0     C40829   2.341   7.667  10.147 -0.3752 -0.4594 -0.2427
  303MOL0     C40830   2.482   7.613  10.173 -0.7247 -1.4198  0.0437
  303MOL0     C40831   2.538   7.566  10.047 -0.9090  0.2973  0.3979
  303MOL0     C40832   2.680   7.523  10.077  0.3647  0.6083 -0.8264
  303MOL0     C40833   2.753   7.512   9.952 -0.6575  0.4582  0.0112
  303MOL0     C40834   2.813   7.508   9.848  0.0005 -0.6780 -0.2104
  303MOL0     C40835   2.262   7.961  10.232 -0.1567  0.0540  0.3398
  303MOL0     C40836   2.301   8.091  10.275 -0.3856  0.1569 -0.6607
  303MOL0     C40837   2.246   8.209  10.194 -0.1655  0.2030 -0.2757
  303MOL0     H40838   2.387   8.277  10.826 -0.5483  1.2492  0.7799
  303MOL0     H40839   2.505   8.446  10.976  1.0509 -2.6405  0.8787
  303MOL0     H40840   2.849   8.680  10.796  0.2161 -0.8364  1.3676
  303MOL0     H40841   2.689   8.748  10.831 -0.1664  1.7757  0.9468
  303MOL0     H40842   2.742   8.723  11.066 -0.9635 -0.6084 -1.2778
  303MOL0     H40843   2.816   8.859  10.973  0.9299  0.2437  3.7462
  303MOL0     H40844   2.962   8.612  11.053  0.8679  0.3058  0.5446
  303MOL0     H40845   2.962   8.766  11.137  2.9292  0.8532 -1.0443
  303MOL0     H40846   3.053   8.714  10.857  0.0012 -0.2554  1.2594
  303MOL0     H40847   3.032   8.876  10.946 -4.6662  0.5732  2.1126
  303MOL0     H40848   3.219   8.857  11.065 -1.1665  1.0550 -0.2371
  303MOL0     H40849   3.210   8.676  11.075 -2.9396 -0.5215 -0.7413
  303MOL0     H40850   3.295   8.656  10.851 -3.8668 -0.5503  0.8482
  303MOL0     H40851   3.284   8.834  10.821 -0.8826 -0.1205  0.7717
  303MOL0     H40852   3.514   8.737  10.892  0.9453  1.2976  0.7366
  303MOL0     H40853   3.470   8.725  11.049  3.3422  0.4418  0.3535
  303MOL0     H40854   3.425   8.998  10.923  1.0737 -0.2156 -2.9802
  303MOL0     H40855   3.485   8.945  11.078  2.5036 -3.9717  0.0606
  303MOL0     H40856   3.634   9.171  10.942  3.0421  2.5817 -0.4510
  303MOL0     H40857   4.013   9.098  10.833  0.8526  1.1532 -1.8439
  303MOL0     H40858   3.880   9.213  10.792 -1.3655 -0.1377  0.5437
  303MOL0     H40859   4.078   9.269  10.968  0.9380 -1.5187 -2.0290
  303MOL0     H40860   3.905   9.325  10.977  0.3058 -0.0544  1.1277
  303MOL0     H40861   3.985   9.070  11.132  0.2181 -0.1669  1.4009
  303MOL0     H40862   3.862   9.185  11.167 -0.7620  2.2332 -2.9985
  303MOL0     H40863   4.019   9.207  11.331  0.5377 -0.8731 -0.2995
  303MOL0     H40864   4.051   9.356  11.231 -0.4875 -0.0056 -1.1814
  303MOL0     H40865   4.344   9.405  11.164  0.8409 -0.5740 -0.3491
  303MOL0     H40866   4.489   9.505  11.314 -2.3035 -1.2761 -2.8827
  303MOL0     H40867   4.705   9.624  11.808  0.1124 -0.9395  0.1325
  303MOL0     H40868   4.921   9.711  11.825  2.2590 -1.8232  0.6985
  303MOL0     H40869   5.256   9.708  11.538  1.0703 -0.4944  3.2658
  303MOL0     H40870   5.155   9.823  11.469  0.9320 -0.9882 -1.1439
  303MOL0     H40871   5.243   9.990  11.650  0.5557  0.9893 -0.2223
  303MOL0     H40872   5.359   9.862  11.687  0.3225 -0.2335  0.2200
  303MOL0     H40873   5.438   9.842  11.491 -0.6672 -0.0815 -0.4675
  303MOL0     H40874   5.337   9.960  11.405 -0.1719  0.7559 -0.2947
  303MOL0     H40875   5.524  10.033  11.642  0.9591 -2.6333 -0.3835
  303MOL0     H40876   5.430  10.145  11.538  1.5251  0.6540 -0.5041
  303MOL0     H40877   5.669   9.995  11.440 -0.4154 -0.2286 -1.1918
  303MOL0     H40878   5.668  10.160  11.505  0.8779  0.6584 -2.3271
  303MOL0     H40879   5.512  10.035  11.267 -0.1175 -1.9651  3.5370
  303MOL0     H40880   5.501  10.203  11.301  2.5287  1.3928  1.4820
  303MOL0     H40881   5.775  10.091  11.222  2.7716  3.9850 -1.1815
  303MOL0     H40882   5.730  10.256  11.253 -0.2208 -0.0873 -1.1248
  303MOL0     H40883   5.565  10.241  11.067  0.8408  1.1046 -1.9033
  303MOL0     H40884   5.731  10.212  11.015 -0.7099  0.9418  0.1323
  303MOL0     H40885   5.000   9.638  11.415 -1.2230  2.3631 -1.8345
  303MOL0     H40886   4.791   9.562  11.380  0.8404  1.4856 -1.1119
  303MOL0     H40887   4.420   9.190  11.600  4.2405 -2.0846 -1.6316
  303MOL0     H40888   4.234   9.106  11.449  0.1221  0.3357  0.6587
  303MOL0     H40889   2.801   8.508  10.670  0.8653 -0.7764 -1.4082
  303MOL0     H40890   2.670   8.347  10.518 -2.3308  0.7847 -0.4773
  303MOL0     H40891   2.491   7.966  10.536 -0.9626 -1.9954 -0.4903
  303MOL0     H40892   2.425   7.765  10.457  1.8547  0.4546  0.7907
  303MOL0     H40893   2.347   7.751  10.078  2.7043  2.1987  2.8667
  303MOL0     H40894   2.285   7.580  10.111  0.3759 -0.6413 -1.0095
  303MOL0     H40895   2.475   7.530  10.243  2.4880 -2.7306 -1.0197
  303MOL0     H40896   2.537   7.690  10.227 -1.0201 -1.1704 -0.0101
  303MOL0     H40897   2.526   7.644   9.972  0.5281  1.8549  1.7149
  303MOL0     H40898   2.488   7.472  10.021 -2.0444  0.6497  1.2026
  303MOL0     H40899   2.734   7.601  10.131  0.5139 -0.4483  0.6292
  303MOL0     H40900   2.692   7.438  10.146  1.1313 -0.2657 -1.9891
  303MOL0     H40901   2.852   7.498   9.749  2.6345 -5.5405  0.9671
  303MOL0     H40902   2.186   7.953  10.156 -3.1103  2.4657  2.8040
  303MOL0     H40903   2.186   8.272  10.260 -0.5113 -2.5821  2.2673
  303MOL0     H40904   2.323   8.280  10.162 -0.9346  0.0299 -2.7149
  303MOL0     H40905   2.184   8.180  10.109 -1.8739 -0.3967  1.1138
  304MOL0     O40906   1.467   4.144   9.398 -0.1892  0.1705 -0.3786
  304MOL0     C40907   1.398   4.218   9.466  1.6646 -0.1284  0.1224
  304MOL0     O40908   1.446   4.318   9.537  0.4231  0.1629  0.3502
  304MOL0     C40909   1.579   4.359   9.536  0.6743  0.0008  0.1015
  304MOL0     C40910   1.633   4.406   9.658  0.0723 -0.4180  0.7053
  304MOL0     C40911   1.769   4.455   9.661 -0.3712  0.1096  0.1806
  304MOL0     C40912   1.849   4.451   9.548 -0.3427  0.1179  0.0391
  304MOL0     O40913   1.979   4.490   9.539  0.1509  0.7897 -0.2485
  304MOL0     C40914   2.070   4.402   9.613 -0.0726  1.2905  0.7037
  304MOL0     C40915   2.198   4.411   9.546  0.4936 -0.0135 -0.5694
  304MOL0     C40916   2.294   4.504   9.610  0.1697  0.6749 -0.4917
  304MOL0     C40917   2.404   4.550   9.505  0.4673  0.0831  0.9497
  304MOL0     C40918   2.495   4.657   9.570 -0.0780 -0.1652  1.4355
  304MOL0     C40919   2.439   4.797   9.571 -0.1914 -0.2417 -0.4979
  304MOL0     C40920   2.543   4.907   9.587  0.4289  0.7054  0.1331
  304MOL0     C40921   2.624   4.908   9.719 -0.0648 -1.2096  0.9312
  304MOL0     N40922   2.539   4.914   9.834  0.0604 -0.1145  0.0735
  304MOL0     C40923   2.500   4.804   9.904 -0.9718 -0.0682  0.3038
  304MOL0     C40924   2.428   4.856  10.004 -1.1028 -0.8651 -0.3580
  304MOL0     C40925   2.364   4.789  10.120  0.1797  0.3591 -0.0023
  304MOL0     C40926   2.463   4.730  10.215  0.4827  0.2710 -0.1468
  304MOL0     C40927   2.418   4.754  10.365  0.5197  1.1018  0.4130
  304MOL0     C40928   2.285   4.708  10.411  0.3675 -0.2901 -0.4166
  304MOL0     O40929   2.259   4.713  10.557  0.2852  0.7989  0.1343
  304MOL0     C40930   2.137   4.660  10.595 -0.3075  1.5548 -0.5320
  304MOL0     C40931   2.018   4.625  10.521  0.0764  1.0279 -0.2899
  304MOL0     C40932   1.908   4.558  10.574  0.0843 -1.4261 -0.3672
  304MOL0     C40933   1.900   4.543  10.709 -0.6668  0.3173 -0.0340
  304MOL0     C40934   1.783   4.468  10.760 -0.3744 -0.1258 -0.6424
  304MOL0     O40935   1.752   4.493  10.892 -1.0297  0.1789  0.1109
  304MOL0     C40936   1.648   4.430  10.939  0.3660 -0.5230 -0.2759
  304MOL0     C40937   1.536   4.501  10.989  0.2215  0.5834 -0.2194
  304MOL0     C40938   1.432   4.414  11.045 -0.2770 -0.3198  0.1553
  304MOL0     C40939   1.435   4.270  11.059 -0.7452 -0.1659 -0.5025
  304MOL0     O40940   1.349   4.206  11.139  0.5285  0.4299 -0.8104
  304MOL0     C40941   1.296   4.288  11.253  0.5900 -0.0903 -1.2406
  304MOL0     C40942   1.226   4.198  11.354 -0.4680  0.9100  0.1023
  304MOL0     C40943   1.146   4.276  11.462 -0.3311 -0.1451 -0.2449
  304MOL0     C40944   1.034   4.191  11.535 -0.5738  0.4210  0.8876
  304MOL0     C40945   0.969   4.286  11.634  0.9604 -1.1898 -0.1804
  304MOL0     C40946   0.866   4.380  11.565  0.4356  0.3647  0.1388
  304MOL0     C40947   0.804   4.476  11.663 -0.8672 -0.1259  0.4868
  304MOL0     C40948   0.702   4.565  11.589  0.2252 -0.1900 -0.1825
  304MOL0    Cl40949   0.621   4.678  11.699  0.1652  0.0941  0.4767
  304MOL0     C40950   1.552   4.210  11.001 -0.0041 -0.4622 -0.5346
  304MOL0     C40951   1.651   4.295  10.945  0.6489 -0.2131  0.2206
  304MOL0     O40952   1.731   4.380  10.693 -0.0396 -0.5034  0.7787
  304MOL0     C40953   2.011   4.565  10.792  0.5421  0.8817  0.6912
  304MOL0     C40954   2.127   4.626  10.738  0.3319  0.9562  0.3946
  304MOL0     N40955   2.439   4.989   9.995  0.4780 -0.8447 -0.5582
  304MOL0     N40956   2.495   5.027   9.889 -0.3615  0.4148 -0.4560
  304MOL0     C40957   1.795   4.394   9.427  0.1278  0.3190 -0.0333
  304MOL0     C40958   1.665   4.349   9.420 -0.1940 -0.4075  0.6224
  304MOL0     C40959   1.248   4.216   9.452 -0.1720 -0.0826 -0.3560
  304MOL0     C40960   1.179   4.318   9.517 -0.2920 -0.0560 -0.0334
  304MOL0     C40961   1.034   4.328   9.522 -0.4530 -1.1499  0.5370
  304MOL0     C40962   0.958   4.230   9.453  0.4276  0.1637  0.0456
  304MOL0     O40963   0.823   4.236   9.435 -0.1948 -0.1527 -0.0424
  304MOL0     C40964   0.752   4.338   9.499  0.1464  0.2934  0.3725
  304MOL0     C40965   0.614   4.286   9.541  0.0369  0.1269  0.8934
  304MOL0     C40966   0.614   4.157   9.625  0.6286  0.3283 -1.0067
  304MOL0     C40967   0.480   4.093   9.657  0.5207 -0.3637  0.2236
  304MOL0     C40968   0.417   4.028   9.539  0.9868 -0.2506 -0.5180
  304MOL0     C40969   0.347   3.978   9.456  0.1488  0.0917  0.9000
  304MOL0     C40970   1.036   4.117   9.398  0.2848 -0.4495 -0.2870
  304MOL0     C40971   1.173   4.109   9.399 -0.3810  1.4656  0.0165
  304MOL0     C40972   1.234   3.995   9.320 -0.9509  0.7062  1.1972
  304MOL0     H40973   1.569   4.405   9.746 -2.6357  0.5585 -1.1608
  304MOL0     H40974   1.806   4.501   9.752 -1.2765  0.1250  0.5524
  304MOL0     H40975   2.076   4.433   9.718 -1.9978  0.2888  1.1556
  304MOL0     H40976   2.033   4.299   9.617 -1.3768  1.5439 -1.9718
  304MOL0     H40977   2.188   4.436   9.440 -1.2992  0.9823 -0.2187
  304MOL0     H40978   2.248   4.314   9.544 -0.6559 -0.6620  0.5772
  304MOL0     H40979   2.346   4.453   9.691 -1.4826 -0.6016 -0.1879
  304MOL0     H40980   2.256   4.602   9.639 -1.3263 -0.0647  0.1413
  304MOL0     H40981   2.465   4.467   9.468  2.8934  1.8986  0.6169
  304MOL0     H40982   2.354   4.600   9.422 -1.3220  1.1574  2.6092
  304MOL0     H40983   2.526   4.630   9.672 -2.7073 -1.6400  1.9374
  304MOL0     H40984   2.589   4.679   9.518 -1.2144 -0.1186 -0.6969
  304MOL0     H40985   2.383   4.812   9.478 -0.2207 -3.4270 -1.1112
  304MOL0     H40986   2.366   4.799   9.653  0.5277 -0.5210  0.1614
  304MOL0     H40987   2.499   5.007   9.577  2.9446  1.7497 -1.3718
  304MOL0     H40988   2.604   4.900   9.497  1.1786  1.4145  0.5710
  304MOL0     H40989   2.699   4.829   9.716  3.1508  1.6410 -1.0488
  304MOL0     H40990   2.687   4.997   9.714 -2.1095  0.3198  1.2912
  304MOL0     H40991   2.524   4.702   9.877  0.6879  0.9424 -2.4293
  304MOL0     H40992   2.301   4.868  10.163 -0.9947 -0.9257  0.7110
  304MOL0     H40993   2.314   4.709  10.066  2.4944 -0.9465 -0.3283
  304MOL0     H40994   2.467   4.621  10.216 -1.6335  0.1603  0.0346
  304MOL0     H40995   2.560   4.772  10.186 -0.5931  1.0041 -3.0749
  304MOL0     H40996   2.417   4.863  10.376 -1.0110  1.3039 -1.2489
  304MOL0     H40997   2.491   4.706  10.431 -0.9960 -1.1653  0.5570
  304MOL0     H40998   2.261   4.611  10.366 -2.7356  0.5763 -0.8683
  304MOL0     H40999   2.218   4.784  10.368 -1.2137 -2.1593 -1.4293
  304MOL0     H41000   2.017   4.653  10.417  0.5794  2.5053  0.0700
  304MOL0     H41001   1.821   4.542  10.511  1.4358 -3.7183 -1.7629
  304MOL0     H41002   1.524   4.609  10.992 -0.9635  0.4578  0.7346
  304MOL0     H41003   1.338   4.452  11.084 -1.2662 -4.0646  1.7943
  304MOL0     H41004   1.376   4.347  11.298 -0.6725  1.2323 -0.6743
  304MOL0     H41005   1.219   4.360  11.224  1.5864  2.0901  1.1380
  304MOL0     H41006   1.163   4.125  11.302  0.9073 -0.8558  0.8241
  304MOL0     H41007   1.303   4.140  11.405 -0.2891  1.4137  0.4172
  304MOL0     H41008   1.211   4.313  11.542  1.7373 -0.5693 -1.6428
  304MOL0     H41009   1.092   4.360  11.418  0.1372  1.9321  2.8332
  304MOL0     H41010   1.079   4.112  11.596 -2.0626 -1.9227 -0.9005
  304MOL0     H41011   0.967   4.135  11.469  0.7440 -4.1348  3.0260
  304MOL0     H41012   1.034   4.354  11.689 -0.2710 -0.7810  0.8132
  304MOL0     H41013   0.921   4.219  11.705  1.2836 -0.8395  0.3730
  304MOL0     H41014   0.913   4.436  11.483  0.2988  0.5875  0.2104
  304MOL0     H41015   0.796   4.326  11.500  0.7613  1.5113 -1.2074
  304MOL0     H41016   0.883   4.537  11.706 -0.7966  2.0520 -2.3722
  304MOL0     H41017   0.765   4.423  11.751  1.9350  0.3070  2.0889
  304MOL0     H41018   0.753   4.619  11.508 -2.0356  0.3886 -1.2970
  304MOL0     H41019   0.631   4.507  11.530  1.7758 -1.0357 -1.3218
  304MOL0     H41020   1.564   4.102  11.008 -0.8141 -0.4738  1.0331
  304MOL0     H41021   1.732   4.235  10.905  0.2328  0.0486 -1.0848
  304MOL0     H41022   1.996   4.544  10.898  0.0269  1.1091  0.6645
  304MOL0     H41023   2.210   4.657  10.802  0.0408 -0.2020  1.3720
  304MOL0     H41024   1.855   4.395   9.336 -1.6132 -0.3599 -1.2412
  304MOL0     H41025   1.646   4.320   9.317 -0.6208  3.9499 -0.7420
  304MOL0     H41026   1.233   4.391   9.577  0.3876 -1.5942  1.2697
  304MOL0     H41027   0.997   4.418   9.570  0.2170 -1.3020  1.3544
  304MOL0     H41028   0.732   4.421   9.431 -0.0173 -0.9646 -1.1644
  304MOL0     H41029   0.798   4.368   9.594  0.6804  1.4806 -0.2408
  304MOL0     H41030   0.563   4.270   9.445  2.6161  0.5850 -0.6345
  304MOL0     H41031   0.563   4.368   9.594  1.2810  1.0381  0.7137
  304MOL0     H41032   0.651   4.190   9.723  0.8838 -0.4543 -0.8372
  304MOL0     H41033   0.682   4.087   9.575  2.4594  2.7228 -2.1018
  304MOL0     H41034   0.488   4.018   9.736  0.0934 -0.4254  0.2068
  304MOL0     H41035   0.413   4.173   9.691  1.2431  0.5671 -0.4794
  304MOL0     H41036   0.289   3.919   9.388  1.8196 -1.3820  0.6798
  304MOL0     H41037   0.983   4.043   9.338  2.3668 -0.5117 -2.1810
  304MOL0     H41038   1.157   3.935   9.270  2.4450 -1.3239 -2.0428
  304MOL0     H41039   1.287   4.040   9.236 -2.7312  2.1142  0.7580
  304MOL0     H41040   1.297   3.929   9.381  2.4724 -0.0666 -2.7567
  305MOL0     O41041   1.451   2.942   2.131  0.3651  0.3450  0.5883
  305MOL0     C41042   1.346   2.964   2.061 -0.4109 -0.6024  0.2364
  305MOL0     O41043   1.328   2.920   1.936  0.1318 -0.2604  0.1091
  305MOL0     C41044   1.425   2.850   1.868 -0.0879 -1.2977  0.5952
  305MOL0     C41045   1.387   2.736   1.797 -0.0293 -0.6799 -0.9777
  305MOL0     C41046   1.484   2.663   1.731 -0.6195 -0.0857 -1.2018
  305MOL0     C41047   1.619   2.684   1.728  0.2326 -0.3928  0.2123
  305MOL0     O41048   1.717   2.616   1.667  0.0340  0.8300 -0.0500
  305MOL0     C41049   1.678   2.532   1.559  0.3871  0.2182  0.4223
  305MOL0     C41050   1.803   2.450   1.525 -0.2924 -0.2145  1.0579
  305MOL0     C41051   1.797   2.359   1.390 -0.8875  0.1198 -0.5903
  305MOL0     C41052   1.752   2.425   1.263 -0.0534  0.2275  0.4625
  305MOL0     C41053   1.817   2.563   1.228 -0.4820  0.1086 -0.3381
  305MOL0     C41054   1.973   2.539   1.216 -0.1450 -0.0619  0.3249
  305MOL0     C41055   2.030   2.663   1.141  0.0266  0.1045 -0.7674
  305MOL0     C41056   2.184   2.643   1.110 -0.3298 -0.3664 -0.2383
  305MOL0     N41057   2.263   2.766   1.113  0.8678  0.0201 -0.5335
  305MOL0     C41058   2.271   2.837   1.227 -0.7989 -0.4578  0.4001
  305MOL0     C41059   2.364   2.932   1.201  0.0929 -0.4456 -0.0029
  305MOL0     C41060   2.438   3.030   1.289 -0.2290  0.5092  1.0511
  305MOL0     C41061   2.491   2.977   1.417 -0.0034 -0.0506  0.2901
  305MOL0     C41062   2.614   2.886   1.395 -0.1632 -0.5979  0.3413
  305MOL0     C41063   2.662   2.839   1.532  0.1127  0.0905 -0.8524
  305MOL0     O41064   2.785   2.906   1.584  0.4940 -0.1339  0.1951
  305MOL0     C41065   2.908   2.868   1.535  0.8124 -0.2561 -0.5726
  305MOL0     C41066   3.020   2.935   1.587  0.8686  0.2268 -0.3674
  305MOL0     C41067   3.143   2.906   1.528  0.6201  0.0224  0.1839
  305MOL0     C41068   3.160   2.814   1.431  0.2670  0.0154  0.6063
  305MOL0     C41069   3.288   2.797   1.364  0.1785 -0.9464 -0.3465
  305MOL0     O41070   3.284   2.712   1.258  0.1080  0.2764 -0.4042
  305MOL0     C41071   3.403   2.696   1.203 -0.0201  0.2022  0.5209
  305MOL0     C41072   3.420   2.755   1.081  0.4925 -0.1850  0.4126
  305MOL0     C41073   3.545   2.751   1.025 -0.1328 -0.5981 -0.5933
  305MOL0     C41074   3.653   2.683   1.085  0.4199 -0.0371  0.7391
  305MOL0     O41075   3.774   2.698   1.020  0.2925  0.2496 -0.5278
  305MOL0     C41076   3.887   2.622   1.065 -0.1542  0.2573  0.9171
  305MOL0     C41077   3.880   2.480   1.005  0.0554 -1.3702 -0.9781
  305MOL0     C41078   3.996   2.389   1.046 -0.0285  0.7338  0.0361
  305MOL0     C41079   4.035   2.295   0.934 -0.2480 -0.2252 -0.3700
  305MOL0     C41080   4.108   2.170   0.992  0.3361 -0.3904 -0.1027
  305MOL0     C41081   4.243   2.216   1.059 -0.0005  0.1354  0.0965
  305MOL0     C41082   4.320   2.075   1.080 -0.6442 -1.1139 -0.8574
  305MOL0     C41083   4.434   2.105   1.180  0.0197 -0.1884  0.8022
  305MOL0    Cl41084   4.605   2.062   1.132 -0.5938  0.1484  0.1883
  305MOL0     C41085   3.624   2.622   1.202 -0.4581  0.3446 -0.8417
  305MOL0     C41086   3.502   2.622   1.262  1.0381 -0.4682 -0.8257
  305MOL0     O41087   3.387   2.855   1.412  0.5892  0.1056  0.6923
  305MOL0     C41088   3.051   2.736   1.388  0.0034 -0.5455 -0.1363
  305MOL0     C41089   2.923   2.767   1.442  0.2220  1.0771  0.5040
  305MOL0     N41090   2.408   2.911   1.075  1.3512  1.1859 -0.0785
  305MOL0     N41091   2.356   2.802   1.024  0.4082 -0.1126 -0.1078
  305MOL0     C41092   1.659   2.793   1.808 -1.0216 -0.1245  0.0953
  305MOL0     C41093   1.565   2.883   1.872  1.1233  0.1342  0.1993
  305MOL0     C41094   1.229   3.039   2.135 -0.6857 -0.1314  0.1917
  305MOL0     C41095   1.229   3.050   2.274 -0.1583  0.6681 -0.4563
  305MOL0     C41096   1.126   3.115   2.339  0.2606 -0.3075  0.0235
  305MOL0     C41097   1.013   3.165   2.280 -0.0168 -0.0224  0.6292
  305MOL0     O41098   0.906   3.230   2.338  1.1621 -0.4635  0.5253
  305MOL0     C41099   0.880   3.209   2.477 -0.4334  0.3916 -1.0811
  305MOL0     C41100   0.734   3.252   2.535 -0.0783  0.2761  1.0028
  305MOL0     C41101   0.627   3.192   2.448 -0.1690  0.6668  0.5034
  305MOL0     C41102   0.481   3.200   2.513 -0.2201  0.5054 -0.0831
  305MOL0     C41103   0.453   3.091   2.609  0.1160  0.4654  0.1827
  305MOL0     C41104   0.429   2.994   2.683  0.2898 -1.1632  0.9119
  305MOL0     C41105   1.018   3.165   2.138 -0.0684  0.5508 -0.0245
  305MOL0     C41106   1.125   3.103   2.067 -0.1851 -0.5428  0.4713
  305MOL0     C41107   1.113   3.117   1.917 -0.9010  0.2608  0.1585
  305MOL0     H41108   1.284   2.700   1.790 -1.8890  3.1202  2.6492
  305MOL0     H41109   1.451   2.576   1.675 -2.7356 -0.5511  0.6175
  305MOL0     H41110   1.599   2.459   1.578  0.1167  0.7823  1.5986
  305MOL0     H41111   1.653   2.598   1.475  0.0887  0.4809  0.7098
  305MOL0     H41112   1.822   2.379   1.606 -2.2279 -1.3858  0.5361
  305MOL0     H41113   1.892   2.514   1.519 -0.4186 -0.1031  0.3152
  305MOL0     H41114   1.730   2.278   1.422  0.0885 -0.9457 -1.1917
  305MOL0     H41115   1.894   2.310   1.378 -1.0449 -1.2126  2.6162
  305MOL0     H41116   1.772   2.355   1.182  0.8480  1.9085 -0.8185
  305MOL0     H41117   1.645   2.435   1.284  0.4200  3.3354  1.9625
  305MOL0     H41118   1.777   2.597   1.132 -0.0747  0.9913 -0.2037
  305MOL0     H41119   1.803   2.636   1.309  2.9466  0.8073 -0.1989
  305MOL0     H41120   2.019   2.527   1.314  0.5500  0.5950  0.0941
  305MOL0     H41121   1.996   2.448   1.160  2.3905  0.8266 -0.1956
  305MOL0     H41122   2.018   2.752   1.203  2.4863  1.1921 -1.7160
  305MOL0     H41123   1.975   2.676   1.048 -2.3371 -1.8201  0.2637
  305MOL0     H41124   2.229   2.574   1.182 -0.7146 -1.5937 -1.1164
  305MOL0     H41125   2.189   2.599   1.010 -2.3514  0.4904 -0.7636
  305MOL0     H41126   2.230   2.805   1.322 -1.9645 -0.8889 -0.2376
  305MOL0     H41127   2.517   3.083   1.234 -1.3211  1.9177  0.7738
  305MOL0     H41128   2.366   3.104   1.326 -1.1242 -1.3887  3.3410
  305MOL0     H41129   2.528   3.061   1.477  0.6358  0.5027 -0.8593
  305MOL0     H41130   2.422   2.928   1.487  0.8653  0.7001  1.7309
  305MOL0     H41131   2.696   2.936   1.343 -1.0691  1.7218  1.0237
  305MOL0     H41132   2.590   2.796   1.337 -2.7502  0.6796 -0.7585
  305MOL0     H41133   2.680   2.732   1.528  4.0959  0.4992  1.1863
  305MOL0     H41134   2.588   2.863   1.609  0.8264  1.8962 -0.6591
  305MOL0     H41135   3.000   3.015   1.658  0.9738  1.1997 -1.4150
  305MOL0     H41136   3.228   2.959   1.568  0.9080  0.4521 -0.9414
  305MOL0     H41137   3.348   2.820   1.033  1.0104 -1.0139 -1.6408
  305MOL0     H41138   3.567   2.820   0.944  0.4176 -0.8877 -0.6956
  305MOL0     H41139   3.982   2.666   1.034 -0.4708  0.1193 -0.3331
  305MOL0     H41140   3.886   2.636   1.173 -0.3107  2.3877  0.6970
  305MOL0     H41141   3.792   2.427   1.043 -0.0244 -1.6213 -1.5137
  305MOL0     H41142   3.883   2.490   0.896  1.8282  1.1970 -0.7676
  305MOL0     H41143   4.086   2.450   1.056  0.4227 -0.0211  0.6729
  305MOL0     H41144   3.972   2.332   1.137  0.0866 -2.9226 -2.0299
  305MOL0     H41145   4.100   2.331   0.853  0.2594  1.4974  0.7544
  305MOL0     H41146   3.946   2.251   0.889 -1.0250  0.5003  0.4471
  305MOL0     H41147   4.126   2.092   0.917 -0.9476 -0.4859 -0.3330
  305MOL0     H41148   4.038   2.136   1.068  0.5382  2.4740  1.5087
  305MOL0     H41149   4.285   2.277   0.978 -0.9870  0.2628 -0.3281
  305MOL0     H41150   4.228   2.281   1.146  1.1895 -1.4734  1.5731
  305MOL0     H41151   4.353   2.040   0.982  2.8687  0.0925 -0.2603
  305MOL0     H41152   4.258   1.998   1.126 -2.1981 -1.0642 -2.7785
  305MOL0     H41153   4.440   2.211   1.207  2.1622 -0.8630  3.3578
  305MOL0     H41154   4.412   2.046   1.269  1.7076 -1.5921  0.3424
  305MOL0     H41155   3.693   2.565   1.264 -2.0458  0.5844  1.2355
  305MOL0     H41156   3.501   2.585   1.364  0.9868  2.7834  0.4606
  305MOL0     H41157   3.058   2.654   1.317 -1.4160 -0.1082 -0.8198
  305MOL0     H41158   2.839   2.704   1.412 -0.7657  2.8165 -0.5731
  305MOL0     H41159   1.763   2.819   1.798 -1.2509 -0.0562 -3.1963
  305MOL0     H41160   1.599   2.973   1.922 -2.9143  1.4464  0.9529
  305MOL0     H41161   1.313   3.010   2.331 -1.1884  1.6749  1.9100
  305MOL0     H41162   1.139   3.128   2.446  2.5235 -0.6122 -0.1744
  305MOL0     H41163   0.952   3.269   2.535 -0.2499  2.4753 -3.2998
  305MOL0     H41164   0.899   3.102   2.491  0.2631  0.3849 -1.9711
  305MOL0     H41165   0.729   3.360   2.547 -1.4470 -0.0156  3.7748
  305MOL0     H41166   0.720   3.210   2.635 -0.6233  0.5084  1.0273
  305MOL0     H41167   0.634   3.085   2.426 -2.2123  0.4232  0.8348
  305MOL0     H41168   0.630   3.243   2.351 -0.1229 -2.9709 -1.6366
  305MOL0     H41169   0.465   3.305   2.541 -1.3388  0.8673 -1.8952
  305MOL0     H41170   0.406   3.188   2.434 -0.3719  0.8579  0.0074
  305MOL0     H41171   0.392   2.913   2.742  1.1079 -1.3183  1.2214
  305MOL0     H41172   0.937   3.208   2.080 -0.8989  1.1547  1.5142
  305MOL0     H41173   1.037   3.188   1.885 -0.5258  0.5390 -0.1253
  305MOL0     H41174   1.209   3.147   1.872 -0.0508 -2.3425  0.0609
  305MOL0     H41175   1.088   3.018   1.878  1.5865 -0.3242 -0.1549
  306MOL0     O41176   4.420   6.070   1.714  1.0850  0.0684  0.5721
  306MOL0     C41177   4.333   6.106   1.793 -0.1098 -0.0851 -0.2467
  306MOL0     O41178   4.357   6.166   1.915  0.5828 -0.2240  0.8842
  306MOL0     C41179   4.492   6.159   1.952  0.6982  0.0227  1.0173
  306MOL0     C41180   4.523   6.263   2.031  0.0556  0.6194 -0.1607
  306MOL0     C41181   4.652   6.278   2.079  0.4953  1.0489 -0.7077
  306MOL0     C41182   4.753   6.190   2.048 -0.4920 -0.9962  1.1696
  306MOL0     O41183   4.881   6.223   2.092  0.2847  0.3563 -0.0072
  306MOL0     C41184   4.986   6.138   2.050 -0.8529  0.0367  0.6697
  306MOL0     C41185   5.135   6.186   2.090 -0.4286  0.8285  0.4304
  306MOL0     C41186   5.140   6.224   2.240 -0.4949  0.1075  0.3667
  306MOL0     C41187   5.234   6.340   2.266  0.1361 -0.5472  0.6328
  306MOL0     C41188   5.385   6.323   2.233  0.3068  0.4441 -0.3820
  306MOL0     C41189   5.460   6.228   2.326 -0.7065 -0.5204 -0.1447
  306MOL0     C41190   5.611   6.227   2.288 -0.4507 -0.4789  0.1660
  306MOL0     C41191   5.700   6.341   2.363 -0.9442 -0.1123 -0.6944
  306MOL0     N41192   5.835   6.375   2.310  0.6696 -0.2576  0.8673
  306MOL0     C41193   5.883   6.349   2.182  0.2523  0.4186 -0.8508
  306MOL0     C41194   6.004   6.411   2.184 -0.2836  0.6652 -0.8019
  306MOL0     C41195   6.096   6.421   2.057  0.4701  0.1059 -0.0835
  306MOL0     C41196   6.219   6.511   2.082 -0.5498 -0.5467 -0.2310
  306MOL0     C41197   6.327   6.434   2.149  0.1923  0.0214 -0.2080
  306MOL0     C41198   6.449   6.527   2.143 -0.6806 -0.2110  0.7122
  306MOL0     O41199   6.429   6.650   2.228 -0.8130 -0.1351  0.2977
  306MOL0     C41200   6.525   6.741   2.237  0.0273  0.3528 -0.3116
  306MOL0     C41201   6.488   6.845   2.322 -0.6403 -0.0807 -1.2970
  306MOL0     C41202   6.572   6.959   2.328 -0.2915  0.5426 -0.1758
  306MOL0     C41203   6.694   6.965   2.263  0.0504  0.7980  0.3381
  306MOL0     C41204   6.777   7.088   2.265 -0.0145  0.3510  0.3638
  306MOL0     O41205   6.733   7.183   2.359 -0.8005  0.5507 -0.3922
  306MOL0     C41206   6.788   7.309   2.369  0.0444  0.2013 -0.6362
  306MOL0     C41207   6.864   7.375   2.269  0.1482  0.8841  0.1000
  306MOL0     C41208   6.923   7.497   2.296  0.5975 -1.5498 -0.1660
  306MOL0     C41209   6.897   7.570   2.413 -0.6010 -0.8809  0.1399
  306MOL0     O41210   6.956   7.696   2.425 -0.2939  0.8950  0.3659
  306MOL0     C41211   6.990   7.738   2.560  0.0618 -1.0036 -0.1100
  306MOL0     C41212   7.106   7.655   2.616 -1.4343  0.2392  0.5035
  306MOL0     C41213   7.229   7.669   2.527 -0.8492  0.3905 -0.4880
  306MOL0     C41214   7.348   7.610   2.600  0.2326 -0.4854 -0.3541
  306MOL0     C41215   7.453   7.575   2.494  0.5456 -0.0743 -0.6815
  306MOL0     C41216   7.574   7.514   2.559  0.3279  0.1141 -0.1374
  306MOL0     C41217   7.687   7.491   2.456  0.4940 -0.2760 -1.0690
  306MOL0     C41218   7.806   7.415   2.514 -0.2866 -0.0384  0.2007
  306MOL0    Cl41219   7.928   7.380   2.382 -0.4666  0.2703 -0.2696
  306MOL0     C41220   6.814   7.513   2.514 -0.0552 -0.6670 -0.3348
  306MOL0     C41221   6.757   7.390   2.483  1.0489  0.2148  0.0967
  306MOL0     O41222   6.876   7.093   2.190 -0.2354  0.7010 -0.0464
  306MOL0     C41223   6.739   6.850   2.188  0.1453  0.5878 -0.7595
  306MOL0     C41224   6.652   6.742   2.179 -0.6558 -0.9274 -0.5311
  306MOL0     N41225   6.029   6.467   2.307  0.0936  0.8574  0.6334
  306MOL0     N41226   5.923   6.447   2.381  0.1664  0.2464 -0.2844
  306MOL0     C41227   4.720   6.075   1.981 -0.1567 -0.0152 -0.4761
  306MOL0     C41228   4.584   6.059   1.936 -0.0963  1.6540 -0.4233
  306MOL0     C41229   4.194   6.055   1.772  0.0745  0.0984 -0.3552
  306MOL0     C41230   4.107   6.046   1.884  0.2361 -0.6242 -0.0092
  306MOL0     C41231   3.978   6.000   1.877 -0.2083 -0.2818 -0.2432
  306MOL0     C41232   3.922   5.942   1.759 -0.0746  0.5918 -0.4892
  306MOL0     O41233   3.795   5.899   1.747  0.2162  0.3886  0.3195
  306MOL0     C41234   3.708   5.890   1.862 -0.6917 -0.0496  0.1101
  306MOL0     C41235   3.732   5.758   1.936 -0.3707 -0.2187 -0.2286
  306MOL0     C41236   3.603   5.704   2.011  0.0492 -0.0984 -0.0440
  306MOL0     C41237   3.571   5.766   2.151  0.4755  0.0605  0.6422
  306MOL0     C41238   3.536   5.903   2.148 -0.3626 -0.2295  0.8956
  306MOL0     C41239   3.492   6.016   2.151 -0.7634  0.5702 -0.0924
  306MOL0     C41240   4.012   5.932   1.649  0.0160 -0.5509  0.3014
  306MOL0     C41241   4.142   5.994   1.652 -0.2459 -0.0119 -0.9366
  306MOL0     C41242   4.216   6.010   1.518  0.3216 -0.0153 -0.2408
  306MOL0     H41243   4.448   6.336   2.061 -0.3116 -0.6039  2.1501
  306MOL0     H41244   4.678   6.363   2.141 -2.2333  1.9059 -0.5983
  306MOL0     H41245   4.976   6.044   2.105  0.5124 -2.1146 -2.4558
  306MOL0     H41246   4.991   6.111   1.944 -0.6173  1.8486  0.1766
  306MOL0     H41247   5.167   6.267   2.025 -0.0200 -0.8630 -1.5554
  306MOL0     H41248   5.207   6.107   2.070 -2.4290 -0.8353 -0.5425
  306MOL0     H41249   5.178   6.139   2.297  0.5792 -1.0168 -1.9211
  306MOL0     H41250   5.044   6.266   2.271 -1.7200 -1.2991 -1.3694
  306MOL0     H41251   5.184   6.424   2.218  0.4389 -1.0488 -0.6049
  306MOL0     H41252   5.224   6.360   2.373 -3.1127 -0.4418  0.4136
  306MOL0     H41253   5.397   6.299   2.127 -0.4617  0.4703 -0.4865
  306MOL0     H41254   5.428   6.423   2.241  2.8259 -0.0808 -4.6093
  306MOL0     H41255   5.464   6.252   2.432  0.6140 -2.3857  0.2896
  306MOL0     H41256   5.420   6.126   2.322 -3.3902  0.2971  2.4076
  306MOL0     H41257   5.620   6.246   2.180 -4.0949  0.2358 -0.1262
  306MOL0     H41258   5.652   6.130   2.317 -1.3303  0.1754  4.1684
  306MOL0     H41259   5.643   6.433   2.350 -1.2202 -0.4369 -1.9616
  306MOL0     H41260   5.710   6.312   2.468  0.8616 -0.6998 -0.9876
  306MOL0     H41261   5.829   6.304   2.100 -4.3043  2.8507  0.4944
  306MOL0     H41262   6.118   6.325   2.011  0.1190  1.1439 -2.6012
  306MOL0     H41263   6.031   6.471   1.985  1.8424  1.7435 -0.2509
  306MOL0     H41264   6.253   6.541   1.982 -2.2547  3.4400  0.2193
  306MOL0     H41265   6.186   6.603   2.131  0.5185 -1.8521  3.1968
  306MOL0     H41266   6.345   6.335   2.106  3.6398  0.0070  0.9014
  306MOL0     H41267   6.298   6.422   2.254  0.2121  0.8244 -0.1000
  306MOL0     H41268   6.467   6.556   2.039  0.2400  1.1671  1.2472
  306MOL0     H41269   6.530   6.471   2.189  1.2524  0.9221 -1.1491
  306MOL0     H41270   6.390   6.847   2.369 -0.7486  1.2031 -1.5323
  306MOL0     H41271   6.549   7.040   2.397  2.3457  0.0461  1.4678
  306MOL0     H41272   6.861   7.325   2.173  1.4087 -1.4778  1.2093
  306MOL0     H41273   6.978   7.550   2.219  0.1252 -0.6027  0.1333
  306MOL0     H41274   7.013   7.844   2.547 -4.9050  0.9291  3.7327
  306MOL0     H41275   6.911   7.743   2.635  1.6935  0.0218  1.5991
  306MOL0     H41276   7.134   7.678   2.719  1.0004 -2.4678  0.5451
  306MOL0     H41277   7.088   7.548   2.620  3.9513 -1.0407 -1.0507
  306MOL0     H41278   7.207   7.617   2.433  1.2274  0.6608 -1.1970
  306MOL0     H41279   7.256   7.774   2.511  2.0095 -0.1453  0.1585
  306MOL0     H41280   7.317   7.516   2.646  1.5607  0.1677  2.0593
  306MOL0     H41281   7.396   7.680   2.669  2.5797 -0.5207 -1.8270
  306MOL0     H41282   7.481   7.667   2.442  0.2487  0.6330  0.3967
  306MOL0     H41283   7.423   7.497   2.423 -0.3009  0.6002 -1.0861
  306MOL0     H41284   7.620   7.575   2.638  1.5383 -1.6303  0.5497
  306MOL0     H41285   7.551   7.413   2.593  2.8789 -0.7140 -0.6683
  306MOL0     H41286   7.717   7.593   2.433 -0.5545  0.5265  0.8832
  306MOL0     H41287   7.647   7.445   2.365 -0.6937  1.5187 -1.4815
  306MOL0     H41288   7.851   7.453   2.606  0.6319 -1.5634  0.4149
  306MOL0     H41289   7.767   7.317   2.546 -0.9743  0.4817  0.9940
  306MOL0     H41290   6.789   7.571   2.602 -3.1764  0.4836 -1.8093
  306MOL0     H41291   6.671   7.354   2.539  0.2646 -1.4130 -2.0337
  306MOL0     H41292   6.830   6.835   2.132  0.2173 -2.5438  0.0000
  306MOL0     H41293   6.676   6.660   2.112 -0.2090 -0.8786 -0.4385
  306MOL0     H41294   4.799   6.004   1.956  1.1531  1.4238 -0.6269
  306MOL0     H41295   4.555   5.972   1.877  2.6561  0.4966 -0.1917
  306MOL0     H41296   4.122   6.082   1.985 -5.6879 -3.4920  2.3745
  306MOL0     H41297   3.927   5.990   1.972 -2.4885 -1.3251 -1.5015
  306MOL0     H41298   3.606   5.893   1.823 -0.0498  1.8187 -1.6393
  306MOL0     H41299   3.716   5.974   1.932 -3.7541 -1.7086  2.7523
  306MOL0     H41300   3.819   5.773   2.001 -1.1874  1.0685  0.6214
  306MOL0     H41301   3.760   5.687   1.857  0.0942  0.2245 -0.4655
  306MOL0     H41302   3.626   5.599   2.032  1.4615  0.9082  4.7691
  306MOL0     H41303   3.522   5.722   1.940 -0.8389  4.8561  1.8438
  306MOL0     H41304   3.490   5.701   2.186 -1.6928  1.4035 -1.5591
  306MOL0     H41305   3.651   5.765   2.226  0.1066 -0.8202  1.0426
  306MOL0     H41306   3.445   6.109   2.176  2.0232  1.3670  2.7777
  306MOL0     H41307   3.967   5.891   1.559 -1.6997 -1.2279  1.4361
  306MOL0     H41308   4.296   5.935   1.509  0.1359 -0.2527  0.0588
  306MOL0     H41309   4.153   5.997   1.430 -1.0487 -3.5114  1.0359
  306MOL0     H41310   4.253   6.112   1.521  0.4871 -0.0685  2.3300
  307MOL0     O41311   5.150   5.311  10.599  0.4367  0.3086 -0.2748
  307MOL0     C41312   5.143   5.198  10.636 -0.4098  0.1909 -0.5499
  307MOL0     O41313   5.177   5.083  10.566 -0.2069  0.4812  0.2593
  307MOL0     C41314   5.256   5.092  10.460  0.3272  0.1354  0.4118
  307MOL0     C41315   5.242   5.003  10.352  0.4019 -0.5951 -0.8136
  307MOL0     C41316   5.322   5.010  10.237  0.5658 -0.5718  0.0236
  307MOL0     C41317   5.426   5.098  10.234 -0.3367 -0.6305 -0.0001
  307MOL0     O41318   5.499   5.119  10.123  0.4406  0.3665 -0.0326
  307MOL0     C41319   5.503   5.017  10.016  0.1791  0.2934  0.2796
  307MOL0     C41320   5.594   5.052   9.910 -0.0787  0.7413 -0.2371
  307MOL0     C41321   5.738   5.026   9.954 -0.0536  0.5305 -0.1836
  307MOL0     C41322   5.830   5.072   9.832  0.1184  0.0018 -0.1163
  307MOL0     C41323   5.976   5.013   9.851  0.2065 -0.1296  0.0273
  307MOL0     C41324   5.987   4.863   9.795 -0.1468 -0.8635  0.3077
  307MOL0     C41325   6.108   4.798   9.852  0.4869  0.1687 -0.1005
  307MOL0     C41326   6.245   4.848   9.805  0.0386  0.2450  0.3917
  307MOL0     N41327   6.299   4.811   9.673 -0.4094  0.3071  0.2101
  307MOL0     C41328   6.332   4.683   9.634  1.2645  0.3588 -0.6585
  307MOL0     C41329   6.370   4.695   9.506  0.1056  0.2859 -0.3889
  307MOL0     C41330   6.417   4.584   9.422 -0.3220  0.0670 -0.8200
  307MOL0     C41331   6.567   4.581   9.405 -0.3090 -0.5653  0.4517
  307MOL0     C41332   6.635   4.508   9.521 -0.2155 -0.1672  0.8170
  307MOL0     C41333   6.784   4.499   9.475  0.6026 -0.4839 -0.7835
  307MOL0     O41334   6.796   4.393   9.381  0.3866  0.8880 -0.4745
  307MOL0     C41335   6.917   4.369   9.324 -0.2202  0.2474 -0.5401
  307MOL0     C41336   6.916   4.287   9.213  0.2415 -0.1329  0.1603
  307MOL0     C41337   7.030   4.246   9.149  0.3708 -0.0774 -0.2919
  307MOL0     C41338   7.155   4.266   9.203 -0.6806 -0.0898 -0.9354
  307MOL0     C41339   7.281   4.226   9.132  1.1451 -0.1147  0.4319
  307MOL0     O41340   7.385   4.215   9.212 -0.5995 -0.4898  0.3429
  307MOL0     C41341   7.509   4.193   9.164  0.0851  0.1147 -0.2817
  307MOL0     C41342   7.614   4.259   9.233  0.4454  0.0919 -0.8611
  307MOL0     C41343   7.747   4.223   9.201  0.4263 -0.2716  0.7635
  307MOL0     C41344   7.770   4.132   9.094  0.1011  0.0784  0.1144
  307MOL0     O41345   7.907   4.108   9.066 -0.1011  0.4570 -0.5759
  307MOL0     C41346   7.952   3.966   9.066 -0.0408  0.4739  0.2518
  307MOL0     C41347   8.099   3.956   9.112 -0.6591 -0.2376  0.6994
  307MOL0     C41348   8.143   3.803   9.095  0.0117 -0.6945  0.7640
  307MOL0     C41349   8.131   3.739   8.948  1.0586  0.6242  0.1938
  307MOL0     C41350   8.209   3.607   8.924  0.1817 -0.3410 -0.5837
  307MOL0     C41351   8.364   3.631   8.925 -0.1944 -0.5242  0.2427
  307MOL0     C41352   8.444   3.503   8.918 -0.4193  1.1182  0.1301
  307MOL0     C41353   8.586   3.508   8.985  0.2204 -0.3221 -0.1209
  307MOL0    Cl41354   8.663   3.348   8.981 -0.5814 -0.1152 -0.0039
  307MOL0     C41355   7.663   4.068   9.037  0.1505  0.3542  0.1225
  307MOL0     C41356   7.536   4.100   9.071  0.1062  0.1545 -0.2867
  307MOL0     O41357   7.268   4.185   9.018  0.0173 -0.6043  0.5898
  307MOL0     C41358   7.158   4.343   9.322 -0.7622 -0.0375  0.2159
  307MOL0     C41359   7.042   4.403   9.373  0.2697  0.6659 -0.5149
  307MOL0     N41360   6.370   4.828   9.469 -0.6197 -0.0873  0.8860
  307MOL0     N41361   6.327   4.895   9.573 -0.5251 -0.8934 -0.2430
  307MOL0     C41362   5.455   5.180  10.341  0.6758 -0.0819  0.2910
  307MOL0     C41363   5.363   5.178  10.453 -0.0300  0.7514 -0.0014
  307MOL0     C41364   5.039   5.173  10.731  0.0377  0.0097 -0.5173
  307MOL0     C41365   4.942   5.072  10.713  0.2916 -1.0496  0.4720
  307MOL0     C41366   4.842   5.052  10.805  0.6146 -0.0528  0.4838
  307MOL0     C41367   4.819   5.130  10.909 -0.1264 -0.8916 -0.4682
  307MOL0     O41368   4.709   5.091  10.988  0.6845 -0.5369 -0.2568
  307MOL0     C41369   4.700   5.143  11.115 -0.1183 -0.4714  0.1439
  307MOL0     C41370   4.598   5.261  11.105  0.3756 -0.2283 -0.2038
  307MOL0     C41371   4.470   5.219  11.041  0.6575 -0.2012  0.2698
  307MOL0     C41372   4.384   5.132  11.125  1.1009  0.9977  0.1850
  307MOL0     C41373   4.247   5.111  11.077  0.0860 -0.2771  0.1405
  307MOL0     C41374   4.131   5.087  11.049 -0.2883  0.4070 -0.0941
  307MOL0     C41375   4.905   5.238  10.931 -0.2034 -0.2995  0.3840
  307MOL0     C41376   5.021   5.260  10.848 -0.4117 -0.2456 -0.0978
  307MOL0     C41377   5.103   5.371  10.886  0.0034 -0.8213  0.5256
  307MOL0     H41378   5.156   4.938  10.368 -0.4833  0.6550 -0.2997
  307MOL0     H41379   5.303   4.944  10.153  0.1776 -0.6770  0.1909
  307MOL0     H41380   5.533   4.920  10.057 -0.3807  0.2449  0.5848
  307MOL0     H41381   5.406   5.007   9.967  1.2803 -1.5449 -1.7341
  307MOL0     H41382   5.591   5.155   9.875  0.2447  1.2320  1.1287
  307MOL0     H41383   5.583   4.993   9.818 -0.2903 -0.0470  0.2800
  307MOL0     H41384   5.759   4.920   9.971 -1.2732  0.3500  0.2858
  307MOL0     H41385   5.764   5.083  10.044 -3.9239 -0.8707  2.0590
  307MOL0     H41386   5.791   5.032   9.738 -0.3862 -2.2346  0.9663
  307MOL0     H41387   5.832   5.181   9.821 -3.2890  0.3083  1.0521
  307MOL0     H41388   6.048   5.081   9.805 -0.6157  1.8678  1.5349
  307MOL0     H41389   5.999   5.024   9.957  1.0761 -1.2335 -0.0297
  307MOL0     H41390   5.896   4.803   9.798  0.0524 -1.1761  0.0640
  307MOL0     H41391   6.018   4.854   9.691  1.2221 -2.2574  0.8095
  307MOL0     H41392   6.104   4.689   9.840 -3.1930  0.3320 -1.5944
  307MOL0     H41393   6.107   4.816   9.960 -0.8436  2.5350 -0.4434
  307MOL0     H41394   6.238   4.957   9.805 -0.3850  0.2195  0.3758
  307MOL0     H41395   6.322   4.818   9.877  1.5125  1.9745 -0.3849
  307MOL0     H41396   6.316   4.588   9.685  2.2322  1.2419  1.4072
  307MOL0     H41397   6.379   4.490   9.462 -0.7586  1.0599  1.2519
  307MOL0     H41398   6.363   4.598   9.328 -1.2985 -0.5469 -0.3694
  307MOL0     H41399   6.593   4.535   9.309  1.0707 -0.1902  0.6200
  307MOL0     H41400   6.612   4.680   9.401  0.4524 -0.8318  1.7540
  307MOL0     H41401   6.602   4.404   9.532  0.7487 -0.4966  0.6626
  307MOL0     H41402   6.635   4.565   9.615 -0.5520 -1.5811  1.7168
  307MOL0     H41403   6.853   4.487   9.559 -0.8198 -2.3956  0.1827
  307MOL0     H41404   6.822   4.592   9.431  2.2669  0.8440  3.0162
  307MOL0     H41405   6.820   4.251   9.177  0.2644 -1.4451  1.3525
  307MOL0     H41406   7.012   4.183   9.062 -2.2199  1.1080 -0.7002
  307MOL0     H41407   7.604   4.315   9.325 -2.9578  0.7977 -1.5089
  307MOL0     H41408   7.817   4.288   9.254 -0.2922  1.4963 -0.3374
  307MOL0     H41409   7.890   3.905   9.132 -0.1785  0.6767  0.3123
  307MOL0     H41410   7.949   3.919   8.968  3.6148 -2.0933  1.1814
  307MOL0     H41411   8.167   4.018   9.054  0.9313 -0.1444  2.5370
  307MOL0     H41412   8.108   4.002   9.211 -2.9384  0.6599  0.5332
  307MOL0     H41413   8.249   3.803   9.122 -0.4037  1.3669  2.6903
  307MOL0     H41414   8.081   3.750   9.167 -0.4788  0.6528  1.3589
  307MOL0     H41415   8.155   3.809   8.868 -0.7563 -0.1122 -1.0594
  307MOL0     H41416   8.028   3.709   8.929  0.9517  1.5025 -0.6482
  307MOL0     H41417   8.183   3.580   8.821  2.6076  5.2361 -3.0878
  307MOL0     H41418   8.181   3.527   8.993  1.8451 -0.2344  0.2698
  307MOL0     H41419   8.392   3.685   8.835  1.4558 -1.0407  0.4190
  307MOL0     H41420   8.387   3.675   9.023 -1.3560 -0.6682  0.5969
  307MOL0     H41421   8.454   3.468   8.815  0.1969 -1.2262  0.9059
  307MOL0     H41422   8.387   3.425   8.971  0.6999  0.1998  0.0167
  307MOL0     H41423   8.652   3.577   8.932 -0.0024  0.0187  0.0433
  307MOL0     H41424   8.573   3.537   9.090 -0.5980 -2.7567  0.5323
  307MOL0     H41425   7.690   3.988   8.969  1.1393  1.0544 -0.3456
  307MOL0     H41426   7.471   4.035   9.013  0.3979 -1.2405  0.9160
  307MOL0     H41427   7.250   4.372   9.373 -0.5574  0.2846 -0.3263
  307MOL0     H41428   7.064   4.466   9.459  3.1132  0.2144 -0.8182
  307MOL0     H41429   5.539   5.248  10.335  1.9360 -1.6299 -0.1588
  307MOL0     H41430   5.403   5.240  10.532  1.2267  1.5880 -1.2526
  307MOL0     H41431   4.961   5.006  10.630 -0.3516  0.1658 -0.6933
  307MOL0     H41432   4.755   4.988  10.795 -1.1926  2.4747 -1.2166
  307MOL0     H41433   4.795   5.179  11.157 -1.3068  2.5858  0.4660
  307MOL0     H41434   4.653   5.072  11.184 -1.7933  1.4366  1.0634
  307MOL0     H41435   4.648   5.345  11.057 -1.1301  1.2260  0.6475
  307MOL0     H41436   4.576   5.299  11.205 -0.0304  0.2760 -0.4794
  307MOL0     H41437   4.486   5.168  10.945 -0.9462 -2.0271  0.9120
  307MOL0     H41438   4.407   5.306  11.018  0.9806 -0.4806 -1.8932
  307MOL0     H41439   4.440   5.039  11.130 -0.6467 -0.0612  1.6066
  307MOL0     H41440   4.369   5.169  11.227 -3.5882 -0.3562  0.2392
  307MOL0     H41441   4.026   5.081  11.032 -0.1336 -0.6036 -0.7808
  307MOL0     H41442   4.872   5.307  11.008 -0.6680  1.0180 -0.9435
  307MOL0     H41443   5.205   5.362  10.846  0.3078 -2.2911  1.5551
  307MOL0     H41444   5.054   5.455  10.837  0.1091 -1.5620 -0.8912
  307MOL0     H41445   5.112   5.380  10.995  1.4740 -0.6969  0.4157
  308MOL0     O41446   1.968   8.262   7.111  0.2802 -0.4488 -0.2970
  308MOL0     C41447   1.983   8.184   7.019  0.0110 -0.2703  0.4566
  308MOL0     O41448   2.105   8.161   6.955  0.0109  0.0376 -0.4379
  308MOL0     C41449   2.210   8.231   7.004 -0.2231  0.1776  0.6536
  308MOL0     C41450   2.262   8.339   6.929 -0.1720 -0.8410 -0.2388
  308MOL0     C41451   2.367   8.412   6.982 -0.1282  0.1479 -0.2698
  308MOL0     C41452   2.429   8.388   7.103 -0.5115 -0.0465  0.2872
  308MOL0     O41453   2.538   8.458   7.149 -0.4673  0.1337 -0.0916
  308MOL0     C41454   2.609   8.564   7.074 -0.1211 -0.4014  0.3219
  308MOL0     C41455   2.523   8.690   7.062  0.7778 -0.2460 -0.4034
  308MOL0     C41456   2.561   8.778   6.938 -0.5536 -0.0125 -0.1053
  308MOL0     C41457   2.706   8.838   6.922 -1.0426  0.2919  0.1368
  308MOL0     C41458   2.729   8.938   7.029 -1.1845  0.9492 -0.4458
  308MOL0     C41459   2.829   9.044   7.012 -1.0715  0.0356  0.5858
  308MOL0     C41460   2.849   9.125   7.137  1.0571  1.6148  0.5605
  308MOL0     C41461   2.937   9.249   7.128  0.2137  0.3805  0.5394
  308MOL0     N41462   3.076   9.208   7.126 -0.3110  0.2266 -0.1012
  308MOL0     C41463   3.159   9.184   7.233  0.2027  0.3195  0.4108
  308MOL0     C41464   3.288   9.181   7.191  0.6757 -0.3485  0.5858
  308MOL0     C41465   3.403   9.171   7.282  0.3320 -0.7859  0.5860
  308MOL0     C41466   3.462   9.034   7.266  0.9013 -0.3908  0.4244
  308MOL0     C41467   3.598   9.023   7.342 -0.1777  0.8909  0.4071
  308MOL0     C41468   3.579   9.013   7.496  0.0919  0.1033  0.3417
  308MOL0     O41469   3.714   8.967   7.537 -0.2241  0.2835 -0.4249
  308MOL0     C41470   3.746   8.959   7.666  0.3175 -0.0292 -0.4721
  308MOL0     C41471   3.857   8.874   7.692  0.0783 -0.4549  0.6914
  308MOL0     C41472   3.898   8.865   7.820 -0.7626  0.1894  0.3772
  308MOL0     C41473   3.827   8.908   7.933 -0.4647  0.3869  0.4734
  308MOL0     C41474   3.874   8.882   8.064  0.4112 -0.0863 -0.7355
  308MOL0     O41475   3.993   8.803   8.076  0.1058 -0.3531 -0.5318
  308MOL0     C41476   4.065   8.807   8.192  0.0381 -0.3193  0.5454
  308MOL0     C41477   4.063   8.909   8.291 -0.4479 -0.6855  0.6043
  308MOL0     C41478   4.143   8.886   8.400  0.5997  0.1629  0.1693
  308MOL0     C41479   4.233   8.785   8.415 -0.5495  0.4154  0.1218
  308MOL0     O41480   4.325   8.797   8.520  0.2034 -0.1134 -0.0251
  308MOL0     C41481   4.444   8.734   8.496 -0.0656  0.4958 -0.3343
  308MOL0     C41482   4.450   8.599   8.559 -0.6149  0.2391 -0.0645
  308MOL0     C41483   4.459   8.617   8.715 -0.6783  0.9181  1.0540
  308MOL0     C41484   4.510   8.488   8.783 -0.7533  0.5722 -0.0387
  308MOL0     C41485   4.503   8.496   8.935  0.4925  0.2668 -0.1908
  308MOL0     C41486   4.533   8.358   9.001  0.6836 -0.8547  0.2622
  308MOL0     C41487   4.430   8.242   8.974  0.4702 -0.5916 -0.3537
  308MOL0     C41488   4.428   8.152   9.086  0.1847 -0.2109  0.1971
  308MOL0    Cl41489   4.581   8.052   9.096 -0.1676 -0.3201  0.0270
  308MOL0     C41490   4.233   8.692   8.313 -0.2987  0.6231  0.8334
  308MOL0     C41491   4.151   8.698   8.200 -0.4371 -0.8452 -0.0757
  308MOL0     O41492   3.809   8.927   8.158 -0.2425 -0.5126 -0.2110
  308MOL0     C41493   3.708   8.983   7.909 -0.2404 -0.2401 -0.0153
  308MOL0     C41494   3.668   9.009   7.777 -0.0191 -0.2224  0.3007
  308MOL0     N41495   3.278   9.193   7.047  0.2271  0.6337  1.0216
  308MOL0     N41496   3.151   9.207   7.013 -0.2939 -0.2314 -0.1802
  308MOL0     C41497   2.372   8.285   7.183 -0.1311  0.1420  0.7670
  308MOL0     C41498   2.276   8.204   7.132  0.3623 -0.2520  0.5586
  308MOL0     C41499   1.873   8.101   6.962 -0.2817  0.1428 -0.8450
  308MOL0     C41500   1.891   8.035   6.837 -0.2284  0.2271 -0.7806
  308MOL0     C41501   1.792   7.976   6.763  0.8885  0.7134  0.1011
  308MOL0     C41502   1.666   7.975   6.811 -0.0842 -0.3780 -0.7847
  308MOL0     O41503   1.568   7.907   6.748 -1.4447  0.1698 -0.8624
  308MOL0     C41504   1.521   7.958   6.619  0.1591  0.1051 -0.1300
  308MOL0     C41505   1.391   7.897   6.576  0.6773 -0.0985  0.6289
  308MOL0     C41506   1.354   7.924   6.428 -0.6530 -1.4585  0.1586
  308MOL0     C41507   1.207   7.944   6.406 -0.3291  0.0713  0.7686
  308MOL0     C41508   1.183   7.992   6.274 -0.3199 -0.1119 -0.2500
  308MOL0     C41509   1.145   8.031   6.163 -0.1503 -0.4375 -0.8079
  308MOL0     C41510   1.638   8.035   6.936  1.2886 -1.1097  0.1280
  308MOL0     C41511   1.744   8.104   7.010  0.3037 -0.5211  0.8177
  308MOL0     C41512   1.702   8.151   7.142 -0.5098  0.4556  0.6272
  308MOL0     H41513   2.215   8.379   6.840  0.6715 -0.4089 -0.5035
  308MOL0     H41514   2.389   8.493   6.912  0.0472  0.9934  0.7483
  308MOL0     H41515   2.703   8.585   7.126 -0.4976 -1.1135  1.3148
  308MOL0     H41516   2.617   8.532   6.970 -0.7506  0.3120  0.0438
  308MOL0     H41517   2.553   8.753   7.146  1.1072  0.3917 -0.9904
  308MOL0     H41518   2.417   8.665   7.055  0.2791 -0.2386  4.0232
  308MOL0     H41519   2.498   8.868   6.940 -0.0947  0.3166 -0.4619
  308MOL0     H41520   2.543   8.720   6.847  4.2848 -1.0484 -0.6403
  308MOL0     H41521   2.778   8.756   6.930 -0.6750  0.7653  2.1366
  308MOL0     H41522   2.722   8.898   6.832  2.5078  3.4549  2.5815
  308MOL0     H41523   2.631   8.986   7.034 -1.8829 -0.3706 -0.8615
  308MOL0     H41524   2.739   8.895   7.129 -1.0879  1.9010 -0.0344
  308MOL0     H41525   2.921   9.000   6.974 -1.3310 -1.2954  1.4311
  308MOL0     H41526   2.803   9.121   6.939  2.2555  2.1690  1.4549
  308MOL0     H41527   2.896   9.068   7.218  2.9652 -0.0529 -1.5999
  308MOL0     H41528   2.753   9.158   7.178  1.0867  0.1389  1.8946
  308MOL0     H41529   2.905   9.316   7.048  1.1871  1.9906  1.4643
  308MOL0     H41530   2.920   9.313   7.214 -4.7681  0.2646 -0.0510
  308MOL0     H41531   3.129   9.180   7.337 -1.7351 -3.3210 -0.1077
  308MOL0     H41532   3.465   9.255   7.248 -0.3616 -0.1622  0.8304
  308MOL0     H41533   3.367   9.189   7.384 -2.5652 -0.4217 -0.4273
  308MOL0     H41534   3.394   8.961   7.309  1.9545 -0.5023  2.0158
  308MOL0     H41535   3.481   9.018   7.160 -0.3509 -2.0468  0.4209
  308MOL0     H41536   3.668   9.101   7.313  0.2195  0.0960 -0.8705
  308MOL0     H41537   3.650   8.935   7.303  0.4349  0.6824  1.6559
  308MOL0     H41538   3.502   8.946   7.534 -0.6615  0.5824 -0.3269
  308MOL0     H41539   3.565   9.112   7.538  1.5059  0.5017 -0.0737
  308MOL0     H41540   3.903   8.833   7.603  1.4878  1.3970  0.5076
  308MOL0     H41541   3.986   8.804   7.832 -0.5439  0.7781  1.8939
  308MOL0     H41542   4.016   9.005   8.273  0.7789  0.0999  1.4360
  308MOL0     H41543   4.141   8.967   8.472  0.6021  0.6404 -0.3586
  308MOL0     H41544   4.475   8.746   8.392 -1.9022  0.3223 -0.9391
  308MOL0     H41545   4.523   8.789   8.548  0.8709  0.6401 -1.8806
  308MOL0     H41546   4.368   8.530   8.537  0.2015 -1.3631  1.7147
  308MOL0     H41547   4.538   8.542   8.531 -0.1986 -1.3091  3.7841
  308MOL0     H41548   4.529   8.697   8.740  0.1310  0.0629  1.6075
  308MOL0     H41549   4.366   8.657   8.756 -0.8149  1.8145 -0.0890
  308MOL0     H41550   4.615   8.467   8.759 -0.7166  0.6679  0.0331
  308MOL0     H41551   4.451   8.399   8.759  2.0027 -1.0534 -1.2542
  308MOL0     H41552   4.408   8.538   8.971 -1.2294 -1.7508 -2.0827
  308MOL0     H41553   4.577   8.569   8.970 -0.3905  0.8894  0.4166
  308MOL0     H41554   4.634   8.326   8.974  0.7494 -0.3744 -0.0818
  308MOL0     H41555   4.537   8.389   9.106 -0.7011  2.6408 -0.5797
  308MOL0     H41556   4.451   8.184   8.884 -1.2374 -1.0034 -0.5091
  308MOL0     H41557   4.334   8.295   8.973  1.0745  0.6762  1.6856
  308MOL0     H41558   4.420   8.204   9.182 -5.3866  0.1607 -0.1638
  308MOL0     H41559   4.346   8.080   9.089 -2.0125  2.1663  3.4697
  308MOL0     H41560   4.299   8.606   8.304 -2.8505 -1.3027 -1.0184
  308MOL0     H41561   4.158   8.627   8.118 -0.2841  0.2941 -1.0659
  308MOL0     H41562   3.642   9.023   7.985 -3.5961 -1.0906 -2.2269
  308MOL0     H41563   3.570   9.051   7.762 -0.6072 -1.0735  1.5424
  308MOL0     H41564   2.417   8.266   7.280 -0.9418  0.0624  1.1287
  308MOL0     H41565   2.247   8.116   7.188  0.3024  0.3453  1.4914
  308MOL0     H41566   1.991   8.034   6.794  0.6855  1.5714  1.1749
  308MOL0     H41567   1.805   7.925   6.669  1.7238 -2.2723  1.7031
  308MOL0     H41568   1.595   7.926   6.545 -0.9790 -0.5015 -1.0504
  308MOL0     H41569   1.517   8.067   6.621 -1.3446  0.0719  1.8264
  308MOL0     H41570   1.312   7.939   6.639 -1.4518 -1.2137 -1.1685
  308MOL0     H41571   1.380   7.789   6.590 -0.8388 -0.4712 -2.5825
  308MOL0     H41572   1.389   7.831   6.381 -1.8592 -2.0831  0.4437
  308MOL0     H41573   1.406   8.014   6.393 -1.2975 -0.4409  1.6962
  308MOL0     H41574   1.163   7.845   6.418  1.4830 -1.0906 -1.3829
  308MOL0     H41575   1.172   8.012   6.484 -0.3545 -1.7476  2.4228
  308MOL0     H41576   1.129   8.054   6.060  0.1184 -0.1178 -0.7784
  308MOL0     H41577   1.539   8.030   6.979  0.3929  1.5066 -1.3978
  308MOL0     H41578   1.713   8.260   7.144 -2.2635  0.6557  0.7977
  308MOL0     H41579   1.597   8.128   7.163 -0.5252  1.3898  1.6526
  308MOL0     H41580   1.778   8.114   7.210  2.2584  2.6730 -1.0372
  309MOL0     O41581   3.769   4.130   1.030 -0.2995  0.1593 -0.3509
  309MOL0     C41582   3.745   4.131   1.150 -0.0175  0.3864 -0.7646
  309MOL0     O41583   3.820   4.071   1.248 -1.2617 -0.0758  0.1121
  309MOL0     C41584   3.954   4.066   1.239 -0.2532  0.1579  0.6880
  309MOL0     C41585   4.007   4.010   1.359  0.6329  0.0587  0.2103
  309MOL0     C41586   4.152   3.998   1.370 -0.1521 -0.2188 -1.2063
  309MOL0     C41587   4.238   4.041   1.269  0.6924 -0.0461  0.4530
  309MOL0     O41588   4.376   4.040   1.292  0.0550 -0.2120 -0.6007
  309MOL0     C41589   4.434   3.934   1.375 -0.2998 -0.1381 -0.1091
  309MOL0     C41590   4.584   3.950   1.384 -0.1490 -0.7257 -0.4251
  309MOL0     C41591   4.659   3.916   1.255  1.0164  0.2919 -0.1314
  309MOL0     C41592   4.808   3.947   1.265 -1.1001 -0.0400  0.8011
  309MOL0     C41593   4.879   3.951   1.124  0.2904  0.8421  0.5114
  309MOL0     C41594   4.913   3.810   1.079  0.2059 -0.6654  1.0729
  309MOL0     C41595   4.961   3.774   0.932  0.0885  0.7821  0.4683
  309MOL0     C41596   5.099   3.825   0.889 -0.0020 -0.0115  0.5210
  309MOL0     N41597   5.216   3.753   0.947  0.2066  0.3885 -0.0823
  309MOL0     C41598   5.208   3.642   1.027 -0.3218 -0.2993  0.2518
  309MOL0     C41599   5.313   3.650   1.114 -0.4381  0.0683  0.5516
  309MOL0     C41600   5.322   3.572   1.242 -0.3332  0.1812  0.3391
  309MOL0     C41601   5.439   3.476   1.241  0.2521  0.1306 -1.6553
  309MOL0     C41602   5.432   3.391   1.364  0.3754  0.0415 -1.0515
  309MOL0     C41603   5.541   3.284   1.376  0.0151 -0.1990  0.5357
  309MOL0     O41604   5.533   3.197   1.264 -0.7838  0.8184  0.0270
  309MOL0     C41605   5.458   3.085   1.271 -0.3894  0.6074  0.2245
  309MOL0     C41606   5.332   3.094   1.204  0.2997  0.2828 -0.0883
  309MOL0     C41607   5.241   2.990   1.210  0.2204  0.3408 -0.1782
  309MOL0     C41608   5.271   2.874   1.278  0.0670 -0.4785  0.2940
  309MOL0     C41609   5.183   2.754   1.270  0.9130  0.5153 -0.2397
  309MOL0     O41610   5.061   2.775   1.221  0.0237 -0.1927 -0.1428
  309MOL0     C41611   4.993   2.666   1.162  0.0528 -1.3562 -0.0285
  309MOL0     C41612   5.049   2.554   1.099  0.6066 -0.2029  0.1657
  309MOL0     C41613   4.966   2.455   1.038 -0.8668 -0.6060 -0.4866
  309MOL0     C41614   4.829   2.470   1.040 -0.1374 -0.2014 -0.0295
  309MOL0     O41615   4.746   2.378   0.979  0.4280  0.2922 -0.2926
  309MOL0     C41616   4.796   2.271   0.900  0.0075  0.5469  0.5275
  309MOL0     C41617   4.669   2.203   0.834 -0.3632  0.3757  0.1230
  309MOL0     C41618   4.628   2.277   0.700 -0.6467 -0.3501  0.3529
  309MOL0     C41619   4.587   2.426   0.721 -0.3520 -0.1419 -0.1828
  309MOL0     C41620   4.467   2.436   0.812  0.2378 -0.1697  0.1480
  309MOL0     C41621   4.421   2.579   0.813  0.4941 -0.7806  0.5223
  309MOL0     C41622   4.285   2.598   0.898 -0.3309  0.6369 -1.2207
  309MOL0     C41623   4.270   2.738   0.952 -0.4486  0.1592 -0.1480
  309MOL0    Cl41624   4.355   2.757   1.117  0.1433  0.4102  0.2002
  309MOL0     C41625   4.769   2.578   1.103 -0.2485  0.6556 -0.3402
  309MOL0     C41626   4.848   2.679   1.166  0.3161 -0.1633 -0.8298
  309MOL0     O41627   5.230   2.648   1.300 -0.7613  0.6368 -0.1468
  309MOL0     C41628   5.385   2.870   1.358 -0.5107 -0.6832  0.4105
  309MOL0     C41629   5.478   2.978   1.354 -0.4968 -0.1682  0.1851
  309MOL0     N41630   5.385   3.758   1.086  0.5652 -0.1262  0.0432
  309MOL0     N41631   5.337   3.802   0.977  0.4583 -1.0466 -0.2965
  309MOL0     C41632   4.182   4.094   1.149  0.7597  0.6236  0.6763
  309MOL0     C41633   4.043   4.118   1.141  0.1819 -0.3483 -0.8025
  309MOL0     C41634   3.626   4.204   1.185  0.7818 -0.0194  0.2674
  309MOL0     C41635   3.586   4.181   1.320  0.4814 -0.3197 -0.2016
  309MOL0     C41636   3.470   4.250   1.369 -0.8786  0.2333 -1.0878
  309MOL0     C41637   3.396   4.332   1.299 -0.5492 -0.5870  0.0965
  309MOL0     O41638   3.283   4.387   1.367 -0.7955  0.3511  0.4757
  309MOL0     C41639   3.192   4.476   1.293 -0.2197 -0.5239 -0.2541
  309MOL0     C41640   3.066   4.495   1.379  0.1583 -0.7452  0.4347
  309MOL0     C41641   3.095   4.597   1.487  0.4619  1.1573 -0.0563
  309MOL0     C41642   2.968   4.614   1.566  0.2893  0.4751 -0.7007
  309MOL0     C41643   2.954   4.513   1.668  1.1490  0.2378 -0.6822
  309MOL0     C41644   2.956   4.440   1.766 -0.8139  0.6096  0.5037
  309MOL0     C41645   3.450   4.363   1.174 -0.0627 -0.0616 -0.3924
  309MOL0     C41646   3.563   4.306   1.117  0.0086  0.4978  0.6260
  309MOL0     C41647   3.591   4.360   0.974 -0.2630  0.2225 -1.4316
  309MOL0     H41648   3.933   3.974   1.430  0.8391  0.1595  0.4760
  309MOL0     H41649   4.185   3.961   1.467  2.6408 -1.1048 -2.3920
  309MOL0     H41650   4.395   3.950   1.476 -1.0101  0.7086 -0.5068
  309MOL0     H41651   4.420   3.829   1.347  2.8621 -1.3539  2.1544
  309MOL0     H41652   4.617   3.878   1.459  1.6532  0.6225  0.1589
  309MOL0     H41653   4.610   4.052   1.415  1.0674 -1.1223 -0.0762
  309MOL0     H41654   4.627   3.986   1.177 -1.7939  1.0553  1.5512
  309MOL0     H41655   4.629   3.814   1.231 -3.1877  0.3080  3.7126
  309MOL0     H41656   4.820   4.047   1.308 -0.9401  1.4035 -2.3245
  309MOL0     H41657   4.859   3.875   1.330 -1.4782 -0.9565  0.1201
  309MOL0     H41658   4.810   3.998   1.054 -1.8215  1.2264  2.7307
  309MOL0     H41659   4.969   4.013   1.127  0.1842  1.3009 -2.6795
  309MOL0     H41660   4.997   3.771   1.137  0.2896 -0.7606  0.8884
  309MOL0     H41661   4.829   3.744   1.100  0.3622 -2.2020 -2.4490
  309MOL0     H41662   4.889   3.815   0.861 -0.2480  1.0254  0.9483
  309MOL0     H41663   4.964   3.665   0.924  1.6519  0.9005 -0.9419
  309MOL0     H41664   5.100   3.819   0.780 -0.1169 -0.1233  0.5251
  309MOL0     H41665   5.114   3.928   0.923 -0.4911  0.5609 -0.9080
  309MOL0     H41666   5.129   3.568   1.033 -1.3031  0.6924  0.0313
  309MOL0     H41667   5.337   3.639   1.327  2.9265 -0.5893  0.5231
  309MOL0     H41668   5.229   3.517   1.256  0.9476 -1.7007  1.9830
  309MOL0     H41669   5.423   3.405   1.159  2.3493 -2.6713  0.1355
  309MOL0     H41670   5.519   3.550   1.245 -1.3351  1.9542  3.0050
  309MOL0     H41671   5.332   3.348   1.372  0.4347  0.0532 -0.1526
  309MOL0     H41672   5.437   3.454   1.453 -1.9369 -1.8175  0.4949
  309MOL0     H41673   5.534   3.227   1.469  0.0814 -2.4528 -0.7478
  309MOL0     H41674   5.642   3.325   1.377 -0.3265  1.0925  5.2313
  309MOL0     H41675   5.293   3.180   1.151 -1.1766  0.1150  0.6620
  309MOL0     H41676   5.154   2.993   1.145  0.3516 -0.0782 -0.3760
  309MOL0     H41677   5.157   2.545   1.107  0.7653  2.0460  1.5004
  309MOL0     H41678   5.022   2.372   0.995  0.6966  0.8391 -1.3138
  309MOL0     H41679   4.853   2.313   0.816  0.9869 -1.0309  0.3572
  309MOL0     H41680   4.856   2.198   0.954  0.9004 -0.4182 -1.6268
  309MOL0     H41681   4.705   2.105   0.803 -0.3194  0.9446 -1.7382
  309MOL0     H41682   4.576   2.194   0.891 -0.9301 -1.4622 -1.0126
  309MOL0     H41683   4.712   2.261   0.631 -0.6005  0.1628  0.2863
  309MOL0     H41684   4.539   2.230   0.658  0.1703 -1.6852  0.0531
  309MOL0     H41685   4.556   2.448   0.619 -3.1627 -1.3235  0.3371
  309MOL0     H41686   4.665   2.495   0.755 -1.5156  1.3623 -0.4673
  309MOL0     H41687   4.486   2.410   0.917  1.7553  0.9158  0.1862
  309MOL0     H41688   4.386   2.372   0.775 -1.3942  2.2040 -0.5950
  309MOL0     H41689   4.492   2.649   0.858 -2.6493  3.3481 -0.2812
  309MOL0     H41690   4.403   2.621   0.714 -3.0995 -0.4675  1.1576
  309MOL0     H41691   4.291   2.532   0.985  1.8824  1.1295 -0.9372
  309MOL0     H41692   4.190   2.575   0.848 -1.4560  0.6799  0.8037
  309MOL0     H41693   4.307   2.814   0.883  0.7490 -0.6004 -0.3755
  309MOL0     H41694   4.161   2.752   0.952 -0.3979  0.9006 -2.3145
  309MOL0     H41695   4.664   2.570   1.127 -0.6723  2.1086 -1.5626
  309MOL0     H41696   4.798   2.755   1.225  0.5441  0.5046 -1.4818
  309MOL0     H41697   5.404   2.785   1.422  0.0841  1.5666  3.4379
  309MOL0     H41698   5.578   2.988   1.396 -0.6538 -0.4343  0.6320
  309MOL0     H41699   4.238   4.121   1.060 -1.1023  1.1679 -0.3813
  309MOL0     H41700   4.011   4.180   1.058 -1.3785  2.8658  1.9539
  309MOL0     H41701   3.639   4.113   1.385  0.1539  2.0206  2.7540
  309MOL0     H41702   3.430   4.228   1.467 -0.7078 -0.4511 -1.1674
  309MOL0     H41703   3.160   4.422   1.203 -3.1461 -0.0453  0.3818
  309MOL0     H41704   3.249   4.564   1.262 -0.3678  1.2077  3.7781
  309MOL0     H41705   3.033   4.400   1.422 -0.2556 -1.6008 -1.6800
  309MOL0     H41706   2.983   4.525   1.315 -0.8177 -0.9844  1.5503
  309MOL0     H41707   3.140   4.689   1.449 -1.7796  2.1171 -0.5384
  309MOL0     H41708   3.174   4.565   1.556  0.4827 -0.0162 -0.6063
  309MOL0     H41709   2.966   4.715   1.606 -2.1102  1.6934 -3.5887
  309MOL0     H41710   2.881   4.613   1.501  1.9897 -0.2764 -3.1154
  309MOL0     H41711   2.949   4.374   1.850 -0.3135  0.7089  0.6256
  309MOL0     H41712   3.406   4.442   1.115  0.5254 -0.4974 -1.4520
  309MOL0     H41713   3.698   4.385   0.978  0.7762 -3.6473  0.5256
  309MOL0     H41714   3.568   4.284   0.899  0.2098 -0.0902 -1.2644
  309MOL0     H41715   3.544   4.453   0.941  2.4162  1.1872 -2.7861
  310MOL0     O41716  10.961   8.664   4.292 -0.0119 -0.3034  0.3489
  310MOL0     C41717  10.899   8.551   4.288 -0.1078 -0.7190 -0.2655
  310MOL0     O41718  10.912   8.456   4.181  0.3003 -0.7359  0.7462
  310MOL0     C41719  11.013   8.467   4.098  0.1683  0.2671  0.1037
  310MOL0     C41720  11.017   8.545   3.980 -0.6378  0.4369  0.2665
  310MOL0     C41721  11.134   8.557   3.901  0.5058 -0.6750  0.4788
  310MOL0     C41722  11.248   8.481   3.924  0.4086  0.2391 -0.4917
  310MOL0     O41723  11.367   8.484   3.856  0.1592 -0.1505  0.2664
  310MOL0     C41724  11.406   8.615   3.824  0.3212  0.1648 -0.7371
  310MOL0     C41725  11.551   8.620   3.774  0.0645 -0.3685  0.6634
  310MOL0     C41726  11.600   8.760   3.802  0.2358  0.3790 -0.2770
  310MOL0     C41727  11.731   8.804   3.733  0.0983  0.0167 -0.2157
  310MOL0     C41728  11.744   8.958   3.748  0.1510  0.0209 -0.0747
  310MOL0     C41729  11.878   9.002   3.711 -1.0022 -0.4679 -0.4545
  310MOL0     C41730  12.011   8.962   3.787 -0.2882  0.2525  0.1653
  310MOL0     C41731  12.094   9.087   3.825  1.1418 -1.1179  0.3881
  310MOL0     N41732  12.233   9.058   3.860  0.1698 -0.1966 -0.1613
  310MOL0     C41733  12.268   9.017   3.986  0.6228 -0.8432  0.9836
  310MOL0     C41734  12.395   8.982   3.969 -0.2922 -0.3588 -0.7440
  310MOL0     C41735  12.464   8.920   4.084  0.1563 -0.6201  0.4117
  310MOL0     C41736  12.602   8.986   4.119  0.1808 -0.6987 -0.4809
  310MOL0     C41737  12.598   9.135   4.141  0.0626  0.2167  0.0759
  310MOL0     C41738  12.737   9.184   4.156  0.7881 -0.1676 -0.2450
  310MOL0     O41739  12.787   9.149   4.290  0.1944 -0.1599  0.4432
  310MOL0     C41740  12.919   9.178   4.321  0.6202 -0.5443 -0.2989
  310MOL0     C41741  13.005   9.228   4.229 -0.9042 -0.0480  0.5030
  310MOL0     C41742  13.140   9.259   4.264  0.7859 -0.0793  0.9616
  310MOL0     C41743  13.187   9.239   4.392  0.0079 -0.3198 -0.6838
  310MOL0     C41744  13.325   9.261   4.437 -0.4361 -0.4693  0.0202
  310MOL0     O41745  13.360   9.202   4.553  0.2863  0.3684 -0.2262
  310MOL0     C41746  13.495   9.181   4.574  0.0956  0.4519 -0.0007
  310MOL0     C41747  13.558   9.070   4.512  0.2650 -0.3241  1.1200
  310MOL0     C41748  13.691   9.050   4.524 -0.1607  0.3559  0.1295
  310MOL0     C41749  13.770   9.128   4.609  0.2435  0.2408  0.6573
  310MOL0     O41750  13.906   9.098   4.610  0.1337  0.3893 -0.2439
  310MOL0     C41751  13.992   9.185   4.684 -0.7225  1.0783  0.2075
  310MOL0     C41752  14.130   9.115   4.651  0.6974 -0.7640 -0.2560
  310MOL0     C41753  14.245   9.212   4.681 -0.2582 -0.1081  0.2249
  310MOL0     C41754  14.373   9.124   4.656  1.0549  0.0575  0.0867
  310MOL0     C41755  14.486   9.223   4.700 -0.0548  0.0990  0.5449
  310MOL0     C41756  14.628   9.163   4.676 -0.0141 -0.3653 -0.3948
  310MOL0     C41757  14.717   9.224   4.781  0.5988 -0.9469 -0.3010
  310MOL0     C41758  14.858   9.163   4.785 -0.0766  0.1689 -0.4878
  310MOL0    Cl41759  14.843   8.992   4.850  0.3013  0.4454  0.4334
  310MOL0     C41760  13.705   9.233   4.685 -0.1116  0.3979  0.1549
  310MOL0     C41761  13.569   9.256   4.667 -0.1662 -0.3654  0.1742
  310MOL0     O41762  13.394   9.345   4.374 -0.2919  0.2727 -0.3800
  310MOL0     C41763  13.097   9.186   4.487  0.0387  1.1856 -0.4898
  310MOL0     C41764  12.964   9.153   4.445  0.4402 -0.0406 -0.3846
  310MOL0     N41765  12.431   8.999   3.834 -0.1582 -0.3203 -0.7287
  310MOL0     N41766  12.329   9.036   3.767  0.6246 -0.0152 -0.0613
  310MOL0     C41767  11.231   8.389   4.016 -0.1813 -0.0416 -0.3001
  310MOL0     C41768  11.128   8.377   4.111 -1.3785 -1.1394  0.5156
  310MOL0     C41769  10.806   8.525   4.402  0.4160 -0.4967 -0.1301
  310MOL0     C41770  10.723   8.629   4.432  0.4714  0.8612 -0.8231
  310MOL0     C41771  10.622   8.616   4.531  0.2655 -0.2443 -0.4299
  310MOL0     C41772  10.618   8.511   4.623  0.1564  0.1398 -0.0943
  310MOL0     O41773  10.537   8.490   4.730 -0.4094 -0.6247 -0.6693
  310MOL0     C41774  10.435   8.595   4.777  0.6244  0.6095  0.0001
  310MOL0     C41775  10.498   8.683   4.889  0.3339  0.8924 -0.1988
  310MOL0     C41776  10.559   8.586   4.998  0.2654 -0.7771  0.3860
  310MOL0     C41777  10.638   8.672   5.107 -0.3891  0.2393  0.2157
  310MOL0     C41778  10.697   8.578   5.200 -0.8329 -0.5091  0.1442
  310MOL0     C41779  10.749   8.503   5.275  0.5912 -1.1501  0.2264
  310MOL0     C41780  10.701   8.404   4.590  0.2517 -0.5265  0.3247
  310MOL0     C41781  10.797   8.407   4.481  0.5934  0.5387  0.1463
  310MOL0     C41782  10.860   8.275   4.431  0.1871 -0.0575 -0.0513
  310MOL0     H41783  10.928   8.605   3.963 -0.8490  0.1172  0.2325
  310MOL0     H41784  11.130   8.621   3.814 -2.8458 -4.0137 -2.1464
  310MOL0     H41785  11.326   8.651   3.759 -1.2635 -2.0290 -0.1079
  310MOL0     H41786  11.398   8.672   3.917 -0.7579 -0.7397 -0.2556
  310MOL0     H41787  11.541   8.603   3.667 -0.0277  0.5872  0.5170
  310MOL0     H41788  11.629   8.559   3.821  3.1704  3.5036  1.0575
  310MOL0     H41789  11.603   8.756   3.911  1.5398 -2.8747 -0.3414
  310MOL0     H41790  11.515   8.821   3.769  1.2281  0.5408 -2.7219
  310MOL0     H41791  11.814   8.765   3.793 -0.5517  1.6816  1.8927
  310MOL0     H41792  11.739   8.779   3.627 -0.4355  0.3040 -0.3241
  310MOL0     H41793  11.670   9.007   3.684  1.2467  0.3773 -1.1154
  310MOL0     H41794  11.720   8.973   3.853 -0.0005  1.3063 -0.2816
  310MOL0     H41795  11.905   8.988   3.606  4.5173 -2.2837  0.8619
  310MOL0     H41796  11.875   9.108   3.740  1.9450 -1.0337  2.4852
  310MOL0     H41797  12.074   8.903   3.720  1.7661  1.9892  0.4555
  310MOL0     H41798  12.003   8.905   3.880 -0.6510 -0.2303 -0.1546
  310MOL0     H41799  12.097   9.155   3.739 -1.9003  1.1131  1.8480
  310MOL0     H41800  12.039   9.146   3.899 -1.8698 -2.9184 -0.2127
  310MOL0     H41801  12.210   8.991   4.074  0.6679 -0.4121  1.1401
  310MOL0     H41802  12.401   8.933   4.172 -0.3406  0.7170 -0.1293
  310MOL0     H41803  12.471   8.812   4.065  2.9817 -0.1509 -2.0282
  310MOL0     H41804  12.642   8.935   4.207  0.3149 -1.0771 -0.7604
  310MOL0     H41805  12.673   8.966   4.038  2.1326  0.4070  0.8732
  310MOL0     H41806  12.540   9.162   4.229 -1.0959  1.7532 -1.0915
  310MOL0     H41807  12.549   9.186   4.057  2.1576  1.8181 -0.2359
  310MOL0     H41808  12.744   9.293   4.145 -0.2628 -0.1452 -0.7372
  310MOL0     H41809  12.799   9.146   4.074 -1.4600  2.1127 -3.2045
  310MOL0     H41810  12.992   9.257   4.125  0.2574  0.0344  0.3612
  310MOL0     H41811  13.211   9.309   4.199 -2.1527  3.4234  0.1089
  310MOL0     H41812  13.503   9.012   4.439 -0.9510  1.4011  0.6073
  310MOL0     H41813  13.738   8.968   4.471 -0.9503 -1.4186  2.0133
  310MOL0     H41814  13.985   9.287   4.647 -1.4367  0.3066 -1.9593
  310MOL0     H41815  13.964   9.178   4.789  0.4988 -1.3468  0.4587
  310MOL0     H41816  14.128   9.026   4.715 -0.7677 -1.4544 -1.1930
  310MOL0     H41817  14.135   9.070   4.552 -3.0029  0.0534 -0.9687
  310MOL0     H41818  14.233   9.298   4.615 -1.8147  0.0377  0.6568
  310MOL0     H41819  14.239   9.251   4.783  1.5495 -0.1416  0.3658
  310MOL0     H41820  14.376   9.083   4.555 -0.9548  0.9048 -0.3674
  310MOL0     H41821  14.379   9.043   4.729  0.1250 -0.7035 -0.6574
  310MOL0     H41822  14.480   9.248   4.806  1.8909  0.5951  0.5711
  310MOL0     H41823  14.466   9.314   4.644  3.3627  0.9245  0.4149
  310MOL0     H41824  14.627   9.055   4.694 -0.3760 -0.0023  2.2115
  310MOL0     H41825  14.651   9.181   4.571  0.0805  3.0805  0.1241
  310MOL0     H41826  14.679   9.207   4.882  0.8405  0.0818 -0.0255
  310MOL0     H41827  14.731   9.331   4.762  2.0987 -1.1123 -0.2527
  310MOL0     H41828  14.905   9.163   4.686  2.6284 -0.5158  0.6985
  310MOL0     H41829  14.930   9.222   4.842  2.6048 -1.9108 -1.4909
  310MOL0     H41830  13.767   9.293   4.751 -1.5723  2.1004  0.0828
  310MOL0     H41831  13.514   9.341   4.706 -0.5267 -0.8470  0.7370
  310MOL0     H41832  13.137   9.188   4.588  1.3766  5.4921 -0.9054
  310MOL0     H41833  12.896   9.101   4.513 -0.6548  0.1852 -1.2660
  310MOL0     H41834  11.314   8.318   4.023 -0.3905 -0.2252  0.3492
  310MOL0     H41835  11.137   8.292   4.177  0.4098  0.0695  1.9170
  310MOL0     H41836  10.720   8.715   4.365  1.0385  2.9709  1.6868
  310MOL0     H41837  10.567   8.706   4.556  0.3210 -0.3354  0.0379
  310MOL0     H41838  10.344   8.542   4.806  1.0117 -0.0690  0.0100
  310MOL0     H41839  10.419   8.663   4.693 -0.3929 -1.0647 -1.2323
  310MOL0     H41840  10.424   8.759   4.915 -0.9113  0.4652 -2.3069
  310MOL0     H41841  10.573   8.757   4.861  1.9689 -0.6685 -0.1494
  310MOL0     H41842  10.617   8.511   4.944 -1.7411 -1.4460 -0.9718
  310MOL0     H41843  10.470   8.536   5.036  1.2843 -3.7907 -0.9150
  310MOL0     H41844  10.709   8.734   5.051 -1.6581  0.0340 -1.7359
  310MOL0     H41845  10.571   8.744   5.157 -1.0186  2.3615 -3.2942
  310MOL0     H41846  10.792   8.426   5.337  0.6185 -0.4587  1.0731
  310MOL0     H41847  10.678   8.319   4.652  2.0498 -0.6179  0.9220
  310MOL0     H41848  10.960   8.283   4.389  0.0747  1.7283 -0.0415
  310MOL0     H41849  10.867   8.217   4.523 -1.7371  0.5832  0.5456
  310MOL0     H41850  10.791   8.215   4.369  1.0723 -1.8145  0.5952
  311MOL0     O41851   7.886   3.322   7.335 -0.7740  0.1041  0.5206
  311MOL0     C41852   7.952   3.358   7.428  0.0374  0.5096 -0.2805
  311MOL0     O41853   8.078   3.305   7.457  0.3805 -0.2220 -0.9777
  311MOL0     C41854   8.143   3.222   7.369  0.6083 -0.2317  1.2616
  311MOL0     C41855   8.138   3.229   7.233 -0.0570 -0.0231  0.6023
  311MOL0     C41856   8.210   3.148   7.144 -0.1080  1.1125 -0.1572
  311MOL0     C41857   8.299   3.042   7.202  0.7807 -0.0852 -0.3887
  311MOL0     O41858   8.374   2.961   7.110  0.3154 -0.1259 -0.1491
  311MOL0     C41859   8.470   2.873   7.171  0.6985 -0.3691  0.3395
  311MOL0     C41860   8.521   2.794   7.049  0.5518  0.6663 -0.1339
  311MOL0     C41861   8.603   2.685   7.120 -0.3397 -0.5326  0.8830
  311MOL0     C41862   8.663   2.588   7.013 -0.2654 -0.2903  0.2300
  311MOL0     C41863   8.683   2.447   7.087  0.1374  0.3670  1.1367
  311MOL0     C41864   8.801   2.368   7.032 -0.0260  0.8544  0.7109
  311MOL0     C41865   8.943   2.425   7.090 -1.1249  0.0997 -0.4691
  311MOL0     C41866   9.067   2.373   7.014 -0.1084  0.3776 -0.4646
  311MOL0     N41867   9.102   2.237   7.078  0.1965 -0.0862  0.0707
  311MOL0     C41868   9.191   2.214   7.180  0.1343  0.3169 -0.7327
  311MOL0     C41869   9.204   2.077   7.193  0.6101  0.3180  0.1351
  311MOL0     C41870   9.294   2.018   7.295  0.0415  0.3884 -0.3217
  311MOL0     C41871   9.440   2.053   7.270  0.9960  0.2188  0.7532
  311MOL0     C41872   9.490   1.991   7.144 -0.5257  0.3959  1.0045
  311MOL0     C41873   9.640   2.008   7.129  0.7970  0.6652  0.8009
  311MOL0     O41874   9.708   1.936   7.233 -0.4465 -0.7041  0.7384
  311MOL0     C41875   9.834   1.907   7.192  0.3790 -0.4341  0.3110
  311MOL0     C41876   9.913   1.985   7.102 -0.1752 -1.0211  0.3095
  311MOL0     C41877  10.045   1.954   7.063  0.9003 -0.2431 -0.1220
  311MOL0     C41878  10.105   1.841   7.121  0.0731  0.3341 -0.3197
  311MOL0     C41879  10.249   1.809   7.108 -0.3533 -0.6381 -0.2762
  311MOL0     O41880  10.302   1.701   7.170 -0.6812  0.4007 -0.7430
  311MOL0     C41881  10.429   1.664   7.145 -0.0140  0.8462  0.4033
  311MOL0     C41882  10.484   1.652   7.019  0.4298  0.9910  0.2838
  311MOL0     C41883  10.616   1.612   6.995 -0.0193 -0.1479 -0.3756
  311MOL0     C41884  10.691   1.571   7.106  0.7849 -1.3495  0.0551
  311MOL0     O41885  10.827   1.541   7.077  0.6506 -0.2926  0.5532
  311MOL0     C41886  10.912   1.649   7.099 -0.3086  0.3643 -0.2163
  311MOL0     C41887  10.980   1.623   7.232  0.1692 -0.5249 -0.6273
  311MOL0     C41888  11.024   1.751   7.306  0.3340  0.3711 -0.5171
  311MOL0     C41889  11.133   1.725   7.415  0.7373  0.8831 -1.3760
  311MOL0     C41890  11.182   1.847   7.498 -0.4763  0.0995  0.3738
  311MOL0     C41891  11.323   1.808   7.550 -0.0389 -1.1764 -0.1873
  311MOL0     C41892  11.375   1.920   7.646 -0.4919  0.3004  0.1167
  311MOL0     C41893  11.508   1.886   7.712 -0.2486  0.9324  0.6758
  311MOL0    Cl41894  11.534   2.003   7.837  0.1971 -0.2320  0.0692
  311MOL0     C41895  10.639   1.574   7.232 -0.8408  0.2138  0.0390
  311MOL0     C41896  10.504   1.625   7.256 -0.1894 -0.0942 -0.1060
  311MOL0     O41897  10.309   1.886   7.035  0.0795  0.0240  0.3804
  311MOL0     C41898  10.027   1.757   7.195 -0.6085  0.2974 -0.6067
  311MOL0     C41899   9.894   1.787   7.240 -0.0945 -0.2045  0.2961
  311MOL0     N41900   9.137   2.026   7.094 -1.0956 -0.4818 -0.5996
  311MOL0     N41901   9.074   2.120   7.023 -0.0154  0.4916 -0.3099
  311MOL0     C41902   8.306   3.033   7.345 -0.1410 -0.0836  0.2613
  311MOL0     C41903   8.226   3.119   7.425 -0.7874 -0.8117 -0.3389
  311MOL0     C41904   7.889   3.456   7.518 -0.6344 -0.9885 -0.7196
  311MOL0     C41905   7.775   3.529   7.484 -0.6106  0.6070 -1.1217
  311MOL0     C41906   7.709   3.610   7.579  0.4322 -0.3977  0.5246
  311MOL0     C41907   7.759   3.639   7.709 -0.0413 -0.0535  0.0597
  311MOL0     O41908   7.710   3.723   7.804  0.4804 -0.2604 -0.1147
  311MOL0     C41909   7.584   3.779   7.768  0.1234 -0.0558  0.1538
  311MOL0     C41910   7.520   3.842   7.898 -0.6538  0.5782  0.6627
  311MOL0     C41911   7.403   3.933   7.848  0.1605 -0.1038 -0.4429
  311MOL0     C41912   7.380   4.039   7.943 -1.1119 -0.6662 -0.1013
  311MOL0     C41913   7.282   4.141   7.878  0.2017 -0.6220  0.3753
  311MOL0     C41914   7.198   4.213   7.822  0.0399  0.4944  0.7804
  311MOL0     C41915   7.874   3.572   7.743 -0.7921  0.9141  0.2829
  311MOL0     C41916   7.937   3.481   7.653 -0.7673  0.2411 -0.4969
  311MOL0     C41917   8.070   3.418   7.710  0.1185 -0.4628 -0.4781
  311MOL0     H41918   8.075   3.294   7.173 -1.8478 -3.0937 -1.1165
  311MOL0     H41919   8.189   3.162   7.039 -3.7220  0.0093  0.2743
  311MOL0     H41920   8.550   2.938   7.210 -0.5172  2.9888 -2.2784
  311MOL0     H41921   8.430   2.812   7.252  0.8734  1.4228  1.8504
  311MOL0     H41922   8.576   2.852   6.974 -0.5153  0.7398 -0.8733
  311MOL0     H41923   8.439   2.745   6.996 -0.1779  1.8536 -0.1208
  311MOL0     H41924   8.552   2.632   7.201  1.4304  1.1792  3.2484
  311MOL0     H41925   8.683   2.728   7.180  2.7061 -3.5295 -0.6938
  311MOL0     H41926   8.599   2.577   6.925  0.9335 -2.0551 -0.4915
  311MOL0     H41927   8.750   2.645   6.979 -0.1583 -1.8698 -2.4380
  311MOL0     H41928   8.692   2.457   7.195 -1.0726  2.9951  1.0839
  311MOL0     H41929   8.595   2.386   7.067  1.7009 -0.7719 -3.6250
  311MOL0     H41930   8.800   2.260   7.051  2.8410  0.4220 -0.9197
  311MOL0     H41931   8.791   2.384   6.924 -0.9139 -0.8890  0.4979
  311MOL0     H41932   8.951   2.421   7.199 -1.5011  1.7528 -0.3408
  311MOL0     H41933   8.945   2.533   7.074  0.0970  0.4337  1.5003
  311MOL0     H41934   9.042   2.349   6.910 -0.2575  0.0211 -0.3510
  311MOL0     H41935   9.160   2.429   7.022  1.1250 -1.6017 -0.3705
  311MOL0     H41936   9.243   2.284   7.245  3.6854 -4.6793  2.5562
  311MOL0     H41937   9.271   2.051   7.397 -1.0442 -1.2148 -0.0119
  311MOL0     H41938   9.277   1.910   7.293  0.6065  0.3051 -0.8495
  311MOL0     H41939   9.463   2.160   7.271 -3.1290  1.3335 -0.9707
  311MOL0     H41940   9.494   2.012   7.356 -0.3623 -1.6561  0.7862
  311MOL0     H41941   9.439   2.032   7.057  0.3964 -0.5703 -0.0237
  311MOL0     H41942   9.463   1.885   7.147 -1.2714  0.6015  2.2916
  311MOL0     H41943   9.675   2.112   7.133  1.8595  0.3674 -0.3451
  311MOL0     H41944   9.668   1.975   7.029 -1.3166  0.9436  0.0732
  311MOL0     H41945   9.876   2.078   7.060  2.1378 -0.3341 -0.3812
  311MOL0     H41946  10.105   2.016   6.997  0.5665 -0.9081 -1.0834
  311MOL0     H41947  10.414   1.681   6.941 -0.4218  0.4531  0.8274
  311MOL0     H41948  10.670   1.605   6.901  3.2726  0.0430  1.3686
  311MOL0     H41949  10.992   1.652   7.024  0.3278  1.1162  0.4819
  311MOL0     H41950  10.854   1.742   7.097 -0.7475  0.0868 -0.9380
  311MOL0     H41951  10.909   1.567   7.294  3.1173 -2.7241  1.0347
  311MOL0     H41952  11.072   1.565   7.222  0.8400  0.6909 -1.8603
  311MOL0     H41953  11.071   1.819   7.234  2.4190  1.3728  1.6545
  311MOL0     H41954  10.943   1.813   7.345  0.1864 -0.6689  0.9154
  311MOL0     H41955  11.217   1.671   7.370  2.6639  2.6756 -0.1361
  311MOL0     H41956  11.091   1.659   7.491 -0.5421 -0.6965 -3.3524
  311MOL0     H41957  11.112   1.864   7.580 -0.7642 -2.8249  0.8563
  311MOL0     H41958  11.203   1.936   7.438  1.2960  0.3452  1.2864
  311MOL0     H41959  11.329   1.714   7.605  1.4179 -0.2225  1.3753
  311MOL0     H41960  11.382   1.800   7.459  1.0115  0.3349  0.3197
  311MOL0     H41961  11.304   1.922   7.728  0.8805  2.6389  1.3392
  311MOL0     H41962  11.375   2.022   7.606 -1.3916  0.7095  1.1271
  311MOL0     H41963  11.495   1.787   7.757  1.7492  1.5060  2.6658
  311MOL0     H41964  11.582   1.884   7.631 -0.4024  0.3634  0.5458
  311MOL0     H41965  10.700   1.536   7.314  0.7951 -0.2948 -1.3578
  311MOL0     H41966  10.458   1.616   7.354  0.0937 -0.6833 -0.0203
  311MOL0     H41967  10.072   1.668   7.237 -0.1146  0.9601  0.2941
  311MOL0     H41968   9.829   1.721   7.296 -1.4984 -1.1423 -2.2632
  311MOL0     H41969   8.387   2.976   7.389 -1.7813 -2.1678  0.7428
  311MOL0     H41970   8.221   3.115   7.533 -2.0240  1.8425 -0.2236
  311MOL0     H41971   7.739   3.515   7.383  0.4932  3.9719 -2.1249
  311MOL0     H41972   7.619   3.660   7.543  0.6854 -1.4928 -1.8911
  311MOL0     H41973   7.516   3.701   7.732 -0.0100 -0.3079  0.9266
  311MOL0     H41974   7.602   3.848   7.686 -1.0393  1.3310  1.0234
  311MOL0     H41975   7.601   3.891   7.953 -2.5638  3.5087  1.0925
  311MOL0     H41976   7.471   3.767   7.960 -0.1844  0.1855  0.5584
  311MOL0     H41977   7.316   3.869   7.830  1.4974 -1.6867 -1.6560
  311MOL0     H41978   7.432   3.968   7.748  1.8018 -0.0183  0.0374
  311MOL0     H41979   7.348   4.000   8.040  0.0842 -2.7640 -0.4802
  311MOL0     H41980   7.479   4.084   7.960 -0.2136 -2.1916 -1.0290
  311MOL0     H41981   7.117   4.257   7.769  0.5985 -0.3073 -0.7982
  311MOL0     H41982   7.910   3.583   7.845  4.8747 -1.8423 -1.0599
  311MOL0     H41983   8.087   3.456   7.811 -1.3785  0.3455 -0.5069
  311MOL0     H41984   8.049   3.310   7.712  2.7362 -1.0648 -1.2935
  311MOL0     H41985   8.161   3.432   7.652  1.2503 -2.1230  0.8050
  312MOL0     O41986   2.847   5.222  11.083 -0.5801 -0.2504  0.1126
  312MOL0     C41987   2.745   5.292  11.076  0.4745 -0.2267 -0.4380
  312MOL0     O41988   2.698   5.339  10.961 -0.3925 -0.1442  0.1021
  312MOL0     C41989   2.790   5.334  10.856  0.7462 -0.1346  0.7904
  312MOL0     C41990   2.839   5.219  10.788  0.3376  0.3756  0.5017
  312MOL0     C41991   2.916   5.232  10.669  0.1972 -0.0409 -0.0717
  312MOL0     C41992   2.940   5.361  10.617 -0.0363  0.3939  0.0772
  312MOL0     O41993   3.005   5.383  10.496 -0.2277 -0.3628  0.2215
  312MOL0     C41994   3.087   5.278  10.439  1.0544 -0.1949  0.2692
  312MOL0     C41995   3.214   5.262  10.522  0.2833 -0.3954 -0.7625
  312MOL0     C41996   3.287   5.127  10.487 -0.2462 -0.0349  0.2663
  312MOL0     C41997   3.357   5.135  10.352  0.7879  0.1934  0.0361
  312MOL0     C41998   3.411   5.006  10.310 -0.5443  0.6085  0.5671
  312MOL0     C41999   3.511   5.018  10.192  0.0324  0.1946 -0.4268
  312MOL0     C42000   3.551   4.882  10.136 -0.6652  0.1996 -0.0885
  312MOL0     C42001   3.656   4.907  10.021  0.3294  0.0903  0.0322
  312MOL0     N42002   3.574   4.938   9.907  0.5238 -0.1439  0.7598
  312MOL0     C42003   3.477   4.863   9.861  0.3002 -0.2699  0.4221
  312MOL0     C42004   3.419   4.926   9.758  1.1312 -0.1329 -1.1743
  312MOL0     C42005   3.309   4.856   9.664  0.5077  0.3185  0.0466
  312MOL0     C42006   3.173   4.836   9.717  1.0451  1.0287  0.6796
  312MOL0     C42007   3.170   4.705   9.788  0.1822  0.1448 -0.6663
  312MOL0     C42008   3.037   4.674   9.858  0.3063  0.1281  0.8300
  312MOL0     O42009   2.938   4.636   9.766  0.6388  0.4208 -0.4634
  312MOL0     C42010   2.832   4.561   9.822 -0.4343 -0.0372 -0.5801
  312MOL0     C42011   2.772   4.472   9.726  0.3650 -0.5060 -0.9692
  312MOL0     C42012   2.660   4.402   9.771  0.7997 -0.0072  0.1462
  312MOL0     C42013   2.609   4.408   9.895 -0.3768  0.9143 -0.0431
  312MOL0     C42014   2.480   4.334   9.924  0.6673 -0.0763 -0.1774
  312MOL0     O42015   2.449   4.227   9.849 -0.0972 -0.5735 -0.0983
  312MOL0     C42016   2.335   4.143   9.865 -1.0025  0.1173  0.9597
  312MOL0     C42017   2.291   4.085   9.747  0.4699  0.6793 -0.0950
  312MOL0     C42018   2.188   3.986   9.746 -0.5559  0.2443 -0.0064
  312MOL0     C42019   2.124   3.950   9.865 -0.3467  0.6771  0.1587
  312MOL0     O42020   2.022   3.861   9.867 -0.0905 -0.3403  0.5771
  312MOL0     C42021   1.961   3.827   9.989  0.0181 -0.2146 -0.0578
  312MOL0     C42022   1.844   3.741   9.961  0.3201  0.0817  0.0126
  312MOL0     C42023   1.767   3.736  10.093 -0.1388  0.6912  0.2894
  312MOL0     C42024   1.655   3.638  10.064  0.7714 -0.4052  0.4870
  312MOL0     C42025   1.554   3.616  10.179 -0.1567 -0.5170 -0.2215
  312MOL0     C42026   1.418   3.552  10.129 -0.3400 -0.4178  0.0465
  312MOL0     C42027   1.329   3.673  10.071  0.3437  0.3405  0.0655
  312MOL0     C42028   1.194   3.626  10.009 -0.4434 -1.1909 -0.0674
  312MOL0    Cl42029   1.233   3.510   9.880  0.5666  0.4537 -0.2779
  312MOL0     C42030   2.168   4.020   9.977 -0.3044 -0.2828  0.4003
  312MOL0     C42031   2.274   4.109   9.978  0.7286 -0.0183  0.3538
  312MOL0     O42032   2.413   4.373  10.018  0.2645 -0.3550 -0.7429
  312MOL0     C42033   2.670   4.488   9.996  0.0900  0.2116 -0.3079
  312MOL0     C42034   2.777   4.568   9.958 -0.2606  0.5516 -0.2256
  312MOL0     N42035   3.473   5.049   9.751 -0.2627  0.0799  0.4856
  312MOL0     N42036   3.566   5.065   9.842  0.1821 -0.4039 -0.2386
  312MOL0     C42037   2.894   5.472  10.682 -0.2818 -0.2199 -0.4174
  312MOL0     C42038   2.811   5.456  10.797  0.7907 -0.4587 -0.9355
  312MOL0     C42039   2.662   5.317  11.198  0.2251 -0.1911 -0.4438
  312MOL0     C42040   2.576   5.424  11.198 -0.0683  0.0941  0.2942
  312MOL0     C42041   2.511   5.471  11.313 -0.0450 -0.6761  0.4442
  312MOL0     C42042   2.517   5.401  11.433 -0.5919 -1.0951  0.9286
  312MOL0     O42043   2.447   5.464  11.532 -0.2408  0.6999  0.1062
  312MOL0     C42044   2.472   5.413  11.663  0.2203 -0.7005  0.3298
  312MOL0     C42045   2.410   5.518  11.761  0.7465 -0.0788  0.0534
  312MOL0     C42046   2.479   5.655  11.748  0.4185 -0.8488  0.1084
  312MOL0     C42047   2.631   5.674  11.724  0.0292 -0.6459  0.1736
  312MOL0     C42048   2.661   5.711  11.589 -0.0302 -0.3719 -0.2983
  312MOL0     C42049   2.667   5.751  11.476 -0.7605  0.2393 -0.3049
  312MOL0     C42050   2.598   5.284  11.433  0.1742 -0.7428  0.3193
  312MOL0     C42051   2.665   5.239  11.321  0.4144 -0.2995 -0.2854
  312MOL0     C42052   2.751   5.113  11.348  0.1201 -0.0942  0.3430
  312MOL0     H42053   2.813   5.123  10.831  1.6749 -0.9308 -1.4099
  312MOL0     H42054   2.941   5.137  10.623  0.9031  1.2812 -2.5958
  312MOL0     H42055   3.034   5.184  10.424  1.8820 -0.9101  1.6433
  312MOL0     H42056   3.102   5.324  10.341 -2.8705  2.0349  0.4622
  312MOL0     H42057   3.189   5.267  10.628  0.5075  1.2922 -0.7568
  312MOL0     H42058   3.288   5.342  10.509 -0.6764  0.6893  0.1882
  312MOL0     H42059   3.208   5.052  10.488 -1.2069  0.8559 -2.0176
  312MOL0     H42060   3.355   5.097  10.567  1.7146 -0.8033 -1.5926
  312MOL0     H42061   3.288   5.185  10.284 -1.2373  1.5939  2.9367
  312MOL0     H42062   3.429   5.217  10.364 -1.7900  2.5139  0.5578
  312MOL0     H42063   3.463   4.944  10.384  0.1347  2.4617  1.7025
  312MOL0     H42064   3.338   4.941  10.261  1.4912 -1.7864  0.5099
  312MOL0     H42065   3.460   5.083  10.120 -2.5497  0.3522  1.3901
  312MOL0     H42066   3.596   5.081  10.221  0.2954  0.8981 -2.5549
  312MOL0     H42067   3.459   4.834  10.101 -0.7754  0.3908 -0.0647
  312MOL0     H42068   3.598   4.812  10.206 -0.2871  1.5704  1.0775
  312MOL0     H42069   3.718   4.994  10.046 -1.2481  1.0205  0.8307
  312MOL0     H42070   3.714   4.821   9.986 -1.5715 -0.8569 -0.9078
  312MOL0     H42071   3.460   4.760   9.890 -1.2354  0.0938  0.8749
  312MOL0     H42072   3.295   4.935   9.589  0.4444  2.6295  2.3300
  312MOL0     H42073   3.351   4.764   9.623 -0.0296 -0.6542  1.5939
  312MOL0     H42074   3.144   4.921   9.780 -3.3488  0.9829 -0.8964
  312MOL0     H42075   3.107   4.837   9.630  2.9950 -1.1829 -0.9156
  312MOL0     H42076   3.246   4.715   9.866  1.3936  0.1749 -1.8220
  312MOL0     H42077   3.192   4.620   9.723  0.3038 -0.6091  0.3387
  312MOL0     H42078   2.997   4.763   9.909 -0.2164  2.1062 -2.7465
  312MOL0     H42079   3.048   4.596   9.934 -0.0591 -0.7921 -0.0564
  312MOL0     H42080   2.822   4.463   9.630 -0.1326 -1.5179 -1.1380
  312MOL0     H42081   2.602   4.337   9.706  0.0303 -2.1332  2.7924
  312MOL0     H42082   2.342   4.116   9.656  0.0915  1.2522 -0.1217
  312MOL0     H42083   2.172   3.946   9.646  1.4544 -0.2957 -0.1482
  312MOL0     H42084   2.038   3.788  10.057 -0.2950  0.5950  0.7899
  312MOL0     H42085   1.911   3.909  10.041  1.8171  0.3387  0.8699
  312MOL0     H42086   1.782   3.783   9.882  1.4190 -1.1664 -1.5722
  312MOL0     H42087   1.878   3.639   9.939 -0.8995 -0.8878  2.2598
  312MOL0     H42088   1.818   3.700  10.183 -1.1038 -0.3316  0.4502
  312MOL0     H42089   1.735   3.839  10.107  1.1087  1.1027  0.2895
  312MOL0     H42090   1.700   3.540  10.041  0.7074 -0.1963 -0.5583
  312MOL0     H42091   1.612   3.688   9.977 -1.7198 -2.2537  0.5450
  312MOL0     H42092   1.535   3.711  10.229  0.2391 -0.6410  0.1701
  312MOL0     H42093   1.596   3.543  10.249 -2.9241 -2.6622 -0.5776
  312MOL0     H42094   1.437   3.471  10.058 -2.4081  0.5954 -1.8079
  312MOL0     H42095   1.361   3.518  10.216 -1.9727  1.4418 -0.2287
  312MOL0     H42096   1.380   3.727   9.991 -1.2781  1.9361  0.0576
  312MOL0     H42097   1.297   3.743  10.150 -1.9098  0.6366 -1.0277
  312MOL0     H42098   1.132   3.575  10.083 -2.6532 -0.6754 -1.4789
  312MOL0     H42099   1.132   3.703   9.963  0.5896 -0.6714 -0.6262
  312MOL0     H42100   2.131   3.988  10.074  0.4719 -0.1255  0.7559
  312MOL0     H42101   2.301   4.139  10.078 -1.6588 -1.0014  1.3594
  312MOL0     H42102   2.617   4.489  10.091 -3.0200  1.3234 -1.9191
  312MOL0     H42103   2.816   4.631  10.037  3.2475 -3.2146  1.3751
  312MOL0     H42104   2.902   5.570  10.635  0.5666 -0.8159 -1.5804
  312MOL0     H42105   2.746   5.535  10.833  0.3404 -0.5068 -1.6339
  312MOL0     H42106   2.548   5.476  11.106 -1.5302 -1.2330 -0.0586
  312MOL0     H42107   2.456   5.564  11.303  0.0436 -0.5389  1.1731
  312MOL0     H42108   2.580   5.400  11.673 -0.0169 -1.6486  1.8871
  312MOL0     H42109   2.429   5.314  11.680  0.0446 -0.2745  2.5988
  312MOL0     H42110   2.423   5.478  11.862  1.2632 -0.0954 -0.0186
  312MOL0     H42111   2.305   5.534  11.734  0.3917 -2.0529  0.0898
  312MOL0     H42112   2.455   5.712  11.839 -1.5843  0.2677 -1.0563
  312MOL0     H42113   2.418   5.712  11.677  1.1461  1.0683  0.9439
  312MOL0     H42114   2.673   5.759  11.780  1.0371 -2.8419  3.0253
  312MOL0     H42115   2.694   5.590  11.754  0.0282  0.1304  2.6330
  312MOL0     H42116   2.651   5.777  11.373  1.6557 -0.7626 -1.0167
  312MOL0     H42117   2.610   5.230  11.527 -2.4480  1.5832  2.1550
  312MOL0     H42118   2.726   5.039  11.271  1.8645 -0.8372  0.4462
  312MOL0     H42119   2.860   5.122  11.346  0.1686  0.7546  2.9094
  312MOL0     H42120   2.716   5.072  11.443 -1.2629  0.5742  0.1494
  313MOL0     O42121   1.001   6.753  11.269  0.5088 -0.0875  0.1690
  313MOL0     C42122   1.091   6.761  11.352 -0.1625 -0.4345  1.2335
  313MOL0     O42123   1.068   6.758  11.489  0.8178  0.0803  0.4560
  313MOL0     C42124   0.949   6.700  11.544 -0.9553  0.4354 -0.2663
  313MOL0     C42125   0.895   6.760  11.666  0.6554 -0.6069  0.6208
  313MOL0     C42126   0.791   6.697  11.732  0.2688  0.2044 -0.5520
  313MOL0     C42127   0.739   6.571  11.698 -0.7763  0.5206  0.2598
  313MOL0     O42128   0.628   6.518  11.766 -0.1614 -0.4332  0.6724
  313MOL0     C42129   0.526   6.455  11.690 -0.4468 -0.4611 -0.4410
  313MOL0     C42130   0.395   6.485  11.765 -0.1249  0.4679  0.8875
  313MOL0     C42131   0.270   6.446  11.677  0.0160 -0.4734 -0.8684
  313MOL0     C42132   0.152   6.502  11.767 -0.5511  0.0245  0.1337
  313MOL0     C42133   0.019   6.481  11.688 -0.1588  0.0091 -0.1590
  313MOL0     C42134  -0.001   6.582  11.565  0.6414  0.7609 -0.3436
  313MOL0     C42135  -0.145   6.569  11.517 -1.4497 -0.6362  0.8135
  313MOL0     C42136  -0.200   6.449  11.443 -0.7237  0.0246  0.2772
  313MOL0     N42137  -0.113   6.371  11.356 -0.9947  0.6412  0.3769
  313MOL0     C42138  -0.052   6.429  11.247  0.1634 -0.3218 -0.0433
  313MOL0     C42139   0.046   6.337  11.221 -0.5521 -0.2107 -0.0775
  313MOL0     C42140   0.139   6.348  11.105  0.0674 -0.7183  0.5241
  313MOL0     C42141   0.222   6.476  11.117 -0.3746  0.1470 -0.4221
  313MOL0     C42142   0.337   6.496  11.012 -1.2269  0.1830  0.6006
  313MOL0     C42143   0.413   6.621  11.049 -0.3804  0.1393  0.4857
  313MOL0     O42144   0.546   6.613  11.001 -0.3705 -0.0926 -0.7134
  313MOL0     C42145   0.596   6.744  10.979 -0.1999  0.1406  0.9192
  313MOL0     C42146   0.717   6.787  11.033 -0.2807  0.4067  0.1364
  313MOL0     C42147   0.793   6.897  10.987 -0.4960 -0.6271  0.8478
  313MOL0     C42148   0.737   6.973  10.886  0.2704 -1.0568 -0.1002
  313MOL0     C42149   0.811   7.097  10.841  0.3954 -0.2798 -0.7369
  313MOL0     O42150   0.726   7.191  10.792 -0.5011 -0.4117 -0.3676
  313MOL0     C42151   0.780   7.306  10.743 -0.3963  0.3136  0.1401
  313MOL0     C42152   0.779   7.421  10.818  0.3178  0.0010 -0.7573
  313MOL0     C42153   0.852   7.535  10.778 -0.0262  0.9973  0.7338
  313MOL0     C42154   0.916   7.531  10.650 -0.6364  0.8765 -0.3186
  313MOL0     O42155   0.977   7.645  10.613  0.5367 -0.3310  0.4779
  313MOL0     C42156   0.995   7.681  10.467 -0.0238 -0.5157 -0.1013
  313MOL0     C42157   1.066   7.804  10.452 -0.2590 -0.5400 -0.4028
  313MOL0     C42158   1.079   7.854  10.304  0.3522 -1.1592 -0.3656
  313MOL0     C42159   1.156   7.985  10.284  1.0994 -0.0318 -0.1511
  313MOL0     C42160   1.196   7.998  10.131 -0.2158  0.2380  0.1269
  313MOL0     C42161   1.270   8.125  10.119 -0.6202 -0.4671  0.6237
  313MOL0     C42162   1.378   8.123  10.004 -0.1557  0.2700 -0.4562
  313MOL0     C42163   1.494   8.216  10.015 -0.2901  0.1581 -0.2354
  313MOL0    Cl42164   1.586   8.209   9.861 -0.0137  0.0904  0.4455
  313MOL0     C42165   0.914   7.416  10.568 -0.4930  0.1024  0.8664
  313MOL0     C42166   0.836   7.312  10.609 -0.5103  1.1731  0.4330
  313MOL0     O42167   0.930   7.110  10.853  0.2176  0.9820 -0.0763
  313MOL0     C42168   0.607   6.945  10.832 -0.1723 -0.1755 -0.0738
  313MOL0     C42169   0.547   6.824  10.873  0.5158 -0.2831 -0.2533
  313MOL0     N42170   0.038   6.229  11.311  0.1389  0.1838  0.5791
  313MOL0     N42171  -0.051   6.256  11.394  0.7823 -0.6170  0.1492
  313MOL0     C42172   0.798   6.513  11.579 -0.2251 -0.1818 -0.1414
  313MOL0     C42173   0.895   6.575  11.504 -0.1128 -0.1526 -0.6481
  313MOL0     C42174   1.233   6.773  11.313 -0.3327  0.3152  0.2056
  313MOL0     C42175   1.330   6.707  11.388  0.5579  0.3737  0.4820
  313MOL0     C42176   1.465   6.711  11.349  0.3359 -1.0086 -0.1270
  313MOL0     C42177   1.501   6.774  11.228  0.6489  0.2574 -0.6020
  313MOL0     O42178   1.627   6.780  11.177  0.1764 -0.6195  0.1215
  313MOL0     C42179   1.726   6.702  11.239  0.8775 -0.4556 -0.1369
  313MOL0     C42180   1.854   6.752  11.185  0.0509  0.8123  0.6397
  313MOL0     C42181   1.880   6.706  11.040 -0.0162  0.3679 -0.1071
  313MOL0     C42182   2.013   6.751  10.980  0.5296 -0.2593  0.0539
  313MOL0     C42183   2.128   6.738  11.075 -0.4632  0.5314  0.1000
  313MOL0     C42184   2.221   6.724  11.150 -0.7374 -1.0390 -0.0729
  313MOL0     C42185   1.404   6.845  11.161 -0.1199  0.2932 -0.2766
  313MOL0     C42186   1.273   6.846  11.196 -0.0174  0.1803  0.7463
  313MOL0     C42187   1.185   6.921  11.105 -0.0977 -0.0798 -0.0912
  313MOL0     H42188   0.929   6.858  11.696  0.1526  0.6110 -2.3793
  313MOL0     H42189   0.749   6.754  11.814 -0.3525 -0.2826 -0.5239
  313MOL0     H42190   0.515   6.496  11.590 -2.7074  1.8363  0.6543
  313MOL0     H42191   0.558   6.350  11.686  1.9609  0.1301  1.0189
  313MOL0     H42192   0.397   6.592  11.788 -1.3054  0.9632 -1.1007
  313MOL0     H42193   0.390   6.423  11.855 -0.8629  2.3487  2.2081
  313MOL0     H42194   0.247   6.339  11.670  2.4727 -1.0243 -1.4220
  313MOL0     H42195   0.282   6.477  11.573 -2.2382 -2.5556 -1.8741
  313MOL0     H42196   0.144   6.447  11.862  0.6584  0.4799  0.5232
  313MOL0     H42197   0.168   6.607  11.795 -1.4577  0.9421 -2.4839
  313MOL0     H42198   0.007   6.380  11.649 -0.0249  0.0178 -0.2232
  313MOL0     H42199  -0.069   6.501  11.750  0.0549  0.2744  0.0611
  313MOL0     H42200   0.017   6.689  11.581 -0.0970  0.8067  0.2117
  313MOL0     H42201   0.065   6.546  11.485  0.8856 -4.5221  1.8157
  313MOL0     H42202  -0.146   6.648  11.442  2.4334 -0.8571  0.3371
  313MOL0     H42203  -0.217   6.601  11.593 -1.9756  1.2667 -0.4164
  313MOL0     H42204  -0.235   6.376  11.517 -1.3553  0.5734  0.5236
  313MOL0     H42205  -0.291   6.472  11.386 -1.3075 -1.0638  0.7335
  313MOL0     H42206  -0.064   6.522  11.193 -2.6334  0.0325  0.9862
  313MOL0     H42207   0.203   6.259  11.108 -0.1105 -0.9356 -1.2283
  313MOL0     H42208   0.088   6.347  11.009  0.8936 -2.1115  0.0710
  313MOL0     H42209   0.162   6.567  11.122  1.4186  1.4120 -1.0578
  313MOL0     H42210   0.260   6.461  11.218 -0.1325 -0.0299 -0.5402
  313MOL0     H42211   0.284   6.497  10.916 -0.3106  1.6280  0.0747
  313MOL0     H42212   0.397   6.405  11.005 -0.9968  0.4002 -0.4191
  313MOL0     H42213   0.414   6.614  11.158  2.8163 -1.9356  0.4504
  313MOL0     H42214   0.360   6.708  11.010  0.6198 -0.3551 -2.2631
  313MOL0     H42215   0.746   6.721  11.114 -3.7179 -2.3116 -0.6193
  313MOL0     H42216   0.890   6.929  11.025 -0.5398 -0.9833  1.2610
  313MOL0     H42217   0.723   7.420  10.911  1.9131  3.0535  0.3807
  313MOL0     H42218   0.869   7.621  10.842  0.5787  3.4103 -2.4117
  313MOL0     H42219   1.049   7.604  10.411 -1.7593  0.1571 -2.8870
  313MOL0     H42220   0.898   7.697  10.419 -0.7492 -2.4325  0.5982
  313MOL0     H42221   1.024   7.879  10.521  1.1403 -1.9020  2.0925
  313MOL0     H42222   1.165   7.781  10.491  0.1956  2.6866  0.6707
  313MOL0     H42223   1.131   7.783  10.239  1.2085 -1.3581  0.5074
  313MOL0     H42224   0.974   7.861  10.273  0.3152 -1.6859 -0.3670
  313MOL0     H42225   1.245   7.980  10.347 -0.3210 -2.3913  1.8758
  313MOL0     H42226   1.094   8.074  10.299  0.4739 -0.7006  1.4597
  313MOL0     H42227   1.103   8.009  10.076  0.0345  2.0529  0.0068
  313MOL0     H42228   1.259   7.912  10.108  0.9170  1.6769 -2.6518
  313MOL0     H42229   1.198   8.199  10.085  0.4803  0.7093  0.8086
  313MOL0     H42230   1.309   8.161  10.214 -0.8785 -0.9714  0.9302
  313MOL0     H42231   1.325   8.143   9.910 -2.0162 -3.2196 -0.3080
  313MOL0     H42232   1.415   8.022   9.983  2.0764  0.7863  0.7286
  313MOL0     H42233   1.477   8.316  10.057  1.6561 -0.5116  2.4811
  313MOL0     H42234   1.555   8.179  10.099 -1.6098 -2.6865 -0.4281
  313MOL0     H42235   0.970   7.422  10.475 -0.6181  1.5688  0.8771
  313MOL0     H42236   0.841   7.216  10.559  3.4341  1.1649  0.5820
  313MOL0     H42237   0.560   7.020  10.770 -0.1156  0.5766  0.7648
  313MOL0     H42238   0.448   6.805  10.833  0.8571 -0.3024 -1.1115
  313MOL0     H42239   0.747   6.423  11.544 -2.8467  1.4535 -0.7836
  313MOL0     H42240   0.914   6.526  11.409 -1.6046 -1.0529 -0.5193
  313MOL0     H42241   1.327   6.652  11.481  3.8077  1.4346  1.3281
  313MOL0     H42242   1.535   6.651  11.406  2.1338 -0.0508 -1.2262
  313MOL0     H42243   1.722   6.593  11.231  0.2508 -0.3706 -1.0238
  313MOL0     H42244   1.722   6.720  11.347  0.2994  0.2490 -0.2677
  313MOL0     H42245   1.932   6.710  11.249 -0.1376 -0.7871 -0.1249
  313MOL0     H42246   1.868   6.860  11.195  1.3683  0.5345  2.1701
  313MOL0     H42247   1.802   6.751  10.978 -1.4028 -2.3547 -0.4695
  313MOL0     H42248   1.865   6.598  11.032 -0.3891  0.3909  0.2706
  313MOL0     H42249   2.022   6.698  10.884 -1.8918  1.3056 -1.1456
  313MOL0     H42250   2.005   6.854  10.944  0.6737 -1.2337 -3.0621
  313MOL0     H42251   2.302   6.707  11.218 -0.3250  1.2866  0.0995
  313MOL0     H42252   1.428   6.905  11.073 -1.3959 -2.0596 -2.3521
  313MOL0     H42253   1.239   7.011  11.077  1.2562 -0.4431  1.1943
  313MOL0     H42254   1.159   6.856  11.021 -2.0132 -0.2361  0.5705
  313MOL0     H42255   1.100   6.951  11.167 -1.6226 -3.2206 -0.4061
  314MOL0     O42256   7.941   9.577   6.950  0.4654 -0.3675  0.3860
  314MOL0     C42257   7.907   9.527   7.054  0.1429  0.5616  0.2182
  314MOL0     O42258   7.995   9.477   7.147 -0.3291 -0.2206 -0.3699
  314MOL0     C42259   8.130   9.506   7.127  0.7618 -1.1725 -0.3339
  314MOL0     C42260   8.203   9.430   7.035  0.5698  1.0971 -0.6260
  314MOL0     C42261   8.341   9.441   7.030 -0.2224 -0.2228  0.0436
  314MOL0     C42262   8.409   9.516   7.111 -0.4503 -0.6820  0.2485
  314MOL0     O42263   8.541   9.511   7.134  0.4835  0.0061 -0.9125
  314MOL0     C42264   8.625   9.432   7.055  0.2052  0.3416  0.2486
  314MOL0     C42265   8.761   9.425   7.129 -0.8279  1.0998 -0.6142
  314MOL0     C42266   8.837   9.556   7.099  0.3865  0.3025 -0.9693
  314MOL0     C42267   8.929   9.568   7.217 -0.3934  0.0970  0.0311
  314MOL0     C42268   9.050   9.668   7.193 -0.7510 -0.0709  0.5309
  314MOL0     C42269   9.177   9.651   7.272 -0.1565 -0.2203  0.3469
  314MOL0     C42270   9.259   9.533   7.227 -0.2932  0.0995 -0.2246
  314MOL0     C42271   9.412   9.552   7.233  0.6385 -0.2457  0.8006
  314MOL0     N42272   9.459   9.605   7.108  0.1168 -0.3840  0.1802
  314MOL0     C42273   9.477   9.743   7.081 -0.4581 -1.1549  0.3225
  314MOL0     C42274   9.555   9.745   6.967  0.0214 -0.5681 -0.3937
  314MOL0     C42275   9.604   9.864   6.885  0.3594  0.0145  0.3603
  314MOL0     C42276   9.734   9.910   6.957 -0.7569 -0.3295  0.0896
  314MOL0     C42277   9.804  10.025   6.877  0.5007  0.3162  1.0522
  314MOL0     C42278   9.928  10.083   6.933  0.0313  0.2662 -0.2236
  314MOL0     O42279   9.985  10.179   6.842  0.0220  1.6007 -0.6713
  314MOL0     C42280  10.077  10.269   6.894  0.0463  0.9241 -0.4298
  314MOL0     C42281  10.093  10.373   6.815  0.4726 -0.5680 -0.3516
  314MOL0     C42282  10.196  10.475   6.838  0.0660  1.0443 -0.1343
  314MOL0     C42283  10.269  10.468   6.962 -0.0291  0.6154  0.1620
  314MOL0     C42284  10.362  10.570   6.997  0.4440  0.0295  0.4029
  314MOL0     O42285  10.424  10.652   6.908  0.4977 -0.1121 -0.2324
  314MOL0     C42286  10.535  10.731   6.936 -0.0450 -0.0988 -0.2575
  314MOL0     C42287  10.528  10.838   7.035 -0.3911  0.6053  1.1042
  314MOL0     C42288  10.645  10.893   7.073 -0.3336 -0.9646  2.2131
  314MOL0     C42289  10.760  10.873   6.999 -0.1817 -0.2438 -0.2266
  314MOL0     O42290  10.875  10.933   7.058 -0.3435  0.4643 -0.2382
  314MOL0     C42291  11.008  10.884   7.020 -0.3252  0.4006  0.0067
  314MOL0     C42292  11.075  10.800   7.123  0.1939  0.6967 -0.7798
  314MOL0     C42293  11.224  10.826   7.133  0.5957  0.5446 -0.6518
  314MOL0     C42294  11.293  10.740   7.248  0.4780  0.0911 -0.7128
  314MOL0     C42295  11.274  10.591   7.229 -0.7773 -0.5060  0.3196
  314MOL0     C42296  11.348  10.517   7.340  0.3955 -0.2556  0.5257
  314MOL0     C42297  11.276  10.496   7.473  0.9845 -0.4735 -0.3184
  314MOL0     C42298  11.357  10.409   7.575  0.0573  0.2974 -0.2947
  314MOL0    Cl42299  11.263  10.400   7.728 -0.2839 -0.6016  0.0694
  314MOL0     C42300  10.761  10.788   6.887  0.4090 -0.5361  0.7093
  314MOL0     C42301  10.646  10.716   6.856 -0.1815 -0.5174  0.3186
  314MOL0     O42302  10.388  10.564   7.117 -0.2044 -0.0965 -0.1790
  314MOL0     C42303  10.242  10.357   7.044  0.1076 -0.0732 -0.3212
  314MOL0     C42304  10.151  10.259   7.017 -0.9784  0.5528  0.3023
  314MOL0     N42305   9.569   9.615   6.936  0.0018  0.5076  0.9376
  314MOL0     N42306   9.521   9.531   7.017  0.3265  0.3588  0.3560
  314MOL0     C42307   8.344   9.595   7.200 -0.0363 -0.4774 -0.3414
  314MOL0     C42308   8.201   9.592   7.212 -0.5159 -0.0252 -0.7997
  314MOL0     C42309   7.757   9.500   7.073 -1.1024  0.2624 -1.1995
  314MOL0     C42310   7.722   9.450   7.197  0.1266 -0.5800 -0.4290
  314MOL0     C42311   7.592   9.414   7.234 -0.1170 -0.2710  0.0821
  314MOL0     C42312   7.494   9.441   7.142 -0.8643 -0.0131 -0.1457
  314MOL0     O42313   7.358   9.435   7.162 -0.0638 -0.6099  0.1397
  314MOL0     C42314   7.303   9.417   7.296 -0.0348 -0.6671 -0.4896
  314MOL0     C42315   7.314   9.272   7.349 -0.1246 -0.2192 -0.8753
  314MOL0     C42316   7.254   9.249   7.490  0.4176  0.0959 -0.1022
  314MOL0     C42317   7.240   9.106   7.533  0.8620 -1.1242  0.0388
  314MOL0     C42318   7.156   9.044   7.428 -0.0386 -0.3979 -0.1896
  314MOL0     C42319   7.082   8.984   7.349  0.8442  0.0695 -0.1278
  314MOL0     C42320   7.534   9.481   7.014 -0.3622  0.3723  0.4697
  314MOL0     C42321   7.664   9.516   6.969 -0.0313  0.4534 -0.8738
  314MOL0     C42322   7.679   9.573   6.827  0.4245  0.2155 -0.4340
  314MOL0     H42323   8.161   9.359   6.964 -0.1007  1.6324 -0.7730
  314MOL0     H42324   8.404   9.386   6.961  2.4122  0.5499  1.7108
  314MOL0     H42325   8.586   9.330   7.066 -1.5618  1.1172  1.8207
  314MOL0     H42326   8.625   9.458   6.949 -3.8651 -1.9183 -0.5436
  314MOL0     H42327   8.816   9.339   7.087  0.3310  2.2795 -1.6103
  314MOL0     H42328   8.724   9.405   7.230  2.3623 -0.6354  0.3684
  314MOL0     H42329   8.765   9.638   7.090 -0.6181 -0.3136  0.8917
  314MOL0     H42330   8.894   9.558   7.006  2.3388  1.0767  0.1713
  314MOL0     H42331   8.873   9.593   7.307  2.0582  1.0286  1.3931
  314MOL0     H42332   8.965   9.471   7.249  0.9771 -0.1731 -2.1381
  314MOL0     H42333   9.080   9.661   7.088  3.0316 -0.3773  1.4738
  314MOL0     H42334   8.999   9.763   7.207 -0.5839  0.5381 -2.4182
  314MOL0     H42335   9.234   9.741   7.248  0.2570 -1.3540 -3.4680
  314MOL0     H42336   9.159   9.647   7.380  3.7311  0.6236  1.1751
  314MOL0     H42337   9.237   9.506   7.124  2.8153  2.0062 -1.5164
  314MOL0     H42338   9.236   9.448   7.293  1.8138 -0.8921 -0.6873
  314MOL0     H42339   9.446   9.619   7.313  1.7593 -0.8403  0.8468
  314MOL0     H42340   9.455   9.452   7.241  1.3949 -0.3652 -3.1380
  314MOL0     H42341   9.444   9.823   7.147 -1.8638 -1.1055 -0.3917
  314MOL0     H42342   9.629   9.835   6.783  0.2702  1.1040  0.0248
  314MOL0     H42343   9.531   9.945   6.880  0.1305 -0.0666  1.8318
  314MOL0     H42344   9.714   9.944   7.060  2.2954  0.6045  0.4857
  314MOL0     H42345   9.800   9.823   6.954  0.7476  0.7992 -0.9152
  314MOL0     H42346   9.725  10.100   6.863 -1.6709 -2.2391 -1.5930
  314MOL0     H42347   9.830   9.992   6.776 -1.4841  1.2861  0.1559
  314MOL0     H42348   9.992  10.007   6.978 -0.4215  0.0405  0.0389
  314MOL0     H42349   9.894  10.138   7.021  0.3503 -0.2597  0.2297
  314MOL0     H42350  10.031  10.384   6.727 -0.0530  2.1276  0.2733
  314MOL0     H42351  10.230  10.552   6.770  0.6618 -0.0288 -1.0793
  314MOL0     H42352  10.432  10.869   7.073 -3.2367 -3.0406 -2.2382
  314MOL0     H42353  10.635  10.955   7.161  0.5551 -0.4114  1.9401
  314MOL0     H42354  11.020  10.825   6.929  1.9994 -1.8117  1.6157
  314MOL0     H42355  11.073  10.968   6.993  1.8087 -1.0565  0.4139
  314MOL0     H42356  11.032  10.835   7.217 -0.2288 -0.2057 -0.6264
  314MOL0     H42357  11.056  10.692   7.120  3.4183 -0.1959  2.9748
  314MOL0     H42358  11.275  10.805   7.039  0.9843 -0.5123 -0.2238
  314MOL0     H42359  11.231  10.933   7.154  2.3326 -0.1964  3.6354
  314MOL0     H42360  11.256  10.775   7.345 -0.7224 -4.0818  0.5844
  314MOL0     H42361  11.397  10.773   7.249 -0.0659  2.0598 -2.1924
  314MOL0     H42362  11.309  10.554   7.132 -3.2422  0.5822 -1.0809
  314MOL0     H42363  11.168  10.566   7.240 -1.2450 -0.0911 -2.6539
  314MOL0     H42364  11.382  10.417   7.309  4.9001  1.5229 -1.1512
  314MOL0     H42365  11.437  10.579   7.353  1.6406 -1.3517 -1.9514
  314MOL0     H42366  11.187  10.436   7.455  1.8623 -1.3597 -1.9296
  314MOL0     H42367  11.248  10.596   7.508  2.0389 -0.6986  1.2998
  314MOL0     H42368  11.365  10.307   7.537 -0.3776  0.4350 -0.7782
  314MOL0     H42369  11.449  10.467   7.586 -1.0699  1.6592  3.7793
  314MOL0     H42370  10.851  10.767   6.830  1.8122 -1.7454  3.1636
  314MOL0     H42371  10.658  10.651   6.770  2.6252  0.1898  0.0913
  314MOL0     H42372  10.288  10.354   7.142  3.1419  0.8077 -1.5756
  314MOL0     H42373  10.139  10.182   7.093  1.0216  1.4610  1.6152
  314MOL0     H42374   8.403   9.664   7.260  1.7976 -0.5798 -1.9346
  314MOL0     H42375   8.140   9.648   7.282 -5.3215 -2.4075 -2.6303
  314MOL0     H42376   7.790   9.433   7.280 -3.0223 -0.5271  2.3794
  314MOL0     H42377   7.567   9.393   7.338 -1.1784  3.3689  0.7103
  314MOL0     H42378   7.195   9.433   7.298 -0.0097 -0.5210 -0.2234
  314MOL0     H42379   7.349   9.485   7.369 -3.7978  2.5739 -0.7845
  314MOL0     H42380   7.421   9.251   7.357 -0.2712 -0.1262  3.5546
  314MOL0     H42381   7.273   9.213   7.267 -0.9484 -1.7925  0.6050
  314MOL0     H42382   7.154   9.294   7.495  0.9563  1.2861  0.4670
  314MOL0     H42383   7.317   9.292   7.568  1.5013 -3.8987  1.4652
  314MOL0     H42384   7.338   9.059   7.544  1.1678  0.0191  3.6693
  314MOL0     H42385   7.193   9.094   7.631  0.7538  1.7625  0.4361
  314MOL0     H42386   7.001   8.943   7.292 -0.7193  0.6741  1.5662
  314MOL0     H42387   7.455   9.499   6.942  0.5271 -3.4806 -1.7231
  314MOL0     H42388   7.752   9.512   6.774  0.8966  0.7627 -0.4154
  314MOL0     H42389   7.581   9.576   6.779  2.1326  0.6750 -4.2129
  314MOL0     H42390   7.723   9.673   6.832 -0.1277  0.4029  2.1242
  315MOL0     O42391   1.945   3.940   8.875 -0.2623  0.6276 -0.6350
  315MOL0     C42392   1.852   3.986   8.807 -0.0967  0.4735  0.5138
  315MOL0     O42393   1.871   4.058   8.687  0.0493 -0.4192 -0.0531
  315MOL0     C42394   1.993   4.046   8.631 -0.2990 -0.2302 -0.7470
  315MOL0     C42395   2.076   3.939   8.609  1.0156  0.6750 -0.0552
  315MOL0     C42396   2.200   3.956   8.547  0.0382  0.7646  0.7196
  315MOL0     C42397   2.256   4.073   8.509  1.4502  1.0020  0.4701
  315MOL0     O42398   2.362   4.085   8.419  0.1396 -0.3117 -0.0008
  315MOL0     C42399   2.479   4.023   8.463 -0.1594 -0.2514 -1.1117
  315MOL0     C42400   2.591   4.047   8.358 -0.1203 -0.8895  0.5678
  315MOL0     C42401   2.649   4.192   8.351  0.1342  0.9942 -0.4331
  315MOL0     C42402   2.779   4.177   8.263 -0.1450 -0.1590 -0.8753
  315MOL0     C42403   2.847   4.311   8.243 -0.7479 -0.1869 -0.1204
  315MOL0     C42404   2.976   4.290   8.167 -0.0028  0.4091 -0.2319
  315MOL0     C42405   3.059   4.428   8.124  1.3517 -0.2937  0.2356
  315MOL0     C42406   3.192   4.405   8.059  0.0653  1.2478 -0.5134
  315MOL0     N42407   3.291   4.516   8.052 -0.1225  0.0396  0.6881
  315MOL0     C42408   3.409   4.512   7.980  0.7821  0.7260  0.1079
  315MOL0     C42409   3.453   4.637   7.980  0.6270  0.1175 -0.0094
  315MOL0     C42410   3.588   4.686   7.935  0.2968 -0.3479  0.4501
  315MOL0     C42411   3.686   4.746   8.040  0.1972  0.5021 -0.2098
  315MOL0     C42412   3.747   4.636   8.135  0.0186  0.4232 -1.0437
  315MOL0     C42413   3.768   4.697   8.280  0.8629  1.0843 -0.4395
  315MOL0     O42414   3.860   4.806   8.291  0.4601 -0.9435  0.5787
  315MOL0     C42415   3.997   4.783   8.296 -0.2825  0.0045  0.7951
  315MOL0     C42416   4.067   4.662   8.280 -0.3989 -0.4937  0.2393
  315MOL0     C42417   4.207   4.671   8.266  0.2221  0.6763  0.3607
  315MOL0     C42418   4.277   4.788   8.286  0.4828 -0.0664  0.7139
  315MOL0     C42419   4.418   4.783   8.298 -0.5022  0.1599  0.3016
  315MOL0     O42420   4.487   4.905   8.309 -0.5448 -1.0877  0.7096
  315MOL0     C42421   4.624   4.889   8.335  0.5572  0.5255  0.9252
  315MOL0     C42422   4.720   4.858   8.235  0.2326 -0.8938 -0.0652
  315MOL0     C42423   4.849   4.816   8.267  0.1806 -0.0741 -0.4598
  315MOL0     C42424   4.891   4.814   8.401 -0.3734  0.3658  0.1377
  315MOL0     O42425   5.020   4.808   8.425  0.0422 -0.2218  0.0705
  315MOL0     C42426   5.081   4.697   8.365  0.5352 -0.1274  0.4216
  315MOL0     C42427   5.184   4.635   8.463  0.3789  0.0567 -0.2800
  315MOL0     C42428   5.304   4.728   8.501 -0.5730 -0.4000  0.3138
  315MOL0     C42429   5.435   4.637   8.525  0.8540 -0.3097 -0.7800
  315MOL0     C42430   5.560   4.727   8.539 -0.0089  0.8578  0.0555
  315MOL0     C42431   5.687   4.646   8.526  0.3960 -0.1352 -0.3247
  315MOL0     C42432   5.799   4.739   8.493 -0.4742  0.0439  0.1081
  315MOL0     C42433   5.941   4.664   8.494  0.7130  0.6298 -0.4040
  315MOL0    Cl42434   6.083   4.774   8.457 -0.3617  0.1542  0.5565
  315MOL0     C42435   4.802   4.851   8.499  0.3454  0.5367 -0.7059
  315MOL0     C42436   4.666   4.884   8.467 -0.0353  1.2524 -0.7580
  315MOL0     O42437   4.476   4.676   8.314 -0.0348  0.2143 -0.1634
  315MOL0     C42438   4.203   4.906   8.308 -1.2581  0.1716 -0.1027
  315MOL0     C42439   4.066   4.909   8.310  0.1673  0.5003  0.3890
  315MOL0     N42440   3.373   4.715   8.065  0.0598  0.6454  0.6812
  315MOL0     N42441   3.275   4.638   8.106 -0.4457 -0.5785  0.2252
  315MOL0     C42442   2.170   4.183   8.523 -0.6454 -0.6970 -0.0135
  315MOL0     C42443   2.042   4.171   8.582 -0.0583  0.8034  0.6230
  315MOL0     C42444   1.706   3.972   8.848  0.1884 -0.7716  0.8344
  315MOL0     C42445   1.604   4.003   8.760 -1.4978 -0.0118  0.9060
  315MOL0     C42446   1.474   3.984   8.788 -0.0274  0.5017 -0.9699
  315MOL0     C42447   1.438   3.930   8.912  0.4057  0.3401  0.1811
  315MOL0     O42448   1.306   3.907   8.945 -0.2854  0.0806 -0.6591
  315MOL0     C42449   1.238   3.803   8.877  0.5445  0.3990 -0.2840
  315MOL0     C42450   1.097   3.851   8.840 -0.0834 -0.9788 -0.3214
  315MOL0     C42451   1.000   3.742   8.809  0.3937  0.1657 -0.1260
  315MOL0     C42452   0.855   3.801   8.797  0.5400 -0.1522 -0.7014
  315MOL0     C42453   0.760   3.721   8.715 -0.5109  0.1878  0.6956
  315MOL0     C42454   0.687   3.649   8.662  0.1159 -0.4441  1.1688
  315MOL0     C42455   1.537   3.903   9.003 -0.0998  1.0964  0.0218
  315MOL0     C42456   1.669   3.924   8.975  0.3395 -0.1408  0.1500
  315MOL0     C42457   1.768   3.923   9.091  0.3558  0.2764  0.0141
  315MOL0     H42458   2.043   3.842   8.644 -1.5105  0.4751 -2.5778
  315MOL0     H42459   2.257   3.864   8.534 -0.5470  0.2284  1.8329
  315MOL0     H42460   2.507   4.079   8.553 -2.6354  1.7684 -1.5102
  315MOL0     H42461   2.463   3.917   8.486 -0.3787 -0.1302 -0.6905
  315MOL0     H42462   2.559   4.023   8.256 -0.0403  1.7214 -0.1553
  315MOL0     H42463   2.676   3.984   8.387  0.4545  0.2495  1.4286
  315MOL0     H42464   2.678   4.223   8.452 -0.1288  2.0351 -0.6681
  315MOL0     H42465   2.569   4.252   8.308 -1.1039 -1.2540 -1.4051
  315MOL0     H42466   2.853   4.113   8.312 -0.2234 -0.8116 -1.5898
  315MOL0     H42467   2.747   4.132   8.168 -0.8600  0.6033 -1.0072
  315MOL0     H42468   2.781   4.384   8.197 -1.8266 -0.1253  1.4495
  315MOL0     H42469   2.882   4.348   8.340 -2.4794 -1.9396  1.2538
  315MOL0     H42470   3.038   4.223   8.227  0.2357  2.2111  1.6780
  315MOL0     H42471   2.955   4.237   8.074 -3.4704  0.5160  0.3681
  315MOL0     H42472   3.073   4.489   8.213  2.2177 -1.5277  0.9732
  315MOL0     H42473   2.998   4.482   8.051  3.3999 -0.4190 -1.6673
  315MOL0     H42474   3.240   4.328   8.119 -0.3100 -0.0445 -1.8064
  315MOL0     H42475   3.183   4.366   7.957 -0.3274  0.2202 -0.0954
  315MOL0     H42476   3.461   4.428   7.936 -1.6223 -2.1292  2.3051
  315MOL0     H42477   3.640   4.604   7.885 -1.1250  0.0967 -1.9176
  315MOL0     H42478   3.570   4.768   7.864 -0.4380  0.4550  1.5327
  315MOL0     H42479   3.769   4.791   7.985  0.8105 -2.1621 -1.6742
  315MOL0     H42480   3.623   4.813   8.098 -1.1084 -0.5451 -0.3723
  315MOL0     H42481   3.845   4.606   8.095 -0.7845 -0.8044 -2.1624
  315MOL0     H42482   3.675   4.554   8.147 -0.2401  0.5834 -1.4851
  315MOL0     H42483   3.789   4.624   8.358  0.7252  2.0958  0.5549
  315MOL0     H42484   3.666   4.732   8.300  0.1137 -1.0500 -0.2315
  315MOL0     H42485   4.014   4.568   8.282 -1.3227 -0.0178 -0.8014
  315MOL0     H42486   4.243   4.572   8.240 -2.0652 -0.5142  1.4520
  315MOL0     H42487   4.693   4.849   8.130  0.4512 -1.8106 -0.0602
  315MOL0     H42488   4.912   4.790   8.182  1.7749  1.6111  0.1306
  315MOL0     H42489   5.011   4.614   8.361  0.9238 -0.4790  0.7665
  315MOL0     H42490   5.129   4.718   8.268 -0.4153 -1.3098 -0.3280
  315MOL0     H42491   5.131   4.610   8.556 -0.0155  0.9501 -0.2563
  315MOL0     H42492   5.222   4.539   8.425 -2.1978 -2.0061  1.9031
  315MOL0     H42493   5.321   4.789   8.412 -2.2589  0.2446  0.3886
  315MOL0     H42494   5.277   4.796   8.583  0.3757  1.7785 -1.0856
  315MOL0     H42495   5.452   4.581   8.432 -1.9467 -0.7916 -1.0801
  315MOL0     H42496   5.412   4.573   8.611 -2.9189  2.8428  0.8875
  315MOL0     H42497   5.551   4.786   8.630  0.8007  1.1473 -0.0449
  315MOL0     H42498   5.562   4.802   8.459  0.6025 -1.1518 -1.9155
  315MOL0     H42499   5.707   4.593   8.619  1.0966 -0.5482 -0.7046
  315MOL0     H42500   5.696   4.571   8.446 -1.5348 -0.2837 -0.4751
  315MOL0     H42501   5.796   4.821   8.565 -0.1629  0.5757 -0.4777
  315MOL0     H42502   5.780   4.775   8.391  1.2334 -2.9004 -1.3811
  315MOL0     H42503   5.963   4.621   8.592 -0.2323  0.2067 -0.3700
  315MOL0     H42504   5.952   4.581   8.424  1.7795 -0.8299  1.4086
  315MOL0     H42505   4.839   4.865   8.600 -0.7789  2.3657 -0.4915
  315MOL0     H42506   4.594   4.905   8.546  0.7559  0.6480  0.1661
  315MOL0     H42507   4.261   4.997   8.319 -1.7341  0.3602  0.9318
  315MOL0     H42508   4.020   5.005   8.332  0.8233  0.3372  2.7794
  315MOL0     H42509   2.210   4.270   8.472  1.1662 -2.1612 -1.2518
  315MOL0     H42510   1.975   4.257   8.592 -0.4573  0.8039 -1.6368
  315MOL0     H42511   1.617   4.041   8.659 -0.9645  0.2367  1.0630
  315MOL0     H42512   1.388   4.002   8.725 -2.4499  0.5723  2.1215
  315MOL0     H42513   1.229   3.716   8.943 -0.5398  1.4958  1.0492
  315MOL0     H42514   1.288   3.776   8.783 -0.9051 -0.2385 -0.8961
  315MOL0     H42515   1.107   3.923   8.758  3.8217 -3.1696 -2.0509
  315MOL0     H42516   1.054   3.906   8.924  1.4629  1.2958 -0.9287
  315MOL0     H42517   1.008   3.667   8.889 -0.9251  1.6630  1.4703
  315MOL0     H42518   1.035   3.695   8.717  4.1037 -0.4611  1.4091
  315MOL0     H42519   0.809   3.805   8.896  0.7872 -3.3470 -0.3511
  315MOL0     H42520   0.858   3.903   8.758 -0.0123  0.9326  1.8756
  315MOL0     H42521   0.624   3.577   8.612 -0.4411  1.3589 -0.8681
  315MOL0     H42522   1.483   3.879   9.095 -4.0694  0.4679 -2.2397
  315MOL0     H42523   1.837   3.843   9.063  0.4679  0.6335 -0.7669
  315MOL0     H42524   1.824   4.015   9.112  0.3988  0.3109 -0.2550
  315MOL0     H42525   1.714   3.903   9.184  1.6756  1.5911  1.1266
  316MOL0     O42526   3.011   7.941   9.924  0.1600  0.2010 -0.0790
  316MOL0     C42527   2.988   7.862  10.017  0.1445  0.0613  0.0256
  316MOL0     O42528   2.859   7.816  10.052 -0.2381  0.0067  0.1034
  316MOL0     C42529   2.750   7.877  10.000  0.1964 -0.5695 -0.1888
  316MOL0     C42530   2.712   7.848   9.873  0.0594 -0.8425  0.1404
  316MOL0     C42531   2.609   7.918   9.814 -0.0643  0.4292 -0.7062
  316MOL0     C42532   2.522   8.015   9.879 -0.5487  0.0471 -0.7084
  316MOL0     O42533   2.408   8.073   9.829 -0.2493 -0.0777 -0.2282
  316MOL0     C42534   2.339   7.980   9.741 -0.1749  0.2997 -0.2075
  316MOL0     C42535   2.188   7.987   9.759  1.1631 -0.5993  0.8321
  316MOL0     C42536   2.102   7.968   9.633  0.6533 -0.1213 -0.7421
  316MOL0     C42537   1.958   7.991   9.665 -0.0365 -0.1235  1.3130
  316MOL0     C42538   1.869   7.905   9.579  0.7224 -0.8066 -0.7402
  316MOL0     C42539   1.870   7.949   9.433 -0.1255  0.0200  0.7142
  316MOL0     C42540   1.753   7.882   9.355 -0.3416 -0.0820  0.5509
  316MOL0     C42541   1.617   7.940   9.402 -0.6258  0.0716 -0.5564
  316MOL0     N42542   1.511   7.899   9.310 -0.0603 -0.7556 -0.2559
  316MOL0     C42543   1.388   7.838   9.343  1.1272 -0.1958  0.1969
  316MOL0     C42544   1.327   7.819   9.227  0.0156  0.3850  0.1042
  316MOL0     C42545   1.187   7.777   9.200  0.2390 -0.2428  0.6966
  316MOL0     C42546   1.173   7.629   9.167 -0.6358  0.4138  0.0500
  316MOL0     C42547   1.044   7.575   9.211  0.9557  0.1274  0.1452
  316MOL0     C42548   0.916   7.625   9.139  0.8071  0.0555  0.2214
  316MOL0     O42549   0.795   7.552   9.183 -0.1485 -0.0989  0.3241
  316MOL0     C42550   0.767   7.420   9.158 -0.9282 -0.6480  0.3238
  316MOL0     C42551   0.706   7.343   9.249  0.9511  0.2278 -0.7117
  316MOL0     C42552   0.675   7.204   9.215 -0.4114  0.9108  0.3576
  316MOL0     C42553   0.704   7.149   9.079 -0.0961  1.1459 -0.3842
  316MOL0     C42554   0.680   7.005   9.048 -0.2794  0.2012  0.4971
  316MOL0     O42555   0.635   6.932   9.145 -0.5865 -0.2539 -0.8997
  316MOL0     C42556   0.582   6.802   9.123  0.2609 -0.7725 -0.2765
  316MOL0     C42557   0.457   6.771   9.176  0.1641 -0.0861  0.0427
  316MOL0     C42558   0.392   6.655   9.157 -0.6296 -0.8545 -1.0239
  316MOL0     C42559   0.456   6.551   9.090 -1.3543  0.4098  0.8755
  316MOL0     O42560   0.404   6.434   9.052  0.0617 -0.1758  0.9911
  316MOL0     C42561   0.268   6.449   9.013  0.2661 -0.2384  0.4639
  316MOL0     C42562   0.218   6.341   8.912 -0.1504 -1.0148  0.0387
  316MOL0     C42563   0.309   6.318   8.796  0.7884  0.1901 -0.2375
  316MOL0     C42564   0.336   6.438   8.716 -0.1576 -0.3126  1.3407
  316MOL0     C42565   0.388   6.393   8.575 -1.1746 -0.6049  0.3986
  316MOL0     C42566   0.533   6.363   8.566  0.2021  0.1806 -0.6714
  316MOL0     C42567   0.584   6.312   8.435  0.0207  0.1227  0.4575
  316MOL0     C42568   0.730   6.283   8.439  0.3948 -0.8011  0.5116
  316MOL0    Cl42569   0.765   6.191   8.293  0.6298 -0.4249  0.0647
  316MOL0     C42570   0.583   6.571   9.045  0.2966 -0.5433  0.1803
  316MOL0     C42571   0.644   6.696   9.056 -0.2002 -0.4440 -0.9392
  316MOL0     O42572   0.719   6.955   8.939  0.0887  0.1473 -0.3741
  316MOL0     C42573   0.764   7.235   8.987  1.1061  0.5794 -0.1231
  316MOL0     C42574   0.791   7.363   9.026 -0.0836 -0.9934  0.2492
  316MOL0     N42575   1.403   7.866   9.127 -0.1531 -0.4206  0.8479
  316MOL0     N42576   1.517   7.905   9.173  0.0655 -0.0721 -0.9107
  316MOL0     C42577   2.552   8.039  10.018 -0.4931  0.0756  0.9217
  316MOL0     C42578   2.669   7.972  10.069  0.1912 -0.7528 -0.6935
  316MOL0     C42579   3.089   7.836  10.116 -0.0520  0.1343  0.5207
  316MOL0     C42580   3.193   7.923  10.129 -0.2836 -0.2725 -0.1542
  316MOL0     C42581   3.290   7.920  10.237  0.4478 -0.5022  0.0658
  316MOL0     C42582   3.283   7.810  10.334  0.3568  0.3552 -0.0122
  316MOL0     O42583   3.376   7.808  10.431 -0.5337  0.3437 -0.6333
  316MOL0     C42584   3.390   7.698  10.536 -0.6076 -0.3427  1.5200
  316MOL0     C42585   3.515   7.720  10.616 -0.3320 -0.1566  0.7436
  316MOL0     C42586   3.534   7.873  10.650 -0.2016  0.0541  0.6056
  316MOL0     C42587   3.676   7.901  10.711  0.1426  0.4336 -1.0028
  316MOL0     C42588   3.705   7.827  10.827  0.4362 -0.4666 -0.6680
  316MOL0     C42589   3.732   7.790  10.939 -0.4884  0.5641  0.4230
  316MOL0     C42590   3.188   7.710  10.322  0.7319  0.0714 -0.0519
  316MOL0     C42591   3.097   7.726  10.210  0.2783  0.5952 -0.3078
  316MOL0     C42592   3.005   7.612  10.181  0.3371  0.4201 -0.5626
  316MOL0     H42593   2.760   7.779   9.805 -3.2022 -0.9407 -2.2867
  316MOL0     H42594   2.604   7.910   9.705  2.1914  0.4527 -0.8620
  316MOL0     H42595   2.360   8.016   9.640 -1.3190 -1.9412 -1.3301
  316MOL0     H42596   2.371   7.882   9.780  1.4105  1.4943  1.7159
  316MOL0     H42597   2.168   8.093   9.780 -0.8604 -0.3559 -1.6980
  316MOL0     H42598   2.158   7.932   9.848  1.4548 -0.6903  0.8731
  316MOL0     H42599   2.128   7.866   9.602 -0.2599 -1.0038  1.2240
  316MOL0     H42600   2.119   8.042   9.554 -0.8401  0.6922 -0.3180
  316MOL0     H42601   1.940   7.976   9.772  0.2523 -1.4113  1.1978
  316MOL0     H42602   1.929   8.095   9.647  0.9039  0.2584  1.9469
  316MOL0     H42603   1.900   7.803   9.602  2.6734  0.2330  1.7573
  316MOL0     H42604   1.766   7.899   9.616  1.1237 -0.7204  0.4187
  316MOL0     H42605   1.864   8.058   9.427  2.3600  0.2486  1.0548
  316MOL0     H42606   1.965   7.921   9.385  0.4118 -1.8054  2.6603
  316MOL0     H42607   1.761   7.774   9.370  1.0493  0.2240  2.3147
  316MOL0     H42608   1.766   7.902   9.248  2.5253 -0.6352  0.7126
  316MOL0     H42609   1.592   7.916   9.505 -1.8730  3.3812  0.0391
  316MOL0     H42610   1.615   8.049   9.402  1.4430  0.1489 -0.6534
  316MOL0     H42611   1.340   7.823   9.440 -1.7829 -1.3488 -1.3052
  316MOL0     H42612   1.124   7.798   9.287  0.9851 -3.0465  1.9982
  316MOL0     H42613   1.151   7.842   9.119  0.9931 -2.2905 -1.3979
  316MOL0     H42614   1.179   7.624   9.058 -1.5376 -0.5013  0.0282
  316MOL0     H42615   1.249   7.567   9.216 -2.6656 -1.6318  0.7671
  316MOL0     H42616   1.048   7.587   9.319  2.8646 -4.6461  0.8484
  316MOL0     H42617   1.044   7.466   9.205 -1.2214  0.0607  0.4052
  316MOL0     H42618   0.927   7.614   9.031 -2.0912  1.8379 -0.3660
  316MOL0     H42619   0.894   7.729   9.164 -2.0031 -0.7235  1.4021
  316MOL0     H42620   0.691   7.366   9.354  1.2911  0.5515 -0.7288
  316MOL0     H42621   0.644   7.133   9.291  2.2343  1.5469  2.1779
  316MOL0     H42622   0.406   6.852   9.228 -0.8517  0.7751 -2.1736
  316MOL0     H42623   0.290   6.658   9.193 -0.4829 -0.1821 -0.6594
  316MOL0     H42624   0.206   6.453   9.103 -1.2187 -1.3331 -0.4671
  316MOL0     H42625   0.259   6.541   8.956  1.6544 -1.0612 -1.1681
  316MOL0     H42626   0.210   6.250   8.973  1.5288 -0.6523  0.8699
  316MOL0     H42627   0.120   6.370   8.875  0.0308  2.3927  1.8099
  316MOL0     H42628   0.406   6.279   8.829  0.7210 -0.2715 -0.5844
  316MOL0     H42629   0.269   6.242   8.729 -0.6861  0.1672  0.6170
  316MOL0     H42630   0.420   6.488   8.765  0.8358 -0.2957 -0.2828
  316MOL0     H42631   0.256   6.512   8.705  0.2889  0.1757  1.3447
  316MOL0     H42632   0.368   6.470   8.500  3.6703  0.0999 -0.4825
  316MOL0     H42633   0.337   6.306   8.533  1.1521 -1.3415 -1.0525
  316MOL0     H42634   0.596   6.441   8.610 -0.1451 -1.3240  2.7949
  316MOL0     H42635   0.546   6.288   8.644 -1.0973  0.4544 -0.1711
  316MOL0     H42636   0.569   6.390   8.360  0.0845  0.6213  0.9560
  316MOL0     H42637   0.534   6.217   8.416 -0.1239  0.1193  0.8463
  316MOL0     H42638   0.793   6.372   8.453 -1.8187  0.6331  2.1207
  316MOL0     H42639   0.758   6.219   8.524  0.7733 -0.4194  0.6822
  316MOL0     H42640   0.627   6.489   8.988  1.9205 -1.6308  2.8003
  316MOL0     H42641   0.748   6.717   9.031  0.7226 -0.8017  2.0711
  316MOL0     H42642   0.792   7.189   8.893  1.2801  0.3750  0.0286
  316MOL0     H42643   0.835   7.416   8.942 -1.9714 -2.1467 -1.5531
  316MOL0     H42644   2.473   8.078  10.082 -2.1485  1.7886 -1.9692
  316MOL0     H42645   2.701   8.003  10.168 -1.1772 -0.2648 -0.3820
  316MOL0     H42646   3.204   8.012  10.067  2.2844 -1.0721 -1.0078
  316MOL0     H42647   3.350   8.008  10.259  1.3503 -0.9963 -0.3480
  316MOL0     H42648   3.392   7.602  10.484 -3.5134 -0.1408  0.8704
  316MOL0     H42649   3.306   7.699  10.606 -1.7744  4.5121  0.4447
  316MOL0     H42650   3.602   7.676  10.566  0.3478 -0.6746  2.3122
  316MOL0     H42651   3.524   7.658  10.706  0.1629  3.4859  3.4111
  316MOL0     H42652   3.461   7.919  10.716  3.0904  0.6527  4.2053
  316MOL0     H42653   3.543   7.935  10.560  2.4696  1.9047  2.0134
  316MOL0     H42654   3.754   7.866  10.642 -0.5841 -0.2642 -1.4975
  316MOL0     H42655   3.688   8.006  10.736  0.3585  0.6056 -1.8143
  316MOL0     H42656   3.747   7.763  11.041 -0.2756  0.1158  0.2716
  316MOL0     H42657   3.186   7.623  10.387 -2.8459  0.8700  1.1972
  316MOL0     H42658   2.924   7.625  10.253 -1.2039 -1.6290 -1.8235
  316MOL0     H42659   2.971   7.611  10.078 -0.2083 -0.4425 -0.3839
  316MOL0     H42660   3.056   7.520  10.211  1.9845  1.7387  0.9851
  317MOL0     O42661   3.337   6.118   4.973  0.8797 -0.2596 -0.3338
  317MOL0     C42662   3.251   6.178   4.910  0.3877 -1.1648 -0.1374
  317MOL0     O42663   3.258   6.223   4.773  0.2209 -0.2593 -0.3519
  317MOL0     C42664   3.365   6.219   4.695 -0.4245  1.0462  0.6984
  317MOL0     C42665   3.495   6.178   4.728 -0.3230 -0.2590  0.8177
  317MOL0     C42666   3.591   6.169   4.637  0.4664 -0.0193  0.2509
  317MOL0     C42667   3.575   6.204   4.508  0.3977  0.2358  0.2055
  317MOL0     O42668   3.677   6.210   4.415 -0.2239  0.8400 -0.6742
  317MOL0     C42669   3.816   6.199   4.451  0.1746  0.5561  0.0220
  317MOL0     C42670   3.895   6.265   4.330 -0.0980 -0.2465 -0.0133
  317MOL0     C42671   4.047   6.268   4.348  0.1852  0.0690 -0.4470
  317MOL0     C42672   4.119   6.347   4.251  0.0513 -0.2293  0.2827
  317MOL0     C42673   4.267   6.331   4.262  0.2538  0.4639  0.5795
  317MOL0     C42674   4.342   6.309   4.389 -0.4462  0.0972 -0.4196
  317MOL0     C42675   4.492   6.293   4.376 -0.1759  0.1717  0.3895
  317MOL0     C42676   4.563   6.286   4.509  0.1491  0.1624  0.2396
  317MOL0     N42677   4.617   6.147   4.528  0.4235  0.5057 -0.4276
  317MOL0     C42678   4.735   6.088   4.477 -0.9949  0.3398 -0.1282
  317MOL0     C42679   4.732   5.959   4.532  0.4228  0.1070 -0.0155
  317MOL0     C42680   4.845   5.859   4.515 -0.0051  0.2965  0.2862
  317MOL0     C42681   4.930   5.896   4.395  0.2122 -0.6840  0.7577
  317MOL0     C42682   4.861   5.869   4.260  0.1877  0.1421  0.6802
  317MOL0     C42683   4.907   5.734   4.201  0.2407 -0.2114 -0.0113
  317MOL0     O42684   5.057   5.732   4.175  0.9450  0.0445  0.0217
  317MOL0     C42685   5.114   5.619   4.126 -0.0386  0.2396  0.0310
  317MOL0     C42686   5.045   5.507   4.088  0.7907  1.0887  0.1304
  317MOL0     C42687   5.114   5.396   4.048 -0.1857 -0.3331 -0.2516
  317MOL0     C42688   5.258   5.393   4.046 -0.0202  0.0211 -0.3210
  317MOL0     C42689   5.337   5.276   3.997  0.1940 -0.4574  0.4883
  317MOL0     O42690   5.291   5.147   4.010  0.3144  0.0688  0.0573
  317MOL0     C42691   5.383   5.048   3.973  0.1965  0.2547 -0.3429
  317MOL0     C42692   5.506   5.044   4.028 -0.0211  1.2138  0.6990
  317MOL0     C42693   5.596   4.945   4.007  0.1660  0.3053  0.7531
  317MOL0     C42694   5.572   4.850   3.904  0.7345 -0.3342 -0.4520
  317MOL0     O42695   5.667   4.752   3.882  0.0506 -0.1484 -0.0656
  317MOL0     C42696   5.774   4.729   3.984  0.6403 -0.0574  0.9158
  317MOL0     C42697   5.850   4.603   3.936 -0.2941  0.6307 -0.4515
  317MOL0     C42698   5.932   4.640   3.818  0.1029 -0.6461 -0.7830
  317MOL0     C42699   6.020   4.520   3.772 -0.4830  0.4931  0.1951
  317MOL0     C42700   6.099   4.560   3.636  0.0661  0.3454  0.0816
  317MOL0     C42701   6.158   4.431   3.567 -0.1801  0.8478 -0.1563
  317MOL0     C42702   6.271   4.346   3.638 -0.2779  0.9042 -0.7700
  317MOL0     C42703   6.334   4.256   3.536  0.4951 -0.4999 -0.0412
  317MOL0    Cl42704   6.427   4.357   3.419  0.1076  0.2639  0.1312
  317MOL0     C42705   5.454   4.858   3.831 -0.4240 -0.1597  0.2259
  317MOL0     C42706   5.352   4.950   3.884  0.0119  0.1959  0.3540
  317MOL0     O42707   5.450   5.309   3.951  0.3049 -0.4143 -0.0635
  317MOL0     C42708   5.327   5.505   4.088  0.6232 -0.2793  0.2387
  317MOL0     C42709   5.252   5.613   4.136 -0.0153  0.5406 -0.4730
  317MOL0     N42710   4.614   5.937   4.605  0.3573  0.2200 -0.6108
  317MOL0     N42711   4.549   6.053   4.606 -0.2708 -0.2476  0.8393
  317MOL0     C42712   3.448   6.234   4.461  0.9732  0.2806  0.1526
  317MOL0     C42713   3.344   6.236   4.556 -0.1581 -0.6021 -0.6925
  317MOL0     C42714   3.131   6.221   4.982  0.0642 -0.0068  0.3448
  317MOL0     C42715   3.043   6.315   4.922  0.6728  0.3319 -0.3475
  317MOL0     C42716   2.928   6.352   4.988 -0.6772 -0.5825  0.2634
  317MOL0     C42717   2.887   6.306   5.115 -0.0061  0.2448 -0.0625
  317MOL0     O42718   2.757   6.345   5.155 -0.3180  0.3189 -0.5779
  317MOL0     C42719   2.730   6.330   5.294 -0.5905  0.1858  0.8025
  317MOL0     C42720   2.596   6.383   5.330 -0.2061 -0.3914  0.3647
  317MOL0     C42721   2.486   6.291   5.275 -0.5153  0.8851 -1.2781
  317MOL0     C42722   2.479   6.158   5.352 -0.4054 -0.4348  0.2409
  317MOL0     C42723   2.359   6.084   5.320  0.1645  0.0895  0.3826
  317MOL0     C42724   2.261   6.019   5.292 -0.3411 -0.4077  0.2588
  317MOL0     C42725   2.976   6.217   5.185 -0.2597  0.2994  0.3601
  317MOL0     C42726   3.094   6.166   5.112 -0.4344 -0.2657 -0.1226
  317MOL0     C42727   3.167   6.044   5.178 -0.2371 -0.5029  0.1168
  317MOL0     H42728   3.529   6.151   4.828  1.2517 -2.6205 -0.2843
  317MOL0     H42729   3.688   6.137   4.673 -0.2042 -3.5632 -0.7466
  317MOL0     H42730   3.837   6.251   4.545  0.7645 -2.7424  1.8747
  317MOL0     H42731   3.841   6.095   4.471 -2.5878  0.3706  3.5193
  317MOL0     H42732   3.854   6.366   4.319 -1.1806 -0.5192  1.2446
  317MOL0     H42733   3.871   6.204   4.242 -1.1148 -0.6784  0.5470
  317MOL0     H42734   4.090   6.168   4.361  0.2873  0.4118  2.3641
  317MOL0     H42735   4.062   6.306   4.449  1.0904 -0.1712 -0.4813
  317MOL0     H42736   4.088   6.333   4.147  2.2422 -0.6585 -0.3668
  317MOL0     H42737   4.100   6.453   4.272  2.3279  1.2244 -3.7403
  317MOL0     H42738   4.286   6.249   4.191 -1.5131  3.0674 -3.2480
  317MOL0     H42739   4.317   6.411   4.208  0.7619 -1.3883 -1.8857
  317MOL0     H42740   4.315   6.387   4.461 -0.6044 -0.3254 -0.0133
  317MOL0     H42741   4.307   6.217   4.438  0.0772 -2.1026 -3.8330
  317MOL0     H42742   4.532   6.369   4.308  2.4097 -2.7044 -1.5968
  317MOL0     H42743   4.518   6.197   4.330 -0.5215  0.0714  0.3979
  317MOL0     H42744   4.640   6.363   4.518 -0.1198  0.8210 -2.2522
  317MOL0     H42745   4.483   6.286   4.583 -1.0986 -3.6939 -0.8882
  317MOL0     H42746   4.799   6.134   4.402 -0.6140 -1.2674 -0.8239
  317MOL0     H42747   4.896   5.845   4.611  0.0571  0.4798  0.2794
  317MOL0     H42748   4.797   5.762   4.499  2.8116 -1.1672  0.0925
  317MOL0     H42749   4.974   5.996   4.399  0.9848 -0.9727 -0.1363
  317MOL0     H42750   5.020   5.835   4.400  0.1576 -0.8242  0.1320
  317MOL0     H42751   4.893   5.946   4.188  2.8951  1.7558  3.3671
  317MOL0     H42752   4.754   5.854   4.270  0.1299  0.6322  0.8204
  317MOL0     H42753   4.853   5.723   4.106 -2.5854  0.0439  1.4759
  317MOL0     H42754   4.879   5.650   4.265 -1.1404  0.5036  0.3669
  317MOL0     H42755   4.937   5.504   4.082  0.7354  0.8485  1.1560
  317MOL0     H42756   5.073   5.302   4.012 -0.0193 -0.3280 -0.4539
  317MOL0     H42757   5.542   5.125   4.090 -0.2717  2.2598 -0.5043
  317MOL0     H42758   5.676   4.951   4.080  0.2984  3.9940  0.5305
  317MOL0     H42759   5.842   4.815   3.986 -0.6295  1.0965 -1.6449
  317MOL0     H42760   5.728   4.711   4.082  0.9282  1.4589  1.3639
  317MOL0     H42761   5.907   4.553   4.015 -2.5851 -1.0274  0.2815
  317MOL0     H42762   5.780   4.525   3.904 -1.1901  0.0240  2.6279
  317MOL0     H42763   5.874   4.676   3.733 -1.2352 -1.1567 -0.1108
  317MOL0     H42764   5.999   4.717   3.858 -0.7029 -0.8366  1.0156
  317MOL0     H42765   5.955   4.439   3.740  1.7166 -1.1611 -0.3664
  317MOL0     H42766   6.075   4.477   3.857 -1.7470  0.8621  1.2338
  317MOL0     H42767   6.175   4.628   3.674 -0.1838  0.8564 -0.3151
  317MOL0     H42768   6.029   4.591   3.558 -0.4540 -2.0195 -0.4833
  317MOL0     H42769   6.081   4.354   3.555  2.1337 -1.5228 -0.7057
  317MOL0     H42770   6.198   4.466   3.472  1.8175  0.0365  0.3340
  317MOL0     H42771   6.240   4.285   3.723  2.7675  1.0150  0.5439
  317MOL0     H42772   6.354   4.402   3.682  0.8608 -2.3729  1.6619
  317MOL0     H42773   6.401   4.185   3.585  0.8486 -0.2362 -0.1443
  317MOL0     H42774   6.259   4.192   3.488  0.6634 -1.5424  1.0277
  317MOL0     H42775   5.421   4.783   3.760 -0.5631 -0.1426  0.2732
  317MOL0     H42776   5.252   4.948   3.843 -0.8974  2.1912  2.2596
  317MOL0     H42777   5.435   5.513   4.082  0.5999 -0.7660 -1.4022
  317MOL0     H42778   5.308   5.696   4.178  0.4914  0.6787 -1.3859
  317MOL0     H42779   3.409   6.247   4.361 -1.7218 -1.7738  0.8134
  317MOL0     H42780   3.242   6.255   4.525 -0.3790 -0.8255 -0.1040
  317MOL0     H42781   3.070   6.357   4.825  2.9312 -0.0432  0.0560
  317MOL0     H42782   2.857   6.419   4.942  0.2502 -0.3309 -0.8531
  317MOL0     H42783   2.811   6.384   5.345  0.7051 -1.6657  0.8140
  317MOL0     H42784   2.727   6.230   5.340 -1.1586 -0.0736  0.2098
  317MOL0     H42785   2.588   6.484   5.289  2.4289 -1.5783 -3.6239
  317MOL0     H42786   2.591   6.400   5.438  1.9681 -0.6761  0.5550
  317MOL0     H42787   2.506   6.273   5.169  2.0111  1.2631 -0.9317
  317MOL0     H42788   2.391   6.344   5.287 -0.5812  0.1404  3.1652
  317MOL0     H42789   2.569   6.101   5.330  0.4745  0.8393  0.4712
  317MOL0     H42790   2.480   6.180   5.459 -1.5174 -1.8106  0.5588
  317MOL0     H42791   2.185   5.948   5.268  0.0076 -0.9587  0.7633
  317MOL0     H42792   2.948   6.185   5.285 -1.4955  3.0849  1.0245
  317MOL0     H42793   3.262   6.086   5.212 -0.3134 -1.3214  1.3784
  317MOL0     H42794   3.117   6.003   5.265 -1.3685 -1.3474 -0.8991
  317MOL0     H42795   3.189   5.956   5.117 -0.1291 -0.4790  0.1208
  318MOL0     O42796   5.249  10.549   5.300  0.5191  1.0571 -1.1869
  318MOL0     C42797   5.207  10.652   5.349 -0.3156 -0.0471 -0.5333
  318MOL0     O42798   5.259  10.725   5.458  0.3296 -0.2161  0.2172
  318MOL0     C42799   5.394  10.685   5.495  0.0578  0.6696 -0.1843
  318MOL0     C42800   5.400  10.592   5.597  0.0044  0.0782 -0.3332
  318MOL0     C42801   5.517  10.526   5.615  0.4027 -0.7854 -0.2619
  318MOL0     C42802   5.637  10.568   5.546  0.1185 -0.0313 -0.6984
  318MOL0     O42803   5.750  10.495   5.545 -0.4417  0.8340  0.5256
  318MOL0     C42804   5.767  10.394   5.640 -0.3914 -0.9932 -0.2789
  318MOL0     C42805   5.907  10.349   5.630  0.2006  0.4351 -0.2273
  318MOL0     C42806   6.004  10.451   5.688  0.5154 -1.0613  0.7463
  318MOL0     C42807   6.147  10.402   5.676 -0.3914  0.5811  0.3784
  318MOL0     C42808   6.246  10.495   5.731 -1.1690 -0.0589 -1.1690
  318MOL0     C42809   6.389  10.438   5.734 -0.7466  0.3228 -0.1376
  318MOL0     C42810   6.494  10.532   5.801  0.5097  0.2333 -0.5625
  318MOL0     C42811   6.643  10.476   5.803  0.1376  0.6013  0.2535
  318MOL0     N42812   6.747  10.565   5.853  0.1515 -0.2051  0.1807
  318MOL0     C42813   6.722  10.694   5.891 -0.2896 -0.3111  0.0373
  318MOL0     C42814   6.843  10.751   5.898 -0.5048 -0.3110 -0.2337
  318MOL0     C42815   6.871  10.898   5.928  0.1729  0.5972 -0.6911
  318MOL0     C42816   6.883  10.923   6.081 -0.2926  0.6530 -0.8597
  318MOL0     C42817   6.958  11.059   6.096 -0.4679  0.7599  0.2513
  318MOL0     C42818   6.974  11.099   6.245  0.1449  0.1597  0.3411
  318MOL0     O42819   7.035  10.991   6.325  0.7170 -0.4968 -0.1889
  318MOL0     C42820   7.158  11.024   6.387 -0.1383  0.6591  0.5821
  318MOL0     C42821   7.248  10.916   6.374  0.0616 -0.1319 -0.0562
  318MOL0     C42822   7.377  10.935   6.432  0.6755 -0.9582 -0.0204
  318MOL0     C42823   7.432  11.064   6.465 -1.0205 -0.1367 -0.1574
  318MOL0     C42824   7.570  11.087   6.495 -0.2893  0.7006 -0.1020
  318MOL0     O42825   7.661  10.981   6.500  0.4422 -0.1819  0.6256
  318MOL0     C42826   7.781  11.022   6.555 -0.4858  0.9457  0.1346
  318MOL0     C42827   7.908  11.019   6.487  0.4359  0.3144 -0.2854
  318MOL0     C42828   8.032  11.038   6.558  0.8169  0.3188  0.6649
  318MOL0     C42829   8.032  11.056   6.693  0.3078  0.7095 -0.1858
  318MOL0     O42830   8.136  11.092   6.773 -0.8716  0.5632  0.1878
  318MOL0     C42831   8.246  11.004   6.758  0.7846 -0.1237 -0.8419
  318MOL0     C42832   8.356  11.030   6.864  0.1311 -0.2779  0.2860
  318MOL0     C42833   8.498  10.973   6.839 -0.6658  0.5951  0.4063
  318MOL0     C42834   8.584  11.008   6.960 -0.0954 -0.4253 -0.8836
  318MOL0     C42835   8.730  10.969   6.933  0.1664  1.0106 -0.8137
  318MOL0     C42836   8.825  10.986   7.056  0.4546  0.0159  0.1875
  318MOL0     C42837   8.964  10.934   7.008  0.7661  0.3856  0.3142
  318MOL0     C42838   9.076  10.959   7.107  0.2149 -0.1957  0.3492
  318MOL0    Cl42839   9.227  10.871   7.061 -0.2992 -0.1702  0.4325
  318MOL0     C42840   7.903  11.073   6.753 -0.8923  0.0875 -0.1306
  318MOL0     C42841   7.789  11.044   6.694  0.2676  0.0702  0.3650
  318MOL0     O42842   7.592  11.205   6.509 -0.6558  0.6437 -0.1397
  318MOL0     C42843   7.337  11.166   6.476 -0.4047 -0.2109 -1.1398
  318MOL0     C42844   7.200  11.146   6.433 -0.5421 -0.0665 -1.0987
  318MOL0     N42845   6.942  10.656   5.869  0.2840  0.1228  0.4998
  318MOL0     N42846   6.881  10.540   5.860  0.5829 -0.5793 -0.6370
  318MOL0     C42847   5.635  10.674   5.461  0.9722  0.0750 -0.1763
  318MOL0     C42848   5.509  10.732   5.432  0.2898  0.1183 -0.8782
  318MOL0     C42849   5.089  10.725   5.288  0.7308 -0.4558  0.3366
  318MOL0     C42850   4.991  10.785   5.369 -0.2743 -0.2112  0.1043
  318MOL0     C42851   4.866  10.831   5.323  0.7792 -0.6350  0.3108
  318MOL0     C42852   4.841  10.818   5.184  0.8273 -0.1048 -1.0781
  318MOL0     O42853   4.716  10.822   5.132 -0.7154  0.3103 -0.1413
  318MOL0     C42854   4.632  10.936   5.159 -0.5700 -0.2834  0.0355
  318MOL0     C42855   4.489  10.900   5.199 -0.1314  0.8325  0.4886
  318MOL0     C42856   4.426  10.794   5.114 -0.1116  0.3198 -0.5636
  318MOL0     C42857   4.418  10.826   4.966 -1.1237 -0.1848 -0.2412
  318MOL0     C42858   4.321  10.935   4.932 -0.7609  0.0180 -0.1380
  318MOL0     C42859   4.238  11.016   4.910 -0.5528 -0.4777  0.2539
  318MOL0     C42860   4.951  10.785   5.103  0.7453 -0.4886 -0.2975
  318MOL0     C42861   5.073  10.732   5.152 -0.4654 -0.6357  0.2706
  318MOL0     C42862   5.179  10.686   5.047  0.9887 -0.5986 -0.4709
  318MOL0     H42863   5.308  10.571   5.653 -0.3848  2.4981  0.0269
  318MOL0     H42864   5.514  10.449   5.692  1.7423 -3.5397 -2.7479
  318MOL0     H42865   5.747  10.435   5.740 -2.1714 -0.5273 -0.7895
  318MOL0     H42866   5.703  10.308   5.614 -0.0532 -2.1204  2.2843
  318MOL0     H42867   5.917  10.307   5.529 -2.3130  1.9246 -1.1989
  318MOL0     H42868   5.931  10.263   5.693 -0.4607  0.2758 -0.1804
  318MOL0     H42869   5.981  10.481   5.790  1.3424  1.7910  0.1893
  318MOL0     H42870   5.995  10.539   5.624  0.8038 -2.3123 -1.1059
  318MOL0     H42871   6.163  10.305   5.724 -0.8378  0.3899  0.1457
  318MOL0     H42872   6.168  10.368   5.574  1.8653  0.4191  0.8482
  318MOL0     H42873   6.234  10.591   5.681 -0.7032 -0.3879 -1.9251
  318MOL0     H42874   6.229  10.522   5.836 -1.3993  1.2535 -1.5260
  318MOL0     H42875   6.392  10.350   5.799  0.3286  2.2492  2.5668
  318MOL0     H42876   6.424  10.427   5.631  0.2685 -3.1785  0.4580
  318MOL0     H42877   6.456  10.562   5.899 -3.7395  2.7491 -2.7079
  318MOL0     H42878   6.486  10.623   5.741 -1.3744  1.8685  1.9572
  318MOL0     H42879   6.658  10.386   5.863  0.5264 -0.0657 -0.8168
  318MOL0     H42880   6.668  10.445   5.702  0.6642  0.1309  0.5244
  318MOL0     H42881   6.626  10.744   5.902  0.6482  1.3354  1.1913
  318MOL0     H42882   6.967  10.902   5.875  0.1149  1.4771 -0.7509
  318MOL0     H42883   6.807  10.970   5.876  1.5210  1.7377 -0.8368
  318MOL0     H42884   6.789  10.919   6.136  0.2790  2.1283  0.2789
  318MOL0     H42885   6.955  10.857   6.130 -0.4430  1.6158  0.7315
  318MOL0     H42886   6.901  11.139   6.048 -0.6529  1.5100  1.6631
  318MOL0     H42887   7.059  11.048   6.055 -0.6578  0.4072 -0.1200
  318MOL0     H42888   6.875  11.126   6.281  0.3278  1.3787 -0.0295
  318MOL0     H42889   7.031  11.192   6.244  2.2645 -1.0461  1.8888
  318MOL0     H42890   7.216  10.814   6.351  0.8898 -0.8938  1.9509
  318MOL0     H42891   7.439  10.846   6.420 -2.7895 -3.3136 -2.6715
  318MOL0     H42892   7.891  11.003   6.381 -4.8032  0.2432  0.2785
  318MOL0     H42893   8.126  11.047   6.504  1.5140 -0.9763  1.5878
  318MOL0     H42894   8.211  10.902   6.777  0.9008  0.3749  2.7952
  318MOL0     H42895   8.286  11.012   6.657  2.0695 -0.4421 -0.3733
  318MOL0     H42896   8.366  11.139   6.862  2.1279 -0.4310 -0.8957
  318MOL0     H42897   8.325  11.010   6.967  0.4209  0.4013  0.5083
  318MOL0     H42898   8.473  10.867   6.835 -2.8615  1.0790 -2.5068
  318MOL0     H42899   8.550  11.006   6.749  0.6638 -0.5842  0.7029
  318MOL0     H42900   8.544  10.962   7.050  2.3312  1.0057  1.0743
  318MOL0     H42901   8.577  11.113   6.990 -0.0678 -0.6122 -0.2045
  318MOL0     H42902   8.779  11.040   6.865  3.0469  2.3569  2.3292
  318MOL0     H42903   8.728  10.868   6.892 -2.4797  0.2065  1.0490
  318MOL0     H42904   8.836  11.085   7.100  2.4997 -1.2941  2.9397
  318MOL0     H42905   8.799  10.914   7.135  0.5131  0.4140  0.5754
  318MOL0     H42906   8.991  10.982   6.913  0.4879  0.3075  0.1959
  318MOL0     H42907   8.949  10.826   7.005 -1.6080  0.6502  0.6107
  318MOL0     H42908   9.083  11.065   7.130 -1.3875  0.2452 -0.9825
  318MOL0     H42909   9.052  10.909   7.201  1.8534 -1.4895  0.1244
  318MOL0     H42910   7.900  11.105   6.857  2.4254 -1.1342  0.4934
  318MOL0     H42911   7.703  11.055   6.760  0.5588  0.5217  0.6808
  318MOL0     H42912   7.363  11.262   6.519 -0.7757 -2.2170  4.3580
  318MOL0     H42913   7.125  11.221   6.452 -2.3154 -1.1959 -3.1611
  318MOL0     H42914   5.717  10.718   5.405 -0.0814  3.9754  1.0361
  318MOL0     H42915   5.493  10.800   5.350 -3.5912 -0.2295 -0.5756
  318MOL0     H42916   4.999  10.777   5.477 -1.5380 -0.6329  0.1861
  318MOL0     H42917   4.784  10.865   5.386  0.0956  0.4654 -1.1297
  318MOL0     H42918   4.627  10.996   5.067 -1.6487  0.2357  0.4129
  318MOL0     H42919   4.675  10.996   5.239  0.2358  1.3547 -1.5447
  318MOL0     H42920   4.427  10.990   5.202  0.7777  1.4621  1.2504
  318MOL0     H42921   4.500  10.856   5.299 -3.1893 -0.3601  0.4232
  318MOL0     H42922   4.325  10.774   5.152 -0.9448  1.9516 -1.7930
  318MOL0     H42923   4.475  10.697   5.127 -2.2067 -0.8790 -1.0464
  318MOL0     H42924   4.519  10.862   4.943  0.7387 -2.9811  2.7034
  318MOL0     H42925   4.402  10.732   4.913  1.3300 -1.1933  0.6360
  318MOL0     H42926   4.163  11.082   4.870  0.3033  0.5208  0.2500
  318MOL0     H42927   4.930  10.791   4.997 -1.9304  0.6577  0.2043
  318MOL0     H42928   5.146  10.696   4.944 -1.9362 -0.4432  0.3941
  318MOL0     H42929   5.269  10.747   5.063 -0.0662  0.6089  1.2394
  318MOL0     H42930   5.196  10.578   5.050 -3.3641 -1.5025 -1.2769
  319MOL0     O42931   4.750   6.755  10.444  0.5203  0.1866  0.4172
  319MOL0     C42932   4.677   6.760  10.341  0.2787  0.4599  0.1007
  319MOL0     O42933   4.683   6.863  10.246  0.5255  0.4232 -0.3864
  319MOL0     C42934   4.789   6.957  10.263  0.0872  0.8047 -0.2117
  319MOL0     C42935   4.923   6.912  10.275 -0.1430 -0.8335 -0.3717
  319MOL0     C42936   5.025   7.013  10.266 -0.7276  1.1154  0.2343
  319MOL0     C42937   4.993   7.148  10.260  0.7440 -0.2863  0.5449
  319MOL0     O42938   5.079   7.245  10.227 -0.2513 -0.2399 -0.3147
  319MOL0     C42939   5.219   7.217  10.212  0.0710 -0.2006  0.5950
  319MOL0     C42940   5.302   7.311  10.136 -0.1087 -1.1157  0.9901
  319MOL0     C42941   5.454   7.273  10.140 -0.0353 -0.4819 -0.4388
  319MOL0     C42942   5.545   7.362  10.054  0.6308  0.2308  0.9845
  319MOL0     C42943   5.683   7.300  10.034 -0.8149  1.4980  0.5039
  319MOL0     C42944   5.763   7.345   9.908 -0.5178 -0.3844 -0.2301
  319MOL0     C42945   5.781   7.505   9.910  0.5902 -0.1518  0.2854
  319MOL0     C42946   5.852   7.545   9.792  0.6857 -0.2233 -0.2966
  319MOL0     N42947   5.984   7.490   9.776 -0.5003 -0.1562 -0.4200
  319MOL0     C42948   6.096   7.538   9.847  0.3172  0.3763  0.2750
  319MOL0     C42949   6.204   7.470   9.784 -0.5227  0.7168  0.0128
  319MOL0     C42950   6.351   7.479   9.803 -0.7725 -0.4100 -0.3529
  319MOL0     C42951   6.391   7.609   9.857 -0.3172 -0.6504  0.0797
  319MOL0     C42952   6.534   7.603   9.905  0.0024 -0.1441  0.3032
  319MOL0     C42953   6.551   7.539  10.044 -0.4718 -0.1267  0.4851
  319MOL0     O42954   6.684   7.543  10.097 -0.1899 -0.0608 -1.2892
  319MOL0     C42955   6.787   7.481  10.035  0.0100  0.3167 -0.4714
  319MOL0     C42956   6.920   7.519  10.049 -0.1856 -0.1143 -0.4332
  319MOL0     C42957   7.022   7.431  10.005  0.1203 -0.0990 -0.1253
  319MOL0     C42958   6.991   7.316   9.937  0.6359  0.1397 -0.3491
  319MOL0     C42959   7.105   7.232   9.880  0.5708 -0.2749 -0.0584
  319MOL0     O42960   7.223   7.248   9.946  0.5781  0.1034  0.4343
  319MOL0     C42961   7.344   7.201   9.900  0.2711 -0.8719 -0.1484
  319MOL0     C42962   7.443   7.172   9.995 -0.0462  0.1441 -0.2707
  319MOL0     C42963   7.566   7.137   9.945 -0.0305 -0.3019  0.3125
  319MOL0     C42964   7.608   7.143   9.814  0.3418  0.8285  0.1295
  319MOL0     O42965   7.727   7.084   9.793 -0.2406 -0.2859  0.3136
  319MOL0     C42966   7.781   7.107   9.664 -0.3377 -0.2505  0.6608
  319MOL0     C42967   7.930   7.079   9.652  0.0767 -0.0305 -0.5325
  319MOL0     C42968   8.001   7.154   9.546 -0.3030 -1.0684 -0.9411
  319MOL0     C42969   8.027   7.301   9.593  0.1058  0.0048  0.3660
  319MOL0     C42970   8.083   7.388   9.477  0.5707 -0.0223  0.7470
  319MOL0     C42971   8.009   7.392   9.345  0.6013  0.3558  0.1043
  319MOL0     C42972   7.866   7.435   9.361  0.5705 -0.1253  0.3442
  319MOL0     C42973   7.784   7.422   9.228 -0.0303 -0.3698 -0.5505
  319MOL0    Cl42974   7.772   7.255   9.163 -0.3067 -0.3430 -0.8318
  319MOL0     C42975   7.511   7.179   9.718 -0.3168  0.6501  0.2137
  319MOL0     C42976   7.382   7.204   9.766 -0.0601  0.4212  0.4231
  319MOL0     O42977   7.090   7.181   9.768 -0.1007  0.1510  0.1107
  319MOL0     C42978   6.856   7.276   9.912  0.8787 -0.0561 -0.0837
  319MOL0     C42979   6.760   7.364   9.958 -0.3695 -0.4355 -0.3911
  319MOL0     N42980   6.148   7.384   9.682  0.7864  0.2456 -0.5674
  319MOL0     N42981   6.020   7.398   9.678 -0.4938  0.2642 -0.7573
  319MOL0     C42982   4.865   7.190  10.240  0.3251  0.3622  0.3176
  319MOL0     C42983   4.758   7.090  10.241 -0.4528 -0.0560  0.5597
  319MOL0     C42984   4.584   6.643  10.327  0.6293 -0.5864 -0.1595
  319MOL0     C42985   4.637   6.519  10.340  0.2520 -0.8005  0.2033
  319MOL0     C42986   4.564   6.414  10.299  0.6991 -0.1022 -0.5197
  319MOL0     C42987   4.430   6.425  10.261  0.4337  0.3006  0.0967
  319MOL0     O42988   4.349   6.311  10.256  0.0354 -0.1573 -0.7010
  319MOL0     C42989   4.397   6.180  10.226 -0.2593  0.4030 -0.3683
  319MOL0     C42990   4.398   6.099  10.358 -0.7370 -0.2051  1.4327
  319MOL0     C42991   4.259   6.090  10.412 -0.2825  0.1425  0.5342
  319MOL0     C42992   4.243   5.971  10.507  0.8129 -0.1015  0.2072
  319MOL0     C42993   4.362   5.953  10.587  0.4496 -0.5476  0.0068
  319MOL0     C42994   4.473   5.941  10.626 -0.0858 -0.1314 -0.2580
  319MOL0     C42995   4.372   6.545  10.259  0.2579 -0.9998 -1.2461
  319MOL0     C42996   4.446   6.665  10.292  0.5223 -0.2064 -0.2806
  319MOL0     C42997   4.380   6.800  10.303  0.1502 -0.1761 -0.4057
  319MOL0     H42998   4.958   6.813  10.302  1.0199 -0.1277  0.8070
  319MOL0     H42999   5.130   6.986  10.267 -1.1010 -0.4937 -0.5674
  319MOL0     H43000   5.269   7.208  10.308 -1.5588  3.7848  2.0023
  319MOL0     H43001   5.244   7.130  10.150  2.2423  0.3649  0.5948
  319MOL0     H43002   5.291   7.411  10.177  3.3303  0.0945 -0.6359
  319MOL0     H43003   5.275   7.323  10.031 -2.2479  6.5040  1.8379
  319MOL0     H43004   5.456   7.168  10.110 -1.5712 -1.0421  1.2001
  319MOL0     H43005   5.482   7.289  10.245 -2.2327  1.0392 -0.0075
  319MOL0     H43006   5.497   7.381   9.957 -1.6029  0.7193  2.1243
  319MOL0     H43007   5.564   7.463  10.090 -0.6996  1.6021 -1.7945
  319MOL0     H43008   5.740   7.321  10.125  1.9899 -2.7338  0.0291
  319MOL0     H43009   5.672   7.191  10.035 -0.2414  1.4057  2.8360
  319MOL0     H43010   5.860   7.296   9.922 -1.1628 -1.3698  1.0713
  319MOL0     H43011   5.734   7.314   9.808  2.5291 -1.0108 -1.0438
  319MOL0     H43012   5.845   7.549   9.987  0.4557 -0.2829  0.4731
  319MOL0     H43013   5.685   7.558   9.917  0.4322 -0.1201 -1.6298
  319MOL0     H43014   5.796   7.520   9.701  2.6304 -1.6625 -1.1781
  319MOL0     H43015   5.864   7.654   9.792 -4.5085  0.6651  1.9155
  319MOL0     H43016   6.092   7.614   9.925 -1.2250  1.8715 -1.1490
  319MOL0     H43017   6.363   7.404   9.882 -0.7168  2.5470  2.6415
  319MOL0     H43018   6.404   7.451   9.712 -0.2205  1.8051 -0.7641
  319MOL0     H43019   6.398   7.682   9.776 -1.0839  1.4344  1.7946
  319MOL0     H43020   6.333   7.650   9.940  1.3478 -0.1516  1.0269
  319MOL0     H43021   6.568   7.707   9.913  2.8566 -1.1370  3.0795
  319MOL0     H43022   6.592   7.543   9.835 -0.9613 -3.4861  2.1136
  319MOL0     H43023   6.504   7.440  10.046 -0.1205 -0.2931  0.6363
  319MOL0     H43024   6.492   7.596  10.116 -1.6056 -1.8220  0.9629
  319MOL0     H43025   6.953   7.610  10.098  2.6156 -0.7430 -0.9604
  319MOL0     H43026   7.122   7.471  10.018 -0.3595  0.9308  0.5277
  319MOL0     H43027   7.419   7.161  10.100  0.0969  2.4729  0.0705
  319MOL0     H43028   7.646   7.110  10.014  1.5981 -2.0915 -2.1288
  319MOL0     H43029   7.733   7.033   9.600  1.3148 -1.8537  1.2167
  319MOL0     H43030   7.756   7.205   9.622  1.3324  0.3785  1.0555
  319MOL0     H43031   7.988   7.084   9.744  2.9585  0.4995 -2.2672
  319MOL0     H43032   7.937   6.971   9.632 -4.3054 -1.8665  5.0618
  319MOL0     H43033   8.100   7.111   9.527 -0.5534 -1.9763 -0.2017
  319MOL0     H43034   7.935   7.163   9.459 -1.1853  3.1359 -0.0706
  319MOL0     H43035   8.102   7.290   9.673 -0.8523 -2.4274  1.0074
  319MOL0     H43036   7.937   7.352   9.628 -0.1971 -2.9408  4.6239
  319MOL0     H43037   8.184   7.352   9.457  1.2423  1.5541  1.1357
  319MOL0     H43038   8.093   7.494   9.502 -2.1551  0.7536 -1.0164
  319MOL0     H43039   8.057   7.475   9.292  2.4023 -0.4131  0.4557
  319MOL0     H43040   8.019   7.297   9.292  2.8179 -0.7823  2.3527
  319MOL0     H43041   7.869   7.541   9.388  0.2240  0.7548 -2.7577
  319MOL0     H43042   7.804   7.378   9.431 -1.9224  1.2156 -0.6369
  319MOL0     H43043   7.685   7.461   9.253  0.1242  0.3163 -0.9979
  319MOL0     H43044   7.827   7.487   9.152 -1.7225  1.2633 -0.1749
  319MOL0     H43045   7.524   7.172   9.611 -1.7602 -0.9355  0.0946
  319MOL0     H43046   7.309   7.230   9.689  1.3609  1.8627 -0.5049
  319MOL0     H43047   6.820   7.185   9.865 -2.3519  0.3517  1.3370
  319MOL0     H43048   6.660   7.333   9.931  0.7475 -2.4173 -2.7539
  319MOL0     H43049   4.844   7.295  10.222 -1.6620 -0.1229 -0.4876
  319MOL0     H43050   4.655   7.120  10.226 -0.5677 -0.6517  0.1304
  319MOL0     H43051   4.737   6.512  10.382 -0.8671  1.5050  3.6639
  319MOL0     H43052   4.608   6.316  10.318 -0.0397  0.1675  3.5678
  319MOL0     H43053   4.501   6.188  10.192  0.4196  5.0284  2.0336
  319MOL0     H43054   4.340   6.122  10.153  2.3037 -1.4083 -1.0586
  319MOL0     H43055   4.467   6.151  10.425 -1.2317  1.2610  0.8509
  319MOL0     H43056   4.445   6.002  10.339  2.7363  1.2583  1.6680
  319MOL0     H43057   4.194   6.076  10.325  0.5283 -0.5377  0.0182
  319MOL0     H43058   4.237   6.185  10.462 -0.9551  1.5190 -2.2124
  319MOL0     H43059   4.166   5.997  10.580  1.9065  1.3731  0.8720
  319MOL0     H43060   4.215   5.875  10.462 -0.4827 -0.0391  0.8473
  319MOL0     H43061   4.572   5.934  10.667 -0.0461  3.7983  0.6723
  319MOL0     H43062   4.264   6.559  10.253  0.3258  1.8400  1.4792
  319MOL0     H43063   4.277   6.787  10.271  0.4678  0.1164 -1.6001
  319MOL0     H43064   4.390   6.836  10.406 -1.3755  0.2081 -0.3742
  319MOL0     H43065   4.429   6.879  10.246  0.8568  0.1077  0.5651
  320MOL0     O43066   0.400   4.547   5.067 -0.1365  0.1537 -0.1973
  320MOL0     C43067   0.448   4.448   5.009  0.1155 -0.0155  0.3688
  320MOL0     O43068   0.418   4.314   5.040 -0.1259  0.2084 -1.1474
  320MOL0     C43069   0.343   4.273   5.154 -0.4063 -0.0549  0.2893
  320MOL0     C43070   0.246   4.353   5.223 -0.4245 -0.2030 -0.3129
  320MOL0     C43071   0.167   4.299   5.322  0.2295  0.3091  0.3105
  320MOL0     C43072   0.186   4.173   5.370 -0.7471  0.1123  0.0860
  320MOL0     O43073   0.119   4.106   5.472 -0.1974 -0.4148 -0.3764
  320MOL0     C43074  -0.022   4.136   5.483  0.4095 -0.5471  0.4282
  320MOL0     C43075  -0.070   4.086   5.624  0.1767 -0.2272 -0.1820
  320MOL0     C43076  -0.070   3.938   5.643  0.5228 -0.0474 -0.0059
  320MOL0     C43077  -0.126   3.907   5.787 -0.1782 -0.7745  0.2894
  320MOL0     C43078  -0.275   3.932   5.789 -0.1172 -0.1942 -0.1149
  320MOL0     C43079  -0.348   3.929   5.924 -0.1582  0.3122 -0.1858
  320MOL0     C43080  -0.495   3.956   5.905 -1.5950  0.0808 -0.0204
  320MOL0     C43081  -0.556   3.972   6.038 -0.2713 -0.0052 -1.2974
  320MOL0     N43082  -0.699   3.996   6.033  0.2691  0.2380 -0.0141
  320MOL0     C43083  -0.779   3.922   5.948 -0.2968 -0.6808  0.7583
  320MOL0     C43084  -0.879   4.005   5.926  0.2737 -0.9061  1.0261
  320MOL0     C43085  -0.970   3.991   5.804  0.9018 -0.4282  0.1164
  320MOL0     C43086  -0.915   4.062   5.675  0.2383  0.4561 -0.9434
  320MOL0     C43087  -0.977   3.987   5.558  0.2142  0.2026  0.0014
  320MOL0     C43088  -0.906   4.030   5.430  0.8771 -0.5303 -1.5370
  320MOL0     O43089  -0.946   3.940   5.330  0.5211 -0.1858 -0.0297
  320MOL0     C43090  -0.878   3.950   5.215 -1.0199  0.5937  0.8714
  320MOL0     C43091  -0.802   4.062   5.178  0.0469 -0.1112 -0.3416
  320MOL0     C43092  -0.719   4.066   5.069 -0.6779  0.1465 -0.3137
  320MOL0     C43093  -0.701   3.948   4.991 -0.3040 -0.1432 -0.5273
  320MOL0     C43094  -0.607   3.945   4.878 -0.4037  0.3373  0.0852
  320MOL0     O43095  -0.576   3.824   4.803  0.3074 -0.6469 -1.0098
  320MOL0     C43096  -0.479   3.836   4.717 -0.0904 -0.3980 -0.0487
  320MOL0     C43097  -0.347   3.835   4.765  0.0830 -1.1641  0.6301
  320MOL0     C43098  -0.236   3.847   4.682  0.4819 -0.1836  0.3016
  320MOL0     C43099  -0.251   3.837   4.541 -0.4903 -0.4603  0.1239
  320MOL0     O43100  -0.147   3.818   4.452 -0.7951  0.4030  0.5239
  320MOL0     C43101  -0.022   3.780   4.506  0.0073 -0.7657  0.5251
  320MOL0     C43102   0.083   3.780   4.392 -0.0448  0.7583  0.0097
  320MOL0     C43103   0.229   3.782   4.438 -0.8617 -0.2693  0.4734
  320MOL0     C43104   0.312   3.822   4.307 -0.1325 -0.9559 -0.3889
  320MOL0     C43105   0.475   3.824   4.322 -0.5128 -0.7476 -0.3081
  320MOL0     C43106   0.517   3.701   4.390 -0.2475  0.3948  0.1166
  320MOL0     C43107   0.668   3.685   4.422 -0.3484  0.4599  0.7601
  320MOL0     C43108   0.741   3.615   4.309 -0.2779  0.3883 -0.2275
  320MOL0    Cl43109   0.926   3.625   4.333 -0.5233 -0.1511 -0.1430
  320MOL0     C43110  -0.387   3.824   4.488  0.7552 -0.1015  0.2371
  320MOL0     C43111  -0.497   3.818   4.578  1.0934  0.3028  1.3879
  320MOL0     O43112  -0.557   4.053   4.856 -0.3413  0.2840  1.3169
  320MOL0     C43113  -0.771   3.830   5.026 -0.9178  0.2828 -0.5287
  320MOL0     C43114  -0.860   3.839   5.138  0.3661 -0.3008  0.2619
  320MOL0     N43115  -0.875   4.115   6.009 -0.4939 -0.0319 -0.2388
  320MOL0     N43116  -0.763   4.104   6.076 -0.6277 -0.8091  0.2384
  320MOL0     C43117   0.283   4.094   5.317 -1.4857  0.7215 -0.7081
  320MOL0     C43118   0.363   4.144   5.207  0.9597 -0.3636  0.4072
  320MOL0     C43119   0.541   4.453   4.895  0.8506  0.4072  0.7503
  320MOL0     C43120   0.601   4.333   4.855 -0.1495 -0.4909  0.1254
  320MOL0     C43121   0.693   4.323   4.744 -0.5697 -0.5621  0.5021
  320MOL0     C43122   0.713   4.438   4.664 -0.2073 -0.8077  0.2982
  320MOL0     O43123   0.787   4.453   4.548 -1.1635 -0.4132 -0.2863
  320MOL0     C43124   0.876   4.345   4.502  0.4421  0.2620 -0.5739
  320MOL0     C43125   0.803   4.255   4.411  0.1333 -0.4681 -0.0462
  320MOL0     C43126   0.887   4.138   4.362  0.0382 -0.2210  0.8269
  320MOL0     C43127   0.790   4.024   4.316  0.1923 -0.5416  0.2911
  320MOL0     C43128   0.704   4.049   4.195 -0.5869  0.4626  0.1064
  320MOL0     C43129   0.633   4.058   4.096  0.0588 -0.4502 -0.2148
  320MOL0     C43130   0.657   4.559   4.704  0.5839  0.4561  1.1696
  320MOL0     C43131   0.574   4.568   4.813  0.0063  1.0579 -0.0972
  320MOL0     C43132   0.520   4.705   4.836  0.0677 -0.9989 -0.4163
  320MOL0     H43133   0.217   4.455   5.201  1.1064  0.2645 -0.2889
  320MOL0     H43134   0.087   4.359   5.365 -1.5472  0.7284 -3.1973
  320MOL0     H43135  -0.046   4.242   5.476  2.0366 -0.1570  0.5224
  320MOL0     H43136  -0.070   4.089   5.396 -1.6830  0.2597  1.0836
  320MOL0     H43137  -0.166   4.135   5.642  1.3613  2.0090  0.4412
  320MOL0     H43138  -0.004   4.122   5.703  0.8166 -3.0786  0.7224
  320MOL0     H43139   0.034   3.905   5.638 -0.5833 -3.7438 -2.0513
  320MOL0     H43140  -0.126   3.886   5.565  1.5297  1.7040 -2.0220
  320MOL0     H43141  -0.104   3.805   5.821  0.7686  0.4265  3.7447
  320MOL0     H43142  -0.080   3.970   5.864 -1.0181  1.7203 -1.1232
  320MOL0     H43143  -0.300   4.027   5.742  3.3006  0.7804 -0.2539
  320MOL0     H43144  -0.312   3.854   5.721  1.2284 -1.0467  0.0992
  320MOL0     H43145  -0.339   3.836   5.980 -0.2900  3.0605  5.0129
  320MOL0     H43146  -0.299   4.001   5.990 -0.9801  1.2054 -0.5234
  320MOL0     H43147  -0.539   3.879   5.841  0.6011  0.0835 -1.6248
  320MOL0     H43148  -0.509   4.051   5.853 -3.1325 -0.9071 -1.5432
  320MOL0     H43149  -0.541   3.877   6.090 -1.3101  0.4372 -0.1390
  320MOL0     H43150  -0.513   4.051   6.099  3.2072 -1.0813 -2.1250
  320MOL0     H43151  -0.769   3.825   5.900 -1.2181 -0.3322 -0.1747
  320MOL0     H43152  -0.984   3.885   5.782 -1.6815  0.0826 -0.9882
  320MOL0     H43153  -1.065   4.041   5.823  0.8881 -0.4662  0.1484
  320MOL0     H43154  -0.938   4.169   5.686  0.8298  0.6425 -1.4441
  320MOL0     H43155  -0.807   4.044   5.671 -0.3203 -3.4682 -1.8749
  320MOL0     H43156  -1.084   4.008   5.557  0.4087  1.3711  1.4447
  320MOL0     H43157  -0.949   3.881   5.565  1.6287  0.4309 -1.3923
  320MOL0     H43158  -0.798   4.034   5.451  0.5767  4.2401  0.1932
  320MOL0     H43159  -0.926   4.136   5.416  0.8710 -0.3324 -0.1633
  320MOL0     H43160  -0.806   4.155   5.234 -1.6301  1.0092 -2.1907
  320MOL0     H43161  -0.663   4.158   5.058 -0.7938  0.2684  0.0999
  320MOL0     H43162  -0.335   3.843   4.873  0.4134  1.9434  0.4661
  320MOL0     H43163  -0.137   3.854   4.727 -0.8116  0.6068  3.2770
  320MOL0     H43164   0.010   3.854   4.580 -0.8420 -0.4932  0.6268
  320MOL0     H43165  -0.025   3.679   4.549  0.0001 -2.2443 -2.6818
  320MOL0     H43166   0.051   3.704   4.319  0.6651 -0.5456  1.0154
  320MOL0     H43167   0.071   3.875   4.340  1.4958  2.5962  2.8132
  320MOL0     H43168   0.241   3.843   4.527  2.7924  1.5566 -1.0535
  320MOL0     H43169   0.261   3.686   4.479  3.3925  1.6649  2.2333
  320MOL0     H43170   0.269   3.915   4.269 -0.9687 -0.7647  0.9636
  320MOL0     H43171   0.298   3.741   4.234  0.6098 -0.6005 -0.9371
  320MOL0     H43172   0.513   3.910   4.377  1.8917 -3.4226  2.5643
  320MOL0     H43173   0.521   3.834   4.223  1.6310  3.7262  0.8929
  320MOL0     H43174   0.476   3.710   4.491  0.2625  2.2687  0.2015
  320MOL0     H43175   0.467   3.612   4.350  0.3339 -0.1414  0.5731
  320MOL0     H43176   0.689   3.638   4.518  0.6493 -1.7308 -0.4685
  320MOL0     H43177   0.712   3.786   4.419 -0.5422  0.5444  0.7346
  320MOL0     H43178   0.718   3.508   4.304  1.3329  0.0312 -0.4162
  320MOL0     H43179   0.707   3.656   4.214 -3.4622  1.1869  1.0925
  320MOL0     H43180  -0.416   3.806   4.385  0.9068 -1.9271  0.4837
  320MOL0     H43181  -0.592   3.803   4.528  1.5392  0.6676  0.4294
  320MOL0     H43182  -0.743   3.749   4.960  3.5411  1.1441 -0.0069
  320MOL0     H43183  -0.911   3.751   5.176  0.2380 -0.3448 -0.0127
  320MOL0     H43184   0.303   3.995   5.357 -0.8144  0.8415 -0.7336
  320MOL0     H43185   0.442   4.087   5.159  0.3236 -1.5641  0.7371
  320MOL0     H43186   0.586   4.242   4.913 -2.7726  0.1251  0.5390
  320MOL0     H43187   0.753   4.233   4.744 -0.0557 -0.2275  0.5442
  320MOL0     H43188   0.906   4.295   4.595 -0.6342  0.5038 -0.0919
  320MOL0     H43189   0.961   4.390   4.450 -1.3089  0.9402 -2.9961
  320MOL0     H43190   0.776   4.315   4.323 -1.2707  0.2835  0.8451
  320MOL0     H43191   0.713   4.226   4.466 -0.1578  0.7376  0.1483
  320MOL0     H43192   0.965   4.103   4.431  2.4714 -1.8626 -2.4566
  320MOL0     H43193   0.945   4.165   4.273  0.7680 -0.4532  1.2197
  320MOL0     H43194   0.857   3.939   4.303  3.3435  1.1418  3.6778
  320MOL0     H43195   0.722   4.002   4.399  2.3077 -1.4970  1.8928
  320MOL0     H43196   0.581   4.054   4.003  1.8576  1.8429 -1.4097
  320MOL0     H43197   0.686   4.644   4.643  0.0715  2.1441  3.1788
  320MOL0     H43198   0.583   4.781   4.788 -0.7704 -0.3843 -0.5558
  320MOL0     H43199   0.423   4.708   4.785 -2.0395  0.5071  3.2662
  320MOL0     H43200   0.499   4.733   4.940 -0.8661 -4.2769  0.3851
  321MOL0     O43201   9.409   7.546   1.941  0.3526 -0.5487 -0.3986
  321MOL0     C43202   9.460   7.501   1.836 -0.1361 -0.8644  0.4463
  321MOL0     O43203   9.411   7.518   1.711  0.6196 -0.0797 -0.2231
  321MOL0     C43204   9.308   7.605   1.686 -0.3340 -0.1324  0.4983
  321MOL0     C43205   9.297   7.737   1.724 -0.2412 -0.0073  1.0317
  321MOL0     C43206   9.180   7.811   1.689  0.5618 -0.3608 -0.1906
  321MOL0     C43207   9.085   7.754   1.608 -0.5926 -0.3385 -0.3326
  321MOL0     O43208   8.995   7.843   1.554 -0.2072 -0.0991 -0.0347
  321MOL0     C43209   8.857   7.804   1.529  0.8334  0.0031 -0.5187
  321MOL0     C43210   8.782   7.913   1.452 -0.9799 -0.1829  0.1722
  321MOL0     C43211   8.641   7.875   1.405 -0.1066 -0.1053  0.2445
  321MOL0     C43212   8.530   7.855   1.519  0.3037  0.2295 -0.1293
  321MOL0     C43213   8.403   7.784   1.470 -0.6038  0.7235 -0.5584
  321MOL0     C43214   8.330   7.702   1.582 -0.0533  0.1610 -0.4615
  321MOL0     C43215   8.304   7.785   1.712 -0.3986  0.5156 -0.3051
  321MOL0     C43216   8.227   7.698   1.822  0.4073 -0.0676 -0.0554
  321MOL0     N43217   8.296   7.594   1.899 -0.1791 -0.1608  0.3037
  321MOL0     C43218   8.393   7.611   1.995  0.1430  0.1281  0.0986
  321MOL0     C43219   8.413   7.490   2.044  0.8521 -0.4545 -0.5574
  321MOL0     C43220   8.490   7.448   2.165 -0.1304  0.2494 -0.0743
  321MOL0     C43221   8.614   7.357   2.125  0.9505  0.8574 -0.9061
  321MOL0     C43222   8.711   7.367   2.241 -0.5878 -0.2950  0.0823
  321MOL0     C43223   8.837   7.270   2.235 -0.2775  0.2244  0.5508
  321MOL0     O43224   8.917   7.283   2.359  0.3038  0.3426 -0.0911
  321MOL0     C43225   9.044   7.228   2.364  0.7854 -1.0750 -0.5072
  321MOL0     C43226   9.102   7.124   2.285 -0.3146  0.0261 -1.1445
  321MOL0     C43227   9.240   7.090   2.314 -0.4370  0.0047  1.5509
  321MOL0     C43228   9.315   7.156   2.417 -0.1062  0.5836  0.2047
  321MOL0     C43229   9.456   7.121   2.456  0.0277 -0.0480  0.3621
  321MOL0     O43230   9.514   7.012   2.404 -0.1831 -0.1932  0.6667
  321MOL0     C43231   9.648   7.001   2.444 -0.8507  0.9037 -0.5538
  321MOL0     C43232   9.756   7.055   2.372 -0.3609 -0.1434  1.0112
  321MOL0     C43233   9.890   7.019   2.393  0.0326 -0.3701 -0.1387
  321MOL0     C43234   9.921   6.940   2.503  0.0912 -0.1723 -0.2275
  321MOL0     O43235  10.038   6.888   2.544 -0.3381  0.3614  0.7605
  321MOL0     C43236  10.151   6.864   2.455  0.5863  0.2708 -0.5524
  321MOL0     C43237  10.152   6.729   2.380  0.1635 -1.0516 -0.2694
  321MOL0     C43238  10.256   6.728   2.271  0.0989 -0.0296  0.6274
  321MOL0     C43239  10.399   6.716   2.327  0.3077 -0.4369 -0.0048
  321MOL0     C43240  10.510   6.699   2.217  0.2663 -0.0146 -0.5944
  321MOL0     C43241  10.557   6.837   2.173 -0.2645  0.1534  0.2548
  321MOL0     C43242  10.651   6.831   2.056  0.0193 -0.0070  0.1576
  321MOL0     C43243  10.722   6.955   2.026  1.4740 -0.0070  0.6655
  321MOL0    Cl43244  10.844   6.913   1.908 -0.3969  0.1634 -0.2041
  321MOL0     C43245   9.815   6.901   2.588  0.2016 -0.5498 -0.0189
  321MOL0     C43246   9.681   6.919   2.557 -0.3800  0.1562 -0.3866
  321MOL0     O43247   9.507   7.193   2.539  0.3918  0.8215  0.1080
  321MOL0     C43248   9.251   7.251   2.488  0.3713  0.0952 -0.1413
  321MOL0     C43249   9.123   7.287   2.467  1.5535 -0.5473 -0.3759
  321MOL0     N43250   8.337   7.397   1.985 -0.6230  0.7976  0.5199
  321MOL0     N43251   8.273   7.459   1.891 -0.2889  0.1620  0.2876
  321MOL0     C43252   9.105   7.623   1.562 -0.7929 -0.2773 -0.5377
  321MOL0     C43253   9.215   7.546   1.604  0.6036  0.1308  0.6931
  321MOL0     C43254   9.588   7.431   1.847  0.0943  0.4005  0.3084
  321MOL0     C43255   9.666   7.415   1.726 -0.0227  0.4155 -0.3543
  321MOL0     C43256   9.787   7.335   1.721  0.2479  0.0865 -0.1653
  321MOL0     C43257   9.824   7.267   1.838  0.1448 -0.8250 -0.5759
  321MOL0     O43258   9.922   7.177   1.844  0.0072  0.3583 -0.2837
  321MOL0     C43259  10.047   7.210   1.782 -1.2294  0.3519  0.0092
  321MOL0     C43260  10.126   7.310   1.855  0.0468 -0.2554 -0.0417
  321MOL0     C43261  10.176   7.257   1.999 -0.8578  0.0522 -0.1643
  321MOL0     C43262  10.266   7.137   1.998 -1.3031  0.0937 -0.4480
  321MOL0     C43263  10.348   7.129   2.122  0.0165 -0.0098 -0.0613
  321MOL0     C43264  10.404   7.138   2.226  0.9322 -0.1483 -0.5862
  321MOL0     C43265   9.746   7.272   1.953 -0.7907 -0.8061  0.4290
  321MOL0     C43266   9.630   7.364   1.962  0.3635  0.2794  0.3335
  321MOL0     C43267   9.549   7.330   2.081 -0.2107 -0.0901  0.6084
  321MOL0     H43268   9.374   7.789   1.780 -2.8628  0.1864  4.8396
  321MOL0     H43269   9.172   7.917   1.713  1.2980  0.3007 -2.5660
  321MOL0     H43270   8.837   7.706   1.485  1.4838  0.1020 -1.0347
  321MOL0     H43271   8.804   7.797   1.625  2.4310  0.5184  0.4317
  321MOL0     H43272   8.842   7.934   1.364 -0.5086 -1.7024  0.1088
  321MOL0     H43273   8.754   8.002   1.510 -0.2861  0.3053 -0.2350
  321MOL0     H43274   8.639   7.774   1.361 -0.7415 -0.8855  1.9689
  321MOL0     H43275   8.604   7.946   1.331  2.8275  0.2130 -1.0549
  321MOL0     H43276   8.569   7.803   1.607  0.3574 -0.2741 -0.4517
  321MOL0     H43277   8.505   7.953   1.562  1.6860  1.1210 -1.2883
  321MOL0     H43278   8.336   7.856   1.421 -0.8822  0.2282 -0.9204
  321MOL0     H43279   8.438   7.716   1.392 -2.0780 -2.1491  1.1205
  321MOL0     H43280   8.241   7.651   1.544 -2.6224  4.3799 -0.6900
  321MOL0     H43281   8.407   7.629   1.608 -0.2122  0.2915  0.4254
  321MOL0     H43282   8.253   7.880   1.697  2.6413  2.0365 -1.8797
  321MOL0     H43283   8.394   7.828   1.756  1.2817 -2.8057 -0.1657
  321MOL0     H43284   8.179   7.767   1.892  3.2178 -0.2623  2.2589
  321MOL0     H43285   8.148   7.645   1.768 -0.0040  0.2493  0.2283
  321MOL0     H43286   8.430   7.706   2.034 -0.6809 -0.4376  2.4073
  321MOL0     H43287   8.530   7.543   2.204 -1.4425  0.5909  0.4821
  321MOL0     H43288   8.433   7.393   2.239  2.1081 -3.6801 -1.0000
  321MOL0     H43289   8.590   7.250   2.119 -0.5387  0.7176  3.6226
  321MOL0     H43290   8.661   7.384   2.030  1.7349 -0.5783 -0.9577
  321MOL0     H43291   8.648   7.349   2.329 -1.6401 -0.8673 -0.7650
  321MOL0     H43292   8.751   7.468   2.254 -0.5401 -0.1246 -1.2276
  321MOL0     H43293   8.899   7.310   2.154 -1.0045 -0.0030 -0.1386
  321MOL0     H43294   8.799   7.170   2.212  0.0159 -0.2024  1.8729
  321MOL0     H43295   9.049   7.074   2.205  0.8201  0.5444 -2.2662
  321MOL0     H43296   9.291   7.017   2.251  0.5844 -0.5420  2.9686
  321MOL0     H43297   9.743   7.116   2.283 -0.6142 -1.0763  0.3957
  321MOL0     H43298   9.966   7.052   2.323 -0.1178 -2.1807 -1.2243
  321MOL0     H43299  10.171   6.945   2.385  0.9397  0.8258  0.1798
  321MOL0     H43300  10.238   6.861   2.521 -0.0378 -0.1587  0.2734
  321MOL0     H43301  10.177   6.647   2.448  0.8393  0.3828  1.2661
  321MOL0     H43302  10.056   6.705   2.333 -0.2506  0.8423 -0.4531
  321MOL0     H43303  10.222   6.639   2.218  1.3461 -0.5427  0.6443
  321MOL0     H43304  10.253   6.815   2.206  2.5033 -1.5583 -1.7437
  321MOL0     H43305  10.408   6.632   2.396 -1.7479 -0.4878  0.2823
  321MOL0     H43306  10.423   6.805   2.386 -2.0895  1.3179 -1.4701
  321MOL0     H43307  10.475   6.640   2.132 -4.3409  0.3867  0.7502
  321MOL0     H43308  10.590   6.644   2.266 -0.0254 -2.0366 -2.2481
  321MOL0     H43309  10.469   6.888   2.131 -1.0458  1.2621  2.9934
  321MOL0     H43310  10.601   6.889   2.258  0.1980  1.2544 -0.6334
  321MOL0     H43311  10.607   6.797   1.962  3.2602 -0.0303 -1.5104
  321MOL0     H43312  10.728   6.757   2.078 -1.3721 -1.4713  0.2633
  321MOL0     H43313  10.657   7.029   1.979 -1.1718 -0.2429  3.5724
  321MOL0     H43314  10.756   6.991   2.124 -0.8145  1.2776  1.0392
  321MOL0     H43315   9.837   6.841   2.675  0.4667  0.6678  0.7753
  321MOL0     H43316   9.607   6.858   2.607 -0.9594  0.2779 -1.0893
  321MOL0     H43317   9.291   7.295   2.580  3.7011 -3.9428  0.6458
  321MOL0     H43318   9.068   7.355   2.531  1.4418 -0.4802 -0.5428
  321MOL0     H43319   9.030   7.585   1.493 -1.8889  1.1436 -0.1816
  321MOL0     H43320   9.232   7.442   1.577  2.5063 -0.4461  3.6500
  321MOL0     H43321   9.637   7.465   1.635 -1.1530 -1.3116 -1.0016
  321MOL0     H43322   9.849   7.326   1.633  0.1102  2.5272 -0.5830
  321MOL0     H43323  10.037   7.243   1.679  1.1809 -0.8227 -0.6681
  321MOL0     H43324  10.115   7.127   1.799  1.3745  2.5673  1.1546
  321MOL0     H43325  10.057   7.391   1.879  0.5987 -0.3509  2.0747
  321MOL0     H43326  10.212   7.341   1.795 -1.8165  0.3216 -2.6012
  321MOL0     H43327  10.087   7.234   2.058 -0.6760  3.6309  1.7826
  321MOL0     H43328  10.235   7.342   2.034 -1.4794  0.4624 -0.1170
  321MOL0     H43329  10.212   7.042   1.983 -0.0906 -0.8031  0.5976
  321MOL0     H43330  10.338   7.145   1.916 -0.8708 -1.4453 -0.2527
  321MOL0     H43331  10.465   7.153   2.312 -0.4932 -2.2209  0.8749
  321MOL0     H43332   9.775   7.215   2.041 -1.2103 -1.1024  0.3816
  321MOL0     H43333   9.446   7.303   2.055  0.2332 -0.7513 -0.5494
  321MOL0     H43334   9.594   7.249   2.139  0.6425  1.3835  2.0981
  321MOL0     H43335   9.551   7.418   2.146  1.4733 -0.4220  1.0357
  322MOL0     O43336   9.969   9.881   9.234 -0.0461  0.2505 -0.3183
  322MOL0     C43337  10.043   9.786   9.215 -0.3365 -0.3732  0.7133
  322MOL0     O43338  10.003   9.661   9.183  0.1953  0.0465 -0.6798
  322MOL0     C43339   9.870   9.623   9.163  0.2076  0.6119  0.3776
  322MOL0     C43340   9.837   9.528   9.058  0.0508 -0.3083  1.0172
  322MOL0     C43341   9.713   9.503   9.011 -0.3753 -0.2370  0.0562
  322MOL0     C43342   9.602   9.562   9.068 -0.9412 -0.6162 -0.2785
  322MOL0     O43343   9.478   9.533   9.040 -0.0437 -0.1414  0.2745
  322MOL0     C43344   9.433   9.421   8.977 -0.5494  0.4931 -0.3148
  322MOL0     C43345   9.284   9.394   9.008  0.2329 -0.3105  0.1442
  322MOL0     C43346   9.194   9.515   9.020  0.2560 -0.1933  0.4681
  322MOL0     C43347   9.204   9.617   8.891  0.1167  0.9674 -0.3773
  322MOL0     C43348   9.132   9.548   8.774  0.2032  0.4603 -0.0425
  322MOL0     C43349   9.190   9.599   8.648  0.5808  0.6815 -1.3543
  322MOL0     C43350   9.146   9.738   8.615  0.3028 -0.4581 -0.3517
  322MOL0     C43351   9.184   9.779   8.469 -0.7216  0.2558 -0.0439
  322MOL0     N43352   9.320   9.836   8.445  0.7006  0.4304  0.4100
  322MOL0     C43353   9.344   9.966   8.403 -0.8570  0.1209 -0.1584
  322MOL0     C43354   9.476   9.981   8.397 -0.4658 -0.4183  0.3680
  322MOL0     C43355   9.551  10.103   8.351  0.2254 -0.4921  0.1242
  322MOL0     C43356   9.496  10.156   8.209  1.0798 -0.1187  0.5816
  322MOL0     C43357   9.518  10.048   8.103  1.2980  0.2301 -0.6629
  322MOL0     C43358   9.655  10.001   8.069  0.2665  0.0043 -0.1518
  322MOL0     O43359   9.754  10.103   8.057  0.7505 -0.3627 -0.0298
  322MOL0     C43360   9.869  10.057   8.006 -0.1851 -0.5850 -0.1342
  322MOL0     C43361   9.965  10.160   7.981  0.1665  0.0068  0.7761
  322MOL0     C43362  10.086  10.143   7.915  0.9210 -0.7948  0.1528
  322MOL0     C43363  10.121  10.019   7.863  0.3554 -0.0362  0.2212
  322MOL0     C43364  10.254   9.996   7.797 -0.2535  0.6107 -0.3919
  322MOL0     O43365  10.309  10.109   7.757  0.8752  0.1050  0.6962
  322MOL0     C43366  10.419  10.108   7.681  0.3057  0.4895 -0.3140
  322MOL0     C43367  10.529  10.030   7.721 -0.7397 -0.2259 -0.0479
  322MOL0     C43368  10.659  10.050   7.661  0.7922  0.0922 -0.1984
  322MOL0     C43369  10.670  10.139   7.549 -0.8462  0.8234 -0.2483
  322MOL0     O43370  10.785  10.166   7.479  1.2676  0.3548 -0.2407
  322MOL0     C43371  10.899  10.166   7.564 -0.5587  0.8255 -1.2330
  322MOL0     C43372  11.014  10.228   7.493  0.9077  0.8502 -0.2379
  322MOL0     C43373  11.059  10.132   7.386 -0.0320  0.8759  0.4114
  322MOL0     C43374  11.182  10.170   7.308  0.0633  0.1547  0.5058
  322MOL0     C43375  11.201  10.071   7.188  0.7483 -0.5434 -0.3227
  322MOL0     C43376  11.317  10.087   7.088  0.2062 -0.5594  0.3246
  322MOL0     C43377  11.321  10.222   7.020  1.1037  0.2243  0.6951
  322MOL0     C43378  11.207  10.246   6.924  0.5152 -0.0526  0.0252
  322MOL0    Cl43379  11.218  10.133   6.781 -0.0372  0.6294 -0.0359
  322MOL0     C43380  10.551  10.207   7.515 -0.6723  0.4451  0.4452
  322MOL0     C43381  10.429  10.187   7.573 -0.2714  0.5715  0.4585
  322MOL0     O43382  10.284   9.884   7.761  0.5521  0.3290 -0.1068
  322MOL0     C43383  10.026   9.910   7.877  0.2049 -0.6408  0.5999
  322MOL0     C43384   9.901   9.933   7.944  0.7869  0.0650 -0.1658
  322MOL0     N43385   9.535   9.857   8.427  0.2689  0.6447  0.0691
  322MOL0     N43386   9.443   9.772   8.448 -0.2023  0.3375 -0.5666
  322MOL0     C43387   9.633   9.647   9.185  0.7106  0.0548 -0.1413
  322MOL0     C43388   9.761   9.671   9.232 -0.0423 -0.1463  0.5343
  322MOL0     C43389  10.190   9.817   9.177  1.1486 -0.0092 -0.8818
  322MOL0     C43390  10.220   9.881   9.055  0.3659 -0.6557  0.8688
  322MOL0     C43391  10.356   9.883   9.011 -0.1331  0.2889  0.3696
  322MOL0     C43392  10.460   9.835   9.098 -0.4692 -0.1340  0.4408
  322MOL0     O43393  10.594   9.835   9.066 -0.7525  0.3311  0.6022
  322MOL0     C43394  10.635   9.841   8.929 -0.1735  0.0972  0.6956
  322MOL0     C43395  10.595   9.709   8.862 -1.0015 -0.4081  0.1092
  322MOL0     C43396  10.631   9.588   8.941 -0.0840  0.2206 -0.4197
  322MOL0     C43397  10.777   9.587   8.980 -0.6575 -0.1528  0.1310
  322MOL0     C43398  10.817   9.446   8.996 -0.2680 -0.0029  0.2865
  322MOL0     C43399  10.860   9.328   8.999  0.1534 -0.2268  0.7744
  322MOL0     C43400  10.428   9.772   9.213 -0.0726 -0.6660  0.3208
  322MOL0     C43401  10.295   9.768   9.256  0.4923 -0.9806 -0.2362
  322MOL0     C43402  10.275   9.726   9.405  1.1214  1.6167 -0.0190
  322MOL0     H43403   9.924   9.482   9.011  0.8396  0.9553  1.1865
  322MOL0     H43404   9.696   9.432   8.931  0.3646 -1.8366  1.2591
  322MOL0     H43405   9.439   9.437   8.869  2.0155  0.5241 -0.2278
  322MOL0     H43406   9.495   9.331   8.988  2.0722  2.2949  0.5924
  322MOL0     H43407   9.264   9.337   9.098  3.1773  0.5289  1.4772
  322MOL0     H43408   9.260   9.330   8.923 -0.2124  0.2293 -0.1488
  322MOL0     H43409   9.226   9.555   9.117 -0.3340  0.9025  0.2311
  322MOL0     H43410   9.088   9.491   9.032  0.0843  0.1398 -0.2856
  322MOL0     H43411   9.153   9.713   8.902  0.5189  1.0866  0.5277
  322MOL0     H43412   9.309   9.633   8.869  0.4962  0.3604  0.8820
  322MOL0     H43413   9.155   9.441   8.778 -0.2905  0.3841  2.0844
  322MOL0     H43414   9.027   9.572   8.790  0.0632  0.2458 -0.6480
  322MOL0     H43415   9.297   9.587   8.629  0.9684  1.6564  0.0845
  322MOL0     H43416   9.148   9.528   8.576  1.0780 -2.5603  1.3189
  322MOL0     H43417   9.178   9.818   8.683 -0.1109  0.0995 -0.8017
  322MOL0     H43418   9.037   9.746   8.612  0.3730  0.3359 -1.4775
  322MOL0     H43419   9.155   9.705   8.394 -0.9736 -1.3069  1.5525
  322MOL0     H43420   9.116   9.863   8.452 -0.5152  0.3125 -0.6455
  322MOL0     H43421   9.270  10.046   8.396 -3.3760 -1.8426  1.7841
  322MOL0     H43422   9.551  10.173   8.435  3.0913 -0.1210 -0.1095
  322MOL0     H43423   9.657  10.078   8.345 -0.2200 -2.3419 -4.1939
  322MOL0     H43424   9.391  10.184   8.217  1.3542  1.1168  0.1376
  322MOL0     H43425   9.554  10.244   8.179 -0.4906  0.8967  0.3889
  322MOL0     H43426   9.477  10.086   8.009  1.6674 -0.4085 -1.0962
  322MOL0     H43427   9.470   9.953   8.130  3.8325 -1.5479 -1.9582
  322MOL0     H43428   9.648   9.946   7.974  3.3162 -0.2091 -0.3477
  322MOL0     H43429   9.687   9.925   8.141 -0.8411 -0.8203 -0.4979
  322MOL0     H43430   9.952  10.262   8.016 -0.1665  0.9344 -1.8581
  322MOL0     H43431  10.151  10.229   7.897  2.1594 -1.7532 -0.0910
  322MOL0     H43432  10.514   9.965   7.807  0.6543 -1.6483 -0.8208
  322MOL0     H43433  10.745  10.000   7.704  0.0705 -0.6286  0.4251
  322MOL0     H43434  10.873  10.221   7.656  1.3890 -0.5435  0.2196
  322MOL0     H43435  10.923  10.064   7.595  2.4334  1.2189 -1.9633
  322MOL0     H43436  10.981  10.319   7.444  1.2071  0.9851 -0.1919
  322MOL0     H43437  11.090  10.244   7.570 -0.5971 -1.1774  1.7835
  322MOL0     H43438  11.086  10.036   7.432  0.3419 -0.5878 -2.6374
  322MOL0     H43439  10.976  10.113   7.317 -0.0675 -1.1498  0.9450
  322MOL0     H43440  11.270  10.183   7.371  0.5708 -0.8586  0.0277
  322MOL0     H43441  11.164  10.267   7.261  0.3890  0.0902  0.2436
  322MOL0     H43442  11.107  10.073   7.131  1.3772 -0.3179 -1.3794
  322MOL0     H43443  11.215   9.978   7.244 -0.4093 -1.2098 -1.0990
  322MOL0     H43444  11.414  10.073   7.137  1.6753  1.1142 -1.8862
  322MOL0     H43445  11.318  10.009   7.011  0.4370  1.3989 -1.7700
  322MOL0     H43446  11.413  10.238   6.962  0.6260  1.3798  0.2095
  322MOL0     H43447  11.333  10.303   7.093  0.7815  0.7999  0.1280
  322MOL0     H43448  11.108  10.242   6.970  0.8046 -0.4111  0.6405
  322MOL0     H43449  11.215  10.348   6.886 -1.1425  0.3058  0.5611
  322MOL0     H43450  10.574  10.262   7.425 -0.6043 -1.2657 -0.6472
  322MOL0     H43451  10.338  10.237   7.540 -0.5928 -0.2915  0.0109
  322MOL0     H43452  10.045   9.811   7.836 -0.5692 -0.1482 -1.0596
  322MOL0     H43453   9.830   9.852   7.952  1.9930 -0.9374  1.1068
  322MOL0     H43454   9.544   9.683   9.235 -0.7816  0.2251 -2.7306
  322MOL0     H43455   9.774   9.736   9.318 -0.3933  1.4620 -0.5623
  322MOL0     H43456  10.147   9.926   8.989  1.8598  0.9576  0.2265
  322MOL0     H43457  10.375   9.929   8.915 -0.4696 -2.3534 -1.0396
  322MOL0     H43458  10.740   9.863   8.909 -0.8645  2.0185 -1.1774
  322MOL0     H43459  10.581   9.927   8.888 -0.6314 -0.7809 -0.6253
  322MOL0     H43460  10.642   9.697   8.764 -0.1050  1.5067  0.2610
  322MOL0     H43461  10.487   9.710   8.843 -0.6539  1.3888 -2.2968
  322MOL0     H43462  10.599   9.501   8.882  1.8990 -1.4815  0.9010
  322MOL0     H43463  10.574   9.586   9.035  2.8803  1.9942  1.5676
  322MOL0     H43464  10.838   9.622   8.896 -1.4524  0.9756 -0.0072
  322MOL0     H43465  10.787   9.643   9.073  0.8698 -0.6810  0.3108
  322MOL0     H43466  10.888   9.225   9.002 -0.2648 -0.3310  2.6750
  322MOL0     H43467  10.512   9.731   9.269  0.7683 -1.1741 -1.2377
  322MOL0     H43468  10.315   9.800   9.474 -0.1037  1.1116  1.2868
  322MOL0     H43469  10.170   9.704   9.428  0.6260 -0.4200 -3.4576
  322MOL0     H43470  10.331   9.632   9.414  0.4484  1.2977  0.9562
  323MOL0     O43471   6.260   2.187   7.983  0.2310  0.0222  0.0517
  323MOL0     C43472   6.246   2.067   7.994 -0.4399 -0.9944  1.3629
  323MOL0     O43473   6.350   1.977   8.013  0.7841  0.0605  0.2883
  323MOL0     C43474   6.484   2.012   7.987 -0.3032 -0.1861  0.4342
  323MOL0     C43475   6.527   2.098   7.876  0.5156 -0.0882 -0.7835
  323MOL0     C43476   6.662   2.114   7.851 -0.3876  0.4374  1.0229
  323MOL0     C43477   6.763   2.049   7.927  1.2780 -0.4860 -0.0068
  323MOL0     O43478   6.886   2.076   7.895  0.1146  0.4089  0.3087
  323MOL0     C43479   6.982   1.997   7.964  0.1683 -0.0016 -0.2769
  323MOL0     C43480   7.117   2.034   7.900 -1.1442 -0.9962 -0.8107
  323MOL0     C43481   7.215   1.918   7.883 -0.6503  0.1758  0.5154
  323MOL0     C43482   7.357   1.961   7.859 -0.1493 -0.9079  0.0351
  323MOL0     C43483   7.444   1.842   7.894  1.2556 -0.4824  0.3257
  323MOL0     C43484   7.496   1.847   8.041  0.2988  0.1166  1.4937
  323MOL0     C43485   7.556   1.705   8.063 -0.2082 -0.6186 -0.0356
  323MOL0     C43486   7.673   1.721   8.165 -0.6610 -0.3691 -1.0229
  323MOL0     N43487   7.759   1.597   8.167  0.1488  0.7373  0.6566
  323MOL0     C43488   7.809   1.544   8.283 -0.3446 -0.1131  0.3882
  323MOL0     C43489   7.893   1.445   8.243 -0.4249  0.7855  0.7764
  323MOL0     C43490   7.980   1.344   8.326 -0.1052 -0.6960  0.6461
  323MOL0     C43491   7.904   1.245   8.421 -0.6717 -1.4518 -0.3195
  323MOL0     C43492   7.847   1.126   8.356 -0.2525 -0.4712  0.1383
  323MOL0     C43493   7.749   1.150   8.233 -0.0328 -0.5174 -0.3998
  323MOL0     O43494   7.625   1.219   8.255 -0.3697  0.0999  0.0556
  323MOL0     C43495   7.525   1.155   8.314 -0.5291  1.4589 -0.2230
  323MOL0     C43496   7.533   1.023   8.361  0.4736  0.1062 -0.0104
  323MOL0     C43497   7.431   0.971   8.431 -0.3286  0.5906 -0.7571
  323MOL0     C43498   7.314   1.037   8.447  0.3506 -0.7060 -0.0237
  323MOL0     C43499   7.210   0.971   8.536 -0.9102  0.1650  0.3276
  323MOL0     O43500   7.143   1.056   8.617  0.1991  0.2194 -0.2413
  323MOL0     C43501   7.016   1.035   8.658  0.1602  0.2043 -0.3393
  323MOL0     C43502   6.923   0.940   8.604 -0.2235  0.2479 -0.5148
  323MOL0     C43503   6.799   0.925   8.660  0.0260  0.3584 -0.6248
  323MOL0     C43504   6.752   1.002   8.763  0.3186 -0.9680  0.2464
  323MOL0     O43505   6.627   0.976   8.807 -0.6596  0.9328 -0.1273
  323MOL0     C43506   6.603   0.996   8.939 -0.6039  0.1952 -0.3073
  323MOL0     C43507   6.492   0.898   8.967  0.5821  0.4118  0.5516
  323MOL0     C43508   6.357   0.949   8.909 -0.2992  0.0977 -0.7601
  323MOL0     C43509   6.249   0.975   9.023 -0.3465  0.0782 -0.8481
  323MOL0     C43510   6.140   1.066   8.981 -0.2574 -0.1181  0.7843
  323MOL0     C43511   6.045   1.085   9.100 -1.1173  0.1715 -0.1777
  323MOL0     C43512   5.956   0.971   9.156 -0.0475 -0.3431  0.7818
  323MOL0     C43513   5.884   0.902   9.038  0.4844  0.4249  0.2389
  323MOL0    Cl43514   5.806   1.020   8.928  0.1439  0.2897  0.0448
  323MOL0     C43515   6.840   1.100   8.807  0.0661  0.4103 -0.2510
  323MOL0     C43516   6.976   1.116   8.762  1.0790 -0.7130 -0.9272
  323MOL0     O43517   7.184   0.855   8.516  0.4311 -0.1058 -0.3205
  323MOL0     C43518   7.309   1.174   8.419  0.4172  0.2219 -0.9133
  323MOL0     C43519   7.408   1.227   8.344  0.2265 -0.4911 -0.1672
  323MOL0     N43520   7.910   1.466   8.107 -0.4101  0.1240 -0.3131
  323MOL0     N43521   7.838   1.562   8.062  0.5864  0.1227 -0.2777
  323MOL0     C43522   6.724   1.960   8.028  0.0737 -0.1139  0.4535
  323MOL0     C43523   6.583   1.947   8.060  0.1985  0.7824  0.2513
  323MOL0     C43524   6.103   2.013   7.995 -0.7859  0.7894  0.0537
  323MOL0     C43525   6.061   1.944   8.115 -0.6586 -0.1347  0.8719
  323MOL0     C43526   5.934   1.886   8.131 -0.2421 -0.1831  0.6512
  323MOL0     C43527   5.838   1.908   8.036 -0.5459 -1.2632  0.0583
  323MOL0     O43528   5.705   1.865   8.067 -0.0628 -0.0117 -0.6912
  323MOL0     C43529   5.617   1.848   7.965 -0.8098 -1.3142  0.6697
  323MOL0     C43530   5.644   1.731   7.875 -0.1353  0.5909 -0.3938
  323MOL0     C43531   5.648   1.586   7.940  0.4687 -0.4079  0.1653
  323MOL0     C43532   5.527   1.557   8.032  0.2286  0.6061  0.0325
  323MOL0     C43533   5.461   1.424   8.020  0.4840  0.6859 -0.4618
  323MOL0     C43534   5.413   1.316   8.002 -0.7669  0.4693  1.1151
  323MOL0     C43535   5.875   1.971   7.915 -0.4612  0.9674  0.8736
  323MOL0     C43536   6.006   2.022   7.895  0.4470 -0.1612 -0.0623
  323MOL0     C43537   6.035   2.095   7.766 -0.2259 -0.5896  0.0457
  323MOL0     H43538   6.449   2.143   7.816 -0.3934  0.0248  0.4476
  323MOL0     H43539   6.685   2.186   7.774 -0.2138  0.6996  1.3144
  323MOL0     H43540   6.977   2.012   8.072 -1.6073  1.3457 -0.4904
  323MOL0     H43541   6.958   1.894   7.940  0.3954 -0.0600 -0.2549
  323MOL0     H43542   7.154   2.114   7.965 -2.3287 -2.0066  1.2177
  323MOL0     H43543   7.090   2.066   7.799  2.8783  1.1587 -1.4201
  323MOL0     H43544   7.182   1.860   7.797  1.2190  0.7289 -0.6339
  323MOL0     H43545   7.205   1.847   7.966 -0.8217 -0.2449  0.1435
  323MOL0     H43546   7.365   1.974   7.750  1.5556  1.3503  0.3610
  323MOL0     H43547   7.393   2.053   7.906  2.4235 -2.3962  1.1619
  323MOL0     H43548   7.390   1.748   7.877 -0.8238  0.5305  1.0228
  323MOL0     H43549   7.523   1.841   7.818  0.2639 -1.5652 -0.7263
  323MOL0     H43550   7.571   1.927   8.052  1.2198 -0.1608 -1.6831
  323MOL0     H43551   7.413   1.859   8.111 -0.5495  2.2080  0.2384
  323MOL0     H43552   7.592   1.676   7.964 -1.1513  1.1213 -0.9422
  323MOL0     H43553   7.484   1.626   8.083 -0.6703  0.0746  1.1714
  323MOL0     H43554   7.730   1.811   8.142  0.4904 -0.5147  0.9996
  323MOL0     H43555   7.634   1.740   8.266  1.2212  1.8236 -0.6302
  323MOL0     H43556   7.782   1.547   8.388  0.8172  2.2744  0.6808
  323MOL0     H43557   8.030   1.279   8.254  0.4251 -0.0897  0.4557
  323MOL0     H43558   8.055   1.399   8.384  1.7397 -1.4217 -0.9709
  323MOL0     H43559   7.957   1.199   8.504 -0.9223 -2.3789 -0.6628
  323MOL0     H43560   7.831   1.313   8.467 -0.8645 -0.2732 -2.2513
  323MOL0     H43561   7.793   1.075   8.436 -2.1618 -1.4163 -1.6701
  323MOL0     H43562   7.923   1.061   8.312 -1.5251 -2.1192  0.3016
  323MOL0     H43563   7.730   1.051   8.189 -2.7798 -1.5371  2.6697
  323MOL0     H43564   7.796   1.206   8.152 -1.4824 -0.0504 -0.9578
  323MOL0     H43565   7.616   0.953   8.359  0.8108  0.4196 -3.5053
  323MOL0     H43566   7.439   0.868   8.465  2.0190  1.1377  0.6066
  323MOL0     H43567   6.950   0.879   8.518 -4.1932 -2.6297 -0.0346
  323MOL0     H43568   6.731   0.855   8.611  0.4455 -1.2508  1.0003
  323MOL0     H43569   6.684   0.961   9.004 -1.0924 -1.8367 -0.7166
  323MOL0     H43570   6.570   1.098   8.962  1.0381  0.7328 -0.1690
  323MOL0     H43571   6.528   0.805   8.923  0.1962  1.0265 -1.1184
  323MOL0     H43572   6.476   0.867   9.071 -2.2300 -0.6775 -0.1227
  323MOL0     H43573   6.389   1.033   8.847  0.0271  0.5048 -0.0522
  323MOL0     H43574   6.308   0.880   8.839 -2.0538 -2.3146  2.5440
  323MOL0     H43575   6.300   1.019   9.110 -3.4447  0.3451  0.9816
  323MOL0     H43576   6.212   0.875   9.049 -2.1018  0.6385 -1.0448
  323MOL0     H43577   6.088   1.030   8.891  0.9480 -3.9677  1.4438
  323MOL0     H43578   6.181   1.162   8.949 -2.2426  0.0871 -1.4315
  323MOL0     H43579   6.101   1.115   9.189 -2.9406  2.3797  0.2989
  323MOL0     H43580   5.974   1.164   9.077 -1.7613 -0.9119 -2.1397
  323MOL0     H43581   5.891   1.007   9.236 -0.2165 -0.0023  0.4937
  323MOL0     H43582   6.014   0.894   9.207 -2.1097 -1.4157  1.5994
  323MOL0     H43583   5.939   0.837   8.969 -1.6212  0.0699 -1.1868
  323MOL0     H43584   5.810   0.838   9.086  1.6074  0.7969  2.5686
  323MOL0     H43585   6.801   1.148   8.895  1.4571  0.5845  0.3050
  323MOL0     H43586   7.051   1.186   8.795  1.3050  0.4113 -3.5868
  323MOL0     H43587   7.228   1.235   8.457  1.1657  0.2314  0.7935
  323MOL0     H43588   7.407   1.334   8.324  0.9940  0.2008  2.9416
  323MOL0     H43589   6.797   1.895   8.076  0.3421  1.0693  1.6887
  323MOL0     H43590   6.560   1.882   8.144  0.3297 -0.6269 -0.7532
  323MOL0     H43591   6.126   1.918   8.197  3.2099  0.5333 -1.7225
  323MOL0     H43592   5.897   1.858   8.229 -1.8166 -1.1458 -0.1735
  323MOL0     H43593   5.599   1.938   7.905 -4.8652 -1.2298  1.7487
  323MOL0     H43594   5.521   1.833   8.014 -0.0323 -3.4651  1.6652
  323MOL0     H43595   5.736   1.741   7.818  0.0885 -1.9746 -0.6216
  323MOL0     H43596   5.555   1.719   7.813 -0.2214  0.2683 -0.2126
  323MOL0     H43597   5.727   1.574   8.015  0.7039 -1.5166 -0.2384
  323MOL0     H43598   5.669   1.515   7.859 -0.8086 -0.6312  0.0041
  323MOL0     H43599   5.554   1.574   8.137 -1.7928 -1.0719  0.9066
  323MOL0     H43600   5.447   1.629   8.011  0.7206  1.2183  0.2658
  323MOL0     H43601   5.371   1.218   7.999 -0.6887  0.4437 -0.5204
  323MOL0     H43602   5.801   1.985   7.837  0.0163 -0.3067  0.1585
  323MOL0     H43603   6.091   2.186   7.789 -0.1379 -0.6110 -0.0876
  323MOL0     H43604   6.106   2.036   7.707  0.1473  1.4902 -1.6856
  323MOL0     H43605   5.954   2.112   7.695 -0.4789 -0.8571  0.2606
  324MOL0     O43606  10.119   5.893   3.235 -0.5575 -0.1821  0.4141
  324MOL0     C43607  10.084   5.951   3.129  0.3215  0.1812  0.8121
  324MOL0     O43608   9.968   5.955   3.077  0.2048  0.5777  0.0112
  324MOL0     C43609   9.872   5.866   3.123  0.3006  1.3454 -0.9949
  324MOL0     C43610   9.910   5.727   3.129  0.6777 -0.7433 -0.0314
  324MOL0     C43611   9.819   5.631   3.182 -0.3789  0.0281 -0.0546
  324MOL0     C43612   9.690   5.676   3.216  0.1390  0.5474  0.6315
  324MOL0     O43613   9.600   5.604   3.286 -1.0999 -0.2238  0.7195
  324MOL0     C43614   9.628   5.462   3.304  0.8515  0.4201  1.2685
  324MOL0     C43615   9.494   5.396   3.335 -0.0674 -0.9419  0.8230
  324MOL0     C43616   9.384   5.409   3.227  0.8880 -0.0903 -0.0538
  324MOL0     C43617   9.245   5.378   3.294 -0.3274 -0.4347  0.3620
  324MOL0     C43618   9.137   5.360   3.192  0.1294  0.5370  0.3669
  324MOL0     C43619   9.058   5.490   3.156 -0.4009 -0.0969  0.7891
  324MOL0     C43620   8.972   5.544   3.274  0.3293 -0.1661 -0.1886
  324MOL0     C43621   8.845   5.606   3.220 -0.6373  0.0001 -0.7067
  324MOL0     N43622   8.781   5.675   3.331  0.1638 -0.2910  0.0419
  324MOL0     C43623   8.750   5.626   3.463  1.1652 -0.0152  0.6320
  324MOL0     C43624   8.699   5.728   3.528  0.5926  0.8225 -0.6031
  324MOL0     C43625   8.653   5.697   3.666  1.1426  0.6535  0.6926
  324MOL0     C43626   8.503   5.664   3.662 -0.6677 -0.2340  0.0505
  324MOL0     C43627   8.435   5.688   3.800 -0.2715 -0.7681 -0.1527
  324MOL0     C43628   8.410   5.834   3.833  0.8953  0.5603  0.4588
  324MOL0     O43629   8.333   5.860   3.948  0.4997 -0.4150 -0.0324
  324MOL0     C43630   8.197   5.849   3.949 -0.1464 -0.1254  0.0671
  324MOL0     C43631   8.129   5.844   4.068  0.1488 -0.5411  0.3664
  324MOL0     C43632   7.984   5.816   4.076  0.0952  0.0665  0.0378
  324MOL0     C43633   7.907   5.797   3.959 -0.1118 -0.1483  0.7242
  324MOL0     C43634   7.765   5.744   3.965  1.2118 -0.7950  0.1478
  324MOL0     O43635   7.732   5.702   4.089  0.2520  0.1359  0.1435
  324MOL0     C43636   7.596   5.708   4.112  0.1042  0.2588  0.6048
  324MOL0     C43637   7.532   5.831   4.120 -1.1942  0.4518  0.3474
  324MOL0     C43638   7.398   5.837   4.128  0.3824  0.9546 -0.0432
  324MOL0     C43639   7.315   5.716   4.133 -0.1618 -1.2029 -0.2119
  324MOL0     O43640   7.178   5.743   4.144 -0.0815 -0.0822 -0.1667
  324MOL0     C43641   7.084   5.638   4.121 -0.3500  0.8118  0.2507
  324MOL0     C43642   6.943   5.708   4.095  0.3319 -0.2874 -0.1793
  324MOL0     C43643   6.831   5.609   4.103  0.5029 -0.0563  0.5441
  324MOL0     C43644   6.709   5.658   4.178  0.3502  0.7249 -0.8900
  324MOL0     C43645   6.591   5.566   4.191 -0.3880  0.1028 -1.0817
  324MOL0     C43646   6.478   5.632   4.273 -0.4140  0.4014  0.0689
  324MOL0     C43647   6.356   5.546   4.277 -0.1821  0.5238 -0.2804
  324MOL0     C43648   6.281   5.504   4.152 -0.6481 -0.8142 -0.5563
  324MOL0    Cl43649   6.333   5.342   4.077  0.5370  0.6291  0.4628
  324MOL0     C43650   7.375   5.591   4.130 -1.2548 -0.4952 -0.3407
  324MOL0     C43651   7.513   5.586   4.111  0.5956 -0.5465 -0.2695
  324MOL0     O43652   7.679   5.752   3.870 -0.8772 -0.3074  0.1780
  324MOL0     C43653   7.973   5.805   3.833 -0.1425 -0.2452 -0.2939
  324MOL0     C43654   8.117   5.818   3.833  0.2461  0.3887 -0.9635
  324MOL0     N43655   8.700   5.841   3.448 -0.4067  0.4587  0.2051
  324MOL0     N43656   8.741   5.810   3.323 -0.0693  0.7171 -0.5618
  324MOL0     C43657   9.654   5.814   3.199  0.4835  0.7827 -0.5255
  324MOL0     C43658   9.749   5.909   3.164  0.6535  0.1789 -0.8502
  324MOL0     C43659  10.199   6.006   3.042 -0.2877 -0.1494 -0.0433
  324MOL0     C43660  10.323   6.032   3.109  0.2690  0.1271 -0.9554
  324MOL0     C43661  10.423   6.093   3.044  0.2499  0.8762 -0.3803
  324MOL0     C43662  10.418   6.135   2.908 -0.0405 -1.0246  1.1138
  324MOL0     O43663  10.522   6.217   2.875  0.0234  0.0508 -0.2728
  324MOL0     C43664  10.513   6.267   2.743  0.6312 -0.0723  0.4681
  324MOL0     C43665  10.641   6.327   2.686 -0.2939  0.7655  0.8119
  324MOL0     C43666  10.603   6.400   2.544  0.5175 -1.2108  0.7938
  324MOL0     C43667  10.717   6.497   2.497  0.1703  0.5306 -0.5452
  324MOL0     C43668  10.826   6.411   2.444 -0.2318  0.2199  0.9713
  324MOL0     C43669  10.923   6.345   2.400  0.8324 -0.4892 -0.8698
  324MOL0     C43670  10.297   6.100   2.842 -0.3544 -0.4671 -0.0836
  324MOL0     C43671  10.191   6.033   2.902 -0.4479  0.2215 -0.0001
  324MOL0     C43672  10.093   5.981   2.805  0.7577 -0.6828 -0.0170
  324MOL0     H43673  10.014   5.705   3.107  1.0931  1.5034 -0.6394
  324MOL0     H43674   9.872   5.538   3.203  1.3938  0.9590 -0.2273
  324MOL0     H43675   9.652   5.432   3.202 -2.1098  2.6193 -0.1915
  324MOL0     H43676   9.692   5.425   3.385  0.8150 -1.9277  0.3203
  324MOL0     H43677   9.451   5.450   3.419  0.2514  0.8070 -0.0995
  324MOL0     H43678   9.512   5.290   3.356  2.6171 -1.0556 -1.4630
  324MOL0     H43679   9.398   5.338   3.145  3.0663 -0.8099  0.8633
  324MOL0     H43680   9.397   5.508   3.182  1.2854 -0.1625 -0.0975
  324MOL0     H43681   9.256   5.283   3.348  3.0584 -1.2340 -1.4562
  324MOL0     H43682   9.215   5.458   3.362 -0.7101  0.0494 -0.3618
  324MOL0     H43683   9.176   5.317   3.099 -0.8112  0.6768 -0.1035
  324MOL0     H43684   9.074   5.286   3.242  1.4295  0.9391  2.7358
  324MOL0     H43685   9.120   5.578   3.134 -1.6550  0.8778  1.0637
  324MOL0     H43686   9.005   5.476   3.061  2.0181  3.0210 -1.2243
  324MOL0     H43687   9.035   5.609   3.336 -0.5704  0.3624  0.1954
  324MOL0     H43688   8.949   5.456   3.335 -0.9201 -0.6434 -1.2912
  324MOL0     H43689   8.878   5.691   3.160  1.7731  0.8912  1.6679
  324MOL0     H43690   8.773   5.540   3.170 -2.0993  1.1322 -0.1860
  324MOL0     H43691   8.765   5.522   3.493 -0.6854 -0.9390 -1.3790
  324MOL0     H43692   8.700   5.606   3.703 -0.1502 -0.5855 -0.5898
  324MOL0     H43693   8.671   5.776   3.739  2.3373  1.9277 -0.9031
  324MOL0     H43694   8.450   5.720   3.584  0.8429 -0.3723 -1.1208
  324MOL0     H43695   8.495   5.558   3.634  0.7162 -1.2521  3.1241
  324MOL0     H43696   8.501   5.643   3.875 -0.2990 -3.5803 -1.7125
  324MOL0     H43697   8.339   5.638   3.814  0.0812 -1.0822  1.3475
  324MOL0     H43698   8.369   5.887   3.746 -0.9532  0.2583  1.1167
  324MOL0     H43699   8.501   5.892   3.855  0.0867  1.0190  2.8274
  324MOL0     H43700   8.181   5.855   4.163  0.7351  0.9031 -0.0939
  324MOL0     H43701   7.941   5.818   4.176  1.6412  2.1287  0.7330
  324MOL0     H43702   7.595   5.917   4.140 -1.5301  0.1741  2.9726
  324MOL0     H43703   7.358   5.938   4.124 -2.8304 -0.1814  0.1471
  324MOL0     H43704   7.105   5.580   4.031 -0.6959 -1.1002  1.3508
  324MOL0     H43705   7.070   5.579   4.212  1.8658 -0.0604  0.0939
  324MOL0     H43706   6.936   5.780   4.177 -0.0728 -0.1762 -0.3079
  324MOL0     H43707   6.935   5.767   4.003 -3.0394  2.0536  1.3661
  324MOL0     H43708   6.804   5.577   4.002  1.1938 -1.0227  0.6523
  324MOL0     H43709   6.859   5.519   4.158 -1.8377 -1.3314 -0.2233
  324MOL0     H43710   6.671   5.751   4.134  1.4502  1.1113 -1.0661
  324MOL0     H43711   6.748   5.678   4.279 -0.9773 -2.5125  0.4030
  324MOL0     H43712   6.613   5.469   4.236  1.1738  0.4090 -1.1554
  324MOL0     H43713   6.551   5.544   4.091 -1.2013  0.7092 -0.9018
  324MOL0     H43714   6.507   5.638   4.378 -0.0391 -2.6351  0.2262
  324MOL0     H43715   6.455   5.733   4.240 -0.2686  1.8034  3.8144
  324MOL0     H43716   6.278   5.598   4.334 -1.7592 -2.3770  0.4013
  324MOL0     H43717   6.365   5.449   4.326 -1.7999  0.0119 -0.9494
  324MOL0     H43718   6.173   5.496   4.168 -0.7724  1.9273  0.4973
  324MOL0     H43719   6.284   5.590   4.085 -2.6521  0.7477  1.2095
  324MOL0     H43720   7.319   5.498   4.129  0.9691 -1.9188  0.5500
  324MOL0     H43721   7.554   5.485   4.115 -2.7404 -2.1351 -2.1857
  324MOL0     H43722   7.919   5.781   3.742  3.3051 -1.0729 -2.2978
  324MOL0     H43723   8.169   5.810   3.738  0.4524 -0.4427 -0.7826
  324MOL0     H43724   9.557   5.839   3.241  1.0209 -1.9495  2.8676
  324MOL0     H43725   9.728   6.014   3.149 -0.4886  0.3218  1.3671
  324MOL0     H43726  10.323   6.003   3.213  3.0166 -0.5926 -1.0823
  324MOL0     H43727  10.507   6.126   3.105 -0.6975  1.4872  0.6377
  324MOL0     H43728  10.429   6.338   2.739 -1.0883 -1.8897  2.1725
  324MOL0     H43729  10.480   6.187   2.677 -2.0857 -0.1210  1.7484
  324MOL0     H43730  10.723   6.258   2.661 -1.2795 -0.0804 -0.2676
  324MOL0     H43731  10.679   6.391   2.765  0.6263  1.1609  0.0561
  324MOL0     H43732  10.512   6.461   2.551  0.5038 -0.6319 -2.7073
  324MOL0     H43733  10.583   6.327   2.465 -0.7645  3.0135 -3.1856
  324MOL0     H43734  10.678   6.573   2.428 -1.6182 -1.8517 -2.3501
  324MOL0     H43735  10.751   6.551   2.586 -1.9546 -1.2612  1.4764
  324MOL0     H43736  11.014   6.296   2.373  3.0540  1.6508  2.1168
  324MOL0     H43737  10.274   6.132   2.741 -0.3692  1.7643  0.5582
  324MOL0     H43738  10.138   5.966   2.706 -1.9290  2.2777 -1.8841
  324MOL0     H43739  10.057   5.881   2.829 -0.5673  0.3105  2.6040
  324MOL0     H43740  10.014   6.057   2.808 -0.7268 -2.1680 -0.0713
  325MOL0     O43741   8.878   2.331   8.156  0.1353 -0.2675  0.4816
  325MOL0     C43742   8.805   2.235   8.163 -1.2313  0.3499 -1.1562
  325MOL0     O43743   8.835   2.115   8.221 -0.0523 -0.3118  0.0832
  325MOL0     C43744   8.956   2.115   8.287  0.2381 -0.0878  0.2436
  325MOL0     C43745   8.964   2.132   8.421 -0.2883 -0.1324 -0.2184
  325MOL0     C43746   9.090   2.129   8.489 -0.6508  0.4603 -0.1808
  325MOL0     C43747   9.208   2.105   8.417 -0.2864  0.4852 -0.8045
  325MOL0     O43748   9.329   2.093   8.475 -0.0044  0.2052 -0.7595
  325MOL0     C43749   9.436   2.178   8.419 -0.9405 -0.8250 -0.5429
  325MOL0     C43750   9.443   2.327   8.488 -0.0049 -0.2192 -0.2412
  325MOL0     C43751   9.572   2.406   8.472 -0.4342  1.1215  0.5585
  325MOL0     C43752   9.662   2.362   8.354 -1.0360  0.0293  0.6555
  325MOL0     C43753   9.747   2.482   8.299  0.5051  0.2305 -0.1278
  325MOL0     C43754   9.851   2.524   8.405  0.9685  0.7990  0.1875
  325MOL0     C43755   9.978   2.435   8.406  0.1653  0.0301  0.2206
  325MOL0     C43756  10.061   2.471   8.521  0.4655  0.3203 -0.3021
  325MOL0     N43757  10.194   2.413   8.518 -0.1355 -0.6380  0.2934
  325MOL0     C43758  10.294   2.449   8.605  0.3401 -0.0992 -0.1526
  325MOL0     C43759  10.381   2.348   8.588 -0.0271  0.3921  0.1780
  325MOL0     C43760  10.514   2.333   8.655  0.3692 -0.8383  0.6609
  325MOL0     C43761  10.626   2.336   8.551  0.6235  0.0595 -0.5689
  325MOL0     C43762  10.623   2.470   8.472  0.1392 -0.0676 -0.5649
  325MOL0     C43763  10.753   2.484   8.399  0.5071  0.3370  0.1841
  325MOL0     O43764  10.745   2.595   8.316  0.0540  0.7675  0.2961
  325MOL0     C43765  10.864   2.654   8.291  0.5747  0.6673 -0.0958
  325MOL0     C43766  10.949   2.596   8.203  0.0944 -0.7840  0.5617
  325MOL0     C43767  11.074   2.653   8.176  0.9460 -0.1453  0.7847
  325MOL0     C43768  11.103   2.784   8.218  0.3115 -0.6097  0.4284
  325MOL0     C43769  11.225   2.860   8.186 -0.5673  0.2419  0.0414
  325MOL0     O43770  11.256   2.979   8.242 -0.2665 -0.2227  0.9806
  325MOL0     C43771  11.364   3.049   8.197 -0.7213 -0.1216 -0.0924
  325MOL0     C43772  11.495   3.018   8.228 -0.0719  0.4423  0.2079
  325MOL0     C43773  11.602   3.097   8.187 -0.4967  0.5928  0.2278
  325MOL0     C43774  11.578   3.207   8.100  0.0429  0.3551 -0.6807
  325MOL0     O43775  11.677   3.292   8.057  0.9870 -0.0084  0.2663
  325MOL0     C43776  11.808   3.248   8.079 -0.4627 -0.0895  0.6408
  325MOL0     C43777  11.907   3.343   7.998  0.3097 -0.0308 -0.6725
  325MOL0     C43778  11.882   3.352   7.846 -0.0324  0.0169  0.3811
  325MOL0     C43779  11.988   3.434   7.771  0.1572  0.0800  0.5085
  325MOL0     C43780  11.954   3.438   7.623 -1.0314  0.4203  0.0668
  325MOL0     C43781  12.097   3.434   7.553 -0.1464 -0.4049  0.4502
  325MOL0     C43782  12.100   3.509   7.418  0.4612 -0.5325 -0.4417
  325MOL0     C43783  12.104   3.655   7.421 -0.1370 -0.6738  0.0570
  325MOL0    Cl43784  12.093   3.707   7.240  0.0318  0.5785  0.1797
  325MOL0     C43785  11.445   3.241   8.075 -0.1510 -0.3112  0.1768
  325MOL0     C43786  11.339   3.171   8.126  0.5954  0.0724  1.5807
  325MOL0     O43787  11.291   2.809   8.098 -1.1156  0.2526 -0.5060
  325MOL0     C43788  11.009   2.845   8.309  0.5697 -0.6467  0.5327
  325MOL0     C43789  10.896   2.779   8.342  0.4034 -0.5040 -0.2822
  325MOL0     N43790  10.327   2.251   8.509 -0.4614  0.3992  0.6944
  325MOL0     N43791  10.215   2.285   8.475 -0.0687  0.3480 -0.1164
  325MOL0     C43792   9.195   2.091   8.277  0.3319 -0.9441  0.1240
  325MOL0     C43793   9.074   2.088   8.211 -0.5138  0.7040  0.7038
  325MOL0     C43794   8.679   2.252   8.091  0.2976 -0.2770  0.4090
  325MOL0     C43795   8.607   2.373   8.099  0.3779  0.7399 -0.9186
  325MOL0     C43796   8.485   2.390   8.034 -0.5608 -0.1925 -0.0201
  325MOL0     C43797   8.429   2.289   7.961  0.1783  0.1674  0.0161
  325MOL0     O43798   8.310   2.296   7.898  0.1076 -0.4012 -0.0543
  325MOL0     C43799   8.245   2.428   7.890 -0.1838  1.2154  0.4979
  325MOL0     C43800   8.157   2.415   7.763 -0.2855  0.0485 -0.8873
  325MOL0     C43801   8.045   2.311   7.756  0.2569 -0.7431  0.2455
  325MOL0     C43802   7.939   2.353   7.852  0.6333  0.3755 -0.5259
  325MOL0     C43803   7.848   2.242   7.872  0.4630 -0.6376 -0.3556
  325MOL0     C43804   7.769   2.148   7.887  0.3386  0.5035  1.4870
  325MOL0     C43805   8.504   2.177   7.940  0.4779  0.2615 -1.5655
  325MOL0     C43806   8.619   2.150   8.009  0.0278  0.0931  0.5694
  325MOL0     C43807   8.693   2.021   7.970 -0.3568  0.0824  0.0306
  325MOL0     H43808   8.869   2.157   8.468 -0.5375 -0.9082 -0.2945
  325MOL0     H43809   9.102   2.156   8.594  0.3499  5.3828 -1.2857
  325MOL0     H43810   9.534   2.132   8.433 -0.6033 -0.2225 -0.8990
  325MOL0     H43811   9.432   2.187   8.310  2.4599 -0.8225 -0.7783
  325MOL0     H43812   9.434   2.309   8.595  1.4043 -1.4475 -0.2838
  325MOL0     H43813   9.358   2.386   8.452  0.7442  0.9201 -0.1846
  325MOL0     H43814   9.635   2.406   8.561 -0.4609  1.1712  0.5783
  325MOL0     H43815   9.537   2.508   8.453 -0.5665  0.9322 -0.2687
  325MOL0     H43816   9.727   2.275   8.367  0.0987  0.9399  1.2795
  325MOL0     H43817   9.589   2.327   8.280 -0.2655  0.4805 -0.3557
  325MOL0     H43818   9.780   2.446   8.201 -3.3289 -0.4484 -1.3127
  325MOL0     H43819   9.671   2.558   8.280  1.8421  1.7684  0.4359
  325MOL0     H43820   9.869   2.630   8.385 -4.0109  1.7230 -0.8920
  325MOL0     H43821   9.812   2.530   8.508  1.1905 -0.2072  0.3413
  325MOL0     H43822  10.037   2.446   8.315 -0.6565 -0.1921 -0.3472
  325MOL0     H43823   9.935   2.334   8.407 -0.7599  0.4055 -0.5047
  325MOL0     H43824  10.065   2.580   8.526  0.7201  0.2697  0.7113
  325MOL0     H43825  10.015   2.436   8.613 -0.9151  1.8093 -0.3851
  325MOL0     H43826  10.293   2.544   8.658 -0.9484  0.5187 -1.2203
  325MOL0     H43827  10.514   2.423   8.717 -2.5547  0.3200 -0.8466
  325MOL0     H43828  10.520   2.236   8.707  1.6116  0.0589  2.2936
  325MOL0     H43829  10.722   2.320   8.602  1.1169 -1.6348 -1.9167
  325MOL0     H43830  10.611   2.245   8.492 -1.8321 -0.3117  0.5145
  325MOL0     H43831  10.616   2.555   8.541  0.1495  1.8895 -2.8249
  325MOL0     H43832  10.543   2.470   8.397  0.8333  1.0252 -1.3450
  325MOL0     H43833  10.766   2.391   8.342  3.3641  1.3308 -0.9777
  325MOL0     H43834  10.832   2.489   8.474 -0.8429  0.5925  1.6456
  325MOL0     H43835  10.922   2.502   8.154  1.5700  1.0430 -4.3232
  325MOL0     H43836  11.153   2.601   8.124 -0.8932 -0.4490 -1.8830
  325MOL0     H43837  11.512   2.922   8.275 -1.8813 -1.2074 -2.3023
  325MOL0     H43838  11.702   3.061   8.208 -0.5230 -1.0724 -2.0926
  325MOL0     H43839  11.842   3.251   8.183  1.4919  0.0619  0.0279
  325MOL0     H43840  11.820   3.143   8.051 -2.9416 -0.9204  2.3164
  325MOL0     H43841  11.896   3.444   8.038  0.4866  0.2010 -1.1948
  325MOL0     H43842  12.012   3.312   8.009  1.2416  2.3604 -1.9658
  325MOL0     H43843  11.881   3.249   7.809 -1.2358  0.6035 -1.3259
  325MOL0     H43844  11.792   3.407   7.818  0.7731  3.0552  3.1005
  325MOL0     H43845  12.085   3.387   7.791  1.3298  1.9068 -0.5879
  325MOL0     H43846  11.999   3.529   7.823  3.5413 -0.4526  0.9874
  325MOL0     H43847  11.903   3.530   7.594  0.1030  0.5997 -1.5132
  325MOL0     H43848  11.895   3.350   7.597 -3.6050  1.1157  2.9916
  325MOL0     H43849  12.173   3.463   7.625  2.0424 -1.5865 -1.2718
  325MOL0     H43850  12.136   3.334   7.529  2.2134  0.3386  1.0054
  325MOL0     H43851  12.018   3.476   7.353  1.7352 -1.8624 -1.4386
  325MOL0     H43852  12.195   3.489   7.367 -1.3028 -3.2366 -3.0050
  325MOL0     H43853  12.014   3.690   7.473  1.3888 -0.0056  2.4097
  325MOL0     H43854  12.197   3.694   7.462  0.6384  2.3580 -4.0695
  325MOL0     H43855  11.418   3.334   8.025 -1.8351 -0.2489  1.1219
  325MOL0     H43856  11.234   3.190   8.106  0.7188 -0.9767 -0.2423
  325MOL0     H43857  11.018   2.945   8.350 -0.0488  0.1941 -1.2714
  325MOL0     H43858  10.812   2.827   8.390  1.9548  2.1730 -0.0637
  325MOL0     H43859   9.286   2.090   8.218  0.3565  2.5303 -0.0641
  325MOL0     H43860   9.068   2.076   8.103 -0.1250  2.5305  0.4410
  325MOL0     H43861   8.663   2.445   8.157  2.3629 -1.2588 -0.2139
  325MOL0     H43862   8.449   2.491   8.047 -0.7325  0.0479 -2.0481
  325MOL0     H43863   8.319   2.504   7.863 -0.1520  0.9483 -0.1788
  325MOL0     H43864   8.191   2.446   7.984  0.5941  2.7826  0.6798
  325MOL0     H43865   8.212   2.389   7.672 -2.6480 -1.5407 -1.9856
  325MOL0     H43866   8.110   2.512   7.744 -1.0144  0.1556  1.2546
  325MOL0     H43867   8.099   2.219   7.782  2.7586 -0.7769 -4.0189
  325MOL0     H43868   8.011   2.307   7.652  2.7487  2.2050 -0.8301
  325MOL0     H43869   7.977   2.385   7.950  1.9019 -0.9080 -0.5742
  325MOL0     H43870   7.893   2.443   7.810 -2.3771 -2.3923 -3.7763
  325MOL0     H43871   7.725   2.052   7.899  1.5915 -0.2040  0.6729
  325MOL0     H43872   8.469   2.099   7.872 -3.0835  1.8697 -1.7783
  325MOL0     H43873   8.641   1.971   7.888 -0.0204 -0.5281  0.1827
  325MOL0     H43874   8.793   2.042   7.931  0.3335  1.7938  2.4836
  325MOL0     H43875   8.687   1.955   8.057 -0.4520  1.3952  1.0477
  326MOL0     O43876   0.554  10.542   0.576 -0.1545 -0.0539  0.5025
  326MOL0     C43877   0.515  10.647   0.637 -0.2534  0.3813  0.9010
  326MOL0     O43878   0.394  10.707   0.619  0.5242 -0.6773  0.9345
  326MOL0     C43879   0.291  10.627   0.564  0.2747  0.8519 -0.4965
  326MOL0     C43880   0.230  10.510   0.606 -0.1087  0.9652 -0.4745
  326MOL0     C43881   0.122  10.454   0.540  0.1560  0.1709  0.0716
  326MOL0     C43882   0.074  10.514   0.422  0.1633  0.1052  0.4702
  326MOL0     O43883  -0.036  10.465   0.357  0.4455  0.1765  0.0396
  326MOL0     C43884  -0.060  10.324   0.357 -0.4941 -0.7930  0.4210
  326MOL0     C43885  -0.137  10.290   0.225  0.0136  0.1360  0.0206
  326MOL0     C43886  -0.278  10.360   0.222 -0.7924 -0.1418 -0.0666
  326MOL0     C43887  -0.376  10.311   0.121 -0.1439 -0.1895  0.5107
  326MOL0     C43888  -0.492  10.406   0.111  0.3961  0.3347 -0.9302
  326MOL0     C43889  -0.568  10.392  -0.028  0.5735 -0.3476  0.0939
  326MOL0     C43890  -0.672  10.267  -0.024 -0.7821  0.5406 -0.8796
  326MOL0     C43891  -0.724  10.237  -0.163 -0.1861  0.3227  0.3637
  326MOL0     N43892  -0.795  10.354  -0.214  0.8453  0.7733  0.0060
  326MOL0     C43893  -0.935  10.350  -0.224 -0.3359  0.1424  0.1561
  326MOL0     C43894  -0.973  10.477  -0.257  0.0235  0.0115 -0.6677
  326MOL0     C43895  -1.110  10.543  -0.269 -0.3862  0.2089  0.1122
  326MOL0     C43896  -1.209  10.455  -0.198  0.1378 -0.3153 -0.8422
  326MOL0     C43897  -1.198  10.449  -0.042  0.0410  0.3266 -0.4998
  326MOL0     C43898  -1.228  10.582   0.034 -0.0994 -0.2371 -0.5177
  326MOL0     O43899  -1.131  10.683   0.010 -0.3355  0.1053  0.2270
  326MOL0     C43900  -1.016  10.678   0.086 -0.5616 -0.2377  0.5409
  326MOL0     C43901  -0.977  10.577   0.172  0.1195  0.7120  0.7337
  326MOL0     C43902  -0.857  10.599   0.238 -0.3023  0.0402  0.6480
  326MOL0     C43903  -0.773  10.711   0.219  0.4664 -0.8251 -0.0386
  326MOL0     C43904  -0.655  10.738   0.301  0.0815 -0.2951 -0.2474
  326MOL0     O43905  -0.665  10.688   0.430 -0.8804 -0.0202 -1.1268
  326MOL0     C43906  -0.542  10.654   0.496  0.4938 -0.2596  0.1403
  326MOL0     C43907  -0.418  10.630   0.441 -0.2025  0.1433  0.4211
  326MOL0     C43908  -0.303  10.619   0.515  0.8629  0.8979  0.0588
  326MOL0     C43909  -0.310  10.643   0.652 -0.5264  0.5164  0.5722
  326MOL0     O43910  -0.191  10.621   0.722 -0.3993  0.1663 -0.2194
  326MOL0     C43911  -0.163  10.688   0.849  0.4388 -0.1785 -0.5462
  326MOL0     C43912  -0.110  10.829   0.818 -0.1333  0.3786 -0.7506
  326MOL0     C43913  -0.060  10.888   0.949  0.1747  0.4544  0.7119
  326MOL0     C43914   0.013  11.016   0.931 -0.3982  0.9584 -0.0663
  326MOL0     C43915   0.063  11.090   1.060 -0.3400 -0.0812  0.9301
  326MOL0     C43916   0.138  11.002   1.150 -1.3903  0.0158 -0.1095
  326MOL0     C43917   0.188  11.091   1.266  0.8459  0.1585  0.7676
  326MOL0     C43918   0.342  11.102   1.248 -0.0371  0.6016  0.1430
  326MOL0    Cl43919   0.412  11.204   1.373 -0.2337 -0.3669 -0.0413
  326MOL0     C43920  -0.435  10.653   0.717  0.4284 -0.0479  0.8154
  326MOL0     C43921  -0.546  10.664   0.633  0.5775 -0.0428  0.3068
  326MOL0     O43922  -0.554  10.783   0.249  0.1558  0.6109 -0.2315
  326MOL0     C43923  -0.812  10.801   0.126  0.3864 -0.4605 -0.8847
  326MOL0     C43924  -0.934  10.788   0.058 -0.1613  0.5802  0.8407
  326MOL0     N43925  -0.851  10.554  -0.260  0.5636  0.0805 -0.0292
  326MOL0     N43926  -0.751  10.482  -0.234 -0.7990 -0.5187 -0.2187
  326MOL0     C43927   0.132  10.633   0.376  0.1818 -0.9642 -0.4990
  326MOL0     C43928   0.240  10.690   0.449  0.8484 -0.0963 -1.2294
  326MOL0     C43929   0.597  10.712   0.740  0.1098 -0.3631 -0.3515
  326MOL0     C43930   0.578  10.854   0.762  0.0028  0.1941  0.7714
  326MOL0     C43931   0.654  10.922   0.850  0.3563  0.4303 -0.3095
  326MOL0     C43932   0.742  10.848   0.938 -0.2994 -0.9426  0.4210
  326MOL0     O43933   0.813  10.900   1.049  0.5442  0.7856  1.1018
  326MOL0     C43934   0.789  11.029   1.106 -0.9833  0.0802  0.7396
  326MOL0     C43935   0.880  11.132   1.043 -0.8152  0.5478 -0.2532
  326MOL0     C43936   1.032  11.098   1.055  0.0307 -0.4572  0.4691
  326MOL0     C43937   1.101  11.181   0.938 -0.6979  0.5872 -0.2800
  326MOL0     C43938   1.118  11.324   0.982 -0.7288  1.4339  0.5383
  326MOL0     C43939   1.157  11.434   1.017 -0.0839  0.5590  0.3707
  326MOL0     C43940   0.755  10.704   0.917  0.0630  0.9263 -0.0792
  326MOL0     C43941   0.681  10.630   0.827 -1.2817 -0.6964 -0.6983
  326MOL0     C43942   0.697  10.480   0.830  0.2921  0.1615  0.0289
  326MOL0     H43943   0.264  10.472   0.702 -3.5732 -0.0688  0.4580
  326MOL0     H43944   0.089  10.360   0.584 -0.3288  0.4644  0.3444
  326MOL0     H43945   0.038  10.277   0.362 -0.4992 -0.7681  0.8039
  326MOL0     H43946  -0.119  10.301   0.447 -1.0550  0.5047  0.3984
  326MOL0     H43947  -0.147  10.182   0.209  1.5096 -0.0726  0.3433
  326MOL0     H43948  -0.078  10.333   0.144 -1.3794  2.3506  0.1033
  326MOL0     H43949  -0.254  10.464   0.197  2.0552 -0.5450  0.5864
  326MOL0     H43950  -0.330  10.358   0.319  2.1465 -0.7332  1.6238
  326MOL0     H43951  -0.317  10.306   0.030  2.2434  0.3928  1.9431
  326MOL0     H43952  -0.412  10.212   0.149  0.0774 -1.1498 -2.3106
  326MOL0     H43953  -0.555  10.375   0.195  2.0589 -0.8328 -0.0605
  326MOL0     H43954  -0.474  10.511   0.136 -3.4798  0.5637  1.7507
  326MOL0     H43955  -0.621  10.487  -0.035  2.1974  0.5883  0.2096
  326MOL0     H43956  -0.503  10.381  -0.115  1.0384 -0.1190  0.4130
  326MOL0     H43957  -0.753  10.283   0.047 -0.5080 -0.0085 -0.4326
  326MOL0     H43958  -0.624  10.174   0.010 -3.3737 -0.6371 -0.2010
  326MOL0     H43959  -0.644  10.226  -0.236 -1.4773  0.3068 -1.0938
  326MOL0     H43960  -0.788  10.148  -0.165  0.1236 -0.0006  2.5059
  326MOL0     H43961  -1.008  10.270  -0.218 -3.3922  2.7416  0.2059
  326MOL0     H43962  -1.100  10.643  -0.227 -0.4477  0.2346  0.0644
  326MOL0     H43963  -1.148  10.561  -0.370  1.5449 -0.2316 -0.7540
  326MOL0     H43964  -1.309  10.489  -0.225  0.1501  2.7600  2.3154
  326MOL0     H43965  -1.210  10.359  -0.252 -4.2975  0.0923 -1.8698
  326MOL0     H43966  -1.102  10.417   0.000 -0.2568 -2.8488 -1.9529
  326MOL0     H43967  -1.269  10.370  -0.018 -0.1452  0.4414 -0.6753
  326MOL0     H43968  -1.244  10.560   0.140  2.3080 -0.7275 -0.2097
  326MOL0     H43969  -1.318  10.632  -0.004 -0.0052  0.1993 -0.1832
  326MOL0     H43970  -1.039  10.493   0.201 -1.5926  1.8440  0.4661
  326MOL0     H43971  -0.826  10.522   0.308  1.7493  2.0549  2.1134
  326MOL0     H43972  -0.421  10.593   0.339 -0.0038  0.5917  0.2523
  326MOL0     H43973  -0.205  10.597   0.474  0.4780  0.3654 -0.5964
  326MOL0     H43974  -0.253  10.696   0.910  1.1844  1.3828  0.4094
  326MOL0     H43975  -0.090  10.626   0.903 -3.0860 -2.7857  1.6503
  326MOL0     H43976  -0.027  10.812   0.748 -0.0889 -2.6245 -0.0957
  326MOL0     H43977  -0.183  10.893   0.768 -0.8410 -0.2551 -0.5345
  326MOL0     H43978  -0.160  10.903   0.991 -0.0235 -1.1672  0.8486
  326MOL0     H43979  -0.008  10.819   1.017  1.5889  1.4830  0.7274
  326MOL0     H43980  -0.048  11.089   0.878 -1.4242  0.4276  0.3700
  326MOL0     H43981   0.106  10.989   0.880  0.1661 -0.6541  1.7137
  326MOL0     H43982  -0.019  11.137   1.115  0.7659  5.6898 -1.6664
  326MOL0     H43983   0.123  11.176   1.030 -1.5947  0.5624  0.1729
  326MOL0     H43984   0.080  10.926   1.204 -0.7731  0.1111  0.7231
  326MOL0     H43985   0.219  10.957   1.093 -0.1142  0.1728  1.5007
  326MOL0     H43986   0.164  11.050   1.365 -1.2972  1.6792  0.9328
  326MOL0     H43987   0.147  11.192   1.272 -0.7709 -0.5347  2.5376
  326MOL0     H43988   0.401  11.010   1.259  0.0461  0.7733  1.2880
  326MOL0     H43989   0.351  11.138   1.145 -2.4339  1.1930  0.0694
  326MOL0     H43990  -0.446  10.677   0.822  0.2560  1.1515  0.5431
  326MOL0     H43991  -0.637  10.689   0.687 -0.6636 -1.1913 -1.1760
  326MOL0     H43992  -0.740  10.877   0.098  0.1382 -0.2212 -0.8695
  326MOL0     H43993  -0.971  10.854  -0.019 -3.8908 -0.3305  1.6595
  326MOL0     H43994   0.091  10.690   0.293 -1.7610  2.1272  2.3271
  326MOL0     H43995   0.292  10.780   0.419  0.7687  0.4754  0.2396
  326MOL0     H43996   0.504  10.911   0.706  1.1896  0.7362 -0.3174
  326MOL0     H43997   0.635  11.028   0.858 -3.3482 -0.0733 -0.9204
  326MOL0     H43998   0.814  11.025   1.213  1.5884 -0.8830  0.1594
  326MOL0     H43999   0.682  11.053   1.096 -0.9123 -0.0522 -0.4449
  326MOL0     H44000   0.870  11.238   1.069  0.2020  0.5434  0.2356
  326MOL0     H44001   0.851  11.126   0.938 -0.4578 -0.4677 -0.3084
  326MOL0     H44002   1.054  10.993   1.031  4.2165  0.0573  1.1648
  326MOL0     H44003   1.063  11.109   1.159 -1.7425 -1.1762  1.1102
  326MOL0     H44004   1.205  11.149   0.935  0.1038  2.9995 -0.2169
  326MOL0     H44005   1.054  11.176   0.839  0.2404  2.2582 -0.8366
  326MOL0     H44006   1.182  11.537   1.036  0.6354 -0.1847  4.3687
  326MOL0     H44007   0.833  10.657   0.975  1.4702  2.4072 -0.6950
  326MOL0     H44008   0.795  10.444   0.797 -0.3746 -2.6820  0.8619
  326MOL0     H44009   0.687  10.441   0.932 -0.5600 -0.8253 -0.4165
  326MOL0     H44010   0.623  10.426   0.771  1.8816 -2.8252  0.5763
  327MOL0     O44011   2.629   8.001   1.301 -1.3415  0.3338  0.2471
  327MOL0     C44012   2.546   8.086   1.307  0.2420 -0.3656  0.1360
  327MOL0     O44013   2.433   8.087   1.221 -0.6713 -0.0527  0.5068
  327MOL0     C44014   2.469   8.066   1.086  0.9989 -0.6767 -0.2157
  327MOL0     C44015   2.534   7.947   1.037  0.2639 -0.6252 -1.5014
  327MOL0     C44016   2.568   7.941   0.904 -0.0876  0.5303 -0.3189
  327MOL0     C44017   2.552   8.045   0.810  0.3231 -0.8662  0.3158
  327MOL0     O44018   2.600   8.050   0.680  0.6280  0.2559  0.2415
  327MOL0     C44019   2.698   8.155   0.669  0.1406  0.0646 -0.4921
  327MOL0     C44020   2.786   8.130   0.549 -0.5880 -0.5834  0.1573
  327MOL0     C44021   2.897   8.243   0.535  0.5163  0.2648  0.0302
  327MOL0     C44022   3.008   8.191   0.435  0.8862  0.6513  0.7003
  327MOL0     C44023   3.106   8.294   0.384  0.0716  0.5354 -0.3473
  327MOL0     C44024   3.055   8.427   0.325  0.3503 -0.3876 -0.3343
  327MOL0     C44025   3.165   8.519   0.282  0.1750 -0.1219 -1.0301
  327MOL0     C44026   3.135   8.667   0.251  0.1223  0.1544 -0.0027
  327MOL0     N44027   3.048   8.735   0.348 -0.0499 -0.5214 -0.3709
  327MOL0     C44028   3.083   8.788   0.473 -0.6285  0.4675 -0.1988
  327MOL0     C44029   2.974   8.860   0.512 -0.7534 -1.2086  0.1944
  327MOL0     C44030   2.944   8.962   0.619 -0.8026 -0.0649 -0.1174
  327MOL0     C44031   3.031   9.095   0.606 -0.4471  0.2472 -0.5397
  327MOL0     C44032   2.993   9.180   0.487 -0.6185  0.2146  0.2319
  327MOL0     C44033   3.053   9.325   0.496 -0.5328 -0.2761 -0.4263
  327MOL0     O44034   3.042   9.374   0.372 -0.6766  0.0111  0.0745
  327MOL0     C44035   3.141   9.455   0.321  0.6448  0.0056  0.4305
  327MOL0     C44036   3.111   9.537   0.207  0.4690 -1.4655 -0.2889
  327MOL0     C44037   3.202   9.631   0.157  0.8493 -0.0235 -0.1721
  327MOL0     C44038   3.327   9.646   0.216 -0.1245 -0.1897 -0.1334
  327MOL0     C44039   3.426   9.741   0.165  0.7813  0.2809 -0.2670
  327MOL0     O44040   3.555   9.737   0.221  0.3275  0.3259 -0.9775
  327MOL0     C44041   3.652   9.821   0.172  0.3389  0.6465  0.3235
  327MOL0     C44042   3.784   9.796   0.219  0.5996  0.5038 -0.1676
  327MOL0     C44043   3.897   9.875   0.186 -0.2306  0.5488 -0.0071
  327MOL0     C44044   3.882   9.980   0.100 -0.1549  0.1274 -0.5160
  327MOL0     O44045   3.978  10.072   0.076  0.1917  0.3789 -0.4224
  327MOL0     C44046   4.061  10.098   0.192  0.5232  0.7237  0.2898
  327MOL0     C44047   4.129  10.234   0.173 -1.0080  0.1686  0.2403
  327MOL0     C44048   4.251  10.248   0.253  0.1101 -0.0837 -0.6290
  327MOL0     C44049   4.339  10.356   0.205 -0.0217 -0.1765  0.6447
  327MOL0     C44050   4.306  10.500   0.239  1.5350  0.6621 -0.2881
  327MOL0     C44051   4.307  10.526   0.388 -0.6469 -0.5899 -0.4826
  327MOL0     C44052   4.252  10.664   0.405  0.4676  0.6639 -0.5458
  327MOL0     C44053   4.290  10.747   0.529  0.4339 -0.0574  0.6176
  327MOL0    Cl44054   4.236  10.911   0.508 -0.1635  0.6286 -0.0329
  327MOL0     C44055   3.758  10.010   0.048  0.1544 -0.1498 -0.2468
  327MOL0     C44056   3.639   9.934   0.088  0.6845 -0.9443  0.4339
  327MOL0     O44057   3.394   9.788   0.059 -0.5519  0.0735 -0.5506
  327MOL0     C44058   3.357   9.580   0.336  0.0877  0.6957 -0.4238
  327MOL0     C44059   3.266   9.487   0.379 -0.4395 -0.0086  0.2780
  327MOL0     N44060   2.872   8.829   0.417 -0.2911 -0.0410  0.4601
  327MOL0     N44061   2.917   8.751   0.325 -0.0599 -1.1475  0.0894
  327MOL0     C44062   2.474   8.157   0.862 -0.1321 -0.1622  0.6610
  327MOL0     C44063   2.438   8.172   0.998 -0.3949 -0.4238 -0.1356
  327MOL0     C44064   2.537   8.171   1.434 -0.1698  0.2323  0.0074
  327MOL0     C44065   2.416   8.250   1.438  0.2341 -0.4861 -0.7167
  327MOL0     C44066   2.390   8.315   1.563  0.0608  0.0863 -0.5496
  327MOL0     C44067   2.485   8.311   1.666 -0.6913 -0.0998  0.2249
  327MOL0     O44068   2.471   8.358   1.797  0.8920 -0.1743 -0.3018
  327MOL0     C44069   2.341   8.419   1.831  0.3643  0.0499 -0.2342
  327MOL0     C44070   2.299   8.428   1.976  0.1845  0.4625 -0.7785
  327MOL0     C44071   2.391   8.530   2.044 -0.1459 -0.1921 -0.1428
  327MOL0     C44072   2.533   8.480   2.061  0.2574  0.7439 -0.1598
  327MOL0     C44073   2.609   8.550   2.165  0.6853 -0.5538  0.0099
  327MOL0     C44074   2.663   8.610   2.253 -1.2475  0.0024 -0.5860
  327MOL0     C44075   2.604   8.247   1.648 -0.5498  0.3337 -0.5772
  327MOL0     C44076   2.633   8.167   1.537  1.0881  0.8547  0.3454
  327MOL0     C44077   2.746   8.082   1.547 -0.5241  0.4383  0.0414
  327MOL0     H44078   2.571   7.867   1.101  1.9161  0.6516 -0.7790
  327MOL0     H44079   2.625   7.853   0.875 -1.8273 -0.1448 -1.8611
  327MOL0     H44080   2.662   8.259   0.667  4.1951  1.6550 -2.0750
  327MOL0     H44081   2.763   8.141   0.756  0.8762 -0.7635 -1.1615
  327MOL0     H44082   2.719   8.120   0.462 -0.7398 -0.1475  0.2249
  327MOL0     H44083   2.843   8.037   0.564 -2.0916 -1.7244 -0.8291
  327MOL0     H44084   2.944   8.256   0.634 -0.7418  0.5179  0.6119
  327MOL0     H44085   2.848   8.332   0.496  0.5984 -1.4658 -4.6787
  327MOL0     H44086   3.055   8.112   0.495 -2.6900 -4.7941 -2.7333
  327MOL0     H44087   2.959   8.139   0.352 -1.2342  0.9827  1.6776
  327MOL0     H44088   3.160   8.310   0.478 -0.7836 -0.4384  0.3326
  327MOL0     H44089   3.173   8.244   0.312 -0.0327 -0.4087  0.1929
  327MOL0     H44090   2.983   8.415   0.244 -1.0101  1.4545  0.5401
  327MOL0     H44091   2.992   8.476   0.400 -0.9487 -0.2454 -1.4769
  327MOL0     H44092   3.213   8.473   0.195  0.2369 -1.5571 -0.2652
  327MOL0     H44093   3.244   8.529   0.357 -0.5655  3.0832 -0.5173
  327MOL0     H44094   3.227   8.725   0.242  1.1767 -1.1127  1.8366
  327MOL0     H44095   3.090   8.662   0.151  2.1306  1.4086 -1.0317
  327MOL0     H44096   3.184   8.788   0.512 -0.0633  2.5329 -1.5139
  327MOL0     H44097   2.836   8.978   0.621 -1.2650 -2.5448 -1.0768
  327MOL0     H44098   2.969   8.908   0.712 -2.2547 -3.3676 -1.4702
  327MOL0     H44099   3.036   9.150   0.701  4.2510  1.3761 -1.2197
  327MOL0     H44100   3.137   9.069   0.597  0.6139  3.6931  0.5708
  327MOL0     H44101   2.885   9.193   0.487 -0.5396  0.9479 -0.5173
  327MOL0     H44102   3.031   9.132   0.397  1.8959  0.6710  0.9542
  327MOL0     H44103   3.158   9.309   0.524 -0.1219  1.6773 -0.7263
  327MOL0     H44104   2.992   9.381   0.567 -2.1182 -2.9021  0.4497
  327MOL0     H44105   3.016   9.520   0.157 -0.2090 -3.1558  1.4223
  327MOL0     H44106   3.176   9.678   0.063  2.9938 -0.4651 -1.0559
  327MOL0     H44107   3.792   9.699   0.266 -1.9926 -0.4778 -1.5084
  327MOL0     H44108   3.993   9.849   0.229  0.2086  2.1782  0.0439
  327MOL0     H44109   4.005  10.089   0.286 -1.0855  0.5563 -0.6482
  327MOL0     H44110   4.144  10.030   0.214  1.5319  2.3879  2.0175
  327MOL0     H44111   4.168  10.222   0.071  2.1123 -2.8956  1.5744
  327MOL0     H44112   4.068  10.323   0.191 -2.8722 -0.9890 -0.1556
  327MOL0     H44113   4.224  10.258   0.358  0.6708  1.5831 -0.6142
  327MOL0     H44114   4.316  10.161   0.237  0.5895  0.0976  0.2731
  327MOL0     H44115   4.343  10.352   0.096  0.2985 -3.1105  0.6928
  327MOL0     H44116   4.443  10.348   0.236  0.2006  1.6622  0.5027
  327MOL0     H44117   4.204  10.524   0.207  1.2341 -0.3201 -0.0868
  327MOL0     H44118   4.369  10.575   0.190  3.8568 -2.6929 -2.8952
  327MOL0     H44119   4.245  10.460   0.450 -0.0362 -1.1817 -0.5039
  327MOL0     H44120   4.406  10.513   0.433 -1.1910 -1.5185  0.4967
  327MOL0     H44121   4.144  10.651   0.412  0.3277  2.1315  0.6004
  327MOL0     H44122   4.279  10.726   0.319 -1.9436  0.0398 -1.8202
  327MOL0     H44123   4.242  10.707   0.619  2.2759  3.4194  3.3790
  327MOL0     H44124   4.393  10.751   0.563  0.9066  0.0215 -0.7664
  327MOL0     H44125   3.749  10.098  -0.016  0.6924 -1.0286 -1.5819
  327MOL0     H44126   3.543   9.972   0.053  0.7731 -0.2085  0.9731
  327MOL0     H44127   3.445   9.596   0.396 -0.2955 -0.4240  0.4653
  327MOL0     H44128   3.294   9.430   0.467 -1.0401 -1.8703 -0.6831
  327MOL0     H44129   2.467   8.239   0.792  1.2621 -0.8697 -0.3537
  327MOL0     H44130   2.387   8.265   1.022 -2.7077 -1.3807 -1.1213
  327MOL0     H44131   2.346   8.253   1.355 -0.6280 -1.6443 -0.0541
  327MOL0     H44132   2.309   8.387   1.558 -1.2582 -1.2567  0.6240
  327MOL0     H44133   2.267   8.349   1.790  0.1791 -1.6648  2.7153
  327MOL0     H44134   2.334   8.520   1.791  1.4445  0.1176 -0.2720
  327MOL0     H44135   2.322   8.328   2.013  1.9350 -0.4733 -3.9641
  327MOL0     H44136   2.194   8.457   1.982 -0.2900 -0.6306 -2.7073
  327MOL0     H44137   2.352   8.553   2.144  0.6941  1.9991 -0.2550
  327MOL0     H44138   2.395   8.627   1.993  0.5703 -0.6175 -0.9134
  327MOL0     H44139   2.524   8.380   2.105  3.1286  1.4273  2.3617
  327MOL0     H44140   2.584   8.480   1.964 -0.8449  0.1508 -0.7608
  327MOL0     H44141   2.698   8.669   2.335 -2.7761  0.5785 -0.3165
  327MOL0     H44142   2.672   8.227   1.730 -0.2801 -3.9508 -1.6088
  327MOL0     H44143   2.820   8.114   1.473 -0.8095 -0.0717 -0.4697
  327MOL0     H44144   2.799   8.087   1.642  0.0223 -1.2123 -0.1468
  327MOL0     H44145   2.717   7.978   1.537 -0.3191  0.4603 -0.8096
  328MOL0     O44146   4.862  10.420  10.527 -0.2092  0.5538  0.0034
  328MOL0     C44147   4.823  10.384  10.410 -0.2601  0.0901 -0.0538
  328MOL0     O44148   4.887  10.418  10.288 -0.0600 -0.3821  0.5774
  328MOL0     C44149   4.999  10.498  10.287  0.3712  0.8612  0.1668
  328MOL0     C44150   5.013  10.604  10.194  0.8653 -0.0903 -1.0730
  328MOL0     C44151   5.129  10.679  10.191 -0.2507 -0.5506 -0.1842
  328MOL0     C44152   5.240  10.642  10.268  0.7599  0.6766 -0.6471
  328MOL0     O44153   5.352  10.726  10.259  0.1774  0.0651 -0.3995
  328MOL0     C44154   5.469  10.698  10.337 -0.7222 -0.5009  0.4198
  328MOL0     C44155   5.554  10.586  10.277  0.0356 -0.1480  0.2913
  328MOL0     C44156   5.706  10.628  10.259 -0.1338 -0.4572  0.7602
  328MOL0     C44157   5.798  10.528  10.325 -0.0425  0.7754  0.0305
  328MOL0     C44158   5.945  10.583  10.323 -0.5563 -0.5679 -0.3195
  328MOL0     C44159   6.042  10.469  10.309  0.3595  0.1365 -0.1612
  328MOL0     C44160   6.191  10.514  10.292 -0.0988  0.2603 -0.5996
  328MOL0     C44161   6.252  10.535  10.436 -1.2321 -0.1324  0.8370
  328MOL0     N44162   6.382  10.603  10.430 -0.1982 -0.1482 -0.4813
  328MOL0     C44163   6.491  10.594  10.512 -0.2518  0.1172 -0.8795
  328MOL0     C44164   6.594  10.669  10.460 -0.0952  0.4243  0.1809
  328MOL0     C44165   6.737  10.665  10.512 -0.5149  0.8961  0.0301
  328MOL0     C44166   6.845  10.591  10.424  0.2619 -0.6734  0.1478
  328MOL0     C44167   6.947  10.518  10.518 -0.5841  0.4182  0.2406
  328MOL0     C44168   7.071  10.599  10.540  0.1704 -0.2136 -0.8015
  328MOL0     O44169   7.179  10.516  10.578  0.2030  0.8296  0.8031
  328MOL0     C44170   7.285  10.578  10.631 -0.9096 -0.5460  0.0652
  328MOL0     C44171   7.327  10.708  10.607  1.2651  1.0151  0.8018
  328MOL0     C44172   7.433  10.763  10.674 -0.3107 -0.3950  0.3841
  328MOL0     C44173   7.509  10.686  10.770 -0.0330  0.2080  0.2620
  328MOL0     C44174   7.621  10.755  10.836  0.4006  0.2412  1.2933
  328MOL0     O44175   7.667  10.881  10.797  0.3611 -0.1156 -0.3694
  328MOL0     C44176   7.765  10.962  10.855 -0.2992  0.0576 -0.0497
  328MOL0     C44177   7.801  11.085  10.803 -0.2048  0.7909 -0.4029
  328MOL0     C44178   7.909  11.164  10.842  0.1795 -0.3675  0.4537
  328MOL0     C44179   7.978  11.126  10.954 -0.2771 -1.0326 -0.1906
  328MOL0     O44180   8.070  11.218  10.996 -0.2298  0.1822  0.3174
  328MOL0     C44181   8.137  11.188  11.118  0.1511 -0.2591  0.5977
  328MOL0     C44182   8.238  11.294  11.158 -0.9072 -0.4594 -0.3786
  328MOL0     C44183   8.357  11.301  11.066 -0.2817  0.2311 -0.7952
  328MOL0     C44184   8.461  11.397  11.118 -0.0975 -0.1426  0.1054
  328MOL0     C44185   8.583  11.406  11.019 -0.4708  0.0337 -0.4340
  328MOL0     C44186   8.655  11.539  11.042 -0.4237 -0.4757 -0.0439
  328MOL0     C44187   8.732  11.558  11.176 -0.2356  0.1003  0.0914
  328MOL0     C44188   8.881  11.533  11.169 -0.3329  0.6398 -0.2356
  328MOL0    Cl44189   8.941  11.554  11.337 -0.0634 -0.4976 -0.1857
  328MOL0     C44190   7.948  11.005  11.017 -0.9865 -0.6724  0.0187
  328MOL0     C44191   7.847  10.923  10.965 -0.1122 -0.2929 -0.8667
  328MOL0     O44192   7.662  10.687  10.934  1.1418 -0.0274  0.0012
  328MOL0     C44193   7.473  10.556  10.789 -0.7255  0.1279 -0.3466
  328MOL0     C44194   7.365  10.497  10.720 -0.4586  0.3845  0.1917
  328MOL0     N44195   6.544  10.710  10.340 -0.6576  1.5151  0.0029
  328MOL0     N44196   6.422  10.678  10.331  0.4562 -1.0858  0.1591
  328MOL0     C44197   5.227  10.522  10.345 -0.3169 -0.1640  0.0088
  328MOL0     C44198   5.110  10.451  10.351  0.1004 -0.5597  0.9674
  328MOL0     C44199   4.710  10.290  10.406  0.6757 -0.5467 -0.2649
  328MOL0     C44200   4.676  10.221  10.520 -0.5932  0.3885  0.7501
  328MOL0     C44201   4.573  10.136  10.525 -0.2354 -0.4395  0.4536
  328MOL0     C44202   4.496  10.109  10.420 -0.9228 -0.0740 -0.3878
  328MOL0     O44203   4.415  10.008  10.440 -0.1257  0.4034  0.5984
  328MOL0     C44204   4.416   9.910  10.332 -0.8181 -0.5451 -0.4218
  328MOL0     C44205   4.548   9.834  10.319 -0.1124  0.4678  1.4935
  328MOL0     C44206   4.562   9.735  10.430  0.3394 -0.1501 -1.0605
  328MOL0     C44207   4.482   9.602  10.407 -0.0812 -0.0561  0.1358
  328MOL0     C44208   4.522   9.513  10.296  0.4517  0.2352 -0.8604
  328MOL0     C44209   4.563   9.445  10.206  0.6053  0.1099 -0.5914
  328MOL0     C44210   4.510  10.190  10.313  0.1224  0.0679  0.1851
  328MOL0     C44211   4.618  10.271  10.295  0.4046  0.2358  0.4029
  328MOL0     C44212   4.616  10.339  10.158  0.2761  0.2855  0.6120
  328MOL0     H44213   4.931  10.627  10.126 -1.0773 -2.4428  0.3033
  328MOL0     H44214   5.142  10.763  10.123  2.5907 -1.6805 -1.1754
  328MOL0     H44215   5.520  10.795  10.344  2.8687 -2.1288 -0.5541
  328MOL0     H44216   5.448  10.676  10.442  0.9160 -1.4368  0.5839
  328MOL0     H44217   5.503  10.562  10.184 -0.7121 -1.3408  0.9741
  328MOL0     H44218   5.540  10.501  10.344 -2.1128 -1.0005 -1.1434
  328MOL0     H44219   5.736  10.723  10.304  2.9707 -0.4429 -1.0680
  328MOL0     H44220   5.726  10.634  10.152  2.4909 -2.0636  1.0821
  328MOL0     H44221   5.776  10.532  10.433  1.6211  3.8812  0.3668
  328MOL0     H44222   5.795  10.424  10.291 -0.3564  0.0781  2.0050
  328MOL0     H44223   5.950  10.648  10.234  0.7789 -1.2934 -0.8031
  328MOL0     H44224   5.964  10.640  10.415 -2.9658 -0.9560  0.4874
  328MOL0     H44225   6.029  10.391  10.384  0.2973 -0.3328 -0.6551
  328MOL0     H44226   6.014  10.432  10.210  1.4917 -0.9374 -0.1092
  328MOL0     H44227   6.199  10.611  10.244  1.3650  1.5790  2.0578
  328MOL0     H44228   6.249  10.437  10.240  1.7585  1.1412  0.0770
  328MOL0     H44229   6.188  10.603  10.494 -1.1104  0.6594  0.0740
  328MOL0     H44230   6.263  10.449  10.502  1.2172 -0.0607  0.6042
  328MOL0     H44231   6.498  10.537  10.604  1.5560  3.6567  1.4114
  328MOL0     H44232   6.771  10.768  10.525 -0.4144  1.0108 -1.0553
  328MOL0     H44233   6.736  10.617  10.610 -1.1684 -2.0022 -1.3026
  328MOL0     H44234   6.794  10.518  10.360 -1.3477  1.7643 -1.5391
  328MOL0     H44235   6.882  10.667  10.354  0.2532 -0.1252  0.7264
  328MOL0     H44236   6.984  10.440  10.451 -0.3041  0.3972  0.4227
  328MOL0     H44237   6.909  10.483  10.615 -0.3576 -1.5764 -0.3460
  328MOL0     H44238   7.054  10.678  10.613 -0.8550  0.3387 -1.6089
  328MOL0     H44239   7.100  10.637  10.441  1.6421 -1.1626 -0.7676
  328MOL0     H44240   7.273  10.769  10.535  1.7312  0.0885 -0.3764
  328MOL0     H44241   7.473  10.861  10.655 -2.1969  1.0788  3.2638
  328MOL0     H44242   7.746  11.120  10.716 -3.4554 -2.3701  0.1205
  328MOL0     H44243   7.930  11.252  10.782 -1.3936  0.6205  1.2688
  328MOL0     H44244   8.059  11.178  11.194 -2.7655  0.2622 -2.1235
  328MOL0     H44245   8.176  11.086  11.112 -1.2819 -0.7687 -1.1932
  328MOL0     H44246   8.186  11.388  11.177  1.6292  0.9537 -0.1265
  328MOL0     H44247   8.276  11.267  11.257 -1.2642  1.6818  0.3797
  328MOL0     H44248   8.411  11.206  11.073 -0.0299  0.3924 -0.5025
  328MOL0     H44249   8.324  11.315  10.963 -2.3349  4.0091  0.1919
  328MOL0     H44250   8.500  11.384  11.219  0.3866  4.4204  0.7341
  328MOL0     H44251   8.413  11.496  11.116  0.6242  0.2921  2.2496
  328MOL0     H44252   8.567  11.389  10.913  0.6188 -3.5631 -0.1444
  328MOL0     H44253   8.650  11.322  11.040 -1.5280 -0.6293  0.4308
  328MOL0     H44254   8.723  11.558  10.959  0.4664 -0.0244  0.7706
  328MOL0     H44255   8.581  11.620  11.049  2.1303  2.1517 -1.1158
  328MOL0     H44256   8.677  11.500  11.250  2.3436 -0.8300  1.4001
  328MOL0     H44257   8.734  11.665  11.202  0.1428 -0.6345  3.4913
  328MOL0     H44258   8.913  11.435  11.132 -1.4283 -0.9364  2.6922
  328MOL0     H44259   8.927  11.602  11.098  1.9613 -0.5577 -0.0074
  328MOL0     H44260   7.995  10.983  11.112  1.2706  0.5555 -0.7565
  328MOL0     H44261   7.834  10.827  11.015  0.0944  1.1253  2.1193
  328MOL0     H44262   7.521  10.493  10.863 -2.3474 -1.6763 -0.7318
  328MOL0     H44263   7.339  10.393  10.738  0.5267  0.4181  2.0218
  328MOL0     H44264   5.313  10.489  10.402  1.0013  1.6675 -0.8249
  328MOL0     H44265   5.103  10.354  10.399 -0.3838 -1.9286 -1.6320
  328MOL0     H44266   4.734  10.216  10.612 -0.3922 -0.0965  0.6029
  328MOL0     H44267   4.544  10.086  10.617  0.4762  1.9258  2.0451
  328MOL0     H44268   4.392   9.960  10.238 -1.3490  0.1644  0.0751
  328MOL0     H44269   4.338   9.834  10.349  1.9354 -3.0746  2.0010
  328MOL0     H44270   4.633   9.902  10.313 -1.7388  2.4850 -0.0526
  328MOL0     H44271   4.561   9.779  10.225  0.4699  1.8002  0.7781
  328MOL0     H44272   4.536   9.768  10.531 -4.2944 -0.9301 -1.7794
  328MOL0     H44273   4.665   9.700  10.443  0.1807 -1.4516 -2.9067
  328MOL0     H44274   4.481   9.540  10.496 -1.7419  0.5916  0.6121
  328MOL0     H44275   4.377   9.623  10.384  0.5790  2.7318 -0.8186
  328MOL0     H44276   4.620   9.384  10.139  5.3136  3.1161  0.1729
  328MOL0     H44277   4.444  10.175  10.228  0.0887  2.5009 -0.2727
  328MOL0     H44278   4.678  10.429  10.150  1.0079 -0.1334  1.4256
  328MOL0     H44279   4.670  10.277  10.085  1.4980 -1.0795  2.5585
  328MOL0     H44280   4.516  10.364  10.122  1.0988  2.8477 -0.0635
  329MOL0     O44281   6.820   8.983  10.540  0.2433 -0.2203 -0.2024
  329MOL0     C44282   6.797   8.964  10.424 -0.6919 -1.0368  0.2075
  329MOL0     O44283   6.895   8.929  10.333 -0.4522 -0.4184 -0.1893
  329MOL0     C44284   7.029   8.923  10.359  0.2829 -0.6175  0.0678
  329MOL0     C44285   7.109   8.836  10.281  0.5952  0.7349  0.0662
  329MOL0     C44286   7.247   8.830  10.291  0.3571 -0.6733 -0.1654
  329MOL0     C44287   7.315   8.909  10.380  0.5373 -0.3801 -0.2086
  329MOL0     O44288   7.447   8.892  10.391 -0.3530  0.4352  0.2685
  329MOL0     C44289   7.504   8.912  10.530  0.3985  0.3854  0.0022
  329MOL0     C44290   7.654   8.884  10.523  0.3407  0.1413 -0.5073
  329MOL0     C44291   7.724   8.869  10.659  0.6124  0.4683  0.0159
  329MOL0     C44292   7.845   8.784  10.643 -0.2324  0.8045  0.5603
  329MOL0     C44293   7.963   8.855  10.581 -0.2064  0.4133 -0.5523
  329MOL0     C44294   8.074   8.763  10.541  0.1070  0.2968  0.1966
  329MOL0     C44295   8.228   8.805  10.560  0.7844  0.0904  0.6345
  329MOL0     C44296   8.265   8.918  10.465  0.6543  0.6142  0.6388
  329MOL0     N44297   8.406   8.924  10.444 -0.6857 -0.1973 -0.8850
  329MOL0     C44298   8.503   8.948  10.539  1.0457 -0.3170  0.1262
  329MOL0     C44299   8.620   8.914  10.477  0.6189 -0.5309  0.5040
  329MOL0     C44300   8.752   8.894  10.540  0.0331  0.5671  0.3006
  329MOL0     C44301   8.820   9.017  10.595  0.3957 -0.4496  0.8038
  329MOL0     C44302   8.854   9.113  10.470 -0.6927 -0.4880  0.4915
  329MOL0     C44303   8.930   9.244  10.517 -0.3807 -0.2070 -0.2119
  329MOL0     O44304   9.037   9.203  10.598 -0.9236  0.3067  0.2482
  329MOL0     C44305   9.131   9.302  10.610 -0.1203 -0.4676 -1.2449
  329MOL0     C44306   9.252   9.274  10.551 -0.7876 -0.0670  0.0921
  329MOL0     C44307   9.358   9.368  10.544 -0.1367 -0.3786 -0.5741
  329MOL0     C44308   9.336   9.491  10.616  0.0680 -0.2350  0.3156
  329MOL0     C44309   9.444   9.594  10.619 -0.8320 -0.2824 -0.5236
  329MOL0     O44310   9.569   9.549  10.574 -0.2077  0.6125  0.6571
  329MOL0     C44311   9.668   9.636  10.587 -0.0825 -0.2605  0.2675
  329MOL0     C44312   9.709   9.682  10.711 -0.8821  0.3531 -1.3323
  329MOL0     C44313   9.814   9.771  10.740 -0.4003  1.9087 -0.1572
  329MOL0     C44314   9.889   9.814  10.633 -0.2062  0.0512  0.2504
  329MOL0     O44315   9.975   9.913  10.665  0.6380 -0.2014 -0.3790
  329MOL0     C44316  10.059   9.971  10.567  0.8279 -0.1497 -0.0498
  329MOL0     C44317  10.103  10.106  10.640  0.6158  0.3257  0.6566
  329MOL0     C44318  10.213  10.073  10.736 -1.0945 -0.0408  0.1275
  329MOL0     C44319  10.286  10.205  10.764  0.7891  0.6476 -0.1717
  329MOL0     C44320  10.362  10.208  10.903 -0.1347  0.2759 -0.1696
  329MOL0     C44321  10.456  10.083  10.926  0.0137 -0.0386  0.5716
  329MOL0     C44322  10.565  10.071  10.819  0.3109 -0.1716 -0.0464
  329MOL0     C44323  10.662   9.962  10.862  0.4564  0.0734  0.3314
  329MOL0    Cl44324  10.775  10.014  10.992  0.0010 -0.1314 -0.2220
  329MOL0     C44325   9.869   9.753  10.505  0.3029 -0.2554 -0.3737
  329MOL0     C44326   9.759   9.678  10.485  0.3979  0.1704  0.4572
  329MOL0     O44327   9.415   9.713  10.637 -0.9775 -0.5124  0.6811
  329MOL0     C44328   9.212   9.518  10.678 -0.0116  0.1859  0.1239
  329MOL0     C44329   9.106   9.424  10.675  0.7696 -0.1875 -0.6538
  329MOL0     N44330   8.593   8.888  10.343  0.3768 -0.3146 -0.1132
  329MOL0     N44331   8.468   8.898  10.328  0.1818  0.8328 -0.3309
  329MOL0     C44332   7.237   9.007  10.442 -0.7411 -0.3150 -0.6347
  329MOL0     C44333   7.093   9.023  10.442  0.2679  0.0183 -0.7783
  329MOL0     C44334   6.663   8.977  10.373 -0.6478  0.1229 -0.2135
  329MOL0     C44335   6.575   9.076  10.432 -0.3178 -0.3320 -0.0755
  329MOL0     C44336   6.452   9.101  10.371  0.3794  1.0004 -0.0432
  329MOL0     C44337   6.424   9.027  10.248 -0.4161 -0.6552 -0.0297
  329MOL0     O44338   6.310   9.049  10.176  0.6206  0.2445 -0.1270
  329MOL0     C44339   6.208   9.139  10.217  0.0321 -0.6404  0.3019
  329MOL0     C44340   6.224   9.278  10.157 -0.0523 -0.8061  0.4238
  329MOL0     C44341   6.133   9.391  10.208  0.3844  0.9827  0.1601
  329MOL0     C44342   5.986   9.324  10.219  0.4150  0.5260  0.4746
  329MOL0     C44343   5.876   9.412  10.234 -0.0675 -0.1128  0.0533
  329MOL0     C44344   5.776   9.473  10.241  0.3638  0.3367  0.3331
  329MOL0     C44345   6.502   8.917  10.213 -0.7553  0.4132  0.7314
  329MOL0     C44346   6.624   8.894  10.271  1.1129 -0.1494 -0.2210
  329MOL0     C44347   6.681   8.754  10.245 -0.2940  0.5583  0.7953
  329MOL0     H44348   7.051   8.776  10.212  2.1037  1.2314 -1.7258
  329MOL0     H44349   7.297   8.755  10.231  1.1220 -2.4699  2.5282
  329MOL0     H44350   7.488   9.019  10.551 -0.5883  0.1718  0.3977
  329MOL0     H44351   7.456   8.852  10.607  1.2773  1.0598  1.1074
  329MOL0     H44352   7.712   8.956  10.465  1.2189  0.4479  0.7130
  329MOL0     H44353   7.663   8.780  10.488  2.2366 -0.6969  2.1585
  329MOL0     H44354   7.660   8.812  10.727  1.3103 -1.5052 -0.9071
  329MOL0     H44355   7.759   8.962  10.704  1.3739 -0.5760  1.6991
  329MOL0     H44356   7.874   8.736  10.737 -0.5698  3.0975  1.9095
  329MOL0     H44357   7.828   8.697  10.579 -0.5965 -0.8525  2.7895
  329MOL0     H44358   7.938   8.903  10.486  0.0598  0.1756 -0.7429
  329MOL0     H44359   8.010   8.927  10.649  2.6331  0.6852 -2.6488
  329MOL0     H44360   8.055   8.675  10.603 -1.7957  0.2411 -0.3932
  329MOL0     H44361   8.049   8.711  10.448 -5.2512 -1.5861  2.2896
  329MOL0     H44362   8.289   8.720  10.528  5.3474  3.6406 -1.4223
  329MOL0     H44363   8.246   8.838  10.663 -2.8833 -1.8570  2.0624
  329MOL0     H44364   8.212   8.898  10.372  0.6211  2.8580  0.1162
  329MOL0     H44365   8.227   9.016  10.496  0.1819  1.1506 -1.5071
  329MOL0     H44366   8.490   8.976  10.643 -3.4478  0.6831 -0.5009
  329MOL0     H44367   8.738   8.836  10.632 -2.0880 -0.1372 -0.4019
  329MOL0     H44368   8.820   8.852  10.465  3.7403  2.2097  2.4642
  329MOL0     H44369   8.767   9.074  10.672 -1.8602 -1.0921 -0.1784
  329MOL0     H44370   8.912   8.980  10.641  0.5117  0.1507  1.0647
  329MOL0     H44371   8.763   9.136  10.414  0.3161 -0.0532 -1.0123
  329MOL0     H44372   8.918   9.071  10.392  0.2952  0.3068  0.8549
  329MOL0     H44373   8.861   9.311  10.569 -0.4838  2.4747 -3.4806
  329MOL0     H44374   8.952   9.303  10.428  2.7853 -2.6773 -1.2310
  329MOL0     H44375   9.272   9.180  10.501  0.0551  0.5472 -0.7689
  329MOL0     H44376   9.438   9.357  10.471 -1.4246 -1.2425 -1.9177
  329MOL0     H44377   9.657   9.666  10.804  2.6385  4.1375  1.6761
  329MOL0     H44378   9.812   9.810  10.841 -4.9814  0.9762  0.3317
  329MOL0     H44379  10.143   9.906  10.542  1.0007  0.7969 -2.0751
  329MOL0     H44380  10.006  10.006  10.478 -0.2288  1.3091  1.0990
  329MOL0     H44381  10.140  10.167  10.556  0.1029  2.4415  1.9031
  329MOL0     H44382  10.016  10.166  10.670  1.3007  1.3539  0.6496
  329MOL0     H44383  10.164  10.042  10.828 -0.4894 -0.5516  0.2831
  329MOL0     H44384  10.286  10.000  10.702  0.9544  2.5220 -1.4293
  329MOL0     H44385  10.212  10.286  10.773  2.3915  1.9745  3.1768
  329MOL0     H44386  10.356  10.225  10.683  0.1731 -3.3051 -1.8667
  329MOL0     H44387  10.284  10.209  10.980 -0.7470 -0.4693 -0.7625
  329MOL0     H44388  10.417  10.302  10.912 -0.8482  0.5084  2.7189
  329MOL0     H44389  10.506  10.094  11.023 -0.4356 -0.6465  0.8817
  329MOL0     H44390  10.388   9.998  10.927 -2.1115  1.5681  2.4886
  329MOL0     H44391  10.628  10.160  10.816  0.3231 -0.1983 -2.4306
  329MOL0     H44392  10.528  10.060  10.717 -2.3829  4.2117  0.2020
  329MOL0     H44393  10.604   9.881  10.909  0.1950  0.0383 -0.0521
  329MOL0     H44394  10.723   9.930  10.777  1.7564  2.9817  0.0376
  329MOL0     H44395   9.938   9.766  10.422  4.4503  2.8782  3.0933
  329MOL0     H44396   9.742   9.646  10.382  0.7870 -1.1729  0.7954
  329MOL0     H44397   9.202   9.612  10.731 -0.1736  0.6116 -0.6548
  329MOL0     H44398   9.012   9.447  10.725  0.7285 -1.5795 -0.0532
  329MOL0     H44399   7.291   9.076  10.508  0.0881 -1.3344 -0.2225
  329MOL0     H44400   7.056   9.105  10.502  2.4148  1.2835 -1.0817
  329MOL0     H44401   6.602   9.125  10.524  2.5817  1.2553 -1.6434
  329MOL0     H44402   6.394   9.178  10.421  1.4195 -0.1103  3.1184
  329MOL0     H44403   6.202   9.141  10.326  1.2595 -0.8757  0.3966
  329MOL0     H44404   6.116   9.098  10.174  0.9017 -1.5204 -0.7982
  329MOL0     H44405   6.210   9.253  10.052  1.3122 -1.1831  0.3139
  329MOL0     H44406   6.323   9.324  10.163 -0.9420  1.1327  0.8434
  329MOL0     H44407   6.133   9.470  10.132  0.1782 -0.7308 -1.7106
  329MOL0     H44408   6.179   9.428  10.300 -0.8807 -0.4790  1.4301
  329MOL0     H44409   5.964   9.265  10.130  0.2396  0.5249  0.5180
  329MOL0     H44410   5.983   9.251  10.301 -0.7274  1.9176  1.7273
  329MOL0     H44411   5.681   9.519  10.258  0.4564  0.4202  0.6210
  329MOL0     H44412   6.464   8.858  10.131 -1.3139  0.9468  0.6091
  329MOL0     H44413   6.702   8.697  10.336 -0.0990 -0.0167  0.3954
  329MOL0     H44414   6.617   8.681  10.196 -0.0968  0.5613  0.5290
  329MOL0     H44415   6.780   8.764  10.197 -0.6772  0.1561 -0.1059
  330MOL0     O44416   9.883   0.046   3.272  0.3931  0.4418 -0.1139
  330MOL0     C44417   9.786   0.021   3.206  0.0378 -0.2373 -0.1911
  330MOL0     O44418   9.750  -0.102   3.156  0.3140 -0.5470 -0.4201
  330MOL0     C44419   9.836  -0.201   3.175  0.5359  0.6867 -0.3525
  330MOL0     C44420   9.914  -0.250   3.070 -0.1780 -0.6841 -0.2805
  330MOL0     C44421  10.003  -0.347   3.096 -0.0607 -0.1906  0.4203
  330MOL0     C44422  10.018  -0.406   3.224  0.2965  0.6533 -0.2438
  330MOL0     O44423  10.112  -0.506   3.228  0.2467 -0.8040 -0.3706
  330MOL0     C44424  10.192  -0.517   3.351 -0.1519 -0.0065  0.7648
  330MOL0     C44425  10.275  -0.649   3.336 -0.4460  0.1564 -0.6297
  330MOL0     C44426  10.374  -0.644   3.221  0.6544  0.9041  0.1745
  330MOL0     C44427  10.311  -0.697   3.079 -0.9974  0.5488 -1.3307
  330MOL0     C44428  10.424  -0.703   2.973 -0.0035  0.2168  0.1536
  330MOL0     C44429  10.492  -0.573   2.941  0.1603 -0.0820  0.9450
  330MOL0     C44430  10.592  -0.585   2.820 -0.0628 -0.8768 -0.4913
  330MOL0     C44431  10.715  -0.669   2.840  0.5579 -0.2379  0.5347
  330MOL0     N44432  10.816  -0.595   2.926  0.7319  0.0314 -1.0727
  330MOL0     C44433  10.949  -0.602   2.895 -0.5474 -0.3798 -0.4332
  330MOL0     C44434  11.011  -0.558   3.008  0.2030  0.1078  0.7637
  330MOL0     C44435  11.151  -0.505   3.037  0.3445  1.0330  0.1251
  330MOL0     C44436  11.248  -0.495   2.921  0.4276  0.4111  0.6742
  330MOL0     C44437  11.394  -0.479   2.970 -1.6188  1.0510  0.0517
  330MOL0     C44438  11.475  -0.469   2.838 -0.0609 -0.4001 -0.0352
  330MOL0     O44439  11.605  -0.431   2.872  0.1835 -0.1565  0.0255
  330MOL0     C44440  11.693  -0.536   2.911  0.2856 -0.5519  0.2989
  330MOL0     C44441  11.658  -0.669   2.913 -0.2808 -0.4420 -0.9366
  330MOL0     C44442  11.744  -0.770   2.958  0.3192  0.0221  0.8720
  330MOL0     C44443  11.869  -0.737   3.009  0.2949 -0.4071 -0.1163
  330MOL0     C44444  11.945  -0.853   3.057  0.2132 -0.9518 -0.4058
  330MOL0     O44445  11.897  -0.984   3.043 -0.3330  0.1439  0.0590
  330MOL0     C44446  11.997  -1.077   3.070  0.0993 -0.2086 -0.8229
  330MOL0     C44447  12.048  -1.156   2.967  0.0012 -0.1748  0.4367
  330MOL0     C44448  12.155  -1.240   2.997  0.0946 -0.9595  0.5593
  330MOL0     C44449  12.213  -1.252   3.124 -0.0935 -0.0092  0.5981
  330MOL0     O44450  12.332  -1.315   3.138  0.0255  0.3852  0.2209
  330MOL0     C44451  12.423  -1.245   3.230  0.1128  0.3179 -0.2258
  330MOL0     C44452  12.566  -1.299   3.193  0.4079 -0.2014 -0.0667
  330MOL0     C44453  12.584  -1.309   3.040 -0.1792  0.6348 -0.1470
  330MOL0     C44454  12.716  -1.375   2.998  0.0063 -0.4448 -0.3592
  330MOL0     C44455  12.839  -1.286   2.957  0.2910 -0.5028  0.0582
  330MOL0     C44456  12.945  -1.289   3.062  0.5062 -0.5426 -0.9597
  330MOL0     C44457  13.084  -1.224   3.019  0.7951 -0.5279 -0.4849
  330MOL0     C44458  13.185  -1.229   3.130 -1.1428  0.3808  0.5292
  330MOL0    Cl44459  13.350  -1.201   3.058 -0.1459  0.4018  0.1750
  330MOL0     C44460  12.154  -1.175   3.227 -0.5369  0.9306 -0.5229
  330MOL0     C44461  12.046  -1.093   3.202 -0.3791  0.2477  0.3860
  330MOL0     O44462  12.053  -0.817   3.104 -0.7647  0.1053  0.2168
  330MOL0     C44463  11.918  -0.608   2.994  0.5376 -0.3612  0.1911
  330MOL0     C44464  11.827  -0.506   2.945  0.0428  0.1123 -0.1472
  330MOL0     N44465  10.911  -0.523   3.095  0.5105 -0.4115 -0.4227
  330MOL0     N44466  10.798  -0.550   3.053  0.5861 -0.5404 -0.7827
  330MOL0     C44467   9.946  -0.352   3.330 -0.7683  0.2916  0.6894
  330MOL0     C44468   9.843  -0.260   3.300 -0.2379  0.6398 -0.4614
  330MOL0     C44469   9.697   0.138   3.175 -0.4720 -0.2954 -0.4452
  330MOL0     C44470   9.595   0.112   3.084  0.9974 -0.4011  0.1720
  330MOL0     C44471   9.508   0.210   3.036 -0.3172 -1.1074  0.2924
  330MOL0     C44472   9.516   0.345   3.075 -0.6402 -0.1316 -0.2540
  330MOL0     O44473   9.433   0.446   3.033  0.2601  0.1948  0.9083
  330MOL0     C44474   9.312   0.406   2.953 -0.1725 -0.8352  0.3724
  330MOL0     C44475   9.189   0.355   3.028 -0.4399  0.1736  0.0613
  330MOL0     C44476   9.131   0.444   3.139 -0.0470  0.8146 -0.0491
  330MOL0     C44477   9.222   0.446   3.266 -0.1164  0.3956 -1.0512
  330MOL0     C44478   9.153   0.501   3.387  0.0005 -0.3607  0.7197
  330MOL0     C44479   9.085   0.542   3.476 -0.3290  0.1469 -0.1289
  330MOL0     C44480   9.616   0.375   3.167 -0.6021 -0.1695  0.3259
  330MOL0     C44481   9.709   0.276   3.207 -0.0241  0.4256  0.0378
  330MOL0     C44482   9.816   0.329   3.302 -0.9612  0.5787 -0.5798
  330MOL0     H44483   9.915  -0.196   2.976  0.6015  0.2458  0.2497
  330MOL0     H44484  10.070  -0.394   3.025  1.0686 -1.4027  2.1927
  330MOL0     H44485  10.257  -0.431   3.369  2.2343 -1.4872 -0.3131
  330MOL0     H44486  10.136  -0.527   3.445 -1.4398  1.0421  0.1486
  330MOL0     H44487  10.206  -0.730   3.311 -2.1025  1.2277  0.2788
  330MOL0     H44488  10.329  -0.656   3.430 -3.0513  0.6619  1.0022
  330MOL0     H44489  10.463  -0.701   3.250  2.4825  3.1981 -0.5887
  330MOL0     H44490  10.412  -0.545   3.196  0.9932 -0.0744 -4.0430
  330MOL0     H44491  10.250  -0.784   3.106  2.2423 -1.2860  0.7875
  330MOL0     H44492  10.252  -0.614   3.040  1.8470  2.5546 -1.6319
  330MOL0     H44493  10.501  -0.767   3.019  1.6438  3.0108  1.5716
  330MOL0     H44494  10.375  -0.741   2.884 -2.0406 -0.5475  1.5290
  330MOL0     H44495  10.417  -0.501   2.907  1.3144  0.5804 -0.3170
  330MOL0     H44496  10.550  -0.535   3.026  3.1959 -1.4684 -0.3349
  330MOL0     H44497  10.631  -0.486   2.791  1.1875 -1.4312 -0.7535
  330MOL0     H44498  10.540  -0.619   2.730 -1.3813  2.4479 -1.1576
  330MOL0     H44499  10.692  -0.768   2.880 -0.9800  0.8168  2.4635
  330MOL0     H44500  10.760  -0.694   2.744  2.1550 -0.1499  1.2116
  330MOL0     H44501  10.997  -0.624   2.800 -0.5719  0.0892 -0.5618
  330MOL0     H44502  11.143  -0.406   3.084 -0.6413  0.8147  0.4454
  330MOL0     H44503  11.197  -0.576   3.106  0.5584 -0.2967 -1.3302
  330MOL0     H44504  11.229  -0.580   2.854  0.2795  1.1699 -0.2781
  330MOL0     H44505  11.219  -0.413   2.854  0.4226  0.8477  1.2118
  330MOL0     H44506  11.423  -0.569   3.026 -1.6942  1.3511  0.5786
  330MOL0     H44507  11.419  -0.396   3.036  0.4314 -0.9513  1.9363
  330MOL0     H44508  11.422  -0.390   2.784  0.7561 -0.3873 -0.8330
  330MOL0     H44509  11.463  -0.559   2.777  0.1320 -0.0368 -0.6173
  330MOL0     H44510  11.563  -0.713   2.887 -0.5741 -1.6994  1.8970
  330MOL0     H44511  11.704  -0.870   2.956  2.5482 -0.9126  0.6902
  330MOL0     H44512  12.012  -1.125   2.869  0.2441 -1.8252 -0.2116
  330MOL0     H44513  12.195  -1.290   2.909  1.1263  3.6508 -1.9185
  330MOL0     H44514  12.433  -1.136   3.234  3.8374  0.0719  1.2023
  330MOL0     H44515  12.406  -1.271   3.335  3.2950  0.7788  0.5046
  330MOL0     H44516  12.643  -1.232   3.233  2.0991 -1.9840 -0.2368
  330MOL0     H44517  12.578  -1.396   3.240 -1.1938  0.0991  1.0514
  330MOL0     H44518  12.507  -1.372   2.995 -2.0985  3.5741 -1.2797
  330MOL0     H44519  12.567  -1.210   2.997  0.2022  0.9630  0.4396
  330MOL0     H44520  12.691  -1.438   2.912  1.5035 -2.0376  0.3144
  330MOL0     H44521  12.750  -1.453   3.066  1.0075  1.0092  0.8922
  330MOL0     H44522  12.813  -1.179   2.957  4.8090  0.9141  2.9389
  330MOL0     H44523  12.880  -1.315   2.860 -1.8999 -4.1670  0.0440
  330MOL0     H44524  12.896  -1.232   3.141 -2.3979 -2.2320 -1.3739
  330MOL0     H44525  12.967  -1.392   3.093  1.2139  0.3882  1.9933
  330MOL0     H44526  13.083  -1.124   2.976 -2.3344 -0.2151  0.1236
  330MOL0     H44527  13.118  -1.298   2.946  1.0954 -2.5820  1.6079
  330MOL0     H44528  13.157  -1.149   3.198 -0.4628  0.2256  1.0053
  330MOL0     H44529  13.179  -1.327   3.179  1.0401 -1.5341 -2.6209
  330MOL0     H44530  12.204  -1.179   3.324  1.3871 -1.1132 -1.5231
  330MOL0     H44531  12.008  -1.025   3.278  1.7175  0.0595  1.6983
  330MOL0     H44532  12.019  -0.576   3.013  2.2854 -1.7848 -5.0108
  330MOL0     H44533  11.841  -0.399   2.933 -1.3380  0.2416 -0.7829
  330MOL0     H44534   9.967  -0.389   3.430 -0.3072  3.2907  1.8065
  330MOL0     H44535   9.779  -0.220   3.378  0.8777  2.6132 -0.4777
  330MOL0     H44536   9.571   0.018   3.034 -1.2411  0.2632 -0.0707
  330MOL0     H44537   9.435   0.171   2.966 -2.0668 -1.9591  2.4533
  330MOL0     H44538   9.336   0.332   2.876  0.7767  0.5496 -0.7358
  330MOL0     H44539   9.278   0.498   2.905  1.0689 -0.0194  1.0013
  330MOL0     H44540   9.201   0.254   3.068 -0.6376  1.3152  3.2937
  330MOL0     H44541   9.107   0.348   2.957  0.4900 -1.0617 -0.9334
  330MOL0     H44542   9.030   0.408   3.160  0.8992 -3.3172 -1.6559
  330MOL0     H44543   9.118   0.548   3.106  0.7729  1.8134  2.4959
  330MOL0     H44544   9.254   0.345   3.293  2.1873  1.9828  3.1807
  330MOL0     H44545   9.312   0.507   3.252 -0.9601  2.5907  1.9207
  330MOL0     H44546   9.054   0.589   3.567  0.5749  3.6054 -1.4582
  330MOL0     H44547   9.639   0.473   3.207  4.4554 -1.0964  0.3897
  330MOL0     H44548   9.812   0.433   3.336  0.1143  0.2329  0.7026
  330MOL0     H44549   9.820   0.261   3.388  2.3251 -0.1493 -1.1512
  330MOL0     H44550   9.916   0.321   3.259 -0.4236 -0.0729  0.7352
  331MOL0     O44551   5.234   3.423   9.733  0.7946  0.6257 -0.4340
  331MOL0     C44552   5.218   3.541   9.731  0.2688  0.9704  0.1403
  331MOL0     O44553   5.313   3.632   9.691  0.1319  0.0231 -0.7023
  331MOL0     C44554   5.442   3.585   9.677  0.8328 -0.0672  0.2087
  331MOL0     C44555   5.527   3.607   9.783 -0.5318 -0.3753  0.8065
  331MOL0     C44556   5.663   3.569   9.771  0.2093  0.7217 -0.1112
  331MOL0     C44557   5.709   3.505   9.666  0.8103 -0.2824  0.2993
  331MOL0     O44558   5.842   3.468   9.666  0.0154 -0.4158 -0.1257
  331MOL0     C44559   5.877   3.369   9.567  0.6652 -0.6094  0.3656
  331MOL0     C44560   6.016   3.316   9.597  0.5336 -0.6042  1.0629
  331MOL0     C44561   6.123   3.416   9.547 -0.0475 -0.3788  0.0281
  331MOL0     C44562   6.266   3.373   9.563 -0.1426  0.1943 -0.5548
  331MOL0     C44563   6.362   3.472   9.491 -0.1290 -0.3528  0.5963
  331MOL0     C44564   6.412   3.580   9.590  1.0186  0.1565  0.3229
  331MOL0     C44565   6.486   3.685   9.507  0.1515  0.7010  0.1743
  331MOL0     C44566   6.570   3.785   9.594  0.7332  0.5392  0.7012
  331MOL0     N44567   6.480   3.880   9.669  0.8703  0.6458 -0.0152
  331MOL0     C44568   6.403   3.979   9.619  0.2928 -0.3114  0.3566
  331MOL0     C44569   6.346   4.050   9.723 -0.2777  0.2103 -0.1803
  331MOL0     C44570   6.260   4.167   9.704  0.1615 -0.1918  0.5738
  331MOL0     C44571   6.239   4.237   9.844 -0.4756 -0.6680  0.7011
  331MOL0     C44572   6.136   4.179   9.932 -0.3798  0.5413  0.0060
  331MOL0     C44573   5.986   4.212   9.904 -0.0693 -0.0673  0.9177
  331MOL0     O44574   5.958   4.338   9.957 -0.1915 -0.3562  0.5716
  331MOL0     C44575   5.843   4.402   9.935 -0.5249 -0.1812  0.2043
  331MOL0     C44576   5.829   4.541   9.943 -0.6825  0.6070  0.7550
  331MOL0     C44577   5.707   4.606   9.913  0.4210  0.2431 -0.0868
  331MOL0     C44578   5.590   4.535   9.883 -0.3777  0.9807  0.6971
  331MOL0     C44579   5.463   4.612   9.874 -0.0877  0.5185 -0.0155
  331MOL0     O44580   5.355   4.539   9.818  0.4658 -0.7025 -0.5752
  331MOL0     C44581   5.234   4.608   9.816 -0.8505 -0.1366  0.1410
  331MOL0     C44582   5.188   4.683   9.921 -0.4298  0.0288  0.5734
  331MOL0     C44583   5.063   4.756   9.916 -0.4561  0.3878 -0.2105
  331MOL0     C44584   4.989   4.739   9.803 -0.5632 -0.7468 -1.2626
  331MOL0     O44585   4.879   4.810   9.805  0.1667 -0.2999 -0.0603
  331MOL0     C44586   4.765   4.775   9.720  0.2395 -0.0391  0.0702
  331MOL0     C44587   4.656   4.891   9.729 -0.1358 -0.3829 -0.5280
  331MOL0     C44588   4.615   4.913   9.877  0.2053 -0.3078 -0.5612
  331MOL0     C44589   4.531   4.793   9.918 -0.0941 -0.0461  0.2122
  331MOL0     C44590   4.458   4.834  10.043 -0.4826  0.7771  0.6174
  331MOL0     C44591   4.392   4.709  10.105  1.5351 -0.2920  0.6939
  331MOL0     C44592   4.338   4.715  10.248 -0.6365 -0.0016 -0.5010
  331MOL0     C44593   4.236   4.614  10.288  0.5809  0.0625  0.5172
  331MOL0    Cl44594   4.079   4.634  10.200  0.3026  0.2293  0.2671
  331MOL0     C44595   5.035   4.658   9.690  0.5064  1.0797  0.1463
  331MOL0     C44596   5.155   4.585   9.700 -0.5608 -0.3503 -0.5025
  331MOL0     O44597   5.462   4.726   9.919 -0.3167 -0.4097  0.3787
  331MOL0     C44598   5.602   4.394   9.867  0.7325 -0.3849  0.1696
  331MOL0     C44599   5.728   4.325   9.887  0.3623 -0.2767 -0.5111
  331MOL0     N44600   6.376   3.976   9.842 -0.3167  0.7501 -0.3820
  331MOL0     N44601   6.465   3.882   9.805 -0.2858 -0.8875 -0.0768
  331MOL0     C44602   5.623   3.474   9.562  0.7742  0.2561  0.0046
  331MOL0     C44603   5.485   3.514   9.565 -0.7740  0.0906  0.4934
  331MOL0     C44604   5.085   3.595   9.768 -0.0633 -0.9000 -0.1750
  331MOL0     C44605   5.068   3.727   9.826  0.3097  0.0574 -0.5432
  331MOL0     C44606   4.946   3.795   9.829 -0.0562  0.1307 -0.0713
  331MOL0     C44607   4.825   3.735   9.785  0.7301  0.3609  0.3174
  331MOL0     O44608   4.703   3.789   9.795  0.4544 -0.7065  1.0503
  331MOL0     C44609   4.692   3.908   9.870  0.0433  0.1728 -0.5884
  331MOL0     C44610   4.540   3.924   9.910 -1.1424  0.6936  0.4275
  331MOL0     C44611   4.442   3.932   9.788 -0.3932 -0.9128  0.7990
  331MOL0     C44612   4.303   3.979   9.815  0.6674  0.0794 -0.6407
  331MOL0     C44613   4.247   4.067   9.711  0.2430 -0.0791  0.5938
  331MOL0     C44614   4.216   4.152   9.623  0.0748 -0.3620  0.1506
  331MOL0     C44615   4.844   3.606   9.729 -0.2408 -0.7585  0.3362
  331MOL0     C44616   4.962   3.536   9.712 -0.0720 -0.0001  0.0374
  331MOL0     C44617   4.960   3.404   9.636  0.4373 -0.2407  0.3355
  331MOL0     H44618   5.494   3.666   9.868  0.5876 -1.1302  1.8021
  331MOL0     H44619   5.736   3.588   9.849 -0.0756  2.7128 -0.2681
  331MOL0     H44620   5.804   3.289   9.583  0.8992 -0.3515  3.1642
  331MOL0     H44621   5.873   3.404   9.463 -1.6674  0.3118  0.7211
  331MOL0     H44622   6.032   3.219   9.550  1.0098  1.1305 -2.7697
  331MOL0     H44623   6.039   3.312   9.703 -1.6348  1.1149  1.6796
  331MOL0     H44624   6.108   3.510   9.601 -0.0538  0.8794 -2.0336
  331MOL0     H44625   6.093   3.434   9.444 -0.6077 -0.2114  0.2188
  331MOL0     H44626   6.308   3.358   9.663  4.1867 -2.0631 -2.4220
  331MOL0     H44627   6.274   3.274   9.518 -0.0733 -0.5751  1.0728
  331MOL0     H44628   6.449   3.418   9.451  0.2992 -0.0980  1.1740
  331MOL0     H44629   6.315   3.510   9.400  0.0695  1.5361  1.2586
  331MOL0     H44630   6.328   3.620   9.648 -1.0855 -0.4039 -2.1871
  331MOL0     H44631   6.475   3.531   9.665 -0.5213 -0.3870  1.3064
  331MOL0     H44632   6.424   3.741   9.436 -0.2068 -1.1872 -1.0909
  331MOL0     H44633   6.559   3.632   9.444 -0.0202  1.0460 -0.3171
  331MOL0     H44634   6.623   3.727   9.670 -3.4940 -2.7290  1.5532
  331MOL0     H44635   6.636   3.845   9.531 -0.3360 -0.3902 -1.4280
  331MOL0     H44636   6.408   4.002   9.513  1.1197  1.3981  0.7406
  331MOL0     H44637   6.291   4.238   9.627 -1.9619  1.4577  1.1524
  331MOL0     H44638   6.160   4.137   9.670  0.6454 -0.6331 -0.5159
  331MOL0     H44639   6.331   4.242   9.903 -3.0947  0.8605  5.1395
  331MOL0     H44640   6.202   4.340   9.839 -2.6442 -1.2822  2.3770
  331MOL0     H44641   6.157   4.210  10.035  0.7559 -0.5810  0.1301
  331MOL0     H44642   6.147   4.071   9.922  2.8029  0.6648  1.1306
  331MOL0     H44643   5.917   4.140   9.948 -1.7233  2.0322  1.9406
  331MOL0     H44644   5.977   4.202   9.796  0.7650  0.3503  0.7993
  331MOL0     H44645   5.921   4.591   9.971  1.2940 -1.2782 -1.8556
  331MOL0     H44646   5.709   4.714   9.919  1.0255  0.1642  1.4949
  331MOL0     H44647   5.254   4.697  10.006  0.3656  0.7515 -0.1413
  331MOL0     H44648   5.032   4.821   9.997  2.4021  0.9178  0.6058
  331MOL0     H44649   4.799   4.775   9.616  1.1024 -0.6797  0.3435
  331MOL0     H44650   4.709   4.683   9.739 -2.9010  2.1848  2.7851
  331MOL0     H44651   4.703   4.982   9.690  0.4001  0.4029  1.7647
  331MOL0     H44652   4.562   4.872   9.677 -0.0970 -0.2786 -0.6353
  331MOL0     H44653   4.701   4.932   9.942  1.7366 -2.5662 -1.7868
  331MOL0     H44654   4.558   5.006   9.867  0.4991 -0.2320 -1.6608
  331MOL0     H44655   4.594   4.708   9.945  1.0838  0.6708 -0.2272
  331MOL0     H44656   4.453   4.761   9.848 -0.9381  2.7794 -0.2376
  331MOL0     H44657   4.377   4.903  10.018 -0.5346  1.0501  1.5059
  331MOL0     H44658   4.527   4.874  10.117 -0.5045  0.5381  0.7673
  331MOL0     H44659   4.306   4.703  10.037  1.9726  1.2875 -0.0522
  331MOL0     H44660   4.435   4.613  10.077  1.2270 -0.0548 -0.6627
  331MOL0     H44661   4.311   4.819  10.271 -0.6454 -0.2969  0.9460
  331MOL0     H44662   4.424   4.688  10.310 -1.0734  1.9194  1.0275
  331MOL0     H44663   4.279   4.514  10.275  1.2366  0.4383 -0.3197
  331MOL0     H44664   4.222   4.610  10.397  0.7677 -0.7506  0.5120
  331MOL0     H44665   4.981   4.649   9.597 -4.4419  1.8130  2.6079
  331MOL0     H44666   5.196   4.528   9.617 -1.1331 -3.0796  0.9923
  331MOL0     H44667   5.524   4.322   9.847  1.5155 -1.0316 -0.6595
  331MOL0     H44668   5.727   4.220   9.860  2.0664 -0.6135  0.5586
  331MOL0     H44669   5.676   3.454   9.469  1.2093  0.1395  0.2781
  331MOL0     H44670   5.414   3.495   9.484 -0.6210 -3.7161  1.1067
  331MOL0     H44671   5.159   3.784   9.839  0.1366  0.4080 -0.8423
  331MOL0     H44672   4.951   3.901   9.850  1.5265  0.0255  0.2101
  331MOL0     H44673   4.728   3.996   9.815  3.4637 -0.5101  0.3022
  331MOL0     H44674   4.737   3.900   9.969 -4.4659  3.3319  2.1118
  331MOL0     H44675   4.536   4.025   9.952  0.6680  0.1151  2.1575
  331MOL0     H44676   4.513   3.848   9.984 -3.5188  0.7226 -0.3282
  331MOL0     H44677   4.440   3.832   9.743 -1.8843 -0.4133 -0.3514
  331MOL0     H44678   4.484   4.003   9.717 -2.0854 -1.3355 -0.7101
  331MOL0     H44679   4.244   3.886   9.818 -0.6387  0.8562  2.5093
  331MOL0     H44680   4.310   4.025   9.914 -0.4232 -1.0215 -0.0206
  331MOL0     H44681   4.191   4.229   9.553  1.3609  1.5996  1.7062
  331MOL0     H44682   4.759   3.551   9.691 -1.4613  0.4819  1.1927
  331MOL0     H44683   4.990   3.323   9.703 -0.4536  0.2766  1.3904
  331MOL0     H44684   4.865   3.368   9.596  1.9714  0.1254 -4.1126
  331MOL0     H44685   5.016   3.405   9.542  2.0248  1.8107  1.2234
  332MOL0     O44686   9.875   4.584   8.190  0.5125  0.3971 -0.5515
  332MOL0     C44687   9.788   4.671   8.212 -0.3341 -0.8202 -0.6644
  332MOL0     O44688   9.660   4.668   8.161 -0.4064  0.2714 -0.1575
  332MOL0     C44689   9.615   4.555   8.095  0.3342 -0.5309 -0.2473
  332MOL0     C44690   9.523   4.467   8.150 -0.4524  0.2556 -0.2827
  332MOL0     C44691   9.478   4.353   8.075  0.1764 -0.3602 -0.1147
  332MOL0     C44692   9.546   4.320   7.958 -0.6061  0.2454 -0.8392
  332MOL0     O44693   9.521   4.205   7.878  0.3536 -0.4591  0.1030
  332MOL0     C44694   9.383   4.176   7.855  0.1731  0.3702  0.3393
  332MOL0     C44695   9.363   4.034   7.838  0.2739  0.3905  0.6522
  332MOL0     C44696   9.376   3.958   7.974  0.6134  1.1296  0.2483
  332MOL0     C44697   9.443   3.821   7.964 -0.6328  0.5983  0.3502
  332MOL0     C44698   9.494   3.772   8.107  0.8086 -0.2857 -0.1309
  332MOL0     C44699   9.378   3.766   8.216  0.1692  0.1989 -1.0221
  332MOL0     C44700   9.260   3.692   8.171 -0.6225  0.8512  0.4614
  332MOL0     C44701   9.174   3.651   8.294 -0.1556 -0.7492  0.3493
  332MOL0     N44702   9.030   3.646   8.268 -0.2466 -1.1129 -0.2587
  332MOL0     C44703   8.958   3.532   8.259  0.1900  0.7493  0.0207
  332MOL0     C44704   8.833   3.574   8.283  0.8566  0.8850 -0.4301
  332MOL0     C44705   8.715   3.477   8.308  1.0549  0.5864  0.6502
  332MOL0     C44706   8.717   3.410   8.440  0.7780 -0.6755 -0.0762
  332MOL0     C44707   8.730   3.500   8.563 -0.4441  0.6326 -0.3508
  332MOL0     C44708   8.621   3.598   8.575  0.0351 -1.1184  0.7400
  332MOL0     O44709   8.501   3.549   8.521 -0.1387 -0.7979 -0.3939
  332MOL0     C44710   8.395   3.638   8.525  0.2475  0.1843 -0.2269
  332MOL0     C44711   8.396   3.775   8.558  0.0996 -0.3463 -0.0558
  332MOL0     C44712   8.270   3.837   8.576 -0.5705 -0.1169 -0.2470
  332MOL0     C44713   8.157   3.771   8.556  0.3728  0.3915  0.4206
  332MOL0     C44714   8.024   3.839   8.574 -0.0792 -0.0173  0.1167
  332MOL0     O44715   8.026   3.980   8.588 -0.3442  0.4375  0.0866
  332MOL0     C44716   7.907   4.042   8.591 -0.0217  0.8203 -0.4720
  332MOL0     C44717   7.814   4.026   8.701 -0.1871 -0.3336  0.5636
  332MOL0     C44718   7.693   4.090   8.699  0.6629 -0.0459 -0.4273
  332MOL0     C44719   7.665   4.191   8.612 -0.2465  0.0573 -0.2376
  332MOL0     O44720   7.556   4.268   8.623 -0.5104  0.3986  0.6773
  332MOL0     C44721   7.438   4.229   8.690  0.3544 -0.2826  0.0301
  332MOL0     C44722   7.309   4.290   8.630  0.3438 -0.6696  0.5685
  332MOL0     C44723   7.186   4.259   8.710 -0.5606  0.4257 -0.4216
  332MOL0     C44724   7.063   4.255   8.623  1.3291  0.2498  0.2040
  332MOL0     C44725   6.934   4.249   8.710 -0.3382 -0.8290 -0.1052
  332MOL0     C44726   6.801   4.291   8.640  0.6415  0.0563 -0.4388
  332MOL0     C44727   6.776   4.196   8.513 -0.3730  0.8326 -0.4257
  332MOL0     C44728   6.634   4.189   8.458  0.3515  1.2013  0.6956
  332MOL0    Cl44729   6.610   4.354   8.386 -0.0923 -0.0627 -0.2942
  332MOL0     C44730   7.754   4.211   8.502  0.8088 -0.5899 -0.0790
  332MOL0     C44731   7.876   4.138   8.492 -0.1782  0.8731  0.0736
  332MOL0     O44732   7.923   3.773   8.573 -0.1934  0.4985 -0.3405
  332MOL0     C44733   8.158   3.637   8.503  0.1531 -0.3366  0.5059
  332MOL0     C44734   8.280   3.577   8.483 -0.5117 -0.7111 -0.6698
  332MOL0     N44735   8.831   3.709   8.304 -0.5731 -0.3605 -0.2243
  332MOL0     N44736   8.952   3.757   8.297 -0.1000 -0.1114  0.5790
  332MOL0     C44737   9.653   4.403   7.917  0.4040  0.0930 -0.6187
  332MOL0     C44738   9.682   4.524   7.979  0.1424  0.3752  0.4930
  332MOL0     C44739   9.819   4.782   8.304 -0.8027 -0.1799 -0.4351
  332MOL0     C44740   9.756   4.905   8.280  1.3761  0.3311 -0.1986
  332MOL0     C44741   9.773   5.010   8.364  0.6894 -0.2890 -0.1627
  332MOL0     C44742   9.866   5.002   8.464 -1.4588  0.0532  0.3402
  332MOL0     O44743   9.879   5.095   8.553 -0.4428  0.2758 -0.6793
  332MOL0     C44744   9.962   5.203   8.511 -0.8526 -0.6124 -0.9491
  332MOL0     C44745  10.112   5.171   8.504 -0.2766  0.4587  0.1809
  332MOL0     C44746  10.196   5.295   8.498  0.8868  0.0397 -0.0990
  332MOL0     C44747  10.338   5.259   8.487  0.1914 -0.1802  0.6905
  332MOL0     C44748  10.412   5.220   8.613  0.2209 -1.0323 -0.1421
  332MOL0     C44749  10.478   5.178   8.704  0.1019 -1.1010 -0.2047
  332MOL0     C44750   9.947   4.889   8.480 -0.9358  0.0266 -0.0959
  332MOL0     C44751   9.924   4.777   8.405  0.9875 -0.2603 -0.1531
  332MOL0     C44752  10.004   4.659   8.422 -0.3310 -0.4361 -0.2198
  332MOL0     H44753   9.475   4.499   8.241  0.9405  0.0327  0.5590
  332MOL0     H44754   9.426   4.265   8.109  1.6400 -0.5504  1.8498
  332MOL0     H44755   9.318   4.205   7.939 -4.7956 -1.2809 -2.4994
  332MOL0     H44756   9.353   4.234   7.767  0.7360 -1.0959 -0.8640
  332MOL0     H44757   9.432   3.985   7.768 -0.5962 -1.2435  0.8727
  332MOL0     H44758   9.263   4.009   7.801 -1.1318  1.5522  3.3593
  332MOL0     H44759   9.271   3.934   7.995  0.6695  2.0262  1.6877
  332MOL0     H44760   9.413   4.025   8.052 -1.8326  0.5549  2.0169
  332MOL0     H44761   9.370   3.755   7.916  0.0889 -0.1074  0.2022
  332MOL0     H44762   9.527   3.811   7.894  1.3988 -2.0516  2.9331
  332MOL0     H44763   9.550   3.678   8.112  0.1100 -0.7435 -0.6907
  332MOL0     H44764   9.561   3.854   8.136 -0.7998  1.4531 -1.0543
  332MOL0     H44765   9.415   3.726   8.311 -1.5505 -1.2327 -0.9167
  332MOL0     H44766   9.355   3.867   8.252 -0.2496 -0.6067  1.1693
  332MOL0     H44767   9.276   3.598   8.119 -0.1138  0.7337  0.8231
  332MOL0     H44768   9.204   3.767   8.114 -1.5713 -0.7545 -0.8016
  332MOL0     H44769   9.209   3.551   8.322  0.8345 -0.0333  1.8521
  332MOL0     H44770   9.194   3.712   8.383 -2.4254  3.9058 -1.9618
  332MOL0     H44771   8.994   3.432   8.239 -1.9581 -0.6080  2.3673
  332MOL0     H44772   8.618   3.526   8.294  1.0472 -0.2181 -3.0573
  332MOL0     H44773   8.717   3.404   8.226  0.1039  1.0485  0.2040
  332MOL0     H44774   8.623   3.357   8.454  1.1540 -1.4014 -0.2707
  332MOL0     H44775   8.797   3.337   8.452 -0.6942 -2.0696  1.8232
  332MOL0     H44776   8.825   3.553   8.562 -0.0758  0.1654  2.4288
  332MOL0     H44777   8.725   3.422   8.639 -1.1268 -1.3525 -2.3042
  332MOL0     H44778   8.651   3.688   8.520  0.8957 -2.8013 -1.7367
  332MOL0     H44779   8.601   3.620   8.680  0.4099 -1.4280  0.8748
  332MOL0     H44780   8.482   3.829   8.595 -1.1568  0.0741  2.5058
  332MOL0     H44781   8.285   3.933   8.624  3.2284  1.1379 -3.3256
  332MOL0     H44782   7.836   3.966   8.789  0.2202  1.8570  2.0267
  332MOL0     H44783   7.626   4.076   8.784  0.3347 -0.1423 -0.7009
  332MOL0     H44784   7.424   4.121   8.685 -0.5727 -0.2612  1.5505
  332MOL0     H44785   7.459   4.255   8.794  0.3027 -3.1993  0.8344
  332MOL0     H44786   7.331   4.396   8.616  1.6493 -1.2525 -2.4860
  332MOL0     H44787   7.295   4.250   8.529  0.5147  1.2392 -0.2523
  332MOL0     H44788   7.193   4.159   8.755  2.6618  1.9473  3.0217
  332MOL0     H44789   7.182   4.334   8.789 -2.8249  0.6869 -0.7277
  332MOL0     H44790   7.066   4.168   8.556 -1.1548  0.3319 -0.0983
  332MOL0     H44791   7.054   4.345   8.562 -1.4722 -0.2930 -0.3373
  332MOL0     H44792   6.950   4.316   8.795 -1.1478 -2.7808  1.6886
  332MOL0     H44793   6.911   4.154   8.760 -1.8658 -0.2581  0.3416
  332MOL0     H44794   6.719   4.289   8.713 -1.0267 -0.8352 -2.2585
  332MOL0     H44795   6.818   4.387   8.592  3.7349 -2.0498 -4.1448
  332MOL0     H44796   6.802   4.100   8.559  1.6850  0.3108 -2.5071
  332MOL0     H44797   6.853   4.222   8.440  2.5138 -3.2703  0.8179
  332MOL0     H44798   6.622   4.109   8.384 -0.7679 -0.0864  2.2180
  332MOL0     H44799   6.555   4.180   8.533  1.5399  2.6736  2.1888
  332MOL0     H44800   7.747   4.282   8.420  0.7356  0.5741  0.9010
  332MOL0     H44801   7.940   4.157   8.407  0.0580  0.5752  0.1834
  332MOL0     H44802   8.066   3.590   8.470  0.4095  0.3000 -1.2669
  332MOL0     H44803   8.287   3.477   8.441  1.3158 -1.8990  2.1047
  332MOL0     H44804   9.717   4.368   7.836  0.3397  0.1934 -0.7128
  332MOL0     H44805   9.751   4.586   7.924 -0.7024  2.6586  1.8976
  332MOL0     H44806   9.671   4.910   8.213  2.6491 -0.1081 -1.9233
  332MOL0     H44807   9.713   5.100   8.352  4.2071  2.1568 -1.0237
  332MOL0     H44808   9.957   5.286   8.582  2.1790  0.5210 -1.8907
  332MOL0     H44809   9.916   5.254   8.426 -0.9164  0.2840 -0.3959
  332MOL0     H44810  10.131   5.110   8.415 -0.3677  2.2764 -1.1458
  332MOL0     H44811  10.149   5.114   8.589 -1.6706  0.1411  0.6016
  332MOL0     H44812  10.184   5.354   8.589  1.2606  1.0860 -0.7039
  332MOL0     H44813  10.158   5.363   8.421 -1.9645  0.3285  1.4436
  332MOL0     H44814  10.351   5.183   8.409 -2.6340  0.0095 -0.0604
  332MOL0     H44815  10.387   5.345   8.440 -1.2249  1.4935  2.1405
  332MOL0     H44816  10.543   5.151   8.784 -0.8201  1.1566  1.4126
  332MOL0     H44817  10.021   4.900   8.558 -0.9736  1.4618 -0.2298
  332MOL0     H44818  10.074   4.684   8.502  0.6586  0.5389 -1.3602
  332MOL0     H44819   9.933   4.581   8.452 -1.8532  1.3075  0.9680
  332MOL0     H44820  10.063   4.638   8.332 -0.8799 -0.3084 -0.6142
  333MOL0     O44821   6.900   5.111   0.519  0.8742 -0.3715 -0.5198
  333MOL0     C44822   6.787   5.068   0.494  0.1016 -0.5307 -0.1762
  333MOL0     O44823   6.724   4.965   0.566 -0.2299 -0.0009 -0.0935
  333MOL0     C44824   6.784   4.884   0.655 -0.8465 -0.5749  0.1725
  333MOL0     C44825   6.716   4.835   0.765  0.0252 -0.2792 -0.3527
  333MOL0     C44826   6.770   4.757   0.865  0.0124  0.2952  0.4428
  333MOL0     C44827   6.905   4.727   0.858  0.5617 -0.2483 -0.2979
  333MOL0     O44828   6.963   4.660   0.964  0.3553 -0.0979 -0.1007
  333MOL0     C44829   7.095   4.607   0.941  0.0221 -0.1676  0.2831
  333MOL0     C44830   7.130   4.530   1.067  0.9113 -0.2336  0.7445
  333MOL0     C44831   7.155   4.622   1.197  0.2494 -0.7284 -0.2104
  333MOL0     C44832   7.282   4.714   1.182 -0.4939  0.6394 -0.1811
  333MOL0     C44833   7.422   4.655   1.147 -0.1832  0.3586  0.5699
  333MOL0     C44834   7.527   4.764   1.123 -0.3815  0.5266  0.3329
  333MOL0     C44835   7.667   4.691   1.117 -0.1794  0.9119  0.5952
  333MOL0     C44836   7.768   4.770   1.037 -0.2358  0.0800  0.3252
  333MOL0     N44837   7.889   4.700   0.992 -0.8503  0.1669  0.1286
  333MOL0     C44838   7.889   4.594   0.913  0.0957 -0.1708 -0.5261
  333MOL0     C44839   8.017   4.578   0.869 -0.0128 -0.6698 -1.5735
  333MOL0     C44840   8.053   4.494   0.753  0.7941  0.2198  0.4925
  333MOL0     C44841   8.167   4.402   0.802  0.6232 -1.8642  0.7209
  333MOL0     C44842   8.190   4.289   0.703 -0.2034 -0.0825  0.9747
  333MOL0     C44843   8.330   4.226   0.724 -0.2760  0.8271 -0.1629
  333MOL0     O44844   8.358   4.113   0.637  0.5020 -0.4633  0.0006
  333MOL0     C44845   8.472   4.035   0.653  0.9207  0.1254  0.2607
  333MOL0     C44846   8.587   4.063   0.729  0.0253 -0.6717 -0.4218
  333MOL0     C44847   8.699   3.975   0.735  1.1066 -0.8939  0.4830
  333MOL0     C44848   8.713   3.869   0.641 -0.1058  0.0482 -1.0269
  333MOL0     C44849   8.841   3.798   0.624  0.1085  0.3777  1.1219
  333MOL0     O44850   8.950   3.858   0.678  1.4198 -0.5030  0.0740
  333MOL0     C44851   9.071   3.833   0.627  0.1914 -0.5056  0.2054
  333MOL0     C44852   9.178   3.827   0.719  0.2221  0.9148 -0.1916
  333MOL0     C44853   9.305   3.788   0.677  0.3052  0.5033  0.5644
  333MOL0     C44854   9.335   3.768   0.542  0.8244 -0.4109  0.2818
  333MOL0     O44855   9.461   3.727   0.500  0.7988 -0.6090  0.8651
  333MOL0     C44856   9.495   3.764   0.361 -0.5983  0.1099  0.3966
  333MOL0     C44857   9.645   3.746   0.339  0.3567 -0.1717  0.3791
  333MOL0     C44858   9.711   3.875   0.387  0.4552 -0.2571 -0.3065
  333MOL0     C44859   9.789   3.850   0.511  0.1509 -0.0265 -0.2915
  333MOL0     C44860   9.836   3.991   0.569 -0.2469  1.0403 -0.6018
  333MOL0     C44861   9.912   3.967   0.701  0.0625  0.1412  0.4274
  333MOL0     C44862   9.960   4.100   0.772 -0.7907 -0.6041  0.9650
  333MOL0     C44863  10.051   4.076   0.897  0.3765  0.3332 -0.0690
  333MOL0    Cl44864  10.209   3.978   0.880 -0.0298 -0.0109  0.0719
  333MOL0     C44865   9.225   3.789   0.452 -0.0871 -0.0787 -0.2473
  333MOL0     C44866   9.096   3.809   0.492  0.0342 -0.3408 -0.6625
  333MOL0     O44867   8.838   3.687   0.563 -0.4950  0.4176  0.2770
  333MOL0     C44868   8.598   3.837   0.565  0.0785  0.1070  0.1300
  333MOL0     C44869   8.481   3.917   0.566 -0.2303 -0.5634  0.8782
  333MOL0     N44870   8.091   4.678   0.928  0.6852  0.6276  0.1910
  333MOL0     N44871   8.015   4.747   0.997 -0.3859 -0.5653  0.3858
  333MOL0     C44872   6.984   4.770   0.741  0.3252 -0.0557 -0.5585
  333MOL0     C44873   6.916   4.836   0.634 -0.5913  0.1382  0.2534
  333MOL0     C44874   6.705   5.120   0.384 -0.1338 -0.0330  0.7849
  333MOL0     C44875   6.609   5.043   0.320  0.0217  0.3424  0.1401
  333MOL0     C44876   6.530   5.086   0.216  0.3492 -0.1626  0.6282
  333MOL0     C44877   6.514   5.219   0.188  0.2938  0.7684  0.2541
  333MOL0     O44878   6.429   5.267   0.092 -0.4711  0.0594  0.4449
  333MOL0     C44879   6.313   5.188   0.047  0.3999 -0.3456  0.5275
  333MOL0     C44880   6.342   5.128  -0.083 -0.1690  0.5888 -1.1027
  333MOL0     C44881   6.213   5.100  -0.161 -0.2461 -0.5902 -0.4185
  333MOL0     C44882   6.119   4.992  -0.098 -0.6195 -1.4206 -0.4893
  333MOL0     C44883   6.046   4.911  -0.201 -0.4402  0.8523 -1.1006
  333MOL0     C44884   5.978   4.859  -0.283  0.1920  0.4762 -0.1043
  333MOL0     C44885   6.604   5.305   0.245 -0.1701  0.9199 -0.4724
  333MOL0     C44886   6.705   5.257   0.331  0.9094 -0.2134 -0.3072
  333MOL0     C44887   6.783   5.365   0.408  0.1697  0.2447 -0.4225
  333MOL0     H44888   6.609   4.857   0.762  0.1670  0.3242 -1.4208
  333MOL0     H44889   6.704   4.708   0.936 -2.9665  1.4470 -1.3776
  333MOL0     H44890   7.099   4.538   0.856 -3.7177  0.4223 -0.5516
  333MOL0     H44891   7.168   4.688   0.939  1.8216 -1.7159  0.9689
  333MOL0     H44892   7.225   4.480   1.045  1.0107  0.8891 -1.6794
  333MOL0     H44893   7.051   4.457   1.082 -1.8323  2.7952  2.2796
  333MOL0     H44894   7.177   4.558   1.283  6.1338 -1.8025 -2.0635
  333MOL0     H44895   7.069   4.687   1.214 -0.4494 -2.1951  2.5927
  333MOL0     H44896   7.248   4.783   1.104 -1.5203 -0.9621 -1.2099
  333MOL0     H44897   7.299   4.762   1.279  0.5254  0.1911 -0.1219
  333MOL0     H44898   7.454   4.585   1.224 -1.7241  0.9035  1.7555
  333MOL0     H44899   7.410   4.597   1.055  0.7019  0.0131  0.6622
  333MOL0     H44900   7.515   4.823   1.031  3.8487  2.3168  0.6702
  333MOL0     H44901   7.528   4.839   1.202 -2.2558  0.5484  0.3711
  333MOL0     H44902   7.660   4.594   1.068 -3.9306  2.2372 -1.9704
  333MOL0     H44903   7.714   4.667   1.212  0.8671 -3.6751 -0.8211
  333MOL0     H44904   7.714   4.803   0.948 -0.8089  3.2221  1.7053
  333MOL0     H44905   7.784   4.867   1.084 -2.2566  0.7066 -0.1969
  333MOL0     H44906   7.804   4.537   0.876 -2.5476  1.7024  2.1704
  333MOL0     H44907   7.980   4.420   0.722  2.8605 -1.3692 -0.8890
  333MOL0     H44908   8.072   4.554   0.663 -3.8035  2.2214  0.6017
  333MOL0     H44909   8.254   4.462   0.830  1.7802 -3.6129  1.0868
  333MOL0     H44910   8.141   4.361   0.901  1.3639 -3.4620  0.2978
  333MOL0     H44911   8.179   4.328   0.601 -2.5339 -0.3657  1.0795
  333MOL0     H44912   8.108   4.217   0.702  0.5074 -0.9270  1.4532
  333MOL0     H44913   8.345   4.194   0.827 -1.4029  0.1157 -0.1995
  333MOL0     H44914   8.404   4.304   0.706 -0.5229  0.8473 -1.1494
  333MOL0     H44915   8.602   4.152   0.790 -1.0155 -1.2677  0.7494
  333MOL0     H44916   8.781   4.008   0.798 -1.1599  0.7149  2.8099
  333MOL0     H44917   9.156   3.829   0.826  1.6607  0.1996  0.1563
  333MOL0     H44918   9.392   3.774   0.740  0.7404  0.2703 -0.0708
  333MOL0     H44919   9.445   3.688   0.300 -1.5121 -1.3258  2.7430
  333MOL0     H44920   9.463   3.866   0.338 -1.7420  0.1123  1.8027
  333MOL0     H44921   9.684   3.666   0.403  1.2571  0.0970  0.1741
  333MOL0     H44922   9.668   3.727   0.234  0.7192  3.4866 -0.3116
  333MOL0     H44923   9.779   3.911   0.310  1.3568 -1.9139 -0.3402
  333MOL0     H44924   9.629   3.945   0.408 -2.2626 -2.7395 -1.8242
  333MOL0     H44925   9.876   3.786   0.495 -0.5831 -1.9555  2.5846
  333MOL0     H44926   9.731   3.791   0.583  3.3637 -1.0367  1.6960
  333MOL0     H44927   9.747   4.053   0.583 -2.7963 -2.1084 -1.5732
  333MOL0     H44928   9.909   4.034   0.500 -1.7176  0.8335 -2.3515
  333MOL0     H44929   9.842   3.909   0.761  1.1472 -0.7180  0.8907
  333MOL0     H44930   9.999   3.903   0.680  1.1709  0.8145  2.6278
  333MOL0     H44931   9.865   4.137   0.813 -1.9883 -1.2065 -1.1198
  333MOL0     H44932  10.017   4.173   0.714 -0.2347 -2.1627 -0.5220
  333MOL0     H44933  10.076   4.173   0.941  2.1469 -1.4690  3.3060
  333MOL0     H44934   9.996   4.013   0.967  1.3269 -4.5262 -3.2383
  333MOL0     H44935   9.254   3.789   0.348  2.1042  2.5164  0.2581
  333MOL0     H44936   9.015   3.827   0.422  1.1550  1.9683 -1.4536
  333MOL0     H44937   8.600   3.753   0.496  2.7489  0.5966 -0.4933
  333MOL0     H44938   8.396   3.897   0.500 -0.1808  1.8207  0.0124
  333MOL0     H44939   7.089   4.745   0.737  0.0383 -1.3313 -0.4677
  333MOL0     H44940   6.967   4.843   0.538 -0.8568 -1.3437 -0.0235
  333MOL0     H44941   6.620   4.939   0.348  2.1089  0.1191 -1.2731
  333MOL0     H44942   6.465   5.020   0.158 -0.3672  0.4818  0.6776
  333MOL0     H44943   6.231   5.258   0.027 -0.3667 -1.1778  0.7014
  333MOL0     H44944   6.286   5.109   0.118  0.5552  1.1176  2.2836
  333MOL0     H44945   6.406   5.042  -0.062 -0.1124  0.7226 -0.7159
  333MOL0     H44946   6.401   5.196  -0.145  1.4819 -0.3277 -0.5679
  333MOL0     H44947   6.236   5.066  -0.262 -1.5268 -0.8318 -0.6500
  333MOL0     H44948   6.158   5.195  -0.158  0.4457 -0.2049  1.8265
  333MOL0     H44949   6.179   4.913  -0.052 -0.4200 -1.2083 -0.3828
  333MOL0     H44950   6.050   5.049  -0.035  0.8144 -0.5872  0.3866
  333MOL0     H44951   5.926   4.799  -0.355  2.2434 -1.2762 -0.2607
  333MOL0     H44952   6.596   5.412   0.230 -0.8877  0.7021 -1.7587
  333MOL0     H44953   6.887   5.333   0.396 -0.0214 -0.3496 -0.5034
  333MOL0     H44954   6.766   5.461   0.358 -3.4912  0.1360  0.3591
  333MOL0     H44955   6.758   5.359   0.514 -3.1367 -1.7284 -1.1717
  334MOL0     O44956  10.019   2.804   8.707 -0.3528  0.0925  0.2725
  334MOL0     C44957  10.112   2.799   8.784  0.4652  0.4795  0.1247
  334MOL0     O44958  10.245   2.807   8.750  0.5257  0.4987 -0.2624
  334MOL0     C44959  10.299   2.832   8.622 -0.4801  0.4997 -0.0636
  334MOL0     C44960  10.224   2.864   8.507 -0.5634 -0.9554  0.4763
  334MOL0     C44961  10.289   2.859   8.387 -0.6255 -0.5505  0.5176
  334MOL0     C44962  10.428   2.820   8.374  0.2348 -0.0662 -0.0585
  334MOL0     O44963  10.498   2.796   8.265  0.1248 -0.0076 -0.1525
  334MOL0     C44964  10.474   2.894   8.167  0.6701 -0.4924 -0.7320
  334MOL0     C44965  10.587   2.901   8.059 -0.5034  0.1782  0.4436
  334MOL0     C44966  10.615   2.769   7.991 -0.8433 -0.6643  0.4057
  334MOL0     C44967  10.728   2.788   7.882  0.1404 -0.8705 -0.1839
  334MOL0     C44968  10.771   2.652   7.839  0.2951 -1.1556  1.2033
  334MOL0     C44969  10.872   2.641   7.728 -0.3044 -0.4768 -0.3633
  334MOL0     C44970  11.007   2.730   7.748  0.1569 -0.1843 -0.3508
  334MOL0     C44971  11.083   2.735   7.615  0.3766 -0.0344  0.3235
  334MOL0     N44972  11.201   2.823   7.603 -0.4358  0.7370 -0.4962
  334MOL0     C44973  11.260   2.895   7.704 -0.5303  1.1837 -0.1977
  334MOL0     C44974  11.374   2.952   7.656  0.8860  0.0141  0.6709
  334MOL0     C44975  11.468   3.037   7.744  0.5129 -0.7173 -0.7131
  334MOL0     C44976  11.597   3.091   7.673  1.1480 -0.5198 -0.8952
  334MOL0     C44977  11.577   3.207   7.577 -0.0572 -0.9506  0.9852
  334MOL0     C44978  11.504   3.321   7.636  0.1834  0.5214 -0.0588
  334MOL0     O44979  11.556   3.436   7.580  0.7659 -0.7985  0.3864
  334MOL0     C44980  11.503   3.477   7.462 -0.4573 -1.1901 -0.0398
  334MOL0     C44981  11.403   3.421   7.379 -0.6998  0.1765  0.8081
  334MOL0     C44982  11.369   3.477   7.256 -0.4783 -0.3570  0.8040
  334MOL0     C44983  11.433   3.600   7.214 -0.0694 -0.7830 -0.0907
  334MOL0     C44984  11.383   3.665   7.090  0.3699  1.3513  0.1565
  334MOL0     O44985  11.417   3.796   7.072 -0.4371 -0.0681 -0.1007
  334MOL0     C44986  11.374   3.854   6.955 -0.1422 -0.1032  0.1543
  334MOL0     C44987  11.245   3.902   6.940 -0.8791 -0.1979 -0.7556
  334MOL0     C44988  11.207   3.959   6.815 -1.0616 -0.2700  0.4195
  334MOL0     C44989  11.306   3.983   6.716 -0.9242  0.0367 -0.4718
  334MOL0     O44990  11.292   4.038   6.591  0.5353  0.5031  0.3767
  334MOL0     C44991  11.158   4.068   6.546 -0.0256 -0.0401 -0.0625
  334MOL0     C44992  11.095   3.940   6.503  0.2404  0.3780  0.5871
  334MOL0     C44993  10.948   3.962   6.472 -0.4369 -0.1896 -0.2492
  334MOL0     C44994  10.877   3.831   6.481 -0.3365  0.3171  1.2302
  334MOL0     C44995  10.734   3.847   6.511 -0.2893 -0.0357 -0.5087
  334MOL0     C44996  10.643   3.911   6.410 -0.0286 -0.4667  0.0786
  334MOL0     C44997  10.500   3.921   6.460 -0.1604 -0.7535  1.0548
  334MOL0     C44998  10.414   4.015   6.378 -0.0822 -0.2058  0.1976
  334MOL0    Cl44999  10.325   3.938   6.241 -0.6154  0.1651  0.4609
  334MOL0     C45000  11.438   3.934   6.737  0.7124 -0.2921 -0.3495
  334MOL0     C45001  11.465   3.867   6.856 -0.3255 -0.0504  0.3517
  334MOL0     O45002  11.293   3.599   7.028 -0.3802 -0.0533  1.1504
  334MOL0     C45003  11.526   3.665   7.295 -0.0651  0.0264  1.2715
  334MOL0     C45004  11.563   3.593   7.413  0.4451 -0.4935  0.2760
  334MOL0     N45005  11.370   2.932   7.515 -0.1292  0.2023 -0.1984
  334MOL0     N45006  11.281   2.839   7.491 -0.9715  0.1504  0.8760
  334MOL0     C45007  10.499   2.795   8.499 -0.3082 -0.1397 -0.1925
  334MOL0     C45008  10.433   2.795   8.614 -1.5875 -0.7251 -0.8496
  334MOL0     C45009  10.084   2.783   8.935 -0.1934  0.4401 -0.2658
  334MOL0     C45010   9.964   2.836   8.982  0.4461  0.2366 -0.2746
  334MOL0     C45011   9.916   2.816   9.112 -0.3738 -0.0913 -0.7572
  334MOL0     C45012   9.991   2.744   9.206 -0.0538  0.1206 -0.2819
  334MOL0     O45013   9.962   2.755   9.347  0.2462  0.4925  0.4336
  334MOL0     C45014  10.042   2.688   9.444 -0.3157 -0.8463  0.5288
  334MOL0     C45015  10.018   2.746   9.575  0.3021 -0.0662 -1.1707
  334MOL0     C45016  10.112   2.679   9.673  0.7567  0.2073  0.3129
  334MOL0     C45017  10.135   2.769   9.792  0.0656 -0.6264  0.3136
  334MOL0     C45018  10.222   2.680   9.874  0.9216 -0.6728 -0.2349
  334MOL0     C45019  10.310   2.621   9.928  0.2301  0.7156  0.1126
  334MOL0     C45020  10.104   2.671   9.155  0.7988 -0.3708 -0.4643
  334MOL0     C45021  10.152   2.697   9.023 -0.2793  0.2429 -1.1212
  334MOL0     C45022  10.266   2.611   8.972  1.2258 -0.4608 -0.2981
  334MOL0     H45023  10.117   2.883   8.501 -0.4943 -0.8244 -0.6111
  334MOL0     H45024  10.231   2.880   8.298 -0.0782  1.1031  0.5256
  334MOL0     H45025  10.389   2.850   8.113  0.1822 -1.3844  0.7042
  334MOL0     H45026  10.436   2.990   8.204 -0.4076 -1.5716  1.1222
  334MOL0     H45027  10.682   2.929   8.106  1.1446 -1.0047 -1.9807
  334MOL0     H45028  10.572   2.977   7.982 -0.1305  0.6744  0.8474
  334MOL0     H45029  10.522   2.721   7.956 -0.2667 -1.7867  0.3681
  334MOL0     H45030  10.648   2.693   8.063 -0.2748 -0.9072 -0.1049
  334MOL0     H45031  10.682   2.841   7.798 -1.5334  1.2346  1.9205
  334MOL0     H45032  10.819   2.837   7.918 -1.2841  1.6084  0.3637
  334MOL0     H45033  10.809   2.600   7.927  0.0165 -1.3683  1.2007
  334MOL0     H45034  10.684   2.592   7.811 -0.2118 -0.9750  2.3323
  334MOL0     H45035  10.910   2.540   7.713  2.8526  0.5477  0.0183
  334MOL0     H45036  10.826   2.667   7.631 -1.4036  2.6426  0.8415
  334MOL0     H45037  11.065   2.685   7.829 -0.1804  0.7791  0.4450
  334MOL0     H45038  10.991   2.835   7.773  1.8465 -0.1322  0.6041
  334MOL0     H45039  11.110   2.631   7.595  0.0010 -0.2075  0.6944
  334MOL0     H45040  11.018   2.774   7.536  1.5739  2.1982  0.3737
  334MOL0     H45041  11.206   2.912   7.796  3.0223 -0.4472  2.4495
  334MOL0     H45042  11.402   3.120   7.769 -1.0660 -2.0562 -0.2428
  334MOL0     H45043  11.495   2.977   7.831 -2.4899 -0.9429  0.1819
  334MOL0     H45044  11.671   3.109   7.752  1.1693  3.0004 -1.5597
  334MOL0     H45045  11.636   3.015   7.606  0.4189 -0.1761 -1.7241
  334MOL0     H45046  11.514   3.163   7.499 -0.6847  2.1908 -0.4367
  334MOL0     H45047  11.673   3.240   7.537 -1.9798  0.1574 -3.2806
  334MOL0     H45048  11.521   3.320   7.744  2.9906 -3.6514 -0.2992
  334MOL0     H45049  11.396   3.314   7.622  0.1522  1.6571 -0.5242
  334MOL0     H45050  11.362   3.324   7.406  1.8341 -1.1702  0.1024
  334MOL0     H45051  11.293   3.429   7.195  1.5110  0.6317 -2.7793
  334MOL0     H45052  11.179   3.885   7.025  0.7682 -2.3353  0.1914
  334MOL0     H45053  11.112   4.002   6.785 -0.8313  0.7139  1.0575
  334MOL0     H45054  11.104   4.127   6.620 -0.3844  0.9868 -1.1015
  334MOL0     H45055  11.149   4.126   6.453 -0.4126 -2.9410 -1.9770
  334MOL0     H45056  11.139   3.909   6.408 -1.3849 -0.2745  0.0166
  334MOL0     H45057  11.104   3.867   6.584 -0.5506  1.0321  1.2829
  334MOL0     H45058  10.901   4.031   6.543 -0.4426 -1.5704  1.1363
  334MOL0     H45059  10.941   4.017   6.377  0.6574  2.7864  1.2462
  334MOL0     H45060  10.915   3.760   6.554  0.8514  0.5415  0.8533
  334MOL0     H45061  10.890   3.782   6.384  0.1335 -1.4518  2.1383
  334MOL0     H45062  10.726   3.892   6.611  2.3530 -0.3384 -0.0956
  334MOL0     H45063  10.691   3.747   6.521 -2.5609  0.6955 -2.0727
  334MOL0     H45064  10.668   4.011   6.372 -3.1207  0.3595 -0.1068
  334MOL0     H45065  10.648   3.849   6.320 -0.1346 -2.7109  1.5441
  334MOL0     H45066  10.501   3.955   6.564 -1.1136  1.1229  0.4827
  334MOL0     H45067  10.435   3.833   6.473  0.0817 -0.8333  1.7754
  334MOL0     H45068  10.339   4.069   6.436 -1.0133 -0.3849 -0.8195
  334MOL0     H45069  10.472   4.092   6.327 -1.3118  1.5221  1.2877
  334MOL0     H45070  11.518   3.939   6.664  0.2027 -0.2661 -0.9152
  334MOL0     H45071  11.569   3.841   6.873 -0.6884 -3.0833 -1.3699
  334MOL0     H45072  11.559   3.767   7.280 -2.2018  0.3410 -2.3865
  334MOL0     H45073  11.628   3.643   7.484 -2.2673  1.7962  1.3458
  334MOL0     H45074  10.603   2.765   8.487 -0.5087 -1.4098  1.0522
  334MOL0     H45075  10.480   2.772   8.709  0.2667  2.6967 -0.7588
  334MOL0     H45076   9.913   2.907   8.916 -0.8363 -1.4688 -1.1885
  334MOL0     H45077   9.823   2.860   9.147  0.5105 -0.4953  2.4324
  334MOL0     H45078  10.144   2.717   9.415  0.0614 -0.6407  1.9541
  334MOL0     H45079  10.033   2.580   9.434 -0.2941 -0.7709 -0.3401
  334MOL0     H45080   9.919   2.736   9.619  0.2540 -1.7157 -1.6029
  334MOL0     H45081  10.036   2.854   9.568 -0.1266  0.3304  2.1780
  334MOL0     H45082  10.206   2.647   9.627  0.2785  0.5192 -0.9293
  334MOL0     H45083  10.061   2.589   9.710  0.8059 -1.1972 -2.6949
  334MOL0     H45084  10.195   2.856   9.760  1.0524 -1.4641 -0.1824
  334MOL0     H45085  10.046   2.790   9.851 -0.0992 -2.5484  0.8036
  334MOL0     H45086  10.392   2.581   9.985  0.3035  2.7985  1.6127
  334MOL0     H45087  10.163   2.615   9.227 -1.0463 -1.5661  0.1924
  334MOL0     H45088  10.338   2.660   8.906  1.0381  1.2889  0.7294
  334MOL0     H45089  10.320   2.577   9.060 -2.7717  0.4460  2.7800
  334MOL0     H45090  10.226   2.534   8.905  0.1252 -0.1971  0.0324
  335MOL0     O45091   6.107   4.226   7.581 -0.5082  0.0440  0.2143
  335MOL0     C45092   6.033   4.263   7.490  0.5781 -0.3816 -0.2462
  335MOL0     O45093   6.066   4.278   7.357 -0.5371  0.0661 -0.2429
  335MOL0     C45094   6.196   4.273   7.318  0.0881  0.3641  0.1920
  335MOL0     C45095   6.231   4.376   7.232 -0.0620 -0.2283 -0.4478
  335MOL0     C45096   6.361   4.379   7.176 -0.0556 -0.6320  0.6190
  335MOL0     C45097   6.452   4.276   7.206  0.2839  1.0230  1.5038
  335MOL0     O45098   6.574   4.271   7.143  0.0874  0.0619  0.0645
  335MOL0     C45099   6.679   4.277   7.242  0.5671  0.5462 -0.3394
  335MOL0     C45100   6.805   4.198   7.190  0.0508 -0.5379  0.1263
  335MOL0     C45101   6.871   4.259   7.074  0.1047 -0.0786 -0.4309
  335MOL0     C45102   6.995   4.185   7.025 -1.0270 -0.4698  0.2605
  335MOL0     C45103   7.072   4.285   6.942 -0.2915  0.0514  0.4837
  335MOL0     C45104   7.187   4.213   6.867  0.0940  0.3989 -0.1158
  335MOL0     C45105   7.237   4.289   6.749  0.8196 -0.1516  0.7007
  335MOL0     C45106   7.355   4.227   6.677  0.1764  0.1072  0.7160
  335MOL0     N45107   7.488   4.253   6.746  0.8523  0.7051  0.6905
  335MOL0     C45108   7.536   4.192   6.855 -0.0931  0.2395  0.2591
  335MOL0     C45109   7.659   4.239   6.863  0.0243 -0.2896  0.2892
  335MOL0     C45110   7.759   4.212   6.970  0.1879 -0.3675  0.7197
  335MOL0     C45111   7.853   4.102   6.943  0.4823  0.0396  0.1701
  335MOL0     C45112   7.937   4.049   7.057 -0.7672 -0.2735  0.4403
  335MOL0     C45113   8.066   4.138   7.077 -0.2655 -0.2060 -0.3661
  335MOL0     O45114   8.133   4.101   7.202  0.5411 -0.4720 -0.6601
  335MOL0     C45115   8.260   4.043   7.187  0.9485 -0.1310  0.5565
  335MOL0     C45116   8.374   4.120   7.205  0.0628  1.0205  1.2693
  335MOL0     C45117   8.498   4.064   7.189  0.5601 -0.0938  0.0259
  335MOL0     C45118   8.517   3.922   7.163 -0.4214 -0.3895 -0.0446
  335MOL0     C45119   8.662   3.859   7.145 -0.2618  0.4619  0.1329
  335MOL0     O45120   8.672   3.729   7.103  0.4105  0.1108 -0.6626
  335MOL0     C45121   8.790   3.689   7.059  0.3265 -0.2718  0.6844
  335MOL0     C45122   8.897   3.660   7.152  0.5055 -0.0567 -0.2579
  335MOL0     C45123   9.021   3.641   7.107 -0.1528  0.2055 -0.6248
  335MOL0     C45124   9.054   3.648   6.965  0.5499  0.1679  0.2910
  335MOL0     O45125   9.184   3.637   6.935 -0.1369  0.0313 -0.0018
  335MOL0     C45126   9.228   3.665   6.799  0.6702  0.2847  0.3015
  335MOL0     C45127   9.378   3.689   6.772 -0.1373 -0.3110 -0.7648
  335MOL0     C45128   9.468   3.596   6.846  0.3340  0.4593  0.5568
  335MOL0     C45129   9.613   3.641   6.820  0.1571 -0.4289  0.2981
  335MOL0     C45130   9.654   3.627   6.673  0.4349 -0.7133  0.2448
  335MOL0     C45131   9.806   3.612   6.660 -1.2538  0.3104  0.7920
  335MOL0     C45132   9.863   3.648   6.529 -0.1722  0.2144 -0.2399
  335MOL0     C45133  10.002   3.583   6.495  0.2747  0.1349  0.3410
  335MOL0    Cl45134  10.060   3.654   6.343  0.3591  0.7533 -0.3640
  335MOL0     C45135   8.949   3.667   6.875 -0.3236 -0.0771  0.0253
  335MOL0     C45136   8.817   3.686   6.923  0.2122 -0.0574  0.5367
  335MOL0     O45137   8.758   3.931   7.173 -0.2363 -0.2436 -0.1745
  335MOL0     C45138   8.405   3.843   7.135 -0.7802 -0.0236  0.6533
  335MOL0     C45139   8.282   3.902   7.144 -0.0564 -0.6547  0.5194
  335MOL0     N45140   7.681   4.343   6.768 -0.1492  0.2110  0.0837
  335MOL0     N45141   7.579   4.337   6.687  0.3010 -0.5939  0.2290
  335MOL0     C45142   6.411   4.170   7.295 -0.2197  0.0862 -0.6902
  335MOL0     C45143   6.281   4.168   7.344  0.4753 -0.1595  0.7947
  335MOL0     C45144   5.889   4.284   7.515 -0.0243 -0.3678  1.0686
  335MOL0     C45145   5.820   4.386   7.441 -0.2598  0.0131  0.0210
  335MOL0     C45146   5.693   4.432   7.468  1.0264 -1.1134 -0.3846
  335MOL0     C45147   5.623   4.375   7.586 -0.8127 -0.9152  0.5784
  335MOL0     O45148   5.496   4.417   7.609  0.5295  0.0379 -0.2562
  335MOL0     C45149   5.412   4.367   7.724 -1.0707 -0.0285  0.2171
  335MOL0     C45150   5.464   4.431   7.850 -0.0478 -0.2727 -0.2026
  335MOL0     C45151   5.401   4.383   7.976 -0.2833 -0.8735 -0.1827
  335MOL0     C45152   5.443   4.464   8.098 -0.7572  0.2216  0.7694
  335MOL0     C45153   5.582   4.444   8.157  0.1608 -0.4194 -0.0800
  335MOL0     C45154   5.692   4.437   8.202 -0.5629 -0.4151 -0.3791
  335MOL0     C45155   5.686   4.268   7.653  0.7357  0.3799 -0.1162
  335MOL0     C45156   5.820   4.219   7.622  0.7989 -0.7055  0.4452
  335MOL0     C45157   5.872   4.100   7.689 -0.7316  0.0041 -0.0858
  335MOL0     H45158   6.154   4.451   7.217 -2.1745 -1.7753  1.9072
  335MOL0     H45159   6.386   4.453   7.100  1.1142 -1.4876  0.1395
  335MOL0     H45160   6.708   4.382   7.257  1.2727  0.1067  1.6680
  335MOL0     H45161   6.661   4.233   7.340  0.9464  0.5429 -0.2690
  335MOL0     H45162   6.765   4.100   7.165  0.7273 -0.7874 -0.0026
  335MOL0     H45163   6.882   4.199   7.268  1.9212 -2.2936 -1.5846
  335MOL0     H45164   6.893   4.358   7.114 -0.1962 -0.8252  1.7183
  335MOL0     H45165   6.793   4.260   6.997 -3.1334  0.2418  2.5907
  335MOL0     H45166   7.054   4.138   7.104  2.1263 -1.1299 -2.3057
  335MOL0     H45167   6.955   4.102   6.966 -0.8515 -1.6964  1.7838
  335MOL0     H45168   7.007   4.336   6.869  1.5429  1.9529  0.0751
  335MOL0     H45169   7.110   4.370   7.000  0.8114  0.4088 -0.6956
  335MOL0     H45170   7.270   4.199   6.938 -0.0183  1.0394  0.1496
  335MOL0     H45171   7.150   4.117   6.829  0.3342  0.9250 -1.7250
  335MOL0     H45172   7.269   4.391   6.770  1.8191  0.2477 -2.3328
  335MOL0     H45173   7.162   4.298   6.670  2.3275  2.1958 -0.5829
  335MOL0     H45174   7.348   4.123   6.644 -0.6778  1.0878 -2.4451
  335MOL0     H45175   7.354   4.289   6.587 -0.2558 -0.3612  0.3960
  335MOL0     H45176   7.498   4.110   6.915 -0.4662 -1.6925 -2.3956
  335MOL0     H45177   7.833   4.293   6.976 -0.6967  0.4192  1.1957
  335MOL0     H45178   7.702   4.190   7.060 -0.6747 -3.9966 -0.5564
  335MOL0     H45179   7.798   4.013   6.912  2.9299 -1.3768 -0.3812
  335MOL0     H45180   7.919   4.143   6.866  1.0413  2.2107  1.7134
  335MOL0     H45181   7.975   3.952   7.024 -1.0723  0.5535 -2.6641
  335MOL0     H45182   7.880   4.036   7.149 -0.6063  0.7461  0.6912
  335MOL0     H45183   8.053   4.246   7.091 -2.7870 -0.6748  1.7515
  335MOL0     H45184   8.127   4.128   6.986  0.2070  0.2644 -0.1073
  335MOL0     H45185   8.351   4.221   7.240 -3.2900  0.5962  0.5991
  335MOL0     H45186   8.582   4.127   7.216 -0.8527  1.5454  0.7962
  335MOL0     H45187   8.886   3.646   7.259  0.3067  2.1256  0.0481
  335MOL0     H45188   9.100   3.629   7.180 -0.5562  0.5903 -0.1120
  335MOL0     H45189   9.198   3.580   6.737 -1.6985  0.2722  1.3850
  335MOL0     H45190   9.172   3.743   6.746 -1.3895 -1.2486  0.0974
  335MOL0     H45191   9.392   3.677   6.664 -1.9628 -3.7081 -0.7608
  335MOL0     H45192   9.384   3.795   6.797 -1.8557 -0.1237 -1.0042
  335MOL0     H45193   9.450   3.600   6.954  0.7162  0.7339  0.6165
  335MOL0     H45194   9.452   3.500   6.798 -2.2674  1.7923 -1.4757
  335MOL0     H45195   9.682   3.586   6.885  0.7605  1.8316  1.6616
  335MOL0     H45196   9.611   3.746   6.850 -3.1750  0.2384 -1.7077
  335MOL0     H45197   9.626   3.719   6.621 -0.7201 -0.5427  1.1060
  335MOL0     H45198   9.615   3.534   6.629  1.5392 -0.9257 -0.3130
  335MOL0     H45199   9.854   3.671   6.739  1.7938  0.1507 -0.7877
  335MOL0     H45200   9.835   3.508   6.676 -0.1200  0.7799  1.9380
  335MOL0     H45201   9.874   3.757   6.522 -2.0877  0.3494 -2.3183
  335MOL0     H45202   9.794   3.627   6.447  0.4227 -0.0793 -0.6781
  335MOL0     H45203  10.076   3.586   6.575  0.4015 -2.2922  0.4069
  335MOL0     H45204   9.987   3.476   6.476 -0.5443  0.0165  1.5308
  335MOL0     H45205   8.970   3.674   6.769  4.6340 -1.4135  0.6469
  335MOL0     H45206   8.733   3.704   6.857 -1.3388 -1.2281  2.1011
  335MOL0     H45207   8.421   3.741   7.103  0.6838  0.0243  1.1627
  335MOL0     H45208   8.190   3.855   7.111  1.1881 -1.5701 -1.8965
  335MOL0     H45209   6.486   4.096   7.321 -1.3314 -0.3286  1.5513
  335MOL0     H45210   6.248   4.092   7.414  1.5235 -0.8618  0.5645
  335MOL0     H45211   5.876   4.442   7.367  3.1029 -2.7925  0.1382
  335MOL0     H45212   5.632   4.499   7.408 -1.9958 -1.5583  1.9094
  335MOL0     H45213   5.425   4.258   7.727 -0.6926 -0.2565 -3.9075
  335MOL0     H45214   5.304   4.375   7.705 -1.4670 -2.3387  1.0704
  335MOL0     H45215   5.452   4.539   7.832 -0.8119 -0.8009 -3.5282
  335MOL0     H45216   5.565   4.390   7.857  0.4133  1.0222  1.4814
  335MOL0     H45217   5.426   4.279   8.000 -1.5165 -0.8506  1.3795
  335MOL0     H45218   5.293   4.399   7.968 -0.0529  0.2219 -1.2794
  335MOL0     H45219   5.427   4.569   8.073 -4.1533  0.1660  2.1911
  335MOL0     H45220   5.359   4.436   8.161 -1.1200 -1.4175 -0.3691
  335MOL0     H45221   5.779   4.453   8.264  0.1352 -0.0261 -1.4285
  335MOL0     H45222   5.635   4.211   7.731 -0.7864 -0.1756 -1.4614
  335MOL0     H45223   5.911   4.035   7.610 -2.8703 -4.2758  1.9966
  335MOL0     H45224   5.957   4.131   7.749  1.4163  2.4194 -3.9292
  335MOL0     H45225   5.793   4.043   7.738  1.1032 -1.3356  1.4529
  336MOL0     O45226   1.633   0.713   4.383  0.2749 -0.4498 -0.0677
  336MOL0     C45227   1.738   0.712   4.328 -0.1448  0.2736 -0.2109
  336MOL0     O45228   1.766   0.635   4.211 -0.0754  0.4539 -0.0120
  336MOL0     C45229   1.672   0.539   4.171 -1.0585  0.1030 -0.1720
  336MOL0     C45230   1.705   0.406   4.194  0.2590 -0.0035  0.0239
  336MOL0     C45231   1.618   0.302   4.178  1.2338 -0.0528 -0.1212
  336MOL0     C45232   1.484   0.316   4.134  0.8664 -0.5112  0.2229
  336MOL0     O45233   1.382   0.225   4.138 -0.3048 -0.0382  0.1716
  336MOL0     C45234   1.389   0.089   4.166 -0.2164  0.9144  0.1045
  336MOL0     C45235   1.259   0.013   4.147  0.1383  0.8540  0.0467
  336MOL0     C45236   1.204   0.035   4.011  1.6580  0.9921  0.1152
  336MOL0     C45237   1.083  -0.049   3.982  0.2438 -0.2013 -0.3712
  336MOL0     C45238   1.028  -0.011   3.837  0.9905 -0.4324 -0.4285
  336MOL0     C45239   0.881  -0.079   3.836 -0.6427 -0.3598  0.1538
  336MOL0     C45240   0.807  -0.076   3.697 -0.8133 -0.1633  0.0362
  336MOL0     C45241   0.654  -0.079   3.713  0.3027  0.6190 -0.2706
  336MOL0     N45242   0.621  -0.202   3.784 -0.4076  0.1455  0.5603
  336MOL0     C45243   0.561  -0.314   3.738  0.4831 -0.1438  0.7124
  336MOL0     C45244   0.538  -0.398   3.846  0.2807 -0.6625 -0.0417
  336MOL0     C45245   0.470  -0.528   3.836  0.3360  0.4734 -0.2596
  336MOL0     C45246   0.552  -0.649   3.787 -0.7508 -0.9541  0.2963
  336MOL0     C45247   0.667  -0.688   3.884 -0.5269  0.2060 -0.3805
  336MOL0     C45248   0.797  -0.600   3.871 -0.5776 -1.6244  0.9112
  336MOL0     O45249   0.845  -0.601   3.735 -0.1259  0.3505  0.6945
  336MOL0     C45250   0.977  -0.575   3.737 -0.3962  0.0123 -0.8075
  336MOL0     C45251   1.022  -0.444   3.751  0.9819 -0.3998 -0.5048
  336MOL0     C45252   1.159  -0.424   3.786 -0.2541 -0.4114 -0.8132
  336MOL0     C45253   1.246  -0.530   3.808  0.1185  0.4682  0.6864
  336MOL0     C45254   1.394  -0.510   3.832  0.4228  0.4611 -0.9957
  336MOL0     O45255   1.490  -0.613   3.813  0.5149 -0.0858 -0.9177
  336MOL0     C45256   1.624  -0.604   3.843  0.3713 -0.5238 -0.3546
  336MOL0     C45257   1.666  -0.602   3.973 -0.1694 -0.2795  0.0924
  336MOL0     C45258   1.801  -0.616   3.998 -0.3277  0.6202  0.5375
  336MOL0     C45259   1.901  -0.641   3.895  0.8866  0.7590 -0.4567
  336MOL0     O45260   2.035  -0.669   3.918  0.1240 -0.6000  0.1071
  336MOL0     C45261   2.093  -0.629   4.042 -0.1322 -0.0724 -0.1137
  336MOL0     C45262   2.237  -0.604   4.024  0.0733  0.2088  0.4500
  336MOL0     C45263   2.296  -0.554   4.156  0.2557 -0.3065  0.4307
  336MOL0     C45264   2.417  -0.473   4.119  0.0847 -0.7711 -0.1865
  336MOL0     C45265   2.543  -0.563   4.119  0.8065  0.0386  0.1010
  336MOL0     C45266   2.664  -0.480   4.103  0.1495  0.3912 -0.3163
  336MOL0     C45267   2.787  -0.564   4.089 -0.2088  0.1985  0.3733
  336MOL0     C45268   2.895  -0.498   3.992 -0.4624  0.6814  0.7040
  336MOL0    Cl45269   2.827  -0.472   3.821 -0.0705 -0.4505 -0.0424
  336MOL0     C45270   1.853  -0.629   3.763 -0.2312 -0.5739 -0.1664
  336MOL0     C45271   1.720  -0.619   3.740  0.6309  0.4435 -0.4135
  336MOL0     O45272   1.417  -0.395   3.865  0.2284 -0.6875  0.4380
  336MOL0     C45273   1.201  -0.657   3.778 -0.2684  0.3525 -0.1794
  336MOL0     C45274   1.067  -0.682   3.749 -0.6709  0.2288  0.0048
  336MOL0     N45275   0.587  -0.334   3.958 -0.0744  0.0266  0.3019
  336MOL0     N45276   0.635  -0.217   3.921 -0.4211 -0.6537 -0.1639
  336MOL0     C45277   1.455   0.443   4.095 -0.0854 -1.2065 -0.2026
  336MOL0     C45278   1.539   0.556   4.126 -0.4932 -0.5542  0.1230
  336MOL0     C45279   1.852   0.789   4.381 -0.0486 -0.8125  1.1139
  336MOL0     C45280   1.977   0.728   4.360 -0.0944  0.0600  0.7366
  336MOL0     C45281   2.090   0.792   4.396  0.1282 -0.9233 -0.9245
  336MOL0     C45282   2.086   0.912   4.475  0.6026  1.1369  1.3559
  336MOL0     O45283   2.195   0.971   4.533 -0.3335  0.0158 -0.1564
  336MOL0     C45284   2.330   0.950   4.483 -0.1876  0.0795 -1.1060
  336MOL0     C45285   2.421   0.999   4.586 -0.3489 -0.5049  0.1317
  336MOL0     C45286   2.447   1.149   4.570  0.7594  0.0931  0.5707
  336MOL0     C45287   2.324   1.245   4.597 -0.9545  0.1826  0.5804
  336MOL0     C45288   2.260   1.262   4.462 -0.3266 -1.1394  0.2245
  336MOL0     C45289   2.219   1.303   4.356 -0.6171 -0.2139  0.4382
  336MOL0     C45290   1.960   0.971   4.489 -0.7631 -0.2347 -0.2854
  336MOL0     C45291   1.845   0.917   4.434  0.1500  1.1318  0.0283
  336MOL0     C45292   1.717   0.997   4.417  0.6455  0.0885 -0.2341
  336MOL0     H45293   1.805   0.392   4.234  1.2321  3.0983 -1.0599
  336MOL0     H45294   1.643   0.204   4.217  2.0369  1.8034  4.6653
  336MOL0     H45295   1.456   0.042   4.093 -2.1764 -2.3518  0.2080
  336MOL0     H45296   1.425   0.069   4.267  0.0676  1.8243  0.1991
  336MOL0     H45297   1.188   0.054   4.220  0.0019  1.0509 -0.1946
  336MOL0     H45298   1.272  -0.092   4.173  0.6117  0.3358 -2.1081
  336MOL0     H45299   1.283   0.002   3.943  1.6299 -2.0545  1.4079
  336MOL0     H45300   1.173   0.138   3.991 -1.4948  0.0085 -0.5503
  336MOL0     H45301   1.111  -0.154   3.976 -3.5054 -1.3369 -1.1649
  336MOL0     H45302   1.008  -0.044   4.062 -1.0619  2.6067 -1.6077
  336MOL0     H45303   1.021   0.097   3.824  3.2265 -0.1826  0.0447
  336MOL0     H45304   1.089  -0.049   3.755 -0.9220  0.1433 -2.2073
  336MOL0     H45305   0.900  -0.185   3.855  2.3831 -0.3509 -2.0583
  336MOL0     H45306   0.822  -0.027   3.912  0.6032 -0.5525  1.3006
  336MOL0     H45307   0.848  -0.152   3.630  2.5513  1.9742 -0.5573
  336MOL0     H45308   0.831   0.023   3.655 -0.1027  1.0169  2.9789
  336MOL0     H45309   0.616  -0.002   3.781 -2.1459  0.6500 -1.5647
  336MOL0     H45310   0.610  -0.078   3.613 -0.5423 -3.1871 -0.0923
  336MOL0     H45311   0.532  -0.337   3.636 -0.6785  2.3482  0.4090
  336MOL0     H45312   0.425  -0.549   3.933  2.0900  0.6977  0.6412
  336MOL0     H45313   0.392  -0.506   3.762 -0.5527  0.9751  0.7961
  336MOL0     H45314   0.481  -0.730   3.770  0.1668 -1.0508 -4.2725
  336MOL0     H45315   0.591  -0.638   3.685 -1.6028 -0.6753 -0.0102
  336MOL0     H45316   0.701  -0.789   3.863 -0.9383  0.1004 -0.5592
  336MOL0     H45317   0.617  -0.683   3.981 -1.1232  0.5397 -0.6944
  336MOL0     H45318   0.869  -0.655   3.933  2.3899 -2.7286 -3.0809
  336MOL0     H45319   0.798  -0.497   3.907  3.3232 -1.4488  0.8042
  336MOL0     H45320   0.952  -0.366   3.723  0.8016 -1.0603 -1.9806
  336MOL0     H45321   1.204  -0.326   3.796  0.2400 -0.8580  4.6642
  336MOL0     H45322   1.598  -0.598   4.057 -1.4528 -1.6831 -0.8197
  336MOL0     H45323   1.828  -0.620   4.103 -3.4078 -1.0921  1.4103
  336MOL0     H45324   2.048  -0.539   4.083 -0.7196 -1.0072  1.3870
  336MOL0     H45325   2.074  -0.710   4.113  2.3158 -0.3379  0.3325
  336MOL0     H45326   2.281  -0.701   4.000 -0.0093  0.4999 -0.9744
  336MOL0     H45327   2.256  -0.541   3.937  5.0096 -0.1669  0.9647
  336MOL0     H45328   2.228  -0.484   4.206  1.8418  1.8761 -0.3282
  336MOL0     H45329   2.320  -0.634   4.226 -2.2979 -1.5337  0.0535
  336MOL0     H45330   2.426  -0.387   4.186  3.6285 -0.3012 -1.0315
  336MOL0     H45331   2.403  -0.438   4.016  1.4357 -0.2737 -0.2292
  336MOL0     H45332   2.534  -0.629   4.032 -1.3815  0.7046 -0.2483
  336MOL0     H45333   2.539  -0.634   4.201  1.3345 -1.5916 -1.2276
  336MOL0     H45334   2.648  -0.412   4.019 -0.0472  3.8472  2.2870
  336MOL0     H45335   2.673  -0.416   4.191 -0.6014 -1.6748  1.3639
  336MOL0     H45336   2.755  -0.658   4.045 -1.1817  0.2203  1.0268
  336MOL0     H45337   2.837  -0.588   4.183 -0.5338  0.2076  0.5469
  336MOL0     H45338   2.934  -0.409   4.042 -0.3054  1.1355 -0.2088
  336MOL0     H45339   2.975  -0.572   3.978 -1.4078 -0.1474 -0.5981
  336MOL0     H45340   1.911  -0.641   3.673  1.9836 -0.5658  1.1919
  336MOL0     H45341   1.692  -0.628   3.635  1.5478 -2.3347 -0.4981
  336MOL0     H45342   1.259  -0.748   3.787  0.3634  0.5382 -2.0408
  336MOL0     H45343   1.018  -0.776   3.722 -2.6911  0.6984  1.8099
  336MOL0     H45344   1.350   0.457   4.071 -0.4941 -1.6802  1.2174
  336MOL0     H45345   1.510   0.659   4.107 -2.0924 -1.2129 -1.3255
  336MOL0     H45346   1.978   0.638   4.300  2.7712 -0.4973  1.4800
  336MOL0     H45347   2.175   0.747   4.344 -2.8915 -6.5951 -1.7084
  336MOL0     H45348   2.354   0.986   4.383  3.1442 -0.7275 -0.7307
  336MOL0     H45349   2.337   0.840   4.486  2.1105  0.1981 -0.0075
  336MOL0     H45350   2.510   0.935   4.589 -0.2358 -0.3382  0.3974
  336MOL0     H45351   2.385   0.988   4.689  0.2751  0.9039  0.5277
  336MOL0     H45352   2.493   1.171   4.474  2.0318  1.3216  1.4327
  336MOL0     H45353   2.529   1.175   4.638  1.1851 -2.5091  1.1570
  336MOL0     H45354   2.248   1.212   4.667 -0.0311 -0.0050  1.5140
  336MOL0     H45355   2.364   1.337   4.642  0.6641 -1.2975  2.3439
  336MOL0     H45356   2.174   1.325   4.262 -1.6988 -0.8098  0.7993
  336MOL0     H45357   1.938   1.068   4.534 -0.6526 -1.3095  2.2441
  336MOL0     H45358   1.716   1.095   4.466  0.2711 -0.7367  1.4711
  336MOL0     H45359   1.692   1.004   4.311  1.5033 -1.6653 -0.5865
  336MOL0     H45360   1.631   0.939   4.451  1.4398 -3.1881 -3.2551
  337MOL0     O45361  10.381   5.425   6.795 -0.4951  0.5269  0.0788
  337MOL0     C45362  10.421   5.418   6.680 -0.5832 -0.4964 -0.2415
  337MOL0     O45363  10.354   5.468   6.581 -0.3808 -0.8388 -0.6786
  337MOL0     C45364  10.232   5.530   6.599  0.3529  0.3784  1.2939
  337MOL0     C45365  10.225   5.665   6.640 -0.3599 -0.0155  0.1562
  337MOL0     C45366  10.106   5.737   6.649 -0.9821 -0.2805 -0.3836
  337MOL0     C45367   9.989   5.669   6.616 -0.2788 -0.1278  0.4926
  337MOL0     O45368   9.868   5.728   6.631 -0.0192  0.0148  0.3450
  337MOL0     C45369   9.749   5.697   6.545  0.1450  0.0069 -0.4270
  337MOL0     C45370   9.652   5.818   6.554 -0.3751 -0.0858  0.2962
  337MOL0     C45371   9.604   5.852   6.684  0.4746  0.1264 -0.5890
  337MOL0     C45372   9.500   5.962   6.667  0.6404  0.0213 -0.0992
  337MOL0     C45373   9.471   6.033   6.792 -0.1987 -0.7364 -0.4923
  337MOL0     C45374   9.367   6.141   6.786  0.4358 -0.1651 -0.8634
  337MOL0     C45375   9.346   6.220   6.918  0.2853 -0.4766  0.0182
  337MOL0     C45376   9.451   6.329   6.949 -0.9148  0.2108 -0.1928
  337MOL0     N45377   9.399   6.466   6.927 -0.1614 -0.0964 -0.4266
  337MOL0     C45378   9.399   6.525   6.804 -0.0674  0.7272 -0.4344
  337MOL0     C45379   9.335   6.640   6.831 -0.3096  0.4226 -0.4285
  337MOL0     C45380   9.327   6.768   6.748 -0.0650  0.9421 -1.1280
  337MOL0     C45381   9.435   6.864   6.786  0.2964 -0.2615 -0.3431
  337MOL0     C45382   9.501   6.925   6.664  1.4464  0.0217 -0.0478
  337MOL0     C45383   9.633   6.983   6.701 -0.5768  0.3015 -1.0035
  337MOL0     O45384   9.684   7.047   6.583  0.3198 -0.4204 -0.3460
  337MOL0     C45385   9.812   7.079   6.585  0.4347  0.3327 -0.4579
  337MOL0     C45386   9.917   6.986   6.592 -1.1135  0.2276  0.8308
  337MOL0     C45387  10.052   7.019   6.565  1.3680  0.1760 -0.0532
  337MOL0     C45388  10.080   7.155   6.530 -0.0410 -1.8170 -1.1161
  337MOL0     C45389  10.213   7.203   6.490 -0.0677  0.5660 -0.3312
  337MOL0     O45390  10.240   7.333   6.454  0.5086  0.0322  0.1712
  337MOL0     C45391  10.373   7.363   6.425 -1.3847  0.6066  0.6148
  337MOL0     C45392  10.413   7.372   6.287 -0.4318 -0.2115 -0.1535
  337MOL0     C45393  10.550   7.391   6.257 -0.1739 -0.1950 -0.3379
  337MOL0     C45394  10.641   7.427   6.356 -0.7717 -0.5091 -0.2770
  337MOL0     O45395  10.778   7.447   6.335 -0.2448  0.1859 -0.5078
  337MOL0     C45396  10.826   7.478   6.199 -0.0801  0.0838  0.2622
  337MOL0     C45397  10.858   7.357   6.109  0.8862  0.3430  0.0402
  337MOL0     C45398  10.993   7.290   6.156  0.0873  0.3465  0.0311
  337MOL0     C45399  11.028   7.167   6.077  0.9158 -0.1173  0.9530
  337MOL0     C45400  11.117   7.074   6.141 -0.0988 -0.8019  0.7084
  337MOL0     C45401  11.157   6.958   6.042  0.3863 -0.6933  0.7565
  337MOL0     C45402  11.263   6.858   6.083  0.0153  0.2110 -0.5051
  337MOL0     C45403  11.232   6.807   6.228 -0.1656  0.4882 -0.2724
  337MOL0    Cl45404  11.108   6.675   6.190  0.4958 -0.2233 -0.0178
  337MOL0     C45405  10.603   7.415   6.489  0.4865  0.1901 -0.1159
  337MOL0     C45406  10.467   7.386   6.522  0.6774  1.0289 -0.8285
  337MOL0     O45407  10.292   7.116   6.490 -0.3424  0.2279  0.0250
  337MOL0     C45408   9.969   7.245   6.534 -0.1022 -0.3184 -0.1013
  337MOL0     C45409   9.842   7.210   6.563  0.2607  0.1351 -0.4405
  337MOL0     N45410   9.295   6.640   6.962 -0.6152  0.5277  0.4905
  337MOL0     N45411   9.330   6.530   7.023 -0.2247 -0.1045  0.3690
  337MOL0     C45412   9.995   5.533   6.585 -0.0078  1.1340  0.1232
  337MOL0     C45413  10.115   5.463   6.577  0.0565 -0.0162  0.2853
  337MOL0     C45414  10.554   5.363   6.658  0.6823  0.3224  0.1169
  337MOL0     C45415  10.622   5.309   6.766  0.1409  0.6553  0.1772
  337MOL0     C45416  10.755   5.257   6.758  0.2337 -0.8078 -1.2753
  337MOL0     C45417  10.826   5.253   6.634  0.5219  0.2360 -1.9246
  337MOL0     O45418  10.956   5.215   6.620  0.0801 -0.7190 -0.8748
  337MOL0     C45419  11.000   5.147   6.505 -0.4504  1.5060  0.4143
  337MOL0     C45420  11.092   5.042   6.557 -0.8838  0.1350  0.0415
  337MOL0     C45421  11.167   4.956   6.453  0.1992  0.4008 -0.8896
  337MOL0     C45422  11.079   4.825   6.431 -0.1423  0.6920  0.0342
  337MOL0     C45423  10.975   4.851   6.330 -0.1997  0.0738  0.1115
  337MOL0     C45424  10.899   4.872   6.243 -0.2286  0.4413 -0.7291
  337MOL0     C45425  10.758   5.313   6.525  1.2859 -0.0389 -0.0115
  337MOL0     C45426  10.626   5.373   6.535  0.7509 -0.2661  0.5386
  337MOL0     C45427  10.579   5.443   6.406 -0.3517 -0.2091 -0.0647
  337MOL0     H45428  10.319   5.720   6.639 -0.0730 -0.4917 -1.3184
  337MOL0     H45429  10.115   5.837   6.690  0.8145 -0.9884  1.1122
  337MOL0     H45430   9.778   5.677   6.442 -0.2490  1.4187 -0.8319
  337MOL0     H45431   9.706   5.605   6.585  3.7445 -2.5664 -1.9285
  337MOL0     H45432   9.568   5.785   6.492  0.3653 -2.0655  0.2847
  337MOL0     H45433   9.713   5.900   6.516  0.0435 -0.6877 -0.3493
  337MOL0     H45434   9.695   5.889   6.731 -0.4202  2.3142 -0.4530
  337MOL0     H45435   9.558   5.776   6.749 -0.7876  1.8598  0.6406
  337MOL0     H45436   9.525   6.038   6.593  1.6580  0.5467  0.7606
  337MOL0     H45437   9.406   5.917   6.635  0.9887 -1.1711  0.4873
  337MOL0     H45438   9.454   5.962   6.873  4.0109 -2.5581 -0.9437
  337MOL0     H45439   9.567   6.081   6.815 -1.2843  1.9263 -1.2274
  337MOL0     H45440   9.397   6.209   6.706  1.4097 -0.6666 -0.9328
  337MOL0     H45441   9.270   6.096   6.762  1.3557 -2.2655 -0.7719
  337MOL0     H45442   9.333   6.151   7.002  0.0194 -2.4274 -1.5499
  337MOL0     H45443   9.257   6.281   6.903  1.0850  1.6367  2.9018
  337MOL0     H45444   9.474   6.311   7.055 -3.1445  0.0881  0.3182
  337MOL0     H45445   9.537   6.310   6.884 -1.0596 -0.1329 -0.2845
  337MOL0     H45446   9.436   6.480   6.712 -1.5237 -3.0297  0.6331
  337MOL0     H45447   9.338   6.739   6.643  2.9685 -0.6175 -0.4798
  337MOL0     H45448   9.228   6.809   6.771 -0.0108  1.0919 -1.1577
  337MOL0     H45449   9.399   6.948   6.847  1.8919 -3.5205  6.0032
  337MOL0     H45450   9.504   6.821   6.859  0.6021  1.4501  0.4522
  337MOL0     H45451   9.432   6.996   6.618  1.2018  0.8446  1.5314
  337MOL0     H45452   9.523   6.844   6.594  0.3631 -1.1358  0.8890
  337MOL0     H45453   9.698   6.905   6.742  0.7574  2.7792  2.0691
  337MOL0     H45454   9.603   7.060   6.773  0.0194  0.7026 -1.1779
  337MOL0     H45455   9.890   6.882   6.604  0.1657 -0.8395 -3.6495
  337MOL0     H45456  10.136   6.951   6.574  1.2739  0.0714  0.0327
  337MOL0     H45457  10.344   7.363   6.204 -1.7152  2.7605  0.4588
  337MOL0     H45458  10.585   7.390   6.154  2.5806 -0.0201  0.5344
  337MOL0     H45459  10.743   7.516   6.138  1.2297 -0.4409 -1.9550
  337MOL0     H45460  10.904   7.554   6.206 -0.4599  0.6189 -0.9984
  337MOL0     H45461  10.780   7.281   6.102  1.7971 -0.6589  0.4882
  337MOL0     H45462  10.863   7.408   6.012  2.5901  0.6065  0.2255
  337MOL0     H45463  11.071   7.366   6.149  2.1529 -1.7499 -1.3720
  337MOL0     H45464  10.987   7.267   6.263  0.4235  1.6582  0.3401
  337MOL0     H45465  11.072   7.194   5.981  1.0001 -1.3771  0.6150
  337MOL0     H45466  10.927   7.124   6.074  0.5238  0.5561  2.7908
  337MOL0     H45467  11.059   7.036   6.225 -0.2825  0.8284  1.3393
  337MOL0     H45468  11.204   7.120   6.189 -2.3216 -0.1294  4.4743
  337MOL0     H45469  11.071   6.895   6.016  1.2128 -1.2376 -0.7564
  337MOL0     H45470  11.192   6.989   5.943 -1.8465 -0.9072 -0.1415
  337MOL0     H45471  11.362   6.903   6.072  1.1501 -1.8793  0.5135
  337MOL0     H45472  11.272   6.777   6.010 -2.2325  0.9485 -1.7133
  337MOL0     H45473  11.322   6.762   6.270 -0.4226  1.9953  2.0408
  337MOL0     H45474  11.194   6.887   6.292 -2.1087  1.1573 -2.1116
  337MOL0     H45475  10.686   7.428   6.558 -0.9004  1.7884  1.3440
  337MOL0     H45476  10.428   7.374   6.623 -1.7113 -1.8906 -1.9467
  337MOL0     H45477   9.996   7.350   6.525  2.2714 -0.7922  0.9991
  337MOL0     H45478   9.770   7.292   6.559 -0.3041 -0.3825 -2.8968
  337MOL0     H45479   9.909   5.469   6.565  1.2611 -0.0459 -1.7851
  337MOL0     H45480  10.116   5.357   6.554 -4.4475 -0.0375 -0.7692
  337MOL0     H45481  10.571   5.291   6.860  0.6101  1.4489  0.5900
  337MOL0     H45482  10.816   5.231   6.844 -1.1560  2.2176  0.7889
  337MOL0     H45483  11.043   5.222   6.438  1.3668 -0.3275 -0.5953
  337MOL0     H45484  10.917   5.107   6.445  0.5182 -1.6891  0.9921
  337MOL0     H45485  11.052   4.980   6.637  1.3095 -0.7170  0.5548
  337MOL0     H45486  11.167   5.101   6.610 -0.1677 -0.6072 -0.1196
  337MOL0     H45487  11.264   4.928   6.495 -0.2668 -1.3768 -0.9047
  337MOL0     H45488  11.193   5.012   6.363  1.7481  1.4600  0.1709
  337MOL0     H45489  11.138   4.743   6.390 -0.7677  0.3457 -0.1771
  337MOL0     H45490  11.039   4.791   6.526 -0.0460  0.4987  0.0056
  337MOL0     H45491  10.827   4.901   6.169  0.2764  0.4727 -1.2181
  337MOL0     H45492  10.813   5.310   6.431  1.6249  0.6930  0.1485
  337MOL0     H45493  10.668   5.465   6.347 -0.9566  2.5078 -0.0613
  337MOL0     H45494  10.502   5.380   6.360 -0.5179 -3.0673  3.6074
  337MOL0     H45495  10.532   5.537   6.436 -2.5788 -1.6436  1.2591
  338MOL0     O45496   5.095   2.083   2.269  0.4248  0.7829  0.4396
  338MOL0     C45497   5.109   2.149   2.163  0.2043 -0.2016 -0.2311
  338MOL0     O45498   5.219   2.230   2.128  0.3921 -0.1950  0.4976
  338MOL0     C45499   5.336   2.232   2.211  0.3486 -0.1021 -0.3489
  338MOL0     C45500   5.327   2.256   2.357 -0.7175  0.4354  1.4473
  338MOL0     C45501   5.435   2.229   2.444  0.3982 -0.3123 -0.2139
  338MOL0     C45502   5.560   2.207   2.389 -0.3386  0.0291  0.8518
  338MOL0     O45503   5.660   2.202   2.484 -0.3157 -0.1951  0.5567
  338MOL0     C45504   5.803   2.198   2.439  0.3242  0.1291 -0.8932
  338MOL0     C45505   5.905   2.230   2.552  0.7531  0.9606  0.1660
  338MOL0     C45506   6.048   2.223   2.518 -0.9042  0.0774  0.4413
  338MOL0     C45507   6.134   2.191   2.633 -0.2340 -0.3008  0.6310
  338MOL0     C45508   6.283   2.178   2.594  0.5668  0.4675 -0.7106
  338MOL0     C45509   6.366   2.163   2.726  0.4064 -0.7718  0.1119
  338MOL0     C45510   6.501   2.225   2.716  0.3387  1.1731 -0.6044
  338MOL0     C45511   6.505   2.374   2.760  0.4508  0.6843 -0.3738
  338MOL0     N45512   6.639   2.427   2.763 -0.5766 -0.2354 -0.4118
  338MOL0     C45513   6.729   2.402   2.872 -0.5519 -0.0698  0.4350
  338MOL0     C45514   6.853   2.432   2.815 -0.3380 -0.6308  0.9163
  338MOL0     C45515   6.987   2.409   2.879  0.2330 -0.7842  0.1642
  338MOL0     C45516   6.999   2.326   3.000  0.2434 -0.1754 -0.5923
  338MOL0     C45517   7.106   2.221   2.980 -0.2389  0.1858  0.9567
  338MOL0     C45518   7.246   2.273   2.961 -0.0923  0.0194 -0.5747
  338MOL0     O45519   7.279   2.313   3.098  0.1070 -0.0874  0.3303
  338MOL0     C45520   7.416   2.342   3.106  0.9386  0.3821 -0.3136
  338MOL0     C45521   7.477   2.298   3.223 -0.2302 -0.7719  0.6030
  338MOL0     C45522   7.616   2.271   3.224  0.9045 -0.4855 -1.5586
  338MOL0     C45523   7.695   2.330   3.121 -1.0393 -0.3959  0.8394
  338MOL0     C45524   7.845   2.324   3.127 -0.0289  1.3488 -0.0996
  338MOL0     O45525   7.914   2.425   3.067  0.4173  0.2054  0.5256
  338MOL0     C45526   8.048   2.460   3.095 -0.7180  0.5143 -0.2692
  338MOL0     C45527   8.079   2.589   3.059  0.4262  0.3963  0.4745
  338MOL0     C45528   8.203   2.643   3.081 -0.4397 -0.0717  0.1043
  338MOL0     C45529   8.306   2.564   3.133 -0.1035  0.9092 -0.3902
  338MOL0     O45530   8.422   2.630   3.147 -0.4499  0.6939 -0.3963
  338MOL0     C45531   8.545   2.559   3.106  0.6585 -0.4869  0.3613
  338MOL0     C45532   8.648   2.666   3.094  0.1061 -0.0604 -0.2169
  338MOL0     C45533   8.761   2.613   3.002 -1.2328 -0.9960 -0.5264
  338MOL0     C45534   8.892   2.690   2.993 -0.0253 -0.1200  0.0245
  338MOL0     C45535   9.005   2.615   2.931 -0.1834  1.0184  0.3454
  338MOL0     C45536   9.135   2.694   2.922 -0.3570  0.0397  0.2610
  338MOL0     C45537   9.237   2.611   2.846  0.3153  0.1641  0.3024
  338MOL0     C45538   9.368   2.686   2.833 -0.1018 -1.2482 -0.6220
  338MOL0    Cl45539   9.430   2.765   2.977  0.1696  0.5239 -0.0153
  338MOL0     C45540   8.281   2.424   3.171 -0.2356 -0.8021  0.0830
  338MOL0     C45541   8.155   2.378   3.141 -0.1111 -0.2536 -1.0741
  338MOL0     O45542   7.885   2.238   3.210 -0.6942  0.0910  0.0767
  338MOL0     C45543   7.635   2.388   3.017  0.4384  0.4841  0.5780
  338MOL0     C45544   7.500   2.388   3.002  0.0559  0.3402 -0.4850
  338MOL0     N45545   6.836   2.481   2.688 -0.8024 -1.4254  0.4900
  338MOL0     N45546   6.713   2.480   2.666  0.1145  0.4876  1.2775
  338MOL0     C45547   5.567   2.198   2.244 -0.7901 -0.3637 -0.4677
  338MOL0     C45548   5.457   2.205   2.160 -0.2548  0.2993  0.0297
  338MOL0     C45549   5.000   2.152   2.064  0.0466 -0.1630 -0.1681
  338MOL0     C45550   4.955   2.280   2.023 -0.5422 -0.1965 -0.6239
  338MOL0     C45551   4.844   2.297   1.942  0.6716  0.3976  0.1643
  338MOL0     C45552   4.777   2.185   1.885 -0.3791 -0.1474 -0.3660
  338MOL0     O45553   4.680   2.175   1.785  0.5515 -0.3703 -0.9501
  338MOL0     C45554   4.627   2.309   1.745 -1.0621 -0.5637 -0.0178
  338MOL0     C45555   4.529   2.290   1.631 -0.2352 -0.7587 -0.4313
  338MOL0     C45556   4.452   2.414   1.598  0.7114 -0.0125 -0.7750
  338MOL0     C45557   4.397   2.401   1.458  0.4156  0.3545  0.1709
  338MOL0     C45558   4.335   2.526   1.424 -0.2598  1.0638 -0.5603
  338MOL0     C45559   4.279   2.633   1.408 -0.1703 -0.2895  0.3746
  338MOL0     C45560   4.828   2.059   1.928  0.3551  0.0768 -0.0177
  338MOL0     C45561   4.941   2.035   2.011  0.7928 -0.2128  0.2479
  338MOL0     C45562   4.990   1.897   2.038 -0.3825  0.2133  0.2168
  338MOL0     H45563   5.239   2.304   2.400 -0.6089  1.5601  0.4710
  338MOL0     H45564   5.412   2.238   2.550 -2.4620 -1.8176 -0.6001
  338MOL0     H45565   5.835   2.113   2.377  3.6730  2.0514 -2.0398
  338MOL0     H45566   5.805   2.284   2.372  2.1297  1.8788  1.2710
  338MOL0     H45567   5.891   2.161   2.636  1.3477 -0.1891 -0.6524
  338MOL0     H45568   5.881   2.330   2.588  2.9103  1.5010  0.2026
  338MOL0     H45569   6.076   2.319   2.473 -0.4698  0.2512  1.0561
  338MOL0     H45570   6.055   2.139   2.449  0.8203 -0.0900  0.7816
  338MOL0     H45571   6.122   2.263   2.714  1.2528  0.0742  0.5436
  338MOL0     H45572   6.106   2.091   2.669  1.2030 -0.0794  2.4851
  338MOL0     H45573   6.296   2.085   2.538 -0.6465 -0.5165  0.5513
  338MOL0     H45574   6.323   2.262   2.537  2.9312  1.3715  2.0485
  338MOL0     H45575   6.317   2.215   2.808 -0.1503  0.7637 -1.1532
  338MOL0     H45576   6.377   2.060   2.762 -2.9739  0.3177  5.1929
  338MOL0     H45577   6.535   2.223   2.612  1.3828  1.1317 -0.2748
  338MOL0     H45578   6.567   2.168   2.781 -2.8647 -2.9749 -0.5840
  338MOL0     H45579   6.451   2.445   2.697  1.3383 -0.0914 -2.0681
  338MOL0     H45580   6.472   2.378   2.864 -0.8777 -1.7897 -0.6361
  338MOL0     H45581   6.721   2.363   2.973  1.6601  2.9611  1.9300
  338MOL0     H45582   7.048   2.370   2.797  0.2655  1.7408 -1.0857
  338MOL0     H45583   7.034   2.507   2.888  2.8473 -2.0397  1.1298
  338MOL0     H45584   7.016   2.393   3.084  0.3700  0.1708 -0.8932
  338MOL0     H45585   6.911   2.267   3.026 -0.1966 -0.3374 -2.3225
  338MOL0     H45586   7.083   2.157   2.894  2.1137 -1.6253  1.5657
  338MOL0     H45587   7.104   2.159   3.070  1.1973 -2.2254 -0.5761
  338MOL0     H45588   7.261   2.359   2.896 -0.5431  2.9804  2.9328
  338MOL0     H45589   7.306   2.188   2.925  0.7930  0.4963 -0.2494
  338MOL0     H45590   7.423   2.274   3.314 -0.3215  0.6668  0.9575
  338MOL0     H45591   7.655   2.228   3.315  0.9972  0.5498 -1.0884
  338MOL0     H45592   7.996   2.644   3.015  1.5187  2.0466  0.3986
  338MOL0     H45593   8.218   2.748   3.056  1.1739 -0.6167 -1.3879
  338MOL0     H45594   8.566   2.488   3.187 -0.8037 -0.8026  0.4907
  338MOL0     H45595   8.524   2.507   3.012  0.4229 -0.1426  0.2207
  338MOL0     H45596   8.611   2.762   3.058  0.9439 -0.6346 -2.7695
  338MOL0     H45597   8.688   2.683   3.195  1.1599 -0.2871 -0.5803
  338MOL0     H45598   8.780   2.511   3.038  0.6587 -0.7703 -0.7981
  338MOL0     H45599   8.710   2.601   2.907 -2.1372  0.0587 -0.1929
  338MOL0     H45600   8.928   2.727   3.089  2.2135 -0.3284 -0.6765
  338MOL0     H45601   8.887   2.784   2.937  2.5193  0.4459  0.5927
  338MOL0     H45602   8.972   2.580   2.833 -1.2510  1.0284  0.6802
  338MOL0     H45603   9.029   2.528   2.992 -1.6874 -1.8478 -2.8271
  338MOL0     H45604   9.111   2.794   2.887  1.9367  1.2556  1.8990
  338MOL0     H45605   9.172   2.713   3.023  0.2192  2.8052 -0.3892
  338MOL0     H45606   9.187   2.588   2.751  0.5813  2.0480 -0.3345
  338MOL0     H45607   9.264   2.518   2.897 -1.5504 -0.3203  0.4889
  338MOL0     H45608   9.435   2.615   2.783 -0.3873 -1.7749 -0.2684
  338MOL0     H45609   9.346   2.766   2.762  2.6164  1.5317  1.3483
  338MOL0     H45610   8.353   2.365   3.227  0.2648 -0.6033 -0.3486
  338MOL0     H45611   8.125   2.281   3.180 -1.5138  0.3229 -0.6760
  338MOL0     H45612   7.682   2.437   2.933 -2.9102  1.1913 -1.0535
  338MOL0     H45613   7.458   2.443   2.919  0.9115 -0.5732 -1.5538
  338MOL0     H45614   5.669   2.190   2.208  0.0008  3.9409  0.2039
  338MOL0     H45615   5.467   2.172   2.058 -1.5899 -0.3142  0.0719
  338MOL0     H45616   4.992   2.376   2.059 -0.7909 -0.2813 -0.1246
  338MOL0     H45617   4.810   2.396   1.917  0.6238  0.2440 -0.3880
  338MOL0     H45618   4.710   2.367   1.705 -0.9039 -1.2328 -0.6802
  338MOL0     H45619   4.591   2.367   1.831  2.8651 -0.1644  1.5509
  338MOL0     H45620   4.465   2.202   1.642 -0.9849 -0.5981 -2.7991
  338MOL0     H45621   4.587   2.262   1.542 -0.6974  0.7147 -1.2217
  338MOL0     H45622   4.512   2.505   1.604 -0.6684  1.0230 -1.9192
  338MOL0     H45623   4.375   2.427   1.675 -2.2767  3.8075 -3.9735
  338MOL0     H45624   4.481   2.381   1.390  1.2697 -1.1382  1.5935
  338MOL0     H45625   4.318   2.326   1.456 -0.5918  1.4013 -1.9300
  338MOL0     H45626   4.223   2.720   1.380 -3.7896 -2.6082 -0.1862
  338MOL0     H45627   4.775   1.977   1.882 -1.4181  1.1502  0.0304
  338MOL0     H45628   4.971   1.859   2.139 -1.2177 -1.0123 -0.3712
  338MOL0     H45629   4.925   1.831   1.981 -0.2591 -1.6807  2.1125
  338MOL0     H45630   5.095   1.879   2.012 -0.4809  1.5282 -1.2252
  339MOL0     O45631   3.684   6.784   4.113  0.3513  0.2616 -0.5010
  339MOL0     C45632   3.692   6.877   4.040  0.0116  0.1477 -0.4792
  339MOL0     O45633   3.753   6.870   3.925  0.4095 -1.0021  0.0393
  339MOL0     C45634   3.870   6.944   3.885  0.8176  0.8863 -1.3016
  339MOL0     C45635   3.919   6.923   3.758  0.1560 -0.4160 -0.2874
  339MOL0     C45636   4.028   6.997   3.715  0.1315 -0.5542  0.1513
  339MOL0     C45637   4.099   7.080   3.803  0.0938 -0.2353 -0.1850
  339MOL0     O45638   4.211   7.138   3.747  0.1167 -0.5734  0.9457
  339MOL0     C45639   4.320   7.157   3.832 -0.4576 -0.0356  0.8233
  339MOL0     C45640   4.413   7.038   3.830 -0.0076  0.1842 -0.2541
  339MOL0     C45641   4.520   7.052   3.944 -0.3556  0.0763  1.3389
  339MOL0     C45642   4.616   7.174   3.925  0.8698  0.6187 -0.1740
  339MOL0     C45643   4.766   7.142   3.894  0.6200  0.2089  0.4721
  339MOL0     C45644   4.843   7.276   3.854 -0.0980 -0.9953  0.2428
  339MOL0     C45645   4.999   7.274   3.840  0.5770  0.4332 -0.3988
  339MOL0     C45646   5.034   7.188   3.725 -0.3578  0.8778  1.5093
  339MOL0     N45647   5.027   7.248   3.595  0.4310 -0.9122 -0.2870
  339MOL0     C45648   4.917   7.242   3.507  0.7452 -0.4057 -0.3475
  339MOL0     C45649   4.964   7.318   3.394 -0.0027  1.1650 -0.0060
  339MOL0     C45650   4.887   7.313   3.255 -0.0987 -0.2913 -0.2417
  339MOL0     C45651   4.886   7.449   3.193  0.1555 -1.0542  0.6452
  339MOL0     C45652   4.853   7.447   3.041  0.2375 -0.1584  0.3580
  339MOL0     C45653   4.851   7.595   2.982  0.2967  0.3113 -0.3002
  339MOL0     O45654   4.944   7.690   3.047 -0.2361 -0.2573 -0.5728
  339MOL0     C45655   5.075   7.681   3.025  0.3558  1.0535 -0.4232
  339MOL0     C45656   5.138   7.572   2.956  0.2174  0.2669 -0.3322
  339MOL0     C45657   5.276   7.567   2.942 -0.4284 -1.2422 -0.2029
  339MOL0     C45658   5.356   7.669   3.003  0.2581 -0.4950 -0.3797
  339MOL0     C45659   5.501   7.659   2.985  0.4771  0.1549  0.5959
  339MOL0     O45660   5.566   7.777   3.013  0.3500  0.1847 -0.5079
  339MOL0     C45661   5.698   7.797   2.992 -0.0271  0.2164  0.8353
  339MOL0     C45662   5.731   7.938   2.978  0.3301  0.9502 -0.2942
  339MOL0     C45663   5.867   7.966   2.963 -0.6811  0.0972 -0.7205
  339MOL0     C45664   5.970   7.868   2.956  0.6461  0.3244  0.0415
  339MOL0     O45665   6.103   7.888   2.936  0.1875  0.2141  0.0428
  339MOL0     C45666   6.144   8.026   2.940  0.5298  0.5105 -0.6168
  339MOL0     C45667   6.286   8.044   2.903 -0.9150  0.3381  0.3312
  339MOL0     C45668   6.335   8.192   2.898 -0.1530  0.5472  0.1321
  339MOL0     C45669   6.284   8.274   2.777  0.0848 -0.6262 -0.9920
  339MOL0     C45670   6.316   8.420   2.812 -1.2044  0.5182  0.0413
  339MOL0     C45671   6.463   8.459   2.844  0.2668  0.1207 -0.1385
  339MOL0     C45672   6.566   8.406   2.745  0.4461  0.2034 -0.2118
  339MOL0     C45673   6.699   8.483   2.751  0.8116 -0.7366  0.7162
  339MOL0    Cl45674   6.677   8.638   2.656 -0.5261 -0.3269  0.6282
  339MOL0     C45675   5.936   7.730   2.977  0.2362  0.0891 -0.1115
  339MOL0     C45676   5.798   7.695   2.990  0.2419 -0.3089  0.6482
  339MOL0     O45677   5.554   7.561   2.927  0.6664 -0.2523  0.5916
  339MOL0     C45678   5.291   7.774   3.062 -0.0370 -0.7827  0.2307
  339MOL0     C45679   5.149   7.784   3.079  0.3425 -0.0666  0.3514
  339MOL0     N45680   5.090   7.362   3.429 -0.7695  0.2533 -0.0426
  339MOL0     N45681   5.128   7.320   3.542  0.2669  0.9947  0.4987
  339MOL0     C45682   4.053   7.093   3.940 -0.4217 -0.6995  1.1015
  339MOL0     C45683   3.937   7.027   3.977  0.4442 -0.3187  0.7461
  339MOL0     C45684   3.645   7.012   4.099  0.5382 -0.2330 -0.1090
  339MOL0     C45685   3.653   7.038   4.236  0.0177  0.1629  0.2681
  339MOL0     C45686   3.618   7.164   4.288 -0.6007 -0.3980  0.4586
  339MOL0     C45687   3.594   7.272   4.198  0.0361  0.9211  0.2008
  339MOL0     O45688   3.600   7.395   4.254 -0.2273 -0.0187 -0.2925
  339MOL0     C45689   3.729   7.459   4.262 -0.5837  0.2948 -0.1169
  339MOL0     C45690   3.706   7.610   4.254  0.0961 -0.3047 -0.4522
  339MOL0     C45691   3.648   7.657   4.130 -0.8028  0.3495  0.3885
  339MOL0     C45692   3.638   7.810   4.125 -0.4317  0.2115  0.0648
  339MOL0     C45693   3.516   7.851   4.061  0.6148  0.0563 -0.2593
  339MOL0     C45694   3.407   7.883   4.018 -0.6944  0.0437 -0.5042
  339MOL0     C45695   3.594   7.256   4.065 -0.5390 -0.1288  0.0099
  339MOL0     C45696   3.616   7.124   4.017  0.6383 -0.1937 -0.0881
  339MOL0     C45697   3.591   7.114   3.875 -0.2134  0.5613  0.7934
  339MOL0     H45698   3.883   6.846   3.690  1.1116 -0.3592 -0.8793
  339MOL0     H45699   4.067   6.981   3.615  0.4678 -1.8938  0.4786
  339MOL0     H45700   4.370   7.243   3.785 -2.3169  0.3950 -0.4591
  339MOL0     H45701   4.292   7.179   3.935 -2.3928 -4.7267  1.5089
  339MOL0     H45702   4.469   7.026   3.737 -1.4986 -1.5980 -0.9759
  339MOL0     H45703   4.361   6.946   3.856  0.8196  0.4860  2.8036
  339MOL0     H45704   4.583   6.963   3.953  0.0742 -0.2711 -3.1626
  339MOL0     H45705   4.464   7.053   4.038 -0.5070  2.0155  1.2571
  339MOL0     H45706   4.586   7.240   3.843  0.2449  1.8587  1.0104
  339MOL0     H45707   4.605   7.224   4.021  0.2779 -0.3394  0.2722
  339MOL0     H45708   4.814   7.093   3.979  0.0306 -2.2782 -0.5547
  339MOL0     H45709   4.777   7.069   3.813 -2.1129  1.4933 -1.1861
  339MOL0     H45710   4.794   7.318   3.765 -0.4833 -3.3809 -0.7408
  339MOL0     H45711   4.822   7.348   3.934  2.4611 -2.1634  2.0982
  339MOL0     H45712   5.038   7.225   3.930 -3.7158 -3.2219 -0.1634
  339MOL0     H45713   5.047   7.371   3.836 -0.2285  1.0059  2.0562
  339MOL0     H45714   5.141   7.169   3.737 -0.3028  1.6377  2.3340
  339MOL0     H45715   4.988   7.089   3.730  0.2847  0.5380  0.6973
  339MOL0     H45716   4.829   7.180   3.518 -1.0871  1.6532 -2.5130
  339MOL0     H45717   4.914   7.238   3.181 -1.6666 -1.5311  0.3637
  339MOL0     H45718   4.785   7.291   3.290  0.0980 -0.0167  0.5285
  339MOL0     H45719   4.826   7.519   3.251 -2.0338 -1.9185 -0.4146
  339MOL0     H45720   4.988   7.487   3.191 -1.6693  4.8225 -1.4804
  339MOL0     H45721   4.753   7.404   3.031 -0.3671  1.1637  0.5969
  339MOL0     H45722   4.920   7.376   2.991  1.5031 -0.6390  2.5983
  339MOL0     H45723   4.754   7.645   2.991 -0.6649 -0.7324 -3.5470
  339MOL0     H45724   4.865   7.579   2.875  3.0014 -2.5813  0.3271
  339MOL0     H45725   5.074   7.505   2.899 -3.4399  2.7081  0.5641
  339MOL0     H45726   5.324   7.489   2.885 -1.5623 -0.7450 -1.9153
  339MOL0     H45727   5.659   8.015   3.003  1.7432  2.1465  0.2375
  339MOL0     H45728   5.895   8.071   2.968 -0.9007  0.2157 -1.8131
  339MOL0     H45729   6.076   8.082   2.876 -3.3620 -3.9891 -1.0317
  339MOL0     H45730   6.147   8.065   3.042 -0.1122  2.0999 -1.1892
  339MOL0     H45731   6.360   7.986   2.958  0.1930  0.5634 -0.8565
  339MOL0     H45732   6.297   8.005   2.801 -1.7436  3.5711 -1.1313
  339MOL0     H45733   6.298   8.236   2.991 -4.2236  1.1514 -1.6079
  339MOL0     H45734   6.444   8.185   2.886 -0.0635  1.4249  0.3744
  339MOL0     H45735   6.177   8.257   2.762  0.4055 -3.7977 -0.2985
  339MOL0     H45736   6.351   8.240   2.698  2.5138  0.6764  0.3871
  339MOL0     H45737   6.240   8.456   2.882 -1.3715  0.9568 -0.3561
  339MOL0     H45738   6.296   8.472   2.718 -0.1113  1.9301  0.5526
  339MOL0     H45739   6.464   8.568   2.850 -1.1708  0.5010 -4.1173
  339MOL0     H45740   6.482   8.423   2.946 -1.4081  0.9996  0.5359
  339MOL0     H45741   6.526   8.398   2.643  0.4061  0.4933 -0.2204
  339MOL0     H45742   6.585   8.300   2.762 -3.7236 -1.1451 -2.4754
  339MOL0     H45743   6.730   8.486   2.856 -2.7526 -2.2945  1.9593
  339MOL0     H45744   6.769   8.422   2.693 -0.5610 -0.0372 -1.8144
  339MOL0     H45745   6.010   7.656   3.005  1.0385  1.7021  2.3200
  339MOL0     H45746   5.789   7.591   3.019 -1.1948  0.1067  1.7890
  339MOL0     H45747   5.355   7.854   3.097 -2.1279  2.1665 -2.1989
  339MOL0     H45748   5.096   7.869   3.121 -0.0454 -0.2520  0.2395
  339MOL0     H45749   4.103   7.152   4.015 -0.2332 -0.0414  0.4689
  339MOL0     H45750   3.924   7.051   4.082  0.7330  0.9396  0.5083
  339MOL0     H45751   3.674   6.958   4.307 -0.5159 -1.7688 -1.6542
  339MOL0     H45752   3.634   7.184   4.394  2.5245  2.8593 -0.4546
  339MOL0     H45753   3.805   7.432   4.188 -0.8118 -1.0990  0.1185
  339MOL0     H45754   3.773   7.429   4.357 -1.1602  0.4095  0.1874
  339MOL0     H45755   3.800   7.664   4.268 -0.0695 -0.1609  0.1401
  339MOL0     H45756   3.642   7.646   4.335  2.0743  3.7624 -0.4344
  339MOL0     H45757   3.553   7.605   4.114 -0.6074  0.5580 -1.6620
  339MOL0     H45758   3.711   7.623   4.048 -0.9633 -4.3947  1.9292
  339MOL0     H45759   3.625   7.855   4.224 -0.9942 -0.7528  0.4336
  339MOL0     H45760   3.726   7.861   4.082 -0.0632  1.4481  2.1634
  339MOL0     H45761   3.312   7.907   3.975 -0.6624  0.6111 -0.2684
  339MOL0     H45762   3.575   7.344   4.004 -0.9088  0.8817  1.5458
  339MOL0     H45763   3.679   7.138   3.814 -2.5203 -0.8065 -3.4772
  339MOL0     H45764   3.554   7.018   3.838 -0.7578  1.5356 -1.2954
  339MOL0     H45765   3.518   7.188   3.843  1.4390  0.9142 -2.6003
  340MOL0     O45766   9.257   3.970   1.034 -0.2796 -0.2560 -0.2332
  340MOL0     C45767   9.284   4.001   1.150  0.1946 -0.6880 -0.0851
  340MOL0     O45768   9.192   3.998   1.257 -0.3290  0.3108 -0.1320
  340MOL0     C45769   9.048   3.990   1.238 -0.8459 -0.3323 -0.7536
  340MOL0     C45770   8.981   3.947   1.350 -0.0827 -0.5892  0.0571
  340MOL0     C45771   8.842   3.946   1.349 -0.7619  0.4343  0.3135
  340MOL0     C45772   8.766   3.975   1.233  0.1223  0.0029  0.6058
  340MOL0     O45773   8.632   3.982   1.227  0.3495 -0.4368  0.0544
  340MOL0     C45774   8.561   3.905   1.326  0.6666  0.6807 -0.0894
  340MOL0     C45775   8.433   3.858   1.249  0.1360  0.0969 -0.5854
  340MOL0     C45776   8.350   3.962   1.179 -0.6995 -0.1355 -0.2906
  340MOL0     C45777   8.199   3.929   1.187  0.1356 -0.3267 -0.1113
  340MOL0     C45778   8.107   4.046   1.160  0.4825 -0.0999 -0.2411
  340MOL0     C45779   7.948   4.035   1.160 -0.8437 -1.8749 -0.1421
  340MOL0     C45780   7.882   3.947   1.271  0.2648 -0.7855  0.2714
  340MOL0     C45781   7.915   3.993   1.413  0.1749  0.1767  0.0079
  340MOL0     N45782   7.813   3.955   1.514 -0.3935 -0.3799  0.1973
  340MOL0     C45783   7.720   4.032   1.587  0.2869 -0.7647 -1.7419
  340MOL0     C45784   7.656   3.933   1.651 -0.0591 -1.1608 -1.0964
  340MOL0     C45785   7.546   3.963   1.755  0.1455  0.1740  0.1775
  340MOL0     C45786   7.587   3.939   1.897 -0.1558 -0.8777 -0.2351
  340MOL0     C45787   7.487   4.002   1.993 -0.3397  0.4482  0.5698
  340MOL0     C45788   7.399   3.893   2.041  0.4804  1.2639 -0.0703
  340MOL0     O45789   7.486   3.812   2.129  0.1198 -0.5079 -0.6491
  340MOL0     C45790   7.416   3.723   2.212 -0.9122  0.6292  0.9447
  340MOL0     C45791   7.500   3.627   2.266 -0.2141 -0.2454  0.9382
  340MOL0     C45792   7.457   3.518   2.343  1.2161  0.5668  0.6590
  340MOL0     C45793   7.322   3.509   2.367  1.2678  0.6466  0.1571
  340MOL0     C45794   7.268   3.410   2.463 -0.0686 -1.1374  0.3210
  340MOL0     O45795   7.133   3.366   2.449  0.0449  0.0991  0.3768
  340MOL0     C45796   7.077   3.298   2.545  0.7088 -0.9324 -0.2673
  340MOL0     C45797   7.089   3.358   2.671 -0.1170 -0.6438 -0.0536
  340MOL0     C45798   7.024   3.303   2.782  0.1045 -0.0660  0.7537
  340MOL0     C45799   6.946   3.185   2.762  0.2983 -0.3717  0.2405
  340MOL0     O45800   6.897   3.113   2.869  0.5949 -0.1231  0.7586
  340MOL0     C45801   6.848   3.188   2.983  0.2526  0.1739  1.1642
  340MOL0     C45802   6.720   3.122   3.053 -0.2806  1.1842 -0.5907
  340MOL0     C45803   6.586   3.174   2.991 -0.8031 -0.5166 -0.0249
  340MOL0     C45804   6.470   3.092   3.038 -0.3878  0.5986 -0.0444
  340MOL0     C45805   6.337   3.157   3.018  0.5555  0.5388  0.0354
  340MOL0     C45806   6.314   3.200   2.878 -1.0953 -0.5442 -0.3354
  340MOL0     C45807   6.319   3.076   2.783  0.5274 -0.7468  0.2438
  340MOL0     C45808   6.277   3.103   2.636 -0.9848 -0.0987  0.2618
  340MOL0    Cl45809   6.351   3.250   2.563 -0.2391 -0.3248 -0.0120
  340MOL0     C45810   6.925   3.132   2.632 -0.4271 -0.7296 -0.1572
  340MOL0     C45811   7.005   3.178   2.529 -0.3050 -0.7087  1.1512
  340MOL0     O45812   7.350   3.363   2.541 -0.1245  0.1069  0.1937
  340MOL0     C45813   7.236   3.604   2.313 -0.3117  0.4598  0.0373
  340MOL0     C45814   7.275   3.700   2.228 -0.5228 -1.0669  0.2546
  340MOL0     N45815   7.696   3.803   1.615 -0.4461 -0.7654 -0.3757
  340MOL0     N45816   7.797   3.817   1.527  0.4045 -1.0879  0.7897
  340MOL0     C45817   8.837   4.024   1.124 -0.4678 -0.8024 -0.6536
  340MOL0     C45818   8.977   4.042   1.129 -0.0594 -0.0962 -0.2799
  340MOL0     C45819   9.421   4.055   1.168  0.2144  1.0022  0.5576
  340MOL0     C45820   9.536   3.990   1.122 -0.3146 -0.1006 -0.6552
  340MOL0     C45821   9.667   4.053   1.140  0.2681  0.2910 -0.5944
  340MOL0     C45822   9.670   4.164   1.222  0.1362  0.7074 -0.2679
  340MOL0     O45823   9.797   4.190   1.271 -0.2496 -0.8272 -0.0448
  340MOL0     C45824   9.812   4.293   1.372 -0.2242  0.0282  0.1345
  340MOL0     C45825   9.956   4.295   1.429 -0.0741 -1.2077 -0.0819
  340MOL0     C45826  10.080   4.335   1.337  0.1406 -0.0218 -0.5085
  340MOL0     C45827  10.130   4.219   1.259  0.3111  0.4676 -1.0763
  340MOL0     C45828  10.241   4.260   1.175  0.5909  0.4805  0.4192
  340MOL0     C45829  10.338   4.281   1.107  0.7152  0.5952  0.8870
  340MOL0     C45830   9.554   4.225   1.262 -0.0888  0.5356  1.1510
  340MOL0     C45831   9.429   4.174   1.235 -0.5252  0.2427 -0.3612
  340MOL0     C45832   9.311   4.253   1.278 -0.1725  0.1533  1.0165
  340MOL0     H45833   9.041   3.930   1.439 -0.2010 -0.9220  0.0754
  340MOL0     H45834   8.786   3.926   1.440  0.7360  0.6285  1.3148
  340MOL0     H45835   8.621   3.815   1.343  0.6062 -0.2102 -3.7673
  340MOL0     H45836   8.527   3.954   1.418 -1.4242  1.2708 -1.1048
  340MOL0     H45837   8.368   3.803   1.318 -2.1194  3.4445  0.2057
  340MOL0     H45838   8.472   3.800   1.165 -1.7963  3.3239 -4.0334
  340MOL0     H45839   8.366   3.959   1.071  0.6333 -2.2548 -0.0868
  340MOL0     H45840   8.369   4.058   1.228  1.2531 -1.9073  2.7649
  340MOL0     H45841   8.174   3.841   1.127 -0.7382  1.3008 -2.2731
  340MOL0     H45842   8.192   3.901   1.293 -0.7364  0.3151  0.0063
  340MOL0     H45843   8.135   4.130   1.225 -0.3056  1.4461 -1.8036
  340MOL0     H45844   8.120   4.083   1.058  1.1026  1.3638  0.3396
  340MOL0     H45845   7.916   4.140   1.156  1.4868 -1.1464 -1.5650
  340MOL0     H45846   7.911   3.991   1.067 -2.4530  1.7087 -1.3756
  340MOL0     H45847   7.924   3.849   1.246  1.8221  0.5510 -3.0181
  340MOL0     H45848   7.773   3.949   1.262  0.3927 -1.2977 -2.0223
  340MOL0     H45849   8.010   3.940   1.424 -1.0381 -1.9739  0.6116
  340MOL0     H45850   7.945   4.098   1.409  0.8591  0.0170 -4.4261
  340MOL0     H45851   7.698   4.138   1.591 -0.2928 -0.8879 -1.6001
  340MOL0     H45852   7.523   4.069   1.740  0.2597  0.1550 -0.1494
  340MOL0     H45853   7.450   3.916   1.732 -0.0565  1.0804 -0.9102
  340MOL0     H45854   7.611   3.834   1.918  0.2933 -0.9401 -1.0383
  340MOL0     H45855   7.681   3.993   1.911 -0.3176 -0.6184 -0.1290
  340MOL0     H45856   7.427   4.075   1.938 -1.3819 -0.6962  0.1516
  340MOL0     H45857   7.530   4.054   2.080 -0.2598  1.7093 -0.1958
  340MOL0     H45858   7.359   3.834   1.958 -1.1869  0.8753  0.9661
  340MOL0     H45859   7.317   3.940   2.097 -0.5867  3.6915 -3.3853
  340MOL0     H45860   7.603   3.637   2.236 -0.6793 -0.9934 -1.0717
  340MOL0     H45861   7.522   3.440   2.382 -1.0806 -0.3635  2.8661
  340MOL0     H45862   7.144   3.451   2.686 -1.2757 -0.1274  1.2257
  340MOL0     H45863   7.032   3.339   2.884  0.8606 -1.1185  1.0740
  340MOL0     H45864   6.921   3.191   3.065  0.2778  0.4674  1.1305
  340MOL0     H45865   6.819   3.290   2.956  2.9322  0.9852  0.9757
  340MOL0     H45866   6.745   3.015   3.047 -0.6651  1.0671 -0.1112
  340MOL0     H45867   6.717   3.133   3.161  0.2413 -1.6967 -0.1994
  340MOL0     H45868   6.573   3.275   3.030 -0.1278 -0.3437 -0.2273
  340MOL0     H45869   6.595   3.190   2.883 -2.6489  0.5569 -0.0436
  340MOL0     H45870   6.479   3.077   3.146 -1.5097  1.3549  0.1736
  340MOL0     H45871   6.462   2.993   2.992 -1.4241  1.8358 -2.7590
  340MOL0     H45872   6.329   3.243   3.085 -2.4479 -0.6216  1.3635
  340MOL0     H45873   6.247   3.101   3.046 -0.7809  1.4460 -2.1774
  340MOL0     H45874   6.219   3.254   2.876 -0.3217  0.9111 -2.5412
  340MOL0     H45875   6.387   3.273   2.840 -2.1509 -0.0214 -1.4314
  340MOL0     H45876   6.242   3.007   2.820  0.1990  1.5464  4.4250
  340MOL0     H45877   6.418   3.032   2.773  0.5815 -0.3983 -0.8824
  340MOL0     H45878   6.316   3.019   2.578 -0.6749  0.8690 -1.0023
  340MOL0     H45879   6.170   3.101   2.613 -0.9160  1.1679 -0.2608
  340MOL0     H45880   6.858   3.048   2.613 -0.1664 -1.2049  0.9704
  340MOL0     H45881   6.999   3.121   2.437  0.6837 -0.2749  0.8026
  340MOL0     H45882   7.131   3.579   2.317  0.1455 -1.4786  1.0087
  340MOL0     H45883   7.197   3.761   2.183 -0.4690 -0.5727  0.8180
  340MOL0     H45884   8.771   4.055   1.043 -1.3277 -0.5989  0.1000
  340MOL0     H45885   9.030   4.094   1.049  0.5160  0.6648  0.5777
  340MOL0     H45886   9.527   3.898   1.065  1.2014 -0.4976 -0.3088
  340MOL0     H45887   9.759   4.011   1.102  2.5796  2.2096  2.4153
  340MOL0     H45888   9.737   4.284   1.451 -2.0638  0.1988 -1.5112
  340MOL0     H45889   9.789   4.391   1.328 -0.0794  1.1285  2.3669
  340MOL0     H45890   9.974   4.203   1.485 -0.5730  0.1377  2.4682
  340MOL0     H45891   9.965   4.383   1.494 -1.2721 -1.2515  0.1718
  340MOL0     H45892  10.159   4.356   1.410  2.2216  2.9511 -3.3590
  340MOL0     H45893  10.062   4.430   1.286 -1.4478  0.3442  0.6530
  340MOL0     H45894  10.163   4.141   1.329 -0.1133  0.2249 -1.1421
  340MOL0     H45895  10.052   4.178   1.194  1.3455 -2.6703 -0.5240
  340MOL0     H45896  10.413   4.317   1.039  1.2156 -1.4690  0.2876
  340MOL0     H45897   9.567   4.314   1.322 -2.1905  1.3616  0.4748
  340MOL0     H45898   9.215   4.260   1.226 -0.8106 -2.0979  1.7648
  340MOL0     H45899   9.283   4.208   1.374 -0.9922 -0.0511  0.6884
  340MOL0     H45900   9.338   4.358   1.291 -1.6059  0.7231 -0.3111
  341MOL0     O45901   6.091  11.013   9.911  0.0647  0.3184  0.0515
  341MOL0     C45902   6.022  11.118   9.901 -0.5782 -0.7589  0.3484
  341MOL0     O45903   6.075  11.240   9.851 -0.3755  0.5776  0.1779
  341MOL0     C45904   6.213  11.250   9.863  0.5010  0.4561 -0.4813
  341MOL0     C45905   6.292  11.179   9.781 -0.5832  0.0609 -0.9171
  341MOL0     C45906   6.434  11.172   9.805 -0.2889 -0.5563 -0.7015
  341MOL0     C45907   6.494  11.235   9.920  0.5190 -0.5897  0.6315
  341MOL0     O45908   6.619  11.223   9.961 -0.8497 -0.7689 -0.4554
  341MOL0     C45909   6.707  11.165   9.862  1.0488  0.5614  0.9932
  341MOL0     C45910   6.849  11.198   9.906 -0.1347  0.2048  0.6238
  341MOL0     C45911   6.941  11.094   9.832  1.1362  0.0667  0.2420
  341MOL0     C45912   6.933  11.101   9.678  0.4539  0.7489 -0.1205
  341MOL0     C45913   7.054  11.026   9.618 -0.0270 -1.0193 -0.9043
  341MOL0     C45914   7.046  10.876   9.644 -0.6817 -0.0265  0.2921
  341MOL0     C45915   7.151  10.799   9.552 -0.0661 -0.3876 -0.6614
  341MOL0     C45916   7.158  10.637   9.562 -0.4303  1.3004 -1.3437
  341MOL0     N45917   7.231  10.584   9.440  0.3283  0.7320 -0.0291
  341MOL0     C45918   7.367  10.597   9.426 -0.2715 -0.8991 -0.3906
  341MOL0     C45919   7.398  10.514   9.324  0.5021 -0.0981 -0.3780
  341MOL0     C45920   7.526  10.484   9.257  0.0990 -0.6579  0.2336
  341MOL0     C45921   7.645  10.487   9.340 -0.4434  0.2942 -0.5694
  341MOL0     C45922   7.650  10.381   9.450 -0.3594  0.2665  0.1423
  341MOL0     C45923   7.627  10.232   9.398  0.1560  0.2203  0.2406
  341MOL0     O45924   7.711  10.204   9.280  0.2925  0.8383  0.2578
  341MOL0     C45925   7.759  10.073   9.259  0.3763  0.8878  0.3476
  341MOL0     C45926   7.682   9.963   9.278  0.4600  0.3661 -0.3807
  341MOL0     C45927   7.737   9.831   9.271  0.1101 -0.4668 -0.9949
  341MOL0     C45928   7.864   9.806   9.224 -0.3612  0.2149 -0.7909
  341MOL0     C45929   7.939   9.679   9.221 -0.0977  0.4570  0.0537
  341MOL0     O45930   7.858   9.568   9.234 -0.2787 -0.5078  0.7880
  341MOL0     C45931   7.856   9.497   9.349 -0.2485  0.9994 -0.1060
  341MOL0     C45932   7.924   9.529   9.461  0.1097  0.0541 -0.4228
  341MOL0     C45933   7.884   9.456   9.583  0.4867 -1.1399 -0.4154
  341MOL0     C45934   7.792   9.345   9.583 -0.1440 -0.4995 -0.3290
  341MOL0     O45935   7.771   9.290   9.702  0.3388 -0.1691 -0.1526
  341MOL0     C45936   7.671   9.191   9.712  0.2010  0.4319 -0.0208
  341MOL0     C45937   7.740   9.065   9.682 -0.6831  0.0251  0.3930
  341MOL0     C45938   7.855   9.025   9.770 -0.3389 -0.0301 -0.3940
  341MOL0     C45939   7.903   8.888   9.723  0.2161  0.7459  0.2935
  341MOL0     C45940   7.973   8.801   9.824  0.4891 -0.1713  0.1243
  341MOL0     C45941   7.870   8.715   9.907 -1.2219 -0.6004 -0.2185
  341MOL0     C45942   7.933   8.654  10.041 -0.4627  0.0508  0.5314
  341MOL0     C45943   7.844   8.559  10.125  0.2444 -0.3343  1.0649
  341MOL0    Cl45944   7.725   8.649  10.224  0.3691 -0.2471 -0.0620
  341MOL0     C45945   7.734   9.312   9.461 -0.5546  1.1277 -0.7082
  341MOL0     C45946   7.768   9.384   9.342  0.9717 -0.1441  0.3861
  341MOL0     O45947   8.064   9.672   9.219  0.1613 -0.8418  0.5094
  341MOL0     C45948   7.937   9.924   9.196  0.1899 -0.6484 -0.0456
  341MOL0     C45949   7.888  10.052   9.211  0.1095  0.5854 -0.5145
  341MOL0     N45950   7.279  10.459   9.277 -0.5922  0.7593  0.2961
  341MOL0     N45951   7.175  10.491   9.344  0.6216  0.8264 -0.9412
  341MOL0     C45952   6.411  11.310  10.002  0.3210 -0.0899  0.1835
  341MOL0     C45953   6.266  11.321   9.974 -0.6030  0.1799 -0.8357
  341MOL0     C45954   5.884  11.126   9.950  0.1083  0.1305  0.5165
  341MOL0     C45955   5.821  11.258   9.964 -0.6189 -0.4151 -0.1855
  341MOL0     C45956   5.695  11.269  10.020 -0.1514 -0.2591  0.1873
  341MOL0     C45957   5.625  11.157  10.054  0.3781 -0.8969  0.2295
  341MOL0     O45958   5.499  11.167  10.117 -0.0022 -0.6875 -0.1373
  341MOL0     C45959   5.416  11.057  10.140 -0.0907 -0.8466  0.0703
  341MOL0     C45960   5.277  11.109  10.192 -0.5799  0.0190 -0.5786
  341MOL0     C45961   5.184  11.159  10.068 -0.4644  0.0973 -0.4658
  341MOL0     C45962   5.058  11.243  10.131 -0.1398  0.4536  0.2366
  341MOL0     C45963   5.096  11.361  10.198  0.6212  0.4917 -1.3930
  341MOL0     C45964   5.109  11.466  10.257  0.8827  0.5818 -0.4340
  341MOL0     C45965   5.681  11.028  10.037 -0.3102  0.5202 -0.0556
  341MOL0     C45966   5.816  11.014   9.996  0.2671 -0.1264 -0.0526
  341MOL0     C45967   5.863  10.871   9.982  0.0404  0.4130 -0.0730
  341MOL0     H45968   6.251  11.117   9.702  1.6601  0.4337 -2.4599
  341MOL0     H45969   6.497  11.113   9.740  0.4663 -3.1606  2.1422
  341MOL0     H45970   6.697  11.057   9.850  4.8732  0.2848 -1.8737
  341MOL0     H45971   6.691  11.215   9.766  0.4941  0.1929  0.8936
  341MOL0     H45972   6.851  11.183  10.014  0.4008  0.6149  0.6727
  341MOL0     H45973   6.875  11.300   9.877  1.0299 -0.1255  0.4664
  341MOL0     H45974   6.914  10.990   9.855 -2.3915  0.8680  0.1682
  341MOL0     H45975   7.041  11.125   9.866  0.6303  2.9088 -0.6247
  341MOL0     H45976   6.841  11.070   9.628  1.0178  2.5600 -2.4522
  341MOL0     H45977   6.946  11.204   9.642  0.9033  0.7293 -0.0205
  341MOL0     H45978   7.052  11.047   9.511  1.6561  1.8023 -0.4819
  341MOL0     H45979   7.151  11.057   9.658  0.1452 -1.4337 -1.0041
  341MOL0     H45980   7.064  10.847   9.748  0.3150 -2.4598 -0.4770
  341MOL0     H45981   6.946  10.842   9.615 -1.4211  2.3580 -0.1783
  341MOL0     H45982   7.253  10.838   9.560 -0.1154 -0.5619  1.9836
  341MOL0     H45983   7.112  10.832   9.456 -3.0674  1.0527  0.8993
  341MOL0     H45984   7.215  10.611   9.651  1.2996  1.1744 -2.4362
  341MOL0     H45985   7.058  10.596   9.579  0.4530 -0.5265 -0.3019
  341MOL0     H45986   7.430  10.653   9.494 -2.0019  1.4874 -0.6388
  341MOL0     H45987   7.525  10.385   9.211  0.7243 -0.2174 -0.7894
  341MOL0     H45988   7.542  10.552   9.172  0.0775  1.7318  2.0335
  341MOL0     H45989   7.731  10.476   9.273  0.9171  0.7820  1.0570
  341MOL0     H45990   7.671  10.586   9.378 -0.2379 -0.3519  1.0590
  341MOL0     H45991   7.574  10.422   9.517 -0.5700  3.7363 -1.9724
  341MOL0     H45992   7.742  10.382   9.510 -0.7328 -1.6502  0.8164
  341MOL0     H45993   7.526  10.221   9.359  1.1080 -1.5840 -1.9815
  341MOL0     H45994   7.640  10.155   9.475  0.5527 -0.1873 -0.2314
  341MOL0     H45995   7.575   9.972   9.296  0.3540 -0.6450 -0.4308
  341MOL0     H45996   7.666   9.752   9.291  0.9502 -0.7562  1.1304
  341MOL0     H45997   7.992   9.614   9.465 -1.8121  1.7364 -1.9372
  341MOL0     H45998   7.926   9.479   9.680 -1.8981 -2.4589  1.0212
  341MOL0     H45999   7.637   9.200   9.816 -0.3429  0.5254 -0.2055
  341MOL0     H46000   7.586   9.202   9.645  1.0745 -0.4786 -1.3249
  341MOL0     H46001   7.651   9.001   9.675 -0.3389 -0.5972  1.4641
  341MOL0     H46002   7.789   9.079   9.585  3.1846 -0.7267  2.0666
  341MOL0     H46003   7.945   9.086   9.759 -0.2697 -0.3349 -1.7089
  341MOL0     H46004   7.813   9.030   9.871 -0.5974 -0.3310 -0.4818
  341MOL0     H46005   7.978   8.906   9.645 -1.3763 -2.6614 -2.2787
  341MOL0     H46006   7.825   8.832   9.672  0.8120  0.3718 -0.2195
  341MOL0     H46007   8.035   8.860   9.892  3.2106 -2.6742  0.0286
  341MOL0     H46008   8.041   8.725   9.785 -0.2913 -1.8077  1.8276
  341MOL0     H46009   7.785   8.781   9.928  0.3684  2.4207 -2.4531
  341MOL0     H46010   7.847   8.623   9.853  0.0712 -2.3753  2.0882
  341MOL0     H46011   7.959   8.737  10.107  0.3780 -0.6626  1.1183
  341MOL0     H46012   8.028   8.606  10.016  0.6712  1.8447  1.2548
  341MOL0     H46013   7.784   8.509  10.049  2.2603 -0.5763 -0.4705
  341MOL0     H46014   7.900   8.486  10.184 -0.8256  0.0187  2.5741
  341MOL0     H46015   7.662   9.230   9.459 -1.5221  1.8939  0.6177
  341MOL0     H46016   7.704   9.369   9.256 -2.8339  0.7125  2.8470
  341MOL0     H46017   8.037   9.914   9.156 -0.2618 -3.6699 -0.6834
  341MOL0     H46018   7.946  10.141   9.188 -2.1800  2.0274 -1.0250
  341MOL0     H46019   6.447  11.365  10.088  0.5499  2.0705 -1.1885
  341MOL0     H46020   6.201  11.375  10.043  0.9518  1.8710 -0.6166
  341MOL0     H46021   5.872  11.346   9.928  1.5034 -1.0451  1.1064
  341MOL0     H46022   5.642  11.364  10.025 -0.1404 -0.3251  2.0200
  341MOL0     H46023   5.448  10.987  10.218  0.9214 -1.6802 -1.0708
  341MOL0     H46024   5.410  11.010  10.042  2.8896 -2.9117  0.7489
  341MOL0     H46025   5.276  11.188  10.267 -0.5409  1.6674 -2.2553
  341MOL0     H46026   5.228  11.020  10.233  0.3439 -0.3549 -0.2495
  341MOL0     H46027   5.143  11.078  10.008  2.6993 -0.3589 -2.2075
  341MOL0     H46028   5.235  11.224   9.996 -2.8858 -0.2706 -2.6752
  341MOL0     H46029   4.990  11.269  10.049 -1.7684 -1.2257  0.9783
  341MOL0     H46030   5.006  11.171  10.196 -2.1817  2.0771  0.4898
  341MOL0     H46031   5.120  11.541  10.333  1.7304 -0.7932  0.8435
  341MOL0     H46032   5.625  10.936  10.045  2.6593 -1.3441  1.1123
  341MOL0     H46033   5.951  10.857  10.044  0.0166 -0.8973 -0.3002
  341MOL0     H46034   5.784  10.803  10.014  1.5208 -0.8347  1.0699
  341MOL0     H46035   5.889  10.853   9.877 -1.6659  0.6018 -0.5609
  342MOL0     O46036   7.939   4.341   7.898 -0.2720  0.4595 -0.3201
  342MOL0     C46037   7.965   4.420   7.994  0.9594  0.9886  0.1865
  342MOL0     O46038   8.048   4.382   8.103  0.2371 -0.3297  0.3286
  342MOL0     C46039   8.118   4.262   8.090  0.6555 -0.3436 -0.6607
  342MOL0     C46040   8.081   4.148   8.151  0.6695  0.4314 -0.1002
  342MOL0     C46041   8.150   4.034   8.165 -0.4386  0.2671  1.1325
  342MOL0     C46042   8.285   4.035   8.107 -0.2168 -0.4242  0.3542
  342MOL0     O46043   8.362   3.923   8.111  0.4866 -0.4690 -0.7692
  342MOL0     C46044   8.310   3.804   8.175 -0.2422 -0.1107 -0.9492
  342MOL0     C46045   8.415   3.691   8.159  0.5932 -0.3875 -0.1275
  342MOL0     C46046   8.425   3.648   8.015 -0.0872 -0.0856 -1.2843
  342MOL0     C46047   8.527   3.531   7.999 -0.1920 -0.3790  0.1546
  342MOL0     C46048   8.507   3.448   7.874 -0.5153  0.0512 -0.5178
  342MOL0     C46049   8.610   3.329   7.864  0.2722  1.0812 -0.3651
  342MOL0     C46050   8.587   3.229   7.758 -0.2453 -0.7263  0.5168
  342MOL0     C46051   8.656   3.096   7.797 -0.3788 -0.3005 -0.1494
  342MOL0     N46052   8.658   2.997   7.681 -0.5237  0.6379  0.1793
  342MOL0     C46053   8.606   2.873   7.704  0.0624  0.1884  0.2599
  342MOL0     C46054   8.574   2.816   7.585 -0.3811 -1.5398 -0.3941
  342MOL0     C46055   8.543   2.671   7.561 -0.8130  0.3833  0.0355
  342MOL0     C46056   8.665   2.585   7.560 -0.2334 -1.1146 -0.1098
  342MOL0     C46057   8.641   2.430   7.559 -0.4955 -0.1183  0.3839
  342MOL0     C46058   8.540   2.377   7.461  0.2068 -0.1711 -0.1649
  342MOL0     O46059   8.528   2.233   7.448  0.5620 -0.3995  0.5126
  342MOL0     C46060   8.407   2.188   7.402  1.0178  0.8766  1.0602
  342MOL0     C46061   8.288   2.257   7.407  0.2913 -0.2324  0.0928
  342MOL0     C46062   8.173   2.210   7.346 -0.2327  0.7217  0.0676
  342MOL0     C46063   8.176   2.101   7.256 -0.4588  0.3006  0.3282
  342MOL0     C46064   8.058   2.037   7.194  0.1136 -0.4429  1.2272
  342MOL0     O46065   8.080   1.941   7.107 -0.5834 -0.3308  0.8282
  342MOL0     C46066   7.996   1.865   7.031  1.4110 -0.3521 -0.1150
  342MOL0     C46067   7.851   1.855   7.048 -0.5419 -0.9089 -0.6250
  342MOL0     C46068   7.767   1.793   6.958  0.2148  0.0369  0.0054
  342MOL0     C46069   7.808   1.740   6.835 -1.2261 -0.7245 -0.6024
  342MOL0     O46070   7.719   1.688   6.752 -0.2426  0.2340 -0.2864
  342MOL0     C46071   7.756   1.610   6.640 -0.6403 -0.6342 -0.8606
  342MOL0     C46072   7.818   1.473   6.681 -0.0362 -1.6409  0.2101
  342MOL0     C46073   7.811   1.380   6.562  0.5646  1.0781 -0.4688
  342MOL0     C46074   7.852   1.242   6.602  0.2351 -0.7002 -0.6399
  342MOL0     C46075   7.835   1.137   6.495  0.8729 -0.8159 -0.4771
  342MOL0     C46076   7.883   0.995   6.541  0.6890  0.1735 -0.1388
  342MOL0     C46077   7.863   0.899   6.417 -0.3164 -0.3381  0.3640
  342MOL0     C46078   7.719   0.882   6.386  0.0506 -0.3084  0.6886
  342MOL0    Cl46079   7.692   0.738   6.299 -0.1261  0.1433 -0.5409
  342MOL0     C46080   7.958   1.746   6.812  0.3401  0.1187 -0.3738
  342MOL0     C46081   8.036   1.801   6.917 -0.2260 -0.4151  0.6583
  342MOL0     O46082   7.953   2.073   7.227  0.2752 -0.1060  0.3091
  342MOL0     C46083   8.296   2.032   7.240 -1.1273 -0.6120 -0.5022
  342MOL0     C46084   8.412   2.073   7.315  0.3078 -0.9555  0.4751
  342MOL0     N46085   8.615   2.910   7.485  0.4982  0.5490  0.1251
  342MOL0     N46086   8.650   3.021   7.541  0.2462 -0.8430 -0.5963
  342MOL0     C46087   8.327   4.148   8.035 -0.1433  0.6346 -0.1814
  342MOL0     C46088   8.243   4.266   8.028  0.2399  1.6931 -0.2790
  342MOL0     C46089   7.872   4.532   8.002 -0.2902  0.4310  0.0197
  342MOL0     C46090   7.815   4.554   8.127 -0.3379  0.8191 -0.3829
  342MOL0     C46091   7.707   4.641   8.140 -0.7805 -0.4105  0.4564
  342MOL0     C46092   7.670   4.724   8.033 -0.6068  1.2206 -1.0624
  342MOL0     O46093   7.579   4.828   8.048  0.2683  0.5350 -0.0041
  342MOL0     C46094   7.563   4.878   8.179 -0.2890  0.3275  0.3788
  342MOL0     C46095   7.475   5.002   8.195 -0.3974  0.3889  0.9309
  342MOL0     C46096   7.331   4.980   8.214 -0.8114  0.0733 -0.5392
  342MOL0     C46097   7.262   4.933   8.086 -0.5061  0.7189 -0.3729
  342MOL0     C46098   7.133   4.988   8.074 -0.0662 -0.0923  0.0016
  342MOL0     C46099   7.024   5.040   8.044  0.8449 -0.9197  0.0969
  342MOL0     C46100   7.729   4.696   7.913 -0.2997 -1.1671  0.1691
  342MOL0     C46101   7.828   4.604   7.890  0.3597  0.0179  0.1750
  342MOL0     C46102   7.904   4.599   7.751  0.8919  0.3219 -0.4825
  342MOL0     H46103   7.977   4.144   8.184 -0.2182 -0.4986 -2.7443
  342MOL0     H46104   8.100   3.961   8.228 -1.1805  1.3185  1.8030
  342MOL0     H46105   8.288   3.820   8.281  1.7647 -3.8539  0.2402
  342MOL0     H46106   8.213   3.776   8.134 -0.3956  2.4215 -2.5239
  342MOL0     H46107   8.390   3.608   8.225  0.4844 -1.1277 -1.0790
  342MOL0     H46108   8.514   3.731   8.186  0.3191  0.7059 -0.6814
  342MOL0     H46109   8.458   3.732   7.953 -2.6898  0.3750 -2.1711
  342MOL0     H46110   8.324   3.620   7.987 -1.4010 -1.6942  3.9272
  342MOL0     H46111   8.626   3.578   8.005  1.5376 -3.6046 -0.5463
  342MOL0     H46112   8.517   3.455   8.078  0.7462 -1.7393 -0.9774
  342MOL0     H46113   8.406   3.407   7.863 -1.7287  3.0421 -1.3195
  342MOL0     H46114   8.521   3.517   7.791  1.0631  1.6826  1.0178
  342MOL0     H46115   8.709   3.375   7.857  0.1735  1.0725 -2.4887
  342MOL0     H46116   8.604   3.274   7.959  0.5659 -0.5373 -1.2447
  342MOL0     H46117   8.632   3.262   7.664  2.7802  0.7589  2.2989
  342MOL0     H46118   8.479   3.213   7.754 -0.5277  1.2035 -1.7595
  342MOL0     H46119   8.761   3.114   7.823  0.0988  1.3790 -2.8485
  342MOL0     H46120   8.605   3.051   7.882  0.1564 -0.0285  0.3201
  342MOL0     H46121   8.594   2.827   7.802  1.1885 -0.7900 -0.0420
  342MOL0     H46122   8.471   2.654   7.641 -0.9177 -0.0389 -0.1425
  342MOL0     H46123   8.483   2.658   7.470 -0.5612 -1.6523  0.1048
  342MOL0     H46124   8.730   2.609   7.475 -3.4586 -1.0240 -2.7615
  342MOL0     H46125   8.726   2.608   7.648  1.9916  2.0550 -2.2343
  342MOL0     H46126   8.611   2.383   7.653 -1.3703  0.9305  0.6463
  342MOL0     H46127   8.738   2.382   7.539  0.1092  1.2990 -0.1787
  342MOL0     H46128   8.563   2.409   7.359 -0.7446 -1.3743 -0.7817
  342MOL0     H46129   8.447   2.423   7.496  0.8780 -0.5064  2.2504
  342MOL0     H46130   8.271   2.352   7.456 -0.5629  0.3102 -1.2022
  342MOL0     H46131   8.079   2.248   7.384 -0.6213 -1.5430  1.5795
  342MOL0     H46132   7.799   1.895   7.135 -0.9282 -0.3892 -1.0873
  342MOL0     H46133   7.663   1.774   6.984  0.1611 -0.1073 -0.3203
  342MOL0     H46134   7.657   1.598   6.595 -1.3247 -1.7256  0.8644
  342MOL0     H46135   7.818   1.668   6.570  0.3269  0.4711  0.8357
  342MOL0     H46136   7.920   1.495   6.715  0.6876 -1.7418 -1.7832
  342MOL0     H46137   7.762   1.425   6.762 -1.0286 -0.1362  0.4504
  342MOL0     H46138   7.706   1.386   6.531 -0.6873 -2.9512  2.2214
  342MOL0     H46139   7.861   1.419   6.473 -2.0362  0.9069 -2.1363
  342MOL0     H46140   7.798   1.209   6.691  0.4612  0.1427 -0.1805
  342MOL0     H46141   7.957   1.250   6.632 -0.7613  0.0738  3.0514
  342MOL0     H46142   7.873   1.181   6.403  1.6445  1.8268  1.0041
  342MOL0     H46143   7.727   1.128   6.479  0.8199  0.0836 -0.6615
  342MOL0     H46144   7.991   1.002   6.556  0.5100  1.2156  0.7835
  342MOL0     H46145   7.842   0.960   6.636  3.1251 -0.9980  0.5594
  342MOL0     H46146   7.916   0.807   6.444  1.1144  0.2550 -0.3277
  342MOL0     H46147   7.908   0.940   6.326  0.8304  0.8563  1.4278
  342MOL0     H46148   7.658   0.883   6.477 -1.8311 -2.2297 -0.4555
  342MOL0     H46149   7.687   0.964   6.320  0.3680 -0.9723 -0.3112
  342MOL0     H46150   8.005   1.696   6.728  0.8946 -0.2140  0.1221
  342MOL0     H46151   8.142   1.793   6.893 -0.3607  1.2614 -0.6634
  342MOL0     H46152   8.321   1.952   7.170 -0.9972 -0.6156 -0.4521
  342MOL0     H46153   8.501   2.013   7.299 -0.3486 -1.4701 -1.5261
  342MOL0     H46154   8.428   4.135   7.998  0.0105  1.2033  0.0256
  342MOL0     H46155   8.281   4.345   7.964  0.3644  1.3939 -0.5763
  342MOL0     H46156   7.835   4.484   8.208 -1.6008  3.5184  2.4823
  342MOL0     H46157   7.655   4.638   8.235  0.7900  1.8498  1.5101
  342MOL0     H46158   7.659   4.907   8.222 -0.9912 -0.1845  2.4025
  342MOL0     H46159   7.519   4.802   8.245 -1.1854 -0.7639 -1.4102
  342MOL0     H46160   7.497   5.068   8.110 -1.4933 -1.0128 -0.4942
  342MOL0     H46161   7.514   5.050   8.286 -1.9922 -0.5083  2.1478
  342MOL0     H46162   7.286   5.074   8.249 -1.9765 -0.5765 -0.2276
  342MOL0     H46163   7.315   4.900   8.287  1.9111 -0.2846 -0.2368
  342MOL0     H46164   7.314   4.943   7.991 -2.9728  2.3924 -1.6704
  342MOL0     H46165   7.244   4.826   8.102  1.0372  0.3623 -0.9010
  342MOL0     H46166   6.930   5.082   8.012 -0.8369 -2.6862  2.3165
  342MOL0     H46167   7.694   4.746   7.823 -0.6406 -0.2606  0.7883
  342MOL0     H46168   7.866   4.676   7.683 -2.9355 -1.6061 -0.7816
  342MOL0     H46169   8.007   4.610   7.788  1.3747 -3.8170 -0.1391
  342MOL0     H46170   7.893   4.496   7.718  1.6679 -0.5456  1.7485
  343MOL0     O46171   6.552   1.918   1.448  0.2741 -0.0635 -0.4964
  343MOL0     C46172   6.655   1.986   1.486  0.9796 -0.9797  0.3208
  343MOL0     O46173   6.636   2.119   1.525 -0.0225  0.7209  0.8640
  343MOL0     C46174   6.514   2.182   1.490 -0.1890 -0.3674  0.2037
  343MOL0     C46175   6.455   2.184   1.367 -0.4185  0.6656 -0.2182
  343MOL0     C46176   6.348   2.261   1.340  0.1993  0.1614 -0.7256
  343MOL0     C46177   6.293   2.353   1.434 -0.3965  1.0446 -0.0007
  343MOL0     O46178   6.195   2.435   1.397  0.7186  0.1602  0.7502
  343MOL0     C46179   6.120   2.490   1.509  0.2446  0.2349  0.1505
  343MOL0     C46180   5.989   2.549   1.448  0.5142 -0.7592 -0.5669
  343MOL0     C46181   5.878   2.444   1.446  0.2249 -0.0220  0.4797
  343MOL0     C46182   5.749   2.502   1.396  0.4568 -0.4514  0.0386
  343MOL0     C46183   5.644   2.389   1.413  0.9062 -0.3502 -0.0381
  343MOL0     C46184   5.512   2.453   1.368  0.2553  0.6457  1.2586
  343MOL0     C46185   5.407   2.338   1.362  0.2123  1.5588  0.1395
  343MOL0     C46186   5.378   2.293   1.214  1.0120  0.3155  0.3865
  343MOL0     N46187   5.287   2.181   1.233 -0.4342  0.6287 -1.1712
  343MOL0     C46188   5.159   2.179   1.273  0.3534 -0.1082  0.1928
  343MOL0     C46189   5.118   2.054   1.264 -0.0843  0.8557  0.6199
  343MOL0     C46190   4.971   2.010   1.291 -0.9107 -0.5052 -0.1363
  343MOL0     C46191   4.973   1.928   1.421  0.1045 -0.3604 -0.5661
  343MOL0     C46192   4.950   2.001   1.547  0.5519 -0.3490 -1.3036
  343MOL0     C46193   5.051   2.112   1.573  0.3742  0.5579 -0.6535
  343MOL0     O46194   4.995   2.238   1.530 -0.7180 -0.2982  0.4330
  343MOL0     C46195   5.062   2.346   1.586  0.8361  0.9652  0.0718
  343MOL0     C46196   5.013   2.464   1.533 -0.1058 -0.8184  0.5164
  343MOL0     C46197   5.063   2.594   1.560 -0.2346  1.1353  0.0659
  343MOL0     C46198   5.146   2.600   1.675 -0.5154 -0.4940  0.3898
  343MOL0     C46199   5.193   2.732   1.709  0.2754  0.1005 -1.0695
  343MOL0     O46200   5.119   2.843   1.660  0.1174 -0.2001 -0.7675
  343MOL0     C46201   5.175   2.970   1.662  0.5729 -0.3660 -0.1445
  343MOL0     C46202   5.262   3.024   1.763  0.8123  0.5369  0.8893
  343MOL0     C46203   5.297   3.156   1.764 -0.3113 -0.8530 -0.5696
  343MOL0     C46204   5.238   3.246   1.673 -0.0975  0.7164  0.6239
  343MOL0     O46205   5.258   3.382   1.665  0.0947 -0.0255  0.0649
  343MOL0     C46206   5.274   3.454   1.786 -0.0513 -0.4832  0.6452
  343MOL0     C46207   5.421   3.471   1.813 -0.2889 -0.6401 -0.3923
  343MOL0     C46208   5.459   3.594   1.881 -1.0392 -0.3548  0.3808
  343MOL0     C46209   5.613   3.595   1.917 -0.3065  0.6165 -0.2396
  343MOL0     C46210   5.679   3.473   1.992  0.7444  1.4016  0.0063
  343MOL0     C46211   5.640   3.462   2.135 -0.2606  0.2995 -0.3670
  343MOL0     C46212   5.682   3.328   2.200  0.4269  0.0434  0.6470
  343MOL0     C46213   5.832   3.285   2.183 -0.0863  0.4391  0.0374
  343MOL0    Cl46214   5.867   3.129   2.266 -0.1276 -0.0651  0.2069
  343MOL0     C46215   5.149   3.189   1.583 -0.9099 -0.7642  0.7431
  343MOL0     C46216   5.122   3.057   1.569 -0.1117 -0.0837 -0.1225
  343MOL0     O46217   5.287   2.729   1.785  0.0629  0.2161  0.0146
  343MOL0     C46218   5.197   2.485   1.734  0.0392 -0.2039 -0.8312
  343MOL0     C46219   5.168   2.357   1.681 -0.4117  0.3515  0.5462
  343MOL0     N46220   5.228   1.977   1.226  0.0705 -0.6026  0.5702
  343MOL0     N46221   5.332   2.054   1.210 -0.4103 -0.0247 -0.1096
  343MOL0     C46222   6.356   2.364   1.556  0.7177 -0.6962  0.1631
  343MOL0     C46223   6.471   2.288   1.582  0.3618 -0.1400 -0.0169
  343MOL0     C46224   6.786   1.921   1.507  0.0493 -0.2107  0.4224
  343MOL0     C46225   6.907   1.991   1.467 -0.6439  0.1473  0.6487
  343MOL0     C46226   7.033   1.925   1.470 -0.1221 -0.2571 -0.6269
  343MOL0     C46227   7.033   1.793   1.480 -0.4400 -0.0316  1.0035
  343MOL0     O46228   7.155   1.733   1.460  0.6608  0.1422  0.6757
  343MOL0     C46229   7.151   1.644   1.344 -0.4941 -0.6289  0.5351
  343MOL0     C46230   7.300   1.588   1.336  0.1534  0.2934  0.2465
  343MOL0     C46231   7.407   1.699   1.318 -0.3959 -0.4612  0.4797
  343MOL0     C46232   7.551   1.637   1.345  0.0520  0.5111  0.5828
  343MOL0     C46233   7.634   1.752   1.323 -0.8042  1.3085  0.7170
  343MOL0     C46234   7.681   1.858   1.303 -0.7239  0.3169  0.0723
  343MOL0     C46235   6.920   1.721   1.529 -0.2940 -0.7888  0.5186
  343MOL0     C46236   6.792   1.781   1.542 -0.2934  0.2877 -0.5509
  343MOL0     C46237   6.677   1.700   1.568  0.3120 -0.0263 -0.3351
  343MOL0     H46238   6.493   2.118   1.289  0.2773  0.1239  0.5519
  343MOL0     H46239   6.313   2.245   1.238 -0.3212 -1.4622 -0.3139
  343MOL0     H46240   6.103   2.412   1.584  0.4283  0.7468  0.7433
  343MOL0     H46241   6.181   2.571   1.551  3.6816 -1.7300 -0.7430
  343MOL0     H46242   6.011   2.586   1.347  0.7717  0.4004 -0.1049
  343MOL0     H46243   5.960   2.631   1.515  0.4396 -1.3688  0.1528
  343MOL0     H46244   5.865   2.399   1.544 -1.4301  0.1214  0.3676
  343MOL0     H46245   5.902   2.358   1.382  1.1400 -1.7603  3.0086
  343MOL0     H46246   5.729   2.590   1.457 -2.7322 -0.5432 -0.7245
  343MOL0     H46247   5.750   2.529   1.290 -0.3926 -1.0012 -0.1219
  343MOL0     H46248   5.654   2.296   1.357 -1.3364  0.0069 -1.1607
  343MOL0     H46249   5.632   2.359   1.518  1.0477 -2.5589 -0.6117
  343MOL0     H46250   5.470   2.523   1.441  1.6759  0.8697  1.8899
  343MOL0     H46251   5.518   2.519   1.281 -2.4538 -0.9589 -0.2856
  343MOL0     H46252   5.317   2.363   1.420 -0.1041 -0.8056  0.7411
  343MOL0     H46253   5.455   2.256   1.417  0.8247  1.6593 -0.2388
  343MOL0     H46254   5.337   2.375   1.154  2.5477  1.9737  1.4844
  343MOL0     H46255   5.467   2.256   1.162  0.4257  0.0182 -0.4314
  343MOL0     H46256   5.101   2.264   1.308 -1.3003 -1.3035  0.5395
  343MOL0     H46257   4.913   2.103   1.295  2.5263  1.8757 -1.1013
  343MOL0     H46258   4.937   1.956   1.201  1.3528 -3.2832  0.5372
  343MOL0     H46259   4.900   1.846   1.414  0.4588 -0.8519  1.0564
  343MOL0     H46260   5.068   1.874   1.425 -0.2937 -1.0722 -0.5582
  343MOL0     H46261   4.966   1.933   1.631 -0.7041  0.7093 -0.1582
  343MOL0     H46262   4.848   2.039   1.557  0.0522 -2.2864  4.0573
  343MOL0     H46263   5.143   2.084   1.520 -0.1633 -3.8891  0.3655
  343MOL0     H46264   5.063   2.127   1.681 -3.6642  3.4721 -0.3658
  343MOL0     H46265   4.934   2.472   1.459 -0.4308  0.4604  0.9875
  343MOL0     H46266   5.011   2.673   1.508 -0.3280  1.1474  0.1766
  343MOL0     H46267   5.297   2.965   1.848  0.1483  0.0659  0.8541
  343MOL0     H46268   5.355   3.187   1.850 -1.5994  1.8578 -0.5635
  343MOL0     H46269   5.246   3.556   1.759  0.7285 -0.3510  0.3169
  343MOL0     H46270   5.215   3.413   1.869 -1.9672 -2.8161 -1.7108
  343MOL0     H46271   5.455   3.380   1.865 -2.8833 -0.9755  0.8747
  343MOL0     H46272   5.469   3.486   1.716 -0.8005 -0.2228 -0.5859
  343MOL0     H46273   5.436   3.674   1.810 -1.6275 -0.2936  0.6334
  343MOL0     H46274   5.400   3.613   1.971  0.3087  2.9988  0.7176
  343MOL0     H46275   5.634   3.674   1.989  0.5649  1.5022 -1.4266
  343MOL0     H46276   5.664   3.610   1.821  1.7271  0.8293  0.8419
  343MOL0     H46277   5.788   3.470   1.996  0.7254 -0.7259  0.3976
  343MOL0     H46278   5.650   3.374   1.955 -2.3261  2.7467 -1.5891
  343MOL0     H46279   5.681   3.540   2.201 -1.2939  0.4546  0.1134
  343MOL0     H46280   5.531   3.468   2.134 -0.2061  1.4885 -1.4019
  343MOL0     H46281   5.612   3.254   2.159 -0.5873  1.8396 -1.0210
  343MOL0     H46282   5.666   3.339   2.307  4.2171  1.1090  1.2342
  343MOL0     H46283   5.850   3.259   2.079 -1.6047 -1.3910  0.1635
  343MOL0     H46284   5.898   3.361   2.226  0.4284 -1.1923  2.3885
  343MOL0     H46285   5.118   3.245   1.496  0.3487 -3.8205 -1.8991
  343MOL0     H46286   5.059   3.018   1.490  1.1771 -1.3974 -0.5445
  343MOL0     H46287   5.261   2.491   1.821 -1.7574  0.8769  0.5011
  343MOL0     H46288   5.215   2.268   1.723 -2.7216 -1.5524 -0.6540
  343MOL0     H46289   6.340   2.437   1.635  3.2883  1.0347 -0.7866
  343MOL0     H46290   6.519   2.311   1.676  0.9933 -1.1965 -0.0656
  343MOL0     H46291   6.913   2.098   1.449  4.0251 -0.4642 -3.2234
  343MOL0     H46292   7.129   1.974   1.458  0.0616 -0.3744  0.3289
  343MOL0     H46293   7.112   1.692   1.253 -2.4415 -1.1182  1.0784
  343MOL0     H46294   7.081   1.564   1.367 -0.1114 -0.8320  1.0032
  343MOL0     H46295   7.309   1.502   1.269 -0.4893 -1.2100  2.0053
  343MOL0     H46296   7.334   1.543   1.429 -1.4895 -1.9840 -0.1662
  343MOL0     H46297   7.397   1.772   1.398  2.3858  1.6898 -0.9460
  343MOL0     H46298   7.403   1.737   1.215  0.6438  2.8616  1.5144
  343MOL0     H46299   7.540   1.600   1.447 -2.6948 -0.2945  0.0921
  343MOL0     H46300   7.576   1.551   1.282 -1.2711 -3.2722  4.7441
  343MOL0     H46301   7.739   1.948   1.292  1.0103 -0.9745 -2.3023
  343MOL0     H46302   6.931   1.613   1.528 -0.7666 -0.9152 -2.5219
  343MOL0     H46303   6.604   1.765   1.617  2.0521  1.2653  0.6346
  343MOL0     H46304   6.628   1.667   1.475  0.1451  0.8821 -0.5869
  343MOL0     H46305   6.705   1.614   1.628 -0.6605  1.7533  2.8970
  344MOL0     O46306  10.719   3.037   6.693 -0.2740  0.1526  0.6641
  344MOL0     C46307  10.791   2.991   6.776  0.1988 -0.7622  0.1964
  344MOL0     O46308  10.763   2.989   6.911  0.6038 -0.5818  0.6681
  344MOL0     C46309  10.639   3.029   6.945 -0.8130 -0.0232 -1.2079
  344MOL0     C46310  10.527   2.956   6.919 -0.1673 -0.0680  0.9045
  344MOL0     C46311  10.399   3.009   6.959  0.0666 -0.5831  0.0881
  344MOL0     C46312  10.385   3.131   7.021  0.0582 -0.0215 -0.2843
  344MOL0     O46313  10.263   3.195   7.047  0.2570  0.0332 -0.1055
  344MOL0     C46314  10.161   3.112   7.109  0.8427  0.1932 -0.2167
  344MOL0     C46315  10.025   3.177   7.112 -0.2334  0.7909  0.4720
  344MOL0     C46316   9.963   3.195   6.969 -0.0800 -0.4368  0.2411
  344MOL0     C46317   9.850   3.109   6.931 -0.4192 -0.2358 -0.1685
  344MOL0     C46318   9.821   3.135   6.782 -0.5500 -0.2303 -0.2159
  344MOL0     C46319   9.706   3.037   6.736 -0.0150 -0.4507 -0.3607
  344MOL0     C46320   9.738   3.020   6.581 -0.7719 -0.2710  0.7410
  344MOL0     C46321   9.829   2.897   6.542 -0.1262  0.1079 -0.1784
  344MOL0     N46322   9.962   2.916   6.599  0.2242 -0.2505  0.1058
  344MOL0     C46323  10.067   2.980   6.543 -0.1118 -0.5386  0.0996
  344MOL0     C46324  10.164   2.958   6.625 -0.0053  0.2709  0.7603
  344MOL0     C46325  10.296   3.016   6.597 -0.4070 -0.8775 -0.8249
  344MOL0     C46326  10.283   3.171   6.621 -0.8454 -1.0451  0.4505
  344MOL0     C46327  10.423   3.236   6.599  0.5509  0.9751  0.1117
  344MOL0     C46328  10.429   3.392   6.602 -0.2379  0.6311  0.4263
  344MOL0     O46329  10.403   3.435   6.473  0.0361 -0.8399  0.4843
  344MOL0     C46330  10.501   3.462   6.382  0.0232 -0.5537 -0.2676
  344MOL0     C46331  10.468   3.547   6.276  0.0665 -0.6695  1.0155
  344MOL0     C46332  10.562   3.568   6.170 -0.0599 -0.4295  0.1610
  344MOL0     C46333  10.693   3.501   6.177  0.9423  0.2936 -0.8444
  344MOL0     C46334  10.787   3.517   6.070  0.1710  1.1441 -0.3100
  344MOL0     O46335  10.892   3.427   6.068  0.5085 -0.0682  0.4232
  344MOL0     C46336  10.985   3.439   5.963 -0.6861 -0.3809 -0.6362
  344MOL0     C46337  10.941   3.440   5.833 -0.6756 -0.1549 -0.0072
  344MOL0     C46338  11.038   3.445   5.728 -0.6574 -0.5025  0.1384
  344MOL0     C46339  11.172   3.455   5.751 -0.1847  0.2062 -0.0847
  344MOL0     O46340  11.267   3.462   5.650 -0.5279 -0.7460 -0.4378
  344MOL0     C46341  11.231   3.450   5.512 -0.2406 -0.0170 -0.7671
  344MOL0     C46342  11.240   3.588   5.445  0.3141  0.1555  0.1676
  344MOL0     C46343  11.386   3.638   5.445  0.7829  0.2000 -0.3158
  344MOL0     C46344  11.485   3.580   5.348  0.8271 -0.2061  0.9651
  344MOL0     C46345  11.627   3.624   5.387 -0.2071 -0.1127 -0.6463
  344MOL0     C46346  11.744   3.574   5.295  0.2966 -0.7228 -0.4619
  344MOL0     C46347  11.873   3.645   5.336 -1.0447 -0.1177  0.5571
  344MOL0     C46348  11.982   3.556   5.287 -1.4911 -0.5543  0.1946
  344MOL0    Cl46349  11.996   3.534   5.104 -0.2027  0.6280  0.1239
  344MOL0     C46350  11.217   3.452   5.885 -0.9663  0.6218 -0.1568
  344MOL0     C46351  11.125   3.446   5.996 -0.5228 -0.5469 -0.0696
  344MOL0     O46352  10.768   3.604   5.993  0.5606  0.1719  0.5600
  344MOL0     C46353  10.723   3.431   6.288  0.6615  0.7679  0.3388
  344MOL0     C46354  10.633   3.409   6.394 -0.0170 -0.2792 -0.4689
  344MOL0     N46355  10.126   2.880   6.738  0.0832  0.0269 -0.3682
  344MOL0     N46356   9.997   2.860   6.716 -1.2061  0.1093  0.2883
  344MOL0     C46357  10.499   3.204   7.038  0.2648  0.6172 -0.2730
  344MOL0     C46358  10.625   3.158   7.001 -0.2797  0.0604  0.4222
  344MOL0     C46359  10.933   2.958   6.736 -0.7631 -0.6346  0.0045
  344MOL0     C46360  11.021   2.933   6.839 -0.3340 -0.5825 -0.2302
  344MOL0     C46361  11.150   2.905   6.819  0.0587  0.2151  0.4779
  344MOL0     C46362  11.205   2.881   6.691 -0.4486  0.3962 -0.0547
  344MOL0     O46363  11.344   2.858   6.675  0.4929  0.2271  0.5659
  344MOL0     C46364  11.380   2.806   6.547 -0.9541 -0.4959  0.1668
  344MOL0     C46365  11.529   2.754   6.562  1.0378 -0.2895 -0.3742
  344MOL0     C46366  11.564   2.711   6.421  0.4465 -0.4199  0.1813
  344MOL0     C46367  11.702   2.654   6.422 -0.1667  0.1044  0.3651
  344MOL0     C46368  11.740   2.598   6.284  1.4218  0.0667  0.0124
  344MOL0     C46369  11.769   2.530   6.180 -0.1927 -0.1088 -0.0425
  344MOL0     C46370  11.116   2.904   6.581 -0.2785  0.2906  0.6047
  344MOL0     C46371  10.980   2.949   6.605 -0.1176  0.0926 -0.6287
  344MOL0     C46372  10.899   2.985   6.478 -0.5935 -0.7661 -0.3459
  344MOL0     H46373  10.541   2.865   6.862  0.9633  1.4521 -1.3609
  344MOL0     H46374  10.313   2.947   6.932  1.2187 -2.1467 -0.1611
  344MOL0     H46375  10.146   3.023   7.047  2.2476  0.2557 -0.6595
  344MOL0     H46376  10.196   3.086   7.209  1.7776  0.1472 -0.5464
  344MOL0     H46377  10.032   3.280   7.148  0.4659  0.9051  0.0253
  344MOL0     H46378   9.962   3.110   7.171  1.3724 -2.8237 -1.5878
  344MOL0     H46379  10.037   3.195   6.887  0.2880 -2.6294  0.5103
  344MOL0     H46380   9.923   3.297   6.965 -0.1488 -0.4567  0.4549
  344MOL0     H46381   9.873   3.003   6.940  0.2136  0.0428  2.2203
  344MOL0     H46382   9.764   3.130   6.996  1.5243  1.8883  1.9553
  344MOL0     H46383   9.802   3.238   6.751 -0.2609 -0.4686 -1.2092
  344MOL0     H46384   9.911   3.117   6.722 -0.8760 -1.3363 -0.4026
  344MOL0     H46385   9.706   2.937   6.781  4.7674  0.5806  2.6857
  344MOL0     H46386   9.608   3.078   6.761  0.6564  0.2602  1.2027
  344MOL0     H46387   9.773   3.118   6.548 -1.2337  0.0959  1.3352
  344MOL0     H46388   9.645   3.006   6.524  0.3783  0.0525 -1.3364
  344MOL0     H46389   9.780   2.815   6.596 -1.1157  0.2288 -0.8682
  344MOL0     H46390   9.843   2.882   6.435  2.0934 -0.0444  0.1034
  344MOL0     H46391  10.069   3.031   6.447  1.0728 -1.2584 -0.2859
  344MOL0     H46392  10.372   2.979   6.665 -0.2644  1.3649  0.3181
  344MOL0     H46393  10.331   2.987   6.498 -2.1652 -2.5953 -0.9968
  344MOL0     H46394  10.215   3.215   6.548 -0.1464 -0.4782  0.1233
  344MOL0     H46395  10.247   3.193   6.722 -0.2527  0.7238  0.3050
  344MOL0     H46396  10.472   3.201   6.507 -1.2308  0.0234 -0.5375
  344MOL0     H46397  10.482   3.207   6.686 -0.1312 -0.5142  0.1157
  344MOL0     H46398  10.527   3.428   6.632  0.4772 -0.5404 -0.4474
  344MOL0     H46399  10.349   3.434   6.664 -0.3474 -0.2306  0.8901
  344MOL0     H46400  10.377   3.605   6.262  1.6090  1.5482 -0.4043
  344MOL0     H46401  10.534   3.633   6.088 -1.7110  0.2346  1.1834
  344MOL0     H46402  10.840   3.440   5.794 -1.3334 -0.1834  1.6336
  344MOL0     H46403  10.996   3.462   5.629 -1.2879  1.5766  0.7271
  344MOL0     H46404  11.319   3.391   5.483 -0.2928  0.8479 -2.9023
  344MOL0     H46405  11.137   3.396   5.499  0.0869 -1.2598  1.6718
  344MOL0     H46406  11.208   3.575   5.341 -2.4056  0.1347  0.9320
  344MOL0     H46407  11.167   3.645   5.503  0.1474  0.0382  0.0758
  344MOL0     H46408  11.372   3.746   5.433 -2.2766 -0.4356 -5.8019
  344MOL0     H46409  11.428   3.631   5.546  0.6008  2.1627 -0.0723
  344MOL0     H46410  11.450   3.594   5.245  0.6771 -2.0572  0.7252
  344MOL0     H46411  11.482   3.474   5.374  0.0116 -0.2851  0.5890
  344MOL0     H46412  11.652   3.585   5.487 -2.1179  0.3120  0.0306
  344MOL0     H46413  11.633   3.733   5.390 -1.0758 -0.0680  1.3196
  344MOL0     H46414  11.747   3.467   5.316  0.3713 -0.2797  2.1836
  344MOL0     H46415  11.734   3.601   5.189  0.6395  1.0302 -0.0822
  344MOL0     H46416  11.882   3.652   5.444  0.2769  1.1137  0.3870
  344MOL0     H46417  11.871   3.746   5.294  0.6677  1.3883  3.7900
  344MOL0     H46418  12.076   3.602   5.317 -0.8639 -1.3610 -0.4974
  344MOL0     H46419  11.977   3.453   5.322 -1.9149 -1.0631 -1.2833
  344MOL0     H46420  11.322   3.477   5.896  0.2248 -2.8952 -2.0082
  344MOL0     H46421  11.147   3.449   6.102 -0.3247 -1.6033 -0.0653
  344MOL0     H46422  10.822   3.390   6.305  0.3344  0.8073  2.6732
  344MOL0     H46423  10.666   3.344   6.474  2.2331 -0.5143 -1.5044
  344MOL0     H46424  10.486   3.302   7.083  1.2427  0.0918  1.2277
  344MOL0     H46425  10.717   3.212   7.020 -2.2041  2.5691  3.7775
  344MOL0     H46426  10.993   2.943   6.943 -1.4084 -0.6770 -0.4883
  344MOL0     H46427  11.217   2.887   6.903 -0.4475  2.5604  1.4520
  344MOL0     H46428  11.378   2.895   6.483 -1.4363  2.1083  3.5415
  344MOL0     H46429  11.317   2.729   6.501  0.2615 -1.8469  0.6653
  344MOL0     H46430  11.525   2.668   6.630 -0.0139  1.1203  1.4448
  344MOL0     H46431  11.606   2.822   6.601 -1.2007  0.3505  3.5148
  344MOL0     H46432  11.562   2.797   6.353  3.2114  0.4088  1.0110
  344MOL0     H46433  11.499   2.631   6.385 -1.5713  0.9721  0.5727
  344MOL0     H46434  11.777   2.729   6.447  2.8826 -2.0673 -1.4696
  344MOL0     H46435  11.699   2.573   6.496  0.7791  0.7936  1.1871
  344MOL0     H46436  11.804   2.458   6.108  0.8486  1.5471 -1.2640
  344MOL0     H46437  11.148   2.885   6.479  0.4664 -1.8885  1.1872
  344MOL0     H46438  10.808   2.924   6.472  1.4378 -3.9895 -1.1755
  344MOL0     H46439  10.876   3.090   6.456  0.9986 -0.1826  0.6243
  344MOL0     H46440  10.959   2.951   6.393 -1.4726 -1.6105 -0.6480
  345MOL0     O46441   8.082   1.767  10.876  0.3758  0.1530 -0.3145
  345MOL0     C46442   8.157   1.776  10.976 -0.3801 -0.8864  0.2951
  345MOL0     O46443   8.127   1.827  11.101  0.4602 -0.7142 -0.4660
  345MOL0     C46444   7.989   1.828  11.132 -0.5772  0.1074 -0.3045
  345MOL0     C46445   7.902   1.717  11.122  0.6105 -0.3808 -0.7105
  345MOL0     C46446   7.765   1.730  11.153 -0.3544  0.9691  0.2165
  345MOL0     C46447   7.702   1.850  11.188 -0.0241 -0.4102  0.4554
  345MOL0     O46448   7.570   1.848  11.229  0.1768 -0.5442  0.0195
  345MOL0     C46449   7.489   1.971  11.219 -0.3859  0.3341 -0.1412
  345MOL0     C46450   7.344   1.950  11.230  0.2217 -0.2082  1.7283
  345MOL0     C46451   7.307   1.883  11.360  0.0256 -0.4124  0.0672
  345MOL0     C46452   7.152   1.875  11.391 -0.7283 -0.0761  0.5398
  345MOL0     C46453   7.159   1.853  11.545  0.3006 -0.4195 -0.4133
  345MOL0     C46454   7.017   1.857  11.609 -1.0008  0.2109  0.7889
  345MOL0     C46455   6.926   1.749  11.557  0.3820 -0.0937 -0.8142
  345MOL0     C46456   6.810   1.733  11.646  0.5052 -0.7301 -0.3094
  345MOL0     N46457   6.727   1.856  11.674 -0.1639  0.7306  0.5685
  345MOL0     C46458   6.727   1.940  11.780 -1.0213  0.3513  0.0046
  345MOL0     C46459   6.678   2.057  11.737  0.4073 -0.2240  0.4493
  345MOL0     C46460   6.671   2.191  11.806 -0.7364 -0.3176 -0.2641
  345MOL0     C46461   6.745   2.188  11.945 -0.8369 -0.1900 -0.0910
  345MOL0     C46462   6.724   2.327  12.020  0.2680 -0.3547 -0.0589
  345MOL0     C46463   6.787   2.337  12.156 -0.8475 -0.2114 -0.2815
  345MOL0     O46464   6.874   2.449  12.174 -0.8122 -0.0503 -0.5476
  345MOL0     C46465   7.007   2.432  12.150  0.4653 -0.4755  0.2981
  345MOL0     C46466   7.060   2.440  12.021  0.3803 -1.2832  0.1022
  345MOL0     C46467   7.200   2.429  12.002 -0.5320 -0.5336  1.0251
  345MOL0     C46468   7.286   2.396  12.105 -0.4073  0.1919 -0.2247
  345MOL0     C46469   7.438   2.377  12.088  0.4416  0.8652 -0.3157
  345MOL0     O46470   7.469   2.337  11.958  0.0742  0.1677  0.7004
  345MOL0     C46471   7.589   2.382  11.900  0.8530  0.3885  0.0180
  345MOL0     C46472   7.600   2.487  11.800  1.0478  0.0138 -0.3074
  345MOL0     C46473   7.726   2.523  11.759 -0.2590 -0.3874 -0.2648
  345MOL0     C46474   7.846   2.455  11.796  0.1366  0.0290  0.3766
  345MOL0     O46475   7.972   2.478  11.753 -0.8975 -0.3280  0.5868
  345MOL0     C46476   7.989   2.541  11.623 -0.2349  0.3565  0.4462
  345MOL0     C46477   8.135   2.558  11.593 -0.2486 -0.3785 -0.4179
  345MOL0     C46478   8.162   2.619  11.461 -0.7657  0.6295 -0.4028
  345MOL0     C46479   8.303   2.672  11.470 -0.8562 -0.3245  0.2329
  345MOL0     C46480   8.356   2.712  11.336  0.2505 -0.4619  0.3298
  345MOL0     C46481   8.508   2.749  11.327  1.2623  0.7001  0.4274
  345MOL0     C46482   8.514   2.823  11.194 -0.0895  0.3361  0.3618
  345MOL0     C46483   8.647   2.901  11.181 -0.0397 -0.4988 -0.3236
  345MOL0    Cl46484   8.781   2.777  11.152 -0.4758 -0.2429 -0.1497
  345MOL0     C46485   7.834   2.353  11.896 -0.5186  0.5855  0.6952
  345MOL0     C46486   7.710   2.319  11.945 -0.1066  0.3504  0.0445
  345MOL0     O46487   7.519   2.392  12.179 -0.0350  0.0413  0.1277
  345MOL0     C46488   7.223   2.373  12.232 -0.4920 -1.3872  0.0215
  345MOL0     C46489   7.093   2.399  12.251  0.3653  0.0261 -0.2428
  345MOL0     N46490   6.626   2.036  11.607  0.5390  0.2474  0.2814
  345MOL0     N46491   6.648   1.916  11.573 -0.3080  0.3537 -0.1115
  345MOL0     C46492   7.784   1.967  11.179 -0.0234  0.3730 -0.6147
  345MOL0     C46493   7.931   1.954  11.165  0.6172  0.6986  0.6055
  345MOL0     C46494   8.303   1.753  10.950  0.7233 -0.2084  0.2924
  345MOL0     C46495   8.349   1.800  10.831  0.2667  0.0183 -0.0644
  345MOL0     C46496   8.480   1.760  10.782 -0.3100 -0.2799 -0.2695
  345MOL0     C46497   8.559   1.676  10.860 -0.4177 -0.0270 -0.4280
  345MOL0     O46498   8.679   1.630  10.811  0.6556  0.2454  0.2728
  345MOL0     C46499   8.716   1.647  10.669  0.1817 -0.1818 -0.0909
  345MOL0     C46500   8.780   1.787  10.649 -0.4366 -0.2669  0.2084
  345MOL0     C46501   8.817   1.831  10.508 -0.6865 -0.8803 -0.1246
  345MOL0     C46502   8.901   1.963  10.516  0.1546  0.5050  0.5807
  345MOL0     C46503   8.843   2.077  10.583  0.8219 -0.1568  0.1027
  345MOL0     C46504   8.814   2.183  10.639  0.6548  0.2022  0.0242
  345MOL0     C46505   8.518   1.644  10.989  1.2263  0.3714 -0.1050
  345MOL0     C46506   8.388   1.685  11.032  0.8802  0.2581  0.1673
  345MOL0     C46507   8.336   1.629  11.165 -0.0753 -0.2195  0.5577
  345MOL0     H46508   7.941   1.619  11.094  2.3474  0.2822 -0.7512
  345MOL0     H46509   7.712   1.637  11.171 -3.0471  1.8838 -2.1756
  345MOL0     H46510   7.509   2.035  11.306  0.5004  0.4482 -0.4193
  345MOL0     H46511   7.518   2.033  11.134 -0.9470 -0.6908 -1.1006
  345MOL0     H46512   7.287   1.894  11.155  0.2934  2.2747 -0.3091
  345MOL0     H46513   7.302   2.051  11.225 -0.2348 -0.3535  2.5314
  345MOL0     H46514   7.349   1.956  11.430 -0.8099  0.9398 -0.8004
  345MOL0     H46515   7.361   1.788  11.365  1.9263  0.4221 -2.5743
  345MOL0     H46516   7.092   1.959  11.355 -0.6145 -0.8571 -1.6504
  345MOL0     H46517   7.117   1.785  11.339 -0.1269 -0.2270  0.3885
  345MOL0     H46518   7.215   1.760  11.560 -1.3429 -2.0619 -3.5306
  345MOL0     H46519   7.231   1.922  11.590 -1.2829 -0.2934  2.1158
  345MOL0     H46520   7.024   1.861  11.718 -2.5295  0.5386  0.8945
  345MOL0     H46521   6.960   1.947  11.587  0.1790  2.2874  5.1179
  345MOL0     H46522   6.982   1.655  11.555  2.2280  0.8260  1.8802
  345MOL0     H46523   6.888   1.766  11.456  3.8446 -1.5215 -2.5522
  345MOL0     H46524   6.745   1.654  11.608 -1.6087  1.1603 -0.8170
  345MOL0     H46525   6.853   1.707  11.743  0.7943  1.1044  0.0840
  345MOL0     H46526   6.771   1.908  11.874 -0.4801  1.4700  0.1489
  345MOL0     H46527   6.727   2.263  11.745  1.0546 -0.9312  0.5919
  345MOL0     H46528   6.568   2.221  11.829 -0.8254 -1.4374  0.9220
  345MOL0     H46529   6.721   2.092  11.992 -2.2661  0.5596  0.7635
  345MOL0     H46530   6.851   2.182  11.917 -0.8859  0.1382 -0.3609
  345MOL0     H46531   6.618   2.345  12.040  0.4062  0.7076 -0.2490
  345MOL0     H46532   6.769   2.407  11.961  1.7438 -2.2235 -1.6052
  345MOL0     H46533   6.847   2.250  12.185  1.4452  1.0751 -0.9360
  345MOL0     H46534   6.712   2.346  12.235 -0.4620  0.4446  0.0119
  345MOL0     H46535   6.991   2.454  11.939 -1.0129 -2.4475  1.0258
  345MOL0     H46536   7.235   2.436  11.899 -1.2647  1.1542  0.8666
  345MOL0     H46537   7.518   2.542  11.752  2.3959 -0.5167 -3.4867
  345MOL0     H46538   7.714   2.594  11.678 -1.9279 -0.3627 -0.0200
  345MOL0     H46539   7.945   2.474  11.548 -2.2821  0.8654  1.1175
  345MOL0     H46540   7.940   2.638  11.616 -1.7232 -0.2561  1.6252
  345MOL0     H46541   8.194   2.610  11.668  1.6401 -2.2469 -0.5099
  345MOL0     H46542   8.171   2.455  11.586 -2.3665 -1.1452 -0.8855
  345MOL0     H46543   8.155   2.540  11.386  1.9513  2.2715 -2.5897
  345MOL0     H46544   8.083   2.690  11.437  1.9175  3.2435 -2.2732
  345MOL0     H46545   8.362   2.587  11.507 -1.9823 -0.0583  2.7949
  345MOL0     H46546   8.308   2.759  11.535 -0.4234 -1.3367  1.5916
  345MOL0     H46547   8.290   2.791  11.299  0.7558  0.7473  1.8609
  345MOL0     H46548   8.357   2.635  11.259  2.3704  2.6305 -3.0916
  345MOL0     H46549   8.530   2.815  11.411  3.1402  0.1239  0.4268
  345MOL0     H46550   8.564   2.657  11.342  0.4115 -0.1352 -1.2556
  345MOL0     H46551   8.430   2.894  11.200 -2.7190 -2.4237 -1.1304
  345MOL0     H46552   8.490   2.770  11.102  0.0687 -1.7044  1.4436
  345MOL0     H46553   8.641   2.981  11.107  1.0275 -2.3892 -2.6008
  345MOL0     H46554   8.671   2.956  11.272 -0.1415  2.3133 -1.9015
  345MOL0     H46555   7.923   2.301  11.928 -0.0805 -0.6800 -2.2449
  345MOL0     H46556   7.700   2.238  12.017 -1.2614  2.0114  1.8480
  345MOL0     H46557   7.287   2.344  12.314 -4.2735 -0.2417  3.7087
  345MOL0     H46558   7.053   2.381  12.350  1.7079  1.3989  0.5974
  345MOL0     H46559   7.735   2.062  11.198 -1.8969 -0.3543 -1.5442
  345MOL0     H46560   7.984   2.048  11.177 -2.9222  3.5973 -3.3073
  345MOL0     H46561   8.268   1.855  10.785  0.2792  1.5700  1.6662
  345MOL0     H46562   8.516   1.791  10.684  0.8908  0.1237  0.2801
  345MOL0     H46563   8.631   1.630  10.603 -0.5322 -1.6437  1.1321
  345MOL0     H46564   8.791   1.570  10.645  0.7994 -1.0206  3.8736
  345MOL0     H46565   8.872   1.796  10.708  0.2089 -2.2909 -0.3959
  345MOL0     H46566   8.713   1.869  10.675 -1.0406 -0.1564 -1.5311
  345MOL0     H46567   8.728   1.861  10.452  0.4118  1.2467 -0.8444
  345MOL0     H46568   8.866   1.747  10.458 -0.3873 -1.9538  1.8607
  345MOL0     H46569   8.990   1.954  10.579 -1.7656 -0.7068  3.2748
  345MOL0     H46570   8.932   1.985  10.413 -0.5940 -2.7097 -0.4577
  345MOL0     H46571   8.774   2.256  10.706 -0.1755  0.6400 -0.9146
  345MOL0     H46572   8.575   1.574  11.050 -1.0278 -4.8228 -3.2423
  345MOL0     H46573   8.239   1.579  11.157  0.2389 -0.8271  0.4791
  345MOL0     H46574   8.407   1.553  11.199  2.2104  1.2045 -0.7831
  345MOL0     H46575   8.343   1.701  11.247  2.0998 -1.1138  1.2433
  346MOL0     O46576   5.628  10.893   1.254 -0.0895  0.2069  0.2095
  346MOL0     C46577   5.514  10.854   1.243 -0.4430  0.6747  0.3056
  346MOL0     O46578   5.447  10.775   1.335  0.1206 -0.0233  0.3209
  346MOL0     C46579   5.521  10.724   1.434  0.3793  0.0539 -0.2205
  346MOL0     C46580   5.641  10.651   1.409  0.2472 -0.4547 -0.1963
  346MOL0     C46581   5.702  10.593   1.518 -0.7023 -0.5862  0.1280
  346MOL0     C46582   5.647  10.607   1.649 -0.2135 -0.0552  0.7469
  346MOL0     O46583   5.722  10.548   1.749  0.0672 -0.0745  0.8146
  346MOL0     C46584   5.732  10.617   1.877  0.5847 -0.4057  0.9284
  346MOL0     C46585   5.822  10.531   1.977 -0.0918 -0.7500  0.3059
  346MOL0     C46586   5.856  10.606   2.103  0.1424  0.2630  0.4733
  346MOL0     C46587   5.921  10.503   2.204 -0.1444  0.2083  0.4052
  346MOL0     C46588   5.976  10.566   2.329 -0.1918  0.2365  0.7984
  346MOL0     C46589   6.033  10.457   2.430  0.7343 -0.2879 -0.5050
  346MOL0     C46590   6.087  10.524   2.559 -0.5640 -0.0204  1.0934
  346MOL0     C46591   6.116  10.422   2.668  0.0938 -0.8146  0.9107
  346MOL0     N46592   6.200  10.447   2.780 -0.9117 -0.1061  0.4493
  346MOL0     C46593   6.188  10.553   2.863 -0.3017  0.9207  0.2283
  346MOL0     C46594   6.279  10.535   2.966 -0.5950 -0.4562 -0.0449
  346MOL0     C46595   6.305  10.636   3.076 -0.7513 -0.0156  0.2707
  346MOL0     C46596   6.362  10.778   3.043  0.1324  0.2087 -0.3360
  346MOL0     C46597   6.252  10.875   3.015  0.2590  0.4568  0.2240
  346MOL0     C46598   6.306  11.016   3.034  0.0333  0.7443 -1.3281
  346MOL0     O46599   6.197  11.102   2.993  0.0259 -0.0419 -0.9013
  346MOL0     C46600   6.118  11.155   3.093 -0.2009 -0.0048  1.0496
  346MOL0     C46601   5.990  11.208   3.065 -0.5704  0.1254 -0.2539
  346MOL0     C46602   5.915  11.270   3.162  0.2366 -0.4035 -0.0321
  346MOL0     C46603   5.957  11.277   3.297  0.0322 -0.5755 -0.9059
  346MOL0     C46604   5.867  11.302   3.413 -0.4317  0.4882 -0.4111
  346MOL0     O46605   5.908  11.398   3.502 -0.4042  0.6844 -0.8823
  346MOL0     C46606   5.828  11.436   3.613 -0.1078  0.2880  0.2630
  346MOL0     C46607   5.765  11.351   3.699 -0.0999  0.3367 -0.4383
  346MOL0     C46608   5.691  11.399   3.812 -0.7511  0.2764 -0.4042
  346MOL0     C46609   5.703  11.535   3.854  0.1606  0.8907  0.7631
  346MOL0     O46610   5.644  11.586   3.968 -0.8083 -0.4513  0.0573
  346MOL0     C46611   5.640  11.494   4.077 -0.2929 -0.4135  0.0319
  346MOL0     C46612   5.635  11.558   4.218 -0.0445 -0.8947 -0.0001
  346MOL0     C46613   5.780  11.594   4.251  0.5303 -0.1651 -0.4230
  346MOL0     C46614   5.778  11.653   4.393  0.2302 -0.5433  0.6641
  346MOL0     C46615   5.924  11.703   4.423  0.1844 -0.5601 -0.2283
  346MOL0     C46616   5.931  11.727   4.575 -0.2794  1.1545  0.3047
  346MOL0     C46617   5.863  11.848   4.622  0.8529 -0.2952  0.4437
  346MOL0     C46618   5.786  11.831   4.751  0.0413 -0.5574 -0.0442
  346MOL0    Cl46619   5.904  11.799   4.886  0.3625  0.3979  0.0438
  346MOL0     C46620   5.771  11.623   3.766 -0.6510  0.3388  0.0095
  346MOL0     C46621   5.817  11.574   3.640  0.2076 -0.8697 -0.2854
  346MOL0     O46622   5.761  11.244   3.425 -0.5204  0.6423  0.6648
  346MOL0     C46623   6.090  11.241   3.323  0.1486  0.5414  0.2451
  346MOL0     C46624   6.170  11.177   3.225 -0.7324 -0.5686 -0.0769
  346MOL0     N46625   6.351  10.419   2.934  0.4362  0.2367 -0.0968
  346MOL0     N46626   6.291  10.360   2.833  0.4730  0.7392 -0.2208
  346MOL0     C46627   5.526  10.674   1.664  0.5081 -0.3045 -0.2943
  346MOL0     C46628   5.458  10.726   1.557 -0.7635 -0.6625 -0.2734
  346MOL0     C46629   5.437  10.900   1.124 -0.6543 -0.1697  0.4453
  346MOL0     C46630   5.312  10.834   1.090  0.4597  0.1738  0.2013
  346MOL0     C46631   5.240  10.865   0.975 -0.6862 -0.4993 -0.4851
  346MOL0     C46632   5.269  10.976   0.908 -0.2939 -0.8922 -0.3173
  346MOL0     O46633   5.190  11.026   0.805  0.0554 -0.9817 -0.3787
  346MOL0     C46634   5.171  10.923   0.700 -0.3978 -0.8391  0.4450
  346MOL0     C46635   5.025  10.928   0.685 -0.1976  0.0922 -0.6124
  346MOL0     C46636   4.959  10.843   0.580  0.8646  1.1191 -0.0627
  346MOL0     C46637   4.813  10.894   0.552  0.4022  0.4567 -0.7916
  346MOL0     C46638   4.821  11.014   0.473 -0.3583 -0.8128  0.7382
  346MOL0     C46639   4.782  11.105   0.399 -0.1063 -0.2478  0.0285
  346MOL0     C46640   5.384  11.045   0.939 -0.0900 -0.2079 -0.7390
  346MOL0     C46641   5.477  11.014   1.045 -0.2161 -0.5122  0.0278
  346MOL0     C46642   5.595  11.105   1.080 -0.5170 -0.3463 -0.8568
  346MOL0     H46643   5.675  10.654   1.306  1.0024  4.3865 -0.0643
  346MOL0     H46644   5.797  10.541   1.520 -2.7862 -4.9013  2.0379
  346MOL0     H46645   5.777  10.715   1.860 -1.0705  0.0865 -1.0462
  346MOL0     H46646   5.641  10.641   1.933  0.5609  1.1091  0.2849
  346MOL0     H46647   5.910  10.503   1.918  0.5475  1.1062  0.3411
  346MOL0     H46648   5.778  10.436   2.010 -0.3933 -0.3887  0.9595
  346MOL0     H46649   5.771  10.639   2.164  0.9911 -4.3658  4.8179
  346MOL0     H46650   5.921  10.690   2.078 -4.1205  3.5759 -0.6145
  346MOL0     H46651   5.846  10.436   2.247 -1.5461  1.1667 -0.4587
  346MOL0     H46652   5.994  10.447   2.145 -1.2591  0.8345 -1.6749
  346MOL0     H46653   6.058  10.634   2.304 -1.8020  1.9163 -0.2099
  346MOL0     H46654   5.897  10.632   2.366 -1.1557 -1.4574  1.9162
  346MOL0     H46655   5.946  10.397   2.459  1.0369  0.4321  2.1973
  346MOL0     H46656   6.118  10.397   2.395  1.1040 -0.2734  0.3432
  346MOL0     H46657   6.027  10.606   2.601  0.2420  0.9188  0.4411
  346MOL0     H46658   6.184  10.567   2.534 -1.3993  1.6113  0.5406
  346MOL0     H46659   6.016  10.402   2.706 -0.1022 -3.2963 -0.6579
  346MOL0     H46660   6.154  10.329   2.623 -0.7393 -1.9812  2.5316
  346MOL0     H46661   6.108  10.627   2.856 -4.6949 -3.2897  0.5315
  346MOL0     H46662   6.218  10.665   3.135 -0.9643  0.8446 -0.4421
  346MOL0     H46663   6.378  10.583   3.138 -1.8044 -0.1862  1.3947
  346MOL0     H46664   6.427  10.809   3.124  1.0600 -0.5502 -0.7625
  346MOL0     H46665   6.430  10.774   2.957  2.3331 -0.1688  1.3415
  346MOL0     H46666   6.171  10.862   3.087 -0.8419  1.6863 -0.7214
  346MOL0     H46667   6.209  10.860   2.915  0.2565  1.3108  0.0852
  346MOL0     H46668   6.381  11.042   2.959  0.3558 -0.5215 -1.4780
  346MOL0     H46669   6.351  11.022   3.134  0.9201  2.4146 -1.7851
  346MOL0     H46670   5.950  11.199   2.964  1.8346  0.7405 -1.3331
  346MOL0     H46671   5.812  11.293   3.137 -0.2774 -1.1775  1.2571
  346MOL0     H46672   5.768  11.244   3.682  0.6786  0.0727  1.1537
  346MOL0     H46673   5.630  11.332   3.872 -0.0546 -2.9497 -3.0043
  346MOL0     H46674   5.540  11.451   4.062 -1.5175  2.7788 -2.1449
  346MOL0     H46675   5.729  11.431   4.079  0.3097  0.2994 -1.9365
  346MOL0     H46676   5.567  11.644   4.223  2.1728  0.9920 -0.4487
  346MOL0     H46677   5.604  11.487   4.296  1.8440 -2.6338 -0.7496
  346MOL0     H46678   5.845  11.506   4.244  1.6705  0.7126 -1.3435
  346MOL0     H46679   5.823  11.674   4.190  1.3322  3.5829  4.3904
  346MOL0     H46680   5.758  11.564   4.454 -2.5854 -2.6113 -2.8255
  346MOL0     H46681   5.707  11.736   4.400  1.1456  0.4114 -0.8260
  346MOL0     H46682   5.942  11.796   4.367 -0.5947 -1.4759 -2.1017
  346MOL0     H46683   5.998  11.628   4.393  0.0027 -0.6269 -0.5144
  346MOL0     H46684   5.899  11.636   4.626 -0.1468 -0.2800 -2.0380
  346MOL0     H46685   6.037  11.739   4.600 -0.0057 -0.3635 -0.0752
  346MOL0     H46686   5.795  11.878   4.542  2.3037 -0.3157 -0.8355
  346MOL0     H46687   5.933  11.930   4.636  1.5922 -0.9370  0.6122
  346MOL0     H46688   5.743  11.931   4.765 -0.5916 -0.4572 -2.2735
  346MOL0     H46689   5.711  11.752   4.753  1.4560 -1.9314  1.3214
  346MOL0     H46690   5.774  11.729   3.790 -1.4598  0.2778  0.4197
  346MOL0     H46691   5.860  11.649   3.574 -0.8668 -0.0602 -0.1010
  346MOL0     H46692   6.137  11.238   3.421  1.2686 -2.1173 -0.2779
  346MOL0     H46693   6.275  11.156   3.242 -0.8481 -2.2324 -1.1735
  346MOL0     H46694   5.491  10.683   1.766  0.5286 -1.4055 -0.1767
  346MOL0     H46695   5.369  10.786   1.575 -0.9373 -1.0569  0.2079
  346MOL0     H46696   5.270  10.755   1.151  1.2006  0.6340  1.3557
  346MOL0     H46697   5.148  10.809   0.961 -1.0774 -0.0673  0.3336
  346MOL0     H46698   5.195  10.817   0.715 -0.1501 -0.9785 -0.8822
  346MOL0     H46699   5.207  10.956   0.602  1.0802  0.0428  1.2416
  346MOL0     H46700   5.006  11.035   0.670 -3.5844 -0.6665 -2.8333
  346MOL0     H46701   4.974  10.901   0.778  1.0357 -0.9815 -0.2178
  346MOL0     H46702   4.954  10.741   0.621  0.0598  0.8626 -0.7665
  346MOL0     H46703   5.016  10.833   0.487  2.0359 -1.4387  0.8318
  346MOL0     H46704   4.758  10.818   0.496  0.7607 -0.3327 -0.1019
  346MOL0     H46705   4.764  10.909   0.648  2.0062  0.9603 -0.0104
  346MOL0     H46706   4.743  11.187   0.343  1.2316 -0.5420 -1.4182
  346MOL0     H46707   5.390  11.137   0.881 -1.4432  0.0995 -0.4311
  346MOL0     H46708   5.594  11.127   1.187 -1.3238 -1.4557 -0.6152
  346MOL0     H46709   5.679  11.040   1.056 -1.3457 -1.5800 -0.5299
  346MOL0     H46710   5.594  11.203   1.030 -2.2262 -0.8166 -1.8583
  347MOL0     O46711   0.447   4.731   7.653  0.7628 -0.3557  0.3331
  347MOL0     C46712   0.521   4.786   7.731 -0.0840 -0.3115  0.4008
  347MOL0     O46713   0.629   4.728   7.803  0.1076  0.1622  0.6446
  347MOL0     C46714   0.669   4.600   7.770 -0.4555 -0.1983 -0.3214
  347MOL0     C46715   0.583   4.490   7.741  0.2968 -0.0559  0.8947
  347MOL0     C46716   0.637   4.360   7.715 -0.5215  1.0984  0.4034
  347MOL0     C46717   0.780   4.339   7.703  0.0718  0.5522 -0.7601
  347MOL0     O46718   0.830   4.219   7.654  0.6082  0.5065 -0.6023
  347MOL0     C46719   0.744   4.152   7.561 -0.1593  0.5375 -0.4538
  347MOL0     C46720   0.818   4.062   7.461  0.7565  0.7632 -0.4430
  347MOL0     C46721   0.917   3.960   7.526 -0.4692  0.1445 -0.6406
  347MOL0     C46722   0.879   3.900   7.656 -0.2167 -0.5247 -0.4558
  347MOL0     C46723   0.964   3.790   7.707  0.2850 -0.6984 -0.7177
  347MOL0     C46724   0.934   3.751   7.854 -0.5462  0.6699  0.6497
  347MOL0     C46725   0.789   3.692   7.882 -0.2479 -0.3703 -0.1431
  347MOL0     C46726   0.778   3.618   8.014 -0.1253  0.2255  0.1325
  347MOL0     N46727   0.853   3.685   8.130  0.2897 -0.5211  0.9090
  347MOL0     C46728   0.977   3.652   8.189 -1.0904  0.3630  0.0701
  347MOL0     C46729   0.993   3.743   8.293 -0.0134 -0.5543  0.0204
  347MOL0     C46730   1.115   3.762   8.382  0.7303  0.0650  1.1376
  347MOL0     C46731   1.219   3.849   8.307  0.4386 -0.0494 -0.2036
  347MOL0     C46732   1.333   3.765   8.253  0.2727 -0.0122  0.1511
  347MOL0     C46733   1.441   3.854   8.196  0.3926 -0.4349 -0.3637
  347MOL0     O46734   1.488   3.944   8.299 -0.6503 -0.2599  0.9421
  347MOL0     C46735   1.606   4.010   8.269 -0.5618  0.2030 -1.3903
  347MOL0     C46736   1.682   3.979   8.157  1.0441 -0.5711  0.3183
  347MOL0     C46737   1.792   4.055   8.120 -0.7338 -0.4085 -0.4541
  347MOL0     C46738   1.842   4.148   8.213 -0.7417 -0.1363 -1.4474
  347MOL0     C46739   1.967   4.221   8.184  0.2674 -0.6923  0.3554
  347MOL0     O46740   2.041   4.176   8.089  0.8056  0.5211  0.7782
  347MOL0     C46741   2.155   4.247   8.050 -0.0570 -0.6613 -0.3966
  347MOL0     C46742   2.276   4.250   8.127  0.1659 -0.0470 -0.2664
  347MOL0     C46743   2.393   4.304   8.078 -0.4490  0.7829 -0.8042
  347MOL0     C46744   2.401   4.361   7.953 -0.7710 -0.4602 -0.2778
  347MOL0     O46745   2.523   4.398   7.902  0.3607 -0.5014 -0.4310
  347MOL0     C46746   2.549   4.537   7.938  0.4247 -0.6435  0.1061
  347MOL0     C46747   2.694   4.580   7.916  0.1048  0.2000  0.2226
  347MOL0     C46748   2.745   4.580   7.770  0.3544  0.6950 -0.0964
  347MOL0     C46749   2.887   4.559   7.747  0.1172  0.0526  0.6540
  347MOL0     C46750   2.968   4.692   7.770  0.3067  0.0818 -0.4007
  347MOL0     C46751   3.111   4.660   7.760 -0.6627 -0.0078 -0.0100
  347MOL0     C46752   3.200   4.789   7.776  0.2325 -0.2759  1.3255
  347MOL0     C46753   3.191   4.879   7.652 -0.0054 -0.0163 -0.8058
  347MOL0    Cl46754   3.328   5.001   7.665 -0.4616 -0.1069  0.0813
  347MOL0     C46755   2.280   4.376   7.884  0.1931 -0.2385  0.2062
  347MOL0     C46756   2.163   4.321   7.932  0.0459  0.9148  0.4766
  347MOL0     O46757   1.988   4.322   8.246 -0.1222 -0.1071  0.1709
  347MOL0     C46758   1.776   4.167   8.339  0.6752  0.8722 -0.1013
  347MOL0     C46759   1.652   4.097   8.370  0.2616 -0.4793 -0.4224
  347MOL0     N46760   0.880   3.819   8.305 -0.5225 -0.7801  0.3370
  347MOL0     N46761   0.794   3.769   8.221  0.1703 -0.2123  0.6794
  347MOL0     C46762   0.859   4.443   7.750  0.2298  0.7594 -0.2636
  347MOL0     C46763   0.802   4.567   7.785 -0.2779 -0.3588  0.0417
  347MOL0     C46764   0.507   4.931   7.738 -0.3675 -0.4959  1.1455
  347MOL0     C46765   0.628   4.999   7.750 -0.4452  0.4777  0.7092
  347MOL0     C46766   0.633   5.142   7.759  0.6252  0.4817  0.2492
  347MOL0     C46767   0.514   5.220   7.751  0.3891  0.3488  0.5138
  347MOL0     O46768   0.512   5.357   7.775  0.2645  0.1627 -0.4769
  347MOL0     C46769   0.470   5.386   7.905 -0.9425  0.8057  0.1989
  347MOL0     C46770   0.568   5.477   7.978  0.0314 -0.0838 -0.3750
  347MOL0     C46771   0.555   5.629   7.937  0.8182  0.2026  0.5549
  347MOL0     C46772   0.643   5.700   8.040  0.4580  0.0321 -0.4963
  347MOL0     C46773   0.617   5.837   8.029 -1.0014 -0.6656  0.1238
  347MOL0     C46774   0.612   5.964   8.027 -0.6983  0.7734  0.9434
  347MOL0     C46775   0.396   5.152   7.748 -0.8920 -0.1609 -0.0823
  347MOL0     C46776   0.389   5.013   7.734 -0.1103  1.2350  0.2019
  347MOL0     C46777   0.264   4.933   7.750  0.0080  0.8686 -0.0444
  347MOL0     H46778   0.476   4.508   7.746  0.1455 -1.0542  1.6262
  347MOL0     H46779   0.570   4.277   7.693 -0.6294  1.3572 -0.2508
  347MOL0     H46780   0.670   4.093   7.615 -0.3001  0.4132 -0.7783
  347MOL0     H46781   0.699   4.234   7.506  0.2412  0.3357 -1.0972
  347MOL0     H46782   0.862   4.117   7.378 -0.5031  2.3921 -0.0776
  347MOL0     H46783   0.751   3.996   7.407  2.5536 -3.9400  2.4036
  347MOL0     H46784   1.006   4.016   7.557  0.4288 -0.5345 -1.8708
  347MOL0     H46785   0.944   3.885   7.450  0.1024  0.6978 -0.9924
  347MOL0     H46786   0.877   3.977   7.733  3.1669 -0.6974 -0.0121
  347MOL0     H46787   0.777   3.867   7.634  0.5014 -3.0594 -0.3768
  347MOL0     H46788   0.959   3.700   7.645  0.4478 -1.0207 -0.2698
  347MOL0     H46789   1.070   3.817   7.708  0.1504 -0.0816 -1.7666
  347MOL0     H46790   1.007   3.675   7.884 -0.4175  1.0366  1.2944
  347MOL0     H46791   0.947   3.841   7.915 -3.0463 -0.1998  2.6503
  347MOL0     H46792   0.767   3.624   7.799 -1.2272  1.7817 -1.7654
  347MOL0     H46793   0.719   3.776   7.873  0.4639  0.1986 -0.4594
  347MOL0     H46794   0.671   3.619   8.036  0.2469 -2.9410  2.8606
  347MOL0     H46795   0.807   3.513   7.999 -1.8166  0.0658 -2.7673
  347MOL0     H46796   1.053   3.579   8.162  0.0402  1.5384 -0.0360
  347MOL0     H46797   1.085   3.816   8.472 -3.1829 -1.3691  0.8733
  347MOL0     H46798   1.157   3.663   8.403 -1.2717 -1.0048  0.3891
  347MOL0     H46799   1.172   3.916   8.235 -1.3883  1.3128  2.1095
  347MOL0     H46800   1.262   3.913   8.384  0.1503 -0.9145  0.6964
  347MOL0     H46801   1.295   3.690   8.182 -2.0174 -2.0017  3.2317
  347MOL0     H46802   1.382   3.710   8.334  0.7948 -0.2249 -0.3013
  347MOL0     H46803   1.415   3.905   8.103 -1.9712 -1.1510 -0.1557
  347MOL0     H46804   1.514   3.777   8.166  0.9299 -0.5302  1.1258
  347MOL0     H46805   1.658   3.906   8.080  0.9325 -0.3535  0.1407
  347MOL0     H46806   1.836   4.032   8.024  1.2108  0.2460  0.2364
  347MOL0     H46807   2.255   4.199   8.220  0.2297 -2.3583 -1.4380
  347MOL0     H46808   2.481   4.287   8.139 -0.7151 -0.5134 -0.7603
  347MOL0     H46809   2.493   4.607   7.876 -1.0749  0.3828  2.4618
  347MOL0     H46810   2.535   4.552   8.045  5.1075  1.7629  0.6025
  347MOL0     H46811   2.716   4.681   7.954 -0.9325  0.5461 -0.0826
  347MOL0     H46812   2.739   4.504   7.981 -0.2203 -1.7176 -1.6926
  347MOL0     H46813   2.693   4.499   7.718 -0.4312 -0.0764  1.8016
  347MOL0     H46814   2.709   4.663   7.708  0.1145 -1.2998 -2.8217
  347MOL0     H46815   2.916   4.531   7.646  0.9366  3.1041 -0.0624
  347MOL0     H46816   2.930   4.481   7.810 -1.2516 -0.8849  0.4823
  347MOL0     H46817   2.933   4.723   7.869 -0.5630 -2.7927  0.2922
  347MOL0     H46818   2.933   4.767   7.698 -0.0368  1.7196  1.3769
  347MOL0     H46819   3.125   4.586   7.839  1.2579  2.4047  2.0939
  347MOL0     H46820   3.142   4.625   7.661 -2.6269 -3.4264  0.4406
  347MOL0     H46821   3.304   4.760   7.790  0.2103 -0.6171  0.7962
  347MOL0     H46822   3.161   4.838   7.866 -1.4960 -0.1761  0.5774
  347MOL0     H46823   3.220   4.841   7.554  1.7730 -1.0981  0.0903
  347MOL0     H46824   3.096   4.930   7.635 -0.3782 -0.1504  0.6824
  347MOL0     H46825   2.281   4.431   7.790 -3.9836  2.4821  1.4440
  347MOL0     H46826   2.064   4.332   7.887  0.4338 -0.0013 -0.6543
  347MOL0     H46827   1.828   4.234   8.407  3.3054  0.2918 -1.4144
  347MOL0     H46828   1.578   4.121   8.446 -2.1083 -1.1436 -2.3813
  347MOL0     H46829   0.966   4.427   7.761  0.2121  0.3899 -0.6125
  347MOL0     H46830   0.866   4.650   7.814  3.1963 -3.1571  1.1341
  347MOL0     H46831   0.711   4.934   7.727 -0.9534  0.8062 -2.4327
  347MOL0     H46832   0.720   5.206   7.765  2.0580 -1.4585  1.0189
  347MOL0     H46833   0.472   5.300   7.973  1.3151  2.5994  2.5993
  347MOL0     H46834   0.377   5.443   7.907 -2.9068 -2.1695  0.1744
  347MOL0     H46835   0.670   5.439   7.963 -0.1497 -1.3652  1.3910
  347MOL0     H46836   0.544   5.463   8.084  1.3089 -0.6390 -0.1431
  347MOL0     H46837   0.451   5.662   7.935 -0.2018 -2.7143  0.0862
  347MOL0     H46838   0.600   5.651   7.840  1.3336  0.6125  0.8794
  347MOL0     H46839   0.621   5.675   8.144  0.8789  1.9746  0.1082
  347MOL0     H46840   0.750   5.677   8.039  0.5579  0.3356  0.6857
  347MOL0     H46841   0.602   6.068   8.004 -0.3511  0.5058 -0.4905
  347MOL0     H46842   0.305   5.210   7.759 -0.0919  1.1516 -0.0992
  347MOL0     H46843   0.179   4.988   7.791 -2.1377 -3.3845  1.8966
  347MOL0     H46844   0.238   4.885   7.655  0.3688  0.6072 -0.0120
  347MOL0     H46845   0.280   4.858   7.828 -3.7783 -0.2455 -0.1401
  348MOL0     O46846   8.526   5.002   6.765 -0.4825 -0.6061 -0.2806
  348MOL0     C46847   8.515   5.121   6.764 -0.2355  0.5359  0.1012
  348MOL0     O46848   8.551   5.200   6.660 -0.5133  0.2353 -0.3001
  348MOL0     C46849   8.637   5.149   6.563  0.8124  0.9645  0.1918
  348MOL0     C46850   8.603   5.045   6.480 -0.1146  1.1583  0.5833
  348MOL0     C46851   8.706   4.992   6.401  0.4264  0.2514  1.2086
  348MOL0     C46852   8.839   5.021   6.409  0.1012  0.7211  0.0876
  348MOL0     O46853   8.941   4.969   6.337 -0.4485  0.4103 -0.8773
  348MOL0     C46854   8.933   4.980   6.189  1.1661  0.2665 -0.4596
  348MOL0     C46855   9.052   5.049   6.131 -0.3485  0.4598 -1.0099
  348MOL0     C46856   9.196   5.000   6.170 -0.0326  0.6934  0.1078
  348MOL0     C46857   9.303   5.061   6.079 -0.1095  0.1810 -0.9614
  348MOL0     C46858   9.434   5.010   6.122 -1.8812 -0.3648  0.3086
  348MOL0     C46859   9.463   4.877   6.054  0.2652  0.0941  0.0732
  348MOL0     C46860   9.612   4.846   6.058  0.3561  0.6451 -0.9101
  348MOL0     C46861   9.682   4.888   5.923 -0.1407  0.6536 -0.2097
  348MOL0     N46862   9.834   4.867   5.935  0.2956 -0.2741 -0.5961
  348MOL0     C46863   9.881   4.738   5.951 -0.1591 -1.0113  0.2070
  348MOL0     C46864  10.015   4.755   5.982  0.3483  0.0760  0.1996
  348MOL0     C46865  10.121   4.658   6.018  0.7459  0.3850  0.7822
  348MOL0     C46866  10.195   4.604   5.894  0.0131  0.5011 -0.1132
  348MOL0     C46867  10.110   4.501   5.818 -0.3039  0.1127 -0.3643
  348MOL0     C46868  10.196   4.448   5.706 -0.8411 -0.1332  0.1552
  348MOL0     O46869  10.101   4.420   5.608  0.4428  0.4646  0.1748
  348MOL0     C46870  10.147   4.409   5.476 -1.0995 -0.4081 -0.4793
  348MOL0     C46871  10.126   4.513   5.390 -0.4320 -0.2136  0.4490
  348MOL0     C46872  10.182   4.504   5.261  0.5187  0.4771 -0.5034
  348MOL0     C46873  10.248   4.383   5.214  0.2480  0.1494 -0.4905
  348MOL0     C46874  10.288   4.379   5.074 -0.5824 -0.1183 -0.2900
  348MOL0     O46875  10.319   4.254   5.021 -1.0475  0.4828  0.0011
  348MOL0     C46876  10.375   4.250   4.890  0.0403 -1.2549 -0.1546
  348MOL0     C46877  10.309   4.169   4.805  0.4760 -0.6292  0.6902
  348MOL0     C46878  10.361   4.149   4.672 -0.9409  0.5632 -1.0162
  348MOL0     C46879  10.471   4.216   4.633  0.2226 -0.7234  0.4714
  348MOL0     O46880  10.521   4.180   4.514 -1.0508  0.8079 -0.0826
  348MOL0     C46881  10.662   4.132   4.510 -0.0690  0.4838  0.6804
  348MOL0     C46882  10.747   4.244   4.437  0.9066  0.3438 -0.3036
  348MOL0     C46883  10.875   4.200   4.367  1.3066  0.1601  0.3031
  348MOL0     C46884  10.982   4.158   4.472 -0.1749  0.4143  0.4012
  348MOL0     C46885  11.040   4.284   4.533 -0.0346 -0.7097  0.1724
  348MOL0     C46886  11.156   4.342   4.452 -0.1211 -0.2745  0.0620
  348MOL0     C46887  11.218   4.463   4.535 -0.6748  0.4758 -0.1677
  348MOL0     C46888  11.356   4.425   4.589 -0.0485  0.6410  0.1244
  348MOL0    Cl46889  11.327   4.284   4.697 -0.4007  0.2276  0.1187
  348MOL0     C46890  10.528   4.318   4.713  0.3444  0.8695 -1.0248
  348MOL0     C46891  10.486   4.322   4.840  0.2746 -1.4617 -1.0336
  348MOL0     O46892  10.283   4.477   5.008  0.4737  0.3640 -0.5508
  348MOL0     C46893  10.267   4.274   5.300 -0.7018 -0.2695 -0.2996
  348MOL0     C46894  10.220   4.293   5.432  0.0094  0.1224 -0.3054
  348MOL0     N46895  10.049   4.887   5.972  0.1107 -0.0436 -1.0937
  348MOL0     N46896   9.937   4.950   5.956  0.6636 -0.4535 -0.0325
  348MOL0     C46897   8.871   5.117   6.499  0.6435  1.3002  0.0845
  348MOL0     C46898   8.772   5.182   6.580 -0.2467 -0.1107 -0.0301
  348MOL0     C46899   8.464   5.184   6.884  0.1676  0.5580  0.7887
  348MOL0     C46900   8.509   5.150   7.012  0.2393 -0.1813 -0.2839
  348MOL0     C46901   8.470   5.217   7.135  0.3667  0.4444 -0.5282
  348MOL0     C46902   8.368   5.307   7.131  0.0923  0.6807  0.1898
  348MOL0     O46903   8.328   5.358   7.251 -0.0283  0.3881  0.1685
  348MOL0     C46904   8.200   5.424   7.268 -0.3349  0.0258  0.1630
  348MOL0     C46905   8.100   5.350   7.346 -0.1239 -0.0975 -0.3126
  348MOL0     C46906   7.968   5.434   7.366 -0.7238  0.2278 -0.6254
  348MOL0     C46907   7.877   5.427   7.250  0.1541  0.7255 -0.6738
  348MOL0     C46908   7.744   5.471   7.286 -0.6102  0.0875 -0.4070
  348MOL0     C46909   7.640   5.528   7.292  0.8905  0.1149 -0.2006
  348MOL0     C46910   8.317   5.339   7.002 -0.9416 -1.0981 -0.5206
  348MOL0     C46911   8.353   5.280   6.887 -0.0857  0.5351  0.2711
  348MOL0     C46912   8.283   5.305   6.762 -1.1837  0.2235 -0.8293
  348MOL0     H46913   8.507   4.994   6.475  1.9881 -3.1127 -1.2662
  348MOL0     H46914   8.684   4.912   6.331  2.9102 -1.7246  2.5292
  348MOL0     H46915   8.933   4.878   6.148  1.0139  0.7425 -1.6884
  348MOL0     H46916   8.846   5.043   6.167  0.5676 -0.7345 -1.0667
  348MOL0     H46917   9.037   5.153   6.162  1.6159 -0.2286  2.9748
  348MOL0     H46918   9.052   5.037   6.022  1.3202  3.9881 -1.5523
  348MOL0     H46919   9.208   4.893   6.149  0.0248  0.3311  1.8495
  348MOL0     H46920   9.228   5.010   6.274  1.9960 -1.6230 -0.1952
  348MOL0     H46921   9.287   5.049   5.971 -2.1147  1.0986 -0.8070
  348MOL0     H46922   9.304   5.168   6.099 -1.2536 -0.3097  2.2946
  348MOL0     H46923   9.510   5.080   6.087  0.0206 -1.1797  2.5305
  348MOL0     H46924   9.452   4.985   6.227  0.4743 -1.5864 -0.2998
  348MOL0     H46925   9.410   4.792   6.096  1.1638 -1.8123 -2.3934
  348MOL0     H46926   9.434   4.873   5.949 -1.6042  0.3050  0.5434
  348MOL0     H46927   9.627   4.743   6.091 -1.6096  0.9340  1.1332
  348MOL0     H46928   9.647   4.911   6.139 -0.1114  1.9263 -1.6965
  348MOL0     H46929   9.651   4.823   5.841  0.8163  0.6469 -0.5801
  348MOL0     H46930   9.666   4.994   5.902 -0.5178  0.4269 -1.0771
  348MOL0     H46931   9.834   4.640   5.958  0.4830 -1.2291  1.7731
  348MOL0     H46932  10.185   4.714   6.086  0.6656  1.6852 -0.1641
  348MOL0     H46933  10.082   4.571   6.071  1.3653 -0.4842 -0.1492
  348MOL0     H46934  10.207   4.694   5.833  0.7515 -0.7541 -1.8953
  348MOL0     H46935  10.282   4.550   5.932 -1.0373 -0.8177  0.4930
  348MOL0     H46936  10.020   4.544   5.773 -1.4585 -3.0262 -1.3545
  348MOL0     H46937  10.076   4.422   5.885 -0.0984 -2.1736 -2.7609
  348MOL0     H46938  10.259   4.365   5.738  0.1319  0.0222 -1.2629
  348MOL0     H46939  10.267   4.526   5.677  0.3189 -0.0026  3.0356
  348MOL0     H46940  10.075   4.598   5.433  1.1080 -0.3599  2.7093
  348MOL0     H46941  10.150   4.589   5.202  0.5098  1.5534  1.0127
  348MOL0     H46942  10.224   4.118   4.849  1.3483 -1.0470  1.9578
  348MOL0     H46943  10.322   4.064   4.618  0.8806 -2.1597  1.6517
  348MOL0     H46944  10.699   4.115   4.612  0.8136 -0.4377  0.2349
  348MOL0     H46945  10.677   4.037   4.457  1.9084  1.5775 -0.8582
  348MOL0     H46946  10.682   4.280   4.357 -2.6086 -0.5471  1.8906
  348MOL0     H46947  10.782   4.329   4.495  0.5702  2.3702 -2.9147
  348MOL0     H46948  10.851   4.118   4.298 -1.1872  2.2451 -1.5486
  348MOL0     H46949  10.918   4.278   4.303  0.7421  1.0464  0.9716
  348MOL0     H46950  11.067   4.106   4.427 -0.6953  0.0613 -0.1999
  348MOL0     H46951  10.943   4.100   4.556 -0.4108  0.4120  0.2911
  348MOL0     H46952  11.076   4.248   4.630 -1.1766 -3.2476 -0.2711
  348MOL0     H46953  10.967   4.366   4.536  2.1848  1.9877 -5.6215
  348MOL0     H46954  11.229   4.264   4.430 -1.0398 -0.5598 -2.2299
  348MOL0     H46955  11.120   4.376   4.355  0.8856 -2.4824 -1.1394
  348MOL0     H46956  11.150   4.481   4.619  0.8933 -1.2558  1.5754
  348MOL0     H46957  11.225   4.548   4.468 -0.2909  0.0160 -0.7158
  348MOL0     H46958  11.425   4.404   4.506  0.0200 -1.7899  0.7314
  348MOL0     H46959  11.379   4.515   4.647 -1.4070 -0.0291  1.7754
  348MOL0     H46960  10.616   4.377   4.690  1.9913 -0.7289  0.8467
  348MOL0     H46961  10.534   4.397   4.903 -1.0076 -2.9626  1.9552
  348MOL0     H46962  10.321   4.186   5.267  0.0411  0.3812 -0.8429
  348MOL0     H46963  10.240   4.206   5.493 -2.2581 -2.5998 -3.1539
  348MOL0     H46964   8.977   5.141   6.508  1.8061 -3.2326  1.0006
  348MOL0     H46965   8.816   5.262   6.639  1.4569 -0.5885 -0.5956
  348MOL0     H46966   8.583   5.072   7.023  1.7304  0.3742 -4.5543
  348MOL0     H46967   8.525   5.204   7.228 -0.1239  2.0325  0.0194
  348MOL0     H46968   8.153   5.450   7.172  0.6196  1.1056 -0.0331
  348MOL0     H46969   8.211   5.519   7.321  3.4415 -1.5441  2.6043
  348MOL0     H46970   8.139   5.312   7.441 -0.0053  3.8600  1.3993
  348MOL0     H46971   8.069   5.264   7.286 -1.4514  0.3896 -0.3504
  348MOL0     H46972   7.983   5.540   7.387 -1.5394  0.5387 -1.5237
  348MOL0     H46973   7.920   5.378   7.447  1.5478 -4.9241 -2.3958
  348MOL0     H46974   7.920   5.494   7.174 -0.6646  2.1648  0.0771
  348MOL0     H46975   7.868   5.326   7.209 -0.9502  1.3678 -2.1247
  348MOL0     H46976   7.550   5.581   7.317  2.3621  1.4222  2.8906
  348MOL0     H46977   8.239   5.414   6.997  1.6846  2.0960  1.3971
  348MOL0     H46978   8.318   5.402   6.724 -0.0473 -0.4152 -1.4562
  348MOL0     H46979   8.294   5.235   6.679  1.3210  2.5313 -2.6432
  348MOL0     H46980   8.174   5.310   6.769 -1.1536  1.6281 -1.0184
  349MOL0     O46981   1.907   1.918   8.807 -0.6291 -0.5226 -0.4307
  349MOL0     C46982   1.985   1.929   8.710  0.3964  0.2857  0.3404
  349MOL0     O46983   2.113   1.927   8.728 -0.6868 -0.0441  0.9160
  349MOL0     C46984   2.166   1.938   8.856 -0.0517  0.4454 -0.3789
  349MOL0     C46985   2.210   2.059   8.893 -0.2326  0.1621  0.5066
  349MOL0     C46986   2.277   2.072   9.009  0.1135  0.2530  0.7077
  349MOL0     C46987   2.301   1.969   9.099  0.6678  1.0225 -0.2839
  349MOL0     O46988   2.350   1.999   9.224 -0.0959 -0.1023 -0.5633
  349MOL0     C46989   2.369   1.893   9.320  0.6523 -0.4132 -0.7429
  349MOL0     C46990   2.472   1.948   9.425  1.1260 -0.4764 -0.5968
  349MOL0     C46991   2.426   2.045   9.532  0.4429  1.2105 -0.0309
  349MOL0     C46992   2.386   2.185   9.477 -0.4193  0.2509  0.1239
  349MOL0     C46993   2.485   2.291   9.523 -0.1868  0.1739 -0.5662
  349MOL0     C46994   2.449   2.340   9.671  0.4134 -0.3444  0.2214
  349MOL0     C46995   2.557   2.441   9.722  0.4048  0.3606 -0.0897
  349MOL0     C46996   2.507   2.506   9.849 -0.3827  0.6763 -1.3756
  349MOL0     N46997   2.588   2.615   9.891 -0.0838 -0.0655  0.2599
  349MOL0     C46998   2.540   2.736   9.917 -0.6873  0.3430 -0.0963
  349MOL0     C46999   2.650   2.795   9.983 -0.5800 -0.0283 -0.5508
  349MOL0     C47000   2.647   2.941  10.031  0.6031 -0.0457  0.5367
  349MOL0     C47001   2.790   3.017  10.028  0.0324  0.7729  0.2997
  349MOL0     C47002   2.763   3.161  10.054  0.1638 -0.1402 -0.0028
  349MOL0     C47003   2.890   3.237  10.075 -0.0464  0.1120 -0.2315
  349MOL0     O47004   2.942   3.206  10.200  0.3605 -0.0649 -1.0702
  349MOL0     C47005   3.026   3.298  10.251 -0.0104  0.6949 -0.3287
  349MOL0     C47006   3.127   3.350  10.170  0.1536  0.4332  0.0253
  349MOL0     C47007   3.224   3.440  10.229 -0.0724 -0.2305  0.3226
  349MOL0     C47008   3.222   3.474  10.363 -1.1731 -0.6806 -0.4450
  349MOL0     C47009   3.322   3.569  10.411  0.1261  0.1893 -0.6710
  349MOL0     O47010   3.414   3.609  10.318 -0.6173 -0.4168  0.4919
  349MOL0     C47011   3.535   3.677  10.352 -0.1965 -0.1155 -1.0743
  349MOL0     C47012   3.594   3.745  10.243 -0.1945  0.1768  0.3145
  349MOL0     C47013   3.717   3.824  10.270 -0.2223 -0.8392 -1.0282
  349MOL0     C47014   3.775   3.832  10.398  0.1159 -0.4524 -0.0986
  349MOL0     O47015   3.886   3.901  10.430 -0.6710  0.6193  0.5354
  349MOL0     C47016   3.924   4.027  10.359 -0.2205  0.3631  0.2868
  349MOL0     C47017   4.039   4.103  10.429 -1.0369  0.3750 -0.4622
  349MOL0     C47018   3.984   4.195  10.540 -0.1646 -0.4643  0.8167
  349MOL0     C47019   4.095   4.286  10.583 -0.2216 -0.4826 -0.1974
  349MOL0     C47020   4.046   4.370  10.706  0.7257 -1.0222 -0.2456
  349MOL0     C47021   4.151   4.457  10.750  0.6475 -0.1666 -0.0767
  349MOL0     C47022   4.087   4.578  10.822 -0.8350 -0.0040 -0.1957
  349MOL0     C47023   4.158   4.715  10.806  0.4261 -0.0085 -0.0463
  349MOL0    Cl47024   4.163   4.757  10.631  0.2778  0.1828  0.6005
  349MOL0     C47025   3.705   3.767  10.503 -0.4678 -1.3143  0.4110
  349MOL0     C47026   3.593   3.694  10.482  0.2601  0.3980  0.1471
  349MOL0     O47027   3.323   3.605  10.532  0.6577 -0.0201  0.3589
  349MOL0     C47028   3.119   3.428  10.447 -0.1738  0.0182  0.7815
  349MOL0     C47029   3.026   3.338  10.387 -0.7672  0.3824 -0.2148
  349MOL0     N47030   2.761   2.718   9.981  0.4313  0.0550  0.8881
  349MOL0     N47031   2.716   2.604   9.927 -0.8198 -1.1143  0.3292
  349MOL0     C47032   2.255   1.846   9.058 -0.5405  0.3207 -0.2358
  349MOL0     C47033   2.187   1.829   8.936  0.2585  0.1100  0.7254
  349MOL0     C47034   1.945   1.943   8.568 -0.6437  0.5904  1.1280
  349MOL0     C47035   2.033   1.882   8.475  0.0152 -0.3256  0.1339
  349MOL0     C47036   2.021   1.902   8.339  0.2862 -0.2078  0.1917
  349MOL0     C47037   1.918   1.993   8.292 -0.3107  0.3034 -0.0484
  349MOL0     O47038   1.910   2.025   8.160 -0.0885 -0.2396  0.8103
  349MOL0     C47039   1.977   1.938   8.068 -0.6589 -0.1902 -0.0846
  349MOL0     C47040   1.911   1.956   7.931  0.3063 -1.2367  0.2380
  349MOL0     C47041   1.963   1.848   7.834 -0.5226  0.1367  1.7850
  349MOL0     C47042   1.892   1.841   7.704 -0.3749  0.1133  0.6537
  349MOL0     C47043   1.949   1.734   7.614  0.3057 -0.5706 -0.7734
  349MOL0     C47044   1.985   1.636   7.546  0.2455 -1.0482 -0.2283
  349MOL0     C47045   1.821   2.026   8.381 -0.3345 -0.6682  1.0471
  349MOL0     C47046   1.826   2.002   8.518 -0.0454  0.1767 -0.0785
  349MOL0     C47047   1.709   2.044   8.603  0.1658  0.7992  0.3561
  349MOL0     H47048   2.194   2.146   8.830 -0.0036 -0.2055 -0.0665
  349MOL0     H47049   2.311   2.172   9.036 -0.4705  0.0458  2.2760
  349MOL0     H47050   2.275   1.850   9.357  1.0261 -1.8689 -1.4079
  349MOL0     H47051   2.422   1.803   9.286  0.6221 -1.4239  1.7041
  349MOL0     H47052   2.558   1.979   9.365  1.6490  0.4348  0.5881
  349MOL0     H47053   2.502   1.861   9.484 -2.8196 -2.0211 -0.5132
  349MOL0     H47054   2.522   2.057   9.584  0.9691 -0.4150 -0.5887
  349MOL0     H47055   2.363   2.000   9.608 -0.3398  2.2680 -0.0202
  349MOL0     H47056   2.393   2.195   9.368 -0.7703 -0.7386 -0.0008
  349MOL0     H47057   2.281   2.211   9.491 -1.2742 -2.7055 -0.0670
  349MOL0     H47058   2.590   2.260   9.528 -0.9072 -2.3629  1.3194
  349MOL0     H47059   2.486   2.382   9.463 -0.5459  1.9093  1.9195
  349MOL0     H47060   2.351   2.388   9.672 -0.3821 -1.9022  1.9222
  349MOL0     H47061   2.454   2.251   9.734  0.8689  0.0627  0.7733
  349MOL0     H47062   2.582   2.511   9.642 -2.5765  2.3685  0.5953
  349MOL0     H47063   2.653   2.389   9.733  1.5442  1.6022 -3.1832
  349MOL0     H47064   2.401   2.528   9.835 -0.4298 -0.6314 -3.6090
  349MOL0     H47065   2.526   2.434   9.929 -0.0885 -0.8723 -2.7837
  349MOL0     H47066   2.441   2.775   9.897 -0.6629 -0.2092 -1.3607
  349MOL0     H47067   2.576   2.993   9.966 -1.4405 -1.9070  1.1522
  349MOL0     H47068   2.607   2.934  10.133  0.5400 -0.7223  0.4708
  349MOL0     H47069   2.853   2.971  10.105  1.1658  0.0592 -1.0218
  349MOL0     H47070   2.829   2.998   9.928 -3.5405  1.6282 -1.4356
  349MOL0     H47071   2.707   3.171  10.148  0.8544  0.7722  0.3230
  349MOL0     H47072   2.707   3.195   9.967  2.8127 -0.0526 -1.7812
  349MOL0     H47073   2.856   3.341  10.081  0.4768  0.5038 -2.8006
  349MOL0     H47074   2.953   3.226   9.987 -2.0920 -2.0965 -1.5136
  349MOL0     H47075   3.139   3.338  10.062 -0.8142 -1.1433  0.0733
  349MOL0     H47076   3.301   3.477  10.163  0.0804 -0.0440  0.6034
  349MOL0     H47077   3.551   3.734  10.144  2.8133 -5.7597 -0.7663
  349MOL0     H47078   3.760   3.872  10.183 -0.8884 -0.6535 -1.2647
  349MOL0     H47079   3.953   4.001  10.257  0.1762  2.1192 -0.0800
  349MOL0     H47080   3.837   4.093  10.350 -1.8640 -1.6088  0.9475
  349MOL0     H47081   4.108   4.034  10.478 -1.3571  1.7010  2.0186
  349MOL0     H47082   4.086   4.167  10.354 -0.0914  2.1623  1.5401
  349MOL0     H47083   3.895   4.246  10.503  0.9032 -0.2122 -1.6512
  349MOL0     H47084   3.936   4.134  10.617 -2.8118 -2.1200 -1.8932
  349MOL0     H47085   4.114   4.360  10.505 -3.8514  0.0840 -0.6912
  349MOL0     H47086   4.189   4.231  10.599 -0.4352 -0.0709  3.0091
  349MOL0     H47087   4.035   4.304  10.792 -1.5602  2.0279  2.0089
  349MOL0     H47088   3.949   4.418  10.690  1.2749  0.7945  1.5428
  349MOL0     H47089   4.220   4.393  10.805 -1.0104 -0.5213  1.7018
  349MOL0     H47090   4.206   4.501  10.666  1.9954  3.4623  2.4400
  349MOL0     H47091   4.077   4.567  10.930 -2.6444 -0.2461 -0.3530
  349MOL0     H47092   3.991   4.593  10.770 -0.1096 -1.0522 -1.9009
  349MOL0     H47093   4.090   4.786  10.855 -2.9283 -2.6210 -0.5075
  349MOL0     H47094   4.255   4.719  10.855  0.0879 -0.8505  0.7240
  349MOL0     H47095   3.750   3.774  10.602  0.5836  2.0880 -0.1643
  349MOL0     H47096   3.556   3.642  10.570  2.1370 -1.6972 -0.2146
  349MOL0     H47097   3.106   3.463  10.548  1.3932 -1.8769  1.7044
  349MOL0     H47098   2.947   3.295  10.448 -2.2660  3.1568 -0.0673
  349MOL0     H47099   2.284   1.763   9.122 -0.3309 -0.4501 -1.3003
  349MOL0     H47100   2.156   1.731   8.900 -1.2879 -0.2766  2.8823
  349MOL0     H47101   2.123   1.834   8.514 -1.0623 -2.0502  0.6244
  349MOL0     H47102   2.097   1.866   8.270 -0.0461  2.7582 -1.9553
  349MOL0     H47103   1.965   1.834   8.100  0.0771  0.2330  1.6614
  349MOL0     H47104   2.081   1.970   8.065 -1.0263  1.0717 -0.3801
  349MOL0     H47105   1.941   2.056   7.897  1.3659 -1.4205  0.5998
  349MOL0     H47106   1.802   1.948   7.937  0.1660  0.2714  0.0629
  349MOL0     H47107   1.961   1.748   7.877 -0.3815 -0.2682  0.8841
  349MOL0     H47108   2.065   1.875   7.806 -1.2788 -0.2134 -1.9361
  349MOL0     H47109   1.786   1.817   7.723  0.1655 -2.0972  1.2067
  349MOL0     H47110   1.897   1.941   7.662 -0.1179 -0.5010 -0.8370
  349MOL0     H47111   2.013   1.559   7.477 -2.4312 -2.0969 -0.2973
  349MOL0     H47112   1.730   2.073   8.345 -0.1553  0.5993  2.1586
  349MOL0     H47113   1.647   2.112   8.543  0.7812 -0.1253 -1.4038
  349MOL0     H47114   1.645   1.961   8.635  0.0314  0.8861  0.3144
  349MOL0     H47115   1.751   2.098   8.688 -2.5504 -0.4361  2.6366
  350MOL0     O47116   0.860   8.897   0.612 -0.6242 -0.3833  0.0583
  350MOL0     C47117   0.912   9.006   0.602  0.3153  0.0136 -0.0685
  350MOL0     O47118   1.024   9.037   0.658  0.1255 -1.0073  0.4281
  350MOL0     C47119   1.109   8.931   0.681  0.6487 -1.2447  0.6589
  350MOL0     C47120   1.138   8.842   0.581  1.2483  0.2912 -0.4917
  350MOL0     C47121   1.218   8.735   0.620  0.1031 -0.4449 -0.2970
  350MOL0     C47122   1.270   8.712   0.752  0.0899  0.3963 -0.4365
  350MOL0     O47123   1.358   8.609   0.777 -0.3128  0.2117  0.1590
  350MOL0     C47124   1.351   8.484   0.701 -0.3879  0.3147 -0.8829
  350MOL0     C47125   1.465   8.390   0.745  0.7681  0.1544  0.0012
  350MOL0     C47126   1.606   8.443   0.722  0.5269  0.2462 -0.1114
  350MOL0     C47127   1.659   8.431   0.582 -0.2886  0.3026  0.9472
  350MOL0     C47128   1.764   8.318   0.567 -0.7435 -0.6776  0.0960
  350MOL0     C47129   1.694   8.181   0.550  0.0852 -0.7441  0.7971
  350MOL0     C47130   1.796   8.081   0.495 -0.0627 -0.0500  0.8972
  350MOL0     C47131   1.729   7.947   0.459 -0.4068  1.5088 -0.1995
  350MOL0     N47132   1.814   7.827   0.444  1.1341 -0.5175 -0.3786
  350MOL0     C47133   1.932   7.822   0.371  0.0971 -1.5062 -0.3585
  350MOL0     C47134   1.974   7.693   0.361  0.1711 -0.2236 -0.3699
  350MOL0     C47135   2.070   7.625   0.274 -0.2430  0.5137 -1.3071
  350MOL0     C47136   2.204   7.703   0.245  0.3877 -0.2169  0.4369
  350MOL0     C47137   2.282   7.621   0.140 -0.4433 -0.4941  0.1292
  350MOL0     C47138   2.417   7.681   0.082  1.0726 -0.6211  0.6167
  350MOL0     O47139   2.519   7.697   0.183  0.2972  0.4844  0.5770
  350MOL0     C47140   2.635   7.762   0.154 -0.0014 -0.6593 -0.6075
  350MOL0     C47141   2.662   7.801   0.028 -1.2285  0.2014  0.7302
  350MOL0     C47142   2.783   7.852  -0.004  0.3110 -0.5182 -0.8777
  350MOL0     C47143   2.889   7.880   0.087  0.6899  0.1903 -0.2190
  350MOL0     C47144   3.014   7.952   0.051 -0.1175 -0.6966 -0.3041
  350MOL0     O47145   3.073   7.933  -0.069 -0.2059 -0.6724 -0.1605
  350MOL0     C47146   3.211   7.927  -0.086  0.3145  0.4218 -0.7416
  350MOL0     C47147   3.303   7.896   0.014  0.1150 -0.1182 -0.4673
  350MOL0     C47148   3.442   7.875  -0.022  0.6234 -0.2932  0.5822
  350MOL0     C47149   3.487   7.904  -0.152 -0.1176 -0.2848 -0.8759
  350MOL0     O47150   3.614   7.870  -0.207 -0.2146 -0.5444  0.2469
  350MOL0     C47151   3.736   7.857  -0.127  0.1540 -0.3041  0.1761
  350MOL0     C47152   3.805   7.989  -0.113 -0.0096 -1.1856  0.2068
  350MOL0     C47153   3.812   8.083  -0.235  0.5741 -0.3541 -0.4185
  350MOL0     C47154   3.880   8.224  -0.204 -1.1795  0.0156  0.2771
  350MOL0     C47155   3.894   8.325  -0.328 -0.1933 -1.2854 -0.2153
  350MOL0     C47156   3.769   8.360  -0.398 -0.1456 -0.2306 -0.5134
  350MOL0     C47157   3.804   8.444  -0.523 -0.4837 -0.0308 -1.1190
  350MOL0     C47158   3.684   8.468  -0.603  0.2258  0.6049  0.5568
  350MOL0    Cl47159   3.607   8.318  -0.674  0.2068 -0.1304 -0.2457
  350MOL0     C47160   3.389   7.950  -0.242  0.3805  0.5610 -1.1723
  350MOL0     C47161   3.258   7.965  -0.209 -0.1001  0.0838 -0.3449
  350MOL0     O47162   3.060   8.023   0.133  0.1094 -0.1611 -0.7633
  350MOL0     C47163   2.857   7.850   0.222  0.5368  0.3226 -0.2164
  350MOL0     C47164   2.732   7.790   0.254  0.6498 -0.1964 -0.2047
  350MOL0     N47165   1.882   7.623   0.440  0.2236 -0.2284 -0.0603
  350MOL0     N47166   1.799   7.699   0.495 -0.2911  0.3944  0.1556
  350MOL0     C47167   1.238   8.812   0.848 -0.3911 -0.2760  0.3312
  350MOL0     C47168   1.160   8.917   0.808 -0.0430 -0.4269 -0.0410
  350MOL0     C47169   0.837   9.123   0.531  0.8772 -0.5498 -0.4421
  350MOL0     C47170   0.919   9.210   0.462 -0.3301 -0.0821 -1.1099
  350MOL0     C47171   0.861   9.325   0.396 -0.0178  0.6432 -0.3644
  350MOL0     C47172   0.727   9.342   0.383  0.0480  0.1686  0.0887
  350MOL0     O47173   0.658   9.448   0.321 -0.2541 -0.4245 -0.5683
  350MOL0     C47174   0.711   9.577   0.305 -0.7883  1.1855  0.6072
  350MOL0     C47175   0.702   9.657   0.433 -1.5731  1.3486  0.1571
  350MOL0     C47176   0.553   9.675   0.473 -1.1927  0.8982 -0.3584
  350MOL0     C47177   0.544   9.771   0.593  0.4512 -0.4183 -0.2921
  350MOL0     C47178   0.399   9.785   0.619 -0.6875  1.2113  0.2236
  350MOL0     C47179   0.284   9.816   0.632  0.1646 -0.3554  0.7411
  350MOL0     C47180   0.647   9.246   0.441  0.8150 -0.7715 -0.6881
  350MOL0     C47181   0.693   9.136   0.515 -0.2499  1.0888  0.2865
  350MOL0     C47182   0.594   9.041   0.560 -0.3378  0.4906 -0.2206
  350MOL0     H47183   1.111   8.858   0.477 -3.0791 -0.8700  0.2705
  350MOL0     H47184   1.228   8.665   0.538  1.8923 -0.4920 -0.0814
  350MOL0     H47185   1.257   8.435   0.726 -1.0923  0.7734 -2.4954
  350MOL0     H47186   1.359   8.506   0.594 -0.0516  0.1004 -0.9030
  350MOL0     H47187   1.443   8.293   0.697 -0.9193  1.5411 -2.2524
  350MOL0     H47188   1.449   8.361   0.849  0.7314 -0.4333 -0.1589
  350MOL0     H47189   1.677   8.393   0.789 -1.7452 -1.8428  0.9231
  350MOL0     H47190   1.615   8.550   0.745  0.5708  0.1152  0.4983
  350MOL0     H47191   1.584   8.426   0.503 -0.3470  2.1366  0.8335
  350MOL0     H47192   1.719   8.517   0.548 -2.2707 -0.0223 -4.1203
  350MOL0     H47193   1.833   8.339   0.485 -1.4688  1.3357 -0.0541
  350MOL0     H47194   1.827   8.311   0.656 -1.0654 -1.5791  0.2573
  350MOL0     H47195   1.663   8.139   0.646  1.6564 -3.8015  0.1094
  350MOL0     H47196   1.609   8.185   0.480  1.4613  0.0766 -0.9056
  350MOL0     H47197   1.864   8.051   0.576 -0.4447 -0.1929  1.1690
  350MOL0     H47198   1.857   8.112   0.410 -1.1512  0.9534  0.4626
  350MOL0     H47199   1.658   7.927   0.540 -0.4814 -3.1531 -1.1627
  350MOL0     H47200   1.668   7.965   0.370  0.1572  2.7679 -0.3503
  350MOL0     H47201   1.972   7.903   0.310  0.8849  1.3547  3.6016
  350MOL0     H47202   2.103   7.534   0.324  1.4983  1.6881 -0.1729
  350MOL0     H47203   2.012   7.611   0.182 -0.3804  4.0695 -1.9340
  350MOL0     H47204   2.187   7.802   0.202  1.0876  0.1740  1.0408
  350MOL0     H47205   2.257   7.712   0.340  2.9894  0.1490 -0.9477
  350MOL0     H47206   2.209   7.601   0.061 -1.9474 -2.1861  1.8462
  350MOL0     H47207   2.305   7.519   0.172 -0.8173 -0.6865 -0.2020
  350MOL0     H47208   2.398   7.784   0.051  1.1359 -0.0804  2.2714
  350MOL0     H47209   2.451   7.622  -0.004 -0.2070  0.9138 -1.0172
  350MOL0     H47210   2.598   7.780  -0.057 -0.1371  0.9794 -0.3149
  350MOL0     H47211   2.796   7.890  -0.105  1.3421 -0.9320 -0.9132
  350MOL0     H47212   3.275   7.886   0.118 -1.6412  1.9129 -0.6782
  350MOL0     H47213   3.511   7.836   0.052  0.8848 -1.2394 -0.1344
  350MOL0     H47214   3.719   7.816  -0.027 -0.5567  0.9534  0.5957
  350MOL0     H47215   3.807   7.795  -0.182 -1.2741  0.1759 -2.3703
  350MOL0     H47216   3.760   8.053  -0.037  2.8569  0.3880  0.7497
  350MOL0     H47217   3.907   7.966  -0.081  0.0874 -0.2724  0.6084
  350MOL0     H47218   3.868   8.032  -0.314  2.4412 -1.5523  1.5784
  350MOL0     H47219   3.710   8.112  -0.262  1.4118  3.2378 -0.3061
  350MOL0     H47220   3.979   8.200  -0.163 -0.3196  1.8057 -0.6386
  350MOL0     H47221   3.832   8.279  -0.123  0.7641  1.5549  0.4800
  350MOL0     H47222   3.956   8.283  -0.408  1.4300 -0.8247  0.7415
  350MOL0     H47223   3.940   8.418  -0.291  0.5307 -1.7681  0.1325
  350MOL0     H47224   3.725   8.264  -0.428  1.3144 -0.5943 -1.5527
  350MOL0     H47225   3.697   8.423  -0.345  0.4682  0.5147 -0.5478
  350MOL0     H47226   3.880   8.394  -0.585 -0.8219  2.4015 -3.7153
  350MOL0     H47227   3.847   8.535  -0.479 -2.0170  0.1698  0.0449
  350MOL0     H47228   3.616   8.515  -0.531  2.1162  3.7288  0.4735
  350MOL0     H47229   3.707   8.540  -0.682 -0.4660 -0.1176 -0.3234
  350MOL0     H47230   3.427   7.986  -0.338 -1.5854  0.7967 -1.9070
  350MOL0     H47231   3.202   8.024  -0.280  0.7936  0.2094 -0.9598
  350MOL0     H47232   2.928   7.875   0.300  0.9549 -1.0482 -0.1298
  350MOL0     H47233   2.712   7.747   0.352 -3.2583 -1.9641 -1.5630
  350MOL0     H47234   1.282   8.797   0.946  0.1289 -1.7966 -0.1035
  350MOL0     H47235   1.126   8.984   0.886 -3.1516  0.2722 -1.8290
  350MOL0     H47236   1.026   9.196   0.473 -0.7991 -2.2850  1.9125
  350MOL0     H47237   0.937   9.396   0.366  1.7038 -0.1243  1.8754
  350MOL0     H47238   0.648   9.616   0.224 -0.6078 -1.4153 -0.8988
  350MOL0     H47239   0.814   9.569   0.269 -1.1062  0.1746 -0.1179
  350MOL0     H47240   0.744   9.757   0.430 -2.1920  1.7222  2.2913
  350MOL0     H47241   0.743   9.609   0.523 -1.6156 -0.8814 -0.9415
  350MOL0     H47242   0.512   9.578   0.503  2.8842 -1.1472 -0.7767
  350MOL0     H47243   0.487   9.716   0.396 -0.1643  2.0912 -0.6282
  350MOL0     H47244   0.605   9.738   0.678  0.8814  3.5078  1.1451
  350MOL0     H47245   0.584   9.869   0.564 -2.1575  0.8850  0.1797
  350MOL0     H47246   0.180   9.835   0.646  0.2548  1.6925 -0.9207
  350MOL0     H47247   0.541   9.256   0.420  0.1104 -0.8109  2.3760
  350MOL0     H47248   0.494   9.061   0.521 -0.3606 -0.5722 -0.7327
  350MOL0     H47249   0.613   8.937   0.533  1.4545  0.0844  2.2272
  350MOL0     H47250   0.585   9.047   0.669  0.5665  1.0733 -0.1669
  351MOL0     O47251   4.019  10.419   2.507 -0.5072  0.2841 -1.1803
  351MOL0     C47252   4.059  10.464   2.405 -1.0266 -0.7340  0.0691
  351MOL0     O47253   4.169  10.424   2.336  0.1545  0.3995  0.1453
  351MOL0     C47254   4.245  10.322   2.388  0.6625 -0.7213  0.5242
  351MOL0     C47255   4.208  10.187   2.367  0.5436  0.2365 -0.6244
  351MOL0     C47256   4.296  10.084   2.394 -0.0879  0.8572 -0.3718
  351MOL0     C47257   4.424  10.116   2.444 -0.4862 -0.0963  0.3102
  351MOL0     O47258   4.518  10.025   2.475  0.3322 -0.5394 -0.2331
  351MOL0     C47259   4.479   9.907   2.544  0.2921 -0.8171 -0.6057
  351MOL0     C47260   4.596   9.807   2.574 -0.0667 -0.3336 -0.1125
  351MOL0     C47261   4.638   9.714   2.463 -0.1647  0.1047 -0.5812
  351MOL0     C47262   4.730   9.789   2.365 -0.0001 -0.7000 -0.1307
  351MOL0     C47263   4.774   9.718   2.245  0.1989  0.1195  0.4037
  351MOL0     C47264   4.862   9.802   2.158  0.9819  0.3735 -0.8455
  351MOL0     C47265   4.936   9.721   2.052 -0.8791 -0.1393 -0.3951
  351MOL0     C47266   4.987   9.783   1.919 -0.7100  0.8566 -0.5606
  351MOL0     N47267   5.094   9.885   1.942  0.3418 -0.1305  0.3101
  351MOL0     C47268   5.078  10.020   1.948  0.6871 -0.4882 -0.0234
  351MOL0     C47269   5.197  10.079   1.953  0.0121 -0.2159 -0.4556
  351MOL0     C47270   5.238  10.224   1.947 -0.3028  0.0770  0.1408
  351MOL0     C47271   5.201  10.288   1.813  1.3602  0.4180  1.1010
  351MOL0     C47272   5.242  10.433   1.772  0.0689  0.1480 -0.1088
  351MOL0     C47273   5.177  10.466   1.636  0.3261  0.5390  0.5936
  351MOL0     O47274   5.159  10.609   1.596  0.8611 -0.6492 -0.3020
  351MOL0     C47275   5.029  10.662   1.606 -0.0803  0.4681  0.0482
  351MOL0     C47276   5.011  10.789   1.544  0.2346  0.0951  0.1291
  351MOL0     C47277   4.883  10.846   1.538 -0.2018  0.3529 -0.6013
  351MOL0     C47278   4.768  10.788   1.594  0.2370  0.2760 -0.0549
  351MOL0     C47279   4.630  10.845   1.568  0.0395  0.3543 -0.8960
  351MOL0     O47280   4.534  10.810   1.668  0.1353  0.3996  0.3465
  351MOL0     C47281   4.409  10.820   1.611  0.4875  0.0908 -1.0018
  351MOL0     C47282   4.322  10.916   1.665  0.1656  0.1542 -0.1610
  351MOL0     C47283   4.192  10.938   1.613  0.7097  0.3295 -0.2720
  351MOL0     C47284   4.152  10.866   1.498  0.4167 -0.7663  0.3538
  351MOL0     O47285   4.025  10.883   1.439 -0.6415  0.4781  0.0940
  351MOL0     C47286   3.955  11.006   1.456  0.3903  0.2062 -0.1252
  351MOL0     C47287   3.830  10.992   1.376 -0.5718  0.1911 -0.2651
  351MOL0     C47288   3.864  11.004   1.224  0.3754 -0.7672 -0.6470
  351MOL0     C47289   3.749  11.047   1.145  0.1267  0.7853 -0.6181
  351MOL0     C47290   3.772  11.024   0.993  0.5209 -0.3072  0.2467
  351MOL0     C47291   3.666  11.085   0.907 -0.0467  1.0232  0.0964
  351MOL0     C47292   3.692  11.052   0.757 -0.8128 -0.3575 -0.7343
  351MOL0     C47293   3.634  11.149   0.656 -0.6884 -0.6829 -0.2607
  351MOL0    Cl47294   3.743  11.287   0.656  0.1464 -0.1121  0.8715
  351MOL0     C47295   4.236  10.761   1.451 -0.1424 -0.4965 -0.7014
  351MOL0     C47296   4.366  10.739   1.511 -0.6566 -0.0923  0.0055
  351MOL0     O47297   4.609  10.906   1.463 -0.3948 -0.9781  0.3547
  351MOL0     C47298   4.789  10.661   1.649 -0.2550 -0.4753  0.0421
  351MOL0     C47299   4.917  10.603   1.665  0.2374  0.4663 -0.6840
  351MOL0     N47300   5.289   9.970   1.969  0.4038 -0.7247  0.4205
  351MOL0     N47301   5.228   9.857   1.968 -0.2333 -0.6849 -0.4163
  351MOL0     C47302   4.455  10.253   2.461 -0.1217 -0.1658  0.0135
  351MOL0     C47303   4.369  10.355   2.434  0.1818 -0.3225  0.3268
  351MOL0     C47304   3.990  10.579   2.349  0.4307  0.2553  0.4811
  351MOL0     C47305   3.882  10.640   2.417 -1.0150 -1.1330 -0.7442
  351MOL0     C47306   3.819  10.748   2.366  0.3477  0.3864 -1.5372
  351MOL0     C47307   3.862  10.817   2.254 -0.7037  0.0857 -0.0639
  351MOL0     O47308   3.816  10.936   2.208 -0.6329  0.2196 -0.7563
  351MOL0     C47309   3.744  11.021   2.299 -0.3524 -0.7774  0.4807
  351MOL0     C47310   3.830  11.087   2.416 -0.0193 -0.0091 -0.1659
  351MOL0     C47311   3.930  11.198   2.371  0.6927  0.1131 -0.3123
  351MOL0     C47312   3.999  11.237   2.503  0.3047  0.0108 -1.0108
  351MOL0     C47313   3.909  11.295   2.611  0.5711  0.0046  0.8868
  351MOL0     C47314   3.843  11.335   2.700  1.7954  0.8513 -0.2345
  351MOL0     C47315   3.959  10.754   2.174  0.8790  0.4116 -0.8336
  351MOL0     C47316   4.019  10.638   2.221 -0.4230  0.0793  0.3202
  351MOL0     C47317   4.107  10.580   2.106 -0.2547 -0.0562 -0.2386
  351MOL0     H47318   4.108  10.170   2.329  1.0342 -0.7713 -1.5015
  351MOL0     H47319   4.278   9.977   2.388  0.4121  0.7034  0.6918
  351MOL0     H47320   4.423   9.935   2.634  2.2115  3.9293 -0.5877
  351MOL0     H47321   4.415   9.843   2.483 -2.9007  0.9916  0.5966
  351MOL0     H47322   4.555   9.749   2.658 -0.9788  1.8795  1.0716
  351MOL0     H47323   4.678   9.869   2.612  0.4300 -1.9390  1.5959
  351MOL0     H47324   4.554   9.668   2.411 -1.4509  0.9455  0.6696
  351MOL0     H47325   4.704   9.631   2.490  4.4453  2.2424 -3.9341
  351MOL0     H47326   4.685   9.879   2.323  0.0105 -1.7501 -2.5500
  351MOL0     H47327   4.821   9.812   2.420 -1.3894 -1.2162  2.5403
  351MOL0     H47328   4.827   9.629   2.280 -1.2362 -2.6669 -3.7803
  351MOL0     H47329   4.687   9.685   2.188  1.4941 -0.7784 -1.1242
  351MOL0     H47330   4.791   9.862   2.100  0.5530  2.0995  1.3435
  351MOL0     H47331   4.933   9.864   2.214  0.9261 -1.7084  1.7618
  351MOL0     H47332   4.869   9.637   2.030 -1.8556  0.4567  0.2232
  351MOL0     H47333   5.027   9.689   2.104  0.4945  0.8152 -2.1140
  351MOL0     H47334   5.032   9.698   1.866 -0.8367  0.1909  0.3605
  351MOL0     H47335   4.904   9.834   1.869 -0.9321  1.7740  0.6945
  351MOL0     H47336   4.990  10.083   1.939  0.4537 -0.8072 -0.0296
  351MOL0     H47337   5.183  10.287   2.018 -2.0499  1.0171 -1.9555
  351MOL0     H47338   5.347  10.225   1.950 -0.2537 -1.7619  0.0218
  351MOL0     H47339   5.231  10.220   1.732 -4.5818  0.0937 -1.3454
  351MOL0     H47340   5.093  10.273   1.801  1.0847  2.2534  1.0692
  351MOL0     H47341   5.350  10.448   1.766 -0.0087  0.4139 -0.9503
  351MOL0     H47342   5.200  10.504   1.845 -1.1135  0.6446 -1.2324
  351MOL0     H47343   5.085  10.406   1.631 -0.9995  2.5596 -0.7824
  351MOL0     H47344   5.227  10.418   1.551 -2.2097 -1.0547 -0.1379
  351MOL0     H47345   5.105  10.834   1.514  0.1623 -0.7313 -1.5075
  351MOL0     H47346   4.873  10.939   1.482 -2.4810 -1.3418 -3.2089
  351MOL0     H47347   4.357  10.985   1.741  0.1297  3.7466 -3.1223
  351MOL0     H47348   4.136  11.016   1.663  1.3928 -0.0804  1.1864
  351MOL0     H47349   3.925  11.023   1.559  0.3720 -3.2125  0.5509
  351MOL0     H47350   4.018  11.081   1.407  1.1945 -0.3471  0.0357
  351MOL0     H47351   3.774  10.898   1.387  4.5833 -3.8582 -3.6484
  351MOL0     H47352   3.766  11.076   1.403 -0.3359  0.7072 -1.2288
  351MOL0     H47353   3.948  11.069   1.201 -2.4679  2.7840 -1.7889
  351MOL0     H47354   3.891  10.901   1.198 -1.9570 -1.8393  0.8531
  351MOL0     H47355   3.733  11.154   1.159  1.4148  1.2310 -2.2821
  351MOL0     H47356   3.664  10.990   1.184  1.1537 -0.0826  0.4011
  351MOL0     H47357   3.788  10.920   0.966 -1.6827 -0.4355 -0.7574
  351MOL0     H47358   3.870  11.073   0.984  0.2928  0.0671 -0.2668
  351MOL0     H47359   3.572  11.033   0.926  0.9197 -0.2353  1.6631
  351MOL0     H47360   3.650  11.193   0.919 -0.1957  1.0812 -0.5399
  351MOL0     H47361   3.652  10.950   0.747 -1.0297 -0.4940  1.2450
  351MOL0     H47362   3.801  11.050   0.752 -0.8394 -1.6252 -1.2678
  351MOL0     H47363   3.638  11.112   0.553  3.3240  2.0737 -1.3563
  351MOL0     H47364   3.536  11.180   0.692  0.5326  2.2782  0.7630
  351MOL0     H47365   4.199  10.712   1.361 -1.2488  0.0228 -0.5499
  351MOL0     H47366   4.442  10.670   1.476  0.8079  0.8364  1.2377
  351MOL0     H47367   4.702  10.607   1.684  0.6958 -0.6745  2.2866
  351MOL0     H47368   4.927  10.504   1.709 -0.8875  0.8173  0.4165
  351MOL0     H47369   4.550  10.276   2.507  0.2339 -1.8032  0.1669
  351MOL0     H47370   4.403  10.458   2.442 -0.8537  0.0747 -0.2189
  351MOL0     H47371   3.868  10.614   2.521 -0.8373  1.1181 -0.1099
  351MOL0     H47372   3.729  10.779   2.418  1.3431 -0.4641  0.8750
  351MOL0     H47373   3.666  10.966   2.353 -1.4289  1.7958  1.7146
  351MOL0     H47374   3.700  11.101   2.239  2.8732 -0.6687 -2.0565
  351MOL0     H47375   3.893  11.007   2.456 -1.2365  0.2531  2.5349
  351MOL0     H47376   3.763  11.109   2.500  1.0959 -0.2186  0.8135
  351MOL0     H47377   3.885  11.287   2.326  3.7366  2.8732  1.6724
  351MOL0     H47378   4.001  11.160   2.296 -1.8347 -2.0147 -1.8005
  351MOL0     H47379   4.038  11.142   2.541 -0.0339  0.8032  1.5335
  351MOL0     H47380   4.089  11.294   2.479 -0.8904  2.9069  0.7960
  351MOL0     H47381   3.778  11.371   2.778 -0.3410 -2.3996 -0.2968
  351MOL0     H47382   3.990  10.806   2.084  1.0094 -0.5605 -1.3560
  351MOL0     H47383   4.085  10.615   2.005 -2.6621 -1.0912 -0.1570
  351MOL0     H47384   4.210  10.570   2.141 -0.4923 -2.2627 -0.0367
  351MOL0     H47385   4.067  10.478   2.105 -4.3035  1.0537  4.6998
  352MOL0     O47386   3.660   2.182   0.844  0.2162 -0.0222 -0.0104
  352MOL0     C47387   3.568   2.106   0.866  0.5384 -0.8656  0.3519
  352MOL0     O47388   3.580   1.968   0.873 -0.2525 -0.1271  0.0798
  352MOL0     C47389   3.708   1.912   0.885 -0.3241 -0.5322  0.2435
  352MOL0     C47390   3.797   1.967   0.977  0.4796 -0.7747  0.0913
  352MOL0     C47391   3.914   1.900   1.012 -0.0429 -0.4489 -0.5080
  352MOL0     C47392   3.954   1.785   0.943 -0.6014  0.2126  0.1506
  352MOL0     O47393   4.077   1.726   0.969  0.2184 -0.0910 -0.1720
  352MOL0     C47394   4.124   1.613   0.891 -0.0316 -0.2998 -0.0728
  352MOL0     C47395   4.265   1.561   0.943  0.0026 -0.0914  0.8458
  352MOL0     C47396   4.261   1.472   1.060 -0.3131 -0.4714  0.1666
  352MOL0     C47397   4.220   1.543   1.190 -0.1606  0.4431 -0.6176
  352MOL0     C47398   4.222   1.451   1.310 -0.7918  0.5168 -0.2668
  352MOL0     C47399   4.230   1.527   1.444  0.7077 -0.1581 -0.4365
  352MOL0     C47400   4.250   1.437   1.560  0.2950  1.7010 -0.6007
  352MOL0     C47401   4.224   1.500   1.695  0.6504 -0.6946  0.1529
  352MOL0     N47402   4.096   1.449   1.741 -0.3791 -0.0493  0.0834
  352MOL0     C47403   3.976   1.489   1.700 -0.2118 -0.2743  0.0938
  352MOL0     C47404   3.885   1.405   1.766 -0.1664 -0.2449 -0.0843
  352MOL0     C47405   3.738   1.412   1.773  0.0854 -0.8008 -0.1017
  352MOL0     C47406   3.673   1.553   1.778 -0.4774  0.3261 -0.4887
  352MOL0     C47407   3.517   1.536   1.798  0.4944 -0.8202  1.0113
  352MOL0     C47408   3.449   1.520   1.663 -0.3145 -0.2883  0.0515
  352MOL0     O47409   3.311   1.514   1.694  0.6625 -0.2888  0.3016
  352MOL0     C47410   3.216   1.493   1.599  0.0934  0.3345 -0.2932
  352MOL0     C47411   3.088   1.460   1.643 -0.3604  0.1970  0.5218
  352MOL0     C47412   2.982   1.477   1.565  0.3814  0.3482  0.2218
  352MOL0     C47413   2.987   1.492   1.430 -0.7152  0.1510 -0.6354
  352MOL0     C47414   2.875   1.502   1.337 -0.5539 -0.2436 -0.4480
  352MOL0     O47415   2.757   1.446   1.377  0.6487 -0.3002 -0.3703
  352MOL0     C47416   2.660   1.410   1.282 -0.2388  0.4709  0.0527
  352MOL0     C47417   2.579   1.509   1.231 -0.5228  0.4484  0.8064
  352MOL0     C47418   2.486   1.473   1.134  0.5436  0.6182 -0.4588
  352MOL0     C47419   2.476   1.339   1.087  0.3017 -0.6600  0.7765
  352MOL0     O47420   2.379   1.308   1.001 -0.6268 -0.0788  0.2163
  352MOL0     C47421   2.374   1.176   0.951 -0.3078 -0.7887 -0.2986
  352MOL0     C47422   2.280   1.165   0.837  0.2136 -0.2752  0.0306
  352MOL0     C47423   2.127   1.161   0.886 -0.0989 -0.0319 -0.0766
  352MOL0     C47424   2.058   1.271   0.825 -0.5997 -0.2152  0.2651
  352MOL0     C47425   1.907   1.282   0.852  0.4087  1.1267  0.7550
  352MOL0     C47426   1.871   1.308   0.997  0.2846  1.0596  0.6311
  352MOL0     C47427   1.713   1.304   1.025 -0.8423 -0.3010  0.0089
  352MOL0     C47428   1.666   1.167   1.008  0.9356  0.1909  0.3788
  352MOL0    Cl47429   1.724   1.047   1.116 -0.3027  0.7112 -0.2562
  352MOL0     C47430   2.575   1.249   1.130 -0.5529 -1.2140 -0.1952
  352MOL0     C47431   2.669   1.289   1.224 -0.1219 -0.4889  0.1649
  352MOL0     O47432   2.899   1.533   1.224 -0.5437 -0.3223 -0.0699
  352MOL0     C47433   3.117   1.502   1.380  0.0672 -0.2391  0.2300
  352MOL0     C47434   3.224   1.502   1.468 -0.6328  0.0469  0.2292
  352MOL0     N47435   3.956   1.299   1.813 -1.2980  0.1528 -0.0776
  352MOL0     N47436   4.086   1.332   1.808  0.4562  0.3333 -0.1537
  352MOL0     C47437   3.863   1.742   0.847  0.0049 -0.2573  0.4524
  352MOL0     C47438   3.739   1.795   0.822  0.7443 -0.1733  0.5470
  352MOL0     C47439   3.429   2.166   0.882  0.2255 -0.3485  0.0353
  352MOL0     C47440   3.326   2.076   0.855 -0.7332  0.1191 -0.4964
  352MOL0     C47441   3.188   2.104   0.877 -0.6298  0.1225  0.1269
  352MOL0     C47442   3.153   2.240   0.914  1.0663 -1.3669 -0.4431
  352MOL0     O47443   3.022   2.282   0.911  0.1423  0.2131  0.0162
  352MOL0     C47444   2.927   2.184   0.954 -0.1216 -0.3002  0.4307
  352MOL0     C47445   2.814   2.152   0.844  0.1244 -0.5632 -1.3976
  352MOL0     C47446   2.678   2.190   0.906  0.3016  0.1404 -0.5968
  352MOL0     C47447   2.556   2.143   0.838  0.7239  0.3613  1.1658
  352MOL0     C47448   2.538   2.219   0.707 -0.3981  0.1989 -0.1439
  352MOL0     C47449   2.535   2.272   0.596  0.3058 -0.8358  0.8574
  352MOL0     C47450   3.260   2.333   0.939  0.4686  0.2852  1.2297
  352MOL0     C47451   3.398   2.297   0.925 -0.2768 -0.3419  0.7323
  352MOL0     C47452   3.512   2.402   0.945  0.9262  0.0093  0.8455
  352MOL0     H47453   3.773   2.057   1.034 -0.4964 -2.7261  2.9829
  352MOL0     H47454   3.976   1.934   1.094  2.6694  0.0441 -2.6330
  352MOL0     H47455   4.051   1.536   0.919  0.9581  0.2238  5.0625
  352MOL0     H47456   4.127   1.620   0.782 -2.2833 -2.5115 -0.3764
  352MOL0     H47457   4.332   1.646   0.954 -1.5604  1.3319 -0.2094
  352MOL0     H47458   4.313   1.505   0.862  1.3869 -2.3022  3.0317
  352MOL0     H47459   4.360   1.424   1.065  0.6986  1.2602 -1.7839
  352MOL0     H47460   4.190   1.390   1.043  0.0961 -0.9406  0.6544
  352MOL0     H47461   4.289   1.625   1.209  0.1256  0.5068 -1.8942
  352MOL0     H47462   4.118   1.579   1.173 -0.3700 -1.1218 -3.3318
  352MOL0     H47463   4.144   1.375   1.305 -2.1174  1.8402 -0.3044
  352MOL0     H47464   4.316   1.400   1.288 -1.7768 -2.0335  0.9463
  352MOL0     H47465   4.313   1.598   1.445  0.2947  0.3864 -2.0124
  352MOL0     H47466   4.135   1.577   1.461  0.3833 -0.5510 -1.0711
  352MOL0     H47467   4.351   1.397   1.555 -0.4004 -0.2856  0.0860
  352MOL0     H47468   4.179   1.356   1.544 -0.9124  2.2603  1.4214
  352MOL0     H47469   4.297   1.467   1.770 -0.2413 -1.9550  0.4904
  352MOL0     H47470   4.233   1.609   1.691 -0.8846 -0.5538 -0.0575
  352MOL0     H47471   3.948   1.577   1.642 -0.9318  0.1257  1.0275
  352MOL0     H47472   3.696   1.363   1.685  0.3952 -1.7861  0.2916
  352MOL0     H47473   3.703   1.353   1.857 -0.3395 -0.2038  0.1493
  352MOL0     H47474   3.717   1.603   1.865 -0.1748 -0.0372 -0.4288
  352MOL0     H47475   3.697   1.626   1.701  3.2605  1.2216  1.3079
  352MOL0     H47476   3.470   1.614   1.858  1.4856 -0.3344  1.1847
  352MOL0     H47477   3.502   1.448   1.861  0.9435  0.4586  2.9957
  352MOL0     H47478   3.479   1.425   1.618 -0.1986 -0.1959 -0.0676
  352MOL0     H47479   3.460   1.605   1.596  0.1182  0.4747  1.0640
  352MOL0     H47480   3.078   1.441   1.750  1.2319  2.3153  1.1258
  352MOL0     H47481   2.885   1.454   1.607  0.4618 -1.0176 -0.2822
  352MOL0     H47482   2.570   1.609   1.271  1.3560  1.9911 -2.2642
  352MOL0     H47483   2.431   1.556   1.094  0.0422 -0.1326 -1.3645
  352MOL0     H47484   2.476   1.159   0.917  0.5200 -0.6442  1.9818
  352MOL0     H47485   2.346   1.107   1.032 -1.4977 -0.6444 -0.5643
  352MOL0     H47486   2.306   1.251   0.775  0.1092 -0.0850  0.2515
  352MOL0     H47487   2.300   1.076   0.776  1.9258  1.2648 -1.8220
  352MOL0     H47488   2.076   1.066   0.865  0.5203 -0.1057 -1.3188
  352MOL0     H47489   2.130   1.170   0.995 -0.5964 -2.2357  0.1616
  352MOL0     H47490   2.069   1.273   0.716  3.5588 -2.9520  0.4452
  352MOL0     H47491   2.108   1.364   0.854 -0.4512 -0.4542  0.7756
  352MOL0     H47492   1.850   1.199   0.812 -1.3390  3.5876 -2.3454
  352MOL0     H47493   1.854   1.368   0.809  0.4499  0.8147  0.0858
  352MOL0     H47494   1.934   1.249   1.064  0.0209 -0.9345 -0.7902
  352MOL0     H47495   1.903   1.411   1.017 -0.7706  2.0003 -2.0484
  352MOL0     H47496   1.677   1.378   0.953  0.0525  0.1672  0.0291
  352MOL0     H47497   1.697   1.339   1.127  0.5953 -0.0846  0.1822
  352MOL0     H47498   1.557   1.178   1.013  0.9282  0.0663  0.4969
  352MOL0     H47499   1.675   1.143   0.901 -1.5774 -0.7044  0.2760
  352MOL0     H47500   2.578   1.145   1.100  2.9958 -1.2392 -0.0734
  352MOL0     H47501   2.743   1.213   1.247 -1.5416 -1.4568  1.8550
  352MOL0     H47502   3.133   1.531   1.277  2.0035  0.4846  0.6967
  352MOL0     H47503   3.324   1.524   1.432 -1.4916  0.5466 -1.9996
  352MOL0     H47504   3.894   1.653   0.792 -1.3683  0.6522 -1.9706
  352MOL0     H47505   3.673   1.747   0.751  2.2302 -2.7210  0.7725
  352MOL0     H47506   3.355   1.979   0.816 -1.3400  0.0661 -0.8300
  352MOL0     H47507   3.127   2.014   0.872 -0.8429  0.0058  3.1684
  352MOL0     H47508   2.882   2.223   1.046 -1.8524 -2.0378  0.3922
  352MOL0     H47509   2.959   2.088   0.994  1.2984  1.0492  2.7851
  352MOL0     H47510   2.829   2.048   0.812  4.1795 -0.3097 -0.8550
  352MOL0     H47511   2.836   2.222   0.763  1.9978  0.3932 -0.1448
  352MOL0     H47512   2.673   2.295   0.934  1.0355 -0.6249  2.8461
  352MOL0     H47513   2.673   2.137   1.001 -0.2537 -0.3510 -0.8901
  352MOL0     H47514   2.569   2.037   0.815  2.9237  0.6513  0.8901
  352MOL0     H47515   2.467   2.155   0.902  0.3157  0.9954  0.4945
  352MOL0     H47516   2.535   2.338   0.512  1.4074 -1.1919  0.5586
  352MOL0     H47517   3.230   2.435   0.959  2.7777  0.8749  2.0064
  352MOL0     H47518   3.564   2.440   0.856  2.4866  1.4600  2.3042
  352MOL0     H47519   3.471   2.481   1.009  1.6889 -1.0194  2.6587
  352MOL0     H47520   3.590   2.350   1.001  1.1355  1.6691  2.1744
  353MOL0     O47521   2.947   6.825   0.586 -0.5224  0.1986 -0.1818
  353MOL0     C47522   2.837   6.884   0.574 -0.9047 -0.8207  0.5344
  353MOL0     O47523   2.738   6.875   0.664 -0.0150 -0.0372 -1.0836
  353MOL0     C47524   2.731   6.761   0.750  0.6267 -0.2839  0.3619
  353MOL0     C47525   2.714   6.775   0.894 -0.8113 -0.1839  0.0241
  353MOL0     C47526   2.689   6.659   0.970 -0.0746  0.0159 -0.0270
  353MOL0     C47527   2.686   6.535   0.907  1.0645  0.4234 -0.1164
  353MOL0     O47528   2.668   6.416   0.977 -0.1100  0.0307 -0.5457
  353MOL0     C47529   2.562   6.394   1.068 -0.6061 -0.5400  0.4515
  353MOL0     C47530   2.418   6.406   1.002  0.0849  0.6269  1.0058
  353MOL0     C47531   2.307   6.367   1.100  0.7005 -0.4685  0.2341
  353MOL0     C47532   2.167   6.375   1.041  0.2835 -0.1423  0.3933
  353MOL0     C47533   2.070   6.338   1.154 -0.7476 -1.1985 -0.1724
  353MOL0     C47534   2.104   6.223   1.244  0.6766  0.0726 -0.4200
  353MOL0     C47535   1.995   6.191   1.356  0.1031 -0.4169  0.0975
  353MOL0     C47536   1.953   6.316   1.442 -0.2493  0.0163 -0.7664
  353MOL0     N47537   2.068   6.357   1.517 -0.5200  0.3391 -0.2511
  353MOL0     C47538   2.141   6.473   1.494  1.0554 -0.0865  0.7129
  353MOL0     C47539   2.241   6.478   1.587  0.2762 -0.1672 -0.4539
  353MOL0     C47540   2.350   6.573   1.593  0.6660 -0.5338 -0.0282
  353MOL0     C47541   2.436   6.573   1.462  0.2293  0.0863  0.2220
  353MOL0     C47542   2.548   6.465   1.447  0.0980 -0.5423  0.4027
  353MOL0     C47543   2.497   6.328   1.426  0.3372 -0.0781 -0.4095
  353MOL0     O47544   2.605   6.249   1.386 -0.0301 -0.9789  0.3242
  353MOL0     C47545   2.682   6.184   1.476 -0.1938  0.2690 -0.6973
  353MOL0     C47546   2.797   6.119   1.421 -0.1512 -0.7323  0.2728
  353MOL0     C47547   2.880   6.042   1.491  0.0615 -0.6186 -0.6953
  353MOL0     C47548   2.852   6.007   1.627 -0.2797 -0.8384  0.2102
  353MOL0     C47549   2.924   5.910   1.704  0.7094 -0.5308 -0.1385
  353MOL0     O47550   2.880   5.899   1.840 -0.4592  0.1259  0.1192
  353MOL0     C47551   2.945   5.802   1.910  0.1307  0.6984 -0.3444
  353MOL0     C47552   2.888   5.679   1.946  0.6517 -1.3724 -0.4108
  353MOL0     C47553   2.964   5.585   2.022  0.5120 -0.4055 -0.4800
  353MOL0     C47554   3.099   5.610   2.051 -1.1517 -1.0882 -1.1573
  353MOL0     O47555   3.201   5.542   2.126 -0.0181  0.6954 -0.2950
  353MOL0     C47556   3.159   5.416   2.177  0.2095  0.6486 -0.2013
  353MOL0     C47557   3.281   5.358   2.248  0.5141  0.0628  0.0440
  353MOL0     C47558   3.371   5.441   2.331 -0.4032  0.3003  0.1373
  353MOL0     C47559   3.469   5.352   2.414  0.4053 -0.4214 -0.7862
  353MOL0     C47560   3.583   5.435   2.492 -0.6597  0.4878  0.2385
  353MOL0     C47561   3.700   5.475   2.400  0.0279 -0.7983 -0.3479
  353MOL0     C47562   3.821   5.550   2.465  1.2251 -0.1861  0.3056
  353MOL0     C47563   3.912   5.613   2.360 -0.8167 -0.7679 -0.1238
  353MOL0    Cl47564   3.952   5.501   2.226 -0.2786  0.1708  0.1781
  353MOL0     C47565   3.144   5.734   2.030 -0.3527 -0.2451  0.7523
  353MOL0     C47566   3.072   5.827   1.950  0.4557 -0.4036 -0.4417
  353MOL0     O47567   3.023   5.861   1.656 -0.2291 -0.2175 -0.1030
  353MOL0     C47568   2.736   6.066   1.677 -0.2382  0.2993  0.4345
  353MOL0     C47569   2.651   6.150   1.605 -0.2275  0.2364  0.1873
  353MOL0     N47570   2.218   6.373   1.679 -0.4755 -0.9407 -0.2417
  353MOL0     N47571   2.115   6.305   1.637 -0.2935 -0.4497 -0.0056
  353MOL0     C47572   2.713   6.523   0.774  0.0427 -0.9373 -0.0240
  353MOL0     C47573   2.720   6.637   0.697  0.3326  0.2675  0.5058
  353MOL0     C47574   2.838   6.979   0.461  0.2253 -0.5506  0.4662
  353MOL0     C47575   2.952   7.035   0.408 -0.0903  0.2489  0.1774
  353MOL0     C47576   2.954   7.148   0.323 -0.3176 -0.8390  1.0681
  353MOL0     C47577   2.840   7.173   0.248  0.1639 -0.4158 -0.6289
  353MOL0     O47578   2.848   7.261   0.135  0.6654 -0.3385 -0.7838
  353MOL0     C47579   2.721   7.307   0.069  0.5850  1.4420  0.3604
  353MOL0     C47580   2.764   7.394  -0.050 -0.3847  1.2756  0.2617
  353MOL0     C47581   2.868   7.320  -0.144  0.8045  0.0644 -0.4397
  353MOL0     C47582   2.927   7.415  -0.246 -0.3463 -0.9861 -0.2847
  353MOL0     C47583   3.016   7.514  -0.192  0.1275 -0.2304  0.3909
  353MOL0     C47584   3.092   7.598  -0.147 -0.1762  0.9540  0.0259
  353MOL0     C47585   2.721   7.122   0.296 -0.4197  0.8073 -0.5299
  353MOL0     C47586   2.714   7.029   0.399 -0.2391 -0.0168 -0.5662
  353MOL0     C47587   2.580   6.977   0.431  0.5160 -0.0573  0.4589
  353MOL0     H47588   2.706   6.873   0.939  2.2728 -0.4838  1.4698
  353MOL0     H47589   2.664   6.665   1.076  0.1129  2.1577 -0.0564
  353MOL0     H47590   2.580   6.292   1.103  2.6873 -1.1513 -2.5267
  353MOL0     H47591   2.555   6.465   1.152  0.1104  0.2187 -0.1198
  353MOL0     H47592   2.423   6.357   0.904 -2.4588  0.5613  0.8486
  353MOL0     H47593   2.403   6.512   0.978  1.1210  0.3652 -0.9901
  353MOL0     H47594   2.296   6.431   1.188 -1.4533  0.7532 -0.8551
  353MOL0     H47595   2.334   6.265   1.131  0.3606 -0.4323  0.6526
  353MOL0     H47596   2.150   6.475   1.000  0.2485 -0.2294  0.1983
  353MOL0     H47597   2.142   6.301   0.964 -1.4526  0.6867  0.1047
  353MOL0     H47598   2.059   6.427   1.215 -1.1824  0.9702 -3.1817
  353MOL0     H47599   1.968   6.321   1.117 -0.2959 -1.0510 -1.5253
  353MOL0     H47600   2.122   6.137   1.179  2.0914  0.3110 -0.3647
  353MOL0     H47601   2.197   6.243   1.297  1.1788 -2.6498 -0.1413
  353MOL0     H47602   2.027   6.114   1.427 -0.2405 -0.2562  0.4352
  353MOL0     H47603   1.909   6.155   1.298 -0.2939  0.1531  0.3279
  353MOL0     H47604   1.912   6.396   1.380 -0.5393  0.0821 -0.4945
  353MOL0     H47605   1.870   6.291   1.509  0.0500 -1.2128 -0.8353
  353MOL0     H47606   2.112   6.539   1.414 -0.8909 -0.5319  0.9997
  353MOL0     H47607   2.310   6.672   1.616 -1.6886 -1.7215  1.3709
  353MOL0     H47608   2.410   6.554   1.683 -2.9546  0.3208  2.7888
  353MOL0     H47609   2.384   6.562   1.366  0.7119 -1.4260  0.1085
  353MOL0     H47610   2.484   6.671   1.450 -1.8702  1.2532  0.8737
  353MOL0     H47611   2.607   6.473   1.538  2.1066 -4.9168 -0.2636
  353MOL0     H47612   2.605   6.501   1.361 -0.6147  0.0878  0.1781
  353MOL0     H47613   2.428   6.320   1.341  3.1123 -1.0028 -2.7112
  353MOL0     H47614   2.442   6.285   1.511  2.2240 -0.3449  0.7273
  353MOL0     H47615   2.824   6.125   1.316 -1.3930 -0.4729 -0.0508
  353MOL0     H47616   2.949   6.005   1.416 -2.0240 -0.3779 -2.8593
  353MOL0     H47617   2.787   5.671   1.908  0.1498 -0.6812  0.7199
  353MOL0     H47618   2.917   5.496   2.061  0.2986  0.1582  0.5677
  353MOL0     H47619   3.081   5.425   2.254 -1.3350 -1.5748 -1.3856
  353MOL0     H47620   3.121   5.343   2.105 -3.2961  0.9590  1.0924
  353MOL0     H47621   3.239   5.290   2.322  1.1468  0.3111  0.6428
  353MOL0     H47622   3.345   5.312   2.173  1.2673  2.0473 -0.6137
  353MOL0     H47623   3.419   5.523   2.276  0.3799 -1.1295 -1.3805
  353MOL0     H47624   3.314   5.495   2.407 -1.9738  0.2678 -0.9670
  353MOL0     H47625   3.518   5.277   2.351  1.6135  0.6290 -1.1439
  353MOL0     H47626   3.404   5.308   2.490  0.7580  1.5736  0.7731
  353MOL0     H47627   3.617   5.363   2.567  0.9080 -0.0605 -0.9394
  353MOL0     H47628   3.548   5.530   2.533 -1.2506  0.6132 -0.5396
  353MOL0     H47629   3.741   5.382   2.359  1.6467 -1.5321  2.6551
  353MOL0     H47630   3.661   5.546   2.327  1.2641  0.4184  0.1298
  353MOL0     H47631   3.879   5.477   2.523 -1.5789 -1.4595  1.6940
  353MOL0     H47632   3.776   5.622   2.534 -1.2190 -0.2044 -1.1528
  353MOL0     H47633   3.848   5.694   2.324 -2.4192 -1.5213  0.8636
  353MOL0     H47634   4.005   5.653   2.400  1.2000 -2.5011 -2.7871
  353MOL0     H47635   3.242   5.774   2.054  0.7835 -1.5385 -1.3895
  353MOL0     H47636   3.104   5.926   1.920 -0.3048 -0.8840 -3.0351
  353MOL0     H47637   2.699   6.029   1.773  0.6239 -2.0608 -0.0713
  353MOL0     H47638   2.549   6.168   1.637 -0.3329  2.0273 -1.0275
  353MOL0     H47639   2.723   6.428   0.722 -0.4629 -0.3922 -1.1510
  353MOL0     H47640   2.740   6.632   0.590 -0.1542  1.5926  0.3314
  353MOL0     H47641   3.040   6.986   0.448  0.0156 -2.4231 -2.8894
  353MOL0     H47642   3.046   7.196   0.293 -2.6364  3.3987 -0.0382
  353MOL0     H47643   2.653   7.354   0.141 -0.6860  0.8297 -0.3897
  353MOL0     H47644   2.662   7.220   0.038  2.5183 -0.9961  3.0325
  353MOL0     H47645   2.821   7.476  -0.004  0.4925 -0.5833  2.6735
  353MOL0     H47646   2.678   7.432  -0.105 -0.1905 -0.8562 -1.6082
  353MOL0     H47647   2.812   7.237  -0.187 -0.6000 -0.4249  2.1518
  353MOL0     H47648   2.954   7.282  -0.087  2.0349  2.7818 -0.3194
  353MOL0     H47649   2.970   7.362  -0.331  1.8883 -0.9581  0.7542
  353MOL0     H47650   2.843   7.477  -0.280 -1.6316 -1.0114  2.5742
  353MOL0     H47651   3.172   7.658  -0.107  2.1189 -0.6451 -1.8580
  353MOL0     H47652   2.626   7.154   0.253 -2.7482 -0.4747  3.2475
  353MOL0     H47653   2.573   6.877   0.387 -1.6828  0.5420 -0.7324
  353MOL0     H47654   2.546   6.990   0.534 -1.8962  2.0864 -0.4643
  353MOL0     H47655   2.505   7.035   0.376  0.3721  1.1585  1.8690
  354MOL0     O47656   7.076   6.817   8.767 -0.1579 -0.9452  0.0208
  354MOL0     C47657   7.031   6.930   8.781 -0.4255  0.0886  0.2793
  354MOL0     O47658   7.100   7.049   8.759 -0.8371  0.5900  0.2284
  354MOL0     C47659   7.230   7.028   8.737 -0.4734  0.0731  1.0740
  354MOL0     C47660   7.260   7.038   8.598  0.0458 -0.4764 -0.2363
  354MOL0     C47661   7.384   7.026   8.549  0.0939 -0.1449  0.1345
  354MOL0     C47662   7.495   7.016   8.638  0.2265  0.3928  0.2206
  354MOL0     O47663   7.625   7.003   8.601 -0.0405 -0.3078  0.0753
  354MOL0     C47664   7.655   7.017   8.460 -0.6146 -1.2668  0.2434
  354MOL0     C47665   7.662   7.166   8.417 -0.1085  0.3010  0.2662
  354MOL0     C47666   7.745   7.201   8.302 -0.0331  0.8148  0.2623
  354MOL0     C47667   7.887   7.217   8.345  0.0163  0.1340 -0.1827
  354MOL0     C47668   7.955   7.355   8.332  0.4930 -0.0542  0.0577
  354MOL0     C47669   7.881   7.473   8.401 -0.5431 -0.0780 -0.3612
  354MOL0     C47670   7.972   7.591   8.444  0.0239  0.4707  0.2903
  354MOL0     C47671   7.878   7.700   8.493 -0.2234 -0.1141  0.1444
  354MOL0     N47672   7.968   7.819   8.508 -0.0273 -0.4694 -0.3711
  354MOL0     C47673   8.069   7.840   8.601  0.1844  0.1147  0.1654
  354MOL0     C47674   8.149   7.935   8.547  0.7001  0.4145 -0.4815
  354MOL0     C47675   8.278   7.964   8.620 -0.2759 -0.6995  0.4422
  354MOL0     C47676   8.393   7.868   8.558  0.1672  0.5857  0.4333
  354MOL0     C47677   8.420   7.725   8.613 -0.6907  0.2498  0.9771
  354MOL0     C47678   8.480   7.719   8.749 -0.5829  0.5419  0.3409
  354MOL0     O47679   8.596   7.801   8.768 -0.4362  0.5241  0.9648
  354MOL0     C47680   8.722   7.748   8.746 -0.2525 -0.8103  0.0619
  354MOL0     C47681   8.749   7.635   8.658 -0.4120 -0.2913  0.5478
  354MOL0     C47682   8.878   7.603   8.632 -0.6794 -0.1840 -0.3700
  354MOL0     C47683   8.993   7.681   8.671 -0.1418  0.7071 -0.7716
  354MOL0     C47684   9.125   7.656   8.630  1.2762  0.3621  0.2895
  354MOL0     O47685   9.225   7.700   8.698 -0.1228 -0.0893  0.0547
  354MOL0     C47686   9.343   7.732   8.638 -0.5374  0.6980  1.3750
  354MOL0     C47687   9.453   7.655   8.680 -0.3188  0.5882  0.2233
  354MOL0     C47688   9.582   7.684   8.626  0.4198 -0.0242  0.5089
  354MOL0     C47689   9.601   7.781   8.526 -0.9374 -0.4175  0.1885
  354MOL0     O47690   9.731   7.798   8.486 -0.2295  0.7453  0.7345
  354MOL0     C47691   9.766   7.926   8.433  1.4123  0.2537  0.1991
  354MOL0     C47692   9.917   7.944   8.459 -0.4152  0.0844 -0.3987
  354MOL0     C47693   9.961   8.091   8.425 -0.5160  0.5588  0.4297
  354MOL0     C47694  10.107   8.111   8.436 -0.5900  0.4409  0.6699
  354MOL0     C47695  10.171   8.083   8.579 -0.2186 -0.5986 -0.8643
  354MOL0     C47696  10.310   8.167   8.591  0.2721  0.3547  0.4266
  354MOL0     C47697  10.412   8.131   8.484 -1.0851  0.0746 -0.2613
  354MOL0     C47698  10.558   8.177   8.514 -0.3049  0.3724 -0.1984
  354MOL0    Cl47699  10.661   8.119   8.378 -0.1856  0.5268  0.0006
  354MOL0     C47700   9.488   7.846   8.472 -0.7970  0.2571 -0.4801
  354MOL0     C47701   9.363   7.824   8.530  0.2178  0.0309  0.0339
  354MOL0     O47702   9.130   7.587   8.530 -0.2432 -0.4527 -0.2294
  354MOL0     C47703   8.962   7.792   8.755  0.5917  1.1962 -0.1400
  354MOL0     C47704   8.831   7.823   8.787 -0.0399  0.6962  0.1269
  354MOL0     N47705   8.095   7.974   8.424  0.2316 -0.4990  0.1043
  354MOL0     N47706   7.981   7.912   8.411 -0.0953  0.4201  0.4949
  354MOL0     C47707   7.468   7.010   8.785  0.2648 -0.7188  0.6966
  354MOL0     C47708   7.333   7.018   8.828 -0.3085 -0.7302 -0.2975
  354MOL0     C47709   6.885   6.942   8.808 -0.5708  0.1169 -0.1230
  354MOL0     C47710   6.837   6.994   8.931 -0.8743  1.1797  0.8211
  354MOL0     C47711   6.705   7.013   8.954  0.6794 -0.5748  0.4167
  354MOL0     C47712   6.603   6.979   8.863 -0.4756  0.1286  0.2902
  354MOL0     O47713   6.463   6.994   8.877 -0.0943  0.0875 -0.3891
  354MOL0     C47714   6.417   7.035   9.012 -0.9879  0.3275 -0.5618
  354MOL0     C47715   6.404   7.188   9.047 -0.5699  0.3374 -0.3452
  354MOL0     C47716   6.299   7.263   8.950  0.0538  0.5497  0.0918
  354MOL0     C47717   6.159   7.300   9.013 -1.1428  0.7549  0.3784
  354MOL0     C47718   6.186   7.392   9.126 -0.0540  0.3694 -0.3938
  354MOL0     C47719   6.218   7.475   9.209  0.0872  0.3850  0.2936
  354MOL0     C47720   6.647   6.930   8.741  0.8143 -0.2328  0.2672
  354MOL0     C47721   6.784   6.896   8.713 -0.7004  0.0615 -0.1727
  354MOL0     C47722   6.822   6.848   8.576 -0.0876  0.8227 -0.2576
  354MOL0     H47723   7.178   7.060   8.531  1.6236  0.9552 -1.7945
  354MOL0     H47724   7.404   7.032   8.442 -2.2978  1.1044 -0.3190
  354MOL0     H47725   7.755   6.977   8.444  0.1265  0.1486  1.2025
  354MOL0     H47726   7.582   6.964   8.397 -2.5483 -2.4160  3.2235
  354MOL0     H47727   7.704   7.218   8.504  1.4802  0.4048 -0.5345
  354MOL0     H47728   7.559   7.196   8.393 -0.3700 -1.2809 -0.7587
  354MOL0     H47729   7.704   7.294   8.262 -1.5046 -0.0450 -0.2996
  354MOL0     H47730   7.733   7.118   8.232 -2.7923  2.5180 -1.4887
  354MOL0     H47731   7.904   7.197   8.451 -1.5423  1.8897  0.4450
  354MOL0     H47732   7.947   7.147   8.286  0.0850 -0.9042  1.0730
  354MOL0     H47733   8.054   7.337   8.375  0.3265  0.9277  0.8859
  354MOL0     H47734   7.980   7.372   8.227  0.7600 -0.8791 -0.0161
  354MOL0     H47735   7.813   7.508   8.322 -0.8012 -2.6809 -1.3892
  354MOL0     H47736   7.845   7.439   8.498 -0.8824  0.0465 -0.4401
  354MOL0     H47737   8.050   7.622   8.374  0.4172  0.9411  0.9330
  354MOL0     H47738   8.032   7.551   8.525 -1.0377 -2.4256 -0.2365
  354MOL0     H47739   7.798   7.717   8.420 -0.0245  1.4156  0.2561
  354MOL0     H47740   7.831   7.663   8.585 -0.7947 -2.3956 -0.9833
  354MOL0     H47741   8.100   7.783   8.688  1.5776 -1.5128 -1.3273
  354MOL0     H47742   8.290   8.070   8.594 -0.5485 -1.0452 -1.1861
  354MOL0     H47743   8.279   7.956   8.729  2.0817 -1.5690  0.4018
  354MOL0     H47744   8.376   7.865   8.450 -1.9760  0.6727  0.7244
  354MOL0     H47745   8.486   7.925   8.566  1.0794  0.2612 -4.6045
  354MOL0     H47746   8.490   7.663   8.557 -0.0811 -1.5815  3.5912
  354MOL0     H47747   8.326   7.670   8.601 -0.1915 -0.1236 -1.8323
  354MOL0     H47748   8.510   7.616   8.770 -0.2338  0.5681 -0.0181
  354MOL0     H47749   8.414   7.755   8.828  1.7359 -2.2475  3.9012
  354MOL0     H47750   8.671   7.580   8.606 -0.2092 -0.3282  0.2779
  354MOL0     H47751   8.900   7.508   8.584  2.0497  1.4466 -2.6498
  354MOL0     H47752   9.436   7.581   8.758 -3.2236  1.1787  0.2630
  354MOL0     H47753   9.659   7.614   8.656 -1.3399 -2.4622 -0.2545
  354MOL0     H47754   9.747   7.921   8.325  0.9571  2.2523  0.1561
  354MOL0     H47755   9.715   8.009   8.481  0.9992  0.8015 -1.1307
  354MOL0     H47756   9.936   7.922   8.564 -6.2292  0.6480  1.1331
  354MOL0     H47757   9.976   7.875   8.399  1.3368 -1.1803  2.5750
  354MOL0     H47758   9.936   8.109   8.320 -1.1214  0.8426  0.6153
  354MOL0     H47759   9.911   8.156   8.498  1.4281  2.8168 -0.1130
  354MOL0     H47760  10.133   8.214   8.411  0.4834 -0.3407 -1.7173
  354MOL0     H47761  10.158   8.056   8.357  0.5901  3.9319 -1.2480
  354MOL0     H47762  10.184   7.976   8.593 -2.9449 -0.6604  3.0657
  354MOL0     H47763  10.108   8.121   8.661  1.3619  1.3770 -0.4678
  354MOL0     H47764  10.281   8.271   8.603 -1.0003 -0.1236  1.7256
  354MOL0     H47765  10.349   8.125   8.685 -0.6493  0.6570  0.9540
  354MOL0     H47766  10.372   8.185   8.399 -1.1913 -2.7866 -2.1667
  354MOL0     H47767  10.407   8.022   8.473  0.5905 -0.0956  0.3355
  354MOL0     H47768  10.569   8.285   8.528 -2.6473  0.6963 -0.5053
  354MOL0     H47769  10.588   8.127   8.606  0.2517 -0.7833 -0.9880
  354MOL0     H47770   9.503   7.920   8.394  1.8018  1.2233  0.8355
  354MOL0     H47771   9.275   7.873   8.491 -1.4038 -1.7554  1.2800
  354MOL0     H47772   9.048   7.849   8.789  1.8108 -1.0920  0.8477
  354MOL0     H47773   8.811   7.914   8.844  4.3956  1.0602  1.4404
  354MOL0     H47774   7.552   6.995   8.851  2.9706  1.2562 -2.0156
  354MOL0     H47775   7.302   7.000   8.930  0.6020 -3.3297 -0.3934
  354MOL0     H47776   6.917   7.026   8.997  2.7286 -0.7901 -2.2130
  354MOL0     H47777   6.685   7.060   9.050 -0.4869 -0.2692  0.0333
  354MOL0     H47778   6.477   6.982   9.087 -1.1038 -1.2804 -1.5648
  354MOL0     H47779   6.321   6.988   9.036 -0.1202 -0.1300  2.4595
  354MOL0     H47780   6.498   7.242   9.034 -1.6053  2.6094  0.8541
  354MOL0     H47781   6.372   7.191   9.152  1.0076 -2.2793  0.3035
  354MOL0     H47782   6.273   7.216   8.855 -5.3129  1.7738  0.6841
  354MOL0     H47783   6.353   7.353   8.920  2.4960 -0.9049 -0.2098
  354MOL0     H47784   6.098   7.357   8.942 -2.5890 -1.5025 -0.2809
  354MOL0     H47785   6.108   7.209   9.044  2.0958 -0.2993  3.2407
  354MOL0     H47786   6.254   7.555   9.270 -1.1073  2.8694 -2.0313
  354MOL0     H47787   6.568   6.908   8.671  1.9931 -0.8752 -0.9164
  354MOL0     H47788   6.884   6.758   8.587  0.5253  1.2543 -0.1147
  354MOL0     H47789   6.728   6.813   8.532 -0.5865 -0.9761  2.0213
  354MOL0     H47790   6.877   6.925   8.521  2.1437 -0.2321  0.3610
  355MOL0     O47791   5.506   5.429   5.224  0.0653 -0.6507  0.1090
  355MOL0     C47792   5.558   5.326   5.185  0.7139  0.2457  0.4063
  355MOL0     O47793   5.652   5.251   5.255 -0.0323 -0.4047 -0.2354
  355MOL0     C47794   5.714   5.292   5.369 -0.0490  0.1232  0.0328
  355MOL0     C47795   5.746   5.422   5.399  0.4814  0.3874 -1.2091
  355MOL0     C47796   5.795   5.451   5.537  0.1766 -1.4466  0.7431
  355MOL0     C47797   5.832   5.353   5.617 -0.4630  0.1634  0.5030
  355MOL0     O47798   5.880   5.392   5.741  0.8513 -0.5983 -0.0646
  355MOL0     C47799   5.819   5.342   5.862  0.7734  0.1843 -1.0547
  355MOL0     C47800   5.818   5.444   5.983  0.2436 -0.0112 -1.0645
  355MOL0     C47801   5.956   5.464   6.045  0.6806  0.4898 -0.3548
  355MOL0     C47802   5.978   5.404   6.191  0.6198 -0.5885 -0.2598
  355MOL0     C47803   6.108   5.468   6.253 -0.1711  0.6010  0.0493
  355MOL0     C47804   6.168   5.394   6.381 -0.8346 -0.3917 -0.0877
  355MOL0     C47805   6.294   5.485   6.423 -1.0814  0.1010 -0.3214
  355MOL0     C47806   6.317   5.478   6.573 -0.6960  0.7948 -1.5378
  355MOL0     N47807   6.385   5.354   6.620 -0.2791 -0.0414 -0.0679
  355MOL0     C47808   6.426   5.353   6.757  0.5682 -0.4999  0.0729
  355MOL0     C47809   6.530   5.266   6.772 -0.1845 -0.5298 -0.5713
  355MOL0     C47810   6.611   5.244   6.902 -1.2995 -0.2057  0.5398
  355MOL0     C47811   6.656   5.382   6.951  0.6336 -0.8639  0.6095
  355MOL0     C47812   6.764   5.385   7.068 -0.2638  0.5185 -0.4698
  355MOL0     C47813   6.688   5.361   7.199 -1.1376 -0.0693 -0.3859
  355MOL0     O47814   6.612   5.480   7.234  0.1244  0.4170 -0.3031
  355MOL0     C47815   6.506   5.466   7.326 -0.2438 -1.2665  0.0490
  355MOL0     C47816   6.474   5.360   7.402 -0.3748  0.2929 -0.1108
  355MOL0     C47817   6.356   5.358   7.484 -0.3487 -0.4375  0.8223
  355MOL0     C47818   6.269   5.471   7.492  0.1268 -0.1133  0.5090
  355MOL0     C47819   6.152   5.468   7.571 -0.6600  0.0448  0.4691
  355MOL0     O47820   6.132   5.355   7.646 -0.5196 -0.6179  0.3191
  355MOL0     C47821   6.019   5.364   7.721  1.0367  0.7051 -0.1172
  355MOL0     C47822   6.038   5.362   7.854 -0.1514  0.6319 -0.2788
  355MOL0     C47823   5.935   5.374   7.941 -0.2969 -0.6693  0.7824
  355MOL0     C47824   5.805   5.380   7.902  0.2759  0.2439  0.5709
  355MOL0     O47825   5.703   5.399   7.996 -0.3403  0.0819  0.3403
  355MOL0     C47826   5.566   5.394   7.953 -0.2092  0.5181 -0.2634
  355MOL0     C47827   5.470   5.389   8.072 -0.2476  0.8591 -0.2046
  355MOL0     C47828   5.469   5.523   8.138 -0.2180 -1.7145  0.0346
  355MOL0     C47829   5.377   5.521   8.260  0.2921  0.0919 -0.6236
  355MOL0     C47830   5.383   5.657   8.332 -0.4904  0.9460  0.3956
  355MOL0     C47831   5.294   5.762   8.249 -0.4355 -0.2644  0.0211
  355MOL0     C47832   5.323   5.904   8.308  0.2036  0.0302  0.6589
  355MOL0     C47833   5.210   5.924   8.414 -0.1480  0.0636  0.5061
  355MOL0    Cl47834   5.196   6.083   8.468 -0.2693 -0.1351  0.2052
  355MOL0     C47835   5.776   5.374   7.761 -0.0503 -0.2633 -0.7708
  355MOL0     C47836   5.889   5.364   7.669  0.7996 -0.0487 -0.1619
  355MOL0     O47837   6.087   5.577   7.574 -0.7369  0.5426  0.0666
  355MOL0     C47838   6.308   5.585   7.414 -0.4682 -0.4609 -0.3897
  355MOL0     C47839   6.424   5.581   7.336 -0.0025  1.0303 -0.0092
  355MOL0     N47840   6.558   5.221   6.647  0.2724  0.8983  0.3346
  355MOL0     N47841   6.469   5.269   6.558  0.1872 -0.0072 -0.3058
  355MOL0     C47842   5.811   5.218   5.584 -0.6207  0.8160 -0.4746
  355MOL0     C47843   5.745   5.192   5.460  0.1756  0.7830 -0.4365
  355MOL0     C47844   5.528   5.283   5.047 -0.7304 -0.2937 -0.0948
  355MOL0     C47845   5.582   5.166   4.999 -0.5523  0.0016  0.5882
  355MOL0     C47846   5.560   5.111   4.876 -0.1186  0.1117 -0.4327
  355MOL0     C47847   5.476   5.184   4.782 -0.9474 -0.4540 -0.2581
  355MOL0     O47848   5.469   5.159   4.646  0.5302 -0.9622 -0.0212
  355MOL0     C47849   5.547   5.057   4.590 -0.2381 -0.1884 -0.1271
  355MOL0     C47850   5.472   4.924   4.602 -0.4135  0.5723  0.0562
  355MOL0     C47851   5.324   4.923   4.553 -0.1718 -0.1484 -0.3963
  355MOL0     C47852   5.251   4.789   4.584 -1.1173  0.1290  0.0637
  355MOL0     C47853   5.112   4.785   4.548  0.7079  0.2272  0.4790
  355MOL0     C47854   5.012   4.774   4.476 -0.5057 -0.3775  0.6881
  355MOL0     C47855   5.414   5.298   4.835 -0.0054 -1.0214 -0.6032
  355MOL0     C47856   5.433   5.356   4.965 -0.2728 -0.3362  0.0839
  355MOL0     C47857   5.345   5.466   4.993 -0.4031 -0.9882  0.2483
  355MOL0     H47858   5.724   5.510   5.339  0.8864  1.6375  0.3866
  355MOL0     H47859   5.794   5.553   5.573  3.7183 -1.4031  1.0180
  355MOL0     H47860   5.717   5.310   5.839  1.6441 -2.5154 -1.5864
  355MOL0     H47861   5.864   5.248   5.897 -3.3268 -1.2598  0.9269
  355MOL0     H47862   5.760   5.395   6.061 -1.7578  3.9311  0.2114
  355MOL0     H47863   5.782   5.540   5.944 -0.3204 -1.7449 -5.3573
  355MOL0     H47864   5.984   5.569   6.055  2.2364 -0.0287  1.2293
  355MOL0     H47865   6.028   5.425   5.973 -1.8025  0.3923 -2.9931
  355MOL0     H47866   5.887   5.428   6.248 -1.8999 -3.4641 -2.6918
  355MOL0     H47867   5.985   5.295   6.192 -1.8335 -0.8079  1.4468
  355MOL0     H47868   6.185   5.462   6.176  0.7245 -1.1811  1.0133
  355MOL0     H47869   6.095   5.572   6.284 -2.3678 -0.4537  3.2972
  355MOL0     H47870   6.080   5.396   6.446 -0.9971 -2.1032 -0.2030
  355MOL0     H47871   6.192   5.288   6.371 -3.5971 -1.4499  2.6375
  355MOL0     H47872   6.268   5.590   6.406 -1.9871  0.0058  0.3769
  355MOL0     H47873   6.391   5.465   6.377 -1.2471 -1.1447 -0.1766
  355MOL0     H47874   6.389   5.555   6.600  1.3357 -1.2500 -0.7840
  355MOL0     H47875   6.220   5.484   6.623 -0.9482 -1.1620 -1.7134
  355MOL0     H47876   6.383   5.415   6.836 -1.7070 -0.4224 -1.1492
  355MOL0     H47877   6.541   5.197   6.971 -0.5528 -0.8484  0.8837
  355MOL0     H47878   6.698   5.181   6.881 -0.6197  0.5146  1.1184
  355MOL0     H47879   6.698   5.451   6.877  1.2774 -1.4879  0.3689
  355MOL0     H47880   6.570   5.440   6.985  0.5837  1.0854 -2.4340
  355MOL0     H47881   6.805   5.486   7.066 -1.5719  1.2210  2.4644
  355MOL0     H47882   6.840   5.309   7.049 -1.6221 -0.8516 -0.6551
  355MOL0     H47883   6.765   5.346   7.276 -0.9618 -3.4769 -1.0656
  355MOL0     H47884   6.631   5.268   7.196 -1.0606 -0.1230 -0.2184
  355MOL0     H47885   6.541   5.274   7.405 -2.1685 -1.1908 -0.5927
  355MOL0     H47886   6.338   5.265   7.536  2.3997 -1.6201 -0.1294
  355MOL0     H47887   6.140   5.350   7.889 -1.3984  0.6523  3.9279
  355MOL0     H47888   5.951   5.360   8.048  1.9281  0.8628  0.7232
  355MOL0     H47889   5.541   5.475   7.884 -5.5031  1.1992  1.9587
  355MOL0     H47890   5.550   5.300   7.900  0.3549 -0.0596  0.5541
  355MOL0     H47891   5.376   5.342   8.041  0.9036 -1.8142  0.0352
  355MOL0     H47892   5.518   5.317   8.139 -1.3856  0.9896  0.7677
  355MOL0     H47893   5.570   5.559   8.161 -1.3306  0.1417  2.4410
  355MOL0     H47894   5.421   5.597   8.072 -1.7492 -2.5379  0.1792
  355MOL0     H47895   5.420   5.446   8.328  0.2272  0.9947  0.4283
  355MOL0     H47896   5.271   5.502   8.242 -0.0761 -0.4690  1.8718
  355MOL0     H47897   5.487   5.690   8.341 -0.8927  2.1238  0.9974
  355MOL0     H47898   5.345   5.638   8.433 -1.4379  1.0945  0.0772
  355MOL0     H47899   5.314   5.776   8.142 -2.4364  1.0646 -0.2328
  355MOL0     H47900   5.187   5.740   8.255 -1.1881  2.8851 -0.0335
  355MOL0     H47901   5.328   5.984   8.233  0.1873  0.5295  1.1797
  355MOL0     H47902   5.415   5.919   8.364  0.5033 -0.4906  0.3113
  355MOL0     H47903   5.115   5.893   8.370 -0.9804  0.9718  1.6308
  355MOL0     H47904   5.239   5.866   8.503 -0.3729 -0.7089  0.0904
  355MOL0     H47905   5.670   5.384   7.739 -1.4415 -0.0335  4.6366
  355MOL0     H47906   5.877   5.371   7.561  0.3492 -0.9507 -0.1777
  355MOL0     H47907   6.248   5.675   7.407  0.9347  0.4329 -1.3123
  355MOL0     H47908   6.459   5.674   7.293 -2.3193  1.9007 -0.1743
  355MOL0     H47909   5.836   5.134   5.648 -1.6993 -0.8195 -2.0684
  355MOL0     H47910   5.720   5.087   5.445 -0.3472  0.2475  3.1690
  355MOL0     H47911   5.650   5.108   5.061  4.0894  1.1994 -2.8377
  355MOL0     H47912   5.605   5.016   4.849 -1.2381 -0.3118 -0.8415
  355MOL0     H47913   5.644   5.051   4.641 -0.6680  2.7264  1.2590
  355MOL0     H47914   5.560   5.074   4.482  1.8441 -1.0830 -0.0616
  355MOL0     H47915   5.477   4.891   4.706  0.9327 -0.4291 -0.2883
  355MOL0     H47916   5.524   4.849   4.541  1.8700  0.2831  2.1594
  355MOL0     H47917   5.313   4.936   4.445 -2.5657 -0.3097 -0.2081
  355MOL0     H47918   5.272   5.002   4.606  0.0192 -1.4608  1.8835
  355MOL0     H47919   5.308   4.716   4.525 -0.9467  1.2246 -1.1706
  355MOL0     H47920   5.252   4.758   4.689 -4.6205 -1.0965 -0.1351
  355MOL0     H47921   4.920   4.758   4.424 -1.4471  1.4196  1.6961
  355MOL0     H47922   5.337   5.336   4.768 -1.2477  1.8754  2.2220
  355MOL0     H47923   5.395   5.563   4.994  0.0546 -1.1616 -1.6610
  355MOL0     H47924   5.266   5.478   4.918  0.8522  0.7183 -0.8805
  355MOL0     H47925   5.293   5.447   5.088 -2.2377 -1.2061 -0.7468
  356MOL0     O47926   1.052   3.974   5.236 -0.0103 -0.2824  0.4633
  356MOL0     C47927   0.966   4.055   5.266 -0.2352 -0.0498 -0.0873
  356MOL0     O47928   0.965   4.181   5.203  0.5613  0.0136 -0.3266
  356MOL0     C47929   1.068   4.216   5.125  0.6636 -0.8874  0.2510
  356MOL0     C47930   1.199   4.219   5.176  0.0100  0.1261 -0.5866
  356MOL0     C47931   1.293   4.271   5.096  0.1461  1.0900  0.1396
  356MOL0     C47932   1.262   4.327   4.969 -0.7918 -0.7020  0.0589
  356MOL0     O47933   1.358   4.394   4.898  0.2168  0.5351  0.2532
  356MOL0     C47934   1.460   4.312   4.846  0.8856  0.3929  1.3374
  356MOL0     C47935   1.597   4.383   4.855 -0.3312  0.4473 -0.1755
  356MOL0     C47936   1.635   4.402   4.999 -0.2599 -0.8857 -0.3420
  356MOL0     C47937   1.787   4.393   5.033  0.1071 -0.9008 -0.0344
  356MOL0     C47938   1.821   4.492   5.142 -0.0307  0.0436 -0.2896
  356MOL0     C47939   1.965   4.462   5.187  0.4527 -0.5250 -0.4873
  356MOL0     C47940   2.009   4.574   5.290 -0.1084 -0.3011 -0.3112
  356MOL0     C47941   2.127   4.522   5.365 -0.2320  0.5798  0.3785
  356MOL0     N47942   2.250   4.467   5.291 -0.3289 -0.1563 -0.3449
  356MOL0     C47943   2.263   4.343   5.227  0.8370 -0.8024  0.6831
  356MOL0     C47944   2.388   4.345   5.171  0.2200 -0.2505  0.2172
  356MOL0     C47945   2.458   4.231   5.104  0.3231  1.0807 -0.3630
  356MOL0     C47946   2.467   4.115   5.206 -0.6494  0.4518 -0.1074
  356MOL0     C47947   2.540   3.994   5.141  0.5550 -0.1885 -0.2464
  356MOL0     C47948   2.542   3.876   5.239 -0.6616  0.6391 -0.6564
  356MOL0     O47949   2.660   3.881   5.317  0.0497 -1.0949 -0.3122
  356MOL0     C47950   2.786   3.856   5.265  0.7476  0.6744  0.3485
  356MOL0     C47951   2.900   3.859   5.347 -0.3898 -0.2732  0.5446
  356MOL0     C47952   3.031   3.838   5.298 -0.2516 -0.3120 -0.5226
  356MOL0     C47953   3.050   3.788   5.169  0.7417 -0.1015  0.5434
  356MOL0     C47954   3.178   3.727   5.119 -0.5837  0.5390 -0.4224
  356MOL0     O47955   3.261   3.698   5.226 -0.2797  0.4796  0.5210
  356MOL0     C47956   3.383   3.645   5.196 -0.0771 -0.0715 -0.2574
  356MOL0     C47957   3.392   3.526   5.125 -0.1323  0.4438 -0.1214
  356MOL0     C47958   3.517   3.473   5.121 -0.3998  0.0754  0.2103
  356MOL0     C47959   3.635   3.527   5.168  0.7708 -0.2476 -0.1292
  356MOL0     O47960   3.755   3.465   5.173 -0.1188  0.2439 -0.1252
  356MOL0     C47961   3.785   3.367   5.070 -0.1269 -0.8694 -1.5175
  356MOL0     C47962   3.930   3.331   5.085 -0.3363  0.2200 -1.2774
  356MOL0     C47963   4.030   3.443   5.074 -0.2338 -0.0850  0.6806
  356MOL0     C47964   4.155   3.414   5.143 -0.0170  0.1365 -0.7782
  356MOL0     C47965   4.236   3.290   5.097 -0.5974  0.5395  0.4275
  356MOL0     C47966   4.384   3.305   5.140  0.0908 -0.3115  0.3024
  356MOL0     C47967   4.468   3.193   5.079 -0.3816  0.0105 -0.4010
  356MOL0     C47968   4.604   3.184   5.145 -0.3402 -0.1663 -0.2492
  356MOL0    Cl47969   4.607   3.138   5.320  0.1679 -0.3600  0.4226
  356MOL0     C47970   3.625   3.652   5.232 -0.4117 -0.1878 -0.5276
  356MOL0     C47971   3.495   3.702   5.258 -1.1324 -0.3602  0.6153
  356MOL0     O47972   3.200   3.706   5.000 -0.4904  0.1323 -0.1905
  356MOL0     C47973   2.935   3.765   5.088 -0.1687 -0.7397  0.4476
  356MOL0     C47974   2.810   3.804   5.134 -0.5679  0.3507  0.6279
  356MOL0     N47975   2.439   4.473   5.186  0.2806  0.4300 -0.5336
  356MOL0     N47976   2.365   4.538   5.269 -0.4435  0.0041  0.5924
  356MOL0     C47977   1.135   4.323   4.921  0.0887 -0.2169  1.1954
  356MOL0     C47978   1.031   4.258   4.995  0.6960  0.5611 -1.4652
  356MOL0     C47979   0.853   4.015   5.364 -0.7391 -0.2760 -0.0541
  356MOL0     C47980   0.859   3.886   5.423 -0.3723  0.5067 -1.0309
  356MOL0     C47981   0.766   3.846   5.526 -0.8141  0.0904 -0.5907
  356MOL0     C47982   0.666   3.937   5.565  0.2016  0.6163 -0.1576
  356MOL0     O47983   0.595   3.887   5.670 -0.3089  0.1311 -0.7197
  356MOL0     C47984   0.474   3.962   5.710  0.3617 -0.0542  1.4116
  356MOL0     C47985   0.400   3.907   5.835 -0.3030  0.0886  0.2106
  356MOL0     C47986   0.372   3.755   5.824 -0.1491  1.1036 -0.3764
  356MOL0     C47987   0.389   3.682   5.962 -0.5779 -0.2287  1.3297
  356MOL0     C47988   0.349   3.542   5.960 -0.4452  0.1691  0.4060
  356MOL0     C47989   0.318   3.428   5.942 -0.2238  0.8785  0.2370
  356MOL0     C47990   0.657   4.066   5.505 -0.0974  0.2548  0.1337
  356MOL0     C47991   0.749   4.098   5.402 -0.3904  0.2628  0.0945
  356MOL0     C47992   0.749   4.246   5.365  0.2128  1.3480 -0.8149
  356MOL0     H47993   1.222   4.181   5.276  0.9504 -0.3645 -0.9787
  356MOL0     H47994   1.393   4.290   5.134  0.9815 -2.5510  0.1065
  356MOL0     H47995   1.462   4.211   4.889 -1.1049 -1.1748 -1.8619
  356MOL0     H47996   1.439   4.294   4.740  0.2087  2.8774  0.9762
  356MOL0     H47997   1.589   4.480   4.805 -0.0026  0.2250 -0.6699
  356MOL0     H47998   1.674   4.321   4.807  0.0547 -0.6702  1.7523
  356MOL0     H47999   1.582   4.330   5.063 -0.1209 -0.5793  0.1242
  356MOL0     H48000   1.590   4.495   5.033  3.5523  0.1727  2.5036
  356MOL0     H48001   1.808   4.288   5.051 -0.6452 -0.5910  3.2218
  356MOL0     H48002   1.843   4.428   4.945 -0.3612  1.1192  0.4090
  356MOL0     H48003   1.796   4.590   5.101 -3.5925 -0.7494 -0.3885
  356MOL0     H48004   1.760   4.491   5.233 -0.4510 -0.6360 -0.5690
  356MOL0     H48005   1.958   4.370   5.246 -2.2434 -0.3660 -0.4336
  356MOL0     H48006   2.028   4.471   5.098 -0.5556  2.0674 -1.0424
  356MOL0     H48007   1.929   4.613   5.354  1.6583 -2.2485  3.4096
  356MOL0     H48008   2.050   4.657   5.232 -0.3750  0.8870  1.1540
  356MOL0     H48009   2.169   4.595   5.435  3.1979  1.0432 -1.9218
  356MOL0     H48010   2.093   4.430   5.413  2.1636 -0.1433  0.7881
  356MOL0     H48011   2.189   4.264   5.221  1.3380 -1.3692  1.6503
  356MOL0     H48012   2.400   4.191   5.020 -2.0196 -1.1872  2.1028
  356MOL0     H48013   2.558   4.267   5.081 -1.3144  4.9210 -2.2348
  356MOL0     H48014   2.527   4.147   5.291 -1.3984 -0.3909  0.7697
  356MOL0     H48015   2.368   4.097   5.249  0.0043 -1.4899  0.7516
  356MOL0     H48016   2.631   4.018   5.085  0.0065  0.9431 -0.6886
  356MOL0     H48017   2.472   3.963   5.061  1.5894  0.7486 -1.5494
  356MOL0     H48018   2.535   3.780   5.188  0.2913  1.0934 -1.6679
  356MOL0     H48019   2.454   3.866   5.303 -0.0876 -0.4368 -0.0070
  356MOL0     H48020   2.901   3.886   5.452  0.2677  0.0184  0.4708
  356MOL0     H48021   3.117   3.822   5.362  1.5956 -2.2575 -3.2131
  356MOL0     H48022   3.297   3.486   5.091  0.0467  1.1478 -1.5137
  356MOL0     H48023   3.522   3.373   5.079 -3.8520 -0.6103  1.1024
  356MOL0     H48024   3.724   3.279   5.094 -2.7266  1.5614  1.8107
  356MOL0     H48025   3.754   3.412   4.975 -4.3728 -0.2847 -0.0692
  356MOL0     H48026   3.933   3.285   5.184  0.6415 -1.3134 -1.9746
  356MOL0     H48027   3.969   3.252   5.020 -0.5526 -0.9511 -0.0130
  356MOL0     H48028   4.051   3.477   4.972  1.1180 -2.1251  0.2123
  356MOL0     H48029   3.989   3.527   5.131 -2.9209 -2.0136  1.7797
  356MOL0     H48030   4.132   3.400   5.249  3.7991  2.4796  0.5644
  356MOL0     H48031   4.229   3.494   5.130  0.1034  0.8102  2.9404
  356MOL0     H48032   4.223   3.275   4.990 -3.8547  0.7840  0.6627
  356MOL0     H48033   4.186   3.198   5.130 -0.0736 -0.1403 -0.6269
  356MOL0     H48034   4.425   3.403   5.115  0.9131  0.0513  2.7868
  356MOL0     H48035   4.390   3.295   5.249  0.0948 -2.8816  0.1158
  356MOL0     H48036   4.480   3.219   4.974 -2.6186  2.0203 -0.2257
  356MOL0     H48037   4.412   3.099   5.087  0.8502 -1.3649 -5.0389
  356MOL0     H48038   4.660   3.103   5.097  2.5021  1.9572 -0.7377
  356MOL0     H48039   4.651   3.283   5.136  0.4322 -0.4373  0.6394
  356MOL0     H48040   3.715   3.696   5.274 -0.9979 -1.4208  2.2062
  356MOL0     H48041   3.478   3.792   5.317 -0.0806  0.5324 -0.4159
  356MOL0     H48042   2.944   3.711   4.995  3.3483 -0.4705  0.4928
  356MOL0     H48043   2.726   3.781   5.068 -1.0707  1.2238  0.9522
  356MOL0     H48044   1.107   4.363   4.824  0.2992 -2.6424  0.0792
  356MOL0     H48045   0.926   4.266   4.967  0.5927 -1.6593 -1.9107
  356MOL0     H48046   0.943   3.818   5.411 -1.1242 -1.3055  2.7188
  356MOL0     H48047   0.768   3.754   5.584 -0.2500  1.6829  2.0965
  356MOL0     H48048   0.411   3.951   5.620 -0.1561 -1.6396  1.9411
  356MOL0     H48049   0.497   4.066   5.734 -0.6494 -0.0757  2.5409
  356MOL0     H48050   0.303   3.957   5.841 -2.5366 -3.4623 -2.2275
  356MOL0     H48051   0.475   3.918   5.913 -0.3658 -0.9586  0.4259
  356MOL0     H48052   0.434   3.702   5.751  1.8757  1.6693  0.8652
  356MOL0     H48053   0.267   3.734   5.798 -0.5213 -1.6097  2.6861
  356MOL0     H48054   0.497   3.684   5.976 -0.6087 -0.1617  1.5679
  356MOL0     H48055   0.344   3.727   6.051  2.6352 -0.5472  3.2638
  356MOL0     H48056   0.297   3.323   5.940  3.6505 -0.0192 -0.8909
  356MOL0     H48057   0.581   4.142   5.523  1.3320  1.8427 -0.3271
  356MOL0     H48058   0.671   4.299   5.421 -0.0191 -0.9067  1.1637
  356MOL0     H48059   0.837   4.293   5.409  1.4655 -0.2738 -1.4879
  356MOL0     H48060   0.730   4.279   5.262 -1.3328  2.1043 -0.3300
  357MOL0     O48061   7.449  10.239   9.735 -0.3975  0.7112  0.0198
  357MOL0     C48062   7.415  10.177   9.831 -0.2597 -0.1061 -0.6894
  357MOL0     O48063   7.499  10.146   9.937 -0.1065 -0.2192  0.2194
  357MOL0     C48064   7.630  10.176   9.940  0.2223  0.1543  0.1001
  357MOL0     C48065   7.719  10.207   9.839  0.4135 -0.5283  0.1406
  357MOL0     C48066   7.852  10.229   9.870 -0.1573 -0.2716 -0.7241
  357MOL0     C48067   7.897  10.230  10.006 -0.1982  1.1084  0.1408
  357MOL0     O48068   8.033  10.241  10.029  0.1592 -0.0993  0.7058
  357MOL0     C48069   8.094  10.232  10.165  0.6466  0.2179 -0.2891
  357MOL0     C48070   8.244  10.214  10.157 -0.0175 -0.3674 -0.0621
  357MOL0     C48071   8.295  10.205  10.304 -0.1047  0.7854  0.4089
  357MOL0     C48072   8.430  10.132  10.305  0.1185 -0.3245 -0.0319
  357MOL0     C48073   8.514  10.146  10.433 -0.4879 -0.5865 -0.1475
  357MOL0     C48074   8.595  10.010  10.469  0.7381 -0.3802  0.3589
  357MOL0     C48075   8.717   9.992  10.374 -0.4766 -0.1439 -0.3885
  357MOL0     C48076   8.800  10.121  10.371 -1.1601 -0.5776  0.0413
  357MOL0     N48077   8.845  10.146  10.505 -0.6570 -0.2355 -0.5607
  357MOL0     C48078   8.873  10.054  10.605  0.7522 -0.6524 -0.1243
  357MOL0     C48079   8.933  10.128  10.706  0.3554  0.6843 -0.0562
  357MOL0     C48080   8.988  10.075  10.836  0.2367 -0.5744 -0.0424
  357MOL0     C48081   9.141  10.060  10.831 -0.9246 -0.0943 -0.1268
  357MOL0     C48082   9.213  10.067  10.966  0.0663  0.0649  0.2967
  357MOL0     C48083   9.368  10.044  10.952 -0.2829  0.7660  0.8822
  357MOL0     O48084   9.432  10.027  11.080  0.6204 -0.1107  0.0184
  357MOL0     C48085   9.564  10.035  11.091  0.1552 -0.6640  0.0297
  357MOL0     C48086   9.648  10.022  10.981  0.7919 -0.2120 -0.2593
  357MOL0     C48087   9.780  10.023  11.003 -0.3506 -0.2351 -1.3334
  357MOL0     C48088   9.843  10.014  11.133  0.5631  1.1536  0.7587
  357MOL0     C48089   9.989  10.004  11.146 -0.0350 -0.7084 -0.1932
  357MOL0     O48090  10.027  10.026  11.271  0.3144  0.4664 -0.0603
  357MOL0     C48091  10.161  10.035  11.312  0.5341 -0.6618 -0.1658
  357MOL0     C48092  10.193  10.107  11.433  0.6585  0.4977  0.7716
  357MOL0     C48093  10.316  10.110  11.495  0.5203  0.8755 -0.8876
  357MOL0     C48094  10.418  10.033  11.436 -0.2652  0.3984  0.3182
  357MOL0     O48095  10.552  10.033  11.469  0.2241  0.4398  0.5652
  357MOL0     C48096  10.576  10.023  11.607 -0.5566  0.4685  0.1827
  357MOL0     C48097  10.685   9.918  11.611 -0.3309 -0.6387 -0.1735
  357MOL0     C48098  10.824   9.950  11.559  0.5359 -0.1358 -0.5106
  357MOL0     C48099  10.916   9.836  11.573 -0.0270  0.0980  0.0816
  357MOL0     C48100  11.065   9.864  11.509  0.8182 -0.1958  0.2546
  357MOL0     C48101  11.056   9.838  11.359 -0.4720  1.1458  0.4641
  357MOL0     C48102  11.181   9.779  11.288 -0.2696 -0.3636  0.2727
  357MOL0     C48103  11.151   9.735  11.145 -1.0873  0.7242  0.4927
  357MOL0    Cl48104  11.072   9.584  11.144 -0.0032 -0.2413  0.9539
  357MOL0     C48105  10.392   9.939  11.328 -0.1199 -1.0806 -0.2597
  357MOL0     C48106  10.262   9.945  11.262  0.4142 -0.7272  0.0198
  357MOL0     O48107  10.059   9.998  11.049 -0.3801 -0.4414  0.1750
  357MOL0     C48108   9.751  10.031  11.244 -0.3449 -0.7032  1.1022
  357MOL0     C48109   9.611  10.052  11.216 -0.1515 -0.4646 -0.7799
  357MOL0     N48110   8.933  10.262  10.675  0.1229 -0.3303 -0.0598
  357MOL0     N48111   8.887  10.267  10.555  0.0165  0.3881 -0.2472
  357MOL0     C48112   7.802  10.203  10.103  1.0236  0.6394 -0.4003
  357MOL0     C48113   7.668  10.178  10.072 -0.8414 -0.7264 -0.6727
  357MOL0     C48114   7.265  10.145   9.844  0.0422 -0.8631 -0.4894
  357MOL0     C48115   7.235  10.059   9.948  0.5225  0.1907 -0.2557
  357MOL0     C48116   7.101  10.019   9.974 -0.3760 -0.3560 -0.4589
  357MOL0     C48117   6.998  10.066   9.893 -0.1122  0.1835  0.0268
  357MOL0     O48118   6.877  10.023   9.912 -0.0391  0.2655 -0.1844
  357MOL0     C48119   6.759  10.092   9.867  0.3711 -0.0988  0.1173
  357MOL0     C48120   6.667  10.080   9.991  0.2445  0.1682  0.4673
  357MOL0     C48121   6.548  10.167   9.951 -1.2550 -0.2640  0.4076
  357MOL0     C48122   6.446  10.206  10.057  0.4649 -1.1417 -0.8339
  357MOL0     C48123   6.490  10.310  10.147  0.4687  0.3377 -0.7762
  357MOL0     C48124   6.550  10.388  10.225  0.4621  0.0747  0.8192
  357MOL0     C48125   7.030  10.144   9.784  0.4248 -0.9615  0.3845
  357MOL0     C48126   7.163  10.189   9.761  0.1414  0.1637  0.2224
  357MOL0     C48127   7.164  10.293   9.653  0.3299  0.2504  0.1085
  357MOL0     H48128   7.688  10.228   9.737 -0.4381  1.4122  0.7547
  357MOL0     H48129   7.923  10.260   9.794  1.0843 -0.2904  0.4033
  357MOL0     H48130   8.058  10.316  10.226 -0.1488 -1.5984  1.8985
  357MOL0     H48131   8.061  10.143  10.219 -0.1799  0.8511  0.2795
  357MOL0     H48132   8.295  10.290  10.098 -0.1428  0.3869  0.7775
  357MOL0     H48133   8.272  10.121  10.107 -0.8161  0.1428 -1.4857
  357MOL0     H48134   8.231  10.144  10.368  2.2648 -1.9970  0.3007
  357MOL0     H48135   8.297  10.311  10.333  1.7327  1.6409 -2.3750
  357MOL0     H48136   8.398  10.028  10.297 -5.2399  1.0101  0.1362
  357MOL0     H48137   8.490  10.167  10.220 -0.8530  2.4849  0.3337
  357MOL0     H48138   8.578  10.235  10.429 -1.4250  0.1352  0.5184
  357MOL0     H48139   8.438  10.156  10.511 -1.1906 -1.3140 -0.7230
  357MOL0     H48140   8.626  10.014  10.573 -2.6093  0.1605  1.4661
  357MOL0     H48141   8.539   9.917  10.462  3.7286 -2.2029 -1.3755
  357MOL0     H48142   8.688   9.986  10.268  2.7040  0.3049 -1.3798
  357MOL0     H48143   8.771   9.903  10.406 -0.5838  0.5028  1.7343
  357MOL0     H48144   8.886  10.111  10.304  0.1314  1.6874  1.2766
  357MOL0     H48145   8.751  10.210  10.331  1.9407  2.1406  1.8294
  357MOL0     H48146   8.831   9.954  10.605  0.7445 -0.6857  1.8008
  357MOL0     H48147   8.960  10.134  10.923 -1.4482  0.3367 -1.1571
  357MOL0     H48148   8.943   9.977  10.856 -0.3556  0.0608  1.9113
  357MOL0     H48149   9.173   9.967  10.783 -2.6049 -2.4819  3.0478
  357MOL0     H48150   9.174  10.146  10.772 -3.0342  0.7626 -0.1560
  357MOL0     H48151   9.179   9.995  11.041  0.9324  1.5941  2.2281
  357MOL0     H48152   9.205  10.166  11.011  2.6216 -0.4180  2.0613
  357MOL0     H48153   9.406  10.134  10.901 -0.3879  0.5776  0.4630
  357MOL0     H48154   9.395   9.956  10.893 -1.6700  0.5948  0.4781
  357MOL0     H48155   9.633  10.022  10.874 -1.6627  0.3438  0.0386
  357MOL0     H48156   9.848  10.005  10.921  2.1146 -0.2383  0.5749
  357MOL0     H48157  10.120  10.177  11.471  1.1527 -0.5436  3.9046
  357MOL0     H48158  10.324  10.171  11.584 -0.7239  0.2763 -0.3363
  357MOL0     H48159  10.598  10.119  11.653 -3.1703  0.7286  1.0847
  357MOL0     H48160  10.487   9.990  11.662 -1.6687 -2.0547 -2.8180
  357MOL0     H48161  10.684   9.893  11.718 -1.5748  1.9660  0.5088
  357MOL0     H48162  10.645   9.835  11.553 -1.1074 -0.4732  0.1181
  357MOL0     H48163  10.822   9.975  11.453  1.3709  2.1304 -0.0458
  357MOL0     H48164  10.856  10.038  11.617 -0.0304  0.0521 -0.4797
  357MOL0     H48165  10.863   9.754  11.525 -0.0269  0.5632 -0.7245
  357MOL0     H48166  10.930   9.810  11.678 -0.8874 -1.9287 -0.2685
  357MOL0     H48167  11.136   9.788  11.545  1.4465  0.6333  0.8131
  357MOL0     H48168  11.111   9.959  11.534  3.3199 -1.0604 -0.7262
  357MOL0     H48169  10.973   9.771  11.337  0.7386  0.4748 -2.5118
  357MOL0     H48170  11.028   9.931  11.309  1.0209  1.0127 -0.6922
  357MOL0     H48171  11.228   9.700  11.346  1.3529 -1.7259 -2.7051
  357MOL0     H48172  11.262   9.852  11.282 -0.9461  0.3101 -1.1957
  357MOL0     H48173  11.091   9.807  11.088 -1.6177  0.3855  0.6214
  357MOL0     H48174  11.247   9.721  11.094 -0.1107  0.3633  2.3487
  357MOL0     H48175  10.470   9.893  11.269  0.5920 -0.8034  0.4579
  357MOL0     H48176  10.236   9.885  11.176  0.5591  0.8229 -1.1419
  357MOL0     H48177   9.790  10.051  11.344  0.5646  5.7033 -0.0644
  357MOL0     H48178   9.537  10.066  11.295 -0.3359 -0.7944 -0.8891
  357MOL0     H48179   7.834  10.205  10.207  0.7511 -1.4054 -0.2401
  357MOL0     H48180   7.602  10.144  10.151  0.5560  0.2235  0.9492
  357MOL0     H48181   7.318  10.013  10.001  0.4898  1.6475  1.1322
  357MOL0     H48182   7.083   9.956  10.060  0.7073  0.4562  0.4028
  357MOL0     H48183   6.728  10.051   9.770 -0.0278  2.3635 -0.8834
  357MOL0     H48184   6.760  10.195   9.831  1.2434 -1.0500 -2.9780
  357MOL0     H48185   6.725  10.113  10.078  1.6878 -0.9910 -0.0163
  357MOL0     H48186   6.633   9.978  10.009  1.1788  0.0150  1.4815
  357MOL0     H48187   6.501  10.120   9.864 -0.2280  1.1714 -0.9726
  357MOL0     H48188   6.587  10.262   9.914 -0.6957 -0.7870 -0.3618
  357MOL0     H48189   6.352  10.239  10.011 -3.1660 -1.4369  5.2996
  357MOL0     H48190   6.421  10.114  10.110  0.2209  0.5109  2.1458
  357MOL0     H48191   6.577  10.460  10.300 -0.8895  0.2548  1.1583
  357MOL0     H48192   6.950  10.173   9.717  1.7571  1.1839 -0.3860
  357MOL0     H48193   7.229  10.373   9.689  0.7468 -0.7470  1.6886
  357MOL0     H48194   7.221  10.246   9.573 -0.2689  0.1755 -0.2780
  357MOL0     H48195   7.067  10.330   9.619 -1.9339 -2.8885  2.4736
  358MOL0     O48196   0.955   0.260   3.020  0.9239  0.1147  0.6541
  358MOL0     C48197   0.909   0.167   2.955 -0.0170  0.3830 -0.4401
  358MOL0     O48198   0.983   0.066   2.896  1.2093  0.1649  0.6981
  358MOL0     C48199   1.111   0.099   2.867  0.0701  0.1458 -0.2096
  358MOL0     C48200   1.204   0.126   2.973 -0.1589  0.3988  0.6610
  358MOL0     C48201   1.337   0.153   2.928  0.3709 -0.1690  0.3513
  358MOL0     C48202   1.370   0.160   2.790  0.7500 -0.4299  0.0727
  358MOL0     O48203   1.493   0.198   2.741  0.2956 -0.0196 -0.0904
  358MOL0     C48204   1.592   0.249   2.828  0.2939  0.3082 -0.0559
  358MOL0     C48205   1.692   0.340   2.758 -1.4353  0.2534  0.1786
  358MOL0     C48206   1.643   0.474   2.698 -0.1989 -0.0541 -0.3512
  358MOL0     C48207   1.631   0.583   2.804  0.7918  1.1778 -0.1021
  358MOL0     C48208   1.764   0.623   2.868  0.2243 -0.0944 -0.6015
  358MOL0     C48209   1.753   0.745   2.948  0.8362 -1.2695 -0.0476
  358MOL0     C48210   1.867   0.789   3.035  0.9284  0.1539 -0.0453
  358MOL0     C48211   1.997   0.840   2.963  0.3848 -0.4794 -0.1859
  358MOL0     N48212   2.091   0.888   3.061 -0.6675 -0.0099  0.1951
  358MOL0     C48213   2.136   1.018   3.066  0.2151  0.5065 -0.6345
  358MOL0     C48214   2.240   1.013   3.152 -0.0685 -0.4269 -0.0058
  358MOL0     C48215   2.323   1.142   3.171  0.0864 -1.1215  0.3689
  358MOL0     C48216   2.386   1.192   3.038  0.8271  0.2031 -0.3227
  358MOL0     C48217   2.436   1.342   3.040 -0.1519  0.1616  0.1694
  358MOL0     C48218   2.550   1.375   3.150  0.5949  0.4210 -0.3352
  358MOL0     O48219   2.664   1.289   3.137  0.1231  0.3179  0.2236
  358MOL0     C48220   2.700   1.216   3.250 -0.3726  0.1396 -0.7469
  358MOL0     C48221   2.701   1.263   3.384  0.2166 -0.0167  0.4137
  358MOL0     C48222   2.710   1.164   3.493  0.8962  0.0584 -0.4190
  358MOL0     C48223   2.737   1.030   3.455 -0.0241  0.0933  0.5709
  358MOL0     C48224   2.736   0.930   3.562 -0.2404 -0.3524  0.0758
  358MOL0     O48225   2.697   0.809   3.526 -0.0576  0.7024 -0.2623
  358MOL0     C48226   2.673   0.712   3.624  0.2353 -0.1184 -0.3778
  358MOL0     C48227   2.564   0.715   3.704  0.1302 -1.1796  0.2058
  358MOL0     C48228   2.532   0.618   3.793 -0.8581 -0.3354 -0.6820
  358MOL0     C48229   2.616   0.503   3.805  0.4100 -0.4299  0.1374
  358MOL0     O48230   2.597   0.399   3.898  0.1974  0.1150  0.1818
  358MOL0     C48231   2.463   0.350   3.890 -0.0582  1.0561  0.0974
  358MOL0     C48232   2.461   0.220   3.981  0.6233 -0.1969  0.3450
  358MOL0     C48233   2.340   0.131   3.972  0.8076  0.2894  0.3141
  358MOL0     C48234   2.335   0.012   4.069 -1.0115  0.1301  0.1534
  358MOL0     C48235   2.237  -0.102   4.034 -0.1689  0.0108 -0.5273
  358MOL0     C48236   2.092  -0.060   4.042  1.5973  0.9528 -0.2163
  358MOL0     C48237   1.995  -0.181   4.015 -0.5061 -0.0868  0.1082
  358MOL0     C48238   1.851  -0.148   3.980  0.0080 -0.0256 -0.2175
  358MOL0    Cl48239   1.759  -0.025   4.091  0.2037 -0.3730  0.0632
  358MOL0     C48240   2.735   0.510   3.734  0.5195  0.3365  0.2845
  358MOL0     C48241   2.757   0.610   3.636  0.7389 -0.3564  0.5358
  358MOL0     O48242   2.765   0.968   3.674  0.4324 -0.2100 -0.0797
  358MOL0     C48243   2.754   0.989   3.318  0.1661 -0.3401  0.3691
  358MOL0     C48244   2.736   1.084   3.220 -0.9878  0.3206  0.0556
  358MOL0     N48245   2.263   0.885   3.196 -0.0714 -0.1663  0.1052
  358MOL0     N48246   2.174   0.809   3.140  0.2602 -0.8610  0.3972
  358MOL0     C48247   1.279   0.121   2.697  0.1754 -0.6584 -0.0934
  358MOL0     C48248   1.144   0.103   2.730 -0.1470  0.5811  0.6989
  358MOL0     C48249   0.759   0.139   2.952 -1.3658 -0.8868  0.2651
  358MOL0     C48250   0.707   0.066   2.853  1.0217 -0.1029 -0.2376
  358MOL0     C48251   0.569   0.043   2.843 -0.3212 -0.7567 -0.3419
  358MOL0     C48252   0.480   0.087   2.934 -0.3666  0.4956  0.5266
  358MOL0     O48253   0.356   0.048   2.909 -1.0681  0.1186  0.6149
  358MOL0     C48254   0.270   0.079   3.013  0.1982 -0.5200  0.5284
  358MOL0     C48255   0.142   0.009   2.992  0.3503 -0.2478 -0.7766
  358MOL0     C48256   0.058   0.054   2.876 -0.1718  0.7754  0.4414
  358MOL0     C48257  -0.030  -0.059   2.813  0.1744 -0.1848 -0.9256
  358MOL0     C48258  -0.131  -0.111   2.906 -0.6596 -0.1305 -0.7393
  358MOL0     C48259  -0.206  -0.158   2.996  0.1840 -0.8868 -0.0175
  358MOL0     C48260   0.525   0.176   3.036 -0.6750 -0.0833 -0.5968
  358MOL0     C48261   0.664   0.198   3.043  0.4807  0.8921  0.4041
  358MOL0     C48262   0.695   0.261   3.181 -0.0083 -0.1326 -0.4797
  358MOL0     H48263   1.184   0.120   3.079 -1.1237 -0.3599  0.4541
  358MOL0     H48264   1.418   0.158   3.001  0.4779 -0.1104  0.2284
  358MOL0     H48265   1.545   0.310   2.906  0.9937  1.6986 -0.6712
  358MOL0     H48266   1.657   0.172   2.870 -0.6104 -0.7078 -0.4991
  358MOL0     H48267   1.737   0.288   2.673 -0.7652 -0.4011  0.9154
  358MOL0     H48268   1.774   0.345   2.830 -0.6695 -0.7167 -0.5926
  358MOL0     H48269   1.541   0.462   2.659 -0.3517  0.7635 -0.2182
  358MOL0     H48270   1.714   0.501   2.620 -1.0765 -0.9768 -1.5078
  358MOL0     H48271   1.595   0.668   2.746  1.9348  0.0580 -2.5699
  358MOL0     H48272   1.561   0.567   2.887  1.0058  2.8540  0.4276
  358MOL0     H48273   1.807   0.542   2.928 -0.3569  0.3027  0.3843
  358MOL0     H48274   1.837   0.634   2.787  2.4151  1.2561  1.4096
  358MOL0     H48275   1.708   0.826   2.890  3.6288 -0.4467 -1.2273
  358MOL0     H48276   1.673   0.705   3.012 -0.9984 -1.6214 -2.4323
  358MOL0     H48277   1.901   0.703   3.094 -0.6956 -2.2104 -2.3611
  358MOL0     H48278   1.837   0.873   3.099 -1.2887  0.1842 -1.0580
  358MOL0     H48279   2.047   0.762   2.905  2.9774  1.0937 -0.2528
  358MOL0     H48280   1.976   0.925   2.898 -4.7213  2.0013  3.9576
  358MOL0     H48281   2.093   1.103   3.014  0.7462  1.9870  1.2558
  358MOL0     H48282   2.260   1.222   3.209 -0.4628 -1.5374  0.3339
  358MOL0     H48283   2.405   1.119   3.241 -0.9472  1.2077  2.4927
  358MOL0     H48284   2.467   1.123   3.015  0.3896 -0.7946  1.0014
  358MOL0     H48285   2.310   1.181   2.960 -0.1401  0.2392  0.5743
  358MOL0     H48286   2.349   1.404   3.064 -0.6574 -0.6437  0.4561
  358MOL0     H48287   2.461   1.372   2.938  1.2932 -1.7168 -0.0626
  358MOL0     H48288   2.504   1.368   3.249 -1.1827 -3.3188 -1.2326
  358MOL0     H48289   2.586   1.478   3.140  1.5613 -0.0421 -1.9681
  358MOL0     H48290   2.670   1.366   3.397 -2.0901 -0.4340 -1.1704
  358MOL0     H48291   2.699   1.190   3.598  0.9199  2.2246 -0.9153
  358MOL0     H48292   2.500   0.802   3.688  1.3983  0.1399  1.8630
  358MOL0     H48293   2.449   0.621   3.864  0.4792 -0.9087  0.9977
  358MOL0     H48294   2.385   0.419   3.922 -3.5926  0.4315 -5.7200
  358MOL0     H48295   2.430   0.323   3.789  1.4417 -0.9481  0.0627
  358MOL0     H48296   2.547   0.159   3.951  0.1430  0.1330 -1.8836
  358MOL0     H48297   2.466   0.261   4.082 -0.2051  2.6425 -0.6627
  358MOL0     H48298   2.242   0.179   3.976 -1.0157 -3.0865 -0.5633
  358MOL0     H48299   2.342   0.094   3.870 -1.2497  1.3320 -0.1462
  358MOL0     H48300   2.310   0.046   4.170  1.7872  1.3358  0.5266
  358MOL0     H48301   2.432  -0.038   4.068 -1.6147 -1.0784 -1.0053
  358MOL0     H48302   2.261  -0.180   4.107  0.6820 -0.9850 -1.8190
  358MOL0     H48303   2.262  -0.133   3.932  0.6495 -0.7317 -0.1070
  358MOL0     H48304   2.072  -0.023   4.143  1.7753  0.0136  0.1798
  358MOL0     H48305   2.071   0.010   3.961 -3.6606 -2.4882 -2.4477
  358MOL0     H48306   1.989  -0.248   4.101  1.1217  0.2927  0.5501
  358MOL0     H48307   2.031  -0.236   3.928  0.1983 -1.9502  1.5082
  358MOL0     H48308   1.851  -0.104   3.879 -0.6114  1.0301  0.2275
  358MOL0     H48309   1.785  -0.236   3.982 -3.6428  2.4829  1.2336
  358MOL0     H48310   2.806   0.427   3.738  1.0978  0.6742 -1.9090
  358MOL0     H48311   2.841   0.609   3.567 -1.0918 -0.1818 -1.8276
  358MOL0     H48312   2.781   0.891   3.280 -0.9197 -0.1906 -0.8771
  358MOL0     H48313   2.755   1.062   3.116  1.1916 -1.7438  0.7921
  358MOL0     H48314   1.304   0.131   2.592 -1.7350  1.3125 -0.4249
  358MOL0     H48315   1.065   0.095   2.657 -1.5155  1.5268  2.0154
  358MOL0     H48316   0.769   0.023   2.774 -0.1957 -0.7428 -0.8816
  358MOL0     H48317   0.534  -0.017   2.760  0.7973  0.8064 -1.9964
  358MOL0     H48318   0.250   0.186   3.022  2.1336 -0.2023  1.5500
  358MOL0     H48319   0.316   0.056   3.110  1.1521  2.5501  0.9342
  358MOL0     H48320   0.080   0.017   3.082  1.2625 -0.0746 -0.1477
  358MOL0     H48321   0.169  -0.097   2.984  1.0650 -0.0639 -0.8847
  358MOL0     H48322   0.120   0.084   2.791 -1.2969 -2.2393 -1.6199
  358MOL0     H48323  -0.003   0.144   2.888  0.2773  2.1110 -4.6757
  358MOL0     H48324  -0.089  -0.015   2.732 -1.2164 -0.7233 -0.2301
  358MOL0     H48325   0.036  -0.137   2.774  5.8364  3.8368 -0.6619
  358MOL0     H48326  -0.286  -0.178   3.065 -0.4149 -0.8191 -0.6758
  358MOL0     H48327   0.457   0.227   3.104 -1.5792  0.4753 -1.8719
  358MOL0     H48328   0.730   0.361   3.152  1.4968 -0.6097 -0.4349
  358MOL0     H48329   0.600   0.274   3.232 -0.1829  0.0974 -0.8547
  358MOL0     H48330   0.776   0.222   3.244 -1.6039  1.0827  2.5138
  359MOL0     O48331   3.636   9.197   5.710 -0.4717 -0.1852  0.0425
  359MOL0     C48332   3.664   9.081   5.693 -0.1489  0.2380 -0.2140
  359MOL0     O48333   3.795   9.035   5.685  0.0362  0.2616 -0.6184
  359MOL0     C48334   3.892   9.133   5.706  0.1505 -0.3281 -0.2162
  359MOL0     C48335   3.940   9.166   5.832  0.0367  0.2567 -0.3256
  359MOL0     C48336   4.044   9.255   5.839  0.6361  0.1078  0.9655
  359MOL0     C48337   4.100   9.321   5.727 -0.6250  0.1051 -0.5445
  359MOL0     O48338   4.209   9.407   5.763  0.0254 -0.6819 -0.1131
  359MOL0     C48339   4.274   9.480   5.661 -0.0381  0.0945  0.7551
  359MOL0     C48340   4.183   9.604   5.630  0.4457  0.5750  0.0019
  359MOL0     C48341   4.219   9.726   5.702 -0.9100  0.1266  0.3475
  359MOL0     C48342   4.351   9.785   5.635  0.1468 -0.0570 -0.9337
  359MOL0     C48343   4.398   9.915   5.702  0.1596 -0.0827  0.3556
  359MOL0     C48344   4.321  10.041   5.649 -0.5140  0.6406  0.1898
  359MOL0     C48345   4.401  10.166   5.704  0.6047 -0.0163 -0.1921
  359MOL0     C48346   4.511  10.211   5.606 -0.6185 -1.2250 -0.2115
  359MOL0     N48347   4.546  10.357   5.642  0.1505  0.2146  0.2144
  359MOL0     C48348   4.665  10.380   5.712  0.2004 -0.4929  0.5119
  359MOL0     C48349   4.660  10.507   5.745  0.6327 -0.0985  0.6040
  359MOL0     C48350   4.758  10.590   5.819  0.9211 -0.0902 -1.0833
  359MOL0     C48351   4.888  10.513   5.852 -0.3363  0.1806  0.9809
  359MOL0     C48352   5.006  10.602   5.840 -0.5865 -0.0310  0.6492
  359MOL0     C48353   5.132  10.528   5.883  0.1971 -0.5257 -0.2967
  359MOL0     O48354   5.254  10.611   5.897  0.2892 -0.4618  0.2918
  359MOL0     C48355   5.367  10.544   5.933  0.8627 -0.1045 -0.4046
  359MOL0     C48356   5.374  10.411   5.970  0.0153 -0.3697 -0.0982
  359MOL0     C48357   5.499  10.354   6.001  0.0877 -0.6216  0.1619
  359MOL0     C48358   5.625  10.425   5.985  0.2144  1.0504 -0.2541
  359MOL0     C48359   5.743  10.355   6.039 -1.2207  0.4586 -0.2353
  359MOL0     O48360   5.765  10.232   5.995 -0.6673  0.5534 -0.0786
  359MOL0     C48361   5.888  10.175   6.007  0.4393  1.2339  0.2919
  359MOL0     C48362   6.012  10.248   6.006 -0.6113  0.1064 -0.2300
  359MOL0     C48363   6.133  10.180   6.005 -0.9474  0.0227  1.2959
  359MOL0     C48364   6.132  10.042   6.029  0.4402 -0.0373  0.7517
  359MOL0     O48365   6.247   9.976   6.043 -0.7951 -0.5816  0.3654
  359MOL0     C48366   6.332   9.986   5.931 -0.4829 -0.0901  0.8365
  359MOL0     C48367   6.440   9.881   5.952  1.0759  0.1045  0.2498
  359MOL0     C48368   6.529   9.863   5.837 -0.3215 -0.3364  0.4590
  359MOL0     C48369   6.466   9.822   5.704  0.1830  0.2954 -0.3951
  359MOL0     C48370   6.445   9.668   5.687 -0.3259  1.1040 -0.1191
  359MOL0     C48371   6.366   9.628   5.554  0.3793 -1.1934 -0.1750
  359MOL0     C48372   6.388   9.476   5.533  0.7678 -0.2322 -0.5466
  359MOL0     C48373   6.317   9.432   5.400 -0.5609 -0.0970  0.8002
  359MOL0    Cl48374   6.416   9.476   5.268 -0.0852 -0.1819  0.1017
  359MOL0     C48375   6.012   9.975   6.038  0.2393  0.4959 -0.7579
  359MOL0     C48376   5.896  10.038   6.015 -0.4530  0.9599  0.4458
  359MOL0     O48377   5.814  10.414   6.121 -0.3862 -0.8855 -0.0686
  359MOL0     C48378   5.613  10.554   5.942  0.0977  0.0829 -0.0267
  359MOL0     C48379   5.488  10.617   5.923  1.0751 -0.4210 -0.4866
  359MOL0     N48380   4.528  10.549   5.731 -0.6274  0.0319  0.4571
  359MOL0     N48381   4.464  10.463   5.667 -0.3765  0.1468  0.1654
  359MOL0     C48382   4.066   9.272   5.608 -0.0838 -0.3128  0.5848
  359MOL0     C48383   3.959   9.173   5.592 -0.3726  0.4409  0.3053
  359MOL0     C48384   3.553   8.989   5.696  1.0456 -0.5631 -0.1653
  359MOL0     C48385   3.437   9.033   5.631  0.2975 -0.7596 -0.4511
  359MOL0     C48386   3.328   8.951   5.629 -0.2076  0.8704  0.4658
  359MOL0     C48387   3.319   8.830   5.691 -0.3096 -0.0545  0.1718
  359MOL0     O48388   3.213   8.749   5.708  1.0081 -0.5613 -0.1404
  359MOL0     C48389   3.084   8.805   5.678  1.3257  0.0686  0.0567
  359MOL0     C48390   2.975   8.694   5.726  0.1806  0.2835  0.3665
  359MOL0     C48391   2.832   8.739   5.744 -0.1489  0.4609 -0.0810
  359MOL0     C48392   2.770   8.801   5.624 -0.3061 -0.3867 -0.3895
  359MOL0     C48393   2.784   8.726   5.505  0.1769  0.1508 -0.7011
  359MOL0     C48394   2.773   8.669   5.395 -0.3675 -1.3039 -1.1628
  359MOL0     C48395   3.439   8.778   5.736  0.3948 -0.0164  0.4041
  359MOL0     C48396   3.555   8.856   5.746  1.4086  0.6560 -1.1202
  359MOL0     C48397   3.670   8.774   5.805  0.2530  0.0577 -0.5475
  359MOL0     H48398   3.889   9.150   5.926 -0.8878  2.2149 -0.4313
  359MOL0     H48399   4.094   9.291   5.929  1.7402  2.6245 -0.5576
  359MOL0     H48400   4.374   9.507   5.696  0.8659 -2.4630  0.3499
  359MOL0     H48401   4.289   9.427   5.566 -3.7132  1.0452 -0.5254
  359MOL0     H48402   4.077   9.577   5.638  0.3139  0.8943 -0.5926
  359MOL0     H48403   4.192   9.632   5.525 -1.4305  3.6804  0.5202
  359MOL0     H48404   4.235   9.707   5.809  2.7490  0.5453 -0.0147
  359MOL0     H48405   4.142   9.802   5.690  0.3623  1.0529 -3.0155
  359MOL0     H48406   4.429   9.715   5.664 -0.5469  1.0193  4.5811
  359MOL0     H48407   4.352   9.809   5.528  0.0375  1.1917 -0.6724
  359MOL0     H48408   4.383   9.902   5.810 -1.1501 -1.2780  0.0612
  359MOL0     H48409   4.504   9.929   5.681 -0.0634  0.1439 -0.6780
  359MOL0     H48410   4.320  10.034   5.540 -0.1027 -0.7823  0.2545
  359MOL0     H48411   4.218  10.037   5.685 -0.1529 -3.7286  1.2855
  359MOL0     H48412   4.436  10.141   5.805  1.5265 -1.1917 -0.7782
  359MOL0     H48413   4.333  10.250   5.719 -1.7241 -1.7234 -0.6197
  359MOL0     H48414   4.603  10.156   5.630 -0.8111 -0.3972  2.8646
  359MOL0     H48415   4.480  10.192   5.503 -0.5563 -0.7159 -0.3281
  359MOL0     H48416   4.746  10.310   5.726  0.8579 -0.3624 -2.0660
  359MOL0     H48417   4.787  10.664   5.744  0.8447  1.0516 -0.0085
  359MOL0     H48418   4.721  10.650   5.903 -2.4464 -1.4127 -1.4781
  359MOL0     H48419   4.886  10.474   5.954  1.7267 -0.5814  0.7675
  359MOL0     H48420   4.899  10.428   5.783 -2.3134  2.0857 -1.9164
  359MOL0     H48421   4.985  10.688   5.905 -1.2969 -0.0205  0.4146
  359MOL0     H48422   5.012  10.638   5.737 -4.7213  0.7610  0.5368
  359MOL0     H48423   5.162  10.449   5.813 -0.2313 -3.1074  2.2359
  359MOL0     H48424   5.114  10.486   5.982 -0.5918  2.7388  1.0703
  359MOL0     H48425   5.289  10.345   5.976 -0.7336  0.5002 -0.9346
  359MOL0     H48426   5.510  10.255   6.044 -0.1995 -0.5230  0.4671
  359MOL0     H48427   6.019  10.356   5.995 -3.9478  0.5702  1.0361
  359MOL0     H48428   6.228  10.232   6.007 -0.7006 -0.3723  0.3888
  359MOL0     H48429   6.278   9.977   5.836  4.6847 -0.7715 -2.4302
  359MOL0     H48430   6.385  10.082   5.926  1.9325 -1.3918 -0.7398
  359MOL0     H48431   6.506   9.916   6.032 -0.2394 -0.1079  1.4716
  359MOL0     H48432   6.393   9.787   5.982  0.3666 -0.6764 -2.9215
  359MOL0     H48433   6.590   9.953   5.830 -1.4530  0.4787  0.7795
  359MOL0     H48434   6.588   9.778   5.870 -0.3768 -1.4308 -1.9902
  359MOL0     H48435   6.529   9.861   5.623 -0.6876 -0.5179 -1.4936
  359MOL0     H48436   6.363   9.850   5.681 -0.1569 -0.4346  0.2084
  359MOL0     H48437   6.391   9.623   5.771  0.7924 -3.3169 -1.5204
  359MOL0     H48438   6.544   9.624   5.686 -1.5814 -1.9470 -1.4882
  359MOL0     H48439   6.261   9.656   5.567  1.3609  4.2184 -1.4371
  359MOL0     H48440   6.405   9.678   5.465  0.3962  0.1423  0.5482
  359MOL0     H48441   6.338   9.426   5.617  0.9640  2.1196  1.0541
  359MOL0     H48442   6.493   9.446   5.532  0.8897  0.1861 -2.1926
  359MOL0     H48443   6.310   9.323   5.406 -1.0547 -0.0255  1.7134
  359MOL0     H48444   6.215   9.469   5.392 -1.0703 -1.4138  0.8670
  359MOL0     H48445   6.014   9.869   6.058 -1.5791  0.2026 -1.9091
  359MOL0     H48446   5.806   9.983   5.990  0.3535  0.3807 -1.4044
  359MOL0     H48447   5.700  10.618   5.934 -0.2186  1.2576  3.7313
  359MOL0     H48448   5.469  10.722   5.901 -0.5795 -0.3743  0.9714
  359MOL0     H48449   4.116   9.295   5.514  0.5119 -1.5199  0.5776
  359MOL0     H48450   3.929   9.132   5.496  2.5614  0.9464 -0.9336
  359MOL0     H48451   3.434   9.132   5.586  2.7905 -0.6857 -0.5909
  359MOL0     H48452   3.239   8.985   5.577 -0.3957  0.8039  0.7456
  359MOL0     H48453   3.064   8.839   5.575  2.3404  0.6317  0.0382
  359MOL0     H48454   3.077   8.891   5.744 -0.5127 -0.8255  1.1083
  359MOL0     H48455   3.009   8.645   5.818  2.3724 -2.7417 -1.8214
  359MOL0     H48456   2.967   8.610   5.656  2.3679 -1.2771  1.8722
  359MOL0     H48457   2.829   8.821   5.816  2.5746  2.8901 -2.4731
  359MOL0     H48458   2.771   8.666   5.798  1.9271 -0.7683  0.6863
  359MOL0     H48459   2.665   8.795   5.654 -0.5497 -1.0997 -1.3361
  359MOL0     H48460   2.791   8.908   5.617 -1.3978  0.1429  2.8504
  359MOL0     H48461   2.754   8.628   5.298  0.4371 -1.9376 -1.0653
  359MOL0     H48462   3.439   8.684   5.791  2.4347  1.9896  4.2976
  359MOL0     H48463   3.760   8.835   5.821  1.6361 -2.0350 -0.0166
  359MOL0     H48464   3.631   8.739   5.901  1.5893  1.3460  0.5144
  359MOL0     H48465   3.691   8.688   5.740  0.4025 -1.0190  0.8798
  360MOL0     O48466   3.639   3.187   2.782  0.3724 -0.0771  0.3918
  360MOL0     C48467   3.564   3.276   2.749  0.6789 -0.3909  0.2683
  360MOL0     O48468   3.540   3.389   2.821  0.3369 -0.5751  0.5814
  360MOL0     C48469   3.617   3.420   2.929 -0.2880  0.5028  0.8083
  360MOL0     C48470   3.728   3.500   2.918 -0.5595 -0.2633  0.1635
  360MOL0     C48471   3.825   3.501   3.025  0.3184  0.6909  0.2521
  360MOL0     C48472   3.791   3.457   3.154 -0.3005  0.2700 -0.5334
  360MOL0     O48473   3.884   3.489   3.246  0.5525  0.1710 -0.1058
  360MOL0     C48474   3.857   3.445   3.380 -0.7632  0.5244 -0.2368
  360MOL0     C48475   3.972   3.473   3.473 -0.1340 -0.1207 -0.4573
  360MOL0     C48476   4.092   3.399   3.420  0.7106  0.4251  0.1230
  360MOL0     C48477   4.188   3.400   3.532  0.7937 -0.5827  0.0772
  360MOL0     C48478   4.318   3.353   3.480 -0.9508 -0.4925  1.0356
  360MOL0     C48479   4.424   3.370   3.591  0.3366  0.4862 -0.6674
  360MOL0     C48480   4.569   3.349   3.550 -0.1716 -0.9091 -0.2200
  360MOL0     C48481   4.628   3.478   3.476  1.1001 -0.4162 -0.9019
  360MOL0     N48482   4.767   3.481   3.437  0.4838  0.2575 -0.2281
  360MOL0     C48483   4.869   3.472   3.527  0.5509 -0.6927  0.6884
  360MOL0     C48484   4.977   3.451   3.450  0.2267 -0.2772  0.8241
  360MOL0     C48485   5.118   3.417   3.495  0.6349  0.1776  0.1750
  360MOL0     C48486   5.126   3.269   3.526 -0.5724  0.0742 -0.2584
  360MOL0     C48487   5.273   3.209   3.517 -0.2172  0.3851 -0.2040
  360MOL0     C48488   5.340   3.195   3.370 -0.6020  0.0732 -0.2368
  360MOL0     O48489   5.469   3.119   3.376  0.1944  0.0465 -0.6374
  360MOL0     C48490   5.563   3.179   3.454  0.5782 -0.4824  0.9142
  360MOL0     C48491   5.623   3.130   3.560  0.3677  2.1998 -0.2157
  360MOL0     C48492   5.747   3.171   3.602  0.2320  0.7606 -0.7074
  360MOL0     C48493   5.796   3.297   3.552 -0.2910  0.5953  0.1006
  360MOL0     C48494   5.905   3.371   3.621  0.1337  1.5016 -0.8722
  360MOL0     O48495   5.958   3.309   3.732  0.3432  0.6050 -0.3785
  360MOL0     C48496   6.062   3.370   3.792 -0.8942  0.1970 -0.5783
  360MOL0     C48497   6.078   3.392   3.935 -0.0258 -0.0227  0.0121
  360MOL0     C48498   6.194   3.441   3.981 -0.2918  1.3823  0.0675
  360MOL0     C48499   6.297   3.483   3.899  0.2157 -0.4215  0.3018
  360MOL0     O48500   6.413   3.534   3.941  0.6226 -0.1530  0.0599
  360MOL0     C48501   6.454   3.506   4.078 -0.5398  0.0375 -0.5392
  360MOL0     C48502   6.598   3.561   4.103  0.8657 -0.7621 -0.0331
  360MOL0     C48503   6.656   3.505   4.236 -0.3150 -0.9667 -0.3953
  360MOL0     C48504   6.661   3.341   4.244  0.0484  0.0450  0.8684
  360MOL0     C48505   6.777   3.288   4.337 -0.8972  0.0860 -0.4259
  360MOL0     C48506   6.760   3.316   4.484  1.5350  0.5823 -0.7402
  360MOL0     C48507   6.888   3.315   4.560 -1.1055  0.5783 -0.5247
  360MOL0     C48508   6.889   3.209   4.662  0.4940  0.6519 -0.3265
  360MOL0    Cl48509   6.797   3.275   4.807 -0.3534 -0.2079  0.0293
  360MOL0     C48510   6.286   3.464   3.764 -0.0119 -0.3319  0.3008
  360MOL0     C48511   6.171   3.400   3.711 -0.7632 -0.2542  0.1318
  360MOL0     O48512   5.915   3.485   3.590 -0.8462  0.0686 -0.0422
  360MOL0     C48513   5.722   3.352   3.445 -0.6763 -1.4517 -0.5715
  360MOL0     C48514   5.610   3.289   3.393 -0.1403 -0.2679  0.7415
  360MOL0     N48515   4.936   3.426   3.318 -0.3235 -0.1420  0.9419
  360MOL0     N48516   4.806   3.458   3.307 -0.7323  0.4894 -0.7168
  360MOL0     C48517   3.670   3.383   3.173  0.0806 -0.7148  0.0261
  360MOL0     C48518   3.587   3.356   3.060 -0.3543  0.1999  0.4331
  360MOL0     C48519   3.499   3.282   2.610 -0.1184  0.3189 -0.7522
  360MOL0     C48520   3.463   3.411   2.550 -0.5709  0.4949  0.3513
  360MOL0     C48521   3.401   3.407   2.422 -0.2905 -0.9306 -0.0974
  360MOL0     C48522   3.373   3.283   2.354  0.8915  0.0786  0.5004
  360MOL0     O48523   3.295   3.296   2.241 -0.3976 -0.3820 -0.8743
  360MOL0     C48524   3.308   3.197   2.142  0.4483  0.4196 -0.8899
  360MOL0     C48525   3.185   3.205   2.058 -0.1679 -0.6603  0.0526
  360MOL0     C48526   3.123   3.068   2.033  0.3131  1.3606 -0.1296
  360MOL0     C48527   2.990   3.068   1.956  0.3103  0.1750  0.4380
  360MOL0     C48528   2.888   3.139   2.021  0.5794  0.4475  0.2641
  360MOL0     C48529   2.804   3.211   2.070  0.3006 -0.4631  0.0572
  360MOL0     C48530   3.411   3.169   2.420  0.4373  0.2655 -0.0000
  360MOL0     C48531   3.466   3.158   2.549  0.2664  0.3120  0.3483
  360MOL0     C48532   3.479   3.012   2.598 -0.3361 -0.8058  0.8522
  360MOL0     H48533   3.762   3.535   2.820  0.9739 -1.8007  0.0921
  360MOL0     H48534   3.913   3.560   3.000  0.9868 -0.6696 -0.7547
  360MOL0     H48535   3.768   3.493   3.424  0.0433  2.1813 -0.3156
  360MOL0     H48536   3.845   3.337   3.382 -2.4621  0.6820  0.9845
  360MOL0     H48537   3.947   3.446   3.576  1.1864  1.1082  0.2153
  360MOL0     H48538   3.987   3.581   3.477 -0.8659  0.0529 -1.8484
  360MOL0     H48539   4.127   3.451   3.330 -1.8472  0.5579 -0.8608
  360MOL0     H48540   4.066   3.300   3.382 -1.8403  1.5397 -1.2477
  360MOL0     H48541   4.209   3.499   3.573  1.5960  0.3883 -2.4465
  360MOL0     H48542   4.148   3.336   3.612  0.9199 -1.0504 -0.2265
  360MOL0     H48543   4.314   3.255   3.432  2.9066  0.5095 -1.8834
  360MOL0     H48544   4.338   3.425   3.400 -2.5557 -0.9881  0.1559
  360MOL0     H48545   4.402   3.463   3.644 -0.7240  0.7742 -1.5634
  360MOL0     H48546   4.399   3.292   3.664 -0.9364  0.0623 -1.5168
  360MOL0     H48547   4.585   3.255   3.497 -1.9792 -4.0458  4.1824
  360MOL0     H48548   4.631   3.342   3.640  0.1816  1.6954 -0.1760
  360MOL0     H48549   4.567   3.495   3.387  2.5201 -0.2642 -1.8825
  360MOL0     H48550   4.603   3.570   3.531  2.7067  1.4262 -3.0412
  360MOL0     H48551   4.860   3.470   3.635 -2.4811 -0.0035  0.5409
  360MOL0     H48552   5.177   3.438   3.406  1.7565  0.4224  0.9591
  360MOL0     H48553   5.154   3.487   3.571 -0.7697  0.4545  0.6231
  360MOL0     H48554   5.078   3.257   3.624  1.1304  2.5046  0.9790
  360MOL0     H48555   5.076   3.211   3.448  0.5132 -0.0118 -0.9065
  360MOL0     H48556   5.266   3.114   3.570  1.6100 -0.1434 -0.8016
  360MOL0     H48557   5.336   3.272   3.582 -0.5271 -0.9597  1.4893
  360MOL0     H48558   5.347   3.292   3.319  0.2965  0.0427 -0.1843
  360MOL0     H48559   5.262   3.139   3.319 -0.6169  0.4356 -0.6177
  360MOL0     H48560   5.597   3.040   3.615  3.6611  2.4663  2.1402
  360MOL0     H48561   5.794   3.113   3.681 -0.8174 -2.0056 -1.9881
  360MOL0     H48562   5.994   3.362   3.998  1.4557 -2.7616  0.8200
  360MOL0     H48563   6.206   3.422   4.087 -0.9269  0.6126  0.0094
  360MOL0     H48564   6.392   3.574   4.137  0.2087  0.1184  0.1796
  360MOL0     H48565   6.443   3.399   4.097  2.3860 -0.1977  0.2926
  360MOL0     H48566   6.670   3.535   4.025  0.8371 -2.2226  0.3863
  360MOL0     H48567   6.592   3.670   4.113  1.5830 -0.7502  0.3140
  360MOL0     H48568   6.757   3.545   4.246 -0.2494 -0.8200 -1.4493
  360MOL0     H48569   6.596   3.545   4.318  1.0763 -0.7807  0.5546
  360MOL0     H48570   6.682   3.295   4.147  0.0593 -1.8797  1.7261
  360MOL0     H48571   6.562   3.306   4.275 -1.8756  5.5744  2.1633
  360MOL0     H48572   6.874   3.329   4.309 -0.7346 -0.3352 -0.4924
  360MOL0     H48573   6.784   3.181   4.316 -1.9625  0.2073 -1.4762
  360MOL0     H48574   6.699   3.406   4.495 -1.2269 -1.0960 -1.3465
  360MOL0     H48575   6.686   3.246   4.523 -1.5163  3.0994 -1.5910
  360MOL0     H48576   6.907   3.410   4.610 -0.0213 -1.9095  4.3544
  360MOL0     H48577   6.970   3.293   4.491 -1.0972 -1.8687  0.1533
  360MOL0     H48578   6.848   3.113   4.629  0.8175  0.0407  1.0147
  360MOL0     H48579   6.986   3.173   4.695 -0.1752 -0.6040  0.3338
  360MOL0     H48580   6.368   3.500   3.704 -0.8811  2.0545  0.4487
  360MOL0     H48581   6.179   3.401   3.603  3.8348  0.8938  0.2512
  360MOL0     H48582   5.748   3.447   3.400 -1.8204 -0.4800  0.7106
  360MOL0     H48583   5.562   3.329   3.304  1.3216 -0.2951 -0.0981
  360MOL0     H48584   3.645   3.337   3.268  0.3385  1.3922  1.1833
  360MOL0     H48585   3.503   3.291   3.082 -0.8139  0.3314 -0.8051
  360MOL0     H48586   3.486   3.509   2.592  0.6983  0.1076  0.6235
  360MOL0     H48587   3.369   3.497   2.369  3.3852 -0.1116 -1.2204
  360MOL0     H48588   3.323   3.098   2.185 -1.1943  0.8707  0.8377
  360MOL0     H48589   3.392   3.222   2.076  0.2063 -0.7461 -1.6638
  360MOL0     H48590   3.203   3.252   1.961  0.0508 -2.6324 -0.8976
  360MOL0     H48591   3.108   3.264   2.109  0.5970  1.5065 -1.1813
  360MOL0     H48592   3.113   3.016   2.128  0.0652  1.3327 -0.1698
  360MOL0     H48593   3.192   3.015   1.967  0.4846  2.4418 -0.8628
  360MOL0     H48594   2.996   3.117   1.859 -2.0392 -0.7042 -0.2245
  360MOL0     H48595   2.963   2.964   1.934  2.3912 -0.0686 -1.1928
  360MOL0     H48596   2.731   3.278   2.110  0.4198  0.7052 -1.5734
  360MOL0     H48597   3.379   3.075   2.376  1.8431  0.0977 -0.7105
  360MOL0     H48598   3.422   2.979   2.685  0.9861 -0.9335  1.6845
  360MOL0     H48599   3.449   2.940   2.521 -0.1538 -0.5270  0.5145
  360MOL0     H48600   3.585   3.006   2.624 -0.4871  0.3810  1.8687
  361MOL0     O48601   6.668   0.146   5.121 -0.1002 -0.8008  0.2792
  361MOL0     C48602   6.548   0.158   5.116  0.2685 -0.5504 -0.4670
  361MOL0     O48603   6.465   0.183   5.223 -0.6289 -0.5409 -0.2995
  361MOL0     C48604   6.525   0.187   5.345 -1.1115 -0.0652  0.7195
  361MOL0     C48605   6.611   0.293   5.381 -0.3470  0.3189 -0.0420
  361MOL0     C48606   6.657   0.296   5.512 -1.0402 -0.8497  0.6984
  361MOL0     C48607   6.625   0.209   5.613 -0.2143  1.0074  0.1264
  361MOL0     O48608   6.662   0.207   5.741 -0.6320 -0.0767  0.3231
  361MOL0     C48609   6.783   0.138   5.750  0.5566 -0.7263  0.6067
  361MOL0     C48610   6.830   0.124   5.894  0.2211  0.1139  0.4125
  361MOL0     C48611   6.710   0.070   5.981  0.3559  0.3871 -0.4897
  361MOL0     C48612   6.675  -0.072   5.945 -0.9570  0.3043 -0.2840
  361MOL0     C48613   6.564  -0.140   6.029 -0.3365 -0.4775 -0.4062
  361MOL0     C48614   6.419  -0.089   6.028  0.3204  0.0668 -0.1491
  361MOL0     C48615   6.368  -0.057   5.883  0.3339 -0.2258  0.8999
  361MOL0     C48616   6.212  -0.060   5.889 -1.0831 -0.6398 -0.7753
  361MOL0     N48617   6.140  -0.075   5.761 -0.4870 -0.0570  0.3394
  361MOL0     C48618   6.032  -0.003   5.706 -0.1919 -0.6109  0.1366
  361MOL0     C48619   6.014  -0.045   5.576 -0.4017 -0.7657  0.4668
  361MOL0     C48620   5.893  -0.008   5.489 -0.4388 -0.1075 -0.4045
  361MOL0     C48621   5.912  -0.032   5.338  0.8614 -0.2270 -0.5122
  361MOL0     C48622   6.026   0.027   5.269  0.0617 -0.1374 -0.1164
  361MOL0     C48623   6.039  -0.019   5.129  0.7797 -0.4517  1.1272
  361MOL0     O48624   5.908  -0.030   5.057  0.1801  1.3482 -0.5897
  361MOL0     C48625   5.905  -0.051   4.922  0.9641  0.3556  0.6752
  361MOL0     C48626   5.781  -0.096   4.874  1.2297  0.4457  0.0915
  361MOL0     C48627   5.757  -0.128   4.744 -0.4290  0.7377  0.5214
  361MOL0     C48628   5.860  -0.098   4.652 -0.0334 -1.3689 -0.0230
  361MOL0     C48629   5.840  -0.136   4.511 -0.3734  0.8560 -0.3807
  361MOL0     O48630   5.717  -0.189   4.474  0.4377  0.5738  0.4372
  361MOL0     C48631   5.675  -0.223   4.344 -0.1947  0.3394 -0.0538
  361MOL0     C48632   5.763  -0.261   4.243  0.2352  0.4826  0.3888
  361MOL0     C48633   5.717  -0.307   4.115  0.0641 -0.2666  0.3275
  361MOL0     C48634   5.575  -0.325   4.088 -0.7291  1.0343 -0.4123
  361MOL0     O48635   5.528  -0.361   3.968 -0.4990  0.8049  0.3398
  361MOL0     C48636   5.586  -0.476   3.889  1.0342 -0.1208  0.2548
  361MOL0     C48637   5.531  -0.461   3.748  0.4385  0.2154 -0.6824
  361MOL0     C48638   5.585  -0.564   3.652 -0.4087 -0.8791  0.2489
  361MOL0     C48639   5.510  -0.548   3.516  0.6889  0.0577  0.4280
  361MOL0     C48640   5.590  -0.590   3.397 -0.2324 -0.0443  1.6201
  361MOL0     C48641   5.526  -0.553   3.261 -0.1364 -0.4032 -0.4276
  361MOL0     C48642   5.531  -0.408   3.215  0.2390 -0.5674  0.3062
  361MOL0     C48643   5.568  -0.394   3.072  0.5646 -0.9415  0.3616
  361MOL0    Cl48644   5.439  -0.466   2.959 -0.0719 -0.2578  0.0764
  361MOL0     C48645   5.492  -0.282   4.195  0.5108  0.5488 -0.4712
  361MOL0     C48646   5.541  -0.241   4.315  0.3485 -0.5258  1.0512
  361MOL0     O48647   5.928  -0.125   4.431  0.0662 -0.7586  0.5097
  361MOL0     C48648   5.986  -0.047   4.695 -0.0976 -0.5082 -0.3519
  361MOL0     C48649   6.000  -0.023   4.829  0.1942 -1.3971  0.4467
  361MOL0     N48650   6.124  -0.129   5.554  0.6302 -0.3627  0.1721
  361MOL0     N48651   6.190  -0.153   5.659 -0.1035 -0.1256 -0.7205
  361MOL0     C48652   6.531   0.109   5.572  0.2946 -0.3710  0.2853
  361MOL0     C48653   6.484   0.106   5.443  0.0991  0.2310 -1.3478
  361MOL0     C48654   6.496   0.143   4.978 -0.1003  0.0981 -0.1768
  361MOL0     C48655   6.577   0.088   4.880  0.2473 -0.5308 -0.8658
  361MOL0     C48656   6.536   0.078   4.743 -0.6184 -0.0421 -0.1159
  361MOL0     C48657   6.398   0.098   4.713 -0.2411 -0.6622  0.0292
  361MOL0     O48658   6.337   0.078   4.587 -0.5148  0.0722 -0.3007
  361MOL0     C48659   6.421   0.101   4.473  0.1990  0.4098 -0.4621
  361MOL0     C48660   6.439   0.249   4.458  0.8026 -0.0970  0.1418
  361MOL0     C48661   6.311   0.333   4.442 -0.1607 -0.4552 -0.9712
  361MOL0     C48662   6.298   0.473   4.514  0.0397 -0.3265 -0.3675
  361MOL0     C48663   6.386   0.568   4.446 -0.5917 -0.9118 -0.5417
  361MOL0     C48664   6.476   0.633   4.389  0.0171  0.0089 -0.3995
  361MOL0     C48665   6.319   0.159   4.805 -1.3257 -0.4443  0.5449
  361MOL0     C48666   6.370   0.196   4.934 -0.4586 -0.2847 -0.0979
  361MOL0     C48667   6.285   0.272   5.037  0.1206 -1.1892  0.9838
  361MOL0     H48668   6.619   0.372   5.306 -1.7878  0.1972 -0.3416
  361MOL0     H48669   6.718   0.385   5.525  0.6709 -1.3053 -3.0211
  361MOL0     H48670   6.772   0.038   5.707  2.5990 -0.2258 -1.2416
  361MOL0     H48671   6.855   0.196   5.692 -2.4933  3.0268  0.1575
  361MOL0     H48672   6.865   0.222   5.931  0.6257 -0.6076  2.0486
  361MOL0     H48673   6.911   0.051   5.904  0.1051 -0.1516 -0.5692
  361MOL0     H48674   6.625   0.138   5.967  0.6814  0.8162 -0.3962
  361MOL0     H48675   6.756   0.073   6.080 -1.0842 -2.4108  0.3782
  361MOL0     H48676   6.631  -0.071   5.845 -0.2294 -2.8348 -0.7460
  361MOL0     H48677   6.760  -0.141   5.946 -1.0574  0.1700 -0.6278
  361MOL0     H48678   6.559  -0.242   5.990 -0.1507 -0.8552  0.5348
  361MOL0     H48679   6.597  -0.162   6.130 -0.4459  0.4228 -0.1665
  361MOL0     H48680   6.354  -0.172   6.058 -0.7508  1.1475  0.5844
  361MOL0     H48681   6.409  -0.003   6.094  0.3570 -0.4083  0.4896
  361MOL0     H48682   6.392  -0.125   5.801  1.2882  0.9184  0.1943
  361MOL0     H48683   6.406   0.042   5.854  0.0375 -0.2060  0.5729
  361MOL0     H48684   6.169  -0.128   5.964 -0.7601  0.7240  0.6837
  361MOL0     H48685   6.178   0.034   5.933 -1.1256  1.0239 -4.0893
  361MOL0     H48686   5.963   0.067   5.752  1.3705  1.5049 -0.5609
  361MOL0     H48687   5.805  -0.061   5.526 -1.3331  0.2881 -1.8655
  361MOL0     H48688   5.872   0.099   5.492 -1.5533 -0.2884 -1.1789
  361MOL0     H48689   5.932  -0.140   5.333 -1.8503 -0.8004 -0.5470
  361MOL0     H48690   5.815   0.002   5.299 -0.2656  0.2988  2.5361
  361MOL0     H48691   6.118   0.005   5.324 -1.0738  2.2236  3.0105
  361MOL0     H48692   6.011   0.135   5.271 -0.4625 -0.0956 -2.6801
  361MOL0     H48693   6.098  -0.109   5.108  1.0059  0.3424 -2.1779
  361MOL0     H48694   6.082   0.070   5.083 -0.2395  0.6366  2.1955
  361MOL0     H48695   5.700  -0.121   4.941  0.1884 -2.1338 -1.9508
  361MOL0     H48696   5.667  -0.180   4.714  1.2258 -2.2593  0.3520
  361MOL0     H48697   5.870  -0.260   4.259  0.0223  1.3460  2.0535
  361MOL0     H48698   5.793  -0.338   4.043 -0.4835  1.2988 -0.9858
  361MOL0     H48699   5.695  -0.475   3.892  1.2259 -0.1246 -2.9743
  361MOL0     H48700   5.554  -0.571   3.933 -0.1004  0.3392  0.4702
  361MOL0     H48701   5.422  -0.458   3.741  0.4153  0.7862 -0.2035
  361MOL0     H48702   5.568  -0.360   3.727 -1.0235  0.1535 -4.1113
  361MOL0     H48703   5.690  -0.536   3.640 -0.8713  1.8156  1.8562
  361MOL0     H48704   5.594  -0.662   3.700  2.5317 -0.8711 -0.1055
  361MOL0     H48705   5.481  -0.442   3.509 -0.5975 -0.0811  2.6253
  361MOL0     H48706   5.420  -0.609   3.512 -0.1182  1.2769 -1.1295
  361MOL0     H48707   5.625  -0.693   3.400  1.9462  0.2454 -3.5934
  361MOL0     H48708   5.676  -0.522   3.395 -1.7582  2.0108 -1.4062
  361MOL0     H48709   5.567  -0.621   3.185 -0.3706 -1.1147  0.0637
  361MOL0     H48710   5.421  -0.583   3.254 -0.3573  0.7461 -3.0328
  361MOL0     H48711   5.598  -0.353   3.281  0.7409  1.4342 -1.7840
  361MOL0     H48712   5.433  -0.365   3.237  0.9608  2.2003 -1.4635
  361MOL0     H48713   5.588  -0.289   3.046  1.6167 -1.3021 -0.3240
  361MOL0     H48714   5.665  -0.442   3.062  1.4260 -0.0392  3.4216
  361MOL0     H48715   5.386  -0.280   4.175  0.1264  1.3679  1.4059
  361MOL0     H48716   5.473  -0.215   4.395 -1.2907 -0.7658 -0.1991
  361MOL0     H48717   6.064  -0.026   4.623  2.7501 -0.7208  2.4733
  361MOL0     H48718   6.088   0.033   4.861  0.3509 -1.0630 -0.5144
  361MOL0     H48719   6.485   0.035   5.637  1.9446 -2.3847 -0.7328
  361MOL0     H48720   6.413   0.032   5.408  0.5092 -0.8109 -0.0868
  361MOL0     H48721   6.679   0.057   4.899  1.2351  2.1182 -1.3635
  361MOL0     H48722   6.608   0.039   4.672 -0.8738 -1.9930  0.6125
  361MOL0     H48723   6.366   0.063   4.387  1.5356  1.6377 -1.9353
  361MOL0     H48724   6.516   0.046   4.479 -0.2187 -0.3517 -0.6991
  361MOL0     H48725   6.516   0.277   4.385  2.4595 -0.6764  1.5963
  361MOL0     H48726   6.483   0.285   4.551  0.4311 -0.4940  0.4697
  361MOL0     H48727   6.233   0.268   4.482  0.6919 -0.5345  0.6272
  361MOL0     H48728   6.289   0.347   4.336 -1.3216  0.4896 -0.6231
  361MOL0     H48729   6.198   0.514   4.497 -0.7250 -1.8924  0.1193
  361MOL0     H48730   6.320   0.460   4.621  3.1378  0.4910 -0.8084
  361MOL0     H48731   6.563   0.678   4.347  0.4691 -1.8544 -1.5493
  361MOL0     H48732   6.222   0.186   4.765  0.0898 -0.4407 -3.3156
  361MOL0     H48733   6.347   0.361   5.054 -0.7860  0.0286 -1.5946
  361MOL0     H48734   6.184   0.291   5.000 -0.2395 -4.6522 -0.1391
  361MOL0     H48735   6.263   0.213   5.126 -0.0126 -3.5821 -0.5423
  362MOL0     O48736   7.555   9.347  10.327 -0.3101  0.0446 -0.1926
  362MOL0     C48737   7.489   9.306  10.227 -1.2013 -0.8342 -0.2786
  362MOL0     O48738   7.531   9.213  10.142 -0.3092 -0.1182  0.2308
  362MOL0     C48739   7.667   9.192  10.139 -0.1305  0.3093  0.5472
  362MOL0     C48740   7.751   9.287  10.076 -0.3460  0.2944  0.0749
  362MOL0     C48741   7.891   9.265  10.078  0.1444 -0.3739  0.0959
  362MOL0     C48742   7.943   9.153  10.144 -0.5663  0.3345  0.3899
  362MOL0     O48743   8.076   9.121  10.131  0.2828 -0.1921 -0.4521
  362MOL0     C48744   8.178   9.219  10.113  0.5648  0.0321  1.0111
  362MOL0     C48745   8.301   9.156  10.107 -0.6150  1.5841 -0.5352
  362MOL0     C48746   8.421   9.259  10.097 -0.2167  0.3921  0.2083
  362MOL0     C48747   8.562   9.190  10.051  0.5949 -0.6381 -0.5871
  362MOL0     C48748   8.663   9.296  10.006 -0.0785  0.2728  0.4887
  362MOL0     C48749   8.797   9.251   9.971 -0.3419  0.1737 -0.1511
  362MOL0     C48750   8.813   9.142   9.866  0.1629 -0.3958 -0.1721
  362MOL0     C48751   8.744   9.167   9.739  0.1525  0.0139  0.0014
  362MOL0     N48752   8.789   9.286   9.666 -0.2186 -0.1642 -0.7299
  362MOL0     C48753   8.920   9.304   9.619 -0.0166 -0.3665 -0.6934
  362MOL0     C48754   8.914   9.426   9.553 -0.6589 -0.8233  0.0585
  362MOL0     C48755   9.014   9.485   9.454  0.0462  0.1024 -0.5319
  362MOL0     C48756   9.038   9.630   9.490 -0.3975  0.4725  0.2557
  362MOL0     C48757   9.119   9.683   9.373  0.7751  0.1425 -0.1039
  362MOL0     C48758   9.202   9.808   9.403  0.2599 -0.2194  1.1494
  362MOL0     O48759   9.122   9.929   9.449 -0.6684  0.4555  0.0571
  362MOL0     C48760   9.052   9.989   9.347 -0.1983  0.4386 -0.2095
  362MOL0     C48761   9.110  10.109   9.305  0.8320  0.2590  0.3529
  362MOL0     C48762   9.040  10.183   9.208 -0.6067 -0.2715  0.1857
  362MOL0     C48763   8.913  10.138   9.159  0.4968  0.1203  0.5779
  362MOL0     C48764   8.840  10.213   9.055 -0.8445  0.0214  0.5130
  362MOL0     O48765   8.905  10.333   9.020 -0.0847  0.8141  0.1538
  362MOL0     C48766   8.856  10.401   8.914  0.3374  0.0677  0.4038
  362MOL0     C48767   8.922  10.406   8.788 -0.2154 -0.5104  0.8894
  362MOL0     C48768   8.864  10.474   8.685 -0.3022 -0.1864  0.7564
  362MOL0     C48769   8.747  10.540   8.698 -0.1200 -0.3159 -0.0312
  362MOL0     O48770   8.690  10.599   8.592  0.9416 -0.0546 -0.7902
  362MOL0     C48771   8.632  10.724   8.602  0.5872  0.4688  0.5513
  362MOL0     C48772   8.736  10.825   8.645 -0.0842  0.1766 -0.1820
  362MOL0     C48773   8.828  10.858   8.527 -0.3419 -0.1125  0.8613
  362MOL0     C48774   8.928  10.967   8.569  0.1736  0.3704  0.6986
  362MOL0     C48775   9.051  10.924   8.645 -0.7605  1.3646 -0.6979
  362MOL0     C48776   9.145  10.831   8.559 -0.4958 -0.1398  0.0775
  362MOL0     C48777   9.277  10.795   8.640 -0.8590  0.4900  0.6412
  362MOL0     C48778   9.363  10.699   8.564  0.8110 -0.2768 -0.1303
  362MOL0    Cl48779   9.520  10.708   8.643  0.2888  0.0477  0.2252
  362MOL0     C48780   8.681  10.535   8.821  0.0765  0.1872  0.4684
  362MOL0     C48781   8.738  10.469   8.924  0.1441  0.0388  0.1572
  362MOL0     O48782   8.737  10.165   9.002 -0.1964  0.3925 -0.9820
  362MOL0     C48783   8.864  10.017   9.199 -0.2616  1.3115  0.1544
  362MOL0     C48784   8.930   9.937   9.290 -0.2650 -0.4355 -0.1446
  362MOL0     N48785   8.795   9.493   9.583 -0.3005  0.3333  0.6981
  362MOL0     N48786   8.722   9.405   9.647  0.9885  0.3446 -1.3874
  362MOL0     C48787   7.855   9.063  10.202 -0.5165  0.5189 -0.7742
  362MOL0     C48788   7.721   9.079  10.207  0.9501 -0.7275 -0.1270
  362MOL0     C48789   7.344   9.331  10.243 -0.1281  0.4610  0.0342
  362MOL0     C48790   7.260   9.229  10.202 -0.9369 -0.5078  0.1799
  362MOL0     C48791   7.127   9.225  10.219 -0.6956 -0.5826 -0.3210
  362MOL0     C48792   7.064   9.347  10.269  0.3120  0.3925 -0.0094
  362MOL0     O48793   6.925   9.345  10.267 -0.0536 -0.1391 -0.8357
  362MOL0     C48794   6.869   9.474  10.285  0.3535 -0.6817 -0.1611
  362MOL0     C48795   6.718   9.453  10.264 -0.0925 -0.0934 -0.0257
  362MOL0     C48796   6.641   9.584  10.262 -0.1520 -0.7650 -0.5412
  362MOL0     C48797   6.498   9.576  10.300 -0.6468  0.2983 -0.1174
  362MOL0     C48798   6.439   9.708  10.263 -0.1581  0.0061 -0.2256
  362MOL0     C48799   6.417   9.828  10.257 -0.9041 -0.5147  0.6071
  362MOL0     C48800   7.147   9.450  10.300  0.0289 -0.3238 -0.6899
  362MOL0     C48801   7.285   9.445  10.290 -0.1334 -0.2530 -1.0467
  362MOL0     C48802   7.372   9.561  10.343  0.4090 -0.3125  0.3553
  362MOL0     H48803   7.712   9.368  10.016 -0.0908  1.0020  0.8505
  362MOL0     H48804   7.955   9.330  10.019  0.4561  1.2626  2.0973
  362MOL0     H48805   8.162   9.274  10.019 -1.2238  1.6175  2.1719
  362MOL0     H48806   8.169   9.300  10.186 -0.9093  3.3247 -2.4978
  362MOL0     H48807   8.319   9.098  10.016  0.0289  1.8185 -0.5616
  362MOL0     H48808   8.317   9.095  10.196 -0.7165  1.6420 -0.4772
  362MOL0     H48809   8.427   9.301  10.197 -0.4792  1.8758 -0.3788
  362MOL0     H48810   8.394   9.334  10.022  0.3009  0.5752  0.2022
  362MOL0     H48811   8.594   9.117  10.125 -0.8037  0.8196  1.5562
  362MOL0     H48812   8.545   9.139   9.956  1.2277  0.3254 -1.2452
  362MOL0     H48813   8.627   9.352   9.919  1.9828 -0.6653 -1.0291
  362MOL0     H48814   8.666   9.371  10.086  0.6793  2.2760 -1.3122
  362MOL0     H48815   8.867   9.332   9.947 -0.0321 -0.3269 -0.9674
  362MOL0     H48816   8.837   9.216  10.067 -4.7413 -0.7970  1.5778
  362MOL0     H48817   8.776   9.053   9.919 -1.1445  0.0529 -0.3040
  362MOL0     H48818   8.919   9.118   9.854  0.2830 -1.1136  1.9361
  362MOL0     H48819   8.763   9.080   9.677 -5.3904 -0.2346 -1.8856
  362MOL0     H48820   8.635   9.169   9.744  0.0998  1.9422 -0.8359
  362MOL0     H48821   9.003   9.235   9.627  0.1159 -0.0822  0.4399
  362MOL0     H48822   9.106   9.425   9.461  0.1157 -0.0430 -2.3271
  362MOL0     H48823   8.964   9.472   9.358 -2.8884 -0.1078  0.9313
  362MOL0     H48824   8.942   9.680   9.503 -0.4252  0.7817 -1.0244
  362MOL0     H48825   9.087   9.634   9.588  2.5670 -1.0029 -1.0352
  362MOL0     H48826   9.057   9.716   9.290 -3.9106 -0.8379  2.6670
  362MOL0     H48827   9.197   9.608   9.353  1.2192 -0.1069  2.2648
  362MOL0     H48828   9.253   9.819   9.307 -2.1571 -0.1430 -0.1997
  362MOL0     H48829   9.282   9.776   9.471  1.9563  0.8876 -0.2368
  362MOL0     H48830   9.204  10.125   9.357 -0.9946 -0.4072  4.1867
  362MOL0     H48831   9.097  10.265   9.166  2.3094 -2.3849 -0.2971
  362MOL0     H48832   9.025  10.372   8.779  0.9327  3.0505 -1.2640
  362MOL0     H48833   8.910  10.483   8.587 -1.5647  3.1582  0.3133
  362MOL0     H48834   8.595  10.738   8.499  0.2382  0.4672  0.6752
  362MOL0     H48835   8.549  10.727   8.673  0.1793  0.1408  0.0989
  362MOL0     H48836   8.691  10.915   8.686 -0.3013 -0.9443  2.1736
  362MOL0     H48837   8.800  10.788   8.726  1.0879  0.4384 -0.9637
  362MOL0     H48838   8.882  10.773   8.484 -1.1645  1.3827 -3.5940
  362MOL0     H48839   8.765  10.888   8.443  3.0278  1.9832 -1.1729
  362MOL0     H48840   8.886  11.040   8.639  2.5415  1.0205  1.5320
  362MOL0     H48841   8.953  11.011   8.472  3.0828 -1.1772  0.6616
  362MOL0     H48842   9.025  10.878   8.741  1.1954  1.1573 -0.2071
  362MOL0     H48843   9.106  11.008   8.689  2.2031 -0.6926 -0.1018
  362MOL0     H48844   9.094  10.739   8.531  0.5127 -1.3805  2.0682
  362MOL0     H48845   9.158  10.886   8.465 -1.7691 -1.4631 -0.9103
  362MOL0     H48846   9.248  10.759   8.739 -1.7628 -0.3385  0.0958
  362MOL0     H48847   9.331  10.889   8.657  0.4916  0.3340 -2.1742
  362MOL0     H48848   9.332  10.595   8.570  3.5216 -1.2913 -1.7964
  362MOL0     H48849   9.377  10.733   8.461  0.1729 -1.1345 -0.5076
  362MOL0     H48850   8.589  10.590   8.834 -0.9906 -1.8069  1.8006
  362MOL0     H48851   8.689  10.477   9.021  1.4952  3.7587  0.7004
  362MOL0     H48852   8.777   9.981   9.144  1.2587 -1.1311 -0.8242
  362MOL0     H48853   8.888   9.845   9.328 -0.8092 -0.0753  0.1523
  362MOL0     H48854   7.903   8.983  10.258  0.3397  2.6962  1.8221
  362MOL0     H48855   7.648   9.017  10.258 -1.1092 -0.0995 -2.1181
  362MOL0     H48856   7.305   9.140  10.159  1.2617  0.6103  0.0165
  362MOL0     H48857   7.079   9.132  10.191  0.8418 -3.3066  4.8219
  362MOL0     H48858   6.911   9.536  10.205  0.7946 -0.2692  0.3843
  362MOL0     H48859   6.895   9.531  10.375  2.1033 -2.7198  0.7003
  362MOL0     H48860   6.684   9.370  10.326  0.8054 -0.2689  0.2553
  362MOL0     H48861   6.708   9.423  10.159 -3.0622 -3.1374  0.9562
  362MOL0     H48862   6.639   9.625  10.161 -0.4268  0.2334 -0.1412
  362MOL0     H48863   6.699   9.659  10.316 -0.3584 -0.7484 -0.3384
  362MOL0     H48864   6.456   9.497  10.238  0.2083 -1.0736  0.9957
  362MOL0     H48865   6.491   9.549  10.406 -0.2783 -0.2242 -0.2238
  362MOL0     H48866   6.404   9.934  10.253  0.6375 -0.3302 -0.6823
  362MOL0     H48867   7.112   9.542  10.346 -0.7879 -1.3492  0.8551
  362MOL0     H48868   7.301   9.642  10.357 -1.6794 -2.0583  0.3524
  362MOL0     H48869   7.433   9.537  10.431  2.1381  2.9019  0.1745
  362MOL0     H48870   7.433   9.602  10.261 -2.0841  0.4177 -1.2345
  363MOL0     O48871   3.074   3.358   9.617 -0.6018 -0.1497  0.3294
  363MOL0     C48872   2.980   3.409   9.674 -0.5592 -0.1069  0.0583
  363MOL0     O48873   2.982   3.506   9.773  0.8881  0.5656  0.3588
  363MOL0     C48874   3.099   3.556   9.815  0.0150 -0.9977  0.2836
  363MOL0     C48875   3.212   3.483   9.845 -0.3642 -0.4825  0.3412
  363MOL0     C48876   3.330   3.538   9.891  0.1007  0.6002  0.1317
  363MOL0     C48877   3.349   3.678   9.898  0.5869 -1.1432  0.0557
  363MOL0     O48878   3.460   3.736   9.931 -0.5359  0.9237 -0.2611
  363MOL0     C48879   3.565   3.691   9.847 -0.9887  0.0434 -0.6759
  363MOL0     C48880   3.671   3.799   9.824 -0.1238 -0.4634 -0.7483
  363MOL0     C48881   3.621   3.931   9.776 -0.3175  0.2746 -0.4182
  363MOL0     C48882   3.557   3.930   9.642 -0.9158  0.3484  0.0251
  363MOL0     C48883   3.504   4.062   9.594 -0.0241 -0.1537 -0.4651
  363MOL0     C48884   3.398   4.114   9.679  0.5242 -0.2010  0.0222
  363MOL0     C48885   3.339   4.246   9.627 -0.1026 -0.3623 -0.4191
  363MOL0     C48886   3.432   4.371   9.633  0.1691 -0.1800 -0.2550
  363MOL0     N48887   3.480   4.415   9.767 -0.7317 -0.1098 -0.6495
  363MOL0     C48888   3.609   4.420   9.809  0.1700 -1.0869  1.3289
  363MOL0     C48889   3.606   4.459   9.942  0.8243  0.1576  0.0637
  363MOL0     C48890   3.734   4.477  10.016 -0.1970  0.2546  0.6325
  363MOL0     C48891   3.776   4.362  10.097  0.2787 -0.2473  0.3885
  363MOL0     C48892   3.801   4.227  10.025  0.2280  0.1512 -0.3997
  363MOL0     C48893   3.933   4.225   9.955 -0.4547  0.5130 -0.3564
  363MOL0     O48894   4.026   4.223  10.058 -0.6544 -0.1627 -0.7485
  363MOL0     C48895   4.159   4.270  10.035  0.7834 -0.1664  0.5091
  363MOL0     C48896   4.201   4.363   9.943  0.1086 -0.6018 -0.0813
  363MOL0     C48897   4.340   4.383   9.926 -0.3855  0.5389  0.8780
  363MOL0     C48898   4.436   4.318  10.008  0.5989 -0.5855 -0.3422
  363MOL0     C48899   4.585   4.336   9.989  0.0354  0.4104  0.9618
  363MOL0     O48900   4.656   4.268  10.072 -0.0753 -0.8702  0.4961
  363MOL0     C48901   4.792   4.259  10.060  0.1424  0.3297 -0.1321
  363MOL0     C48902   4.851   4.125  10.081  0.6296 -0.2536 -0.2089
  363MOL0     C48903   4.985   4.112  10.071  0.7141  0.1810  0.7213
  363MOL0     C48904   5.068   4.229  10.037 -0.6288  0.1269  0.1692
  363MOL0     O48905   5.201   4.207   9.992  0.1867 -0.0016  0.3882
  363MOL0     C48906   5.273   4.105  10.068 -0.0002  0.2794  0.3482
  363MOL0     C48907   5.416   4.109  10.008 -0.4550  0.2955  0.1060
  363MOL0     C48908   5.498   3.980  10.039  0.9104 -0.1321  0.0705
  363MOL0     C48909   5.646   4.002  10.027  0.2801 -0.4925  0.0352
  363MOL0     C48910   5.723   3.862  10.055 -0.0807 -0.2214 -0.3851
  363MOL0     C48911   5.871   3.894  10.080  0.0228 -0.4513  0.8813
  363MOL0     C48912   5.948   3.793  10.166 -0.6440 -0.4449 -0.6013
  363MOL0     C48913   6.088   3.849  10.179 -0.0608  0.1163  0.3171
  363MOL0    Cl48914   6.094   4.020  10.238  0.4327  0.1168 -0.2790
  363MOL0     C48915   5.009   4.355  10.011 -0.0444 -0.3706  0.5339
  363MOL0     C48916   4.868   4.367  10.032 -0.3686 -0.4101 -1.0595
  363MOL0     O48917   4.616   4.390   9.884 -0.1720  0.5884 -0.5859
  363MOL0     C48918   4.392   4.222  10.092  0.4040 -0.1492 -1.1061
  363MOL0     C48919   4.252   4.199  10.105 -0.0504  0.5473  0.1722
  363MOL0     N48920   3.470   4.478   9.983  0.0831  1.0468  0.5285
  363MOL0     N48921   3.404   4.443   9.880  0.0325  0.7966 -0.5145
  363MOL0     C48922   3.234   3.760   9.884 -0.9613  0.2669  0.3644
  363MOL0     C48923   3.112   3.698   9.847  0.3075  0.5225  0.7987
  363MOL0     C48924   2.847   3.360   9.648  0.9054 -0.9778  0.4914
  363MOL0     C48925   2.747   3.452   9.638  0.2850  0.7388 -0.4512
  363MOL0     C48926   2.619   3.406   9.603  0.2373 -0.0534  0.4706
  363MOL0     C48927   2.586   3.279   9.551 -0.0191  0.9658 -0.1777
  363MOL0     O48928   2.454   3.266   9.507  0.1506  0.0498  0.3565
  363MOL0     C48929   2.402   3.137   9.485 -0.6629 -0.3229  0.2392
  363MOL0     C48930   2.247   3.134   9.491  0.5525  0.3489 -0.0071
  363MOL0     C48931   2.178   3.202   9.366  0.5775  0.1816 -0.5320
  363MOL0     C48932   2.194   3.104   9.245  0.8846  0.3039  0.4768
  363MOL0     C48933   2.090   3.142   9.145 -0.0782 -0.5898 -0.3858
  363MOL0     C48934   2.019   3.184   9.058 -0.2796  0.5741 -0.3374
  363MOL0     C48935   2.687   3.191   9.552 -1.1896  0.8267  0.3479
  363MOL0     C48936   2.818   3.224   9.605  0.0333  0.0811  0.0152
  363MOL0     C48937   2.926   3.110   9.593  0.1106  0.9942  0.8977
  363MOL0     H48938   3.223   3.376   9.840 -2.3631 -0.7933  1.5218
  363MOL0     H48939   3.417   3.477   9.914 -1.2315 -1.4844 -0.1315
  363MOL0     H48940   3.621   3.615   9.902 -0.4948 -1.1244 -2.7095
  363MOL0     H48941   3.534   3.648   9.752  0.2361  2.8040 -2.4583
  363MOL0     H48942   3.739   3.765   9.745  2.2786  0.4076  0.8304
  363MOL0     H48943   3.727   3.819   9.915  0.0508  2.6834 -1.4400
  363MOL0     H48944   3.704   4.001   9.787  1.8538 -2.0707 -0.9319
  363MOL0     H48945   3.554   3.960   9.857  0.5136 -0.5921  0.6080
  363MOL0     H48946   3.636   3.899   9.573  1.0498  1.2588  1.7414
  363MOL0     H48947   3.475   3.859   9.630 -2.4898  2.3936 -2.2421
  363MOL0     H48948   3.591   4.129   9.603 -1.2404  1.3477  0.9050
  363MOL0     H48949   3.464   4.056   9.493 -1.1265 -1.5462  0.0254
  363MOL0     H48950   3.320   4.037   9.682 -0.4186  0.7462  1.2689
  363MOL0     H48951   3.429   4.130   9.783 -0.3056  2.6148 -0.0667
  363MOL0     H48952   3.252   4.270   9.688  0.9491 -0.2246  1.0720
  363MOL0     H48953   3.310   4.242   9.521 -0.5285  1.6882 -0.4291
  363MOL0     H48954   3.520   4.352   9.571  0.8345  2.1992 -0.1353
  363MOL0     H48955   3.382   4.461   9.594 -1.4724 -0.3606  1.3001
  363MOL0     H48956   3.691   4.383   9.748 -0.9467 -2.4304  0.5826
  363MOL0     H48957   3.815   4.500   9.947 -1.3884  1.4845 -0.4258
  363MOL0     H48958   3.716   4.556  10.090 -0.3520 -1.1399  2.1516
  363MOL0     H48959   3.868   4.393  10.149 -1.4115  1.1464  2.7431
  363MOL0     H48960   3.704   4.360  10.178 -0.6331  0.6340 -0.3688
  363MOL0     H48961   3.716   4.195   9.964 -1.2043  0.4148  1.3744
  363MOL0     H48962   3.801   4.150  10.103 -1.4354  0.1455 -0.3721
  363MOL0     H48963   3.952   4.299   9.876  3.1251  0.1872  0.0068
  363MOL0     H48964   3.947   4.128   9.907  0.7810 -0.3344  1.6243
  363MOL0     H48965   4.131   4.426   9.889  2.1778  2.9808  1.1056
  363MOL0     H48966   4.371   4.460   9.855 -1.6071  0.8801  0.6884
  363MOL0     H48967   4.782   4.046  10.107 -1.3094  1.0845 -1.0630
  363MOL0     H48968   5.022   4.010  10.067 -0.5441 -0.3413 -4.6811
  363MOL0     H48969   5.258   4.134  10.173 -0.6491 -2.6989  1.1725
  363MOL0     H48970   5.236   4.004  10.044  1.0305 -0.5865  2.1963
  363MOL0     H48971   5.413   4.119   9.899  2.9175 -1.5518 -0.2925
  363MOL0     H48972   5.469   4.199  10.040  2.0026 -0.9898 -0.1337
  363MOL0     H48973   5.483   3.962  10.146 -0.2709  5.1445  1.0513
  363MOL0     H48974   5.459   3.897   9.979 -0.3844  0.3258  0.2494
  363MOL0     H48975   5.667   4.087  10.092 -1.9343  0.0623  0.0873
  363MOL0     H48976   5.672   4.034   9.925  1.1897  1.2641  0.7784
  363MOL0     H48977   5.721   3.794   9.969  0.3741  0.2750 -0.7922
  363MOL0     H48978   5.681   3.815  10.145 -1.7801  1.3205 -0.3151
  363MOL0     H48979   5.920   3.891   9.982 -1.7715 -3.4920 -0.0749
  363MOL0     H48980   5.880   3.998  10.111 -1.4492  0.0090 -0.1363
  363MOL0     H48981   5.943   3.698  10.112 -0.3867 -0.9924  0.3274
  363MOL0     H48982   5.911   3.781  10.268  2.0457 -0.0507  0.5212
  363MOL0     H48983   6.146   3.788  10.248  2.2868 -0.0393 -1.6803
  363MOL0     H48984   6.133   3.846  10.080  0.1184 -2.0871  0.4191
  363MOL0     H48985   5.073   4.441   9.992 -2.1831  1.0842 -0.4254
  363MOL0     H48986   4.837   4.470  10.021  2.5460  0.3784 -3.0196
  363MOL0     H48987   4.471   4.171  10.146  0.8242  2.3102  0.8321
  363MOL0     H48988   4.211   4.114  10.158 -2.2658  1.3770 -0.0736
  363MOL0     H48989   3.257   3.866   9.893  2.5078 -0.3098 -0.2662
  363MOL0     H48990   3.031   3.770   9.834  0.7262  0.8024 -0.5112
  363MOL0     H48991   2.773   3.557   9.645  1.9881  0.4730 -1.9747
  363MOL0     H48992   2.537   3.476   9.592 -0.4189 -0.4055  2.6036
  363MOL0     H48993   2.449   3.064   9.552  2.9113  1.1292 -0.4581
  363MOL0     H48994   2.426   3.115   9.381 -0.0589  2.6665 -0.3631
  363MOL0     H48995   2.210   3.171   9.587  0.0597 -2.6962  1.1028
  363MOL0     H48996   2.223   3.027   9.493 -1.2725  0.7163 -0.7734
  363MOL0     H48997   2.217   3.301   9.342  0.1577  0.9215  1.6335
  363MOL0     H48998   2.074   3.217   9.396  0.8270  3.2805 -0.9767
  363MOL0     H48999   2.292   3.108   9.195 -1.1285 -0.8691 -4.0556
  363MOL0     H49000   2.172   3.002   9.274  0.8214  0.7515  2.0847
  363MOL0     H49001   1.955   3.212   8.976 -3.1730 -0.6093  1.3499
  363MOL0     H49002   2.677   3.094   9.504  1.7310  1.0894 -1.0418
  363MOL0     H49003   2.881   3.020   9.635  3.1792 -0.8547  0.5396
  363MOL0     H49004   2.939   3.074   9.490 -1.5523 -1.8344  1.5985
  363MOL0     H49005   3.023   3.125   9.640  1.5694 -2.7889 -0.5521
  364MOL0     O49006   8.541   8.079  11.122 -0.6611 -0.4666  0.1775
  364MOL0     C49007   8.585   8.078  11.232 -0.5466  0.8470 -0.3826
  364MOL0     O49008   8.709   8.085  11.272 -0.4839  0.3328  0.1204
  364MOL0     C49009   8.819   8.098  11.187  0.6102 -0.5195 -0.0373
  364MOL0     C49010   8.833   8.019  11.075 -0.0636  0.0593 -0.2805
  364MOL0     C49011   8.949   8.031  10.998 -0.0191 -0.2417 -0.1992
  364MOL0     C49012   9.047   8.126  11.039 -0.0880  0.1205 -0.7626
  364MOL0     O49013   9.163   8.135  10.962  0.3911 -0.2277  0.3605
  364MOL0     C49014   9.237   8.257  10.969 -0.5385  0.7040 -1.1356
  364MOL0     C49015   9.347   8.249  10.851  0.2389 -0.3501 -0.1495
  364MOL0     C49016   9.434   8.124  10.872 -0.1586 -0.4195  0.5772
  364MOL0     C49017   9.558   8.133  10.780  1.1613 -0.8281 -0.0892
  364MOL0     C49018   9.646   8.013  10.798 -0.2436 -0.4392  0.6948
  364MOL0     C49019   9.767   8.016  10.710 -0.5344  0.4716 -0.1593
  364MOL0     C49020   9.741   8.045  10.562  0.5456  1.1508  0.2371
  364MOL0     C49021   9.865   8.034  10.481  0.2025 -0.3364  0.0631
  364MOL0     N49022   9.965   8.126  10.538  0.3234  0.2365  0.1674
  364MOL0     C49023  10.103   8.097  10.539  0.4354  0.6937 -0.0748
  364MOL0     C49024  10.160   8.205  10.581 -0.8791  0.2864 -0.3487
  364MOL0     C49025  10.307   8.216  10.608  0.1707  0.5022  0.0815
  364MOL0     C49026  10.372   8.086  10.658 -0.1287 -0.2620 -0.6375
  364MOL0     C49027  10.518   8.108  10.667  0.4258 -0.2461  0.2541
  364MOL0     C49028  10.601   7.982  10.694  1.1681 -0.5409  0.3258
  364MOL0     O49029  10.698   8.014  10.795 -0.0487 -0.0467 -0.5157
  364MOL0     C49030  10.832   8.033  10.765  0.6252 -0.7281 -0.7907
  364MOL0     C49031  10.864   8.109  10.653 -0.3243 -0.0966 -0.0240
  364MOL0     C49032  11.001   8.136  10.622  0.2683  0.2403 -0.3708
  364MOL0     C49033  11.099   8.100  10.711  0.2549 -0.1031  0.2632
  364MOL0     C49034  11.241   8.141  10.688  0.9906  0.7026  0.2767
  364MOL0     O49035  11.331   8.092  10.776 -0.0451 -1.3189  0.0333
  364MOL0     C49036  11.454   8.144  10.772  0.2941 -0.0451  0.0168
  364MOL0     C49037  11.474   8.255  10.857  0.5019  0.3682 -0.1942
  364MOL0     C49038  11.590   8.333  10.857  0.0060  0.1735  0.1059
  364MOL0     C49039  11.690   8.297  10.772  0.3864 -0.5500 -0.3461
  364MOL0     O49040  11.812   8.370  10.765  0.6101 -0.0112 -0.5102
  364MOL0     C49041  11.802   8.506  10.810  0.3810  0.7768  0.4704
  364MOL0     C49042  11.918   8.583  10.768  0.4712 -0.3548 -0.3502
  364MOL0     C49043  11.921   8.604  10.610  0.6078 -0.1141  0.0214
  364MOL0     C49044  12.033   8.702  10.577 -0.3594 -0.1174  0.4708
  364MOL0     C49045  12.043   8.709  10.421 -0.6371  0.1896 -0.4068
  364MOL0     C49046  12.162   8.795  10.368  0.3980 -0.3944  0.2316
  364MOL0     C49047  12.173   8.787  10.214 -0.0285 -0.1092  0.3325
  364MOL0     C49048  12.283   8.877  10.154 -0.2215 -0.7982 -0.8448
  364MOL0    Cl49049  12.289   8.858   9.983 -0.4050 -0.1188 -0.2732
  364MOL0     C49050  11.679   8.181  10.699 -0.7975  0.5777 -1.0615
  364MOL0     C49051  11.564   8.098  10.700  0.2698  0.0126  0.1554
  364MOL0     O49052  11.262   8.219  10.594  0.4143  0.3117 -0.0834
  364MOL0     C49053  11.058   8.042  10.833 -0.4636  0.0834  0.1225
  364MOL0     C49054  10.930   7.991  10.855 -0.3982 -0.4859  0.1770
  364MOL0     N49055  10.073   8.306  10.605 -0.1206 -0.5295 -0.7804
  364MOL0     N49056   9.953   8.259  10.575 -1.1555  0.6145  0.0710
  364MOL0     C49057   9.021   8.214  11.150 -0.2885  0.9579 -0.6963
  364MOL0     C49058   8.908   8.200  11.216 -0.0506  0.8964 -0.3416
  364MOL0     C49059   8.484   8.042  11.340 -0.3732 -0.0491 -0.7958
  364MOL0     C49060   8.547   8.021  11.468  1.4350 -0.6179 -1.2921
  364MOL0     C49061   8.465   7.971  11.571  0.5078  0.8513  0.2654
  364MOL0     C49062   8.326   7.961  11.560 -0.2693 -0.2658 -0.1719
  364MOL0     O49063   8.248   7.948  11.675 -0.8750  0.4235  0.1987
  364MOL0     C49064   8.253   8.057  11.771  0.4418  0.0323 -0.4922
  364MOL0     C49065   8.131   8.049  11.871 -0.5099  0.5648 -0.4135
  364MOL0     C49066   8.007   8.080  11.784  0.9138 -0.0383 -0.1854
  364MOL0     C49067   7.882   8.066  11.869  0.7587 -0.2725 -0.5609
  364MOL0     C49068   7.752   8.050  11.800  0.1170  0.0941 -0.5391
  364MOL0     C49069   7.651   8.050  11.748  0.6777 -0.7702  0.6351
  364MOL0     C49070   8.263   7.986  11.444 -0.4414  0.2646  0.8007
  364MOL0     C49071   8.341   8.031  11.334 -0.7181 -0.3086  0.6362
  364MOL0     C49072   8.264   8.054  11.205  0.3384  0.2372  0.3845
  364MOL0     H49073   8.754   7.953  11.042 -0.7383 -0.2855  1.9013
  364MOL0     H49074   8.956   7.978  10.903 -0.1507  1.1166 -0.9956
  364MOL0     H49075   9.173   8.345  10.953  0.4834  1.1529 -3.1303
  364MOL0     H49076   9.288   8.266  11.065 -1.5290 -2.4546 -0.2039
  364MOL0     H49077   9.406   8.341  10.859  1.1675 -1.0773  2.0302
  364MOL0     H49078   9.301   8.241  10.752 -3.4057  0.0970  1.3681
  364MOL0     H49079   9.376   8.033  10.857  2.0668 -1.7736 -0.2230
  364MOL0     H49080   9.474   8.116  10.973  1.9932  2.4712  0.0759
  364MOL0     H49081   9.522   8.146  10.677 -1.1246  1.7418  0.9125
  364MOL0     H49082   9.608   8.226  10.805 -1.5030  1.2521 -1.9641
  364MOL0     H49083   9.685   8.028  10.899  0.2391 -0.0628  0.4568
  364MOL0     H49084   9.591   7.919  10.804 -1.6063  0.3935  1.8080
  364MOL0     H49085   9.831   8.096  10.750  0.2524 -1.0510  1.7886
  364MOL0     H49086   9.809   7.916  10.721 -0.2592  0.0856 -3.5573
  364MOL0     H49087   9.689   8.137  10.533 -0.2846  0.4513 -0.5831
  364MOL0     H49088   9.675   7.962  10.534 -0.2541  1.4542  1.1958
  364MOL0     H49089   9.905   7.932  10.484  3.4320  0.8152  1.3791
  364MOL0     H49090   9.835   8.057  10.379 -3.5660 -1.5188  0.7509
  364MOL0     H49091  10.148   7.999  10.524  0.3401  1.2109 -5.9679
  364MOL0     H49092  10.343   8.233  10.507 -2.2230  0.8956 -0.7787
  364MOL0     H49093  10.329   8.299  10.676  2.3658  0.8497 -0.9867
  364MOL0     H49094  10.337   8.063  10.759 -0.7491  0.6036 -0.6401
  364MOL0     H49095  10.359   8.011  10.578 -2.2379 -0.2676 -0.3363
  364MOL0     H49096  10.538   8.183  10.744 -1.2639 -1.7394  2.2792
  364MOL0     H49097  10.550   8.140  10.567 -3.4447  2.1217 -0.4307
  364MOL0     H49098  10.641   7.950  10.598 -2.2453 -0.3031 -1.3243
  364MOL0     H49099  10.542   7.896  10.727  1.6843 -0.7782  0.6341
  364MOL0     H49100  10.784   8.144  10.589  0.6949  2.3323 -0.0529
  364MOL0     H49101  11.021   8.187  10.529  2.3167 -2.2001 -1.3834
  364MOL0     H49102  11.396   8.281  10.928  0.5037  0.3444 -0.1826
  364MOL0     H49103  11.606   8.407  10.934  1.1778 -0.7890  0.8188
  364MOL0     H49104  11.714   8.560  10.775  0.3028  0.6690  0.5009
  364MOL0     H49105  11.804   8.501  10.919  1.1665 -2.1763  0.3889
  364MOL0     H49106  11.908   8.675  10.825  1.0105  0.0210 -0.8434
  364MOL0     H49107  12.004   8.530  10.808  0.1630 -1.2806 -0.8702
  364MOL0     H49108  11.944   8.505  10.570 -3.8315 -1.5445  0.4781
  364MOL0     H49109  11.819   8.620  10.574  0.0153 -3.1650  0.1213
  364MOL0     H49110  12.130   8.657  10.601  0.6345  0.7652 -1.6231
  364MOL0     H49111  12.020   8.802  10.619  0.8047  0.0767  0.4055
  364MOL0     H49112  11.949   8.743  10.377 -1.2031 -1.5082 -0.5524
  364MOL0     H49113  12.055   8.615  10.367  0.1112  1.0754 -1.8768
  364MOL0     H49114  12.133   8.899  10.384  0.7953  0.2685 -2.7050
  364MOL0     H49115  12.248   8.771  10.432  1.3178  1.4653 -0.2275
  364MOL0     H49116  12.082   8.834  10.177  0.5453  3.4540  2.9037
  364MOL0     H49117  12.175   8.680  10.192  0.3178 -0.1093  0.3530
  364MOL0     H49118  12.256   8.980  10.181 -2.5232 -1.2760 -1.1546
  364MOL0     H49119  12.379   8.847  10.198 -0.7904 -0.4897  0.6561
  364MOL0     H49120  11.768   8.154  10.644 -0.2975  0.1753 -0.0709
  364MOL0     H49121  11.560   8.012  10.633  1.4069  2.0545 -2.7142
  364MOL0     H49122  11.121   8.023  10.919  0.2021  2.5357  0.2530
  364MOL0     H49123  10.900   7.946  10.949  0.3668 -0.3203  0.5148
  364MOL0     H49124   9.083   8.296  11.184  0.2447  0.0596  0.5875
  364MOL0     H49125   8.882   8.268  11.296  2.1306 -1.2673  2.3884
  364MOL0     H49126   8.652   8.033  11.490  1.0337 -0.6712  0.7989
  364MOL0     H49127   8.512   7.970  11.669 -2.1847 -0.3814  1.6484
  364MOL0     H49128   8.249   8.156  11.725  3.0416  0.5257  0.1506
  364MOL0     H49129   8.346   8.057  11.830 -1.6302  1.5120  3.1013
  364MOL0     H49130   8.143   8.120  11.953 -0.2284 -1.9476  1.8588
  364MOL0     H49131   8.121   7.952  11.920  0.2812  1.1335  0.9395
  364MOL0     H49132   7.992   8.009  11.702 -0.0083 -1.7931  1.4157
  364MOL0     H49133   8.018   8.181  11.745  1.8016  0.8895  2.2801
  364MOL0     H49134   7.883   7.987  11.943 -0.6011 -1.1585 -1.4312
  364MOL0     H49135   7.871   8.159  11.926 -4.4104 -1.8287  1.5279
  364MOL0     H49136   7.558   8.050  11.694 -0.0932  1.6549  1.8401
  364MOL0     H49137   8.155   7.977  11.439 -0.2553 -4.2305  0.7599
  364MOL0     H49138   8.287   7.981  11.127 -0.7833 -1.7965  1.8580
  364MOL0     H49139   8.160   8.032  11.230 -1.0238  4.1154 -1.1181
  364MOL0     H49140   8.259   8.153  11.157 -1.5858 -0.4724 -1.0007
  365MOL0     O49141   6.587   8.345   6.421 -0.2083 -0.3193  0.0389
  365MOL0     C49142   6.684   8.358   6.340  0.1342  0.1162 -0.6838
  365MOL0     O49143   6.818   8.340   6.370 -0.3288  0.1234  0.3848
  365MOL0     C49144   6.855   8.312   6.497 -0.2713 -0.3722  0.0328
  365MOL0     C49145   6.909   8.411   6.577  0.9009  0.1072 -0.4315
  365MOL0     C49146   6.946   8.380   6.709 -0.1197  0.8797 -0.9244
  365MOL0     C49147   6.937   8.253   6.771 -0.6107 -0.0029  0.1297
  365MOL0     O49148   6.973   8.233   6.903 -0.3249 -1.1776  0.7703
  365MOL0     C49149   6.983   8.102   6.964 -0.5308  0.0684  1.1552
  365MOL0     C49150   6.972   8.104   7.117 -0.8173 -0.3540  0.1410
  365MOL0     C49151   7.000   7.968   7.183 -0.0301 -0.2535 -0.6803
  365MOL0     C49152   6.950   7.973   7.328  0.7945  0.3013 -0.1241
  365MOL0     C49153   6.941   7.831   7.383 -0.5275 -0.3475  0.1908
  365MOL0     C49154   6.873   7.824   7.516 -0.5728 -0.9330  0.3446
  365MOL0     C49155   6.806   7.696   7.554 -0.4177  0.2801 -0.8475
  365MOL0     C49156   6.732   7.701   7.694  0.2223 -0.2799 -0.1146
  365MOL0     N49157   6.605   7.772   7.693  1.1403 -0.8456  0.7950
  365MOL0     C49158   6.577   7.884   7.773 -0.6937  0.7324 -0.3533
  365MOL0     C49159   6.462   7.935   7.731 -0.8035 -0.4380 -0.4585
  365MOL0     C49160   6.406   8.063   7.794 -0.1348  0.0302  0.5909
  365MOL0     C49161   6.453   8.205   7.736 -0.0461 -0.2760  0.0690
  365MOL0     C49162   6.400   8.228   7.593 -0.3221  0.0401  0.1931
  365MOL0     C49163   6.458   8.345   7.528  0.0111 -0.1922 -0.2080
  365MOL0     O49164   6.582   8.308   7.470 -0.5282 -0.3467  0.4896
  365MOL0     C49165   6.634   8.388   7.367 -0.4128  0.9902  0.6459
  365MOL0     C49166   6.612   8.527   7.368 -0.9017  1.0610  0.7577
  365MOL0     C49167   6.682   8.612   7.286 -0.2650 -0.2266 -0.3207
  365MOL0     C49168   6.795   8.561   7.220  0.4658 -1.5391  0.1626
  365MOL0     C49169   6.871   8.653   7.132  0.1758  0.7257  0.5879
  365MOL0     O49170   6.994   8.622   7.076 -0.5102  0.0065  0.7552
  365MOL0     C49171   7.060   8.714   6.995  1.1223 -0.7318 -0.6180
  365MOL0     C49172   7.190   8.753   7.021  0.0668 -0.1628  0.0794
  365MOL0     C49173   7.250   8.864   6.959 -0.1441 -0.8046 -0.1477
  365MOL0     C49174   7.188   8.926   6.844 -0.2047  0.7631 -0.1594
  365MOL0     O49175   7.253   9.027   6.779  0.0507 -0.4086  0.3179
  365MOL0     C49176   7.269   9.144   6.873  0.9788 -0.4372 -0.1163
  365MOL0     C49177   7.136   9.212   6.924  0.7166 -0.9692 -0.0780
  365MOL0     C49178   7.064   9.275   6.795  0.2682 -0.3279 -0.1526
  365MOL0     C49179   6.921   9.327   6.817 -0.0187 -0.4276 -0.7227
  365MOL0     C49180   6.872   9.414   6.700  0.1738 -0.5820  0.9098
  365MOL0     C49181   6.927   9.563   6.696 -0.1953 -0.4507 -0.1432
  365MOL0     C49182   6.895   9.648   6.575 -0.3845  0.2723  0.6670
  365MOL0     C49183   6.990   9.765   6.549 -0.0901 -0.1374  0.3370
  365MOL0    Cl49184   6.981   9.886   6.691 -0.3319  0.5881 -0.1195
  365MOL0     C49185   7.069   8.871   6.799 -0.1354  0.3415 -0.7710
  365MOL0     C49186   7.003   8.768   6.874 -0.4825 -0.8587  0.0767
  365MOL0     O49187   6.828   8.768   7.128  0.2020 -0.2150  0.2489
  365MOL0     C49188   6.831   8.425   7.235  0.0190  0.5260  0.0937
  365MOL0     C49189   6.750   8.339   7.304 -1.1677 -0.8710 -0.0927
  365MOL0     N49190   6.410   7.846   7.640 -0.1402 -0.4994 -0.4042
  365MOL0     N49191   6.502   7.764   7.607  0.3864 -0.0394  0.6175
  365MOL0     C49192   6.870   8.158   6.690  0.1762 -0.1366 -0.0528
  365MOL0     C49193   6.829   8.188   6.561 -0.1830  0.4644 -0.1891
  365MOL0     C49194   6.663   8.408   6.203 -0.1278  0.5059 -0.2419
  365MOL0     C49195   6.778   8.458   6.136  0.4424 -0.2267  0.2110
  365MOL0     C49196   6.776   8.506   6.013  0.5041 -0.5493 -0.0928
  365MOL0     C49197   6.656   8.526   5.948 -0.4669 -0.1926 -0.6036
  365MOL0     O49198   6.650   8.589   5.829  0.8497 -0.0946 -0.2189
  365MOL0     C49199   6.534   8.604   5.750  0.0666 -0.3192  0.1169
  365MOL0     C49200   6.442   8.727   5.788  0.0881  0.1035  0.1219
  365MOL0     C49201   6.295   8.710   5.736 -0.3225  0.0599  0.1246
  365MOL0     C49202   6.276   8.748   5.589 -0.5822 -0.0162  0.0670
  365MOL0     C49203   6.201   8.877   5.582 -0.3797  0.2690  0.0756
  365MOL0     C49204   6.140   8.978   5.580 -0.0655  0.0544 -0.5222
  365MOL0     C49205   6.545   8.480   6.012  0.4245  0.2273  0.4378
  365MOL0     C49206   6.539   8.410   6.128 -0.1406  0.3809 -1.1201
  365MOL0     C49207   6.416   8.355   6.175 -0.4047 -0.2653  0.3800
  365MOL0     H49208   6.911   8.514   6.543  1.2888  0.2624  0.0558
  365MOL0     H49209   6.982   8.465   6.766  0.6827  0.6552 -1.0733
  365MOL0     H49210   6.889   8.059   6.928 -2.5572  3.6238  1.6903
  365MOL0     H49211   7.075   8.054   6.931  0.0623  3.2155 -2.3008
  365MOL0     H49212   6.870   8.140   7.135 -0.8759 -0.1552 -0.5523
  365MOL0     H49213   7.049   8.175   7.149 -1.2693  0.6487 -0.9181
  365MOL0     H49214   7.109   7.954   7.177  0.0818  0.9551 -1.9447
  365MOL0     H49215   6.951   7.886   7.130  2.6133 -2.6834  0.3637
  365MOL0     H49216   7.002   8.032   7.404  0.2814  1.3801 -0.5936
  365MOL0     H49217   6.851   8.017   7.319 -0.1342 -1.3448  1.4347
  365MOL0     H49218   6.891   7.767   7.309  1.4955 -0.1766 -1.4061
  365MOL0     H49219   7.040   7.784   7.389 -0.6416 -0.7300 -0.6936
  365MOL0     H49220   6.947   7.858   7.588 -2.3177 -1.5957  2.5857
  365MOL0     H49221   6.792   7.898   7.513  1.0362  0.9664  1.8146
  365MOL0     H49222   6.875   7.611   7.556 -1.2352 -0.4042  0.2507
  365MOL0     H49223   6.736   7.675   7.473 -0.9952 -2.0885  0.1750
  365MOL0     H49224   6.721   7.604   7.745  2.8602 -0.8357 -0.4323
  365MOL0     H49225   6.797   7.758   7.760 -1.5529  6.1776 -3.1924
  365MOL0     H49226   6.631   7.913   7.862 -2.5591  1.4126  0.6070
  365MOL0     H49227   6.300   8.047   7.772  0.2548 -1.4088 -0.3874
  365MOL0     H49228   6.429   8.069   7.901  2.0386  2.1405  0.0886
  365MOL0     H49229   6.439   8.289   7.805 -1.2314 -1.1790  0.9513
  365MOL0     H49230   6.562   8.193   7.726 -0.1371  0.2575 -2.3915
  365MOL0     H49231   6.295   8.255   7.608  0.3751  2.3106  1.4361
  365MOL0     H49232   6.393   8.135   7.535 -0.4556 -0.0215  0.3064
  365MOL0     H49233   6.465   8.424   7.604 -4.9945  0.8738 -0.5022
  365MOL0     H49234   6.398   8.385   7.445  1.3740  0.7330 -0.7885
  365MOL0     H49235   6.539   8.563   7.439 -3.3230 -3.8874  1.1644
  365MOL0     H49236   6.662   8.718   7.276 -0.6607 -0.1678  0.9237
  365MOL0     H49237   7.239   8.697   7.101 -0.6893 -0.4119  0.3833
  365MOL0     H49238   7.348   8.905   6.984 -0.1825 -0.0978 -1.1161
  365MOL0     H49239   7.319   9.114   6.966  0.6527 -1.1135 -0.1488
  365MOL0     H49240   7.314   9.230   6.824  0.0516  0.1701  0.0762
  365MOL0     H49241   7.063   9.139   6.960 -2.4391  0.7084 -2.5457
  365MOL0     H49242   7.173   9.287   6.994  0.7988 -1.5022  0.4605
  365MOL0     H49243   7.130   9.354   6.758 -1.1770  0.8957 -0.2528
  365MOL0     H49244   7.056   9.210   6.707  1.7959  1.6446 -1.8463
  365MOL0     H49245   6.926   9.396   6.902 -3.3982 -0.5209 -0.3304
  365MOL0     H49246   6.841   9.256   6.840 -2.5545  2.0785 -1.2342
  365MOL0     H49247   6.764   9.425   6.699  0.2010  1.1777  3.9931
  365MOL0     H49248   6.911   9.366   6.610  0.6114 -1.2406  1.4391
  365MOL0     H49249   6.890   9.615   6.785  2.5089  1.0369  0.2180
  365MOL0     H49250   7.035   9.559   6.713 -0.3543  2.9140  2.9970
  365MOL0     H49251   6.793   9.679   6.601 -0.9374  0.0376 -1.0549
  365MOL0     H49252   6.895   9.583   6.487  0.4310  0.5455  0.4550
  365MOL0     H49253   7.095   9.737   6.556 -0.3079 -0.8831  0.6775
  365MOL0     H49254   6.968   9.814   6.453  1.1119 -3.0728 -1.5773
  365MOL0     H49255   7.025   8.893   6.702  1.6863  0.9528 -1.5056
  365MOL0     H49256   6.914   8.722   6.832 -1.3082 -0.2824  1.1429
  365MOL0     H49257   6.916   8.389   7.178 -0.6049  2.4788 -2.3031
  365MOL0     H49258   6.775   8.233   7.307  0.1287 -0.6186 -0.9786
  365MOL0     H49259   6.844   8.062   6.736  1.1491 -1.2014 -1.6242
  365MOL0     H49260   6.787   8.103   6.507 -0.1226 -1.2591  2.3222
  365MOL0     H49261   6.877   8.457   6.180  1.7332 -0.5824 -2.5179
  365MOL0     H49262   6.863   8.543   5.960  0.1690 -1.8380 -1.6138
  365MOL0     H49263   6.477   8.513   5.732 -0.3637  0.6022 -4.2866
  365MOL0     H49264   6.581   8.631   5.655  2.4481  0.3709  1.3940
  365MOL0     H49265   6.487   8.821   5.755 -0.6383  0.4350  0.0628
  365MOL0     H49266   6.432   8.732   5.897 -1.0728  1.9265 -0.0324
  365MOL0     H49267   6.228   8.774   5.794 -3.2212 -1.2114 -1.5896
  365MOL0     H49268   6.268   8.604   5.742  2.8537 -0.9389 -1.3407
  365MOL0     H49269   6.371   8.750   5.537  0.1244 -1.4613  1.2280
  365MOL0     H49270   6.214   8.669   5.545 -0.8951  0.6596 -0.7163
  365MOL0     H49271   6.079   9.066   5.583 -0.5009 -0.2569  0.0464
  365MOL0     H49272   6.455   8.489   5.951  2.3423  0.4023 -2.5474
  365MOL0     H49273   6.436   8.262   6.229  0.4511  0.3214  1.0894
  365MOL0     H49274   6.365   8.421   6.246 -0.4749  1.9134 -1.5653
  365MOL0     H49275   6.349   8.333   6.091 -0.3585 -1.0051  0.5320
  366MOL0     O49276  10.483   0.714   7.342 -0.6814 -0.5944 -0.5070
  366MOL0     C49277  10.542   0.608   7.327  0.4075  0.7141 -0.1285
  366MOL0     O49278  10.508   0.519   7.232 -0.7429  0.0493 -0.0356
  366MOL0     C49279  10.387   0.512   7.171  0.1154 -0.3816 -0.0087
  366MOL0     C49280  10.387   0.510   7.032  1.2223  0.5410 -0.3408
  366MOL0     C49281  10.263   0.509   6.962 -0.8288 -0.1237  0.1409
  366MOL0     C49282  10.143   0.523   7.031  0.8373  0.7616 -0.2957
  366MOL0     O49283  10.018   0.525   6.966 -0.1808  0.4848  0.7022
  366MOL0     C49284  10.002   0.565   6.832 -0.1140 -0.7064  0.9265
  366MOL0     C49285   9.865   0.631   6.824 -0.4092  0.0377  0.5995
  366MOL0     C49286   9.848   0.751   6.918  0.9817  0.5385 -0.0898
  366MOL0     C49287   9.707   0.747   6.983 -0.2802 -0.1149  0.5177
  366MOL0     C49288   9.695   0.833   7.104  0.3167 -0.4145 -0.4481
  366MOL0     C49289   9.714   0.982   7.071 -0.7241 -0.0194 -0.3299
  366MOL0     C49290   9.649   1.071   7.170  0.2047  0.6212  0.0406
  366MOL0     C49291   9.687   1.224   7.133  1.2634 -0.8048 -0.5507
  366MOL0     N49292   9.635   1.310   7.242  0.1623 -0.2698  0.1459
  366MOL0     C49293   9.505   1.298   7.284 -0.3671 -0.5276  0.7443
  366MOL0     C49294   9.496   1.387   7.392 -0.7536  0.5486  0.5090
  366MOL0     C49295   9.366   1.400   7.468 -0.6960 -0.3949  0.2288
  366MOL0     C49296   9.376   1.349   7.606 -0.4253 -0.7625  0.2129
  366MOL0     C49297   9.485   1.422   7.697  0.5701  0.4155  0.3410
  366MOL0     C49298   9.456   1.438   7.855  0.4705 -0.7285  1.0384
  366MOL0     O49299   9.458   1.309   7.908 -0.2340  0.5125 -0.7941
  366MOL0     C49300   9.336   1.241   7.902 -0.5397  0.3441  0.7628
  366MOL0     C49301   9.347   1.101   7.902  1.0721  0.8095 -0.0679
  366MOL0     C49302   9.237   1.016   7.904 -0.8580  0.0786 -0.7502
  366MOL0     C49303   9.108   1.071   7.899 -0.1488  0.4072  0.1345
  366MOL0     C49304   8.992   0.987   7.897 -0.3572  0.6764  0.2963
  366MOL0     O49305   8.871   1.029   7.927  0.0677 -0.7177 -0.2643
  366MOL0     C49306   8.767   0.942   7.953 -0.0510  0.1557  0.5131
  366MOL0     C49307   8.638   0.974   7.909  0.0782  0.0044  0.1582
  366MOL0     C49308   8.528   0.880   7.920 -0.3286 -0.2023 -0.5062
  366MOL0     C49309   8.541   0.765   7.989 -0.0697  0.1888  0.3499
  366MOL0     O49310   8.437   0.670   8.004 -0.8380 -0.4614 -0.1394
  366MOL0     C49311   8.304   0.699   7.983 -0.8364 -0.1086 -0.1983
  366MOL0     C49312   8.222   0.574   7.965  0.0713  0.5085 -0.5978
  366MOL0     C49313   8.196   0.507   8.100  0.0220  0.4142  0.1108
  366MOL0     C49314   8.115   0.369   8.092  0.3749  1.3944  0.3106
  366MOL0     C49315   8.119   0.282   8.218  0.4214 -0.5676  0.2187
  366MOL0     C49316   8.059   0.355   8.339  0.0063  0.6640  0.0652
  366MOL0     C49317   8.045   0.242   8.445  0.1919  0.3797  0.8455
  366MOL0     C49318   8.006   0.311   8.576  0.2041 -0.0098 -1.1177
  366MOL0    Cl49319   8.130   0.423   8.643 -0.5126  0.1448  0.0136
  366MOL0     C49320   8.660   0.744   8.055 -0.7269  0.5423  0.6806
  366MOL0     C49321   8.774   0.826   8.033 -0.0650 -0.2818  0.2065
  366MOL0     O49322   9.021   0.871   7.882  0.7031  0.1210 -0.1976
  366MOL0     C49323   9.094   1.210   7.882  0.4586 -0.2610 -0.6422
  366MOL0     C49324   9.204   1.293   7.887 -0.3301  0.8986 -1.5086
  366MOL0     N49325   9.611   1.461   7.402  0.1896 -0.4550 -0.4918
  366MOL0     N49326   9.697   1.411   7.319 -0.4676 -0.2432 -0.1109
  366MOL0     C49327  10.145   0.519   7.170 -0.1791 -0.5317 -0.2112
  366MOL0     C49328  10.264   0.510   7.239 -0.3088 -0.0194 -0.2039
  366MOL0     C49329  10.670   0.602   7.398 -0.0210  0.2267  0.6035
  366MOL0     C49330  10.685   0.664   7.525 -0.3300  0.6832  0.7423
  366MOL0     C49331  10.812   0.649   7.598 -0.2314  0.2671 -0.4005
  366MOL0     C49332  10.911   0.561   7.552  0.0289  0.1023  0.3875
  366MOL0     O49333  11.029   0.548   7.620  0.2031  0.7583  0.1133
  366MOL0     C49334  11.141   0.474   7.570 -0.1053 -0.2808 -0.4330
  366MOL0     C49335  11.224   0.542   7.459  0.3218  0.0818  0.0429
  366MOL0     C49336  11.362   0.585   7.514 -0.0988  0.0067  0.0485
  366MOL0     C49337  11.365   0.712   7.599 -0.9001  0.1657  0.9092
  366MOL0     C49338  11.496   0.778   7.590 -0.0730  0.8358  0.0128
  366MOL0     C49339  11.609   0.825   7.549  0.1615 -0.6526 -0.1846
  366MOL0     C49340  10.896   0.511   7.423 -0.3207  0.0085 -0.0497
  366MOL0     C49341  10.778   0.527   7.345  0.3763  0.1519  0.4434
  366MOL0     C49342  10.787   0.505   7.194 -0.6662 -0.3492  0.2403
  366MOL0     H49343  10.485   0.521   6.988  1.4218  2.8094  0.5608
  366MOL0     H49344  10.278   0.504   6.855  3.7395  0.2417  0.5520
  366MOL0     H49345  10.079   0.638   6.805  0.0924 -0.1996  2.7644
  366MOL0     H49346  10.003   0.473   6.774  0.5385  0.3157 -0.7544
  366MOL0     H49347   9.783   0.560   6.835  1.5433 -2.4569 -0.0521
  366MOL0     H49348   9.858   0.671   6.723  2.9776 -2.0751 -0.6343
  366MOL0     H49349   9.848   0.835   6.848 -1.6167  1.5983  1.0545
  366MOL0     H49350   9.935   0.765   6.982  1.3958 -0.5786 -0.3857
  366MOL0     H49351   9.622   0.768   6.917 -0.5033  2.2502  1.4827
  366MOL0     H49352   9.695   0.647   7.026 -1.8947 -0.7894 -1.3152
  366MOL0     H49353   9.595   0.827   7.149  0.4819 -0.6833 -0.1128
  366MOL0     H49354   9.765   0.800   7.182  1.7101  0.5441 -1.2651
  366MOL0     H49355   9.818   1.015   7.061 -0.2980 -1.1911  0.0878
  366MOL0     H49356   9.666   0.992   6.973 -0.0971 -0.3214 -0.6788
  366MOL0     H49357   9.686   1.050   7.270 -0.3737 -0.0919  0.1195
  366MOL0     H49358   9.542   1.054   7.155  0.3336  0.7773 -1.1583
  366MOL0     H49359   9.795   1.238   7.120  1.1860  1.5238  0.8822
  366MOL0     H49360   9.644   1.248   7.035 -0.8376 -0.1005  0.4751
  366MOL0     H49361   9.427   1.236   7.241 -0.1600  0.0250 -0.4778
  366MOL0     H49362   9.336   1.505   7.469 -0.4155 -0.2523 -1.9167
  366MOL0     H49363   9.293   1.340   7.413  1.3414 -2.3627 -0.4516
  366MOL0     H49364   9.275   1.352   7.647 -2.2986  0.5162 -3.9767
  366MOL0     H49365   9.418   1.249   7.600  1.8475  0.0743  1.0079
  366MOL0     H49366   9.493   1.525   7.661 -1.0378  2.0924  4.2067
  366MOL0     H49367   9.576   1.365   7.675  2.0371  2.9484 -0.5070
  366MOL0     H49368   9.369   1.502   7.873  2.1370  1.8700  0.3427
  366MOL0     H49369   9.534   1.497   7.904  0.5414 -2.1196  2.7092
  366MOL0     H49370   9.442   1.048   7.905  1.0342  0.6951  3.4145
  366MOL0     H49371   9.250   0.910   7.927 -2.8639  0.2162  1.4044
  366MOL0     H49372   8.614   1.065   7.856 -0.6426 -0.0569  0.3592
  366MOL0     H49373   8.438   0.911   7.867  0.9285  2.3339 -1.3595
  366MOL0     H49374   8.253   0.755   8.061 -0.5731 -1.0811  0.6906
  366MOL0     H49375   8.301   0.747   7.885  3.0142  1.0515  0.1092
  366MOL0     H49376   8.128   0.602   7.916 -0.4638  1.9451  1.1137
  366MOL0     H49377   8.279   0.502   7.905  1.4404  2.3524 -1.5987
  366MOL0     H49378   8.289   0.464   8.140 -0.4037  1.6350  2.6352
  366MOL0     H49379   8.153   0.583   8.165 -0.2475 -1.1397  1.8283
  366MOL0     H49380   8.164   0.306   8.018 -0.5753 -2.9396  2.9857
  366MOL0     H49381   8.009   0.385   8.072 -0.9751 -2.3593  3.1911
  366MOL0     H49382   8.222   0.254   8.241  0.7836  0.6895  0.1965
  366MOL0     H49383   8.052   0.195   8.222 -0.8303  0.4031  1.4783
  366MOL0     H49384   8.119   0.443   8.366 -0.0548  1.3130 -1.7745
  366MOL0     H49385   7.962   0.398   8.311 -0.5791 -0.3317  0.5395
  366MOL0     H49386   8.140   0.189   8.459  1.7396  2.3012 -1.5029
  366MOL0     H49387   7.959   0.182   8.417  0.5423 -0.1960  1.0027
  366MOL0     H49388   7.914   0.368   8.558 -1.6173 -2.2247  0.5211
  366MOL0     H49389   7.985   0.233   8.650  0.8225  0.6685 -0.1939
  366MOL0     H49390   8.675   0.660   8.122  0.7004 -0.1289 -0.4260
  366MOL0     H49391   8.871   0.802   8.077 -0.2087  0.3281  0.8596
  366MOL0     H49392   8.999   1.262   7.880  1.1566  1.1246  0.3158
  366MOL0     H49393   9.196   1.401   7.873 -0.6921  0.7991 -2.1128
  366MOL0     H49394  10.049   0.522   7.220  1.2370 -0.1680  2.7049
  366MOL0     H49395  10.275   0.507   7.347 -0.4467  2.1081 -0.0950
  366MOL0     H49396  10.600   0.718   7.566 -1.7188  0.1162 -1.2476
  366MOL0     H49397  10.830   0.700   7.692 -1.1929 -0.4177  0.1677
  366MOL0     H49398  11.099   0.379   7.534  0.0935 -0.4358 -0.2607
  366MOL0     H49399  11.216   0.440   7.642  0.1000 -1.5503 -1.2169
  366MOL0     H49400  11.172   0.628   7.415 -0.0421 -1.1253 -2.0244
  366MOL0     H49401  11.232   0.457   7.392  1.0042 -1.8829  2.4822
  366MOL0     H49402  11.419   0.599   7.421  1.1892  1.8870  1.0643
  366MOL0     H49403  11.401   0.506   7.579  0.9445  1.9205  1.8586
  366MOL0     H49404  11.306   0.791   7.553 -0.1089  0.1475 -0.1941
  366MOL0     H49405  11.342   0.692   7.704 -3.0849  2.1755  0.8830
  366MOL0     H49406  11.706   0.865   7.528 -0.0529 -0.5379 -1.0267
  366MOL0     H49407  10.967   0.438   7.385  0.4703  0.7398 -0.0019
  366MOL0     H49408  10.790   0.396   7.186  0.3911 -0.6784  3.4507
  366MOL0     H49409  10.708   0.547   7.132 -1.1714  0.3723  1.3339
  366MOL0     H49410  10.887   0.537   7.163 -0.0900 -0.3177  2.0109
  367MOL0     O49411   1.996   7.771   5.276  0.2714 -0.3347  0.0554
  367MOL0     C49412   1.908   7.795   5.191  0.3865  0.0846 -0.2053
  367MOL0     O49413   1.925   7.865   5.075 -0.1781 -0.1225 -0.2715
  367MOL0     C49414   2.059   7.909   5.053  1.0232 -0.3742  0.0569
  367MOL0     C49415   2.098   8.051   5.041  0.4205  0.2386 -0.2115
  367MOL0     C49416   2.234   8.084   5.048 -0.5342 -0.1190  0.7826
  367MOL0     C49417   2.333   7.984   5.039  0.3450 -0.4331  0.6561
  367MOL0     O49418   2.463   8.009   5.025  0.1723 -0.4734 -0.4263
  367MOL0     C49419   2.518   8.143   5.023  0.4408  0.8967 -0.4368
  367MOL0     C49420   2.669   8.127   4.996 -0.7120 -0.4456  0.2764
  367MOL0     C49421   2.682   8.077   4.855  1.0547 -1.0167 -0.3319
  367MOL0     C49422   2.823   8.047   4.809 -0.6464 -0.7574 -0.0834
  367MOL0     C49423   2.885   7.920   4.855 -0.2569  0.3657 -0.2705
  367MOL0     C49424   2.831   7.805   4.781 -0.0963 -0.2405 -0.3092
  367MOL0     C49425   2.909   7.670   4.787 -0.0443  0.0132  0.2149
  367MOL0     C49426   3.032   7.670   4.709  0.1813 -0.6077  0.1381
  367MOL0     N49427   3.098   7.543   4.699 -0.0671  0.2249 -0.8959
  367MOL0     C49428   3.146   7.470   4.808  0.0603 -0.2836  0.2368
  367MOL0     C49429   3.187   7.354   4.759  0.2503 -0.5172  0.8481
  367MOL0     C49430   3.247   7.233   4.821 -0.1671  0.0431  0.3813
  367MOL0     C49431   3.339   7.152   4.723 -0.4169  0.7227  0.4018
  367MOL0     C49432   3.413   7.046   4.809  0.5359  0.2282  0.1737
  367MOL0     C49433   3.523   6.980   4.740  0.4048 -1.0356  0.6814
  367MOL0     O49434   3.625   7.080   4.723  0.1970  0.4801  0.1535
  367MOL0     C49435   3.754   7.047   4.745  0.1536 -0.1766 -0.0080
  367MOL0     C49436   3.820   6.917   4.751 -0.2474 -0.0900 -0.1679
  367MOL0     C49437   3.955   6.920   4.783  0.5946 -0.3374 -0.7331
  367MOL0     C49438   4.030   7.037   4.833  0.2563  0.0146  0.3636
  367MOL0     C49439   4.171   7.004   4.883 -0.4752  0.4101 -0.2628
  367MOL0     O49440   4.248   7.107   4.885 -0.2744 -0.5135 -0.1889
  367MOL0     C49441   4.382   7.094   4.920  1.1822 -0.7257 -0.4773
  367MOL0     C49442   4.479   7.086   4.828  0.0002 -0.4162  0.0508
  367MOL0     C49443   4.617   7.098   4.863 -1.0912 -0.9505  0.7398
  367MOL0     C49444   4.653   7.085   4.995 -0.2473  0.3586  0.4300
  367MOL0     O49445   4.791   7.069   5.029  0.9754  0.1683  0.9016
  367MOL0     C49446   4.819   6.994   5.149 -0.1535 -0.3827  0.6677
  367MOL0     C49447   4.863   7.090   5.261  0.4087 -0.0254  0.2355
  367MOL0     C49448   5.011   7.116   5.260 -0.4350  0.1620 -0.1740
  367MOL0     C49449   5.049   7.215   5.137  0.2557 -0.2992 -0.1059
  367MOL0     C49450   5.196   7.256   5.149 -0.6271 -0.4769  0.0753
  367MOL0     C49451   5.211   7.403   5.102  0.4629  0.2034  0.2435
  367MOL0     C49452   5.207   7.414   4.943 -1.2296 -0.1822 -0.4694
  367MOL0     C49453   5.271   7.541   4.896 -0.4485  0.3838  0.1509
  367MOL0    Cl49454   5.437   7.541   4.940  0.6511 -0.4064 -0.1382
  367MOL0     C49455   4.549   7.077   5.089 -0.2561 -1.0040  0.1820
  367MOL0     C49456   4.412   7.082   5.054 -0.0970 -0.0464  0.1356
  367MOL0     O49457   4.197   6.893   4.916  0.0002  0.4391 -0.7339
  367MOL0     C49458   3.963   7.162   4.828 -0.4440 -0.1055 -0.4402
  367MOL0     C49459   3.828   7.162   4.774 -0.5566  0.8591  0.0155
  367MOL0     N49460   3.156   7.356   4.625 -0.2792  0.1523 -0.3316
  367MOL0     N49461   3.092   7.464   4.591 -0.8236  0.1124  0.2980
  367MOL0     C49462   2.301   7.850   5.051  0.0600 -0.0111 -0.0391
  367MOL0     C49463   2.168   7.814   5.049  0.7293 -0.7971 -0.4974
  367MOL0     C49464   1.770   7.728   5.213 -0.0869  1.0975 -0.9549
  367MOL0     C49465   1.713   7.661   5.108  0.2734 -0.2579 -0.1659
  367MOL0     C49466   1.585   7.604   5.112  0.0523  0.0572 -0.3785
  367MOL0     C49467   1.514   7.616   5.231  0.3106 -0.6027  0.3450
  367MOL0     O49468   1.391   7.559   5.236 -0.2427  0.4234  0.4290
  367MOL0     C49469   1.287   7.643   5.177  0.0089  0.9082  0.0082
  367MOL0     C49470   1.236   7.756   5.277 -0.2866  0.5892  0.3185
  367MOL0     C49471   1.153   7.702   5.392 -0.3089  0.6777  0.0193
  367MOL0     C49472   1.128   7.796   5.512 -1.0760  0.3337  0.9550
  367MOL0     C49473   1.260   7.819   5.579  0.4808 -0.2814  0.5094
  367MOL0     C49474   1.365   7.854   5.630 -0.4645  0.6498  0.2590
  367MOL0     C49475   1.567   7.691   5.339  0.1067 -0.7348 -0.2562
  367MOL0     C49476   1.695   7.750   5.326 -0.6397  0.5628  0.4487
  367MOL0     C49477   1.736   7.833   5.438 -0.2886 -0.5296  0.3459
  367MOL0     H49478   2.025   8.132   5.040 -2.0606 -1.7926 -3.5108
  367MOL0     H49479   2.254   8.191   5.046  2.1123 -0.5547  0.0359
  367MOL0     H49480   2.469   8.214   4.956 -0.6937  0.8878  0.3355
  367MOL0     H49481   2.508   8.181   5.125 -1.6417  0.1137 -0.3004
  367MOL0     H49482   2.719   8.052   5.058 -0.4707  0.0897  0.7453
  367MOL0     H49483   2.722   8.223   4.991 -1.9957  0.3407  1.1858
  367MOL0     H49484   2.623   8.146   4.794 -0.5386 -0.2602  1.9080
  367MOL0     H49485   2.624   7.985   4.841 -0.5734  0.1492 -1.7185
  367MOL0     H49486   2.825   8.042   4.699  1.3642  0.6235 -0.1745
  367MOL0     H49487   2.889   8.129   4.839 -2.2631  0.2475  0.8601
  367MOL0     H49488   2.993   7.928   4.841 -0.6423  0.9912 -4.0699
  367MOL0     H49489   2.880   7.918   4.964 -2.7025  0.7432 -0.3236
  367MOL0     H49490   2.731   7.792   4.824 -0.3259  2.8095  0.3194
  367MOL0     H49491   2.823   7.831   4.675  0.7675 -0.4627 -0.4360
  367MOL0     H49492   2.836   7.603   4.741  0.0060  0.9398 -1.2841
  367MOL0     H49493   2.917   7.625   4.886  0.5910 -0.6628 -0.1400
  367MOL0     H49494   3.008   7.702   4.607 -0.5239 -0.2065  0.4167
  367MOL0     H49495   3.095   7.738   4.766 -1.4681  1.2729 -0.1524
  367MOL0     H49496   3.148   7.494   4.914  2.9887 -2.8739  0.9341
  367MOL0     H49497   3.320   7.247   4.901  0.8757 -0.9555 -0.3642
  367MOL0     H49498   3.163   7.168   4.848 -0.3330 -0.1514 -0.5442
  367MOL0     H49499   3.278   7.113   4.642 -4.2522  3.5814  1.6080
  367MOL0     H49500   3.410   7.227   4.685 -0.3043  0.7178  0.6000
  367MOL0     H49501   3.331   6.989   4.854 -0.2476  2.4415  1.7298
  367MOL0     H49502   3.471   7.096   4.887  0.1342 -0.5563  0.9904
  367MOL0     H49503   3.491   6.938   4.644  0.4700 -1.2366  0.7461
  367MOL0     H49504   3.558   6.901   4.807  1.8648  2.1033  3.9620
  367MOL0     H49505   3.762   6.826   4.741 -0.7067 -0.3701  3.4815
  367MOL0     H49506   4.010   6.827   4.776 -0.5014 -0.9904 -1.0192
  367MOL0     H49507   4.465   7.105   4.722  2.5424 -1.3442 -0.5347
  367MOL0     H49508   4.695   7.100   4.788  1.9793  0.2201  3.6792
  367MOL0     H49509   4.731   6.935   5.177  0.0656 -0.3645  1.4103
  367MOL0     H49510   4.897   6.923   5.122  0.0640  0.0120  0.2607
  367MOL0     H49511   4.815   7.188   5.254  1.4206  0.3382 -4.1694
  367MOL0     H49512   4.843   7.028   5.349 -0.9455  0.1471  0.0614
  367MOL0     H49513   5.027   7.163   5.357  3.1443 -0.6227 -0.2589
  367MOL0     H49514   5.070   7.024   5.262  1.8944  1.5955  1.7553
  367MOL0     H49515   4.980   7.300   5.142  1.3646  0.5633  1.6679
  367MOL0     H49516   5.035   7.164   5.042 -1.8491 -0.4105  0.2300
  367MOL0     H49517   5.255   7.187   5.088 -2.9453 -1.0005 -1.7374
  367MOL0     H49518   5.236   7.251   5.250  1.6660  0.8987 -0.6794
  367MOL0     H49519   5.138   7.471   5.148 -0.2512 -0.3947  0.0044
  367MOL0     H49520   5.308   7.431   5.144  0.4283  0.2836  0.2703
  367MOL0     H49521   5.104   7.423   4.907 -0.0077  1.8495 -3.9649
  367MOL0     H49522   5.250   7.323   4.901  2.7979  1.4162 -0.2116
  367MOL0     H49523   5.267   7.553   4.788  0.6304 -0.0946  0.0426
  367MOL0     H49524   5.218   7.634   4.919  0.6470  2.0191 -3.3412
  367MOL0     H49525   4.583   7.072   5.192 -0.9286  1.5351  0.6007
  367MOL0     H49526   4.334   7.070   5.129 -2.1338  3.0964 -1.2489
  367MOL0     H49527   4.015   7.253   4.856  1.3874 -0.9143 -1.0668
  367MOL0     H49528   3.776   7.257   4.777 -0.0909  1.0981  2.2634
  367MOL0     H49529   2.367   7.769   5.080 -0.0492  0.0302  0.3331
  367MOL0     H49530   2.132   7.712   5.046 -0.2766 -0.5020  0.6466
  367MOL0     H49531   1.774   7.634   5.022  0.1458  1.1105 -0.7056
  367MOL0     H49532   1.545   7.548   5.028  0.2293  1.9544 -1.7894
  367MOL0     H49533   1.205   7.573   5.154  1.5237 -0.9026 -0.1493
  367MOL0     H49534   1.333   7.688   5.089  1.4086 -1.7733 -0.7422
  367MOL0     H49535   1.165   7.823   5.228 -1.2171 -0.9616 -0.5359
  367MOL0     H49536   1.323   7.810   5.315  1.7141  0.4530 -3.6040
  367MOL0     H49537   1.208   7.614   5.426 -1.1085 -0.1174 -0.7189
  367MOL0     H49538   1.056   7.660   5.365 -0.0944 -0.0944  0.4282
  367MOL0     H49539   1.088   7.892   5.480  0.7458  1.0237  0.6210
  367MOL0     H49540   1.061   7.754   5.588  0.3040  2.8218  3.7519
  367MOL0     H49541   1.446   7.897   5.686 -0.3362 -0.1249  0.6793
  367MOL0     H49542   1.506   7.710   5.427  1.4427 -1.6640  0.9201
  367MOL0     H49543   1.737   7.937   5.402  0.8236 -0.2295  1.1884
  367MOL0     H49544   1.666   7.825   5.521 -0.3083  0.7802  0.4789
  367MOL0     H49545   1.836   7.800   5.467 -0.8804 -2.5942  0.1861
  368MOL0     O49546  10.926  11.256   4.266  0.3639 -0.7952 -0.4759
  368MOL0     C49547  10.867  11.286   4.165  0.1087  1.0256  0.0472
  368MOL0     O49548  10.856  11.201   4.059 -0.1036 -0.2737 -0.1578
  368MOL0     C49549  10.928  11.078   4.065 -0.1889  0.3294  0.0491
  368MOL0     C49550  11.069  11.067   4.027  0.8265  0.3321 -1.3085
  368MOL0     C49551  11.141  10.946   4.058  0.1962 -0.2465  0.5313
  368MOL0     C49552  11.075  10.834   4.107  0.5393 -0.6055 -0.0751
  368MOL0     O49553  11.151  10.723   4.141 -0.2321 -0.5996 -0.3681
  368MOL0     C49554  11.078  10.596   4.129  0.1365 -0.1313 -0.6387
  368MOL0     C49555  11.061  10.531   4.268  1.1432  0.5667 -0.0234
  368MOL0     C49556  10.966  10.416   4.257  1.3077  0.8383  0.4399
  368MOL0     C49557  10.819  10.462   4.289 -1.2261 -0.7437 -0.1976
  368MOL0     C49558  10.711  10.381   4.223 -0.3479 -0.3346 -0.4038
  368MOL0     C49559  10.580  10.459   4.200  0.4182 -0.0588  0.0223
  368MOL0     C49560  10.587  10.561   4.079  0.5190 -1.4150 -0.0007
  368MOL0     C49561  10.458  10.647   4.097 -0.3356  0.7096 -1.2070
  368MOL0     N49562  10.460  10.749   3.992 -0.2644  0.4101  0.6275
  368MOL0     C49563  10.499  10.883   4.004 -0.3548 -0.1702  0.4990
  368MOL0     C49564  10.467  10.941   3.884  0.3525  0.2110  0.6447
  368MOL0     C49565  10.466  11.083   3.845 -0.3880 -0.4275 -0.4206
  368MOL0     C49566  10.606  11.139   3.824  0.6007 -0.0828  0.9852
  368MOL0     C49567  10.633  11.163   3.667 -0.0370  1.3301  0.3126
  368MOL0     C49568  10.768  11.217   3.637 -0.0936 -0.4002 -0.2062
  368MOL0     O49569  10.766  11.351   3.592  0.0221 -0.2838  0.4215
  368MOL0     C49570  10.885  11.394   3.546 -0.9714 -0.4682 -0.4951
  368MOL0     C49571  10.888  11.504   3.461  0.5016  0.6287  0.7481
  368MOL0     C49572  11.011  11.554   3.422  0.2921 -0.4035 -0.2221
  368MOL0     C49573  11.135  11.490   3.453 -0.7678 -0.3469  0.3251
  368MOL0     C49574  11.265  11.538   3.404 -0.4456  0.2762  0.3987
  368MOL0     O49575  11.376  11.469   3.455  0.4178 -0.3691 -0.6760
  368MOL0     C49576  11.496  11.534   3.443 -0.3591  0.7613 -0.0136
  368MOL0     C49577  11.520  11.670   3.467  1.3008  0.0517 -0.2823
  368MOL0     C49578  11.653  11.725   3.468 -0.1464 -0.7663 -0.4866
  368MOL0     C49579  11.758  11.641   3.444 -0.7032  1.0389 -0.5729
  368MOL0     O49580  11.887  11.689   3.446  0.1807  0.2707  0.0931
  368MOL0     C49581  11.982  11.652   3.547  0.5930  0.0957  0.6122
  368MOL0     C49582  12.027  11.777   3.617 -0.3075 -0.3736  0.6458
  368MOL0     C49583  12.164  11.749   3.694  0.6503  0.6559  0.1119
  368MOL0     C49584  12.212  11.877   3.767  0.1361 -0.3768 -0.6745
  368MOL0     C49585  12.348  11.848   3.830  0.5288 -0.1843  0.8184
  368MOL0     C49586  12.400  11.978   3.912  0.3673 -0.5375 -0.1337
  368MOL0     C49587  12.506  11.948   4.022 -0.3269 -0.3344  0.7651
  368MOL0     C49588  12.560  12.072   4.080 -0.5702  0.0061 -0.4839
  368MOL0    Cl49589  12.434  12.188   4.145 -0.5913  0.0952  0.0800
  368MOL0     C49590  11.737  11.502   3.410 -1.0877  0.4499 -0.5953
  368MOL0     C49591  11.606  11.453   3.416  0.5195  0.1242  0.1165
  368MOL0     O49592  11.266  11.623   3.317 -0.4349  0.0703 -0.1541
  368MOL0     C49593  11.133  11.388   3.549  0.2211  0.4375  0.1325
  368MOL0     C49594  11.013  11.336   3.593  0.8357 -0.7547  1.0985
  368MOL0     N49595  10.414  10.843   3.807 -0.3424 -0.0875 -0.8183
  368MOL0     N49596  10.411  10.728   3.865  0.0697 -0.2518 -0.3132
  368MOL0     C49597  10.940  10.842   4.131 -0.5480 -0.4974 -0.1246
  368MOL0     C49598  10.869  10.959   4.112 -0.4296 -0.0974  0.2172
  368MOL0     C49599  10.828  11.429   4.138 -0.6618  0.5120 -0.8282
  368MOL0     C49600  10.788  11.456   4.002  1.1066  1.0585 -0.1426
  368MOL0     C49601  10.757  11.591   3.961 -0.1345 -0.1329  0.0543
  368MOL0     C49602  10.768  11.698   4.049  0.5978 -1.4291 -0.3946
  368MOL0     O49603  10.716  11.823   4.005 -0.2532 -0.3710  0.6610
  368MOL0     C49604  10.737  11.949   4.070 -0.5770 -0.1360  0.0261
  368MOL0     C49605  10.707  12.049   3.966  0.2551  0.3498 -0.1766
  368MOL0     C49606  10.710  12.189   4.016 -0.3097  0.6783  0.0683
  368MOL0     C49607  10.836  12.232   4.089  0.2427  1.0504 -0.6262
  368MOL0     C49608  10.957  12.202   4.011 -1.3946 -0.4527  0.0996
  368MOL0     C49609  11.054  12.183   3.938 -0.2824  0.7788  0.0054
  368MOL0     C49610  10.801  11.671   4.189  0.0457 -0.4122 -0.7038
  368MOL0     C49611  10.838  11.539   4.226  0.7835 -0.3347 -0.2217
  368MOL0     C49612  10.871  11.519   4.370 -1.0223 -0.2182 -0.5520
  368MOL0     H49613  11.106  11.160   3.988  1.1723  1.7780  2.1097
  368MOL0     H49614  11.248  10.932   4.046 -0.0177 -1.4536 -0.2182
  368MOL0     H49615  10.982  10.601   4.076 -1.7200  2.0604  2.6228
  368MOL0     H49616  11.145  10.534   4.068  0.6765  0.7025 -0.9135
  368MOL0     H49617  11.024  10.597   4.346 -0.1559 -0.3052  0.1159
  368MOL0     H49618  11.153  10.484   4.303  0.7598 -0.1714  0.0083
  368MOL0     H49619  10.999  10.337   4.325  1.8532 -0.4452 -1.2422
  368MOL0     H49620  10.962  10.368   4.158  0.7977 -0.0781  0.8909
  368MOL0     H49621  10.814  10.460   4.398 -0.6453  0.4514 -0.1321
  368MOL0     H49622  10.804  10.565   4.253  0.2362 -0.8148 -1.0776
  368MOL0     H49623  10.755  10.349   4.128  1.5547  1.1949 -0.1116
  368MOL0     H49624  10.702  10.288   4.279 -0.2907 -0.7401 -1.0567
  368MOL0     H49625  10.490  10.397   4.197 -1.1437  1.9496  1.8793
  368MOL0     H49626  10.557  10.509   4.294 -3.6142 -1.4470 -0.0295
  368MOL0     H49627  10.576  10.505   3.986 -2.7570 -0.0375 -0.5541
  368MOL0     H49628  10.671  10.632   4.075 -2.1032  2.1410  2.4421
  368MOL0     H49629  10.370  10.582   4.103  1.1535 -1.2672  2.7607
  368MOL0     H49630  10.457  10.701   4.192  0.0806 -1.6307  0.1943
  368MOL0     H49631  10.542  10.937   4.087 -0.7152  3.2523 -1.3626
  368MOL0     H49632  10.399  11.099   3.760 -0.8316 -3.2878 -0.7039
  368MOL0     H49633  10.421  11.128   3.934 -0.3504 -1.5330  0.1703
  368MOL0     H49634  10.611  11.233   3.880 -0.6196  0.4719  0.1881
  368MOL0     H49635  10.687  11.071   3.854  0.7780 -0.4414 -0.2477
  368MOL0     H49636  10.562  11.231   3.620 -0.0855  1.3365  0.3937
  368MOL0     H49637  10.629  11.064   3.621  1.9953  1.4834 -0.3011
  368MOL0     H49638  10.798  11.149   3.557 -0.0971  1.0042 -1.4221
  368MOL0     H49639  10.822  11.196   3.730 -1.1960  1.0142  0.7999
  368MOL0     H49640  10.798  11.553   3.427  0.0137 -2.2681 -2.8186
  368MOL0     H49641  11.018  11.648   3.369 -0.0412 -0.5512 -0.5335
  368MOL0     H49642  11.435  11.734   3.488  0.4234 -1.2525  0.2502
  368MOL0     H49643  11.669  11.829   3.497 -3.1260 -0.7118  1.4373
  368MOL0     H49644  11.939  11.581   3.618 -1.8896 -0.9797 -1.7657
  368MOL0     H49645  12.062  11.609   3.486  2.6972  4.6073 -0.2560
  368MOL0     H49646  12.038  11.859   3.545  2.1218  1.6345  3.0713
  368MOL0     H49647  11.949  11.809   3.687 -0.3537  4.7301 -1.3633
  368MOL0     H49648  12.132  11.663   3.754  0.7710 -2.2933 -3.7141
  368MOL0     H49649  12.237  11.727   3.616 -1.6715 -1.6573 -1.5786
  368MOL0     H49650  12.138  11.908   3.842  0.5873 -1.0850  0.0768
  368MOL0     H49651  12.222  11.961   3.697 -0.3040 -0.2605 -0.5985
  368MOL0     H49652  12.427  11.825   3.758  0.2955  3.0553 -0.6188
  368MOL0     H49653  12.328  11.770   3.905 -1.8616 -0.9953 -0.5832
  368MOL0     H49654  12.454  12.038   3.838 -0.5296  0.3620 -0.0803
  368MOL0     H49655  12.326  12.048   3.951  3.0423  1.4508  1.7981
  368MOL0     H49656  12.580  11.886   3.972 -0.1243  0.5434 -0.0603
  368MOL0     H49657  12.448  11.899   4.102 -1.8425 -0.0254 -0.0949
  368MOL0     H49658  12.631  12.053   4.160 -0.4997  0.3779 -0.4522
  368MOL0     H49659  12.629  12.110   4.003 -0.7605 -2.1328 -1.7785
  368MOL0     H49660  11.828  11.443   3.411 -1.6012 -0.4575  2.1029
  368MOL0     H49661  11.591  11.346   3.405  1.1200 -0.3220  2.7760
  368MOL0     H49662  11.219  11.333   3.585 -2.4276 -5.6372 -1.4925
  368MOL0     H49663  11.012  11.247   3.656 -1.1429  0.5863  3.1355
  368MOL0     H49664  10.892  10.751   4.166 -2.3802  0.6446  0.4619
  368MOL0     H49665  10.764  10.952   4.138 -0.4391 -1.9084 -0.1910
  368MOL0     H49666  10.794  11.380   3.925 -0.2149 -0.1414  0.8744
  368MOL0     H49667  10.712  11.611   3.865 -2.4022  0.2236  1.1299
  368MOL0     H49668  10.838  11.965   4.110 -0.8109  3.0712 -0.4114
  368MOL0     H49669  10.683  11.944   4.165  1.0902 -0.3603  1.0108
  368MOL0     H49670  10.605  12.032   3.930  0.6006 -2.4022 -0.0896
  368MOL0     H49671  10.790  12.051   3.894  1.3457  0.9648  1.0439
  368MOL0     H49672  10.634  12.212   4.092  1.9802  2.8663  1.9140
  368MOL0     H49673  10.695  12.250   3.927  1.3375  0.7814 -0.1757
  368MOL0     H49674  10.833  12.340   4.104  2.8381  1.0857  0.0850
  368MOL0     H49675  10.830  12.187   4.188  0.2150  0.3488 -0.9395
  368MOL0     H49676  11.139  12.161   3.878 -0.4772 -0.9824  0.3181
  368MOL0     H49677  10.810  11.753   4.260 -0.8577  0.4484 -1.5729
  368MOL0     H49678  10.980  11.522   4.380 -1.1199 -0.6011  0.9868
  368MOL0     H49679  10.843  11.604   4.433  1.5960 -0.8673  1.6911
  368MOL0     H49680  10.816  11.439   4.420  1.2309 -1.1146  0.6788
  369MOL0     O49681   3.731   6.469   8.527 -0.4164 -1.0888  0.0984
  369MOL0     C49682   3.666   6.511   8.435  0.8486 -1.2273 -0.2793
  369MOL0     O49683   3.722   6.564   8.321 -0.5035 -0.1395 -0.2012
  369MOL0     C49684   3.861   6.594   8.330 -0.7779  0.1469 -0.5315
  369MOL0     C49685   3.952   6.492   8.354 -0.4242  0.1204  0.8626
  369MOL0     C49686   4.087   6.519   8.373  0.2268  0.5646  0.3138
  369MOL0     C49687   4.134   6.643   8.358 -0.2054  1.6992 -0.2186
  369MOL0     O49688   4.266   6.668   8.368 -0.7675 -0.2447 -0.9100
  369MOL0     C49689   4.342   6.604   8.480  0.3270 -1.0684  0.6995
  369MOL0     C49690   4.458   6.693   8.527 -0.0914  0.0827 -0.3040
  369MOL0     C49691   4.583   6.689   8.435  1.0040 -0.5382 -0.3258
  369MOL0     C49692   4.713   6.750   8.507 -0.2840 -1.1355  0.1791
  369MOL0     C49693   4.845   6.733   8.423  0.0142 -0.8136  0.3884
  369MOL0     C49694   4.832   6.789   8.287  0.1349 -0.3229  0.6050
  369MOL0     C49695   4.807   6.939   8.279  0.0058 -1.2169  0.6323
  369MOL0     C49696   4.869   6.995   8.155  0.0925 -0.0136 -0.7231
  369MOL0     N49697   5.020   6.991   8.149  0.0482 -0.3499  0.4040
  369MOL0     C49698   5.104   7.021   8.254 -0.5168 -0.8460 -0.1776
  369MOL0     C49699   5.229   6.999   8.202 -0.5929  0.2081  0.0131
  369MOL0     C49700   5.352   7.002   8.289 -0.3142 -0.6518 -0.2150
  369MOL0     C49701   5.419   7.147   8.298 -0.8464 -0.4592 -0.1874
  369MOL0     C49702   5.521   7.169   8.186  0.3231 -0.1260 -0.0702
  369MOL0     C49703   5.557   7.323   8.162  0.2168 -0.3032  0.1797
  369MOL0     O49704   5.459   7.388   8.082 -0.1877  0.2263 -0.9485
  369MOL0     C49705   5.473   7.519   8.059 -0.6462  0.3511  1.1089
  369MOL0     C49706   5.356   7.592   8.021 -0.0954  0.2773  0.2207
  369MOL0     C49707   5.372   7.728   7.995  0.7097 -0.4015  0.2413
  369MOL0     C49708   5.497   7.795   8.016 -0.7207  0.7144 -0.8422
  369MOL0     C49709   5.508   7.934   7.970  0.7253 -0.0589  0.1743
  369MOL0     O49710   5.617   7.993   8.020 -0.1832  0.1109 -0.0024
  369MOL0     C49711   5.624   8.127   7.998 -1.1965 -0.0323 -0.2395
  369MOL0     C49712   5.701   8.176   7.896 -0.3198  0.0133 -1.1475
  369MOL0     C49713   5.712   8.312   7.867  0.5035 -0.4928  0.6857
  369MOL0     C49714   5.633   8.410   7.936  0.0283  0.2442  0.6686
  369MOL0     O49715   5.647   8.541   7.905  0.0723 -1.0617  0.0621
  369MOL0     C49716   5.523   8.619   7.873  0.9012 -0.0549  0.0369
  369MOL0     C49717   5.485   8.577   7.732 -0.4284 -0.2880  0.9203
  369MOL0     C49718   5.362   8.669   7.691  0.7035  0.0673 -0.8022
  369MOL0     C49719   5.297   8.646   7.558 -0.0024  0.6868  0.0741
  369MOL0     C49720   5.179   8.740   7.531  0.3656  0.0591 -0.5830
  369MOL0     C49721   5.226   8.885   7.505 -0.6652 -0.2501  0.9630
  369MOL0     C49722   5.318   8.899   7.380  0.0622  0.8660 -0.7732
  369MOL0     C49723   5.347   9.050   7.356 -0.0772  0.9036 -0.1009
  369MOL0    Cl49724   5.501   9.047   7.255  0.5529 -0.3139 -0.2375
  369MOL0     C49725   5.554   8.361   8.040  1.0824 -0.1145  0.2368
  369MOL0     C49726   5.556   8.230   8.071  0.5070  0.7224 -0.9679
  369MOL0     O49727   5.434   7.981   7.887  0.4959  0.0615  0.5541
  369MOL0     C49728   5.605   7.725   8.057 -0.1425  0.1636  1.0858
  369MOL0     C49729   5.601   7.588   8.074 -0.5424 -0.3596  1.3021
  369MOL0     N49730   5.210   6.936   8.082 -0.1088  0.4712 -0.4750
  369MOL0     N49731   5.087   6.934   8.046  0.8717  0.2803  0.0252
  369MOL0     C49732   4.044   6.740   8.325  0.5222  0.0296  0.8460
  369MOL0     C49733   3.911   6.721   8.321  0.6756 -0.2126 -0.2687
  369MOL0     C49734   3.518   6.493   8.435  0.1496  1.2970 -0.1244
  369MOL0     C49735   3.456   6.467   8.307 -0.4726  0.2296 -0.6490
  369MOL0     C49736   3.325   6.442   8.277  0.5647 -0.4828 -0.5039
  369MOL0     C49737   3.236   6.445   8.389 -0.5675 -0.3784 -0.0483
  369MOL0     O49738   3.107   6.436   8.365  0.6197  0.0461  0.0388
  369MOL0     C49739   3.048   6.506   8.254  0.0590 -0.5609 -0.2312
  369MOL0     C49740   3.026   6.412   8.131  0.2274 -0.5312 -0.1294
  369MOL0     C49741   2.969   6.494   8.018 -0.4576  0.5736 -0.5566
  369MOL0     C49742   2.924   6.424   7.901 -0.0479 -0.6145  0.0486
  369MOL0     C49743   3.034   6.372   7.824  0.1296  0.2370 -0.5724
  369MOL0     C49744   3.127   6.336   7.762 -0.3726 -0.5955  0.9993
  369MOL0     C49745   3.287   6.464   8.519 -1.1975 -0.7242 -0.6373
  369MOL0     C49746   3.426   6.485   8.539 -0.7431 -0.3989 -0.9203
  369MOL0     C49747   3.471   6.531   8.681  0.0298 -0.3636  0.4846
  369MOL0     H49748   3.926   6.386   8.355  2.1230 -0.5655  1.4488
  369MOL0     H49749   4.154   6.435   8.390  2.9014  2.4510 -0.2038
  369MOL0     H49750   4.271   6.609   8.563 -3.6784  2.9095 -2.4706
  369MOL0     H49751   4.369   6.499   8.466  0.8678 -0.8233 -0.2151
  369MOL0     H49752   4.484   6.661   8.628  2.8732  0.0419 -0.9910
  369MOL0     H49753   4.421   6.796   8.530 -1.4687 -0.3184 -1.7584
  369MOL0     H49754   4.560   6.747   8.345  1.2859  0.0152 -0.0479
  369MOL0     H49755   4.611   6.589   8.403  0.0838 -0.1960 -2.3663
  369MOL0     H49756   4.701   6.856   8.533 -0.9138 -1.2900  0.5341
  369MOL0     H49757   4.719   6.693   8.600 -4.1071 -0.4286  1.0324
  369MOL0     H49758   4.925   6.785   8.476 -0.9860  1.6319 -0.3322
  369MOL0     H49759   4.861   6.625   8.414 -1.0408 -0.9561 -0.0022
  369MOL0     H49760   4.931   6.765   8.246  1.1916 -1.1097  3.3675
  369MOL0     H49761   4.756   6.732   8.232 -1.0589  1.1913  0.6220
  369MOL0     H49762   4.850   6.982   8.370  2.7557 -1.4459 -0.4583
  369MOL0     H49763   4.702   6.969   8.277  0.4357  0.3290 -1.4414
  369MOL0     H49764   4.836   6.932   8.072 -2.4314  1.0717 -0.6501
  369MOL0     H49765   4.827   7.093   8.132 -0.6153 -0.5900 -1.9757
  369MOL0     H49766   5.091   7.068   8.351 -1.9208  0.3003 -0.8901
  369MOL0     H49767   5.324   6.968   8.390 -1.1455 -0.0954 -0.2382
  369MOL0     H49768   5.430   6.931   8.262  1.7675  0.2448  2.9096
  369MOL0     H49769   5.353   7.233   8.313  0.4274  0.3171  1.2843
  369MOL0     H49770   5.482   7.147   8.388 -0.7701  1.4991 -0.1974
  369MOL0     H49771   5.474   7.119   8.100  1.1389  0.2825 -0.7717
  369MOL0     H49772   5.607   7.110   8.219 -0.5081  0.9801  4.8713
  369MOL0     H49773   5.652   7.311   8.109  0.8819 -1.0395  1.4674
  369MOL0     H49774   5.573   7.371   8.259  1.1683 -0.7476  0.2569
  369MOL0     H49775   5.263   7.538   8.010 -0.2177  0.8002 -1.5498
  369MOL0     H49776   5.288   7.776   7.946  1.0820  1.3866  1.2565
  369MOL0     H49777   5.763   8.114   7.832 -0.9900 -2.4775  0.4619
  369MOL0     H49778   5.777   8.346   7.787 -1.0349  0.7400 -0.0982
  369MOL0     H49779   5.440   8.587   7.936 -0.9789  1.6738 -1.3916
  369MOL0     H49780   5.544   8.725   7.890 -0.2869 -0.2615  3.6479
  369MOL0     H49781   5.572   8.589   7.667 -1.1135 -1.3106 -0.2201
  369MOL0     H49782   5.456   8.472   7.724  3.8102 -1.5125 -1.1425
  369MOL0     H49783   5.290   8.665   7.773 -0.6858 -1.0253 -2.0278
  369MOL0     H49784   5.399   8.772   7.698 -0.0442  0.2583  1.0190
  369MOL0     H49785   5.256   8.545   7.552  0.3822  0.6196 -3.1957
  369MOL0     H49786   5.371   8.665   7.480 -1.4129  0.9108 -1.2497
  369MOL0     H49787   5.106   8.734   7.612  1.2365  0.8946  0.2831
  369MOL0     H49788   5.121   8.700   7.447  0.5919 -1.5339 -0.0151
  369MOL0     H49789   5.139   8.950   7.492  0.6149  1.3809  0.2509
  369MOL0     H49790   5.276   8.913   7.598  3.3181 -1.6076 -0.5306
  369MOL0     H49791   5.284   8.845   7.291  3.8268  1.5473 -2.8454
  369MOL0     H49792   5.413   8.861   7.417 -0.3880  0.8786  0.4364
  369MOL0     H49793   5.281   9.107   7.290 -0.7643  2.2800  1.6939
  369MOL0     H49794   5.361   9.099   7.453 -3.4460  1.2854  0.3411
  369MOL0     H49795   5.497   8.418   8.113  0.8251  0.6642 -0.5637
  369MOL0     H49796   5.504   8.192   8.158  0.1145  3.4078  0.0654
  369MOL0     H49797   5.698   7.777   8.072 -0.7635  2.4134 -1.8961
  369MOL0     H49798   5.680   7.533   8.125 -2.3391 -0.4603  4.2408
  369MOL0     H49799   4.075   6.841   8.301  0.6394  0.0494  1.0734
  369MOL0     H49800   3.834   6.795   8.304 -0.5241 -1.6619 -1.3821
  369MOL0     H49801   3.527   6.452   8.225  4.3864 -0.5213  3.2220
  369MOL0     H49802   3.305   6.421   8.173  0.9673  0.4854 -0.7823
  369MOL0     H49803   3.121   6.582   8.227  0.4867 -1.3159 -1.3073
  369MOL0     H49804   2.953   6.547   8.289  0.9166 -0.8443  2.6345
  369MOL0     H49805   2.950   6.337   8.155 -0.1054 -0.8521 -2.0425
  369MOL0     H49806   3.123   6.379   8.093  0.2881  2.0640 -2.5939
  369MOL0     H49807   3.041   6.569   7.982 -2.1055  3.1864  1.2411
  369MOL0     H49808   2.883   6.551   8.056 -0.7444  0.0809 -0.4643
  369MOL0     H49809   2.850   6.349   7.932 -0.2129 -0.3325  0.3450
  369MOL0     H49810   2.876   6.501   7.840 -0.3248  0.7983  1.9899
  369MOL0     H49811   3.210   6.330   7.695 -0.0208  0.6411  1.3106
  369MOL0     H49812   3.220   6.482   8.603 -2.2628 -1.4077 -1.3220
  369MOL0     H49813   3.446   6.637   8.687  0.4070 -0.1683 -1.0229
  369MOL0     H49814   3.408   6.474   8.750 -1.8250 -0.4119 -1.1463
  369MOL0     H49815   3.578   6.523   8.699  0.3728 -1.4086 -1.6596
  370MOL0     O49816   6.050   5.826   4.104 -0.9167 -0.0594 -0.6547
  370MOL0     C49817   5.956   5.751   4.127  0.0290  0.1618 -0.6748
  370MOL0     O49818   5.931   5.680   4.237 -0.3384 -0.0072  0.2301
  370MOL0     C49819   6.012   5.694   4.345  0.7296 -0.3963 -0.3887
  370MOL0     C49820   6.042   5.818   4.402 -1.0105  1.1017  0.2545
  370MOL0     C49821   6.097   5.832   4.526  0.7062  0.0618  0.5559
  370MOL0     C49822   6.137   5.713   4.592  0.0577 -0.6278  0.2959
  370MOL0     O49823   6.219   5.714   4.699 -0.1472 -0.5809  0.1342
  370MOL0     C49824   6.288   5.839   4.722 -0.0901  0.1169  0.1257
  370MOL0     C49825   6.400   5.829   4.826 -0.7235 -0.3999  0.3472
  370MOL0     C49826   6.525   5.755   4.778  0.7701 -0.3307  0.2644
  370MOL0     C49827   6.616   5.712   4.893 -0.5488  0.3496  0.3039
  370MOL0     C49828   6.759   5.697   4.842 -0.4331 -0.5027  0.2577
  370MOL0     C49829   6.864   5.707   4.954 -0.5026  0.1660 -0.4432
  370MOL0     C49830   6.993   5.784   4.909 -0.1963  1.0630  0.2380
  370MOL0     C49831   7.100   5.769   5.028  1.2516  0.8664  0.0015
  370MOL0     N49832   7.226   5.834   5.006 -0.5795  0.9221  0.1327
  370MOL0     C49833   7.349   5.795   5.053  0.4780  0.0186  0.5815
  370MOL0     C49834   7.421   5.908   5.042  0.4406 -0.5980  0.2738
  370MOL0     C49835   7.570   5.923   5.081  1.0984 -0.1341 -0.6111
  370MOL0     C49836   7.662   6.002   4.988 -0.1633 -0.4634 -0.1239
  370MOL0     C49837   7.696   5.938   4.850  0.1183  0.4271 -0.5411
  370MOL0     C49838   7.808   5.831   4.866  0.2124  0.2936 -0.2734
  370MOL0     O49839   7.939   5.889   4.900  0.6208 -1.0697 -0.0939
  370MOL0     C49840   8.052   5.826   4.923  0.0215 -1.5787  0.0075
  370MOL0     C49841   8.172   5.890   4.906 -0.4077  0.1772  0.8566
  370MOL0     C49842   8.291   5.813   4.927 -0.2147  0.1724 -1.0319
  370MOL0     C49843   8.292   5.678   4.974  0.2370  0.2535 -0.6583
  370MOL0     C49844   8.412   5.603   5.014  0.1386 -0.0047  0.0708
  370MOL0     O49845   8.410   5.467   5.009 -0.2354 -0.2530  1.0723
  370MOL0     C49846   8.529   5.392   5.033 -0.0033 -0.0013 -0.7688
  370MOL0     C49847   8.511   5.260   5.077 -0.5150  0.0236  0.2500
  370MOL0     C49848   8.620   5.174   5.109 -0.2089  0.3144 -0.3830
  370MOL0     C49849   8.749   5.218   5.079 -0.0534  1.2649 -0.1300
  370MOL0     O49850   8.866   5.146   5.101  0.5123  0.0451 -0.6083
  370MOL0     C49851   8.846   5.013   5.139 -0.6574 -0.2295 -0.0767
  370MOL0     C49852   8.983   4.952   5.154  0.2275  0.0109 -0.2554
  370MOL0     C49853   9.059   4.929   5.021 -0.6808  0.5620 -0.5112
  370MOL0     C49854   9.200   4.865   5.036  0.5662 -0.0787  0.5168
  370MOL0     C49855   9.190   4.727   5.108 -0.4406 -0.4462  0.3572
  370MOL0     C49856   9.097   4.624   5.032 -1.7374 -0.4632 -0.1515
  370MOL0     C49857   9.153   4.593   4.890  0.6350  0.1125 -0.2124
  370MOL0     C49858   9.287   4.533   4.871 -0.3640  0.0984 -0.2681
  370MOL0    Cl49859   9.299   4.382   4.961  0.0045 -0.1368 -0.3128
  370MOL0     C49860   8.767   5.349   5.038  0.3044 -0.6380 -0.0800
  370MOL0     C49861   8.661   5.439   5.018 -0.1155  0.8410 -0.1712
  370MOL0     O49862   8.514   5.674   5.037 -0.1137  0.1902 -0.3175
  370MOL0     C49863   8.171   5.617   4.975  1.2254 -0.1814 -0.7964
  370MOL0     C49864   8.051   5.694   4.959 -0.4174  0.3476 -0.7418
  370MOL0     N49865   7.341   6.007   4.989  0.4766  0.3570  0.0073
  370MOL0     N49866   7.228   5.962   4.961  0.2494  0.8527  0.1030
  370MOL0     C49867   6.096   5.588   4.537  0.6863 -0.4678 -0.8047
  370MOL0     C49868   6.034   5.574   4.414  0.6119 -0.0400 -0.2257
  370MOL0     C49869   5.853   5.748   4.030  0.6839  0.0592 -0.1509
  370MOL0     C49870   5.884   5.666   3.922 -0.0578  0.2437 -0.2575
  370MOL0     C49871   5.787   5.650   3.827 -0.7932 -0.7425  0.0655
  370MOL0     C49872   5.667   5.720   3.827 -1.0465  0.0755  1.0015
  370MOL0     O49873   5.580   5.668   3.738 -0.2813  0.2476 -0.4912
  370MOL0     C49874   5.447   5.642   3.779  0.8530 -0.3708  0.0958
  370MOL0     C49875   5.385   5.535   3.684 -0.1366 -0.5522  0.6735
  370MOL0     C49876   5.334   5.573   3.544 -0.0698  0.2436  0.2632
  370MOL0     C49877   5.261   5.463   3.468 -0.0383  0.5022  0.5804
  370MOL0     C49878   5.117   5.467   3.496  0.3824  0.2683 -0.2732
  370MOL0     C49879   4.998   5.459   3.491 -0.6578 -0.0619 -0.5954
  370MOL0     C49880   5.643   5.810   3.939 -0.3915 -0.6421  0.6877
  370MOL0     C49881   5.737   5.821   4.036 -1.0684  0.0885  0.5590
  370MOL0     C49882   5.707   5.920   4.137  0.3223 -0.2809 -0.5242
  370MOL0     H49883   6.013   5.907   4.347 -0.8696  2.7721  2.7556
  370MOL0     H49884   6.116   5.924   4.582 -0.2453 -1.1498  3.0281
  370MOL0     H49885   6.320   5.889   4.630 -0.9256 -0.2483 -0.3745
  370MOL0     H49886   6.210   5.905   4.760 -1.5255 -1.7602  0.5942
  370MOL0     H49887   6.369   5.784   4.921  0.0917 -2.6624 -0.4083
  370MOL0     H49888   6.439   5.929   4.847 -0.2995 -0.0176 -1.9689
  370MOL0     H49889   6.579   5.823   4.711  1.1828  0.4407  1.3585
  370MOL0     H49890   6.495   5.671   4.714 -0.6553 -0.3374  0.8877
  370MOL0     H49891   6.609   5.792   4.967 -1.7052  0.2467  0.3348
  370MOL0     H49892   6.577   5.618   4.934 -2.3469  0.7422 -0.3940
  370MOL0     H49893   6.764   5.608   4.778  0.3297 -0.5624  0.3858
  370MOL0     H49894   6.771   5.787   4.781 -2.5201 -1.4303 -1.6399
  370MOL0     H49895   6.814   5.767   5.030 -1.1532  1.3678 -1.7776
  370MOL0     H49896   6.877   5.609   5.002  0.1370  0.4196 -0.0843
  370MOL0     H49897   6.965   5.889   4.894 -4.5021  0.2448  0.9686
  370MOL0     H49898   7.041   5.733   4.825  3.6225 -0.8610  3.3070
  370MOL0     H49899   7.053   5.795   5.123 -2.9885 -3.8251 -0.3613
  370MOL0     H49900   7.116   5.663   5.049 -1.5460  0.0282 -1.5333
  370MOL0     H49901   7.386   5.702   5.096  1.5110  0.4718  0.7102
  370MOL0     H49902   7.564   5.983   5.171 -2.2125 -1.9371  0.5269
  370MOL0     H49903   7.620   5.827   5.096  2.8885  0.8971  0.3990
  370MOL0     H49904   7.615   6.099   4.971 -1.6150 -0.6237  2.4443
  370MOL0     H49905   7.749   6.027   5.049 -1.6647  1.6963  1.2624
  370MOL0     H49906   7.738   6.013   4.783 -0.2033 -0.4696 -1.7895
  370MOL0     H49907   7.601   5.900   4.809 -0.7377 -0.5142  2.1123
  370MOL0     H49908   7.824   5.762   4.783 -1.0065 -2.1174  1.3606
  370MOL0     H49909   7.764   5.759   4.936 -2.3765  1.4680 -0.5598
  370MOL0     H49910   8.175   5.995   4.880  1.6113 -0.2216 -0.7235
  370MOL0     H49911   8.385   5.868   4.922 -1.5371  2.9095  1.4860
  370MOL0     H49912   8.409   5.224   5.090 -0.7119  0.3088 -0.4778
  370MOL0     H49913   8.598   5.081   5.159 -0.8601 -0.2085 -1.6044
  370MOL0     H49914   8.816   4.996   5.243  0.8048 -1.4418  0.1804
  370MOL0     H49915   8.785   4.959   5.065 -0.8957 -0.9787  0.6508
  370MOL0     H49916   9.046   5.002   5.229  1.0829 -1.2150 -0.1420
  370MOL0     H49917   8.962   4.854   5.197  2.2051  0.2984  1.5669
  370MOL0     H49918   8.982   4.875   4.965 -1.0605  1.9298 -1.3490
  370MOL0     H49919   9.073   5.025   4.970  0.9189  2.1098  2.5463
  370MOL0     H49920   9.257   4.917   5.114 -2.5510 -1.5506  4.0989
  370MOL0     H49921   9.254   4.866   4.941  2.0128  1.3727  1.2969
  370MOL0     H49922   9.144   4.747   5.206  0.0551  4.7598 -0.1720
  370MOL0     H49923   9.290   4.684   5.115 -1.1303 -2.8286 -2.4459
  370MOL0     H49924   9.083   4.532   5.090 -0.9967 -1.6685 -1.7795
  370MOL0     H49925   8.997   4.666   5.018 -1.4408 -0.2912 -2.1272
  370MOL0     H49926   9.160   4.686   4.832  3.3642 -1.5344 -2.8211
  370MOL0     H49927   9.075   4.533   4.842  0.4039 -0.3545  0.7361
  370MOL0     H49928   9.298   4.518   4.763 -1.9871 -1.5370 -0.2633
  370MOL0     H49929   9.355   4.608   4.910 -1.1415  1.8103 -2.0374
  370MOL0     H49930   8.868   5.382   5.015  0.6797 -0.2270  1.9791
  370MOL0     H49931   8.697   5.532   4.975  3.0485 -0.2637 -0.1697
  370MOL0     H49932   8.154   5.515   5.008 -1.3823 -0.1516 -1.8925
  370MOL0     H49933   7.957   5.640   4.971 -0.5323  0.9031  1.3501
  370MOL0     H49934   6.116   5.503   4.601  4.9106  0.4035 -0.6918
  370MOL0     H49935   5.998   5.476   4.387  1.7483 -0.7349  0.6748
  370MOL0     H49936   5.968   5.597   3.921  1.7143  2.2541 -0.5875
  370MOL0     H49937   5.805   5.590   3.738 -3.0453 -0.5131 -0.6183
  370MOL0     H49938   5.382   5.730   3.786 -0.6373 -1.5002  0.8410
  370MOL0     H49939   5.443   5.598   3.879 -1.6267 -1.4329 -0.4041
  370MOL0     H49940   5.294   5.499   3.733 -1.1276 -2.2917 -2.1905
  370MOL0     H49941   5.454   5.450   3.687 -0.7229 -1.1786 -1.6515
  370MOL0     H49942   5.414   5.598   3.473 -0.2137 -2.0010 -0.7801
  370MOL0     H49943   5.274   5.659   3.574  4.5870  2.5580  4.3055
  370MOL0     H49944   5.281   5.475   3.361 -0.2514  1.4971  0.6421
  370MOL0     H49945   5.302   5.366   3.498 -0.4945  0.8800  2.5815
  370MOL0     H49946   4.894   5.435   3.482 -1.9308  2.0290  4.6285
  370MOL0     H49947   5.552   5.869   3.939  0.7658  1.2361  0.8417
  370MOL0     H49948   5.776   6.004   4.122 -1.1032  1.1822  0.7048
  370MOL0     H49949   5.606   5.963   4.134  0.0434 -0.9524 -0.8958
  370MOL0     H49950   5.715   5.886   4.241  0.3130 -1.5647 -0.9278
  371MOL0     O49951   0.340  10.287   4.872  0.0716  0.1735 -0.0024
  371MOL0     C49952   0.365  10.174   4.911  0.3526 -0.0912  0.4261
  371MOL0     O49953   0.490  10.136   4.975 -0.3723 -1.0869 -0.1670
  371MOL0     C49954   0.578  10.228   5.039 -0.1413 -0.1044  1.0402
  371MOL0     C49955   0.579  10.363   5.039  0.7986  0.4114  0.1833
  371MOL0     C49956   0.674  10.440   5.099 -0.5249  0.0280 -0.0643
  371MOL0     C49957   0.783  10.381   5.166  0.0451 -0.1523  0.6693
  371MOL0     O49958   0.891  10.465   5.199 -0.2771 -0.6445 -0.4875
  371MOL0     C49959   0.879  10.529   5.326 -0.0566 -0.1414  0.3357
  371MOL0     C49960   0.980  10.636   5.363  0.2704  0.5173 -0.2724
  371MOL0     C49961   0.983  10.753   5.258  0.5829 -0.0106 -0.4680
  371MOL0     C49962   1.085  10.859   5.294 -0.3349 -0.0469  0.7630
  371MOL0     C49963   1.077  10.919   5.435 -0.6172  0.3819  0.7948
  371MOL0     C49964   1.172  11.042   5.448  0.7243  0.5101  0.7120
  371MOL0     C49965   1.148  11.154   5.367  0.3321 -0.5151  1.2254
  371MOL0     C49966   1.197  11.286   5.444 -0.9990 -0.3047  0.1819
  371MOL0     N49967   1.184  11.403   5.359  0.4113  0.0977  0.4376
  371MOL0     C49968   1.290  11.486   5.342 -0.5032 -0.1992  0.3024
  371MOL0     C49969   1.266  11.565   5.230 -1.5063 -0.8895 -0.8011
  371MOL0     C49970   1.351  11.678   5.173  0.0419 -0.0100 -0.2870
  371MOL0     C49971   1.375  11.663   5.030  0.5166  0.2537  0.2812
  371MOL0     C49972   1.428  11.526   4.992  0.7435  0.9552  0.1034
  371MOL0     C49973   1.558  11.483   5.060 -0.0248 -0.3487 -0.5735
  371MOL0     O49974   1.620  11.379   4.979 -1.0765  0.8811  0.3587
  371MOL0     C49975   1.746  11.327   5.016  0.9029 -0.4407  0.3207
  371MOL0     C49976   1.796  11.243   4.918  0.3120  0.5358  0.4795
  371MOL0     C49977   1.926  11.193   4.929  0.7431 -0.6644  0.2920
  371MOL0     C49978   2.002  11.223   5.047 -0.2972  0.1025 -0.1641
  371MOL0     C49979   2.134  11.165   5.072 -0.3078  0.0400  0.8209
  371MOL0     O49980   2.207  11.130   4.950  0.3130  0.0857 -0.3424
  371MOL0     C49981   2.327  11.068   4.969 -0.2909  0.1768 -0.9278
  371MOL0     C49982   2.423  11.126   5.051  0.5011 -0.5550 -0.2233
  371MOL0     C49983   2.549  11.073   5.058  0.9127  0.1275 -0.6984
  371MOL0     C49984   2.589  10.969   4.983  0.1747  0.5327 -0.0601
  371MOL0     O49985   2.717  10.928   4.998 -0.0094  0.0207 -0.3576
  371MOL0     C49986   2.748  10.795   4.959  0.4082 -1.0967 -0.0875
  371MOL0     C49987   2.894  10.751   4.972 -0.0165 -0.5760  0.0713
  371MOL0     C49988   2.929  10.719   5.116  0.4701 -0.4748 -0.1085
  371MOL0     C49989   3.083  10.679   5.114  0.7838 -1.0716 -0.0258
  371MOL0     C49990   3.130  10.723   5.245 -0.0191 -0.1889 -0.3867
  371MOL0     C49991   3.274  10.685   5.273  0.6817 -0.5893  0.4203
  371MOL0     C49992   3.330  10.737   5.406  0.2756  0.1844  0.1662
  371MOL0     C49993   3.392  10.630   5.495 -0.1610  0.7154  0.7859
  371MOL0    Cl49994   3.276  10.495   5.523 -0.1518 -0.1816  0.3895
  371MOL0     C49995   2.490  10.908   4.895 -0.4890  0.5696  0.1139
  371MOL0     C49996   2.362  10.966   4.883  0.2618  0.3790 -0.2831
  371MOL0     O49997   2.177  11.153   5.189 -0.1692 -0.6940 -0.1579
  371MOL0     C49998   1.947  11.310   5.151  0.5857  0.1987  0.6322
  371MOL0     C49999   1.817  11.357   5.128  0.3209 -0.8121 -0.1011
  371MOL0     N50000   1.139  11.536   5.198 -0.1154  0.1645  0.8912
  371MOL0     N50001   1.091  11.441   5.277  0.9506 -0.1327  0.4573
  371MOL0     C50002   0.785  10.241   5.181 -0.6154 -0.2658  0.1841
  371MOL0     C50003   0.685  10.170   5.109  0.8731 -0.0586  0.3786
  371MOL0     C50004   0.247  10.078   4.907 -0.6840 -0.6614 -0.3390
  371MOL0     C50005   0.252   9.957   4.985  0.2486  0.7255 -1.0139
  371MOL0     C50006   0.151   9.862   4.973 -0.5210  0.0363 -0.0244
  371MOL0     C50007   0.026   9.883   4.909 -0.3730 -0.1227 -0.9892
  371MOL0     O50008  -0.078   9.796   4.889 -0.3946 -0.1718 -0.1022
  371MOL0     C50009  -0.118   9.718   5.001 -0.0919 -0.4487  0.0720
  371MOL0     C50010  -0.270   9.697   4.996 -0.1987 -0.0103  0.5241
  371MOL0     C50011  -0.309   9.630   5.129 -0.2450  0.2143  0.8832
  371MOL0     C50012  -0.466   9.638   5.153 -0.2589 -0.1445  0.8418
  371MOL0     C50013  -0.505   9.633   5.288 -0.3829  0.6218  0.0159
  371MOL0     C50014  -0.541   9.615   5.401  0.1948 -0.1339  0.9346
  371MOL0     C50015   0.021  10.003   4.843  0.6246  0.4000 -0.2740
  371MOL0     C50016   0.119  10.102   4.840 -0.1089 -0.4933 -0.3256
  371MOL0     C50017   0.094  10.219   4.747 -0.0482  0.1060  0.5422
  371MOL0     H50018   0.496  10.415   4.992 -0.2847 -0.9338  0.5196
  371MOL0     H50019   0.649  10.545   5.083 -2.2285 -0.4946 -1.1157
  371MOL0     H50020   0.786  10.588   5.329 -1.9677 -2.9066  3.4960
  371MOL0     H50021   0.877  10.448   5.400 -0.7971 -0.8497 -0.4394
  371MOL0     H50022   1.077  10.585   5.365 -1.1273 -2.2882  1.1285
  371MOL0     H50023   0.963  10.663   5.468 -3.7988 -0.7084 -0.4534
  371MOL0     H50024   0.886  10.803   5.261  0.8039  0.6442 -2.5810
  371MOL0     H50025   1.012  10.715   5.160 -1.7169  0.4487 -1.4067
  371MOL0     H50026   1.183  10.810   5.283  1.4181  3.5535 -1.7826
  371MOL0     H50027   1.091  10.941   5.222  1.4724 -0.3652  0.4952
  371MOL0     H50028   0.974  10.952   5.447 -1.0754 -0.8304  0.3516
  371MOL0     H50029   1.115  10.858   5.518 -1.8142  1.9000  2.5368
  371MOL0     H50030   1.155  11.073   5.552  2.3867 -1.0964  1.5329
  371MOL0     H50031   1.277  11.016   5.463  1.4496  3.2811  0.9379
  371MOL0     H50032   1.043  11.157   5.337  0.9651 -0.2473 -1.1194
  371MOL0     H50033   1.203  11.154   5.273 -0.2384  1.0840  0.8617
  371MOL0     H50034   1.137  11.309   5.533  2.5935 -2.2330  3.3770
  371MOL0     H50035   1.295  11.272   5.491 -1.7308 -0.5186  1.7267
  371MOL0     H50036   1.380  11.477   5.403 -1.0657 -1.2670  0.9927
  371MOL0     H50037   1.283  11.762   5.183 -0.0906 -0.2968  1.6024
  371MOL0     H50038   1.446  11.691   5.227 -1.8815  0.8494  3.1687
  371MOL0     H50039   1.285  11.693   4.976 -0.4373 -0.6073  1.3446
  371MOL0     H50040   1.451  11.739   5.009  0.6867  0.0974  0.3273
  371MOL0     H50041   1.444  11.529   4.884 -0.8901  2.5206 -0.1442
  371MOL0     H50042   1.348  11.454   5.010  0.3422  1.0200 -1.2793
  371MOL0     H50043   1.538  11.443   5.159 -1.0279 -0.8747 -0.9727
  371MOL0     H50044   1.628  11.566   5.062  0.6502 -0.8523 -1.9132
  371MOL0     H50045   1.735  11.204   4.838  0.9238  1.1064 -0.2693
  371MOL0     H50046   1.957  11.128   4.848 -0.0967 -1.8897  0.9188
  371MOL0     H50047   2.403  11.206   5.122  0.7562 -1.0796  0.4499
  371MOL0     H50048   2.626  11.123   5.116  0.8645 -0.8403  0.2338
  371MOL0     H50049   2.690  10.732   5.027 -3.6715 -0.2703 -2.4547
  371MOL0     H50050   2.711  10.769   4.859 -0.4553 -3.1114  0.7007
  371MOL0     H50051   2.903  10.662   4.909  0.7380  0.5613 -1.5145
  371MOL0     H50052   2.960  10.830   4.936  0.5233 -0.3213  1.5643
  371MOL0     H50053   2.902  10.805   5.179 -0.3101 -0.0858 -0.9469
  371MOL0     H50054   2.862  10.639   5.147 -2.5961  2.6326  2.1380
  371MOL0     H50055   3.145  10.723   5.034 -0.3957 -1.7883 -1.3734
  371MOL0     H50056   3.080  10.570   5.103  0.7543 -1.0810  0.0857
  371MOL0     H50057   3.066  10.683   5.324  0.4550 -0.1702  0.0180
  371MOL0     H50058   3.124  10.832   5.254 -1.8947 -0.3252  0.3914
  371MOL0     H50059   3.287  10.577   5.257  0.5169 -0.3106 -2.0929
  371MOL0     H50060   3.335  10.736   5.198 -0.4016  4.9265  2.8491
  371MOL0     H50061   3.244  10.784   5.453 -1.7914 -0.8480 -2.3631
  371MOL0     H50062   3.405  10.810   5.374  0.4325 -1.1152 -2.7785
  371MOL0     H50063   3.479  10.582   5.449 -1.5819  0.5199 -1.8790
  371MOL0     H50064   3.418  10.667   5.595 -1.9063  0.5264  1.3327
  371MOL0     H50065   2.519  10.816   4.845 -2.0103 -0.5546  1.2297
  371MOL0     H50066   2.293  10.933   4.806  2.6105  0.1052 -2.4304
  371MOL0     H50067   1.992  11.338   5.246  0.0487  1.3181  0.5678
  371MOL0     H50068   1.780  11.431   5.198  1.5659 -0.6403  0.4054
  371MOL0     H50069   0.872  10.195   5.225 -0.9514  0.4633  1.7008
  371MOL0     H50070   0.689  10.061   5.112  2.4555 -0.0486 -0.3369
  371MOL0     H50071   0.343   9.934   5.041  0.8022 -0.8141 -2.4481
  371MOL0     H50072   0.160   9.768   5.027  2.1244  1.0986  1.5605
  371MOL0     H50073  -0.075   9.770   5.088 -0.2023 -2.6792  1.5301
  371MOL0     H50074  -0.074   9.620   4.985  3.1092  0.8984 -0.1185
  371MOL0     H50075  -0.290   9.616   4.925  2.9327 -2.5458  2.2615
  371MOL0     H50076  -0.318   9.792   4.971 -1.3251 -0.7028 -0.0527
  371MOL0     H50077  -0.260   9.677   5.215  0.2143 -0.3600  0.9391
  371MOL0     H50078  -0.272   9.527   5.127  0.4914  0.4839  0.2609
  371MOL0     H50079  -0.508   9.736   5.128 -1.1902  0.1053  3.1466
  371MOL0     H50080  -0.510   9.560   5.091  1.8858  1.3954 -2.9636
  371MOL0     H50081  -0.578   9.619   5.501  0.7635 -1.3785  1.2120
  371MOL0     H50082  -0.064  10.008   4.775  0.4335  0.4286 -0.0346
  371MOL0     H50083   0.185  10.222   4.686  0.1714 -3.0439  0.5152
  371MOL0     H50084   0.016  10.204   4.671  1.1404 -2.2108 -0.3390
  371MOL0     H50085   0.075  10.310   4.805  1.5341  1.1808 -0.5614
  372MOL0     O50086   3.398   6.582  10.366  0.3593 -0.4760  0.2509
  372MOL0     C50087   3.369   6.584  10.489 -0.3407 -0.6459 -0.6012
  372MOL0     O50088   3.458   6.568  10.603 -0.5455 -0.4780  0.4886
  372MOL0     C50089   3.591   6.540  10.591  0.2187  0.4480 -0.5331
  372MOL0     C50090   3.638   6.430  10.521  0.3575 -0.8817  1.1704
  372MOL0     C50091   3.775   6.393  10.510 -0.1984  0.2487 -0.1034
  372MOL0     C50092   3.875   6.467  10.580 -0.3131 -0.5474 -0.5568
  372MOL0     O50093   4.001   6.424  10.584  0.3623 -0.5879  0.3646
  372MOL0     C50094   4.100   6.492  10.659  0.6159  0.2938  0.0323
  372MOL0     C50095   4.231   6.417  10.632 -0.5207  0.9097 -0.4979
  372MOL0     C50096   4.359   6.481  10.700  0.1809  0.7105 -0.0655
  372MOL0     C50097   4.470   6.381  10.674  0.2978 -0.8710  0.9896
  372MOL0     C50098   4.588   6.394  10.765 -1.0113 -0.8295 -0.4067
  372MOL0     C50099   4.707   6.314  10.718  0.6762  0.3452 -0.2952
  372MOL0     C50100   4.827   6.340  10.794 -0.4479 -0.3414  0.5749
  372MOL0     C50101   4.939   6.244  10.744 -0.1072 -0.0521 -0.5866
  372MOL0     N50102   5.018   6.280  10.620 -0.8601 -1.0670  0.5214
  372MOL0     C50103   4.990   6.384  10.532  0.3083 -0.3911 -0.1869
  372MOL0     C50104   5.087   6.370  10.431  0.8559 -0.7335 -1.0637
  372MOL0     C50105   5.099   6.448  10.302  0.5043  0.1639 -0.0105
  372MOL0     C50106   5.185   6.564  10.327 -0.1389  0.7716  0.2774
  372MOL0     C50107   5.198   6.642  10.197  0.9250 -0.4369 -0.2665
  372MOL0     C50108   5.324   6.720  10.192 -0.6070 -1.0079  0.9975
  372MOL0     O50109   5.339   6.840  10.274  0.3714  0.1697 -0.1952
  372MOL0     C50110   5.466   6.895  10.285  0.2558 -0.9232  0.0716
  372MOL0     C50111   5.575   6.856  10.211  0.7556  0.8546  0.3540
  372MOL0     C50112   5.697   6.926  10.218 -0.8444  0.4260 -0.4129
  372MOL0     C50113   5.714   7.033  10.312  0.0105  0.0993  0.0979
  372MOL0     C50114   5.849   7.093  10.349 -0.0218 -0.2721 -0.0459
  372MOL0     O50115   5.956   7.021  10.298 -0.2564 -0.9480 -0.0267
  372MOL0     C50116   6.088   7.064  10.326 -0.1380  0.3242  0.0408
  372MOL0     C50117   6.181   6.978  10.387 -0.4734  0.5068 -0.3105
  372MOL0     C50118   6.312   7.026  10.414  1.1688  0.6335 -0.1500
  372MOL0     C50119   6.343   7.164  10.383 -0.1990  0.4441  0.7480
  372MOL0     O50120   6.471   7.208  10.406 -0.5380 -0.3677  0.4064
  372MOL0     C50121   6.547   7.231  10.289  0.3636  1.0709 -0.6340
  372MOL0     C50122   6.702   7.236  10.316 -0.3815  0.1199 -0.7104
  372MOL0     C50123   6.755   7.346  10.406 -0.7808  0.0094  0.0640
  372MOL0     C50124   6.904   7.350  10.406  0.2022 -0.0843 -0.2472
  372MOL0     C50125   6.970   7.381  10.548  0.0461  0.1790 -0.6093
  372MOL0     C50126   7.115   7.352  10.557  0.3830  0.2849 -0.0101
  372MOL0     C50127   7.177   7.413  10.682 -0.1054  0.6992  0.0572
  372MOL0     C50128   7.325   7.396  10.690  0.3948  1.1027 -0.1700
  372MOL0    Cl50129   7.328   7.226  10.753 -0.3090 -0.3563  0.2023
  372MOL0     C50130   6.248   7.253  10.333  1.0844  0.2973  0.0987
  372MOL0     C50131   6.116   7.200  10.314  0.3141 -1.0729  0.7298
  372MOL0     O50132   5.856   7.194  10.422 -0.4259  0.0822  0.2326
  372MOL0     C50133   5.597   7.081  10.377 -0.3818 -0.2182 -0.0855
  372MOL0     C50134   5.481   7.010  10.368  0.1007  0.1235 -0.7839
  372MOL0     N50135   5.169   6.269  10.470  0.1292 -0.0842  0.2977
  372MOL0     N50136   5.128   6.210  10.574  0.2722 -0.3213 -0.0200
  372MOL0     C50137   3.824   6.576  10.655 -0.0134  0.4467 -0.8722
  372MOL0     C50138   3.685   6.607  10.671  0.1422  1.1621  1.0412
  372MOL0     C50139   3.228   6.606  10.537 -0.8836 -0.6264 -0.7264
  372MOL0     C50140   3.202   6.678  10.653  0.1745  0.7716 -0.2518
  372MOL0     C50141   3.075   6.706  10.694 -0.7836  0.2864 -0.5250
  372MOL0     C50142   2.964   6.659  10.619  0.2199 -0.9751 -0.5549
  372MOL0     O50143   2.831   6.660  10.648 -0.5600 -0.0463 -0.3487
  372MOL0     C50144   2.783   6.685  10.777 -0.3501 -0.0154 -0.4281
  372MOL0     C50145   2.824   6.577  10.883  0.7648  0.8648 -0.1341
  372MOL0     C50146   2.733   6.573  11.018 -0.9063  1.0104 -0.6059
  372MOL0     C50147   2.597   6.519  10.988  0.2740  0.6404  0.3793
  372MOL0     C50148   2.593   6.381  10.945  0.1086  0.8624  0.1217
  372MOL0     C50149   2.618   6.266  10.906 -0.0664  0.8411 -0.4406
  372MOL0     C50150   2.991   6.582  10.511  0.1001  1.2690  0.5308
  372MOL0     C50151   3.114   6.559  10.461 -0.3484  0.1782 -0.1434
  372MOL0     C50152   3.114   6.484  10.324 -0.2086 -0.3188  0.4011
  372MOL0     H50153   3.557   6.385  10.464  0.5835  1.4410 -1.1565
  372MOL0     H50154   3.804   6.303  10.457 -2.7377 -0.9723  0.4480
  372MOL0     H50155   4.105   6.587  10.604 -0.3875 -0.9164 -2.3252
  372MOL0     H50156   4.078   6.493  10.766  1.3710  0.0643  0.1951
  372MOL0     H50157   4.251   6.414  10.525  2.9556 -1.1669  0.0395
  372MOL0     H50158   4.213   6.318  10.675 -2.1244  0.8824 -1.1848
  372MOL0     H50159   4.357   6.500  10.807  4.6952  2.8032 -0.1062
  372MOL0     H50160   4.384   6.576  10.650  1.0575  0.2861 -0.4637
  372MOL0     H50161   4.429   6.281  10.685 -0.6056 -0.4345  1.7481
  372MOL0     H50162   4.495   6.403  10.570 -3.2374  1.9307  0.5106
  372MOL0     H50163   4.615   6.500  10.756 -0.9653 -0.8599 -0.6231
  372MOL0     H50164   4.569   6.383  10.872  0.8172 -1.3266 -0.0904
  372MOL0     H50165   4.698   6.205  10.716  0.6839  0.3451 -2.5284
  372MOL0     H50166   4.710   6.347  10.614 -1.7683 -0.8559 -0.8290
  372MOL0     H50167   4.801   6.318  10.898 -2.5283 -1.4215 -0.1198
  372MOL0     H50168   4.865   6.442  10.794  3.7938 -1.6662 -1.6724
  372MOL0     H50169   5.019   6.229  10.818 -0.6047 -1.2891 -0.2636
  372MOL0     H50170   4.900   6.143  10.728 -0.4819  0.0736 -0.4648
  372MOL0     H50171   4.914   6.461  10.543  2.0168  1.1510  1.5885
  372MOL0     H50172   5.136   6.384  10.221 -0.4848 -1.3558  0.6728
  372MOL0     H50173   5.001   6.481  10.269  0.2557 -1.1715 -0.6853
  372MOL0     H50174   5.162   6.644  10.398  4.5518  2.0101  0.7188
  372MOL0     H50175   5.283   6.524  10.352 -1.1178 -2.1254 -0.2008
  372MOL0     H50176   5.111   6.704  10.175 -1.7585 -3.8060  0.1306
  372MOL0     H50177   5.201   6.578  10.109  2.2545 -1.1155  0.2225
  372MOL0     H50178   5.329   6.758  10.089  2.0273 -0.5522  1.2101
  372MOL0     H50179   5.418   6.664  10.194  0.3894  0.3535 -1.7623
  372MOL0     H50180   5.565   6.782  10.133 -1.5276  1.7637 -0.2907
  372MOL0     H50181   5.779   6.897  10.153 -2.1128 -2.1693 -0.9988
  372MOL0     H50182   6.154   6.877  10.413 -2.3620  0.0215 -3.5490
  372MOL0     H50183   6.385   6.975  10.475  1.2212  0.1902 -0.5856
  372MOL0     H50184   6.527   7.145  10.224 -0.4063  1.5139 -1.0020
  372MOL0     H50185   6.503   7.312  10.230 -3.9098 -1.1149 -0.8830
  372MOL0     H50186   6.742   7.137  10.341 -0.1128  0.7766  1.6543
  372MOL0     H50187   6.755   7.245  10.221 -1.7530 -0.0389 -1.5186
  372MOL0     H50188   6.721   7.441  10.364 -1.4217 -0.3723 -0.3100
  372MOL0     H50189   6.716   7.331  10.507  0.6554 -0.0677  0.6265
  372MOL0     H50190   6.942   7.419  10.330  0.9362 -0.2834 -0.0741
  372MOL0     H50191   6.951   7.255  10.377 -0.1138  0.5728 -3.2881
  372MOL0     H50192   6.917   7.315  10.618  0.9082  0.5883  0.4515
  372MOL0     H50193   6.933   7.480  10.577 -2.9862 -1.3506  1.3786
  372MOL0     H50194   7.137   7.245  10.557  1.7045  0.4997  1.7470
  372MOL0     H50195   7.156   7.397  10.467 -3.9612  1.1293 -1.7928
  372MOL0     H50196   7.127   7.386  10.775  0.2229  3.9459  1.3030
  372MOL0     H50197   7.157   7.520  10.688  0.1178  0.7172  0.4889
  372MOL0     H50198   7.368   7.399  10.590 -0.8138  0.7231 -0.7116
  372MOL0     H50199   7.367   7.462  10.767 -2.5355  0.7921  1.8569
  372MOL0     H50200   6.262   7.359  10.315 -2.5727  0.8906  0.0037
  372MOL0     H50201   6.039   7.266  10.276 -0.3056  0.2006  3.8904
  372MOL0     H50202   5.598   7.163  10.448 -2.1991 -0.6313  0.4537
  372MOL0     H50203   5.397   7.052  10.423  1.3807  0.3778  1.0568
  372MOL0     H50204   3.879   6.633  10.729 -0.4079 -1.4987  1.0120
  372MOL0     H50205   3.661   6.693  10.733 -1.1125  0.6227  1.3493
  372MOL0     H50206   3.278   6.720  10.718  0.1361 -1.4099  1.3329
  372MOL0     H50207   3.058   6.755  10.789 -2.5279  0.1027 -0.7096
  372MOL0     H50208   2.674   6.674  10.765 -0.2495  1.3772 -3.7482
  372MOL0     H50209   2.812   6.787  10.803  0.4381 -0.1189 -0.9019
  372MOL0     H50210   2.930   6.587  10.908  1.5296 -1.9473 -1.8405
  372MOL0     H50211   2.822   6.475  10.843  1.6298  1.1853 -1.0235
  372MOL0     H50212   2.725   6.675  11.056  0.7599  1.9087 -2.4726
  372MOL0     H50213   2.791   6.505  11.082 -0.2669 -1.6286 -3.7254
  372MOL0     H50214   2.532   6.530  11.075  0.4169  2.4326  0.2936
  372MOL0     H50215   2.563   6.573  10.899  0.3546 -0.5504 -0.3982
  372MOL0     H50216   2.638   6.166  10.876  1.2615  1.3126 -1.2170
  372MOL0     H50217   2.903   6.542  10.462  0.4210 -0.4766  1.3051
  372MOL0     H50218   3.021   6.434  10.294  0.3423  0.7888 -3.5841
  372MOL0     H50219   3.123   6.565  10.252 -1.9189 -0.9255 -0.5628
  372MOL0     H50220   3.191   6.407  10.311 -1.0083 -0.8768 -1.3118
  373MOL0     O50221   0.601   6.526   3.097  0.4550 -0.7293  0.2444
  373MOL0     C50222   0.576   6.480   3.205 -0.3530 -0.0176  0.2828
  373MOL0     O50223   0.662   6.491   3.312  0.2451 -0.2696  0.5507
  373MOL0     C50224   0.786   6.547   3.320  0.4491 -1.0617  0.8201
  373MOL0     C50225   0.858   6.634   3.231  0.0146  0.1092  0.3028
  373MOL0     C50226   0.990   6.677   3.269  0.5713 -0.1899 -0.0039
  373MOL0     C50227   1.039   6.649   3.395  0.6619  0.4345 -0.0352
  373MOL0     O50228   1.162   6.687   3.430  0.3965  0.0439 -0.1836
  373MOL0     C50229   1.254   6.591   3.489  0.2410  0.0782 -0.0071
  373MOL0     C50230   1.388   6.659   3.466 -0.1650 -0.1509  0.1606
  373MOL0     C50231   1.502   6.576   3.538 -0.3592 -0.3842 -0.0190
  373MOL0     C50232   1.648   6.634   3.509 -0.4963  0.5580 -0.5508
  373MOL0     C50233   1.681   6.633   3.356  0.1924 -0.2946 -0.0710
  373MOL0     C50234   1.703   6.492   3.308  0.0372 -0.1920 -0.7839
  373MOL0     C50235   1.765   6.494   3.175  0.8737 -0.1146 -0.2819
  373MOL0     C50236   1.752   6.359   3.105  0.3671 -0.1689 -0.3878
  373MOL0     N50237   1.832   6.355   2.974 -0.4497  0.1356  0.6941
  373MOL0     C50238   1.784   6.400   2.858 -0.3772 -0.0331  0.5174
  373MOL0     C50239   1.895   6.390   2.780  0.8064  0.3022  1.3052
  373MOL0     C50240   1.890   6.453   2.640  0.2112 -0.7282  0.1466
  373MOL0     C50241   1.833   6.357   2.538  0.9518  0.0001 -1.1231
  373MOL0     C50242   1.883   6.206   2.544 -0.0184 -1.5697  0.0987
  373MOL0     C50243   2.025   6.191   2.495  0.2931 -0.0127 -1.0816
  373MOL0     O50244   2.048   6.267   2.371  1.2117 -0.3106  0.2258
  373MOL0     C50245   2.131   6.207   2.277  0.3742 -0.2765  0.0088
  373MOL0     C50246   2.238   6.130   2.311 -0.5595 -0.4041  0.2545
  373MOL0     C50247   2.328   6.074   2.217  0.4156 -0.0326  0.1076
  373MOL0     C50248   2.298   6.086   2.078  0.3541 -0.1142  0.0274
  373MOL0     C50249   2.368   6.001   1.976 -0.4325  0.2963  0.1671
  373MOL0     O50250   2.342   6.029   1.850  0.2915 -0.1152 -0.2921
  373MOL0     C50251   2.373   5.953   1.745 -0.5027  0.6902  0.6676
  373MOL0     C50252   2.345   6.013   1.623  1.0842  0.1113  0.0722
  373MOL0     C50253   2.369   5.956   1.497  0.0668 -0.1973  0.4009
  373MOL0     C50254   2.420   5.832   1.489 -0.5243  1.1419 -0.2489
  373MOL0     O50255   2.439   5.755   1.378  0.8389  0.6160  0.2825
  373MOL0     C50256   2.325   5.701   1.310  0.0170 -1.2017  0.1862
  373MOL0     C50257   2.256   5.812   1.229 -0.3182  0.2684 -0.4452
  373MOL0     C50258   2.140   5.761   1.131 -0.6453  0.6861  0.7436
  373MOL0     C50259   2.035   5.678   1.213  0.2149  0.6125 -0.4827
  373MOL0     C50260   1.912   5.665   1.124  0.9202  0.2566 -0.6574
  373MOL0     C50261   1.804   5.579   1.190  0.5411  0.0115 -0.0489
  373MOL0     C50262   1.692   5.568   1.093 -0.8276 -0.6633 -0.4575
  373MOL0     C50263   1.577   5.496   1.164  0.1224 -0.4630 -0.0915
  373MOL0    Cl50264   1.629   5.349   1.242 -0.2772 -0.1401 -0.0404
  373MOL0     C50265   2.457   5.773   1.610 -0.2886 -0.1154 -0.2434
  373MOL0     C50266   2.435   5.828   1.737  0.4331 -0.8153 -0.0428
  373MOL0     O50267   2.422   5.892   2.014  0.9800 -0.2217 -0.2169
  373MOL0     C50268   2.190   6.171   2.045 -0.1292 -0.5181  0.4200
  373MOL0     C50269   2.109   6.228   2.145 -0.4258  0.0234 -0.2196
  373MOL0     N50270   2.007   6.345   2.851 -0.2054  0.3022  0.7576
  373MOL0     N50271   1.962   6.315   2.967  0.3434 -0.0876  0.7193
  373MOL0     C50272   0.961   6.578   3.480 -0.1776 -0.2161  0.6655
  373MOL0     C50273   0.842   6.527   3.442 -0.3225  0.4750 -0.3390
  373MOL0     C50274   0.440   6.408   3.229 -0.4231  0.1034  1.0866
  373MOL0     C50275   0.377   6.427   3.350 -0.4673 -1.1149  0.1170
  373MOL0     C50276   0.247   6.393   3.362 -0.0262 -0.0421 -0.1086
  373MOL0     C50277   0.166   6.328   3.258 -0.2738  0.3603  0.0966
  373MOL0     O50278   0.037   6.305   3.285  0.5556  0.6398  0.6152
  373MOL0     C50279  -0.052   6.407   3.255  0.0765  0.0390  0.4498
  373MOL0     C50280  -0.050   6.510   3.378  0.3491  0.2345  0.2735
  373MOL0     C50281  -0.158   6.619   3.387  0.6175  0.5623  0.3351
  373MOL0     C50282  -0.293   6.564   3.424  0.7416  0.8960 -0.7810
  373MOL0     C50283  -0.368   6.677   3.478  1.1788  0.1024  0.4148
  373MOL0     C50284  -0.435   6.778   3.518  0.2491  0.9477 -0.9975
  373MOL0     C50285   0.235   6.296   3.141  0.5301 -0.4343 -0.1270
  373MOL0     C50286   0.371   6.332   3.130 -0.0456  0.0136 -0.3766
  373MOL0     C50287   0.424   6.312   2.988 -0.3785 -0.3377  0.5909
  373MOL0     H50288   0.813   6.675   3.141 -1.5643 -3.2172 -0.5968
  373MOL0     H50289   1.044   6.744   3.203 -1.2782  0.2622 -1.1304
  373MOL0     H50290   1.227   6.578   3.594 -0.6965 -1.7978 -0.4441
  373MOL0     H50291   1.241   6.495   3.438  2.4097 -0.6516  0.7276
  373MOL0     H50292   1.378   6.757   3.513 -0.7626 -0.1912  0.1201
  373MOL0     H50293   1.405   6.680   3.360 -0.0205  4.6226  0.9224
  373MOL0     H50294   1.512   6.480   3.485  0.0466  0.4293 -1.4706
  373MOL0     H50295   1.490   6.573   3.646 -0.6577 -0.0770 -0.0419
  373MOL0     H50296   1.663   6.731   3.557 -3.2652 -0.1496  2.0656
  373MOL0     H50297   1.715   6.570   3.567 -0.5898  1.0636  0.1301
  373MOL0     H50298   1.606   6.685   3.296  0.9244  0.9236  0.0510
  373MOL0     H50299   1.774   6.690   3.348 -0.4181  0.4789 -2.6024
  373MOL0     H50300   1.772   6.431   3.366  2.1666  3.1611  0.5085
  373MOL0     H50301   1.606   6.443   3.307 -0.5933  1.0152 -1.2914
  373MOL0     H50302   1.871   6.520   3.180  1.1211 -0.9457 -1.0017
  373MOL0     H50303   1.713   6.573   3.120 -2.5151 -2.0391 -0.1049
  373MOL0     H50304   1.791   6.282   3.173  0.3420  0.0642 -0.1098
  373MOL0     H50305   1.649   6.328   3.082  0.8184 -1.2170 -1.0543
  373MOL0     H50306   1.699   6.466   2.845 -0.8934 -0.3837  1.9485
  373MOL0     H50307   1.839   6.549   2.627  0.0613 -1.1499 -3.1080
  373MOL0     H50308   1.995   6.475   2.617  0.5113 -1.9523  0.2684
  373MOL0     H50309   1.727   6.363   2.564  0.9405  0.4343 -1.2681
  373MOL0     H50310   1.837   6.397   2.436 -2.2433  0.8591 -1.0246
  373MOL0     H50311   1.824   6.149   2.471 -1.8689  0.2448  0.0950
  373MOL0     H50312   1.878   6.164   2.645  0.7920 -4.2385 -0.8804
  373MOL0     H50313   2.039   6.083   2.497 -1.8636 -0.3293  1.4961
  373MOL0     H50314   2.092   6.234   2.571  0.5965  1.6244 -2.2009
  373MOL0     H50315   2.274   6.106   2.410  1.3550  0.7550 -0.1163
  373MOL0     H50316   2.409   6.011   2.254 -0.1257  0.1386  1.6727
  373MOL0     H50317   2.303   6.113   1.617 -0.8076 -0.6614 -0.2843
  373MOL0     H50318   2.342   6.002   1.403  1.2992 -2.1385 -0.9905
  373MOL0     H50319   2.362   5.633   1.233 -0.1342 -1.6158  0.4819
  373MOL0     H50320   2.257   5.647   1.376  0.2330 -0.5675  0.9435
  373MOL0     H50321   2.206   5.874   1.305  0.0278  1.7884 -1.4225
  373MOL0     H50322   2.336   5.864   1.177  1.0686 -0.7382  0.6099
  373MOL0     H50323   2.085   5.846   1.090 -3.0195 -0.6399  1.0253
  373MOL0     H50324   2.190   5.697   1.058  2.3230  2.0799  1.4137
  373MOL0     H50325   2.019   5.715   1.314  0.3637 -2.0092  0.5734
  373MOL0     H50326   2.073   5.579   1.238 -1.9365  0.0795  0.9839
  373MOL0     H50327   1.932   5.627   1.024 -2.2258  2.8636 -2.4957
  373MOL0     H50328   1.867   5.764   1.108  1.0206  0.6059  0.9604
  373MOL0     H50329   1.843   5.484   1.229 -0.6483 -0.3640  0.2624
  373MOL0     H50330   1.761   5.630   1.276  0.8367  0.7312 -0.3206
  373MOL0     H50331   1.720   5.510   1.005  1.0310 -0.7340  0.1360
  373MOL0     H50332   1.666   5.671   1.069  1.1283 -0.4175 -1.7567
  373MOL0     H50333   1.545   5.562   1.245  1.3501 -0.1450  0.1647
  373MOL0     H50334   1.484   5.477   1.110 -1.0946  2.8059  0.6256
  373MOL0     H50335   2.504   5.675   1.615  0.7375  0.3937  0.4534
  373MOL0     H50336   2.478   5.775   1.821  1.9976  1.1780  0.5082
  373MOL0     H50337   2.161   6.193   1.943 -0.6671 -1.4676  0.3556
  373MOL0     H50338   2.028   6.286   2.100  1.6450  2.0852 -1.4999
  373MOL0     H50339   0.984   6.555   3.584 -2.0192  2.4937  1.8249
  373MOL0     H50340   0.782   6.464   3.507  1.3406 -1.1103 -0.2724
  373MOL0     H50341   0.434   6.470   3.432 -1.5854 -1.6371  1.1998
  373MOL0     H50342   0.210   6.418   3.461  0.1863 -0.0186 -0.0340
  373MOL0     H50343  -0.153   6.367   3.241 -0.2272  1.3545 -1.5974
  373MOL0     H50344  -0.031   6.451   3.157 -2.0782 -2.2069 -1.1531
  373MOL0     H50345   0.045   6.564   3.377 -0.6099  2.0159  1.5198
  373MOL0     H50346  -0.056   6.451   3.469  1.5303  0.3662  0.4613
  373MOL0     H50347  -0.167   6.679   3.296 -1.5851 -1.5417 -0.9491
  373MOL0     H50348  -0.116   6.681   3.467  1.4443 -2.2545  2.2284
  373MOL0     H50349  -0.344   6.518   3.339 -1.0256  3.1141 -1.0273
  373MOL0     H50350  -0.281   6.496   3.509  1.5492  0.7655 -0.9890
  373MOL0     H50351  -0.492   6.865   3.543 -0.8110  0.1682 -0.6366
  373MOL0     H50352   0.182   6.248   3.060  2.3436  0.0938 -1.6884
  373MOL0     H50353   0.380   6.225   2.940  0.2946  0.4588 -1.5819
  373MOL0     H50354   0.414   6.397   2.920  1.7398 -1.6117 -1.4486
  373MOL0     H50355   0.531   6.295   3.000  0.3484 -1.8734 -5.2338
  374MOL0     O50356   3.752   0.175   6.947 -0.0098 -0.1401  0.8921
  374MOL0     C50357   3.684   0.108   6.871 -0.1790 -1.0590  0.3461
  374MOL0     O50358   3.742   0.063   6.754 -0.7050  0.0618 -0.3121
  374MOL0     C50359   3.876   0.064   6.751 -0.2956  0.2563  0.0830
  374MOL0     C50360   3.954   0.145   6.671  0.4862 -0.7526 -0.1740
  374MOL0     C50361   4.097   0.134   6.672 -0.5072 -0.1468 -0.7328
  374MOL0     C50362   4.159   0.038   6.753 -0.0939 -0.5521  0.2018
  374MOL0     O50363   4.291   0.017   6.739  0.6114 -0.0670 -0.5249
  374MOL0     C50364   4.366   0.125   6.783 -0.2399  0.0038 -0.3058
  374MOL0     C50365   4.501   0.080   6.830  0.6062  0.5959 -0.7513
  374MOL0     C50366   4.577   0.180   6.913 -0.7795 -0.8626 -0.4825
  374MOL0     C50367   4.706   0.124   6.965 -0.3346  0.3101 -0.3822
  374MOL0     C50368   4.689   0.028   7.092 -0.7883  0.0670 -0.7729
  374MOL0     C50369   4.828  -0.025   7.147  0.0575 -1.3302  0.1591
  374MOL0     C50370   4.797  -0.079   7.286 -0.0970 -0.3362  0.9738
  374MOL0     C50371   4.913  -0.138   7.362  0.2817  0.5485  0.7462
  374MOL0     N50372   4.992  -0.025   7.411 -0.1508 -0.1901 -0.2299
  374MOL0     C50373   5.104   0.029   7.345  0.7566  1.3543  0.4601
  374MOL0     C50374   5.166   0.102   7.431  0.9179  0.1319 -0.4277
  374MOL0     C50375   5.285   0.182   7.387  0.4462  0.2900  0.4074
  374MOL0     C50376   5.386   0.192   7.509  0.8121  0.3197 -0.7150
  374MOL0     C50377   5.519   0.254   7.467  0.3278  0.1279  0.3231
  374MOL0     C50378   5.616   0.256   7.587 -0.6076 -0.9126 -0.0297
  374MOL0     O50379   5.722   0.335   7.525  0.2216  0.4743 -0.6931
  374MOL0     C50380   5.844   0.338   7.590 -0.4752 -0.7506  0.3113
  374MOL0     C50381   5.949   0.394   7.523  0.2145  1.0858 -0.7568
  374MOL0     C50382   6.077   0.422   7.581 -0.9070  0.9128  0.4255
  374MOL0     C50383   6.117   0.359   7.698  0.1975  0.2644 -0.2702
  374MOL0     C50384   6.253   0.373   7.755  0.6454  0.7085 -0.1556
  374MOL0     O50385   6.332   0.453   7.685  0.2678  0.3835 -0.4001
  374MOL0     C50386   6.459   0.467   7.735  0.1081 -0.6943  1.1960
  374MOL0     C50387   6.565   0.395   7.678  0.7185  0.3520  0.6277
  374MOL0     C50388   6.695   0.387   7.744 -0.1473 -0.0838 -0.9647
  374MOL0     C50389   6.719   0.486   7.844 -1.2266  0.0747  1.1471
  374MOL0     O50390   6.844   0.500   7.905 -0.0465  0.5564 -0.4344
  374MOL0     C50391   6.955   0.427   7.838  1.4646 -0.1831  0.6408
  374MOL0     C50392   6.996   0.477   7.701  0.5974  0.6064 -0.1096
  374MOL0     C50393   7.110   0.389   7.642  0.1732  0.3334 -0.2458
  374MOL0     C50394   7.136   0.422   7.498  0.0412  0.4478 -0.7189
  374MOL0     C50395   7.282   0.400   7.465 -0.4384  0.2437 -0.4808
  374MOL0     C50396   7.328   0.249   7.509 -0.5820 -0.2947 -0.3386
  374MOL0     C50397   7.465   0.217   7.452  0.8949  0.6635 -0.5756
  374MOL0     C50398   7.579   0.287   7.527  0.1749 -0.3001  0.1221
  374MOL0    Cl50399   7.610   0.452   7.477 -0.2347 -0.0553 -0.0727
  374MOL0     C50400   6.618   0.568   7.884  0.2474 -0.4500 -0.3825
  374MOL0     C50401   6.486   0.553   7.836  0.0945  0.1374  0.6587
  374MOL0     O50402   6.276   0.329   7.868  0.0201 -0.0392 -0.0917
  374MOL0     C50403   6.015   0.284   7.767  0.6032  0.2701  1.2647
  374MOL0     C50404   5.884   0.282   7.711  0.0665 -0.2654 -0.3971
  374MOL0     N50405   5.089   0.110   7.547  0.2189  0.5199 -0.4569
  374MOL0     N50406   4.987   0.036   7.537  0.2540  0.3802  0.3034
  374MOL0     C50407   4.070  -0.052   6.823  0.3854 -0.4358 -0.2529
  374MOL0     C50408   3.933  -0.039   6.818 -0.6247 -0.6824  0.1141
  374MOL0     C50409   3.538   0.086   6.887  0.2847  1.1675 -0.3033
  374MOL0     C50410   3.481  -0.009   6.807  0.3108 -0.4087  0.0780
  374MOL0     C50411   3.339  -0.041   6.814  0.1780 -0.4323  0.4625
  374MOL0     C50412   3.255   0.029   6.909 -0.4017  0.5023 -0.0965
  374MOL0     O50413   3.122  -0.006   6.929  0.1384  0.8770  0.2463
  374MOL0     C50414   3.051   0.012   7.050  0.3063  0.1166  0.3000
  374MOL0     C50415   2.908  -0.027   7.026  0.5225  0.0436  0.0331
  374MOL0     C50416   2.823   0.072   6.949  0.4262 -0.3308  1.0177
  374MOL0     C50417   2.670   0.039   6.919 -0.5110 -0.3072  0.2599
  374MOL0     C50418   2.600  -0.017   7.035  0.8854  0.4622 -0.0331
  374MOL0     C50419   2.540  -0.080   7.119 -0.4437 -0.5494 -0.7802
  374MOL0     C50420   3.317   0.124   6.994  0.7258 -0.0101 -0.0642
  374MOL0     C50421   3.447   0.157   6.975 -0.0116  0.0301 -0.2473
  374MOL0     C50422   3.497   0.262   7.067 -0.2586 -0.3243 -0.8676
  374MOL0     H50423   3.904   0.215   6.606  1.4535 -0.5640 -0.7408
  374MOL0     H50424   4.150   0.215   6.624  0.6286  0.2147  1.0153
  374MOL0     H50425   4.378   0.197   6.701  1.0266  1.0374  0.7435
  374MOL0     H50426   4.313   0.177   6.863 -1.3908 -0.9711 -0.4083
  374MOL0     H50427   4.560   0.056   6.741 -0.3344  0.6121 -1.3971
  374MOL0     H50428   4.491  -0.007   6.895 -0.1949  2.3099  1.5272
  374MOL0     H50429   4.523   0.213   7.002  1.3448  1.8692 -0.0317
  374MOL0     H50430   4.591   0.273   6.857  2.2081 -0.2356  1.0957
  374MOL0     H50431   4.756   0.082   6.877  0.8792 -0.4677  0.6283
  374MOL0     H50432   4.762   0.213   6.993 -1.9723  1.6435 -1.1596
  374MOL0     H50433   4.635   0.081   7.172 -1.7198  0.8478 -1.8865
  374MOL0     H50434   4.626  -0.056   7.061 -3.2974  0.7334  1.9698
  374MOL0     H50435   4.866  -0.099   7.076  1.0254 -2.0239  1.3666
  374MOL0     H50436   4.900   0.057   7.149 -1.0580 -0.3219  0.7537
  374MOL0     H50437   4.736  -0.168   7.271  0.6141 -1.0451  2.1832
  374MOL0     H50438   4.743  -0.002   7.343  0.3315  2.1301 -1.7086
  374MOL0     H50439   4.898  -0.189   7.457  0.3295 -0.1527  0.3774
  374MOL0     H50440   4.973  -0.204   7.299 -0.9087  0.0155  0.1362
  374MOL0     H50441   5.141   0.010   7.245  0.0670  0.0252  0.4254
  374MOL0     H50442   5.333   0.129   7.304 -2.9386 -2.1653 -0.1677
  374MOL0     H50443   5.253   0.284   7.365 -1.9544  0.6900  4.6616
  374MOL0     H50444   5.338   0.246   7.592 -0.8628  0.4221 -1.7044
  374MOL0     H50445   5.415   0.089   7.528  0.9641  0.4766 -0.0695
  374MOL0     H50446   5.505   0.353   7.423 -1.2421 -0.1782  0.0784
  374MOL0     H50447   5.572   0.183   7.403  1.5400 -0.2758  1.7110
  374MOL0     H50448   5.656   0.157   7.607  2.1710 -0.1292 -1.2694
  374MOL0     H50449   5.570   0.298   7.677  3.4463 -0.1125  1.8766
  374MOL0     H50450   5.932   0.420   7.419  1.0302  2.6456 -0.5319
  374MOL0     H50451   6.137   0.467   7.503 -0.6960  0.1811  0.1574
  374MOL0     H50452   6.548   0.333   7.591  1.2186  1.6348 -0.3964
  374MOL0     H50453   6.778   0.328   7.706  0.7486 -0.4703  1.4182
  374MOL0     H50454   7.044   0.446   7.898  0.4294  1.9034  1.6376
  374MOL0     H50455   6.935   0.319   7.835 -0.9580  0.2136 -0.2094
  374MOL0     H50456   6.920   0.482   7.623  0.8246 -1.9241 -0.5774
  374MOL0     H50457   7.056   0.569   7.706 -0.8659  1.8258 -2.6966
  374MOL0     H50458   7.200   0.400   7.703  2.0011 -3.2082 -1.9356
  374MOL0     H50459   7.088   0.282   7.648 -0.6650  0.5741  3.1888
  374MOL0     H50460   7.104   0.523   7.474  2.6211  1.5217  0.0887
  374MOL0     H50461   7.080   0.344   7.444  0.9724 -0.9210  0.2501
  374MOL0     H50462   7.344   0.475   7.514  2.0974 -1.2955 -1.1146
  374MOL0     H50463   7.287   0.420   7.358 -0.8363  1.6230 -0.2569
  374MOL0     H50464   7.334   0.223   7.615  2.4249 -2.7906 -0.9793
  374MOL0     H50465   7.265   0.170   7.467  0.3584 -0.3871 -1.6620
  374MOL0     H50466   7.479   0.254   7.350  0.4636  1.4249 -0.3678
  374MOL0     H50467   7.477   0.109   7.454  1.4908  0.7089  1.8207
  374MOL0     H50468   7.559   0.284   7.635 -1.4387 -1.0248 -0.1612
  374MOL0     H50469   7.663   0.218   7.516 -0.3348 -1.5788  3.1318
  374MOL0     H50470   6.642   0.639   7.963 -1.1169  1.7776 -1.8613
  374MOL0     H50471   6.406   0.611   7.880  1.1713  0.7480  1.8777
  374MOL0     H50472   6.034   0.228   7.858 -3.6226  1.2339  2.9731
  374MOL0     H50473   5.811   0.219   7.759  0.7053 -1.6514 -1.1773
  374MOL0     H50474   4.121  -0.137   6.868 -0.7168 -0.6842  0.5793
  374MOL0     H50475   3.864  -0.102   6.874 -3.3814  1.6088 -0.4791
  374MOL0     H50476   3.543  -0.066   6.739  2.2870 -0.4708  1.8302
  374MOL0     H50477   3.281  -0.099   6.744 -3.8603  5.5188 -2.0176
  374MOL0     H50478   3.061   0.119   7.071  0.7867  0.1704 -0.1822
  374MOL0     H50479   3.094  -0.043   7.135 -0.0328  1.1280  1.1545
  374MOL0     H50480   2.860  -0.030   7.125  0.6858  1.0888  0.1508
  374MOL0     H50481   2.905  -0.130   6.988  0.1733 -0.3877  1.1705
  374MOL0     H50482   2.873   0.083   6.852 -2.3610  1.3086 -0.3761
  374MOL0     H50483   2.826   0.173   6.991  1.5197 -0.2003  0.6410
  374MOL0     H50484   2.616   0.123   6.873  0.0383 -0.1422 -0.0968
  374MOL0     H50485   2.670  -0.034   6.838 -1.2512  1.7177 -1.6567
  374MOL0     H50486   2.493  -0.132   7.200 -2.3414 -0.1705 -1.5831
  374MOL0     H50487   3.255   0.175   7.068 -1.3467 -2.3893 -0.0328
  374MOL0     H50488   3.424   0.296   7.141 -0.2907  0.9495 -1.4545
  374MOL0     H50489   3.589   0.245   7.123 -1.4501 -1.5211  0.8099
  374MOL0     H50490   3.510   0.349   7.002 -1.2883  0.9133  0.5300
  375MOL0     O50491   0.853   4.360   8.507 -0.8549  0.3484  0.2523
  375MOL0     C50492   0.837   4.243   8.524  0.0045  0.0306 -0.1303
  375MOL0     O50493   0.929   4.157   8.572 -0.0547 -0.1615  0.0395
  375MOL0     C50494   1.056   4.208   8.575 -0.1380 -0.1352 -0.8574
  375MOL0     C50495   1.147   4.173   8.472 -0.8346  0.2145 -0.9733
  375MOL0     C50496   1.283   4.219   8.475 -0.1708 -0.0697  1.0988
  375MOL0     C50497   1.332   4.283   8.584 -0.2626 -0.4533 -0.4291
  375MOL0     O50498   1.469   4.302   8.577  0.7989  0.1516 -0.1963
  375MOL0     C50499   1.529   4.381   8.673  0.6980 -0.7505  0.8044
  375MOL0     C50500   1.499   4.527   8.642 -0.1743  0.0109 -0.7401
  375MOL0     C50501   1.558   4.626   8.737  0.1609  0.4572 -0.3693
  375MOL0     C50502   1.450   4.723   8.786 -0.3806 -0.2809  0.0213
  375MOL0     C50503   1.522   4.848   8.849  0.0499 -0.1799 -0.0826
  375MOL0     C50504   1.423   4.932   8.936 -0.1504 -0.5000  0.2436
  375MOL0     C50505   1.513   5.025   9.023 -0.0299 -0.2663  0.4186
  375MOL0     C50506   1.425   5.128   9.101  0.0700 -0.2353  0.3272
  375MOL0     N50507   1.333   5.072   9.198 -0.6468  0.5149 -0.1370
  375MOL0     C50508   1.240   5.143   9.270 -1.2430  0.5445  0.0726
  375MOL0     C50509   1.171   5.052   9.334  1.1358  0.3816  1.2615
  375MOL0     C50510   1.042   5.063   9.405 -0.8481 -0.1444 -0.0373
  375MOL0     C50511   0.929   5.134   9.330 -0.5870 -0.0509 -0.2333
  375MOL0     C50512   0.853   5.037   9.243 -0.4391  0.4940 -0.0087
  375MOL0     C50513   0.753   5.107   9.141  0.0314  0.3428  0.0595
  375MOL0     O50514   0.625   5.130   9.210  0.3086 -0.5166 -0.2768
  375MOL0     C50515   0.520   5.065   9.160  0.0304 -0.1563 -0.5644
  375MOL0     C50516   0.402   5.142   9.140 -0.2569 -0.6233  0.2041
  375MOL0     C50517   0.283   5.092   9.084 -0.3643 -1.7717 -0.7923
  375MOL0     C50518   0.279   4.950   9.053  0.2084  0.9141 -0.3675
  375MOL0     C50519   0.157   4.886   8.994 -0.3859 -0.1889  0.7305
  375MOL0     O50520   0.149   4.752   8.999  0.1453  0.3419  0.0259
  375MOL0     C50521   0.032   4.679   8.972 -0.7050  0.1791  0.2792
  375MOL0     C50522   0.041   4.546   9.003 -0.6845  0.0789  0.0046
  375MOL0     C50523  -0.071   4.459   8.997  0.4377 -0.1918 -0.9890
  375MOL0     C50524  -0.191   4.510   8.948 -0.2954  0.0711  0.1800
  375MOL0     O50525  -0.292   4.421   8.932 -0.3764  0.3255 -0.2320
  375MOL0     C50526  -0.394   4.459   8.845  0.4151 -0.0326 -0.5108
  375MOL0     C50527  -0.494   4.344   8.841 -0.2422  0.5140  0.2040
  375MOL0     C50528  -0.567   4.308   8.967 -0.0777 -0.3509  0.6926
  375MOL0     C50529  -0.664   4.192   8.925  0.7268  0.2593 -0.3912
  375MOL0     C50530  -0.752   4.142   9.054 -0.0371  0.4233 -0.2501
  375MOL0     C50531  -0.861   4.248   9.093  0.4888  0.5698  0.5222
  375MOL0     C50532  -0.978   4.255   8.995  0.9636 -0.2139  0.5924
  375MOL0     C50533  -1.092   4.343   9.059 -0.6694  0.2905  0.5739
  375MOL0    Cl50534  -1.167   4.258   9.197 -0.2418  0.3035  0.2152
  375MOL0     C50535  -0.209   4.646   8.921 -0.5738 -0.2791  0.1961
  375MOL0     C50536  -0.093   4.725   8.928 -0.2482  0.5999  0.2018
  375MOL0     O50537   0.071   4.971   8.961  0.4005  0.9725  0.1777
  375MOL0     C50538   0.403   4.879   9.066 -0.5293 -0.1072  0.5568
  375MOL0     C50539   0.520   4.932   9.120 -0.4653  0.0412  0.6614
  375MOL0     N50540   1.221   4.923   9.313  0.5358 -0.3182 -0.0375
  375MOL0     N50541   1.321   4.941   9.232 -0.3151  0.0168 -0.2342
  375MOL0     C50542   1.248   4.305   8.701  0.3040  0.3533 -0.3078
  375MOL0     C50543   1.114   4.273   8.687  0.4844  0.0114 -0.1385
  375MOL0     C50544   0.705   4.190   8.481  0.3157 -0.3867  0.9578
  375MOL0     C50545   0.699   4.046   8.470  0.5518 -0.0479 -0.3995
  375MOL0     C50546   0.595   3.985   8.399 -0.4453 -0.1266 -0.5301
  375MOL0     C50547   0.496   4.057   8.333  0.7182 -0.4438 -0.1590
  375MOL0     O50548   0.391   4.006   8.264 -0.1485  0.2064 -0.4231
  375MOL0     C50549   0.395   3.874   8.215  0.5674  0.3103 -0.1232
  375MOL0     C50550   0.472   3.867   8.085  0.6545  0.4629 -0.6368
  375MOL0     C50551   0.407   3.965   7.986  0.2147 -0.2532  0.3710
  375MOL0     C50552   0.445   3.935   7.846 -0.5482 -0.6010  0.2349
  375MOL0     C50553   0.367   3.829   7.776 -0.4429  0.8031  0.1137
  375MOL0     C50554   0.315   3.724   7.730 -0.0402 -0.5618 -0.0550
  375MOL0     C50555   0.505   4.204   8.348 -0.4557 -0.2729  0.6010
  375MOL0     C50556   0.606   4.274   8.415 -0.0083  0.9251  0.5315
  375MOL0     C50557   0.594   4.429   8.422 -0.0228 -0.3709  0.5264
  375MOL0     H50558   1.123   4.099   8.397  0.2979 -1.9162  0.6429
  375MOL0     H50559   1.342   4.213   8.384 -3.0113  0.4321 -0.9022
  375MOL0     H50560   1.487   4.354   8.771 -2.0587 -0.2865 -0.1716
  375MOL0     H50561   1.631   4.341   8.672  0.4339 -1.4727  1.4894
  375MOL0     H50562   1.390   4.538   8.653 -0.4369  0.5117 -3.2083
  375MOL0     H50563   1.540   4.545   8.543  0.6488 -0.1082 -0.4254
  375MOL0     H50564   1.641   4.679   8.690 -0.3227  0.9435 -0.6837
  375MOL0     H50565   1.598   4.572   8.824 -0.8583  0.2091 -0.0400
  375MOL0     H50566   1.388   4.761   8.705  1.4381  2.8779 -0.0637
  375MOL0     H50567   1.401   4.669   8.868 -0.2912 -0.1346  0.1717
  375MOL0     H50568   1.608   4.817   8.909 -0.2550 -3.6558 -1.1809
  375MOL0     H50569   1.564   4.913   8.771  0.2257  3.9099  3.1070
  375MOL0     H50570   1.361   4.989   8.866  2.0503 -0.2136 -1.5809
  375MOL0     H50571   1.354   4.862   8.985 -2.2510  1.9823  1.1356
  375MOL0     H50572   1.593   5.069   8.963 -0.6170  0.6405  0.2818
  375MOL0     H50573   1.556   4.960   9.100  2.0196 -2.0986 -2.1447
  375MOL0     H50574   1.490   5.200   9.151 -1.1375  1.2660 -0.1796
  375MOL0     H50575   1.360   5.183   9.032  2.1759  1.6416 -0.2543
  375MOL0     H50576   1.219   5.249   9.266  2.8580  1.4738 -2.9271
  375MOL0     H50577   1.014   4.961   9.433  0.0659 -0.8959 -1.6614
  375MOL0     H50578   1.060   5.117   9.498  5.7620 -4.0796  1.6582
  375MOL0     H50579   0.863   5.169   9.410 -0.2860  0.5922 -0.2630
  375MOL0     H50580   0.967   5.221   9.276 -2.1638  0.0422 -1.2497
  375MOL0     H50581   0.799   4.967   9.307 -1.0046  1.7454  0.9179
  375MOL0     H50582   0.918   4.973   9.182 -2.0871 -2.5817  1.1905
  375MOL0     H50583   0.748   5.034   9.059 -0.1856 -0.1246  0.4821
  375MOL0     H50584   0.792   5.201   9.100 -2.0305 -0.2901 -3.8636
  375MOL0     H50585   0.402   5.243   9.180  0.2074 -1.1829  1.7044
  375MOL0     H50586   0.194   5.152   9.072 -0.8023 -1.4646  2.8853
  375MOL0     H50587   0.137   4.516   9.044  0.8006  2.2915 -1.6153
  375MOL0     H50588  -0.077   4.362   9.045  0.2462 -0.3625 -1.3554
  375MOL0     H50589  -0.449   4.544   8.887 -2.7463 -0.6714 -2.9015
  375MOL0     H50590  -0.354   4.480   8.746  1.3559 -0.0436 -0.1414
  375MOL0     H50591  -0.575   4.364   8.770  0.4083  3.5847  0.1977
  375MOL0     H50592  -0.458   4.257   8.784 -0.3170  1.2162 -0.9360
  375MOL0     H50593  -0.498   4.282   9.048  1.6761  0.4340 -0.4889
  375MOL0     H50594  -0.633   4.394   8.984 -0.0022 -0.1220 -0.1524
  375MOL0     H50595  -0.605   4.104   8.897 -1.4204 -1.7863  1.1664
  375MOL0     H50596  -0.733   4.224   8.847 -0.5223  0.4611  0.7662
  375MOL0     H50597  -0.683   4.105   9.132 -1.7030 -0.3182  0.9355
  375MOL0     H50598  -0.814   4.058   9.020  0.0718  0.4981 -0.6375
  375MOL0     H50599  -0.906   4.221   9.189  0.7831 -1.2866  0.1783
  375MOL0     H50600  -0.823   4.350   9.100  0.1471  0.8375 -1.1380
  375MOL0     H50601  -1.017   4.156   8.971 -3.3875  2.2069 -3.9591
  375MOL0     H50602  -0.951   4.300   8.899 -3.2487 -1.4536 -1.3983
  375MOL0     H50603  -1.050   4.437   9.095 -0.5092  0.2637  0.4592
  375MOL0     H50604  -1.172   4.362   8.987 -0.0673 -0.3072 -0.2819
  375MOL0     H50605  -0.302   4.685   8.880  0.4097  0.8004 -1.0692
  375MOL0     H50606  -0.102   4.826   8.889 -1.0049 -0.0423 -1.3912
  375MOL0     H50607   0.403   4.774   9.040 -3.4399  0.3240 -1.6646
  375MOL0     H50608   0.610   4.872   9.125 -1.9374 -2.3480  0.0425
  375MOL0     H50609   1.274   4.347   8.798 -0.3464  1.6760 -0.6726
  375MOL0     H50610   1.050   4.280   8.774  1.9795  0.6265  0.9435
  375MOL0     H50611   0.784   3.984   8.499  1.0425  0.1051 -1.4769
  375MOL0     H50612   0.605   3.877   8.397  1.6985  0.0202 -0.0256
  375MOL0     H50613   0.299   3.825   8.195  0.5091 -1.3694  3.5370
  375MOL0     H50614   0.450   3.809   8.283 -0.8391  0.3558  1.0984
  375MOL0     H50615   0.460   3.768   8.041 -2.4788  0.3277  0.2986
  375MOL0     H50616   0.576   3.890   8.110  0.5109 -0.3758  0.8329
  375MOL0     H50617   0.457   4.057   8.015  0.5410 -0.4438  0.4199
  375MOL0     H50618   0.300   3.977   8.005  0.4998  1.5049  1.0682
  375MOL0     H50619   0.425   4.021   7.780 -1.5820 -2.0443 -1.4221
  375MOL0     H50620   0.553   3.918   7.839 -0.1634  1.8606 -1.7420
  375MOL0     H50621   0.281   3.625   7.704  1.2257 -0.6104 -1.7444
  375MOL0     H50622   0.429   4.262   8.297  1.9703  1.8851 -0.8171
  375MOL0     H50623   0.627   4.457   8.522 -0.6738 -3.4153  1.7007
  375MOL0     H50624   0.651   4.482   8.345 -1.7155  1.0568  0.1918
  375MOL0     H50625   0.489   4.461   8.423 -0.3608 -1.4525  0.9610
  376MOL0     O50626   9.366   0.734   9.876  0.0204  0.6187  0.1709
  376MOL0     C50627   9.381   0.613   9.876 -0.4777 -0.8362 -0.4545
  376MOL0     O50628   9.470   0.547   9.798  0.2781  0.1420 -0.1766
  376MOL0     C50629   9.573   0.618   9.738 -0.6523  0.7493 -0.1805
  376MOL0     C50630   9.706   0.586   9.766  0.2050 -1.0287 -0.1252
  376MOL0     C50631   9.816   0.648   9.707 -0.0717 -0.2884  0.6294
  376MOL0     C50632   9.788   0.746   9.612  0.1286 -0.1707 -0.5871
  376MOL0     O50633   9.886   0.821   9.543 -0.1821  0.8767 -0.5973
  376MOL0     C50634  10.022   0.829   9.608  0.2852 -0.0268 -0.2219
  376MOL0     C50635  10.115   0.906   9.509  0.2294  0.7088  0.4152
  376MOL0     C50636  10.125   0.838   9.373 -0.7296 -0.2918  0.1921
  376MOL0     C50637  10.235   0.902   9.290  0.3727  0.0888  0.4887
  376MOL0     C50638  10.232   0.883   9.136 -0.2438  0.1311 -0.6013
  376MOL0     C50639  10.358   0.957   9.074  0.0914 -0.8220  0.2410
  376MOL0     C50640  10.488   0.895   9.130 -0.4701 -0.3260  0.3955
  376MOL0     C50641  10.497   0.736   9.119 -0.8698 -0.6838 -0.6168
  376MOL0     N50642  10.612   0.688   9.199 -0.0665 -0.0815  0.3582
  376MOL0     C50643  10.734   0.641   9.156  0.1680  0.2600 -0.8517
  376MOL0     C50644  10.816   0.631   9.266  0.2011 -1.0724 -0.7689
  376MOL0     C50645  10.956   0.568   9.270  0.0926 -0.3100 -0.0389
  376MOL0     C50646  10.959   0.446   9.368  0.1291 -0.3291 -1.0768
  376MOL0     C50647  11.094   0.370   9.352 -0.4868  0.9263  0.1024
  376MOL0     C50648  11.108   0.260   9.463  0.1419  0.6323  0.4964
  376MOL0     O50649  11.222   0.174   9.444 -0.2306 -0.5726  0.6871
  376MOL0     C50650  11.338   0.216   9.514 -0.7025  0.8403  0.4014
  376MOL0     C50651  11.445   0.131   9.490  0.6939  0.0998  0.4305
  376MOL0     C50652  11.565   0.163   9.557  0.5533  0.9750 -0.8977
  376MOL0     C50653  11.572   0.275   9.648  0.1925 -0.0226 -0.2155
  376MOL0     C50654  11.693   0.285   9.739  0.8061  0.7349 -0.2245
  376MOL0     O50655  11.714   0.399   9.808 -0.2569  0.1467  0.6785
  376MOL0     C50656  11.787   0.395   9.925 -0.6269  0.1985  0.6531
  376MOL0     C50657  11.726   0.427  10.049 -0.1269  0.2369 -0.7412
  376MOL0     C50658  11.808   0.458  10.161 -0.0972 -0.1531  0.0304
  376MOL0     C50659  11.943   0.422  10.158 -0.0589 -0.0746  0.2076
  376MOL0     O50660  12.017   0.410  10.273 -0.1795 -0.3749  0.3461
  376MOL0     C50661  12.019   0.273  10.325  0.4280  0.8112 -0.3786
  376MOL0     C50662  12.106   0.268  10.453  1.2459 -0.5504  0.0881
  376MOL0     C50663  12.250   0.327  10.428  0.1351  0.0158 -0.0394
  376MOL0     C50664  12.327   0.240  10.333 -0.4326 -0.0970  0.3968
  376MOL0     C50665  12.472   0.287  10.307 -1.6805 -0.9195 -0.4300
  376MOL0     C50666  12.567   0.285  10.425  0.4119  0.0616 -0.1451
  376MOL0     C50667  12.707   0.351  10.416  1.1873 -0.3665  1.1550
  376MOL0     C50668  12.686   0.497  10.453  0.3046 -0.3389  0.1937
  376MOL0    Cl50669  12.823   0.572  10.526 -0.3051 -0.3890  0.2477
  376MOL0     C50670  12.002   0.390  10.038  0.5435 -0.2151  1.1102
  376MOL0     C50671  11.924   0.380   9.921 -0.0281 -0.4763  0.7741
  376MOL0     O50672  11.753   0.180   9.757 -0.4024  0.1119  0.3212
  376MOL0     C50673  11.469   0.363   9.652 -0.2085  0.5437 -0.3453
  376MOL0     C50674  11.350   0.330   9.585 -0.1491 -0.3996  0.4088
  376MOL0     N50675  10.745   0.683   9.374  0.6196 -0.4194 -0.1994
  376MOL0     N50676  10.625   0.716   9.333  1.1245 -0.5167  0.2983
  376MOL0     C50677   9.654   0.780   9.585  0.3490 -0.1054 -0.2680
  376MOL0     C50678   9.547   0.713   9.641  0.0967 -0.8078  0.0968
  376MOL0     C50679   9.291   0.538   9.963 -0.4195 -0.4959 -0.6006
  376MOL0     C50680   9.182   0.603  10.038  0.0085  0.3228 -0.5865
  376MOL0     C50681   9.101   0.537  10.126  0.3953  0.2657  0.0227
  376MOL0     C50682   9.115   0.398  10.146  0.1679 -0.6823 -0.6243
  376MOL0     O50683   9.026   0.342  10.245  0.7615  0.3499 -0.4920
  376MOL0     C50684   9.047   0.202  10.280  0.3830  0.7078  0.2163
  376MOL0     C50685   9.006   0.175  10.427  0.7721 -0.0200 -0.1142
  376MOL0     C50686   9.084   0.249  10.536 -0.9666  0.0431  0.3873
  376MOL0     C50687   9.045   0.214  10.683  0.4900  0.1830  0.4347
  376MOL0     C50688   9.100   0.326  10.763  0.6068  0.9430 -0.1286
  376MOL0     C50689   9.150   0.417  10.826 -0.0613 -0.5414  0.4000
  376MOL0     C50690   9.209   0.334  10.071  0.6807  1.3026  0.1266
  376MOL0     C50691   9.301   0.396   9.981  0.4841 -0.2716  0.7053
  376MOL0     C50692   9.404   0.301   9.922 -0.0967  0.4375 -0.1614
  376MOL0     H50693   9.731   0.504   9.833  1.0009 -1.9638 -1.5159
  376MOL0     H50694   9.918   0.617   9.723  0.7599  0.7956 -2.0129
  376MOL0     H50695  10.016   0.894   9.695  1.3938  0.0215 -0.1653
  376MOL0     H50696  10.066   0.739   9.651  0.3243 -0.6879 -1.5850
  376MOL0     H50697  10.216   0.906   9.549 -0.2353 -0.0409  1.6769
  376MOL0     H50698  10.086   1.011   9.501 -0.0927  0.7915  2.2437
  376MOL0     H50699  10.029   0.853   9.323 -0.6142 -2.3672 -0.7720
  376MOL0     H50700  10.148   0.733   9.394  0.0383 -0.2409 -0.3167
  376MOL0     H50701  10.252   1.009   9.306 -1.2491  0.3538  0.5916
  376MOL0     H50702  10.320   0.857   9.341 -2.4663 -4.2502  1.9754
  376MOL0     H50703  10.223   0.777   9.111  0.2687 -0.1962  0.5264
  376MOL0     H50704  10.141   0.936   9.105  0.3552  0.9415 -1.0140
  376MOL0     H50705  10.350   0.940   8.966 -0.2501  4.2919 -0.8335
  376MOL0     H50706  10.353   1.065   9.095  0.1288 -0.7146 -0.2848
  376MOL0     H50707  10.507   0.928   9.233  0.5060 -0.8144  0.3829
  376MOL0     H50708  10.570   0.948   9.080 -3.1553  6.0093  1.7089
  376MOL0     H50709  10.417   0.685   9.173  0.6612 -1.6497  0.8444
  376MOL0     H50710  10.511   0.694   9.019  1.0574 -0.4157 -0.4890
  376MOL0     H50711  10.771   0.612   9.058 -0.6556  3.6068 -2.2618
  376MOL0     H50712  10.978   0.535   9.168  1.0840  1.2978 -0.3836
  376MOL0     H50713  11.035   0.640   9.292 -0.2443 -0.7292  2.9983
  376MOL0     H50714  10.938   0.493   9.465  1.4292  3.2667 -2.3523
  376MOL0     H50715  10.874   0.384   9.339 -1.6318  0.5789  1.7177
  376MOL0     H50716  11.178   0.440   9.355  1.1591 -0.9826  0.8753
  376MOL0     H50717  11.076   0.318   9.257 -2.3642  0.5339  0.6215
  376MOL0     H50718  11.018   0.197   9.461 -0.3831  1.3283  1.4219
  376MOL0     H50719  11.104   0.316   9.556 -1.7863  3.1162 -0.9548
  376MOL0     H50720  11.439   0.049   9.418 -0.8089  0.7918 -0.2823
  376MOL0     H50721  11.647   0.091   9.557 -1.7637 -1.8538 -0.4413
  376MOL0     H50722  11.625   0.466  10.052  0.9243  3.3471 -1.6160
  376MOL0     H50723  11.760   0.498  10.250  0.5199  2.7739 -0.8418
  376MOL0     H50724  11.913   0.248  10.341  0.2675  0.0578 -2.3852
  376MOL0     H50725  12.062   0.199  10.258  1.2303 -0.8985  1.8877
  376MOL0     H50726  12.041   0.324  10.521 -2.3534 -2.1612 -1.7575
  376MOL0     H50727  12.090   0.171  10.500 -1.9857  0.3371  1.0132
  376MOL0     H50728  12.237   0.425  10.379 -1.4141 -0.3162 -0.3561
  376MOL0     H50729  12.299   0.343  10.524  1.2517  3.7135 -1.0269
  376MOL0     H50730  12.293   0.238  10.229 -2.0246  0.3877  0.8908
  376MOL0     H50731  12.339   0.134  10.361  0.7373  0.1326  0.8288
  376MOL0     H50732  12.469   0.392  10.274  1.6282 -0.4411  0.4309
  376MOL0     H50733  12.518   0.227  10.228 -0.7705 -0.5330 -0.2037
  376MOL0     H50734  12.511   0.327  10.509 -1.2493  3.6890 -2.7753
  376MOL0     H50735  12.576   0.179  10.450  3.5283  0.2262 -0.2282
  376MOL0     H50736  12.756   0.326  10.321  0.0259 -4.7526  1.5339
  376MOL0     H50737  12.761   0.309  10.501 -2.1417 -3.2676  2.0560
  376MOL0     H50738  12.664   0.555  10.362  0.3366 -0.4381  0.1221
  376MOL0     H50739  12.592   0.517  10.507  0.7320  0.7883  0.5545
  376MOL0     H50740  12.104   0.352  10.032  0.6835  0.3715 -2.9280
  376MOL0     H50741  11.961   0.353   9.822  0.6753  1.7244  0.3849
  376MOL0     H50742  11.459   0.452   9.712 -1.3659  0.7645 -0.8434
  376MOL0     H50743  11.274   0.408   9.583  0.8771  0.6357  0.6044
  376MOL0     H50744   9.633   0.868   9.524  0.6072  1.0161  1.2100
  376MOL0     H50745   9.446   0.733   9.606  0.4332  1.2865  0.2215
  376MOL0     H50746   9.170   0.710  10.022 -1.1913  0.1365 -1.0660
  376MOL0     H50747   9.022   0.594  10.173  0.4640 -0.5397  1.1778
  376MOL0     H50748   9.152   0.172  10.283 -0.2412 -2.0585 -1.7785
  376MOL0     H50749   8.998   0.128  10.216 -1.1948 -0.0861  2.2536
  376MOL0     H50750   9.006   0.069  10.453  1.5633  0.5333  2.3655
  376MOL0     H50751   8.902   0.209  10.420  0.8763  0.5048  0.6944
  376MOL0     H50752   9.059   0.355  10.523 -1.4015  0.2558  2.6789
  376MOL0     H50753   9.193   0.245  10.536 -0.4788  4.1611  4.8378
  376MOL0     H50754   8.940   0.189  10.701 -0.1409  1.9189 -0.5755
  376MOL0     H50755   9.092   0.116  10.695 -1.8830 -0.7880  2.9338
  376MOL0     H50756   9.189   0.492  10.891  1.0010 -0.3596 -0.4185
  376MOL0     H50757   9.218   0.226  10.075  2.9346  1.4323 -0.2032
  376MOL0     H50758   9.373   0.314   9.818 -2.1439  3.1133  0.6842
  376MOL0     H50759   9.507   0.330   9.941  0.3456 -1.7919  1.2610
  376MOL0     H50760   9.392   0.195   9.948 -0.0252  0.7165  1.0939
  377MOL0     O50761   6.635   3.617   5.402 -0.4930  0.1083  0.5762
  377MOL0     C50762   6.555   3.527   5.432  0.3734  0.5638 -0.4877
  377MOL0     O50763   6.464   3.537   5.536 -0.0080  0.9344  0.2508
  377MOL0     C50764   6.512   3.578   5.659 -0.5638  0.6121  0.1288
  377MOL0     C50765   6.427   3.648   5.744  0.0269  1.0884  0.3291
  377MOL0     C50766   6.476   3.691   5.868 -0.5469 -0.3134 -0.7192
  377MOL0     C50767   6.610   3.681   5.902  0.2332 -0.3510 -0.0967
  377MOL0     O50768   6.648   3.728   6.023 -0.2574  0.7336 -1.1184
  377MOL0     C50769   6.734   3.841   6.034  0.4500 -0.1021  0.5986
  377MOL0     C50770   6.810   3.820   6.161 -0.0460  0.8343 -0.4820
  377MOL0     C50771   6.911   3.698   6.169  0.2686  0.8445  0.3147
  377MOL0     C50772   7.037   3.731   6.081 -0.4690  0.0153 -0.6496
  377MOL0     C50773   7.141   3.626   6.125  0.0426 -0.1293  0.8980
  377MOL0     C50774   7.274   3.673   6.067  0.1781  0.5074 -0.5189
  377MOL0     C50775   7.392   3.582   6.105 -0.2888  0.3242 -0.4800
  377MOL0     C50776   7.391   3.445   6.046 -0.4831  0.5603 -0.2938
  377MOL0     N50777   7.509   3.370   6.079 -0.6367  0.1845 -0.3076
  377MOL0     C50778   7.615   3.364   5.994 -0.5208 -0.3400  0.0959
  377MOL0     C50779   7.700   3.270   6.058  0.2673  0.3911 -0.1657
  377MOL0     C50780   7.826   3.192   6.015  0.9026 -0.1146  0.5344
  377MOL0     C50781   7.835   3.059   6.079 -0.4072  0.1552  0.4467
  377MOL0     C50782   7.960   2.983   6.032 -1.0241 -0.8414 -0.0039
  377MOL0     C50783   7.956   2.832   6.051 -0.3052  0.1719 -0.0315
  377MOL0     O50784   8.022   2.788   6.178  0.2452 -0.1040  0.2700
  377MOL0     C50785   7.947   2.754   6.287  0.8370 -0.3088 -0.6279
  377MOL0     C50786   7.815   2.799   6.315 -0.2507 -0.1327  0.9171
  377MOL0     C50787   7.752   2.757   6.421  0.1435  0.6197 -0.1093
  377MOL0     C50788   7.813   2.663   6.506  0.4745  0.5777  0.0456
  377MOL0     C50789   7.758   2.629   6.643  0.5522  0.6198 -0.3808
  377MOL0     O50790   7.825   2.525   6.712 -0.1563 -0.1373  0.8776
  377MOL0     C50791   7.784   2.491   6.837 -0.9637 -0.6169  1.2738
  377MOL0     C50792   7.789   2.574   6.943  0.4475 -1.3023  0.4533
  377MOL0     C50793   7.774   2.532   7.071  0.0544  0.3479  0.2892
  377MOL0     C50794   7.745   2.402   7.097 -0.0096 -0.1888 -0.2305
  377MOL0     O50795   7.719   2.367   7.230  0.1994  0.8949  0.1719
  377MOL0     C50796   7.636   2.243   7.248 -0.2381 -0.7876 -0.0030
  377MOL0     C50797   7.606   2.207   7.398 -0.7437 -1.0780 -0.2170
  377MOL0     C50798   7.504   2.299   7.472  1.7374  0.7517 -0.8054
  377MOL0     C50799   7.458   2.233   7.599 -0.1067 -0.4590  0.1204
  377MOL0     C50800   7.364   2.331   7.679  0.6116  0.1390 -0.6656
  377MOL0     C50801   7.228   2.341   7.607  0.3576 -0.2897  0.1997
  377MOL0     C50802   7.121   2.392   7.708 -0.4725 -0.0124 -0.3450
  377MOL0     C50803   7.018   2.485   7.642 -0.2374 -0.4969 -1.0475
  377MOL0    Cl50804   7.102   2.642   7.615 -0.1988  0.4319 -0.3317
  377MOL0     C50805   7.751   2.305   6.987 -0.2895 -0.5086 -1.3610
  377MOL0     C50806   7.771   2.354   6.858 -0.1437  0.0320  0.1271
  377MOL0     O50807   7.652   2.677   6.673  0.3597 -1.5143 -0.2811
  377MOL0     C50808   7.948   2.621   6.478  0.1120  1.4783  0.5670
  377MOL0     C50809   8.007   2.668   6.366 -0.8150  0.1544  0.0639
  377MOL0     N50810   7.641   3.233   6.180 -0.7311 -0.0981 -0.4539
  377MOL0     N50811   7.527   3.287   6.186  0.5882  0.3930  0.4713
  377MOL0     C50812   6.697   3.633   5.812 -0.2725  0.8516 -0.0917
  377MOL0     C50813   6.651   3.580   5.694  0.2561  0.2514  0.5071
  377MOL0     C50814   6.515   3.442   5.315 -0.4966  0.5414  0.1826
  377MOL0     C50815   6.379   3.410   5.293 -0.4564  0.8491 -0.9942
  377MOL0     C50816   6.330   3.349   5.176 -0.2629 -0.6586 -0.3079
  377MOL0     C50817   6.415   3.322   5.068 -0.0009 -0.5453 -0.1824
  377MOL0     O50818   6.354   3.285   4.948  0.2647 -0.2273  0.0398
  377MOL0     C50819   6.428   3.289   4.831 -0.0194  0.7206 -0.7379
  377MOL0     C50820   6.339   3.251   4.712 -0.0261 -0.7236 -0.3490
  377MOL0     C50821   6.298   3.102   4.729  0.0135  0.7329  0.1621
  377MOL0     C50822   6.231   3.039   4.607  0.2605 -0.3020 -1.1128
  377MOL0     C50823   6.324   3.053   4.494  0.2724  1.0325 -0.4310
  377MOL0     C50824   6.408   3.063   4.410  0.5650 -0.6740 -0.4670
  377MOL0     C50825   6.549   3.356   5.086  0.0606  0.2846  0.0966
  377MOL0     C50826   6.600   3.418   5.204  0.8137 -0.3520  1.3733
  377MOL0     C50827   6.752   3.440   5.214  0.4743  0.8915  1.1723
  377MOL0     H50828   6.322   3.651   5.716  0.2787  1.4265 -0.6271
  377MOL0     H50829   6.405   3.723   5.944  0.1529 -0.6734  0.1021
  377MOL0     H50830   6.801   3.861   5.949 -1.7276  0.6794 -1.0425
  377MOL0     H50831   6.666   3.926   6.045 -2.1628 -2.1655  1.4364
  377MOL0     H50832   6.735   3.791   6.236 -0.1779  1.3592 -0.4075
  377MOL0     H50833   6.866   3.909   6.192  0.3296  0.2163  0.6918
  377MOL0     H50834   6.863   3.604   6.139  1.3975  0.1871  0.5063
  377MOL0     H50835   6.941   3.692   6.274 -3.5853 -0.0630  1.5150
  377MOL0     H50836   7.018   3.726   5.974  1.9332 -0.6564 -1.0840
  377MOL0     H50837   7.074   3.833   6.099  2.0754 -0.4391 -2.8226
  377MOL0     H50838   7.163   3.619   6.232  3.7835 -2.5927  0.1410
  377MOL0     H50839   7.108   3.530   6.085  0.5950 -0.1408  0.4455
  377MOL0     H50840   7.263   3.684   5.959 -0.9571 -0.9448 -0.5851
  377MOL0     H50841   7.289   3.776   6.101  0.7027  0.5370 -0.8319
  377MOL0     H50842   7.372   3.568   6.212 -0.9394 -0.7298 -0.7297
  377MOL0     H50843   7.488   3.634   6.091 -0.1727 -0.0961 -1.3493
  377MOL0     H50844   7.307   3.387   6.085  1.4972 -0.7507  2.2895
  377MOL0     H50845   7.375   3.446   5.937 -0.0811  1.1709 -0.3537
  377MOL0     H50846   7.622   3.427   5.906 -3.7932  0.5111  0.3126
  377MOL0     H50847   7.802   3.177   5.909 -2.2247 -4.5471  1.5427
  377MOL0     H50848   7.915   3.255   6.023  0.1634  1.1741 -0.9046
  377MOL0     H50849   7.830   3.065   6.188  0.4000 -2.2736  0.6831
  377MOL0     H50850   7.744   3.014   6.037 -0.4202  2.6797 -2.5939
  377MOL0     H50851   8.040   3.032   6.088  0.0104  0.6540 -2.5912
  377MOL0     H50852   7.983   3.004   5.927  0.1184 -0.9547  0.2094
  377MOL0     H50853   8.011   2.781   5.972  1.0121 -0.1920  1.0899
  377MOL0     H50854   7.856   2.790   6.037 -0.2916  0.1377 -0.0254
  377MOL0     H50855   7.771   2.861   6.238  1.1981  0.6136  0.6522
  377MOL0     H50856   7.648   2.786   6.430 -0.0900 -0.4259  0.8827
  377MOL0     H50857   7.809   2.679   6.922  2.1925 -2.0106 -1.9120
  377MOL0     H50858   7.775   2.607   7.150  0.9615 -0.0549  0.6777
  377MOL0     H50859   7.543   2.260   7.191  1.0016  0.4087 -1.7900
  377MOL0     H50860   7.682   2.152   7.208  0.6420 -2.4544  4.3298
  377MOL0     H50861   7.560   2.108   7.401  0.7208 -1.8481 -1.5608
  377MOL0     H50862   7.696   2.190   7.457 -0.6132  0.9089  0.2298
  377MOL0     H50863   7.541   2.401   7.487  2.6231  0.2111  0.8868
  377MOL0     H50864   7.411   2.300   7.414  0.8655 -0.7759  0.4755
  377MOL0     H50865   7.546   2.217   7.662  0.9421  2.4531 -0.4424
  377MOL0     H50866   7.403   2.139   7.587  0.1799 -0.6453  0.2717
  377MOL0     H50867   7.422   2.424   7.685  1.6644 -0.6225  3.4394
  377MOL0     H50868   7.345   2.283   7.775 -0.3585 -4.5387 -2.9319
  377MOL0     H50869   7.232   2.421   7.534 -2.5609  0.7980  1.0756
  377MOL0     H50870   7.186   2.254   7.556 -0.3099  0.0044  0.2372
  377MOL0     H50871   7.171   2.446   7.789  1.1374 -1.6564 -0.1856
  377MOL0     H50872   7.064   2.307   7.747  0.0442  0.1682  0.8404
  377MOL0     H50873   6.968   2.455   7.549 -1.5337 -0.6532 -0.3297
  377MOL0     H50874   6.924   2.500   7.697 -0.3013 -1.4904 -0.8582
  377MOL0     H50875   7.757   2.199   7.008  2.1393 -0.4073 -1.2093
  377MOL0     H50876   7.770   2.284   6.775 -0.9330 -0.8200  0.8373
  377MOL0     H50877   7.986   2.549   6.550 -4.2545  1.2536  3.0632
  377MOL0     H50878   8.107   2.633   6.341 -0.1024  2.1308 -0.0760
  377MOL0     H50879   6.804   3.614   5.824 -0.4765 -1.9605 -1.8380
  377MOL0     H50880   6.722   3.544   5.620 -1.0143 -1.5498  0.0994
  377MOL0     H50881   6.315   3.435   5.377  0.1724  1.3813 -0.6660
  377MOL0     H50882   6.222   3.341   5.173 -0.1355 -3.2581 -0.6506
  377MOL0     H50883   6.513   3.221   4.837  0.3788  1.1652 -1.2237
  377MOL0     H50884   6.468   3.391   4.824 -0.9513  1.1269 -0.3803
  377MOL0     H50885   6.404   3.262   4.625  1.7550  0.6194  1.0839
  377MOL0     H50886   6.254   3.319   4.708 -0.4391 -1.0733  1.4560
  377MOL0     H50887   6.226   3.096   4.811 -1.6743  0.2359 -1.2881
  377MOL0     H50888   6.391   3.046   4.739 -0.7225 -0.7690 -0.9083
  377MOL0     H50889   6.198   2.938   4.633 -2.8504  0.7878 -0.2689
  377MOL0     H50890   6.138   3.095   4.589  0.5526 -0.0402 -1.8359
  377MOL0     H50891   6.469   3.091   4.326  0.4010  1.6114  0.1254
  377MOL0     H50892   6.619   3.345   5.004  1.2663  0.6268  1.0575
  377MOL0     H50893   6.798   3.374   5.140 -4.0984 -1.2633 -0.0903
  377MOL0     H50894   6.777   3.544   5.188  0.2797  0.7817  0.5456
  377MOL0     H50895   6.788   3.405   5.311  0.2078  0.0295  0.9614
  378MOL0     O50896   7.669   4.475   5.745  0.4067  0.2250  0.0789
  378MOL0     C50897   7.672   4.428   5.857 -0.3001  0.9925 -0.6084
  378MOL0     O50898   7.790   4.404   5.919  0.4580 -1.4573 -0.7002
  378MOL0     C50899   7.911   4.397   5.852  0.6727 -0.3036  0.0209
  378MOL0     C50900   7.930   4.354   5.714 -0.2337 -0.4082  0.0707
  378MOL0     C50901   8.052   4.350   5.654 -0.1376 -0.4988  0.1954
  378MOL0     C50902   8.162   4.391   5.721  0.4776 -1.0542 -0.1527
  378MOL0     O50903   8.291   4.379   5.684  0.1134  0.5162  0.0979
  378MOL0     C50904   8.331   4.360   5.546  0.8139  1.1472 -0.9141
  378MOL0     C50905   8.482   4.347   5.537  1.3322 -0.0964  0.1586
  378MOL0     C50906   8.516   4.208   5.581  0.9341  0.3788 -0.7260
  378MOL0     C50907   8.659   4.175   5.533  0.3892 -0.3128 -0.1940
  378MOL0     C50908   8.693   4.035   5.574 -1.2852  0.1827  0.4531
  378MOL0     C50909   8.844   4.004   5.554 -0.7997  0.1838 -0.0285
  378MOL0     C50910   8.882   3.861   5.593  0.3252 -0.0528  0.1404
  378MOL0     C50911   9.032   3.835   5.591  0.0441  0.0695 -0.5537
  378MOL0     N50912   9.077   3.827   5.453  0.4057  0.4835  0.0157
  378MOL0     C50913   9.112   3.932   5.368  0.1828  0.5482  0.0058
  378MOL0     C50914   9.104   3.891   5.244 -1.1011  0.5520  0.4185
  378MOL0     C50915   9.134   3.969   5.120  0.6527 -0.6291  0.9852
  378MOL0     C50916   9.282   3.998   5.086  0.1633  0.2870 -0.4660
  378MOL0     C50917   9.343   3.861   5.083 -0.6859  0.3725  0.2728
  378MOL0     C50918   9.494   3.881   5.049 -0.0477  0.8554  0.0487
  378MOL0     O50919   9.557   3.752   5.045 -0.7220 -0.2252  0.7184
  378MOL0     C50920   9.688   3.743   4.988  0.3811 -0.2598  0.8039
  378MOL0     C50921   9.722   3.623   4.945  0.7095 -0.3589 -0.6313
  378MOL0     C50922   9.851   3.606   4.895  0.1284  0.2730  0.7035
  378MOL0     C50923   9.939   3.712   4.894  0.1829  0.0716  0.2856
  378MOL0     C50924  10.072   3.688   4.831  0.7911 -0.0727  0.0354
  378MOL0     O50925  10.163   3.789   4.843  0.9190  0.4786  0.0612
  378MOL0     C50926  10.258   3.800   4.741  0.2413  1.0083  0.1139
  378MOL0     C50927  10.219   3.818   4.607  0.0155 -0.5754  0.5592
  378MOL0     C50928  10.312   3.808   4.499 -0.6305  0.5770 -0.4702
  378MOL0     C50929  10.450   3.789   4.529 -0.1479 -1.3298 -0.2697
  378MOL0     O50930  10.556   3.778   4.438  0.3271 -0.1812 -0.4267
  378MOL0     C50931  10.533   3.786   4.296 -0.4702  0.1504 -0.6294
  378MOL0     C50932  10.670   3.775   4.223  0.4208 -0.9324 -0.3006
  378MOL0     C50933  10.654   3.862   4.094  0.0236 -0.2176 -0.7405
  378MOL0     C50934  10.791   3.877   4.022  0.2587 -0.2630 -0.0584
  378MOL0     C50935  10.862   3.742   3.996 -0.1348 -0.2787 -0.4754
  378MOL0     C50936  10.973   3.771   3.898 -0.2210  0.0617 -0.7491
  378MOL0     C50937  11.096   3.851   3.951 -0.1726 -0.1514 -0.7128
  378MOL0     C50938  11.143   3.801   4.093 -0.4771  0.4075  0.0881
  378MOL0    Cl50939  11.195   3.640   4.110  0.0851  0.2724 -0.1057
  378MOL0     C50940  10.484   3.777   4.669  0.3376 -0.2614  0.0034
  378MOL0     C50941  10.393   3.779   4.771 -0.1783  0.1618 -0.2539
  378MOL0     O50942  10.087   3.581   4.775 -0.2136  0.7163  0.7126
  378MOL0     C50943   9.901   3.835   4.949  0.0198  0.6224 -0.7940
  378MOL0     C50944   9.777   3.856   4.992 -0.1319  0.0201  0.2151
  378MOL0     N50945   9.046   3.763   5.249 -0.1633  0.0443  0.6799
  378MOL0     N50946   9.036   3.723   5.369 -0.1716 -0.4207 -0.1814
  378MOL0     C50947   8.152   4.440   5.853  0.4196 -0.4023  0.0979
  378MOL0     C50948   8.027   4.442   5.916  0.3772 -0.1585  0.0067
  378MOL0     C50949   7.553   4.404   5.946 -0.2216  0.1741  1.3008
  378MOL0     C50950   7.586   4.365   6.074  0.1227  0.0053 -0.6512
  378MOL0     C50951   7.494   4.342   6.164  0.4073  0.6510 -0.4883
  378MOL0     C50952   7.352   4.340   6.128 -1.5162  0.1696 -0.1925
  378MOL0     O50953   7.267   4.312   6.224  0.4631  0.1656  0.0389
  378MOL0     C50954   7.142   4.284   6.184  0.7505  0.4769  0.2586
  378MOL0     C50955   7.073   4.215   6.298  0.0185  0.0746 -0.6857
  378MOL0     C50956   7.135   4.084   6.359  0.7751  0.1366 -0.1749
  378MOL0     C50957   7.064   4.051   6.490 -0.0171  0.3910 -0.8304
  378MOL0     C50958   7.136   3.948   6.567 -0.9493  0.9704 -0.1153
  378MOL0     C50959   7.210   3.845   6.604  0.3869 -0.8268  0.4657
  378MOL0     C50960   7.323   4.361   5.988  0.1301  0.1123 -0.2363
  378MOL0     C50961   7.422   4.402   5.902 -0.7449  0.3714 -0.2525
  378MOL0     C50962   7.378   4.455   5.771 -0.1741  0.4872 -1.3426
  378MOL0     H50963   7.847   4.315   5.655 -1.0497  1.3913 -0.0373
  378MOL0     H50964   8.055   4.321   5.549  0.1566  1.4737 -0.3864
  378MOL0     H50965   8.274   4.279   5.501  0.2859  0.8973  0.1707
  378MOL0     H50966   8.303   4.449   5.489  1.3879  2.7390  1.1369
  378MOL0     H50967   8.533   4.419   5.603 -0.6651 -0.2274  1.9456
  378MOL0     H50968   8.502   4.368   5.432 -5.1831  1.4359 -1.1907
  378MOL0     H50969   8.454   4.129   5.539  0.0560  0.0030  1.1674
  378MOL0     H50970   8.507   4.202   5.690 -2.1872  4.2055 -0.5391
  378MOL0     H50971   8.667   4.186   5.425 -1.3602  2.5418 -0.1291
  378MOL0     H50972   8.722   4.255   5.575  0.0026  0.3791 -0.9065
  378MOL0     H50973   8.669   4.026   5.680 -3.2419  1.4811  0.1658
  378MOL0     H50974   8.632   3.966   5.516  2.7016 -0.9610 -2.8616
  378MOL0     H50975   8.876   4.025   5.452 -0.8556  0.4927  0.0149
  378MOL0     H50976   8.900   4.064   5.626  1.6369 -2.8826  0.8415
  378MOL0     H50977   8.830   3.792   5.526  2.6973 -2.7642  0.9023
  378MOL0     H50978   8.845   3.854   5.696 -0.5530 -0.4353 -0.1972
  378MOL0     H50979   9.076   3.926   5.633  1.7908  0.2338 -2.5745
  378MOL0     H50980   9.064   3.741   5.637  1.4730 -0.9772 -3.4230
  378MOL0     H50981   9.138   4.036   5.384  0.4436  0.8022 -1.8444
  378MOL0     H50982   9.101   3.904   5.039  2.8061  0.7270 -1.1388
  378MOL0     H50983   9.075   4.059   5.103  0.5357 -0.7491  0.7526
  378MOL0     H50984   9.286   4.035   4.983  0.2576 -1.1664 -0.9994
  378MOL0     H50985   9.325   4.080   5.144  2.4413  1.9643 -4.1742
  378MOL0     H50986   9.306   3.811   4.993 -3.1323  1.6694  0.4714
  378MOL0     H50987   9.341   3.794   5.170  2.8065  0.4837  0.5616
  378MOL0     H50988   9.541   3.953   5.116  1.3248 -0.8327  0.9605
  378MOL0     H50989   9.495   3.933   4.953 -1.0636 -0.0474 -0.4743
  378MOL0     H50990   9.646   3.546   4.942 -0.1645  0.4844 -0.4760
  378MOL0     H50991   9.875   3.507   4.858  0.4214  0.3156  0.7746
  378MOL0     H50992  10.115   3.828   4.577 -0.2210 -1.7151  0.9131
  378MOL0     H50993  10.261   3.812   4.403 -0.1497 -0.0670 -0.7576
  378MOL0     H50994  10.462   3.713   4.258  0.7346 -0.7454 -1.2484
  378MOL0     H50995  10.494   3.886   4.274 -2.7174 -0.3352  0.8359
  378MOL0     H50996  10.749   3.810   4.291  1.8319  0.8459 -2.6889
  378MOL0     H50997  10.689   3.669   4.206  1.3300 -1.0248  1.1250
  378MOL0     H50998  10.582   3.824   4.020 -2.0807 -0.0983  1.1502
  378MOL0     H50999  10.617   3.962   4.118  1.5919  0.8784 -2.6060
  378MOL0     H51000  10.844   3.952   4.081 -0.7673 -0.2682  0.8925
  378MOL0     H51001  10.766   3.922   3.926  0.5268 -2.8048 -1.4179
  378MOL0     H51002  10.795   3.674   3.944 -1.7593  2.0795 -1.6220
  378MOL0     H51003  10.883   3.691   4.091 -0.4678 -0.2528 -0.3867
  378MOL0     H51004  11.017   3.677   3.864 -2.1589 -0.0320 -3.2300
  378MOL0     H51005  10.941   3.830   3.812 -1.5249  0.5680  0.0614
  378MOL0     H51006  11.084   3.960   3.946  0.7494  0.1290  1.7805
  378MOL0     H51007  11.180   3.841   3.882 -1.4169  0.4978 -2.3878
  378MOL0     H51008  11.229   3.864   4.119 -1.2700  2.7482 -2.4790
  378MOL0     H51009  11.066   3.821   4.168 -1.1244  0.9668 -0.6977
  378MOL0     H51010  10.587   3.754   4.695  0.4370  2.3501  2.2874
  378MOL0     H51011  10.425   3.769   4.874 -1.5530 -0.4156  0.1309
  378MOL0     H51012   9.980   3.910   4.947  2.0012 -1.3569 -1.3943
  378MOL0     H51013   9.749   3.955   5.029 -0.9728 -0.4573  0.8925
  378MOL0     H51014   8.246   4.464   5.902  0.5804 -2.2109  0.7336
  378MOL0     H51015   8.020   4.485   6.015  4.2785  0.3099  0.2252
  378MOL0     H51016   7.683   4.361   6.124 -0.2963  1.1671  0.2849
  378MOL0     H51017   7.521   4.325   6.268 -0.6311 -0.3319 -0.3578
  378MOL0     H51018   7.132   4.212   6.103 -0.0020 -1.4417  1.9586
  378MOL0     H51019   7.091   4.379   6.164  1.0339  0.8399  1.2145
  378MOL0     H51020   6.978   4.175   6.262 -1.4848  2.3660  0.5136
  378MOL0     H51021   7.053   4.282   6.383 -2.1934 -0.4202 -0.7661
  378MOL0     H51022   7.240   4.105   6.384  0.2325  0.0095  2.5632
  378MOL0     H51023   7.124   4.005   6.285 -1.5692  3.0908 -3.2886
  378MOL0     H51024   7.058   4.139   6.554 -4.6777 -1.4340  1.7551
  378MOL0     H51025   6.961   4.021   6.466 -0.5968 -0.7765  2.5618
  378MOL0     H51026   7.272   3.761   6.628  1.7738 -0.1986 -0.7202
  378MOL0     H51027   7.223   4.364   5.946  0.7862 -0.1250 -1.9263
  378MOL0     H51028   7.413   4.377   5.704 -1.1596 -1.3658  0.2071
  378MOL0     H51029   7.272   4.463   5.742 -0.3223 -3.1279 -2.2557
  378MOL0     H51030   7.415   4.552   5.735 -2.4722  1.3826 -1.5195
  379MOL0     O51031   4.896   5.948   2.557  1.3253  0.6171  0.4073
  379MOL0     C51032   4.770   5.978   2.583 -0.5941  0.1876  0.1296
  379MOL0     O51033   4.723   6.098   2.623  0.7198 -0.2259 -0.7735
  379MOL0     C51034   4.814   6.195   2.653  0.6959 -0.2337  0.3833
  379MOL0     C51035   4.896   6.252   2.547  0.1746 -0.1325 -0.0587
  379MOL0     C51036   4.995   6.349   2.584 -0.4160  0.2674  0.0125
  379MOL0     C51037   5.003   6.392   2.713 -0.6714  0.2543 -0.5535
  379MOL0     O51038   5.096   6.486   2.730  0.4891  0.5899 -0.6325
  379MOL0     C51039   5.124   6.537   2.857  0.1406  0.9114  0.4089
  379MOL0     C51040   5.245   6.623   2.825 -0.0341 -0.1315  0.5013
  379MOL0     C51041   5.345   6.651   2.939 -0.6670  0.1580  1.7481
  379MOL0     C51042   5.459   6.738   2.892  0.0133 -0.3457 -1.0347
  379MOL0     C51043   5.569   6.776   2.996  0.5237  0.8446 -0.0638
  379MOL0     C51044   5.519   6.864   3.109  0.5535 -0.6318 -0.1244
  379MOL0     C51045   5.613   6.956   3.172  1.0217  0.5945 -0.0806
  379MOL0     C51046   5.734   6.885   3.238 -0.3541 -0.4913 -0.5261
  379MOL0     N51047   5.837   6.983   3.273  0.7268  0.1480 -1.1730
  379MOL0     C51048   5.904   7.072   3.191  0.2955 -0.5632 -0.9083
  379MOL0     C51049   6.012   7.123   3.249 -0.1460  0.2716  0.4488
  379MOL0     C51050   6.120   7.218   3.192  0.0339  0.2130 -0.2868
  379MOL0     C51051   6.261   7.154   3.155  0.0253  0.3218  0.8999
  379MOL0     C51052   6.333   7.110   3.274  0.1064  0.0628 -0.7893
  379MOL0     C51053   6.480   7.140   3.274  0.0858 -0.7451 -0.2953
  379MOL0     O51054   6.538   7.150   3.410 -0.1091 -0.4801 -0.4092
  379MOL0     C51055   6.676   7.134   3.417  0.7000  0.9647 -0.6346
  379MOL0     C51056   6.755   7.159   3.313  0.1902 -0.2896 -0.1329
  379MOL0     C51057   6.896   7.133   3.334 -0.5674 -1.2664 -0.5069
  379MOL0     C51058   6.947   7.091   3.462 -0.8690 -0.6473 -0.4290
  379MOL0     C51059   7.096   7.073   3.472  0.2735 -1.4593 -0.7644
  379MOL0     O51060   7.132   7.064   3.607 -0.3333 -0.1954  0.4498
  379MOL0     C51061   7.265   7.056   3.628  1.0967  1.1676 -0.1248
  379MOL0     C51062   7.340   6.935   3.635 -0.3392 -0.4158 -0.3654
  379MOL0     C51063   7.474   6.936   3.668 -0.2335 -0.2630  0.0910
  379MOL0     C51064   7.547   7.052   3.683 -0.2431  0.2032  0.7734
  379MOL0     O51065   7.680   7.049   3.720  0.2227  1.3652  0.4900
  379MOL0     C51066   7.748   7.165   3.758 -0.1492 -0.0245 -0.2083
  379MOL0     C51067   7.891   7.127   3.801 -0.9884 -0.3006 -0.4850
  379MOL0     C51068   7.975   7.059   3.688  0.5571 -1.1674  0.3199
  379MOL0     C51069   7.998   6.905   3.710 -0.8829 -0.2163  0.7853
  379MOL0     C51070   8.072   6.836   3.599  0.1971  0.0612  0.7006
  379MOL0     C51071   8.223   6.855   3.598 -0.4587  0.6471  0.7588
  379MOL0     C51072   8.300   6.760   3.689 -0.1304  0.4087  0.1003
  379MOL0     C51073   8.453   6.769   3.662  1.2841  0.0803 -0.5117
  379MOL0    Cl51074   8.517   6.687   3.802 -0.2385  0.1024  0.1582
  379MOL0     C51075   7.483   7.177   3.666  1.0198 -0.0595  0.3426
  379MOL0     C51076   7.341   7.171   3.640  0.0452  0.7832  1.1169
  379MOL0     O51077   7.172   7.074   3.374 -0.7943 -0.6244 -0.6941
  379MOL0     C51078   6.859   7.071   3.566  0.2679 -0.0823  0.4619
  379MOL0     C51079   6.722   7.085   3.537 -0.6436  0.3916 -0.5528
  379MOL0     N51080   6.013   7.067   3.376  0.6871  0.3884 -0.3881
  379MOL0     N51081   5.908   6.985   3.392  0.0570 -0.0154 -0.1767
  379MOL0     C51082   4.917   6.349   2.812  0.7034  0.0081 -0.1055
  379MOL0     C51083   4.819   6.253   2.783  1.0308 -0.4628 -0.1745
  379MOL0     C51084   4.672   5.882   2.544 -0.7499 -1.3285  0.0697
  379MOL0     C51085   4.568   5.851   2.625 -0.5977  0.6109 -0.4609
  379MOL0     C51086   4.473   5.754   2.584  0.1702 -0.5621 -1.0722
  379MOL0     C51087   4.489   5.681   2.471 -0.6375 -0.1751  0.5165
  379MOL0     O51088   4.413   5.587   2.418 -0.2065  0.0977 -0.3091
  379MOL0     C51089   4.284   5.552   2.471  0.9192 -0.2261 -1.2104
  379MOL0     C51090   4.294   5.458   2.601  0.2222  0.4084 -0.6392
  379MOL0     C51091   4.291   5.308   2.538  0.6641  0.2772  0.2291
  379MOL0     C51092   4.155   5.259   2.493 -0.5563 -0.1083  0.0635
  379MOL0     C51093   4.045   5.249   2.592  0.2940 -0.6571  0.3171
  379MOL0     C51094   3.962   5.221   2.677  0.1199 -0.2978 -0.4867
  379MOL0     C51095   4.593   5.716   2.389  0.4254  0.6207  0.4540
  379MOL0     C51096   4.680   5.816   2.420 -0.1841 -0.2461 -0.3965
  379MOL0     C51097   4.787   5.839   2.315 -0.2440 -0.4969 -1.6742
  379MOL0     H51098   4.887   6.218   2.444 -2.8558  3.2134 -1.1144
  379MOL0     H51099   5.057   6.383   2.502  1.8617 -0.3171  1.4122
  379MOL0     H51100   5.038   6.595   2.892 -1.9046 -0.6170 -1.7645
  379MOL0     H51101   5.145   6.466   2.937  0.9403  2.2926  1.4679
  379MOL0     H51102   5.215   6.723   2.792 -0.3410 -0.5967 -0.6624
  379MOL0     H51103   5.299   6.583   2.739  1.6502  0.3374  1.2840
  379MOL0     H51104   5.389   6.557   2.974 -2.2317 -1.7246 -0.9716
  379MOL0     H51105   5.289   6.698   3.021 -4.7991 -0.1823 -0.6169
  379MOL0     H51106   5.508   6.695   2.803  1.6570  3.2276 -2.0212
  379MOL0     H51107   5.415   6.831   2.857  0.4057 -0.2505 -1.2803
  379MOL0     H51108   5.615   6.681   3.025  0.6614 -0.5385 -4.1384
  379MOL0     H51109   5.652   6.830   2.950  1.0139 -0.6175 -0.9499
  379MOL0     H51110   5.432   6.927   3.086  0.7196  0.9156  3.0203
  379MOL0     H51111   5.477   6.791   3.179  0.6571 -0.2767  0.3161
  379MOL0     H51112   5.564   7.009   3.254 -1.7197 -1.5882 -0.1625
  379MOL0     H51113   5.657   7.021   3.095  2.0179 -1.1793 -1.0627
  379MOL0     H51114   5.706   6.828   3.327 -0.2218 -1.6757 -1.2327
  379MOL0     H51115   5.770   6.814   3.164  0.4977 -1.9368  1.1946
  379MOL0     H51116   5.874   7.100   3.091  2.5520 -0.1088 -1.5017
  379MOL0     H51117   6.075   7.269   3.106 -2.3724  0.7087  1.1774
  379MOL0     H51118   6.132   7.292   3.271 -1.8845  1.1508 -0.8194
  379MOL0     H51119   6.254   7.063   3.094  3.4372 -0.6649  1.7586
  379MOL0     H51120   6.319   7.232   3.105  1.4698 -0.5706  1.1273
  379MOL0     H51121   6.327   7.002   3.288 -0.4523 -0.0263 -1.6585
  379MOL0     H51122   6.284   7.163   3.356 -1.8120 -0.1852 -1.7200
  379MOL0     H51123   6.504   7.239   3.235 -0.2037 -0.7747 -0.5515
  379MOL0     H51124   6.517   7.060   3.209 -0.5877 -2.3919  1.2544
  379MOL0     H51125   6.717   7.181   3.213  0.8785 -1.4275 -0.6569
  379MOL0     H51126   6.970   7.139   3.255 -1.0116 -0.0908 -0.8476
  379MOL0     H51127   7.283   6.844   3.616  1.6435 -2.0158  0.9579
  379MOL0     H51128   7.521   6.841   3.689  1.3787  0.7821  1.4788
  379MOL0     H51129   7.757   7.238   3.677  2.0325 -0.7261 -0.6595
  379MOL0     H51130   7.704   7.221   3.841 -1.8502  1.3203 -1.9533
  379MOL0     H51131   7.940   7.217   3.838  2.7756 -1.6814 -1.6480
  379MOL0     H51132   7.881   7.056   3.884  0.0191 -0.2728 -0.3312
  379MOL0     H51133   7.930   7.071   3.589  1.4591 -0.4913 -0.0216
  379MOL0     H51134   8.062   7.125   3.679 -0.1814 -0.3938 -1.9299
  379MOL0     H51135   7.896   6.864   3.706 -0.5246 -1.0167 -0.8137
  379MOL0     H51136   8.052   6.887   3.804 -0.2036  1.5792  0.7780
  379MOL0     H51137   8.042   6.878   3.503  0.3286  0.5655  0.8762
  379MOL0     H51138   8.050   6.729   3.598 -4.6803  0.8317  0.7543
  379MOL0     H51139   8.248   6.833   3.494 -0.0750  1.9919  0.5443
  379MOL0     H51140   8.260   6.957   3.610 -0.3192  0.6241  0.5187
  379MOL0     H51141   8.266   6.657   3.678  1.8628 -0.1719 -1.2832
  379MOL0     H51142   8.271   6.795   3.789 -1.2245  2.9129 -1.0125
  379MOL0     H51143   8.495   6.720   3.574  2.6459  1.1692 -0.5191
  379MOL0     H51144   8.479   6.875   3.662 -0.3469  0.5570  1.5859
  379MOL0     H51145   7.538   7.268   3.687  1.1591 -0.4404  1.6940
  379MOL0     H51146   7.304   7.273   3.642 -1.4762  0.2450  1.4108
  379MOL0     H51147   6.895   7.058   3.667  0.9328  1.9030  0.5320
  379MOL0     H51148   6.648   7.066   3.614 -0.5940 -0.5032 -0.7143
  379MOL0     H51149   4.918   6.385   2.915  1.3536  2.2186 -0.8390
  379MOL0     H51150   4.738   6.225   2.849 -2.6210  3.6513 -2.3984
  379MOL0     H51151   4.548   5.911   2.713  0.3416 -1.5422  1.3044
  379MOL0     H51152   4.393   5.737   2.655 -0.2002  0.5776 -1.1897
  379MOL0     H51153   4.217   5.517   2.392 -0.2328 -1.8685  0.4212
  379MOL0     H51154   4.241   5.646   2.507  1.1913  0.6312 -2.9809
  379MOL0     H51155   4.211   5.469   2.672  2.4886  4.3765  1.7816
  379MOL0     H51156   4.383   5.479   2.660  0.6384  4.0810 -2.3122
  379MOL0     H51157   4.345   5.239   2.603  1.7268  1.1328  0.2879
  379MOL0     H51158   4.340   5.309   2.441 -1.7997  1.9057 -1.1054
  379MOL0     H51159   4.123   5.293   2.394 -1.4623 -6.4844 -2.3032
  379MOL0     H51160   4.170   5.153   2.473 -1.3738 -0.4608  1.2404
  379MOL0     H51161   3.886   5.184   2.742  0.3129 -0.4870 -0.3660
  379MOL0     H51162   4.588   5.667   2.293 -1.0471 -3.3941  2.3726
  379MOL0     H51163   4.815   5.944   2.304  1.0056 -0.6204 -0.0530
  379MOL0     H51164   4.885   5.797   2.339  0.3743 -0.5279 -3.9750
  379MOL0     H51165   4.751   5.798   2.220 -1.2403 -0.3279 -1.3811
  380MOL0     O51166   2.478  10.785   9.345 -0.1186 -0.2768  0.0866
  380MOL0     C51167   2.437  10.836   9.246  0.7506 -0.4394  0.6980
  380MOL0     O51168   2.521  10.860   9.140 -0.2875 -0.8692  0.2449
  380MOL0     C51169   2.642  10.790   9.117  1.1503  0.1665 -0.7053
  380MOL0     C51170   2.729  10.842   9.019  0.0492  0.4282  0.7229
  380MOL0     C51171   2.858  10.791   9.016 -0.5085  0.2209  0.8723
  380MOL0     C51172   2.897  10.682   9.087 -0.1858  0.5099 -0.4774
  380MOL0     O51173   3.016  10.614   9.070  0.3035  0.1550 -0.4810
  380MOL0     C51174   3.121  10.676   9.005 -0.1108 -1.5063  0.2305
  380MOL0     C51175   3.246  10.598   9.043  0.4164 -0.0238  0.7516
  380MOL0     C51176   3.365  10.612   8.956 -0.8649  0.9247 -0.2126
  380MOL0     C51177   3.455  10.723   9.005 -0.5964 -0.2051 -0.1185
  380MOL0     C51178   3.602  10.717   8.960  0.0717 -0.3677 -0.5935
  380MOL0     C51179   3.685  10.632   9.050  0.4733  0.6040 -0.0842
  380MOL0     C51180   3.838  10.611   9.018  0.6151 -0.5056  0.3161
  380MOL0     C51181   3.873  10.476   9.072 -0.2562 -0.0291  0.4297
  380MOL0     N51182   4.021  10.462   9.058  0.1363 -0.6991 -0.5869
  380MOL0     C51183   4.119  10.518   9.139  0.1715  0.6060  0.5028
  380MOL0     C51184   4.234  10.475   9.086 -0.0679  0.2206  0.6380
  380MOL0     C51185   4.377  10.501   9.132 -0.6756  0.2122  0.6336
  380MOL0     C51186   4.399  10.565   9.272  0.5120  0.2136 -0.0354
  380MOL0     C51187   4.544  10.594   9.328  1.3167  0.0103  1.2601
  380MOL0     C51188   4.636  10.679   9.232  0.3199  0.2811 -0.2419
  380MOL0     O51189   4.751  10.702   9.306  0.0284  0.6055  0.5245
  380MOL0     C51190   4.847  10.777   9.237 -0.1832  0.4035  0.5531
  380MOL0     C51191   4.847  10.803   9.095  0.2348  0.1946 -0.6002
  380MOL0     C51192   4.953  10.870   9.037  0.7880 -0.2148 -0.0468
  380MOL0     C51193   5.069  10.907   9.110 -0.0028  0.4327  1.2935
  380MOL0     C51194   5.184  10.965   9.044 -0.4014 -0.4528 -0.0209
  380MOL0     O51195   5.282  10.994   9.128 -0.1826 -0.2456 -0.5613
  380MOL0     C51196   5.404  11.021   9.086 -0.4381 -0.5264  0.5848
  380MOL0     C51197   5.477  11.133   9.135 -0.2052 -0.6938 -0.2109
  380MOL0     C51198   5.618  11.150   9.088 -0.1068  0.3997  0.3508
  380MOL0     C51199   5.682  11.050   9.018 -1.3738 -0.7235  0.1735
  380MOL0     O51200   5.814  11.054   8.994  0.4762  0.3732 -0.4191
  380MOL0     C51201   5.896  11.160   9.044  0.2690  0.6484  0.1017
  380MOL0     C51202   6.049  11.141   9.003  1.0605  0.2662  0.2840
  380MOL0     C51203   6.090  11.238   8.894  0.4052 -0.5728  0.1422
  380MOL0     C51204   6.242  11.222   8.856 -0.0015  1.0137  0.0655
  380MOL0     C51205   6.273  11.300   8.736 -0.5099  0.5573 -0.0455
  380MOL0     C51206   6.194  11.272   8.608 -0.5033 -0.4718  0.1963
  380MOL0     C51207   6.177  11.125   8.574 -0.0531  0.0478 -0.3759
  380MOL0     C51208   6.081  11.097   8.462 -0.8001  0.0635 -0.2080
  380MOL0    Cl51209   6.126  11.155   8.296  0.0280  0.0856  0.3584
  380MOL0     C51210   5.604  10.948   8.966 -0.2233 -0.0158 -0.5140
  380MOL0     C51211   5.472  10.930   9.004 -0.3875  0.7254 -0.1842
  380MOL0     O51212   5.195  10.972   8.923 -0.6194 -0.5089  0.1405
  380MOL0     C51213   5.069  10.884   9.254  0.2109 -0.5416  0.2835
  380MOL0     C51214   4.959  10.825   9.309  1.0795 -0.0509 -0.9804
  380MOL0     N51215   4.206  10.419   8.967  0.4731  0.4027  0.2187
  380MOL0     N51216   4.078  10.414   8.947 -0.2582  1.0086 -0.2203
  380MOL0     C51217   2.809  10.615   9.164 -0.4069 -1.0803 -0.0458
  380MOL0     C51218   2.686  10.674   9.188  0.1479  0.4806 -0.8651
  380MOL0     C51219   2.301  10.896   9.238 -0.7358 -0.0330  0.1715
  380MOL0     C51220   2.224  10.895   9.356 -0.3485  0.4469 -0.5154
  380MOL0     C51221   2.089  10.931   9.360 -0.2532 -0.1985  0.6470
  380MOL0     C51222   2.032  10.991   9.247 -0.6053 -0.2921 -0.3076
  380MOL0     O51223   1.901  11.031   9.245 -0.2150 -0.6062 -0.6356
  380MOL0     C51224   1.818  10.955   9.331  0.4397  0.3810  0.0885
  380MOL0     C51225   1.681  11.014   9.355  0.3883 -0.2795 -0.1729
  380MOL0     C51226   1.680  11.169   9.324 -1.1006  0.5495  0.5447
  380MOL0     C51227   1.544  11.236   9.334 -0.9322  0.8285 -0.4522
  380MOL0     C51228   1.557  11.364   9.276 -0.0895 -0.5021 -0.6280
  380MOL0     C51229   1.589  11.473   9.231 -0.5073 -0.8921 -0.2979
  380MOL0     C51230   2.115  10.996   9.127  0.3830 -0.2643 -0.4021
  380MOL0     C51231   2.245  10.951   9.121 -1.2800 -0.4304 -0.2844
  380MOL0     C51232   2.308  10.957   8.979 -0.0466  0.0010 -0.1578
  380MOL0     H51233   2.701  10.917   8.945 -0.1629  0.4782  0.8533
  380MOL0     H51234   2.918  10.834   8.936 -0.3118 -1.3234  0.1476
  380MOL0     H51235   3.098  10.672   8.898  3.9465 -3.5372 -0.7554
  380MOL0     H51236   3.135  10.782   9.028 -0.2690 -1.8954  2.3231
  380MOL0     H51237   3.227  10.490   9.045  0.0506  0.0483  1.9857
  380MOL0     H51238   3.270  10.626   9.146 -0.7233  0.1762  0.9814
  380MOL0     H51239   3.329  10.629   8.854 -0.5109 -0.3288 -0.5593
  380MOL0     H51240   3.417  10.516   8.951 -0.0216  1.2712  1.1993
  380MOL0     H51241   3.406  10.816   8.976  2.9661  1.8078 -0.2113
  380MOL0     H51242   3.458  10.734   9.114  0.9070 -0.5470 -0.1012
  380MOL0     H51243   3.591  10.660   8.868  0.3989  0.9563 -1.4740
  380MOL0     H51244   3.647  10.814   8.939 -0.3179 -0.3738 -1.4837
  380MOL0     H51245   3.698  10.684   9.146  0.8247 -0.2574  0.3467
  380MOL0     H51246   3.632  10.537   9.060  0.9430  0.2995 -0.4394
  380MOL0     H51247   3.902  10.691   9.055  1.8759 -0.5313 -1.6656
  380MOL0     H51248   3.850  10.603   8.910  0.1043 -1.8905  0.3369
  380MOL0     H51249   3.833  10.463   9.173  1.3075 -1.1846  0.9420
  380MOL0     H51250   3.822  10.401   9.012 -2.7106  0.6392  1.5671
  380MOL0     H51251   4.112  10.576   9.231  2.1835 -0.1026  1.1692
  380MOL0     H51252   4.430  10.405   9.132  2.3051  1.7248  0.0950
  380MOL0     H51253   4.425  10.566   9.058 -2.0376  0.7258  0.1719
  380MOL0     H51254   4.348  10.661   9.277  2.3269  1.3838 -2.0702
  380MOL0     H51255   4.345  10.504   9.345  3.0731 -0.0241  1.7962
  380MOL0     H51256   4.598  10.504   9.360 -0.5138 -1.3479  0.7251
  380MOL0     H51257   4.516  10.652   9.417 -3.3605 -0.0147  0.0805
  380MOL0     H51258   4.584  10.773   9.208 -4.6930 -1.5195  2.1099
  380MOL0     H51259   4.653  10.621   9.141 -0.3893 -0.1119 -0.1264
  380MOL0     H51260   4.767  10.764   9.032  1.3408 -0.6400 -1.5333
  380MOL0     H51261   4.948  10.894   8.931  0.5120 -1.8408 -0.4292
  380MOL0     H51262   5.441  11.209   9.204 -0.4961 -1.7683  0.8465
  380MOL0     H51263   5.670  11.239   9.123  0.0477  1.0688 -1.4456
  380MOL0     H51264   5.872  11.261   9.011  0.9198  0.8043  0.0771
  380MOL0     H51265   5.894  11.161   9.154 -0.1488  2.7758  0.0993
  380MOL0     H51266   6.104  11.162   9.095 -1.2913  4.0204  1.0400
  380MOL0     H51267   6.072  11.037   8.977  0.2633  0.2374 -0.3663
  380MOL0     H51268   6.034  11.206   8.806  0.7506 -0.5880 -0.0762
  380MOL0     H51269   6.082  11.344   8.919  0.9618 -0.8729  1.7701
  380MOL0     H51270   6.277  11.119   8.847 -1.2570  0.7676 -3.8091
  380MOL0     H51271   6.301  11.261   8.940  0.2683  2.0718 -0.5946
  380MOL0     H51272   6.381  11.296   8.724 -0.4574  2.0763 -0.2631
  380MOL0     H51273   6.261  11.408   8.753  1.1186  0.6015  0.9679
  380MOL0     H51274   6.095  11.303   8.640  0.3046  0.6805  1.6700
  380MOL0     H51275   6.231  11.336   8.527 -0.4225  0.0243  0.6231
  380MOL0     H51276   6.150  11.067   8.663 -1.5717 -4.0647 -3.2430
  380MOL0     H51277   6.276  11.093   8.541 -0.9830 -2.1003 -1.2485
  380MOL0     H51278   6.073  10.988   8.461  1.2396 -0.1229 -1.1980
  380MOL0     H51279   5.982  11.134   8.491 -0.4431  0.6686  0.2727
  380MOL0     H51280   5.643  10.871   8.901 -1.7627 -1.9219  0.7042
  380MOL0     H51281   5.420  10.839   8.974  1.6802 -0.2997 -0.8980
  380MOL0     H51282   5.155  10.908   9.315 -0.1437 -3.8289  2.3467
  380MOL0     H51283   4.963  10.807   9.416 -3.2005  1.3920 -0.4033
  380MOL0     H51284   2.840  10.530   9.224 -2.5544  0.5490  3.6955
  380MOL0     H51285   2.621  10.611   9.247 -0.6936  0.8264 -1.4105
  380MOL0     H51286   2.262  10.855   9.449  1.1220 -1.8670 -1.9874
  380MOL0     H51287   2.041  10.931   9.457 -1.5730 -3.0206  0.1088
  380MOL0     H51288   1.854  10.943   9.433  1.0824 -3.5802 -0.4622
  380MOL0     H51289   1.798  10.855   9.292 -0.9417  0.5780  0.2377
  380MOL0     H51290   1.645  10.990   9.455  0.4468 -1.5688 -0.4437
  380MOL0     H51291   1.613  10.966   9.284 -3.2630  1.8649  1.5634
  380MOL0     H51292   1.704  11.189   9.219 -0.8881  0.0904  0.5039
  380MOL0     H51293   1.752  11.227   9.381  0.7463  0.5130 -1.6266
  380MOL0     H51294   1.465  11.190   9.275  0.4068 -0.5894 -1.2473
  380MOL0     H51295   1.510  11.241   9.438  0.9672 -0.0986  0.2791
  380MOL0     H51296   1.616  11.573   9.204  1.6419 -1.4919 -0.5863
  380MOL0     H51297   2.065  11.048   9.046  1.6562  2.5069  0.4796
  380MOL0     H51298   2.400  11.013   8.993 -0.7537  0.7821  1.7358
  380MOL0     H51299   2.335  10.858   8.941  1.3065 -0.6710  2.2767
  380MOL0     H51300   2.244  11.008   8.907  1.5569  1.8170 -0.3734
  381MOL0     O51301   5.313   8.761   1.180 -0.1312 -0.2531  0.3698
  381MOL0     C51302   5.329   8.835   1.082 -0.0470  1.0448 -0.7479
  381MOL0     O51303   5.441   8.890   1.036 -1.2466 -0.0847 -0.0695
  381MOL0     C51304   5.556   8.887   1.106  0.2850  0.3294 -0.3017
  381MOL0     C51305   5.615   9.007   1.145  0.4846  0.0286 -0.0414
  381MOL0     C51306   5.738   9.008   1.209  0.6185 -0.6447 -0.4220
  381MOL0     C51307   5.799   8.885   1.227  0.0780  0.7182 -0.1267
  381MOL0     O51308   5.928   8.874   1.270  0.1686  0.1337 -0.8246
  381MOL0     C51309   5.935   8.937   1.407 -0.0330  0.1394 -0.4162
  381MOL0     C51310   6.073   8.921   1.457 -0.7449 -0.2562 -0.2875
  381MOL0     C51311   6.093   8.786   1.525 -0.0395 -1.0881 -0.8885
  381MOL0     C51312   6.233   8.770   1.576 -0.1092  1.2639 -1.1408
  381MOL0     C51313   6.242   8.646   1.665 -0.4898 -0.1017 -0.0561
  381MOL0     C51314   6.388   8.621   1.708  0.4717 -0.2409 -0.3531
  381MOL0     C51315   6.452   8.719   1.805  0.2174 -0.5062  0.2989
  381MOL0     C51316   6.581   8.656   1.867  0.4153  0.2083 -0.7488
  381MOL0     N51317   6.559   8.588   1.997  0.0182 -0.7349 -0.3181
  381MOL0     C51318   6.438   8.531   2.032  0.1002 -0.1125 -0.2250
  381MOL0     C51319   6.467   8.504   2.165  0.8372  0.5443 -0.2723
  381MOL0     C51320   6.384   8.432   2.273 -0.3225 -0.9290  0.5821
  381MOL0     C51321   6.401   8.284   2.253 -1.2517 -0.9433 -0.7005
  381MOL0     C51322   6.314   8.222   2.361 -0.2009  0.4456  0.1928
  381MOL0     C51323   6.338   8.078   2.367  0.1155  0.7739 -0.1212
  381MOL0     O51324   6.270   8.024   2.485 -0.1399  0.4071  0.4232
  381MOL0     C51325   6.162   7.943   2.476  0.2417  0.1003 -1.6870
  381MOL0     C51326   6.068   7.962   2.576 -0.4237 -0.0397 -0.2737
  381MOL0     C51327   5.946   7.891   2.580 -0.4451  0.3409  0.5570
  381MOL0     C51328   5.916   7.802   2.472  0.4153 -0.1437  0.4774
  381MOL0     C51329   5.780   7.732   2.471  0.2429 -0.2140 -1.4163
  381MOL0     O51330   5.698   7.767   2.571  0.1925  0.2303 -0.1241
  381MOL0     C51331   5.570   7.707   2.573 -0.6348 -0.1622 -0.1598
  381MOL0     C51332   5.454   7.776   2.534 -0.3384  0.4905  0.2875
  381MOL0     C51333   5.326   7.709   2.534  0.5125 -0.2264  0.4383
  381MOL0     C51334   5.316   7.579   2.572 -0.9666 -0.0724  0.6811
  381MOL0     O51335   5.200   7.510   2.582  0.4744 -0.1467  0.1077
  381MOL0     C51336   5.086   7.535   2.495  0.8588  0.0032 -0.1726
  381MOL0     C51337   4.975   7.446   2.558  0.5241 -0.2566  0.4399
  381MOL0     C51338   4.851   7.427   2.457  0.6094  0.7220  0.0742
  381MOL0     C51339   4.747   7.323   2.507  0.1832 -0.3977  0.3139
  381MOL0     C51340   4.665   7.373   2.630  0.0719  0.4114 -0.0444
  381MOL0     C51341   4.572   7.264   2.692  0.3759 -0.1291  0.0279
  381MOL0     C51342   4.479   7.328   2.798  0.5728 -0.6332  0.3270
  381MOL0     C51343   4.402   7.229   2.875 -0.1318 -0.1936  0.4966
  381MOL0    Cl51344   4.525   7.154   2.991  0.2249  0.2178  0.1050
  381MOL0     C51345   5.435   7.513   2.593  0.4703  0.5912  0.4509
  381MOL0     C51346   5.559   7.571   2.601 -0.8752 -0.8403 -0.1075
  381MOL0     O51347   5.757   7.647   2.393 -0.1927  0.3835 -0.5237
  381MOL0     C51348   6.014   7.777   2.372  0.4278 -0.0898 -0.0787
  381MOL0     C51349   6.138   7.852   2.370 -0.3229  0.5674  0.8883
  381MOL0     N51350   6.592   8.534   2.200  0.1749  0.4068 -0.6495
  381MOL0     N51351   6.646   8.600   2.099 -0.1876  0.0565 -0.7741
  381MOL0     C51352   5.738   8.765   1.187 -0.0963 -0.0870 -0.4430
  381MOL0     C51353   5.617   8.762   1.124  0.2859 -0.3507 -1.2044
  381MOL0     C51354   5.211   8.866   1.002 -0.1743  0.0103  1.5087
  381MOL0     C51355   5.196   9.001   0.948 -0.8403 -0.0496  0.1300
  381MOL0     C51356   5.093   9.053   0.874 -0.4493 -0.3567 -0.1813
  381MOL0     C51357   4.991   8.968   0.848  0.1065 -0.0034 -0.5267
  381MOL0     O51358   4.889   9.041   0.783  0.7366  0.3901  0.6992
  381MOL0     C51359   4.788   8.960   0.728  0.4132 -0.2970 -0.3276
  381MOL0     C51360   4.684   9.058   0.672  0.5007  0.2131  0.0508
  381MOL0     C51361   4.572   9.087   0.784 -0.7510 -0.5725  0.7732
  381MOL0     C51362   4.490   9.212   0.754 -0.0523 -0.5384 -0.5329
  381MOL0     C51363   4.414   9.210   0.626 -0.0108  0.7979 -0.3436
  381MOL0     C51364   4.365   9.198   0.519  0.2556 -0.3310  0.0942
  381MOL0     C51365   4.998   8.830   0.890  0.3070 -0.3305 -0.3382
  381MOL0     C51366   5.111   8.778   0.962 -0.7996  0.4802  0.3047
  381MOL0     C51367   5.115   8.635   0.997 -0.0742 -0.4115  0.3574
  381MOL0     H51368   5.569   9.101   1.118 -0.1792  0.3853  2.1553
  381MOL0     H51369   5.799   9.097   1.223  0.8246 -0.5869 -1.5530
  381MOL0     H51370   5.911   9.043   1.397 -0.7273 -0.1501 -2.1172
  381MOL0     H51371   5.868   8.883   1.474 -0.2190  1.5114  0.5279
  381MOL0     H51372   6.091   8.994   1.536  0.3046  3.5977 -3.7530
  381MOL0     H51373   6.150   8.932   1.379  0.1073  3.7848  0.8993
  381MOL0     H51374   6.081   8.696   1.464  1.7475 -0.2600 -2.5658
  381MOL0     H51375   6.029   8.786   1.614  1.2708 -1.6801  0.0870
  381MOL0     H51376   6.301   8.764   1.491  2.1433  0.9880  0.5973
  381MOL0     H51377   6.273   8.845   1.645  0.0152 -0.5171  0.8257
  381MOL0     H51378   6.180   8.646   1.755  2.8062 -0.8742  2.4375
  381MOL0     H51379   6.212   8.554   1.614  0.8447  0.2179 -1.4856
  381MOL0     H51380   6.390   8.521   1.754  1.7381  0.3900  1.0568
  381MOL0     H51381   6.457   8.603   1.625 -0.5092  0.0296 -1.2557
  381MOL0     H51382   6.386   8.747   1.888 -1.0098 -2.9335  0.2257
  381MOL0     H51383   6.482   8.809   1.749  1.0380  0.3354  2.0046
  381MOL0     H51384   6.639   8.589   1.802 -0.6227 -1.8842  0.3882
  381MOL0     H51385   6.653   8.737   1.886  1.2372 -0.6787  0.0824
  381MOL0     H51386   6.350   8.507   1.973  1.0824 -0.5718 -1.5448
  381MOL0     H51387   6.432   8.467   2.365  0.3313  0.4452 -0.2602
  381MOL0     H51388   6.281   8.468   2.274 -0.1865 -0.4325  2.6596
  381MOL0     H51389   6.356   8.254   2.158 -2.3050 -1.7611  0.0395
  381MOL0     H51390   6.506   8.260   2.272 -1.4088 -2.1187 -1.2628
  381MOL0     H51391   6.207   8.245   2.359 -0.2711  0.1082 -1.7421
  381MOL0     H51392   6.354   8.257   2.457 -0.5360 -0.6969  0.7717
  381MOL0     H51393   6.441   8.047   2.355 -0.0077 -0.8053  2.2799
  381MOL0     H51394   6.286   8.042   2.278  0.0876 -0.2283  0.2948
  381MOL0     H51395   6.095   8.031   2.656  1.3962 -0.8772 -0.1093
  381MOL0     H51396   5.868   7.892   2.655  1.3666 -5.4831  3.1220
  381MOL0     H51397   5.456   7.877   2.497 -0.4644 -0.3214 -2.0912
  381MOL0     H51398   5.239   7.771   2.515 -1.3265 -3.4282 -2.7276
  381MOL0     H51399   5.047   7.637   2.505 -2.5789 -1.2922  1.5034
  381MOL0     H51400   5.108   7.510   2.391  0.4412 -2.1065  0.1896
  381MOL0     H51401   5.026   7.350   2.575  0.1718 -1.2110 -3.1287
  381MOL0     H51402   4.934   7.488   2.650  0.9888 -1.3278  1.1637
  381MOL0     H51403   4.803   7.525   2.460 -0.9972 -0.0678  2.5151
  381MOL0     H51404   4.893   7.406   2.358  2.5985  3.8923  0.1003
  381MOL0     H51405   4.798   7.229   2.531  4.1154  1.0572 -1.5107
  381MOL0     H51406   4.662   7.312   2.439 -1.2062  3.2962  1.1934
  381MOL0     H51407   4.617   7.467   2.600  0.0504 -0.0317 -1.4233
  381MOL0     H51408   4.736   7.399   2.709  0.7886  0.3166 -0.6568
  381MOL0     H51409   4.508   7.235   2.608 -1.5651  2.1413  0.6333
  381MOL0     H51410   4.626   7.181   2.738  0.4453 -0.1333 -0.0614
  381MOL0     H51411   4.390   7.383   2.765  0.0953  0.1540  2.7288
  381MOL0     H51412   4.546   7.383   2.865  2.9779 -0.3531 -2.1471
  381MOL0     H51413   4.330   7.282   2.938 -0.2710 -2.4354  2.3928
  381MOL0     H51414   4.349   7.163   2.806  1.5762 -1.7377  0.5824
  381MOL0     H51415   5.422   7.409   2.620  2.1281  0.7488  2.0337
  381MOL0     H51416   5.653   7.534   2.642 -0.7395  1.0190  1.4088
  381MOL0     H51417   5.993   7.698   2.300  1.5770  0.2968 -0.8727
  381MOL0     H51418   6.213   7.832   2.295  0.9896 -1.6685  2.6604
  381MOL0     H51419   5.797   8.674   1.187 -1.4524 -1.0208  0.7809
  381MOL0     H51420   5.576   8.673   1.077 -1.5794  0.1549 -0.6274
  381MOL0     H51421   5.281   9.068   0.959  0.7936 -1.9664 -0.3225
  381MOL0     H51422   5.082   9.156   0.840  1.0538 -0.0017  0.3370
  381MOL0     H51423   4.741   8.889   0.796 -0.9213 -0.5007 -1.4358
  381MOL0     H51424   4.832   8.904   0.646 -0.7784 -1.3911 -0.2573
  381MOL0     H51425   4.622   9.023   0.589 -0.8871  1.0069  0.7107
  381MOL0     H51426   4.735   9.143   0.626 -0.0983 -0.9185 -2.9778
  381MOL0     H51427   4.620   9.102   0.881  0.5175 -1.6136  0.3390
  381MOL0     H51428   4.511   8.997   0.789 -1.9879  0.3072  2.7053
  381MOL0     H51429   4.423   9.229   0.838  1.3952  1.8467  0.2270
  381MOL0     H51430   4.558   9.296   0.734 -0.5231  0.3667  1.4152
  381MOL0     H51431   4.333   9.171   0.421  1.4450 -1.1179 -0.0936
  381MOL0     H51432   4.909   8.771   0.872 -0.1043 -0.0239  0.6390
  381MOL0     H51433   5.064   8.605   1.089 -1.3577 -1.4762 -0.6611
  381MOL0     H51434   5.049   8.593   0.920  0.0089 -0.4000  0.2795
  381MOL0     H51435   5.212   8.589   0.978  0.2637  0.5943 -0.4569
  382MOL0     O51436   3.845   0.754   3.587 -0.2836  0.8866 -0.2123
  382MOL0     C51437   3.842   0.663   3.502 -0.0299 -0.2657 -0.6297
  382MOL0     O51438   3.893   0.538   3.518 -0.1058  0.3874  0.1325
  382MOL0     C51439   3.931   0.508   3.643 -0.1048  0.3011 -0.8338
  382MOL0     C51440   3.858   0.507   3.758  0.0984  0.1847 -0.2240
  382MOL0     C51441   3.905   0.447   3.876  0.0269  0.0870 -0.4784
  382MOL0     C51442   4.038   0.398   3.891 -0.2426  0.3835 -0.0568
  382MOL0     O51443   4.099   0.323   3.994  0.0577 -0.1664 -0.5548
  382MOL0     C51444   4.027   0.267   4.107 -0.6174 -0.7591 -0.0357
  382MOL0     C51445   4.081   0.344   4.221 -0.9793  0.0280 -0.3265
  382MOL0     C51446   4.033   0.486   4.235  1.4598 -0.3798 -0.0230
  382MOL0     C51447   3.886   0.490   4.276  0.4322  0.1177 -0.7648
  382MOL0     C51448   3.846   0.626   4.315 -0.3270 -0.0326 -0.2139
  382MOL0     C51449   3.719   0.636   4.402 -0.3920  0.4802  0.5090
  382MOL0     C51450   3.689   0.775   4.448 -0.2781 -0.7560  0.5923
  382MOL0     C51451   3.540   0.805   4.440 -0.3083 -0.5388  0.3022
  382MOL0     N51452   3.509   0.946   4.483  0.8111 -0.8111  0.6582
  382MOL0     C51453   3.488   1.061   4.403 -0.3314  0.5803  0.4458
  382MOL0     C51454   3.423   1.150   4.479 -0.2427 -0.3871 -0.5813
  382MOL0     C51455   3.390   1.289   4.450  0.0399 -0.3999  0.7540
  382MOL0     C51456   3.302   1.309   4.327  0.9663  0.2152  0.9666
  382MOL0     C51457   3.289   1.460   4.293  0.5013  0.0640  0.8136
  382MOL0     C51458   3.198   1.525   4.401  0.0015  0.1981  0.4291
  382MOL0     O51459   3.146   1.655   4.378 -0.3630 -0.0093  0.0717
  382MOL0     C51460   3.017   1.666   4.329 -0.4643 -0.3350 -0.6747
  382MOL0     C51461   2.949   1.777   4.360  0.6194 -0.1856  0.8138
  382MOL0     C51462   2.830   1.811   4.285  0.4370  0.1796 -0.2539
  382MOL0     C51463   2.775   1.723   4.200 -1.2528 -0.3787 -0.3565
  382MOL0     C51464   2.651   1.753   4.134  0.1577 -0.6959 -1.1707
  382MOL0     O51465   2.603   1.659   4.051 -0.1786  0.1769  0.3074
  382MOL0     C51466   2.486   1.675   3.976  0.2328  0.3127 -0.1608
  382MOL0     C51467   2.413   1.557   3.976  0.2969 -0.8657  0.7318
  382MOL0     C51468   2.284   1.551   3.922 -0.1398 -0.2854 -0.3176
  382MOL0     C51469   2.235   1.664   3.861 -0.4898 -0.4226  0.2911
  382MOL0     O51470   2.115   1.640   3.800 -0.0301  0.3892 -0.1056
  382MOL0     C51471   2.045   1.750   3.748  0.0023 -0.7189  0.0357
  382MOL0     C51472   1.906   1.722   3.717 -0.2348 -0.0497  0.4184
  382MOL0     C51473   1.890   1.633   3.587 -0.8000 -0.6142 -0.7408
  382MOL0     C51474   1.741   1.631   3.538  0.4013 -0.2933  0.3925
  382MOL0     C51475   1.727   1.559   3.409 -0.0779 -0.2064 -0.3563
  382MOL0     C51476   1.758   1.403   3.418  0.8794 -0.2460  0.1402
  382MOL0     C51477   1.752   1.347   3.277 -0.5284 -0.1125 -0.0647
  382MOL0     C51478   1.755   1.197   3.282 -1.2913 -0.6825 -0.6131
  382MOL0    Cl51479   1.616   1.120   3.346  0.2509 -0.0995 -0.0433
  382MOL0     C51480   2.308   1.789   3.850 -0.3497  0.1290 -0.1759
  382MOL0     C51481   2.438   1.787   3.903  0.5921  0.3832 -0.5302
  382MOL0     O51482   2.602   1.864   4.147  0.6547  0.6917  0.7147
  382MOL0     C51483   2.842   1.601   4.168  0.8036 -0.4988  0.4398
  382MOL0     C51484   2.961   1.578   4.235 -0.3188 -0.2196  0.0877
  382MOL0     N51485   3.426   1.092   4.605 -0.3298 -1.1023  0.5517
  382MOL0     N51486   3.476   0.970   4.606 -0.0642  0.2421 -0.4798
  382MOL0     C51487   4.126   0.437   3.781 -0.0934 -0.0153 -0.6558
  382MOL0     C51488   4.067   0.480   3.661 -0.0135  0.6776 -1.2807
  382MOL0     C51489   3.767   0.682   3.377  0.2471 -0.1957 -0.1193
  382MOL0     C51490   3.753   0.571   3.291 -0.3261 -0.9516 -0.2887
  382MOL0     C51491   3.672   0.570   3.177 -2.0715  0.1297 -1.0399
  382MOL0     C51492   3.611   0.682   3.139 -0.2259  0.1774 -0.0616
  382MOL0     O51493   3.536   0.685   3.023  0.2803 -0.8042 -0.2747
  382MOL0     C51494   3.430   0.592   2.999 -0.0241  0.0294 -0.0982
  382MOL0     C51495   3.335   0.601   3.112 -0.9111 -0.1673 -0.6197
  382MOL0     C51496   3.216   0.507   3.089 -0.3815 -0.1195  0.0718
  382MOL0     C51497   3.095   0.564   3.163 -0.0118 -0.2125 -0.6673
  382MOL0     C51498   3.045   0.686   3.094 -0.0213 -0.5315 -0.3070
  382MOL0     C51499   3.011   0.774   3.023  0.1443 -0.3103 -0.0342
  382MOL0     C51500   3.629   0.800   3.223  0.4091 -0.2372  0.1761
  382MOL0     C51501   3.706   0.801   3.338 -0.0693 -0.9300 -0.3643
  382MOL0     C51502   3.706   0.934   3.409 -0.5171  0.6830  0.2109
  382MOL0     H51503   3.754   0.538   3.757 -0.4701 -1.5983  0.0941
  382MOL0     H51504   3.837   0.443   3.961  0.2317 -0.8140 -0.3409
  382MOL0     H51505   3.920   0.287   4.095 -0.1215  2.8632  0.6994
  382MOL0     H51506   4.051   0.160   4.113  0.2622 -0.5874 -0.4054
  382MOL0     H51507   4.190   0.345   4.209 -1.1045 -1.3870 -1.9754
  382MOL0     H51508   4.059   0.288   4.312  0.5605 -0.3154 -0.1364
  382MOL0     H51509   4.054   0.545   4.145 -0.3610 -0.6472 -0.6706
  382MOL0     H51510   4.082   0.531   4.321 -0.3289  0.7569  0.4515
  382MOL0     H51511   3.823   0.457   4.192 -1.8743  0.6247  0.6851
  382MOL0     H51512   3.868   0.417   4.355 -1.3685 -0.1018 -1.3258
  382MOL0     H51513   3.928   0.677   4.366 -2.0399  3.5430 -0.7098
  382MOL0     H51514   3.829   0.685   4.225  1.4755  0.8161 -0.0358
  382MOL0     H51515   3.633   0.595   4.348  0.2601  2.1746 -2.0106
  382MOL0     H51516   3.730   0.575   4.492 -2.3992  0.8075  1.0286
  382MOL0     H51517   3.740   0.847   4.384 -0.5326  0.3091  1.5615
  382MOL0     H51518   3.721   0.788   4.551  2.9711  1.5800 -0.5405
  382MOL0     H51519   3.509   0.797   4.336 -0.6200  0.1600  0.3351
  382MOL0     H51520   3.489   0.732   4.503 -3.9118  3.1897  2.2467
  382MOL0     H51521   3.508   1.079   4.298 -2.0680  0.1303  0.0045
  382MOL0     H51522   3.342   1.330   4.540  0.8500  1.7422  0.2750
  382MOL0     H51523   3.488   1.336   4.440 -1.0063  2.1045  1.3949
  382MOL0     H51524   3.353   1.268   4.239  2.0021  1.7713  0.8104
  382MOL0     H51525   3.205   1.263   4.349  0.3878  0.7626 -0.3064
  382MOL0     H51526   3.250   1.475   4.192  0.4591 -2.2683  0.4403
  382MOL0     H51527   3.390   1.502   4.295  0.6621 -0.1799 -0.9606
  382MOL0     H51528   3.251   1.547   4.494  0.8129  1.6435 -0.3225
  382MOL0     H51529   3.110   1.461   4.407  0.5049 -0.7481 -1.4366
  382MOL0     H51530   2.995   1.852   4.423  1.1579  1.6135 -1.5894
  382MOL0     H51531   2.782   1.907   4.304 -2.4884 -1.0241 -1.1109
  382MOL0     H51532   2.450   1.469   4.028  1.3179 -0.7577  0.2055
  382MOL0     H51533   2.220   1.463   3.929 -3.8688  2.2997  1.5375
  382MOL0     H51534   2.033   1.825   3.827  2.0932  0.6338 -0.8470
  382MOL0     H51535   2.087   1.792   3.656  0.3231  1.6400  1.1768
  382MOL0     H51536   1.863   1.673   3.805 -0.0326 -2.9623 -0.9782
  382MOL0     H51537   1.861   1.821   3.706  0.6137  0.1800 -1.3476
  382MOL0     H51538   1.966   1.657   3.513  0.0051 -1.0476 -0.0809
  382MOL0     H51539   1.914   1.530   3.616 -1.4672 -0.8102 -0.8620
  382MOL0     H51540   1.708   1.733   3.516 -0.2898 -1.0393 -2.3394
  382MOL0     H51541   1.665   1.586   3.602 -1.3418  1.3832 -0.4128
  382MOL0     H51542   1.793   1.615   3.343  1.6220  0.2106  1.5828
  382MOL0     H51543   1.626   1.569   3.369  0.6299  2.8857 -1.6653
  382MOL0     H51544   1.851   1.379   3.470  1.1360 -1.4955 -0.8249
  382MOL0     H51545   1.670   1.363   3.471 -0.9237  0.7165 -1.9745
  382MOL0     H51546   1.841   1.377   3.220  0.8113 -1.1306  1.3965
  382MOL0     H51547   1.662   1.385   3.229 -0.3710 -0.3512 -0.5678
  382MOL0     H51548   1.781   1.151   3.186  1.6718  1.6438 -1.0841
  382MOL0     H51549   1.836   1.167   3.350  0.5562  1.0841 -1.9300
  382MOL0     H51550   2.284   1.875   3.789 -0.7164 -1.4985 -2.4510
  382MOL0     H51551   2.491   1.880   3.883 -0.3039  0.4569 -2.9170
  382MOL0     H51552   2.809   1.529   4.093  2.2146 -0.5051 -0.2018
  382MOL0     H51553   3.012   1.487   4.206  3.4649  1.6494  0.2719
  382MOL0     H51554   4.229   0.403   3.786 -1.3033 -4.1221  3.3327
  382MOL0     H51555   4.133   0.480   3.574 -0.2561 -2.6497 -1.6059
  382MOL0     H51556   3.815   0.483   3.305  2.7777  1.0967 -0.2001
  382MOL0     H51557   3.686   0.484   3.112  0.8679 -0.2445 -0.0586
  382MOL0     H51558   3.464   0.488   2.986 -0.8749 -0.2188 -0.4090
  382MOL0     H51559   3.394   0.620   2.900  0.6744  1.6167  0.0676
  382MOL0     H51560   3.303   0.704   3.129  2.6619  0.7192  1.8105
  382MOL0     H51561   3.396   0.567   3.196 -0.5590 -0.3167 -0.9297
  382MOL0     H51562   3.262   0.421   3.139  1.2421  1.7325  1.9838
  382MOL0     H51563   3.204   0.495   2.981  2.1868  4.7596 -1.0873
  382MOL0     H51564   3.014   0.491   3.161  0.3749 -0.6737  0.0991
  382MOL0     H51565   3.132   0.598   3.260 -0.2799 -0.0063 -0.6367
  382MOL0     H51566   2.983   0.855   2.957 -1.4700 -1.5413 -0.9346
  382MOL0     H51567   3.582   0.894   3.195 -0.2103 -0.0048  1.8598
  382MOL0     H51568   3.808   0.972   3.416  1.5912 -4.0771 -1.1039
  382MOL0     H51569   3.635   1.011   3.374 -0.1794  1.6657  1.5909
  382MOL0     H51570   3.674   0.911   3.511 -2.4562 -0.7336 -0.6605
  383MOL0     O51571   6.677   3.010   5.646 -0.1732 -0.7105  0.0998
  383MOL0     C51572   6.654   3.091   5.736  0.8157  0.4375 -0.5733
  383MOL0     O51573   6.717   3.202   5.757 -0.6675 -0.5648 -0.3947
  383MOL0     C51574   6.823   3.253   5.678  0.1071 -0.9210 -0.1034
  383MOL0     C51575   6.899   3.356   5.739  0.5340 -0.8995  0.2781
  383MOL0     C51576   7.016   3.403   5.675  0.1809  0.6527 -0.3354
  383MOL0     C51577   7.044   3.367   5.539 -0.4267  0.2502  0.2638
  383MOL0     O51578   7.153   3.408   5.463  0.4978  1.1942  0.2152
  383MOL0     C51579   7.237   3.511   5.518 -0.5490 -0.0031  0.2149
  383MOL0     C51580   7.306   3.597   5.405 -0.1428  0.5145 -0.8003
  383MOL0     C51581   7.212   3.644   5.297 -0.4808 -0.2892  0.4894
  383MOL0     C51582   7.079   3.714   5.357 -0.5786 -1.2295  0.7731
  383MOL0     C51583   7.114   3.852   5.422  0.3102  0.0698  0.4950
  383MOL0     C51584   6.996   3.954   5.407  0.0702 -0.2301  0.1644
  383MOL0     C51585   6.862   3.903   5.452  0.3257 -0.4458 -0.2963
  383MOL0     C51586   6.856   3.861   5.593 -0.0492 -0.1313 -1.6634
  383MOL0     N51587   6.893   3.969   5.690  0.3168 -0.7270 -0.4511
  383MOL0     C51588   6.844   4.097   5.713  0.8771  0.2665 -0.0024
  383MOL0     C51589   6.910   4.146   5.826  0.2096 -0.1740  1.0071
  383MOL0     C51590   6.913   4.285   5.882  0.6514 -0.3621  0.8669
  383MOL0     C51591   6.784   4.370   5.850 -0.3959  0.5326  0.1942
  383MOL0     C51592   6.791   4.509   5.912  0.2109  0.9021 -0.8233
  383MOL0     C51593   6.674   4.595   5.871  0.3211 -0.1558  0.3231
  383MOL0     O51594   6.563   4.579   5.960  0.4117  0.6393 -0.5235
  383MOL0     C51595   6.448   4.638   5.937 -1.2443 -0.1824 -0.2676
  383MOL0     C51596   6.326   4.584   5.984 -0.1276 -0.0088 -0.0998
  383MOL0     C51597   6.199   4.643   5.961 -0.4158 -0.5072 -0.1941
  383MOL0     C51598   6.199   4.762   5.883 -0.0073  1.0274 -0.1303
  383MOL0     C51599   6.072   4.821   5.855 -0.0580 -0.2195 -0.0534
  383MOL0     O51600   5.964   4.742   5.837 -0.5138  0.6389  0.2678
  383MOL0     C51601   5.842   4.802   5.790 -0.2868 -0.3535 -0.9140
  383MOL0     C51602   5.808   4.789   5.656 -0.1571  0.0090  0.1829
  383MOL0     C51603   5.692   4.852   5.592 -0.0426 -0.5713 -0.2702
  383MOL0     C51604   5.615   4.942   5.672  0.5754 -0.0835  0.7029
  383MOL0     O51605   5.499   5.011   5.648 -0.2392 -0.2287 -0.0837
  383MOL0     C51606   5.452   4.997   5.512  0.2479  0.6317  0.1878
  383MOL0     C51607   5.333   5.083   5.470 -0.3381  0.5515 -0.8640
  383MOL0     C51608   5.260   5.013   5.361  0.6968  0.3776 -0.4764
  383MOL0     C51609   5.347   5.004   5.230  0.3217 -0.1586 -0.5081
  383MOL0     C51610   5.276   4.922   5.120  0.3913 -0.2799  0.2439
  383MOL0     C51611   5.137   4.973   5.069  0.1521  1.0248  0.5444
  383MOL0     C51612   5.142   5.115   4.994  0.2582 -0.4229 -0.0161
  383MOL0     C51613   5.020   5.144   4.910 -0.3049 -0.5258  0.6406
  383MOL0    Cl51614   5.004   5.036   4.769  0.1989  0.5218  0.1809
  383MOL0     C51615   5.647   4.947   5.802 -0.6796 -0.8959 -0.6866
  383MOL0     C51616   5.761   4.887   5.867  0.5767  0.2328  0.7053
  383MOL0     O51617   6.072   4.942   5.863 -0.2489 -0.0400  1.3139
  383MOL0     C51618   6.317   4.804   5.829 -0.4131  1.4047  0.8194
  383MOL0     C51619   6.438   4.756   5.864  0.0422  0.7776  0.5331
  383MOL0     N51620   6.993   4.040   5.873 -0.7373 -0.2029  0.8878
  383MOL0     N51621   6.980   3.941   5.796  0.2794  0.1591  0.1122
  383MOL0     C51622   6.958   3.275   5.483 -0.0795  0.4237 -0.5682
  383MOL0     C51623   6.852   3.204   5.549 -0.1549  0.2257  0.9490
  383MOL0     C51624   6.541   3.056   5.833  0.3292 -1.2975  0.1321
  383MOL0     C51625   6.514   2.921   5.869 -0.0011  0.7097 -0.2379
  383MOL0     C51626   6.410   2.895   5.961 -0.3467 -0.1349  1.1962
  383MOL0     C51627   6.343   3.002   6.020 -0.3602 -0.7285  0.6995
  383MOL0     O51628   6.261   2.965   6.125  0.6051  0.2339  0.4675
  383MOL0     C51629   6.132   3.049   6.127 -0.0444  0.0905 -0.1715
  383MOL0     C51630   6.017   2.945   6.122 -0.3084 -0.5431  0.0233
  383MOL0     C51631   5.885   3.011   6.080 -1.2594  0.3869 -0.1095
  383MOL0     C51632   5.802   3.077   6.204  0.2527  0.5053  0.2585
  383MOL0     C51633   5.662   3.093   6.169  0.2644 -0.5212  0.0744
  383MOL0     C51634   5.547   3.112   6.133  0.3042 -0.8817 -0.0037
  383MOL0     C51635   6.370   3.136   5.992  0.3898 -0.7511 -0.7185
  383MOL0     C51636   6.468   3.162   5.896 -0.2111 -0.6371  0.1556
  383MOL0     C51637   6.481   3.313   5.863 -0.2611 -0.2775 -0.3983
  383MOL0     H51638   6.863   3.398   5.832 -0.1505  0.9725 -0.7760
  383MOL0     H51639   7.077   3.473   5.730 -0.2991  0.1429  0.8705
  383MOL0     H51640   7.190   3.593   5.573  2.6294  3.0096 -1.0858
  383MOL0     H51641   7.315   3.478   5.587  2.2945  2.1814 -1.6989
  383MOL0     H51642   7.384   3.534   5.362 -2.1159 -1.4741 -1.6430
  383MOL0     H51643   7.352   3.688   5.446 -1.6766  1.3999 -0.9804
  383MOL0     H51644   7.172   3.555   5.246  0.4870 -0.5094  0.1064
  383MOL0     H51645   7.263   3.699   5.218  1.1349 -0.9942  1.0085
  383MOL0     H51646   7.010   3.738   5.275  3.8831  5.9070 -1.8679
  383MOL0     H51647   7.025   3.643   5.421 -0.9829 -0.9877  0.7093
  383MOL0     H51648   7.146   3.843   5.526  1.3892  1.1233  0.2812
  383MOL0     H51649   7.195   3.900   5.366  0.6135  0.0531  0.9166
  383MOL0     H51650   7.024   4.050   5.450  1.0051 -2.0236  3.9446
  383MOL0     H51651   6.978   3.983   5.303  5.4208  2.4902 -0.3465
  383MOL0     H51652   6.828   3.812   5.402  0.3884 -0.3813 -0.4572
  383MOL0     H51653   6.784   3.978   5.438 -0.0614 -0.4017  1.7123
  383MOL0     H51654   6.754   3.830   5.614  0.5784 -1.3684 -0.2530
  383MOL0     H51655   6.928   3.780   5.607  0.5437  0.6805  0.3423
  383MOL0     H51656   6.782   4.146   5.639  2.1145  2.0083  0.0574
  383MOL0     H51657   6.903   4.278   5.991 -1.0698 -2.0415  0.6529
  383MOL0     H51658   7.002   4.346   5.863 -0.5210  1.7512  1.7802
  383MOL0     H51659   6.766   4.384   5.743  0.9325 -2.4600 -0.5329
  383MOL0     H51660   6.700   4.309   5.886  1.2814 -2.5307 -0.7503
  383MOL0     H51661   6.880   4.558   5.872  2.5433 -2.8595 -0.7992
  383MOL0     H51662   6.795   4.500   6.021 -1.1239 -2.2097 -0.9289
  383MOL0     H51663   6.644   4.581   5.767  2.5582 -0.2604 -0.3412
  383MOL0     H51664   6.710   4.698   5.878  0.3621 -0.1951  0.7252
  383MOL0     H51665   6.325   4.506   6.061 -2.6373  2.0626  2.2034
  383MOL0     H51666   6.102   4.607   5.995 -1.7059  2.7643 -0.0505
  383MOL0     H51667   5.871   4.726   5.594  0.7432 -1.0855  2.1161
  383MOL0     H51668   5.667   4.822   5.491 -0.9628 -2.2762  0.4153
  383MOL0     H51669   5.538   5.029   5.452  0.1323  0.3471 -0.1335
  383MOL0     H51670   5.430   4.892   5.494 -2.7872  1.0357  1.0115
  383MOL0     H51671   5.262   5.105   5.550  0.0895  1.3380 -0.6895
  383MOL0     H51672   5.353   5.189   5.450 -2.2510  0.8703 -1.2573
  383MOL0     H51673   5.232   4.909   5.380  1.4500 -0.0490 -1.5748
  383MOL0     H51674   5.167   5.066   5.336 -1.6197 -3.3729 -0.6223
  383MOL0     H51675   5.439   4.948   5.252 -1.5096 -2.2660  2.6660
  383MOL0     H51676   5.375   5.101   5.190  0.6726 -0.2638 -0.5198
  383MOL0     H51677   5.266   4.823   5.164 -0.5746 -0.0937  0.4607
  383MOL0     H51678   5.344   4.919   5.035 -0.7701  1.4735 -0.8081
  383MOL0     H51679   5.116   4.892   4.998  2.5441  1.5362 -0.8260
  383MOL0     H51680   5.066   4.980   5.152  0.0715 -0.6176  0.6613
  383MOL0     H51681   5.235   5.120   4.937  0.3943 -0.1964  0.2216
  383MOL0     H51682   5.159   5.194   5.068  0.7332  0.3782 -0.9630
  383MOL0     H51683   4.938   5.121   4.979  3.3905 -3.4383  4.5995
  383MOL0     H51684   5.033   5.249   4.883  3.1193 -0.2568  2.7677
  383MOL0     H51685   5.595   5.014   5.869  1.3291  1.1133 -1.0200
  383MOL0     H51686   5.781   4.902   5.973  0.4613 -0.6850  0.8580
  383MOL0     H51687   6.317   4.883   5.754  0.5514  0.8338  0.1941
  383MOL0     H51688   6.531   4.793   5.821 -0.1152 -0.5570 -1.0569
  383MOL0     H51689   6.984   3.252   5.380  1.5375  1.6291 -0.4587
  383MOL0     H51690   6.798   3.131   5.489  3.5817 -1.0611 -1.1963
  383MOL0     H51691   6.566   2.837   5.825 -1.8231 -0.5516 -0.0820
  383MOL0     H51692   6.396   2.791   5.988 -0.8113  0.2077  2.3623
  383MOL0     H51693   6.119   3.119   6.043  2.3035  0.1651 -0.5322
  383MOL0     H51694   6.126   3.107   6.219 -4.5144 -2.1409  1.2502
  383MOL0     H51695   5.999   2.896   6.218 -0.9118 -0.9705 -0.3032
  383MOL0     H51696   6.051   2.879   6.042 -0.0384  1.0863 -1.2767
  383MOL0     H51697   5.836   2.933   6.021  0.2193 -1.0034  0.4584
  383MOL0     H51698   5.910   3.098   6.018  0.3897  0.0978  0.1162
  383MOL0     H51699   5.794   3.015   6.294  0.9957 -2.9127 -1.8718
  383MOL0     H51700   5.857   3.171   6.215  0.5426  0.2882  0.6655
  383MOL0     H51701   5.441   3.118   6.116  0.4635  1.8185 -0.4506
  383MOL0     H51702   6.320   3.219   6.040  2.1039  0.4062 -0.8117
  383MOL0     H51703   6.403   3.376   5.908  1.6175  0.7125  1.6166
  383MOL0     H51704   6.569   3.358   5.909  0.2345 -1.2394 -0.3871
  383MOL0     H51705   6.483   3.330   5.755 -0.8946 -0.5222 -0.4552
  384MOL0     O51706   9.121   8.161   5.428 -0.0239 -0.6750 -0.1466
  384MOL0     C51707   9.026   8.108   5.484 -0.0663 -0.5527 -0.9296
  384MOL0     O51708   9.030   8.070   5.616  0.1723  0.7484 -0.3377
  384MOL0     C51709   9.146   8.022   5.669 -0.0356  0.9415 -0.9741
  384MOL0     C51710   9.229   7.935   5.602 -0.0988 -0.0432 -0.1534
  384MOL0     C51711   9.340   7.881   5.665 -1.0566  0.2662  0.3067
  384MOL0     C51712   9.371   7.915   5.799 -0.7954  0.0695  0.5323
  384MOL0     O51713   9.492   7.880   5.868  0.3101  0.1313  0.0136
  384MOL0     C51714   9.559   7.772   5.812 -0.7304 -0.2823 -0.3401
  384MOL0     C51715   9.631   7.707   5.921  0.2556  0.4211 -0.2264
  384MOL0     C51716   9.705   7.574   5.885 -1.5535  0.2754  0.2049
  384MOL0     C51717   9.618   7.446   5.876 -0.3962 -0.3423 -1.1382
  384MOL0     C51718   9.703   7.330   5.818  0.6140  1.8661  0.0482
  384MOL0     C51719   9.688   7.300   5.671  0.4041  0.6281 -0.1338
  384MOL0     C51720   9.747   7.160   5.640  0.0392  0.0630 -0.3726
  384MOL0     C51721   9.900   7.154   5.639  0.0219 -0.1925 -0.5887
  384MOL0     N51722   9.944   7.031   5.579  0.4271  0.5526  0.0821
  384MOL0     C51723  10.020   6.931   5.633 -1.1031  0.2426  0.4236
  384MOL0     C51724  10.050   6.849   5.522 -0.0223  0.0991  0.1117
  384MOL0     C51725  10.127   6.719   5.511 -0.2064  0.0010 -0.3439
  384MOL0     C51726  10.068   6.598   5.576  0.3846 -0.1139  0.4600
  384MOL0     C51727  10.169   6.484   5.579 -0.3018  0.9509 -0.8944
  384MOL0     C51728  10.201   6.412   5.706 -0.3055 -0.6707  0.3535
  384MOL0     O51729  10.294   6.304   5.674  0.0097 -0.1722 -0.7562
  384MOL0     C51730  10.345   6.232   5.786  0.0388  0.2082  0.0699
  384MOL0     C51731  10.272   6.213   5.904 -0.3882 -0.0983  0.7858
  384MOL0     C51732  10.324   6.136   6.012  0.7898 -0.4643 -0.7390
  384MOL0     C51733  10.458   6.100   6.000 -0.1446 -0.8271 -1.1642
  384MOL0     C51734  10.522   6.028   6.114  0.3985  0.4590 -0.0213
  384MOL0     O51735  10.661   6.028   6.114 -0.6008 -0.6284 -0.3668
  384MOL0     C51736  10.724   5.957   6.216 -0.0113 -0.1481 -0.2322
  384MOL0     C51737  10.852   6.001   6.259 -0.5884  0.1045 -0.3696
  384MOL0     C51738  10.924   5.928   6.353  0.2576 -0.1046  0.5675
  384MOL0     C51739  10.883   5.809   6.406 -0.2875  0.4874 -0.0456
  384MOL0     O51740  10.964   5.744   6.502  0.3579  0.1571  0.4396
  384MOL0     C51741  10.915   5.626   6.562 -0.5188 -0.8565 -1.1810
  384MOL0     C51742  11.007   5.607   6.681 -0.3435  0.5081  0.6162
  384MOL0     C51743  11.149   5.577   6.655 -0.0466 -0.2768 -0.2876
  384MOL0     C51744  11.211   5.508   6.777  0.4463  0.7108  0.0740
  384MOL0     C51745  11.357   5.474   6.753 -0.0825  0.4103 -0.9053
  384MOL0     C51746  11.379   5.362   6.647 -0.2490 -0.0827 -0.5437
  384MOL0     C51747  11.522   5.318   6.639 -0.6892 -0.5368  0.7696
  384MOL0     C51748  11.554   5.245   6.511  0.3670  0.3298 -0.5681
  384MOL0    Cl51749  11.512   5.071   6.507  0.3382 -0.4056 -0.4942
  384MOL0     C51750  10.764   5.755   6.360  0.7018  0.0160  0.4767
  384MOL0     C51751  10.688   5.825   6.262  0.2674 -0.0681 -0.4409
  384MOL0     O51752  10.451   5.986   6.206  0.3458 -0.4629 -0.0289
  384MOL0     C51753  10.536   6.136   5.886 -0.4812  0.3158  1.1812
  384MOL0     C51754  10.474   6.193   5.769 -1.3463  0.3885 -0.3541
  384MOL0     N51755   9.996   6.907   5.411 -0.0008  0.1773  0.3250
  384MOL0     N51756   9.927   7.014   5.445  0.1298  0.6568 -0.3009
  384MOL0     C51757   9.282   7.986   5.868  0.2840 -0.3452 -0.2656
  384MOL0     C51758   9.168   8.044   5.800 -0.0809 -0.4848 -0.5354
  384MOL0     C51759   8.898   8.100   5.412  0.4011 -1.1256  0.1885
  384MOL0     C51760   8.871   8.198   5.305  1.0964  0.2455 -0.3142
  384MOL0     C51761   8.748   8.192   5.236  0.8590 -0.6128 -0.8916
  384MOL0     C51762   8.662   8.088   5.260 -1.0574  0.0405 -0.8347
  384MOL0     O51763   8.553   8.058   5.184  0.0432  0.2791 -0.6284
  384MOL0     C51764   8.470   8.159   5.121  0.2046 -0.8766  0.9004
  384MOL0     C51765   8.506   8.186   4.971 -0.5146  0.6156 -0.0817
  384MOL0     C51766   8.459   8.071   4.879 -0.1477  0.8554 -0.5668
  384MOL0     C51767   8.346   8.111   4.785  0.5595  0.5589 -0.1177
  384MOL0     C51768   8.223   8.125   4.866 -0.0588  1.4024  0.1115
  384MOL0     C51769   8.118   8.145   4.918 -0.3853 -1.1756  0.3698
  384MOL0     C51770   8.703   7.992   5.352  0.2236 -0.1072 -0.3188
  384MOL0     C51771   8.812   7.993   5.426 -0.6309  1.6534 -0.4916
  384MOL0     C51772   8.827   7.870   5.520 -0.5278 -0.3155  0.2420
  384MOL0     H51773   9.222   7.901   5.499 -4.3831  0.2037 -0.0993
  384MOL0     H51774   9.404   7.821   5.602 -0.7931 -0.2146  1.0241
  384MOL0     H51775   9.482   7.702   5.776 -0.3881 -1.0945  0.4817
  384MOL0     H51776   9.625   7.802   5.730 -0.3941 -0.9846 -0.3321
  384MOL0     H51777   9.564   7.683   6.004 -1.6334 -1.2789 -2.1180
  384MOL0     H51778   9.704   7.779   5.959 -0.6612  0.0662  2.4038
  384MOL0     H51779   9.784   7.569   5.960  2.4697  3.7352 -3.2470
  384MOL0     H51780   9.756   7.582   5.788 -1.5506  1.4270  0.2913
  384MOL0     H51781   9.588   7.423   5.978  3.6651 -2.3979 -0.1801
  384MOL0     H51782   9.526   7.466   5.820 -2.3593  0.4107  2.1434
  384MOL0     H51783   9.809   7.352   5.831  1.3267 -1.5114  0.8828
  384MOL0     H51784   9.684   7.237   5.872  2.7088  2.1874  1.4532
  384MOL0     H51785   9.583   7.304   5.640  0.8819 -1.4918 -2.3649
  384MOL0     H51786   9.746   7.371   5.611  1.4324 -0.8590 -0.9982
  384MOL0     H51787   9.700   7.125   5.548  0.8708  0.1222 -0.8332
  384MOL0     H51788   9.714   7.087   5.715 -1.2779 -0.0931 -1.0839
  384MOL0     H51789   9.951   7.239   5.592  0.1117  0.1495  0.1237
  384MOL0     H51790   9.930   7.160   5.744 -2.3800 -0.3358  0.1663
  384MOL0     H51791  10.048   6.928   5.738 -2.0521  0.6849  0.7032
  384MOL0     H51792  10.140   6.697   5.404 -3.1122  0.6882 -0.9262
  384MOL0     H51793  10.225   6.730   5.557 -1.6606 -1.1078  3.3620
  384MOL0     H51794  10.039   6.614   5.680 -0.2356  0.9456  0.1411
  384MOL0     H51795   9.986   6.561   5.515  0.5016  0.8813 -0.3146
  384MOL0     H51796  10.260   6.516   5.527  1.6729 -0.6917  1.3082
  384MOL0     H51797  10.127   6.411   5.510  1.3742 -1.5535  0.5678
  384MOL0     H51798  10.115   6.371   5.760  0.1706 -0.9332  0.9297
  384MOL0     H51799  10.262   6.469   5.777  0.1689 -1.3008  0.4656
  384MOL0     H51800  10.168   6.245   5.902  0.0969  1.5596 -1.0410
  384MOL0     H51801  10.267   6.116   6.102 -1.4278  0.3111 -1.8939
  384MOL0     H51802  10.893   6.099   6.236  0.3524  0.5709  2.7231
  384MOL0     H51803  11.015   5.971   6.394  1.3821 -0.2386 -1.6276
  384MOL0     H51804  10.814   5.647   6.598 -0.4075 -1.0853 -0.7230
  384MOL0     H51805  10.913   5.547   6.486  3.0343 -0.0656 -2.3177
  384MOL0     H51806  11.000   5.693   6.748  0.3432  3.6204 -2.9051
  384MOL0     H51807  10.957   5.525   6.733 -1.9211  1.0451  0.0117
  384MOL0     H51808  11.149   5.511   6.568 -0.6084  1.3227 -1.5536
  384MOL0     H51809  11.198   5.668   6.620  0.0093 -1.5886 -4.0158
  384MOL0     H51810  11.165   5.411   6.798  2.9243 -0.8200 -1.0461
  384MOL0     H51811  11.198   5.572   6.865 -2.4937  0.7509 -0.2949
  384MOL0     H51812  11.397   5.426   6.843  0.6142 -0.5838 -1.7206
  384MOL0     H51813  11.416   5.566   6.739  1.9783 -0.0430  3.0856
  384MOL0     H51814  11.314   5.279   6.675 -0.2654 -0.5558 -1.8892
  384MOL0     H51815  11.352   5.397   6.547  1.5927 -1.1005 -1.4594
  384MOL0     H51816  11.560   5.254   6.719  0.5188 -3.1828 -1.7602
  384MOL0     H51817  11.590   5.403   6.635  2.5365 -2.9938 -1.9242
  384MOL0     H51818  11.508   5.293   6.424 -0.6993  1.8696  0.7712
  384MOL0     H51819  11.663   5.246   6.500  0.2751  1.0170 -1.5383
  384MOL0     H51820  10.723   5.657   6.383  0.3678 -0.1865 -0.9133
  384MOL0     H51821  10.601   5.783   6.212 -0.5750  3.0348 -1.7818
  384MOL0     H51822  10.642   6.119   5.869 -0.8130 -1.2757  0.5202
  384MOL0     H51823  10.527   6.216   5.677 -2.8526  3.1394 -0.6162
  384MOL0     H51824   9.288   8.009   5.974 -0.5263 -1.2498 -0.0092
  384MOL0     H51825   9.104   8.110   5.858 -0.0072 -0.7221 -0.1825
  384MOL0     H51826   8.940   8.280   5.292  1.4357  0.1498  0.8496
  384MOL0     H51827   8.713   8.269   5.168 -1.2651 -1.3333 -0.6820
  384MOL0     H51828   8.492   8.257   5.164 -0.6781  1.5560 -3.5220
  384MOL0     H51829   8.363   8.135   5.126 -0.3289  0.5491 -1.6633
  384MOL0     H51830   8.614   8.205   4.964 -0.3293  0.1242  1.1353
  384MOL0     H51831   8.459   8.283   4.952  1.2593  1.4028 -0.6512
  384MOL0     H51832   8.422   7.988   4.940  0.0077 -1.0093 -2.8658
  384MOL0     H51833   8.546   8.040   4.821  1.0134  1.1013  0.9756
  384MOL0     H51834   8.358   8.211   4.741  1.7646  0.7653  0.6125
  384MOL0     H51835   8.335   8.032   4.711 -0.9356  1.3214 -0.7404
  384MOL0     H51836   8.024   8.156   4.969 -0.9925 -0.5600 -0.8252
  384MOL0     H51837   8.628   7.915   5.370 -0.1457  0.8548  2.9557
  384MOL0     H51838   8.928   7.832   5.502  0.5839  3.6123 -3.8604
  384MOL0     H51839   8.825   7.921   5.617  0.4037  2.2682 -0.9880
  384MOL0     H51840   8.759   7.785   5.510  0.1962 -0.7607 -1.1851
  385MOL0     O51841   9.112   1.418  10.272 -0.0201  0.2971  0.5542
  385MOL0     C51842   9.171   1.526  10.286  0.4184  1.0655  0.5623
  385MOL0     O51843   9.208   1.595  10.181  0.7762  0.0156  0.0894
  385MOL0     C51844   9.222   1.526  10.066 -0.0259  1.4022 -0.0739
  385MOL0     C51845   9.343   1.461  10.026  0.5534  0.2258 -0.1982
  385MOL0     C51846   9.363   1.386   9.913  0.3429 -0.1051 -0.2411
  385MOL0     C51847   9.254   1.374   9.826 -0.4346 -0.5251 -0.2912
  385MOL0     O51848   9.252   1.306   9.703  0.0414  0.3999 -0.4121
  385MOL0     C51849   9.385   1.260   9.661  1.1262 -0.4303 -0.0199
  385MOL0     C51850   9.381   1.176   9.534 -0.2139 -0.6840  0.8293
  385MOL0     C51851   9.510   1.151   9.452 -0.1458  0.5915 -0.0870
  385MOL0     C51852   9.488   1.062   9.321 -0.0799  0.3849 -1.0456
  385MOL0     C51853   9.619   1.063   9.242 -0.2020  0.2876  0.8068
  385MOL0     C51854   9.738   0.967   9.284  0.2493  0.4701  0.4733
  385MOL0     C51855   9.718   0.819   9.259  0.7177 -0.6018  0.5946
  385MOL0     C51856   9.776   0.782   9.126 -0.6079  0.8374  0.4755
  385MOL0     N51857   9.787   0.636   9.116 -0.4530 -0.8597  0.4350
  385MOL0     C51858   9.692   0.552   9.069 -1.1608  0.4953  0.3896
  385MOL0     C51859   9.763   0.435   9.045 -0.2455 -0.1334 -0.3779
  385MOL0     C51860   9.718   0.295   8.996  0.0782 -0.4876  0.0720
  385MOL0     C51861   9.811   0.179   9.036 -0.4481 -0.2538  0.0741
  385MOL0     C51862   9.754   0.039   9.013  0.2704  0.9503 -0.4718
  385MOL0     C51863   9.854  -0.070   9.031  0.0801 -0.0574 -0.3613
  385MOL0     O51864   9.942  -0.077   8.916 -0.3880 -0.3477 -0.3390
  385MOL0     C51865  10.077  -0.057   8.938 -0.1404 -0.2904  0.2560
  385MOL0     C51866  10.142  -0.025   9.065  0.7508  0.3817  0.5992
  385MOL0     C51867  10.278  -0.008   9.054  0.1373  0.2930 -0.1835
  385MOL0     C51868  10.356  -0.029   8.937 -0.0015 -0.3446 -0.8385
  385MOL0     C51869  10.496   0.014   8.932 -0.1036 -0.5711  0.3726
  385MOL0     O51870  10.555   0.089   9.038 -0.1322  0.5847  0.4581
  385MOL0     C51871  10.672   0.157   9.015  0.2003 -0.8690  0.1792
  385MOL0     C51872  10.670   0.258   8.912 -0.1295 -0.8061  0.1650
  385MOL0     C51873  10.785   0.319   8.862  0.7409  0.3816 -0.6243
  385MOL0     C51874  10.906   0.281   8.917  0.1603  0.3234 -0.1855
  385MOL0     O51875  11.010   0.316   8.845 -0.1850 -0.3652  0.1385
  385MOL0     C51876  11.148   0.273   8.868  0.4948  0.9977 -0.0938
  385MOL0     C51877  11.248   0.316   8.757 -0.7634  0.0605 -0.7856
  385MOL0     C51878  11.390   0.265   8.769 -0.3409 -0.1256 -0.1320
  385MOL0     C51879  11.473   0.354   8.673 -0.5952  0.6121 -0.3201
  385MOL0     C51880  11.617   0.297   8.655  0.7191 -0.3402  0.5927
  385MOL0     C51881  11.701   0.344   8.771  0.4299 -0.3411 -0.4215
  385MOL0     C51882  11.815   0.244   8.806  0.6473 -0.5305 -0.2585
  385MOL0     C51883  11.925   0.248   8.693 -0.3382  0.5322 -0.2870
  385MOL0    Cl51884  12.077   0.188   8.758 -0.3187  0.3855  0.1878
  385MOL0     C51885  10.912   0.192   9.026 -0.0011 -0.1971 -0.2302
  385MOL0     C51886  10.797   0.125   9.075  0.1645 -0.4553 -1.4439
  385MOL0     O51887  10.553  -0.008   8.826 -0.5620 -0.2103  0.0463
  385MOL0     C51888  10.284  -0.076   8.817 -0.2813  0.6505 -1.2750
  385MOL0     C51889  10.149  -0.088   8.817  0.2273 -0.1803 -0.3278
  385MOL0     N51890   9.895   0.451   9.075 -0.3291  0.5252 -0.2764
  385MOL0     N51891   9.904   0.573   9.113 -0.8692 -0.7650 -0.5336
  385MOL0     C51892   9.132   1.441   9.856  0.4836  0.4638 -0.5323
  385MOL0     C51893   9.117   1.513   9.971 -0.0575  0.3787 -0.8456
  385MOL0     C51894   9.172   1.586  10.420 -0.9566 -0.8859  0.1233
  385MOL0     C51895   9.074   1.542  10.514  0.1290  0.2010 -1.1756
  385MOL0     C51896   9.082   1.596  10.647 -0.0466  0.0192  0.6519
  385MOL0     C51897   9.173   1.694  10.683  0.5869  0.1179 -0.2555
  385MOL0     O51898   9.154   1.765  10.804 -0.3277  0.9650  0.5434
  385MOL0     C51899   9.270   1.833  10.868  0.4345  0.0353 -0.2567
  385MOL0     C51900   9.235   1.986  10.862 -0.7163  1.4520  0.2400
  385MOL0     C51901   9.105   2.024  10.942 -0.6260  0.7263  0.2377
  385MOL0     C51902   9.068   2.170  10.926 -0.3969 -0.5767 -0.0970
  385MOL0     C51903   9.155   2.250  11.004 -0.5403  0.0691 -0.0850
  385MOL0     C51904   9.223   2.317  11.076  0.3241  0.7524  0.2772
  385MOL0     C51905   9.253   1.749  10.577  0.0590 -0.0926  0.2399
  385MOL0     C51906   9.256   1.695  10.453 -0.1308  0.1951 -0.4137
  385MOL0     C51907   9.368   1.750  10.363 -0.7059 -0.1784  0.1998
  385MOL0     H51908   9.439   1.481  10.074  0.4290  0.9344 -0.2375
  385MOL0     H51909   9.458   1.334   9.903  1.1497  1.4815 -1.4874
  385MOL0     H51910   9.448   1.349   9.650  0.2847  0.3815  1.4943
  385MOL0     H51911   9.421   1.196   9.743  0.7137 -1.7860 -0.8663
  385MOL0     H51912   9.310   1.223   9.464  0.0067  0.9446  1.6468
  385MOL0     H51913   9.337   1.079   9.558 -1.1541 -0.2881  0.7401
  385MOL0     H51914   9.589   1.116   9.519  0.3100  0.1174 -0.8664
  385MOL0     H51915   9.539   1.249   9.413  3.8574 -1.0941 -1.8564
  385MOL0     H51916   9.460   0.959   9.348  1.0203  0.5373  0.8832
  385MOL0     H51917   9.410   1.113   9.264  1.5296  1.9054 -1.9471
  385MOL0     H51918   9.595   1.042   9.137  1.4218  2.2093 -0.0328
  385MOL0     H51919   9.661   1.164   9.229  2.0178 -0.6287  0.3875
  385MOL0     H51920   9.824   1.008   9.231 -1.5957  0.8332 -2.4901
  385MOL0     H51921   9.757   0.976   9.392  2.5166 -2.0912  0.3951
  385MOL0     H51922   9.615   0.782   9.268 -0.3875  2.0891 -0.0941
  385MOL0     H51923   9.780   0.764   9.331 -1.3628  1.1686  4.0202
  385MOL0     H51924   9.705   0.820   9.052 -1.3407  0.2414  0.8568
  385MOL0     H51925   9.875   0.823   9.106  0.4919 -2.0171 -0.5049
  385MOL0     H51926   9.592   0.556   9.028 -1.0783 -1.2502 -0.0616
  385MOL0     H51927   9.619   0.277   9.038 -0.7249  0.5699 -1.2775
  385MOL0     H51928   9.704   0.297   8.887 -2.3106 -0.5057  0.3268
  385MOL0     H51929   9.903   0.192   8.978  0.3513 -0.7333  1.2148
  385MOL0     H51930   9.830   0.188   9.143 -2.1839  1.9348  0.2699
  385MOL0     H51931   9.719   0.036   8.909  2.4107  3.4900 -1.3915
  385MOL0     H51932   9.667   0.027   9.078  1.0515  1.1372  0.6371
  385MOL0     H51933   9.805  -0.168   9.037 -0.5523  0.2371 -0.5895
  385MOL0     H51934   9.899  -0.062   9.131  0.6523  1.9319 -0.7375
  385MOL0     H51935  10.085  -0.011   9.156 -1.2489  0.3458 -0.5943
  385MOL0     H51936  10.327   0.024   9.146 -0.2434 -1.4466  0.6626
  385MOL0     H51937  10.575   0.273   8.862  0.7925  1.4760 -1.0448
  385MOL0     H51938  10.780   0.393   8.783 -1.9310  1.5293  0.4871
  385MOL0     H51939  11.173   0.314   8.967 -0.4126 -1.0231  1.0337
  385MOL0     H51940  11.139   0.166   8.887  0.4591  0.8288 -1.0379
  385MOL0     H51941  11.199   0.278   8.666  0.5531  2.0407 -2.4172
  385MOL0     H51942  11.246   0.423   8.737 -0.5036  0.0172 -1.0666
  385MOL0     H51943  11.422   0.276   8.873  0.7458 -0.6246 -0.4031
  385MOL0     H51944  11.395   0.157   8.754 -1.8938 -0.4282  1.2157
  385MOL0     H51945  11.475   0.452   8.721 -0.4345  0.3611  0.1910
  385MOL0     H51946  11.427   0.349   8.574 -3.4871 -0.0557  0.9374
  385MOL0     H51947  11.658   0.338   8.562  2.5892 -3.2897 -0.0312
  385MOL0     H51948  11.604   0.190   8.638 -0.7247  0.1165 -1.7162
  385MOL0     H51949  11.750   0.440   8.753  0.7938  0.1401  2.6551
  385MOL0     H51950  11.639   0.359   8.860 -1.8301 -0.3973 -1.8880
  385MOL0     H51951  11.779   0.140   8.810  0.0137 -0.2997  2.8216
  385MOL0     H51952  11.866   0.276   8.898  0.7911  2.8519 -1.4174
  385MOL0     H51953  11.893   0.197   8.602 -0.0672  0.3181 -0.2620
  385MOL0     H51954  11.939   0.355   8.671  0.3636  0.4555 -0.2294
  385MOL0     H51955  11.005   0.154   9.068 -0.0318  0.5344  0.5254
  385MOL0     H51956  10.806   0.043   9.145  3.0319  0.1472 -0.9531
  385MOL0     H51957  10.341  -0.125   8.739 -0.8699 -2.2124 -0.0411
  385MOL0     H51958  10.087  -0.113   8.732  0.6333  0.8808 -0.9520
  385MOL0     H51959   9.047   1.444   9.789 -0.8380 -1.2804  0.9793
  385MOL0     H51960   9.016   1.551   9.982  0.8640  2.1808  2.6869
  385MOL0     H51961   9.000   1.466  10.487 -1.4865  0.5581  1.7923
  385MOL0     H51962   9.008   1.574  10.723  0.1413  1.1052  1.1717
  385MOL0     H51963   9.360   1.815  10.810 -1.4515 -0.5478 -3.2194
  385MOL0     H51964   9.288   1.800  10.971 -1.1947  0.5461  0.2287
  385MOL0     H51965   9.233   2.015  10.756 -0.5795 -0.4107 -0.3142
  385MOL0     H51966   9.316   2.045  10.907 -1.2648  1.9927  0.5297
  385MOL0     H51967   9.114   1.999  11.048  1.0834  1.7209  0.3781
  385MOL0     H51968   9.031   1.961  10.893  3.0386 -2.6932 -1.5347
  385MOL0     H51969   9.086   2.205  10.823  1.5640  0.3577  0.5183
  385MOL0     H51970   8.961   2.180  10.945  0.1512  0.2056  3.0621
  385MOL0     H51971   9.288   2.366  11.146 -2.7931  0.0133  4.0395
  385MOL0     H51972   9.314   1.836  10.598  1.6028 -1.0990  0.0457
  385MOL0     H51973   9.426   1.669  10.317  2.7440  2.6910 -0.9043
  385MOL0     H51974   9.321   1.817  10.290 -0.9524  3.2639  3.2306
  385MOL0     H51975   9.438   1.808  10.424  1.5398 -0.5207 -1.9345
  386MOL0     O51976   1.411   9.566   7.864 -0.7059  0.2762  0.0163
  386MOL0     C51977   1.511   9.503   7.903  0.1089 -0.1307  0.7669
  386MOL0     O51978   1.604   9.438   7.813  0.5817 -0.6512  0.5384
  386MOL0     C51979   1.598   9.479   7.678  0.8714  1.1732 -0.0684
  386MOL0     C51980   1.590   9.371   7.590 -0.4668 -0.3630  0.2422
  386MOL0     C51981   1.574   9.397   7.449  0.6122  0.6586 -0.9415
  386MOL0     C51982   1.563   9.529   7.396 -0.1114 -0.0027 -0.4999
  386MOL0     O51983   1.552   9.555   7.267 -0.4423  1.1144 -0.0810
  386MOL0     C51984   1.582   9.454   7.174 -1.0442  0.6158  0.1544
  386MOL0     C51985   1.541   9.505   7.029  0.3730  0.0519  0.1934
  386MOL0     C51986   1.656   9.591   6.966 -0.3463 -0.3934 -0.2074
  386MOL0     C51987   1.632   9.628   6.816 -0.4584 -0.1109  0.3787
  386MOL0     C51988   1.670   9.770   6.778 -0.4116  0.1668 -0.4694
  386MOL0     C51989   1.643   9.795   6.631 -0.9152 -0.0209 -0.0412
  386MOL0     C51990   1.669   9.932   6.585  0.3749 -0.8476 -0.3106
  386MOL0     C51991   1.617  10.030   6.681 -0.3145  0.0358 -0.5968
  386MOL0     N51992   1.650  10.169   6.636 -0.1740 -0.4844  0.7187
  386MOL0     C51993   1.682  10.214   6.509 -0.3866  0.3466 -0.3939
  386MOL0     C51994   1.696  10.352   6.511  0.8532 -0.1283  0.3439
  386MOL0     C51995   1.709  10.446   6.392  0.5003 -0.0149 -0.3980
  386MOL0     C51996   1.857  10.499   6.369 -0.5036 -0.5211 -0.6597
  386MOL0     C51997   1.916  10.421   6.248  0.4986  0.4808  1.2709
  386MOL0     C51998   2.074  10.424   6.266 -0.1000 -0.2709 -0.5489
  386MOL0     O51999   2.143  10.502   6.170  0.4569 -0.7231  0.0437
  386MOL0     C52000   2.281  10.500   6.190 -0.3216  0.2148  0.2613
  386MOL0     C52001   2.345  10.611   6.139  0.0125  0.5064 -0.0253
  386MOL0     C52002   2.485  10.625   6.175  0.9095 -0.6682 -0.1828
  386MOL0     C52003   2.561  10.530   6.238 -0.3579  0.4452  0.3101
  386MOL0     C52004   2.717  10.524   6.245  0.6505  0.5188  0.1399
  386MOL0     O52005   2.794  10.638   6.231 -0.0392  0.7208  0.2530
  386MOL0     C52006   2.928  10.618   6.227 -0.2021 -0.1248 -1.6062
  386MOL0     C52007   2.989  10.529   6.145 -0.9406  0.1729  0.2646
  386MOL0     C52008   3.125  10.508   6.150 -1.6685 -1.8112 -0.1535
  386MOL0     C52009   3.205  10.580   6.238  0.5506 -0.5660 -0.3976
  386MOL0     O52010   3.334  10.553   6.233 -0.3055  0.1808 -0.1360
  386MOL0     C52011   3.432  10.654   6.244 -0.4349 -0.2503  0.1392
  386MOL0     C52012   3.570  10.585   6.230  0.4527  0.1032 -0.5839
  386MOL0     C52013   3.679  10.695   6.235  0.5369 -0.3236 -0.4428
  386MOL0     C52014   3.665  10.770   6.372  0.4395 -0.1603  0.0009
  386MOL0     C52015   3.807  10.824   6.420  0.6997  1.1343  0.3988
  386MOL0     C52016   3.859  10.918   6.310 -0.1774 -0.4741 -0.6005
  386MOL0     C52017   4.003  10.962   6.333  0.5483 -0.1214  0.1395
  386MOL0     C52018   4.035  11.021   6.468 -0.0400 -0.3332 -0.4590
  386MOL0    Cl52019   4.207  11.071   6.474  0.1665 -0.2802  0.1538
  386MOL0     C52020   3.147  10.689   6.309 -0.1641  0.2341  1.0191
  386MOL0     C52021   3.006  10.705   6.306 -0.0939 -0.6143  0.3185
  386MOL0     O52022   2.764  10.415   6.290  0.2073 -0.2547 -0.4688
  386MOL0     C52023   2.487  10.421   6.282 -0.3052 -0.1377 -0.2154
  386MOL0     C52024   2.350  10.405   6.253  1.7049 -0.5438 -1.1147
  386MOL0     N52025   1.664  10.385   6.642  0.3423 -0.1031  0.0624
  386MOL0     N52026   1.639  10.283   6.715  0.7226  0.5873  0.5879
  386MOL0     C52027   1.565   9.628   7.487 -0.2258 -0.1393 -0.5723
  386MOL0     C52028   1.576   9.607   7.624  1.2050  0.0385 -0.5353
  386MOL0     C52029   1.539   9.497   8.054  0.3448  0.9956  0.5494
  386MOL0     C52030   1.452   9.572   8.131  0.4863  0.1139 -1.1209
  386MOL0     C52031   1.473   9.592   8.264  0.4848 -0.5038 -0.9730
  386MOL0     C52032   1.579   9.534   8.337  0.0459  0.8451  0.6352
  386MOL0     O52033   1.585   9.569   8.479 -0.7539  0.5897 -0.2785
  386MOL0     C52034   1.646   9.472   8.562 -1.1617  0.5061 -0.2810
  386MOL0     C52035   1.775   9.534   8.623 -0.4020 -0.2458 -0.1461
  386MOL0     C52036   1.843   9.464   8.737 -0.2260  1.7989  0.4565
  386MOL0     C52037   1.952   9.528   8.819 -0.1660 -0.2661 -0.4042
  386MOL0     C52038   1.897   9.627   8.916  0.1636  0.5255 -0.2461
  386MOL0     C52039   1.855   9.721   8.979 -0.2798  0.1593 -0.4091
  386MOL0     C52040   1.668   9.453   8.265 -0.1752  0.0384  0.9883
  386MOL0     C52041   1.650   9.429   8.125  0.3074 -0.0886 -0.9551
  386MOL0     C52042   1.746   9.333   8.053  0.4682  0.0099 -0.4141
  386MOL0     H52043   1.602   9.269   7.624 -2.9018 -1.9904 -3.1516
  386MOL0     H52044   1.586   9.308   7.388  1.5114 -0.0181  0.1668
  386MOL0     H52045   1.687   9.427   7.188 -1.5429  0.2477  4.7774
  386MOL0     H52046   1.525   9.364   7.202  0.6591 -0.0453  1.6962
  386MOL0     H52047   1.443   9.554   7.032 -0.4348 -1.5091  0.5311
  386MOL0     H52048   1.526   9.413   6.972 -2.6565  0.1577  0.6383
  386MOL0     H52049   1.750   9.535   6.971  1.2425  2.1839  0.4469
  386MOL0     H52050   1.668   9.685   7.020  3.2579 -0.1978 -1.0908
  386MOL0     H52051   1.673   9.550   6.751 -1.5778  1.1596 -1.9939
  386MOL0     H52052   1.525   9.642   6.800 -0.4308 -0.7929 -0.4789
  386MOL0     H52053   1.602   9.834   6.835  0.3036 -0.0574  0.6756
  386MOL0     H52054   1.774   9.790   6.808 -1.2583  0.2971  2.7701
  386MOL0     H52055   1.717   9.733   6.579  1.7108  2.8003  0.1012
  386MOL0     H52056   1.542   9.769   6.599  0.4670 -1.7124 -3.5259
  386MOL0     H52057   1.620   9.941   6.487 -0.3768  1.8396  0.2222
  386MOL0     H52058   1.776   9.951   6.589  0.0735  0.8027  0.6198
  386MOL0     H52059   1.509  10.015   6.683 -0.5744  1.7395  0.1752
  386MOL0     H52060   1.648  10.030   6.786 -0.7899  0.6147 -0.4525
  386MOL0     H52061   1.712  10.158   6.421  1.3045  2.9345 -1.5985
  386MOL0     H52062   1.673  10.401   6.299 -0.8133  0.2783 -0.0594
  386MOL0     H52063   1.654  10.539   6.409  2.8361  1.9216 -2.7474
  386MOL0     H52064   1.863  10.607   6.355 -4.2206 -0.4271 -2.8887
  386MOL0     H52065   1.906  10.474   6.463 -2.4050 -0.2766  0.4368
  386MOL0     H52066   1.901  10.483   6.159  2.5370  1.5600  1.6216
  386MOL0     H52067   1.873  10.322   6.228  2.5993 -0.0694 -1.0061
  386MOL0     H52068   2.111  10.323   6.246  0.9752  0.2884 -1.5076
  386MOL0     H52069   2.094  10.445   6.372  0.3673 -0.5179 -0.5870
  386MOL0     H52070   2.300  10.699   6.094  1.3318  0.7314 -0.9631
  386MOL0     H52071   2.531  10.716   6.137 -1.8355  0.0641 -2.0925
  386MOL0     H52072   2.934  10.452   6.091  1.7656 -2.5494  1.0941
  386MOL0     H52073   3.175  10.440   6.082 -0.9843 -2.7956  1.2872
  386MOL0     H52074   3.428  10.731   6.166  1.3062  0.2013  0.4569
  386MOL0     H52075   3.432  10.697   6.344  4.9285 -1.8573  1.1713
  386MOL0     H52076   3.587  10.515   6.312  1.2033 -1.1439 -1.7691
  386MOL0     H52077   3.574  10.518   6.144  2.1555  0.4469 -0.8093
  386MOL0     H52078   3.780  10.658   6.218  0.4845  0.3701 -2.6243
  386MOL0     H52079   3.657  10.766   6.154 -0.4321  0.7856  0.7555
  386MOL0     H52080   3.630  10.697   6.446  0.7622 -0.6790 -0.3587
  386MOL0     H52081   3.590  10.848   6.353 -0.8912 -1.6714 -1.2344
  386MOL0     H52082   3.866  10.733   6.432 -2.2861 -0.9250  0.3214
  386MOL0     H52083   3.799  10.880   6.514  0.7334  0.4704  0.8061
  386MOL0     H52084   3.837  10.871   6.214 -2.3257 -1.9908  0.5528
  386MOL0     H52085   3.795  11.007   6.310 -1.3614 -1.2545  1.3308
  386MOL0     H52086   4.017  11.035   6.252 -1.9487  1.6551  1.1578
  386MOL0     H52087   4.081  10.887   6.324  0.5702  0.0660 -1.6851
  386MOL0     H52088   3.978  11.104   6.511  2.4770  0.3528  1.8485
  386MOL0     H52089   4.014  10.946   6.545 -4.8589  0.5823 -0.5489
  386MOL0     H52090   3.204  10.762   6.365 -0.3363  1.1743  0.0037
  386MOL0     H52091   2.953  10.785   6.357 -2.6843 -1.7060 -0.4605
  386MOL0     H52092   2.533  10.347   6.346  0.1801  1.0158  0.8224
  386MOL0     H52093   2.297  10.318   6.289 -2.6490  2.7347  1.5166
  386MOL0     H52094   1.543   9.727   7.450  1.9648  0.9537  0.8698
  386MOL0     H52095   1.562   9.693   7.690 -1.5232  0.1387 -1.1405
  386MOL0     H52096   1.374   9.632   8.084  2.1539  1.2418 -2.5862
  386MOL0     H52097   1.397   9.640   8.325  3.5381  1.8432  1.2498
  386MOL0     H52098   1.668   9.376   8.514 -2.4857 -0.4795  0.9891
  386MOL0     H52099   1.566   9.453   8.634  0.3830  0.4157  1.4650
  386MOL0     H52100   1.734   9.628   8.662  2.1799  1.1491 -0.6079
  386MOL0     H52101   1.848   9.546   8.543 -0.9657  0.0749 -0.6175
  386MOL0     H52102   1.889   9.377   8.689 -0.4912  1.7556  0.2747
  386MOL0     H52103   1.764   9.424   8.802 -0.1562 -2.0256 -1.5177
  386MOL0     H52104   1.998   9.447   8.877 -0.0075  0.8105  1.0469
  386MOL0     H52105   2.019   9.567   8.742 -0.4073  1.5684  0.2500
  386MOL0     H52106   1.808   9.786   9.048 -0.2461  1.5004 -1.6047
  386MOL0     H52107   1.756   9.414   8.317  0.3741  0.7223  0.5976
  386MOL0     H52108   1.693   9.262   7.989 -0.6551  0.3369  0.1295
  386MOL0     H52109   1.835   9.382   8.012 -1.1255  3.2482 -0.3171
  386MOL0     H52110   1.787   9.256   8.119  0.5610 -2.4940 -3.1616
  387MOL0     O52111   0.853  11.279  10.103 -0.3454 -0.6542  1.1610
  387MOL0     C52112   0.787  11.257  10.204  0.3092  0.3381 -0.2641
  387MOL0     O52113   0.831  11.174  10.309 -0.2639 -0.1487 -0.1267
  387MOL0     C52114   0.956  11.119  10.299  0.3859  0.3421  1.0664
  387MOL0     C52115   1.078  11.184  10.290  0.0932 -0.3394  0.1057
  387MOL0     C52116   1.194  11.124  10.268 -0.7944 -0.0598 -0.0595
  387MOL0     C52117   1.204  10.985  10.259 -1.0898  0.0474  0.2628
  387MOL0     O52118   1.333  10.935  10.244 -0.6745 -0.6945 -0.0268
  387MOL0     C52119   1.368  10.823  10.324  0.8506 -0.2286  0.6572
  387MOL0     C52120   1.499  10.825  10.393  1.3570 -0.5054 -0.0390
  387MOL0     C52121   1.544  10.691  10.428 -0.8652  0.2612 -0.0768
  387MOL0     C52122   1.690  10.706  10.472  0.2532 -0.4407 -0.8811
  387MOL0     C52123   1.753  10.571  10.487  0.2948  0.1499 -0.0428
  387MOL0     C52124   1.902  10.568  10.502  0.5987 -0.6881  0.5435
  387MOL0     C52125   1.956  10.429  10.517  0.0749  0.6628 -0.1045
  387MOL0     C52126   2.108  10.415  10.543 -0.7130 -0.4840  0.8950
  387MOL0     N52127   2.170  10.440  10.412 -0.4391  0.3492  0.1997
  387MOL0     C52128   2.238  10.560  10.367 -0.6176  0.1203 -1.3628
  387MOL0     C52129   2.274  10.537  10.239 -0.9596 -0.9909  0.2455
  387MOL0     C52130   2.343  10.646  10.167 -0.3936 -0.2265 -0.1987
  387MOL0     C52131   2.493  10.661  10.195  0.0056 -1.3201 -0.4775
  387MOL0     C52132   2.539  10.807  10.236 -0.1280  0.0033  0.4185
  387MOL0     C52133   2.687  10.844  10.210 -0.5977  0.1363  0.4437
  387MOL0     O52134   2.771  10.743  10.276 -0.3936 -0.8315  0.0116
  387MOL0     C52135   2.899  10.764  10.316  0.2557 -0.7087 -0.4372
  387MOL0     C52136   2.973  10.879  10.278  0.5453  0.1722 -0.1380
  387MOL0     C52137   3.096  10.896  10.326 -0.8803 -0.3518 -0.0579
  387MOL0     C52138   3.168  10.810  10.412  0.4076  0.3524  0.8556
  387MOL0     C52139   3.314  10.828  10.447  0.3208  0.6968  0.8650
  387MOL0     O52140   3.366  10.949  10.421 -0.0288  0.4761 -0.4107
  387MOL0     C52141   3.491  10.962  10.377 -0.8927  0.4475  0.7051
  387MOL0     C52142   3.551  11.087  10.359  0.3419 -0.2284 -0.1140
  387MOL0     C52143   3.672  11.109  10.298  0.6093  0.3919 -0.1123
  387MOL0     C52144   3.735  11.007  10.228  0.1453  0.0408  0.0338
  387MOL0     O52145   3.851  11.045  10.168 -0.1134  0.1868  0.2625
  387MOL0     C52146   3.868  10.984  10.043  0.0867 -0.6472  0.6030
  387MOL0     C52147   3.985  11.060   9.954  0.4865  0.4317  0.6810
  387MOL0     C52148   4.129  11.056  10.017 -1.3538 -0.1936  0.2395
  387MOL0     C52149   4.196  11.186   9.954 -0.2388 -1.0888  0.3782
  387MOL0     C52150   4.336  11.200  10.013  0.6361  0.8119 -0.0361
  387MOL0     C52151   4.420  11.306   9.949 -0.8791  0.2968 -0.4392
  387MOL0     C52152   4.572  11.276   9.978  0.0236  0.4724 -0.9912
  387MOL0     C52153   4.633  11.169   9.887 -0.4968  0.5522 -0.5270
  387MOL0    Cl52154   4.654  11.221   9.717 -0.3033 -0.4457 -0.2232
  387MOL0     C52155   3.676  10.883  10.226  0.1775  0.2723 -0.4839
  387MOL0     C52156   3.556  10.857  10.304 -0.9446  0.4827  0.0148
  387MOL0     O52157   3.375  10.730  10.495  0.2423 -0.5141  0.6471
  387MOL0     C52158   3.106  10.679  10.438  0.3651 -0.4812  0.1396
  387MOL0     C52159   2.971  10.663  10.392 -0.0506 -0.7956 -0.3452
  387MOL0     N52160   2.245  10.410  10.201 -0.8450 -0.4001 -0.1411
  387MOL0     N52161   2.178  10.357  10.302  0.1683  0.7669  0.0494
  387MOL0     C52162   1.089  10.905  10.271 -0.2679  0.2497 -0.6495
  387MOL0     C52163   0.962  10.977  10.298  0.3695  0.4356 -0.2523
  387MOL0     C52164   0.643  11.309  10.206 -0.5902  0.6915  0.0892
  387MOL0     C52165   0.563  11.286  10.319 -0.5408 -0.2003  0.3560
  387MOL0     C52166   0.423  11.321  10.323 -0.2708  0.2387 -0.1379
  387MOL0     C52167   0.366  11.368  10.207  0.1117  0.4631  0.1459
  387MOL0     O52168   0.229  11.372  10.200  0.5065 -0.3345 -0.2314
  387MOL0     C52169   0.174  11.406  10.071 -0.0579 -0.3783 -0.2109
  387MOL0     C52170   0.027  11.384  10.076  0.0112  0.1082 -0.4255
  387MOL0     C52171  -0.047  11.400   9.941  0.4264 -0.5334  0.1167
  387MOL0     C52172  -0.028  11.544   9.880  0.4582 -0.7310 -0.4163
  387MOL0     C52173  -0.114  11.637   9.951  0.0230 -0.3052  0.4701
  387MOL0     C52174  -0.203  11.710   9.984 -0.7022 -0.2384 -0.0845
  387MOL0     C52175   0.450  11.420  10.115 -0.2590  1.1652  1.2311
  387MOL0     C52176   0.584  11.392  10.109 -0.0729  0.2118  0.1550
  387MOL0     C52177   0.647  11.438   9.988 -0.0671  0.1353 -0.5305
  387MOL0     H52178   1.076  11.292  10.286  2.3923 -0.2774 -0.3799
  387MOL0     H52179   1.290  11.174  10.264 -0.3679 -0.9484 -1.3334
  387MOL0     H52180   1.289  10.802  10.396 -2.1152  0.3684 -2.1680
  387MOL0     H52181   1.362  10.742  10.251  0.3269  0.3716  0.0185
  387MOL0     H52182   1.488  10.883  10.486 -2.0115  1.3179 -1.3770
  387MOL0     H52183   1.576  10.862  10.325 -0.6977 -0.5558 -2.5327
  387MOL0     H52184   1.545  10.641  10.330  0.0086  0.1350 -0.0078
  387MOL0     H52185   1.480  10.658  10.510  1.1737 -1.1208  1.0463
  387MOL0     H52186   1.752  10.755  10.397  1.3954 -0.1886  0.2027
  387MOL0     H52187   1.686  10.764  10.565  1.5164  0.9144 -1.6342
  387MOL0     H52188   1.704  10.523  10.573 -0.1391  2.0790  0.8638
  387MOL0     H52189   1.737  10.505  10.401 -0.1989  0.5526 -0.2643
  387MOL0     H52190   1.939  10.615  10.411 -1.6907  0.7188  0.2517
  387MOL0     H52191   1.942  10.628  10.584 -0.2589  0.6604  0.0097
  387MOL0     H52192   1.931  10.376  10.425 -1.6898  1.9186 -0.4101
  387MOL0     H52193   1.898  10.371  10.590 -0.9314 -1.2719 -2.3093
  387MOL0     H52194   2.134  10.489  10.619  1.0739 -1.0296  0.8687
  387MOL0     H52195   2.116  10.314  10.583 -0.5644 -1.1139 -0.6467
  387MOL0     H52196   2.260  10.645  10.431  0.6935 -1.5893  0.5965
  387MOL0     H52197   2.328  10.645  10.058  0.6367  0.2300 -0.3622
  387MOL0     H52198   2.296  10.738  10.204  0.3714  0.0675  0.0756
  387MOL0     H52199   2.519  10.615  10.290  1.6391  1.5878  0.5889
  387MOL0     H52200   2.552  10.625  10.110 -1.0677 -0.2519 -1.7196
  387MOL0     H52201   2.511  10.825  10.340 -1.2452 -1.6605  0.4579
  387MOL0     H52202   2.485  10.868  10.163 -1.0305 -1.4902 -0.2139
  387MOL0     H52203   2.705  10.943  10.253 -0.3837  0.7171 -0.9556
  387MOL0     H52204   2.713  10.845  10.104  1.5924  0.2450  0.9163
  387MOL0     H52205   2.930  10.958  10.217  2.2631  2.4761  1.4479
  387MOL0     H52206   3.157  10.976  10.284 -0.3881 -1.9356 -2.5860
  387MOL0     H52207   3.507  11.177  10.403  0.8475 -0.9720  2.0630
  387MOL0     H52208   3.693  11.214  10.283  1.9455  0.3373  1.1487
  387MOL0     H52209   3.890  10.879  10.059 -0.2518 -0.6997  0.7436
  387MOL0     H52210   3.775  10.985   9.986 -1.1698  2.4432  2.4196
  387MOL0     H52211   3.988  11.004   9.860 -1.0502  1.1888  0.1424
  387MOL0     H52212   3.957  11.163   9.933 -1.7873 -0.2045  0.2700
  387MOL0     H52213   4.130  11.078  10.124  1.4225  1.2025 -0.0116
  387MOL0     H52214   4.183  10.962  10.002  1.3938  1.0737  1.5854
  387MOL0     H52215   4.141  11.280   9.961  0.6665 -0.5174  0.1059
  387MOL0     H52216   4.213  11.170   9.847  0.4702  2.3682 -0.1586
  387MOL0     H52217   4.371  11.096  10.013 -2.4594 -0.3247 -0.4241
  387MOL0     H52218   4.333  11.235  10.117 -1.1758  0.8376 -0.0693
  387MOL0     H52219   4.406  11.300   9.841  0.4800 -0.2286 -0.6007
  387MOL0     H52220   4.396  11.406   9.986  0.1114  0.3470  0.0980
  387MOL0     H52221   4.584  11.238  10.080 -1.0504  2.0236 -0.2411
  387MOL0     H52222   4.632  11.366   9.959  1.8011 -0.6205 -0.7640
  387MOL0     H52223   4.734  11.145   9.922 -0.2213 -0.4833 -1.9473
  387MOL0     H52224   4.570  11.080   9.891  0.6238 -0.3278 -1.7499
  387MOL0     H52225   3.731  10.804  10.175 -0.1032  0.4600 -1.0912
  387MOL0     H52226   3.511  10.761  10.279 -1.1288  0.6844 -0.4226
  387MOL0     H52227   3.161  10.607  10.497  2.0345  0.7636  0.1678
  387MOL0     H52228   2.920  10.572  10.420  0.2028  0.5140  5.7684
  387MOL0     H52229   1.098  10.797  10.269  2.1419 -0.2022  6.3639
  387MOL0     H52230   0.872  10.916  10.307 -0.2151  1.4051  0.8567
  387MOL0     H52231   0.619  11.245  10.402  1.6867 -0.2608 -1.1158
  387MOL0     H52232   0.348  11.302  10.399 -2.4002  1.0174 -1.9570
  387MOL0     H52233   0.220  11.347   9.991 -2.7124 -1.9421 -0.7082
  387MOL0     H52234   0.195  11.512  10.060 -0.5234 -0.2818 -0.1833
  387MOL0     H52235  -0.012  11.444  10.159  0.5975 -0.0828 -0.0036
  387MOL0     H52236   0.015  11.278  10.100 -0.1416 -0.3152 -2.2318
  387MOL0     H52237  -0.152  11.371   9.953  0.6584 -0.9531  1.1647
  387MOL0     H52238  -0.008  11.341   9.858  0.3477 -1.5528  0.7924
  387MOL0     H52239   0.073  11.583   9.894  0.5530 -1.4074  0.9396
  387MOL0     H52240  -0.051  11.533   9.774  3.3126  0.7365 -1.3092
  387MOL0     H52241  -0.274  11.778  10.026  0.2001 -1.0850  3.0706
  387MOL0     H52242   0.403  11.489  10.045 -2.4433 -0.5202  0.9239
  387MOL0     H52243   0.730  11.501  10.022 -1.2174  1.4785 -0.0899
  387MOL0     H52244   0.671  11.352   9.925 -0.9040 -0.2738 -0.3183
  387MOL0     H52245   0.597  11.511   9.924  2.8353 -0.1058 -3.2981
  388MOL0     O52246   5.598   0.434   1.014 -0.2202  0.3901  0.1484
  388MOL0     C52247   5.548   0.542   1.021 -0.2792 -0.1486  0.8332
  388MOL0     O52248   5.602   0.638   1.102  0.2785 -0.9213 -0.1948
  388MOL0     C52249   5.713   0.625   1.188  0.4051 -0.0938 -0.0582
  388MOL0     C52250   5.759   0.511   1.246  0.2408  1.1858 -0.1075
  388MOL0     C52251   5.881   0.505   1.307  0.0619  0.6040 -0.9266
  388MOL0     C52252   5.954   0.627   1.326 -0.2460 -0.3577  0.1593
  388MOL0     O52253   6.066   0.633   1.408  0.1852 -0.3016  0.7722
  388MOL0     C52254   6.184   0.559   1.366  0.0294  1.1904  0.0651
  388MOL0     C52255   6.282   0.628   1.272 -0.7882 -1.3419 -0.5252
  388MOL0     C52256   6.285   0.782   1.278 -0.1398 -0.9693 -0.2194
  388MOL0     C52257   6.402   0.838   1.184  0.3697 -0.6174 -1.0636
  388MOL0     C52258   6.366   0.978   1.131  0.2998  0.0135  0.6009
  388MOL0     C52259   6.312   1.083   1.227  0.2393  0.3401 -0.3807
  388MOL0     C52260   6.408   1.136   1.333 -0.3281 -0.6564 -0.4672
  388MOL0     C52261   6.547   1.162   1.280 -0.3504  0.1288 -0.0761
  388MOL0     N52262   6.624   1.221   1.388 -0.4419 -0.8882  0.5239
  388MOL0     C52263   6.711   1.156   1.476 -0.2719  0.2173 -0.1137
  388MOL0     C52264   6.761   1.255   1.555 -0.0382 -0.2766  0.2151
  388MOL0     C52265   6.871   1.252   1.652  0.2516 -0.2413 -0.1121
  388MOL0     C52266   7.000   1.299   1.597 -0.4337 -0.2550  0.6212
  388MOL0     C52267   7.053   1.231   1.479  0.0169 -0.2314 -0.6925
  388MOL0     C52268   7.121   1.098   1.499  0.5097  0.7605 -0.5193
  388MOL0     O52269   7.218   1.100   1.595 -0.0017  0.5817  0.1703
  388MOL0     C52270   7.340   1.151   1.564  0.3051 -0.4472 -0.1342
  388MOL0     C52271   7.430   1.155   1.669  1.0042 -0.8969  0.3921
  388MOL0     C52272   7.548   1.221   1.656  0.7027 -0.1618  0.3957
  388MOL0     C52273   7.587   1.268   1.531  0.0049  0.7168  0.7793
  388MOL0     C52274   7.717   1.331   1.488 -0.1709  1.0350 -0.1343
  388MOL0     O52275   7.729   1.383   1.363 -0.4948 -0.3335 -0.5148
  388MOL0     C52276   7.829   1.469   1.323  0.1657 -0.9789  0.1963
  388MOL0     C52277   7.894   1.556   1.412  0.3790  0.1188  0.8814
  388MOL0     C52278   7.990   1.641   1.370  1.2595 -0.4998  0.5055
  388MOL0     C52279   8.023   1.656   1.237  0.0794 -0.8360  1.0005
  388MOL0     O52280   8.117   1.747   1.198  0.2690  0.0429 -0.0337
  388MOL0     C52281   8.041   1.865   1.163  0.0598  0.0770 -0.4073
  388MOL0     C52282   8.142   1.979   1.146 -0.1572  0.0199  0.8224
  388MOL0     C52283   8.073   2.111   1.176  0.4702  0.0161  0.3981
  388MOL0     C52284   8.085   2.146   1.327  0.6202  0.0963  0.7986
  388MOL0     C52285   7.979   2.255   1.355 -1.0095 -0.3318 -0.0728
  388MOL0     C52286   7.997   2.337   1.495 -0.3328  0.4437  0.1976
  388MOL0     C52287   7.895   2.450   1.510 -0.7998  1.0081 -0.0068
  388MOL0     C52288   7.756   2.401   1.558 -0.6745  0.1743  0.0978
  388MOL0    Cl52289   7.766   2.302   1.712 -0.2674 -0.1708 -0.2818
  388MOL0     C52290   7.967   1.561   1.145 -0.3488  0.2492  0.2370
  388MOL0     C52291   7.873   1.465   1.192  0.2351 -0.8546  0.1636
  388MOL0     O52292   7.796   1.336   1.584 -0.2482  0.1054 -0.1597
  388MOL0     C52293   7.499   1.250   1.423 -0.3910  0.1398  0.5030
  388MOL0     C52294   7.372   1.202   1.437 -0.4768  0.2584 -0.0692
  388MOL0     N52295   6.697   1.368   1.522 -0.2214  0.1743 -0.4316
  388MOL0     N52296   6.616   1.353   1.423 -0.4259  0.2488 -0.2356
  388MOL0     C52297   5.898   0.746   1.275  0.0360 -0.3411  0.9910
  388MOL0     C52298   5.780   0.742   1.204  0.7450 -0.3888 -0.3014
  388MOL0     C52299   5.429   0.586   0.939 -0.8246 -0.1053  0.4982
  388MOL0     C52300   5.335   0.485   0.900 -0.5126 -0.7324  0.0456
  388MOL0     C52301   5.218   0.520   0.837 -0.6656 -0.2003 -0.1409
  388MOL0     C52302   5.189   0.654   0.809  0.1933  0.5147 -0.2716
  388MOL0     O52303   5.065   0.702   0.772 -0.3700 -0.6134 -0.8140
  388MOL0     C52304   4.958   0.625   0.702 -0.1174 -0.1283  0.0412
  388MOL0     C52305   4.824   0.635   0.787  0.6363  1.0096  0.5487
  388MOL0     C52306   4.825   0.528   0.893  0.2714  0.2307  0.0058
  388MOL0     C52307   4.694   0.523   0.964  0.2202 -0.1059  0.6217
  388MOL0     C52308   4.596   0.442   0.885  0.3029  0.0078 -0.0771
  388MOL0     C52309   4.508   0.382   0.833  0.1313 -0.3805 -0.2354
  388MOL0     C52310   5.281   0.752   0.847 -0.0159 -0.0847  0.3965
  388MOL0     C52311   5.406   0.718   0.895  0.3717  0.7575 -0.2164
  388MOL0     C52312   5.501   0.839   0.920 -1.1064 -0.2229 -0.3274
  388MOL0     H52313   5.712   0.414   1.231 -0.9242  1.2955  2.3400
  388MOL0     H52314   5.925   0.413   1.343  2.3136  1.0937 -2.2626
  388MOL0     H52315   6.232   0.525   1.458  0.0654 -0.7105 -0.6184
  388MOL0     H52316   6.146   0.465   1.327  2.0027  0.5661 -0.4417
  388MOL0     H52317   6.263   0.610   1.166  0.4503  0.3861 -1.1030
  388MOL0     H52318   6.379   0.580   1.287  0.4704  1.1945  0.1427
  388MOL0     H52319   6.312   0.827   1.373  2.7814  1.0770 -1.8565
  388MOL0     H52320   6.184   0.814   1.249  0.2944 -1.4076 -2.4069
  388MOL0     H52321   6.497   0.849   1.237  0.8420 -1.0043 -1.8118
  388MOL0     H52322   6.425   0.765   1.105 -2.0120 -0.3745 -2.0447
  388MOL0     H52323   6.458   1.020   1.090 -0.9055  0.6317 -1.5977
  388MOL0     H52324   6.293   0.973   1.050  1.3648  3.3255 -0.7237
  388MOL0     H52325   6.268   1.166   1.170 -1.2568 -0.1995 -0.0465
  388MOL0     H52326   6.220   1.048   1.275  0.3868 -0.2562 -0.5343
  388MOL0     H52327   6.416   1.052   1.403  4.6623 -1.0719 -1.1894
  388MOL0     H52328   6.364   1.219   1.391 -1.6225  0.5820 -3.0530
  388MOL0     H52329   6.605   1.076   1.245  0.2907 -0.6102  2.5666
  388MOL0     H52330   6.532   1.234   1.200  3.8401 -0.5931 -1.7400
  388MOL0     H52331   6.749   1.054   1.475  0.6690  0.5501 -1.2313
  388MOL0     H52332   6.850   1.322   1.733 -2.3432  0.7907 -1.5827
  388MOL0     H52333   6.875   1.148   1.687 -0.1299 -0.2897 -0.2062
  388MOL0     H52334   6.978   1.403   1.569  0.2751 -0.3722 -0.4016
  388MOL0     H52335   7.080   1.305   1.672  1.0130  0.5117 -0.9198
  388MOL0     H52336   7.108   1.299   1.414 -1.2516  0.0893 -1.4776
  388MOL0     H52337   6.963   1.219   1.418  0.1646  3.1392 -1.7486
  388MOL0     H52338   7.153   1.063   1.401  1.5036 -0.0027  0.0515
  388MOL0     H52339   7.042   1.029   1.530  0.7945  0.8605  0.4687
  388MOL0     H52340   7.400   1.122   1.768 -2.4426 -1.7235 -0.8049
  388MOL0     H52341   7.618   1.239   1.737 -0.0439 -5.0749  2.5112
  388MOL0     H52342   7.871   1.550   1.518  5.1983  0.6617  2.1703
  388MOL0     H52343   8.045   1.704   1.440  2.4936  0.4219 -1.2373
  388MOL0     H52344   7.987   1.868   1.068 -1.4639  2.1726  0.4395
  388MOL0     H52345   7.972   1.885   1.246  0.2192 -2.2896  0.3743
  388MOL0     H52346   8.229   1.959   1.209 -0.1187 -2.1760  0.1465
  388MOL0     H52347   8.163   1.988   1.039 -1.0124  1.5044  0.7550
  388MOL0     H52348   8.127   2.189   1.122  0.1238 -0.5655 -0.8338
  388MOL0     H52349   7.968   2.106   1.147  1.0501 -1.5372 -1.6780
  388MOL0     H52350   8.186   2.170   1.359  0.4877  1.3841  0.3140
  388MOL0     H52351   8.050   2.058   1.381  0.0112  0.5460  1.1567
  388MOL0     H52352   7.881   2.206   1.358 -0.9818 -0.5809 -2.1981
  388MOL0     H52353   7.964   2.320   1.269 -2.4882  0.9424  1.0901
  388MOL0     H52354   7.995   2.258   1.570  2.8697 -0.0286 -0.0967
  388MOL0     H52355   8.094   2.386   1.506 -1.1724  2.2055  0.2353
  388MOL0     H52356   7.881   2.497   1.412 -1.0376  3.7748  1.2519
  388MOL0     H52357   7.936   2.520   1.583  0.5114 -0.5495  0.8055
  388MOL0     H52358   7.688   2.482   1.585 -1.7675 -0.7281  0.1465
  388MOL0     H52359   7.710   2.346   1.475  0.1908  1.7305 -1.4713
  388MOL0     H52360   8.003   1.558   1.042 -0.2840 -0.1373  0.2678
  388MOL0     H52361   7.835   1.386   1.128 -1.6620  2.2066 -2.7899
  388MOL0     H52362   7.517   1.291   1.324 -1.3126 -0.7983 -0.0677
  388MOL0     H52363   7.317   1.193   1.344  0.7450 -0.1597 -0.7731
  388MOL0     H52364   5.943   0.844   1.290  0.9445 -0.6206  0.2202
  388MOL0     H52365   5.730   0.830   1.164  0.2731  1.0120  3.0690
  388MOL0     H52366   5.349   0.380   0.924 -1.4112 -1.1448 -1.1543
  388MOL0     H52367   5.152   0.442   0.801 -0.4576  0.9257 -3.2434
  388MOL0     H52368   4.979   0.518   0.690  1.5725  0.1994 -0.0910
  388MOL0     H52369   4.934   0.666   0.604  1.7048  0.5148 -0.1514
  388MOL0     H52370   4.737   0.612   0.724  0.9399 -4.1148  1.6065
  388MOL0     H52371   4.817   0.737   0.826  1.4847  2.7725 -3.3846
  388MOL0     H52372   4.909   0.540   0.961  0.4042 -1.0441  0.0854
  388MOL0     H52373   4.841   0.435   0.839 -0.8273 -0.2238  0.4341
  388MOL0     H52374   4.708   0.463   1.054 -2.0499 -2.1236 -0.2684
  388MOL0     H52375   4.644   0.610   1.008 -4.6792 -1.9497 -0.6678
  388MOL0     H52376   4.423   0.319   0.813  0.0585 -0.6386  0.8000
  388MOL0     H52377   5.262   0.857   0.829 -0.5524 -0.6295 -2.9458
  388MOL0     H52378   5.502   0.862   1.027 -1.6222 -0.2481 -0.3142
  388MOL0     H52379   5.603   0.812   0.892 -0.4304 -0.4036  2.0935
  388MOL0     H52380   5.466   0.926   0.863  0.6693  1.0908  0.4571
  389MOL0     O52381   3.261   0.715   8.447 -1.0352 -0.8110 -0.0667
  389MOL0     C52382   3.308   0.693   8.337 -0.7167 -0.7616  0.0099
  389MOL0     O52383   3.269   0.593   8.251  0.0821 -0.4657 -0.0641
  389MOL0     C52384   3.152   0.547   8.292  0.5003 -0.3457  0.1287
  389MOL0     C52385   3.042   0.576   8.217 -0.0252 -0.0074  0.5310
  389MOL0     C52386   2.917   0.504   8.227  0.4201  0.0143  0.1891
  389MOL0     C52387   2.910   0.405   8.318 -0.5657  0.3089 -0.1801
  389MOL0     O52388   2.794   0.334   8.341 -0.5543  0.1324 -0.7427
  389MOL0     C52389   2.791   0.215   8.262  0.5622 -0.5707  0.8127
  389MOL0     C52390   2.666   0.131   8.295 -0.0018 -0.1492 -0.1965
  389MOL0     C52391   2.701   0.011   8.382  0.1624  0.0188 -0.2711
  389MOL0     C52392   2.572  -0.085   8.403 -0.2383  0.7471 -0.5165
  389MOL0     C52393   2.609  -0.209   8.479  0.0865  0.5351  0.2875
  389MOL0     C52394   2.701  -0.307   8.399  0.2789  1.1034 -0.3082
  389MOL0     C52395   2.782  -0.386   8.504  0.0624 -0.4053  0.5950
  389MOL0     C52396   2.886  -0.474   8.432 -0.6448  0.3921  0.1474
  389MOL0     N52397   2.986  -0.401   8.348 -0.4172  0.4845 -0.3932
  389MOL0     C52398   3.072  -0.307   8.393  0.8847 -0.6036 -0.0294
  389MOL0     C52399   3.138  -0.256   8.283 -1.0897  0.1634  0.0085
  389MOL0     C52400   3.249  -0.156   8.276 -0.2381 -0.7208 -0.3543
  389MOL0     C52401   3.363  -0.177   8.380 -0.1041 -0.1386 -0.1176
  389MOL0     C52402   3.441  -0.041   8.387 -0.3012  0.6924  0.0708
  389MOL0     C52403   3.567  -0.047   8.470  0.6739 -0.2764  0.0184
  389MOL0     O52404   3.660  -0.128   8.394 -0.3307 -0.0630  0.0910
  389MOL0     C52405   3.780  -0.173   8.451  0.4813 -0.6010  0.9110
  389MOL0     C52406   3.842  -0.112   8.560  0.3558 -0.5497 -0.8226
  389MOL0     C52407   3.968  -0.146   8.603  0.0605 -0.1082  0.5775
  389MOL0     C52408   4.039  -0.247   8.528  0.9319 -0.5497 -0.1680
  389MOL0     C52409   4.173  -0.287   8.576 -0.4854 -0.9121  0.4210
  389MOL0     O52410   4.256  -0.360   8.496  0.3038 -0.2102 -0.6758
  389MOL0     C52411   4.390  -0.379   8.538 -0.3676 -0.3458 -0.1981
  389MOL0     C52412   4.466  -0.275   8.589 -0.2826  0.2678 -0.2316
  389MOL0     C52413   4.604  -0.284   8.620  0.6847 -0.2855 -1.4855
  389MOL0     C52414   4.665  -0.411   8.604 -0.2176 -0.6223  0.0068
  389MOL0     O52415   4.798  -0.430   8.631 -0.0066 -0.5020 -0.4839
  389MOL0     C52416   4.892  -0.318   8.662  0.2209 -0.1517  0.5307
  389MOL0     C52417   5.037  -0.363   8.617 -0.0428 -0.2934  0.5327
  389MOL0     C52418   5.130  -0.240   8.608  0.4341  0.3844  0.0013
  389MOL0     C52419   5.271  -0.269   8.562  0.3813  1.0649  0.0785
  389MOL0     C52420   5.351  -0.335   8.681 -0.2493 -0.5359 -0.0591
  389MOL0     C52421   5.505  -0.347   8.649 -0.0539 -0.6424 -0.9229
  389MOL0     C52422   5.582  -0.223   8.667  0.1079 -0.2150 -0.1836
  389MOL0     C52423   5.725  -0.244   8.651 -0.9976  0.4201 -0.2899
  389MOL0    Cl52424   5.832  -0.092   8.676 -0.3093 -0.1143  0.2766
  389MOL0     C52425   4.596  -0.511   8.544 -0.7002 -0.2635  0.8475
  389MOL0     C52426   4.458  -0.495   8.506 -0.3627 -1.0645 -0.2907
  389MOL0     O52427   4.199  -0.266   8.692 -0.3612  0.1110  0.2129
  389MOL0     C52428   3.981  -0.313   8.418  0.4703  0.6595 -0.8640
  389MOL0     C52429   3.853  -0.273   8.385 -0.6367 -0.5389  0.4167
  389MOL0     N52430   3.085  -0.307   8.169  1.1721  0.0155  0.3991
  389MOL0     N52431   2.984  -0.385   8.211 -0.2737  0.4345 -0.1354
  389MOL0     C52432   3.023   0.375   8.403  0.5349  0.1434 -1.0118
  389MOL0     C52433   3.147   0.443   8.386  0.6947  0.5518 -0.2983
  389MOL0     C52434   3.421   0.778   8.288 -0.0567  0.6492 -0.2216
  389MOL0     C52435   3.430   0.805   8.149  0.1225 -0.4357  0.8231
  389MOL0     C52436   3.532   0.884   8.097  0.4742 -0.0733  0.2157
  389MOL0     C52437   3.622   0.941   8.185 -0.7060  0.7809 -0.1163
  389MOL0     O52438   3.714   1.034   8.127 -0.4468 -0.2536  0.7431
  389MOL0     C52439   3.811   1.111   8.206  1.4456 -0.3313  0.5358
  389MOL0     C52440   3.936   1.037   8.240  0.1804  1.3645 -0.2229
  389MOL0     C52441   4.010   0.970   8.117 -0.0121  0.3551  0.4937
  389MOL0     C52442   4.148   0.907   8.154 -0.0837  0.4115  0.4778
  389MOL0     C52443   4.241   1.009   8.210  1.4383 -0.9459  0.7362
  389MOL0     C52444   4.300   1.101   8.254 -0.0177  0.2509  0.5152
  389MOL0     C52445   3.628   0.910   8.321  0.0902  0.1470 -0.7312
  389MOL0     C52446   3.522   0.829   8.370 -0.7758  0.5963  0.7143
  389MOL0     C52447   3.525   0.805   8.521 -0.5498  0.4392 -0.1347
  389MOL0     H52448   3.050   0.652   8.140 -2.1297 -0.7343 -0.4758
  389MOL0     H52449   2.833   0.520   8.160  0.6849  1.2112  0.1099
  389MOL0     H52450   2.782   0.236   8.155  0.9873 -3.0765  0.2211
  389MOL0     H52451   2.881   0.155   8.280  0.2163 -1.2390  0.3864
  389MOL0     H52452   2.610   0.094   8.208 -0.5322 -1.7458  0.7873
  389MOL0     H52453   2.592   0.196   8.344  0.5353 -0.7045  1.4010
  389MOL0     H52454   2.747   0.041   8.476  0.8232 -0.2400 -0.5037
  389MOL0     H52455   2.777  -0.048   8.329  2.1381 -0.8546  3.2546
  389MOL0     H52456   2.490  -0.034   8.453  0.5038  0.7801  0.6908
  389MOL0     H52457   2.516  -0.116   8.314 -1.2850 -0.0495  0.3879
  389MOL0     H52458   2.668  -0.163   8.558  2.1005  3.9305 -2.8576
  389MOL0     H52459   2.519  -0.263   8.508  0.0135  0.1494 -0.6047
  389MOL0     H52460   2.630  -0.368   8.343 -2.2640  2.7000  1.0059
  389MOL0     H52461   2.767  -0.249   8.334  0.8920 -0.8430 -1.5086
  389MOL0     H52462   2.705  -0.437   8.564 -0.8964 -1.3460 -1.3484
  389MOL0     H52463   2.832  -0.308   8.562 -2.5865  4.8937 -3.4265
  389MOL0     H52464   2.942  -0.518   8.515  0.1814 -0.3402 -0.7815
  389MOL0     H52465   2.838  -0.558   8.381  1.3431 -0.0912 -1.0072
  389MOL0     H52466   3.095  -0.292   8.498 -1.5867  1.6704  0.2818
  389MOL0     H52467   3.285  -0.149   8.173 -0.7882 -1.9975 -0.6434
  389MOL0     H52468   3.191  -0.064   8.293  0.3517  0.3914 -3.6814
  389MOL0     H52469   3.326  -0.204   8.480  1.1928  2.9570  1.3319
  389MOL0     H52470   3.426  -0.257   8.342  0.2777 -0.2345  0.6930
  389MOL0     H52471   3.383   0.041   8.429 -1.2681  0.5139 -0.8786
  389MOL0     H52472   3.469  -0.017   8.284  1.8774 -0.3697  0.3562
  389MOL0     H52473   3.553  -0.088   8.571 -0.3469 -1.5293 -0.6066
  389MOL0     H52474   3.618   0.050   8.476  4.0905 -1.6639 -2.8855
  389MOL0     H52475   3.783  -0.033   8.605  0.1648 -0.6652 -0.8689
  389MOL0     H52476   4.016  -0.091   8.684  0.4630 -1.1332  1.0489
  389MOL0     H52477   4.415  -0.179   8.584 -1.5971 -0.2904  1.5173
  389MOL0     H52478   4.656  -0.202   8.668  4.1771 -2.1603 -1.7519
  389MOL0     H52479   4.863  -0.226   8.611  3.0700  0.2811 -0.4632
  389MOL0     H52480   4.880  -0.292   8.767  1.3701  0.5172  0.5099
  389MOL0     H52481   5.081  -0.437   8.685  0.7126 -0.8350 -0.5179
  389MOL0     H52482   5.020  -0.404   8.518  0.5249  2.0907 -0.6215
  389MOL0     H52483   5.077  -0.180   8.533  0.5176  0.8279  0.2959
  389MOL0     H52484   5.130  -0.192   8.706 -2.3299 -0.1193  0.3446
  389MOL0     H52485   5.330  -0.181   8.536  1.9780  0.9430  2.8222
  389MOL0     H52486   5.276  -0.342   8.482  1.8248 -1.0368  1.9610
  389MOL0     H52487   5.318  -0.433   8.717  1.3780 -1.3995 -0.7816
  389MOL0     H52488   5.331  -0.273   8.768 -0.7167 -1.8528  0.7923
  389MOL0     H52489   5.539  -0.428   8.714  0.9150 -1.8933 -2.8669
  389MOL0     H52490   5.511  -0.377   8.544 -1.8542 -1.1044 -0.9192
  389MOL0     H52491   5.554  -0.190   8.767 -1.5591 -0.8271 -0.4135
  389MOL0     H52492   5.541  -0.142   8.606 -5.3387 -2.2194  0.2628
  389MOL0     H52493   5.767  -0.324   8.712  0.8660  1.6340  0.1237
  389MOL0     H52494   5.736  -0.267   8.544 -1.5188 -0.0795 -0.2408
  389MOL0     H52495   4.648  -0.600   8.510 -1.2034 -0.2007 -0.1253
  389MOL0     H52496   4.401  -0.577   8.463 -1.3640 -0.1797 -0.6957
  389MOL0     H52497   4.030  -0.384   8.352 -0.7316 -0.6180 -0.4266
  389MOL0     H52498   3.806  -0.324   8.301  0.1322  1.0508 -1.0600
  389MOL0     H52499   3.008   0.304   8.484 -0.0363  1.2004 -0.1792
  389MOL0     H52500   3.234   0.411   8.442  1.2295 -0.0213 -1.4275
  389MOL0     H52501   3.355   0.760   8.085  0.0578  1.9933 -0.9466
  389MOL0     H52502   3.552   0.911   7.994  3.0204 -0.2688  0.5779
  389MOL0     H52503   3.758   1.156   8.291 -1.1691  1.3542 -1.8285
  389MOL0     H52504   3.851   1.201   8.159  3.5949 -0.2924  2.2582
  389MOL0     H52505   3.905   0.955   8.305 -0.6631  0.4325 -1.7424
  389MOL0     H52506   4.006   1.107   8.286  1.0143  0.2923  0.1934
  389MOL0     H52507   4.038   1.051   8.049  1.4150 -1.6329 -1.4243
  389MOL0     H52508   3.943   0.904   8.061  0.1147  1.6446 -1.2285
  389MOL0     H52509   4.123   0.832   8.229 -0.4632  0.6876  0.6357
  389MOL0     H52510   4.204   0.862   8.072  2.9853  2.4161  1.2901
  389MOL0     H52511   4.346   1.195   8.277  3.1577 -0.6930 -1.2662
  389MOL0     H52512   3.697   0.951   8.393  0.3159 -1.5445  0.0708
  389MOL0     H52513   3.468   0.883   8.573 -3.6736 -3.0736  2.1683
  389MOL0     H52514   3.491   0.706   8.550 -0.6730  0.7606  0.8649
  389MOL0     H52515   3.627   0.813   8.558  0.0234  2.3702 -1.9243
  390MOL0     O52516   6.068   4.000   3.470  0.8670 -0.3998 -0.1660
  390MOL0     C52517   6.035   3.880   3.470  0.4348 -0.5466 -0.4718
  390MOL0     O52518   6.116   3.772   3.484 -0.3607 -0.1226 -0.0641
  390MOL0     C52519   6.235   3.804   3.539  0.4349  0.6801 -0.0536
  390MOL0     C52520   6.338   3.859   3.459 -1.0000  0.2710  0.9448
  390MOL0     C52521   6.462   3.885   3.523  0.6459  0.8072 -0.0392
  390MOL0     C52522   6.482   3.857   3.661  0.6809 -0.6328  0.6569
  390MOL0     O52523   6.612   3.859   3.716 -0.5250  0.1810  0.2324
  390MOL0     C52524   6.642   3.818   3.849  0.7198  0.3233  0.2512
  390MOL0     C52525   6.794   3.806   3.878 -0.0380 -0.7351  0.6507
  390MOL0     C52526   6.844   3.951   3.839  0.6276 -0.1448  0.0439
  390MOL0     C52527   6.967   3.998   3.912 -0.4211 -0.5489 -0.1340
  390MOL0     C52528   7.013   4.146   3.873 -0.2705 -0.2174 -0.8017
  390MOL0     C52529   7.153   4.186   3.931  0.4531  0.3559 -0.7759
  390MOL0     C52530   7.150   4.179   4.094 -0.4335  0.4543 -0.2770
  390MOL0     C52531   7.274   4.241   4.161  0.7015 -0.5784  0.6982
  390MOL0     N52532   7.254   4.227   4.301  0.9581  0.2780  0.0274
  390MOL0     C52533   7.236   4.338   4.389  0.2539  0.2892  0.1042
  390MOL0     C52534   7.238   4.271   4.510  0.1366 -0.4631 -0.4283
  390MOL0     C52535   7.212   4.334   4.643 -0.7175  0.7025 -0.1086
  390MOL0     C52536   7.082   4.404   4.656 -0.3135 -0.4670 -0.5510
  390MOL0     C52537   7.081   4.501   4.781 -0.4768 -0.0474  0.3987
  390MOL0     C52538   7.012   4.436   4.896 -0.8517  0.0533  0.1507
  390MOL0     O52539   6.862   4.428   4.887 -0.5552 -0.4724  0.1193
  390MOL0     C52540   6.783   4.362   4.981 -1.5031  0.3222  0.2748
  390MOL0     C52541   6.831   4.334   5.113 -0.2642 -0.1058 -0.1438
  390MOL0     C52542   6.749   4.274   5.208 -0.6541 -0.1554 -0.1977
  390MOL0     C52543   6.614   4.249   5.181 -0.7181  0.0589  0.9508
  390MOL0     C52544   6.522   4.201   5.290 -0.3915  0.0356 -0.3775
  390MOL0     O52545   6.580   4.130   5.396 -0.5058 -0.5092  0.0915
  390MOL0     C52546   6.501   4.126   5.505  0.0492  1.1632  0.0489
  390MOL0     C52547   6.508   4.220   5.605 -0.2038  0.5787 -0.5992
  390MOL0     C52548   6.437   4.202   5.725 -0.5218  0.5204 -0.5258
  390MOL0     C52549   6.362   4.088   5.749 -0.1200  0.7496 -0.2186
  390MOL0     O52550   6.296   4.055   5.863  0.1771  0.1034  0.8763
  390MOL0     C52551   6.318   4.132   5.982  1.1984 -0.3108  0.4838
  390MOL0     C52552   6.230   4.081   6.092  0.6107 -0.3826 -0.3382
  390MOL0     C52553   6.082   4.093   6.067 -0.2468 -0.0021 -0.1263
  390MOL0     C52554   6.000   4.019   6.176 -0.3696  0.5529 -0.4279
  390MOL0     C52555   5.857   4.064   6.194  0.2738 -0.3213  0.1628
  390MOL0     C52556   5.759   4.016   6.089  0.8738 -0.1920 -0.0110
  390MOL0     C52557   5.726   3.864   6.097 -0.1464 -0.9049 -0.6589
  390MOL0     C52558   5.576   3.832   6.093  0.8478 -0.3402  0.7865
  390MOL0    Cl52559   5.482   3.916   6.234 -0.1645  0.1346  0.8024
  390MOL0     C52560   6.348   4.007   5.644  0.3539 -0.0077  0.1691
  390MOL0     C52561   6.416   4.019   5.525  0.5532  0.9454  0.1494
  390MOL0     O52562   6.399   4.209   5.276 -0.5731 -0.1246 -0.3298
  390MOL0     C52563   6.565   4.278   5.052  0.6764  0.8195 -0.1911
  390MOL0     C52564   6.653   4.333   4.950  1.0211 -0.7707 -0.2933
  390MOL0     N52565   7.272   4.140   4.495  0.2229  0.1441 -0.0312
  390MOL0     N52566   7.290   4.117   4.370 -0.7651  0.9863  0.5374
  390MOL0     C52567   6.378   3.799   3.733 -0.5819 -0.5088  0.4630
  390MOL0     C52568   6.253   3.774   3.677 -0.0656  0.1222  0.4891
  390MOL0     C52569   5.904   3.846   3.415 -1.0898  0.7080 -0.5160
  390MOL0     C52570   5.904   3.810   3.278 -0.3584 -0.1860  0.5790
  390MOL0     C52571   5.782   3.779   3.222 -0.4436 -0.0429 -0.0677
  390MOL0     C52572   5.667   3.766   3.296  0.6415  0.2566 -0.4563
  390MOL0     O52573   5.552   3.722   3.233 -0.8875  1.4106 -0.2185
  390MOL0     C52574   5.437   3.690   3.317 -0.9642 -0.0286  0.7596
  390MOL0     C52575   5.325   3.619   3.234 -0.6031  0.2702 -0.8096
  390MOL0     C52576   5.250   3.719   3.128  0.1218 -0.4273  0.2254
  390MOL0     C52577   5.173   3.632   3.032  0.0227  0.1359  1.2372
  390MOL0     C52578   5.070   3.706   2.955 -0.7204 -0.6582 -0.7261
  390MOL0     C52579   4.987   3.770   2.901 -0.3049 -0.3262 -0.1712
  390MOL0     C52580   5.668   3.799   3.432  0.3365 -0.6009 -0.3536
  390MOL0     C52581   5.789   3.843   3.496 -0.2623 -0.5274 -0.5851
  390MOL0     C52582   5.807   3.872   3.651 -0.4807 -0.3021  0.5848
  390MOL0     H52583   6.319   3.892   3.357  0.2326  2.6948  1.4327
  390MOL0     H52584   6.541   3.935   3.468  1.2313  0.2329  0.2698
  390MOL0     H52585   6.589   3.891   3.910 -0.0457  0.4879 -0.5858
  390MOL0     H52586   6.596   3.721   3.869 -0.8572  1.1221  0.6146
  390MOL0     H52587   6.836   3.725   3.819  1.4856  0.0275  0.6397
  390MOL0     H52588   6.823   3.773   3.979  0.6782 -1.3470  0.2483
  390MOL0     H52589   6.768   4.026   3.862 -2.1955 -2.6762 -0.4309
  390MOL0     H52590   6.867   3.966   3.733 -0.6027  2.7473  0.0905
  390MOL0     H52591   6.933   4.002   4.016 -2.2757 -1.8351 -0.6469
  390MOL0     H52592   7.055   3.932   3.902  0.0900 -0.8914  4.2634
  390MOL0     H52593   7.017   4.151   3.763  0.0557 -2.0824 -0.9075
  390MOL0     H52594   6.932   4.211   3.907 -0.2928 -1.7216  2.3585
  390MOL0     H52595   7.231   4.119   3.894  0.9795 -0.9878  2.4354
  390MOL0     H52596   7.170   4.290   3.901 -0.4224  1.0142  0.8853
  390MOL0     H52597   7.161   4.073   4.117  3.3247  0.6907 -0.4949
  390MOL0     H52598   7.058   4.223   4.134  0.6622  1.7478  0.9100
  390MOL0     H52599   7.365   4.190   4.127  2.1271  2.2713 -0.0659
  390MOL0     H52600   7.295   4.346   4.140  1.3742 -0.6418  1.0185
  390MOL0     H52601   7.206   4.441   4.374 -0.6616 -0.0192 -0.3095
  390MOL0     H52602   7.240   4.273   4.729  0.7658  1.3153 -0.1248
  390MOL0     H52603   7.280   4.420   4.643  2.5776 -1.7094  0.6049
  390MOL0     H52604   7.059   4.460   4.565 -2.8551  0.1930  0.4014
  390MOL0     H52605   7.002   4.329   4.654 -1.6916  0.9184 -3.1968
  390MOL0     H52606   7.020   4.587   4.753  1.5471  1.6002  0.7657
  390MOL0     H52607   7.177   4.542   4.814  0.3987 -2.6420  1.3786
  390MOL0     H52608   7.026   4.485   4.992  0.7931 -0.1709  0.0404
  390MOL0     H52609   7.051   4.335   4.911 -0.3558 -0.3233 -2.9159
  390MOL0     H52610   6.937   4.353   5.128  0.3744 -1.4488 -2.3635
  390MOL0     H52611   6.796   4.255   5.305 -0.6275  1.6030  0.1574
  390MOL0     H52612   6.591   4.290   5.607 -1.0671  1.6063  0.1120
  390MOL0     H52613   6.453   4.271   5.808  0.2877 -0.8738  0.5190
  390MOL0     H52614   6.424   4.133   6.009  1.0021  1.2016  1.2762
  390MOL0     H52615   6.292   4.236   5.960 -0.8067 -0.0138  3.6206
  390MOL0     H52616   6.257   3.978   6.116 -0.6215 -1.5197 -3.3215
  390MOL0     H52617   6.238   4.150   6.176 -0.8477  0.4117 -0.8029
  390MOL0     H52618   6.042   4.192   6.043 -1.7294 -0.8087 -1.1845
  390MOL0     H52619   6.062   4.033   5.978 -0.8781  0.7103 -0.4697
  390MOL0     H52620   6.047   4.027   6.275  1.1451 -1.0304 -0.9617
  390MOL0     H52621   6.003   3.911   6.161 -0.7691  0.3500  0.8804
  390MOL0     H52622   5.839   4.172   6.202 -1.0089 -0.4494 -0.6740
  390MOL0     H52623   5.826   4.017   6.288 -2.1774  2.9971  1.2418
  390MOL0     H52624   5.666   4.069   6.113  1.4204 -0.2595  2.5647
  390MOL0     H52625   5.790   4.037   5.987  2.1429  1.6365  0.6975
  390MOL0     H52626   5.753   3.835   6.199 -0.6616  1.8058  0.3448
  390MOL0     H52627   5.784   3.810   6.021  3.2359  3.9096 -1.9923
  390MOL0     H52628   5.531   3.871   6.001 -2.7203  0.1695  2.5528
  390MOL0     H52629   5.565   3.723   6.097 -0.2116 -0.2817 -0.0957
  390MOL0     H52630   6.285   3.923   5.672  0.8488  0.1461  1.9087
  390MOL0     H52631   6.416   3.937   5.453  2.4022  2.5820 -1.8830
  390MOL0     H52632   6.464   4.253   5.020 -0.1247  3.5575  0.0094
  390MOL0     H52633   6.616   4.355   4.851 -3.9963  0.2768  1.5029
  390MOL0     H52634   6.395   3.764   3.835 -1.4073 -0.2273  0.6981
  390MOL0     H52635   6.177   3.722   3.735  0.8243 -0.7436  0.9192
  390MOL0     H52636   5.997   3.822   3.224 -0.0069 -2.9380  0.4505
  390MOL0     H52637   5.770   3.766   3.115 -3.7611  0.2553  0.1622
  390MOL0     H52638   5.391   3.788   3.338 -2.0227  0.6244 -3.6372
  390MOL0     H52639   5.460   3.637   3.410  0.4194 -0.6667  0.0664
  390MOL0     H52640   5.250   3.597   3.310  0.6970 -1.5378  0.0261
  390MOL0     H52641   5.365   3.532   3.180 -1.2457 -1.3740  1.2232
  390MOL0     H52642   5.321   3.780   3.073 -0.1626  0.9218  1.2941
  390MOL0     H52643   5.183   3.784   3.185 -1.2718  0.1187 -1.8991
  390MOL0     H52644   5.232   3.583   2.954 -2.3065 -0.2688 -0.3725
  390MOL0     H52645   5.116   3.556   3.088  0.7247 -1.4719 -0.1326
  390MOL0     H52646   4.926   3.841   2.848  0.0692 -1.0271 -1.5872
  390MOL0     H52647   5.588   3.781   3.504  2.0246  2.2020  2.4788
  390MOL0     H52648   5.857   3.787   3.699 -0.3206 -0.7911 -0.4157
  390MOL0     H52649   5.878   3.954   3.661  1.8803 -2.0949 -0.3229
  390MOL0     H52650   5.713   3.895   3.701  0.7405 -0.8873  3.3365
  391MOL0     O52651   7.189   6.991   3.946 -0.4456  0.1400 -0.3156
  391MOL0     C52652   7.113   7.088   3.942  0.4327  0.3388 -0.4814
  391MOL0     O52653   7.156   7.214   3.965  0.1076  0.4645 -1.3690
  391MOL0     C52654   7.280   7.238   4.024 -0.5383  0.1049 -0.1819
  391MOL0     C52655   7.297   7.197   4.159  0.9856 -0.1111  0.0073
  391MOL0     C52656   7.414   7.231   4.233 -0.4202  0.5195 -0.2572
  391MOL0     C52657   7.528   7.287   4.167  0.6973  1.1829 -1.4944
  391MOL0     O52658   7.642   7.315   4.223 -0.3996 -0.0495 -0.6154
  391MOL0     C52659   7.714   7.218   4.309  0.4855 -0.2530  0.1387
  391MOL0     C52660   7.855   7.237   4.303  0.0071 -0.1436  0.4424
  391MOL0     C52661   7.929   7.193   4.173  0.8938 -0.0861 -0.7227
  391MOL0     C52662   8.072   7.132   4.212  0.4443 -0.7318 -0.5607
  391MOL0     C52663   8.149   7.043   4.109  0.1702  0.0597  0.2692
  391MOL0     C52664   8.265   7.115   4.052  0.6591 -0.4824 -0.3069
  391MOL0     C52665   8.360   7.028   3.976 -0.8679 -0.7110  0.2017
  391MOL0     C52666   8.501   7.094   3.975  0.3497 -0.7123  0.4413
  391MOL0     N52667   8.595   7.022   3.887 -0.0538  0.4782 -0.3277
  391MOL0     C52668   8.662   6.911   3.934  0.5601  0.6640  0.3224
  391MOL0     C52669   8.764   6.892   3.842 -0.3836  0.4046 -0.1448
  391MOL0     C52670   8.873   6.781   3.843 -0.2429  0.0882 -0.3070
  391MOL0     C52671   8.867   6.692   3.723  0.1576  0.5492  0.9437
  391MOL0     C52672   8.919   6.546   3.750 -0.1425  0.0440 -1.0121
  391MOL0     C52673   9.078   6.547   3.721  0.6455 -0.8770 -0.5504
  391MOL0     O52674   9.156   6.570   3.840 -0.2493 -0.3971 -0.4554
  391MOL0     C52675   9.287   6.555   3.817  0.2902 -0.1892 -0.0847
  391MOL0     C52676   9.345   6.430   3.824 -1.1145 -0.2673  0.6875
  391MOL0     C52677   9.479   6.404   3.792 -0.5301 -0.2624  0.9462
  391MOL0     C52678   9.565   6.514   3.764 -0.4914 -0.1886 -0.2082
  391MOL0     C52679   9.708   6.496   3.736 -0.2972 -0.9540 -0.2949
  391MOL0     O52680   9.753   6.370   3.738  0.3974 -0.6177  0.1611
  391MOL0     C52681   9.858   6.339   3.651 -0.1422  0.0924 -0.2376
  391MOL0     C52682   9.987   6.385   3.673  0.9678  0.0946 -0.7934
  391MOL0     C52683  10.089   6.343   3.589  0.5052 -0.3418  0.4372
  391MOL0     C52684  10.063   6.272   3.468 -0.6923 -0.0267  0.8095
  391MOL0     O52685  10.160   6.255   3.372 -0.0904  0.1845  0.3283
  391MOL0     C52686  10.144   6.345   3.269  0.4493  0.2290  0.0674
  391MOL0     C52687  10.278   6.389   3.210  0.1984 -0.6216 -0.3264
  391MOL0     C52688  10.253   6.479   3.083  0.6603 -0.3065  0.2551
  391MOL0     C52689  10.386   6.550   3.044  0.6928 -0.4399  0.2547
  391MOL0     C52690  10.383   6.675   2.940  0.7199  0.1169 -0.6574
  391MOL0     C52691  10.481   6.677   2.829 -0.4464 -0.8788 -0.4581
  391MOL0     C52692  10.432   6.780   2.716  0.3536  0.1270 -0.3743
  391MOL0     C52693  10.455   6.927   2.751  0.9849  0.3804 -0.2336
  391MOL0    Cl52694  10.402   7.040   2.628  0.0096 -0.3038  0.2401
  391MOL0     C52695   9.941   6.211   3.457  0.7919  0.3742 -0.0364
  391MOL0     C52696   9.844   6.240   3.548 -0.1856  0.4463 -0.0525
  391MOL0     O52697   9.772   6.594   3.698 -0.8712  0.3286  0.1764
  391MOL0     C52698   9.507   6.643   3.759 -0.3233  0.1705 -0.3575
  391MOL0     C52699   9.374   6.664   3.783  0.2463 -0.5051  0.0341
  391MOL0     N52700   8.752   6.997   3.748 -0.3956 -1.3596  0.1579
  391MOL0     N52701   8.659   7.075   3.775  0.3884  1.0775 -0.0797
  391MOL0     C52702   7.506   7.329   4.037  0.0852 -0.1343  0.7601
  391MOL0     C52703   7.386   7.300   3.966 -0.3478  0.2052 -0.0575
  391MOL0     C52704   6.964   7.055   3.944  0.2511 -0.5189  0.0597
  391MOL0     C52705   6.889   7.140   4.022  0.1167  0.5238 -0.2326
  391MOL0     C52706   6.758   7.131   4.046  0.5179 -0.5421 -0.0012
  391MOL0     C52707   6.684   7.038   3.970 -1.0621 -0.0739 -0.3077
  391MOL0     O52708   6.551   7.051   3.980  0.2094  0.8651  0.1937
  391MOL0     C52709   6.479   6.929   3.976  0.4088  0.5965 -0.5357
  391MOL0     C52710   6.354   6.943   4.066  0.7746  0.3029  0.3687
  391MOL0     C52711   6.276   6.807   4.081 -0.8088 -1.0347 -0.2868
  391MOL0     C52712   6.139   6.829   4.127 -0.0734  0.9397  0.4119
  391MOL0     C52713   6.084   6.702   4.162 -0.1773  0.9169  0.1113
  391MOL0     C52714   6.025   6.599   4.158  0.5822  1.0910 -0.2238
  391MOL0     C52715   6.750   6.945   3.902 -0.3126  0.2892  0.5255
  391MOL0     C52716   6.896   6.943   3.901  0.2702  0.4501  0.1964
  391MOL0     C52717   6.960   6.838   3.825 -0.5066  0.1936  0.7768
  391MOL0     H52718   7.214   7.147   4.207  2.7885 -2.4457  0.8948
  391MOL0     H52719   7.419   7.219   4.340  5.0820  1.3343 -0.1359
  391MOL0     H52720   7.679   7.246   4.408 -0.7609  2.2152 -0.9125
  391MOL0     H52721   7.677   7.119   4.281  0.0671  0.1797 -0.8808
  391MOL0     H52722   7.895   7.174   4.383  1.9773  1.6007  0.9483
  391MOL0     H52723   7.881   7.342   4.322 -3.9151  1.5310 -2.1726
  391MOL0     H52724   7.950   7.281   4.111 -0.5436  0.4195 -0.5276
  391MOL0     H52725   7.866   7.128   4.111  0.1942  1.8148 -2.1175
  391MOL0     H52726   8.134   7.210   4.257  0.6953  0.5406 -2.9512
  391MOL0     H52727   8.045   7.057   4.287  0.6967 -0.9890 -0.7274
  391MOL0     H52728   8.186   6.957   4.166 -0.3999 -1.0235 -0.9542
  391MOL0     H52729   8.083   6.993   4.037 -0.2115  1.1110 -0.1238
  391MOL0     H52730   8.219   7.185   3.981 -0.1909  1.5197  2.1016
  391MOL0     H52731   8.310   7.180   4.127 -3.1171  2.3658 -0.2281
  391MOL0     H52732   8.328   7.004   3.875  1.6939 -0.9691 -0.5954
  391MOL0     H52733   8.375   6.932   4.027 -2.6172 -0.8707  0.5033
  391MOL0     H52734   8.478   7.182   3.915  0.2168 -2.5312 -2.3360
  391MOL0     H52735   8.548   7.115   4.072 -1.0706  1.8617  0.6528
  391MOL0     H52736   8.659   6.860   4.030 -2.0550  0.4391  0.1884
  391MOL0     H52737   8.964   6.840   3.832  0.4018 -1.1218 -1.8143
  391MOL0     H52738   8.870   6.721   3.934 -2.4018  0.9250  0.2516
  391MOL0     H52739   8.766   6.664   3.691  0.9795 -2.5171  0.6439
  391MOL0     H52740   8.911   6.736   3.634 -1.4083 -1.9108 -1.1973
  391MOL0     H52741   8.859   6.481   3.685 -0.0985  0.4228 -1.4389
  391MOL0     H52742   8.892   6.523   3.853 -1.2251  2.4792 -0.6813
  391MOL0     H52743   9.105   6.627   3.651  1.8650 -1.3025 -0.5829
  391MOL0     H52744   9.109   6.449   3.684  2.0821 -0.7245  0.1852
  391MOL0     H52745   9.277   6.350   3.850 -2.5742  0.9007  0.6363
  391MOL0     H52746   9.522   6.304   3.789 -0.5137 -0.2264 -0.7655
  391MOL0     H52747  10.023   6.443   3.758  2.0976 -0.7220 -0.6908
  391MOL0     H52748  10.194   6.371   3.593  0.7077 -0.7830 -0.9881
  391MOL0     H52749  10.100   6.281   3.192  4.0512  0.4108 -2.4375
  391MOL0     H52750  10.077   6.429   3.290 -1.3691 -0.1984 -3.3030
  391MOL0     H52751  10.321   6.461   3.281  1.2221  0.5241 -2.0561
  391MOL0     H52752  10.351   6.310   3.195  0.9114 -1.0091  3.8893
  391MOL0     H52753  10.219   6.414   3.002 -1.9192  3.1809 -1.6893
  391MOL0     H52754  10.187   6.565   3.097  0.2625 -0.5673 -0.0062
  391MOL0     H52755  10.444   6.478   2.985  1.5377 -0.6318  1.2890
  391MOL0     H52756  10.446   6.572   3.133 -1.9332 -0.4410  2.1294
  391MOL0     H52757  10.379   6.769   2.996 -3.1451 -0.2100 -0.1121
  391MOL0     H52758  10.287   6.666   2.890  1.1790 -0.6152 -1.4266
  391MOL0     H52759  10.576   6.706   2.874 -0.7292 -1.9237  0.8772
  391MOL0     H52760  10.494   6.579   2.782 -1.4374 -1.3068  0.1380
  391MOL0     H52761  10.325   6.766   2.700  0.2606  0.5156 -0.0872
  391MOL0     H52762  10.474   6.762   2.616 -1.8648 -0.1177 -1.3312
  391MOL0     H52763  10.415   6.950   2.850  1.9445 -4.2038  1.4758
  391MOL0     H52764  10.564   6.942   2.755  1.0115 -0.0174  0.9325
  391MOL0     H52765   9.925   6.141   3.376 -1.6991  0.7986  0.0232
  391MOL0     H52766   9.754   6.183   3.528 -1.1202  1.8601 -0.0726
  391MOL0     H52767   9.562   6.732   3.728 -1.1812  0.0452 -2.3875
  391MOL0     H52768   9.338   6.766   3.779 -0.2383 -0.5228  2.4607
  391MOL0     H52769   7.588   7.353   3.970 -1.1999  3.2964  0.2305
  391MOL0     H52770   7.373   7.334   3.864  1.6440 -2.4934 -1.3361
  391MOL0     H52771   6.923   7.241   4.045 -0.1051  1.1247 -2.3081
  391MOL0     H52772   6.693   7.191   4.110  0.0248  1.4571 -2.2102
  391MOL0     H52773   6.532   6.853   4.034  0.4587  0.1862 -1.1164
  391MOL0     H52774   6.466   6.900   3.872  4.1375  0.6220 -1.1287
  391MOL0     H52775   6.293   7.011   4.005 -0.3859  0.2476  1.4240
  391MOL0     H52776   6.385   6.989   4.160  0.7233  0.9628  0.0689
  391MOL0     H52777   6.343   6.752   4.149 -0.9578  0.4893  1.1594
  391MOL0     H52778   6.264   6.754   3.986  0.5253  0.4806 -1.3385
  391MOL0     H52779   6.132   6.899   4.211  1.8705 -0.0200  1.4514
  391MOL0     H52780   6.077   6.874   4.049 -0.5763 -2.0082 -1.0454
  391MOL0     H52781   5.967   6.509   4.161  1.4176  0.5668  1.2153
  391MOL0     H52782   6.696   6.873   3.840  0.0809  2.1965 -2.2202
  391MOL0     H52783   6.897   6.759   3.785  0.2815  1.9609 -4.8694
  391MOL0     H52784   7.010   6.879   3.736 -2.3155  1.7022  0.4110
  391MOL0     H52785   7.045   6.793   3.877  2.2459  0.7430 -2.7927
  392MOL0     O52786   6.230   7.851   0.739 -0.4658 -0.0870 -0.1425
  392MOL0     C52787   6.338   7.812   0.712 -0.8042  0.0094 -0.1372
  392MOL0     O52788   6.381   7.772   0.588 -0.0813 -0.6150  0.1703
  392MOL0     C52789   6.294   7.766   0.479 -0.8591  0.8120 -0.1175
  392MOL0     C52790   6.361   7.790   0.366 -0.1522  0.1766  0.3631
  392MOL0     C52791   6.301   7.791   0.235 -0.1508  0.5851 -0.1920
  392MOL0     C52792   6.168   7.774   0.231  0.8301 -0.5555 -0.4780
  392MOL0     O52793   6.099   7.790   0.116  0.1829 -0.3397  0.5796
  392MOL0     C52794   5.999   7.896   0.124 -1.0589  0.2648  0.1355
  392MOL0     C52795   5.955   7.953  -0.018 -0.2204 -0.8456 -0.6559
  392MOL0     C52796   5.825   8.024  -0.036 -0.0945 -0.0859 -0.3899
  392MOL0     C52797   5.710   7.920  -0.065 -0.1264  0.2758 -0.3700
  392MOL0     C52798   5.568   7.982  -0.053 -0.2129  0.1614  0.7979
  392MOL0     C52799   5.461   7.868  -0.070  0.4275 -0.3978 -0.1355
  392MOL0     C52800   5.318   7.917  -0.043 -1.1662 -0.1851  0.4801
  392MOL0     C52801   5.223   7.803  -0.042 -0.2385  0.4800 -1.1223
  392MOL0     N52802   5.086   7.849  -0.012 -1.0294 -0.0959  0.1911
  392MOL0     C52803   4.981   7.861  -0.103  0.3685 -0.1046 -0.2457
  392MOL0     C52804   4.878   7.907  -0.031  0.3429 -1.3075 -0.0211
  392MOL0     C52805   4.749   7.948  -0.097 -0.2927 -0.3814  0.2062
  392MOL0     C52806   4.704   8.081  -0.037 -0.2646  0.0933 -0.3302
  392MOL0     C52807   4.775   8.201  -0.094  0.5444 -0.4377 -0.4263
  392MOL0     C52808   4.743   8.340  -0.026 -0.4223 -0.2325 -0.1029
  392MOL0     O52809   4.794   8.340   0.109  0.2223  0.0583 -0.2304
  392MOL0     C52810   4.935   8.354   0.125  0.8100  0.1628  0.5012
  392MOL0     C52811   4.995   8.479   0.097 -0.3015  0.6862 -0.2591
  392MOL0     C52812   5.128   8.512   0.135  0.3820  0.0965 -0.0275
  392MOL0     C52813   5.214   8.412   0.190  0.3658 -0.6970 -1.5463
  392MOL0     C52814   5.351   8.445   0.216  0.9263  0.1754  0.4440
  392MOL0     O52815   5.372   8.580   0.258  0.0919  0.5791  0.0692
  392MOL0     C52816   5.494   8.609   0.318 -0.0865  0.3929 -0.8764
  392MOL0     C52817   5.566   8.524   0.409  0.1840  0.0172  0.2220
  392MOL0     C52818   5.681   8.564   0.466 -0.6503 -0.1214  0.9405
  392MOL0     C52819   5.743   8.687   0.440  0.8390  0.7933  1.1486
  392MOL0     O52820   5.864   8.727   0.484 -0.1542 -0.1585 -1.1256
  392MOL0     C52821   5.952   8.641   0.564  0.5799  0.0299 -0.2938
  392MOL0     C52822   5.903   8.634   0.713  0.1875  0.1085 -0.5931
  392MOL0     C52823   5.901   8.766   0.784  0.2446 -0.1934 -0.5888
  392MOL0     C52824   5.785   8.866   0.763  0.0085  1.0287 -0.7289
  392MOL0     C52825   5.774   8.989   0.846  0.0325 -0.0731 -0.0987
  392MOL0     C52826   5.849   9.116   0.800  0.7792  0.4349 -0.2205
  392MOL0     C52827   5.835   9.230   0.893 -0.1436 -0.9170 -0.4698
  392MOL0     C52828   5.937   9.339   0.873  0.5438 -0.6685 -0.4189
  392MOL0    Cl52829   5.926   9.398   0.707 -0.2924  0.3382 -0.0439
  392MOL0     C52830   5.678   8.770   0.346  1.0949  0.3270 -0.4284
  392MOL0     C52831   5.548   8.730   0.291 -1.3937 -0.1407  0.2240
  392MOL0     O52832   5.437   8.360   0.203 -0.2696  0.7599 -0.1034
  392MOL0     C52833   5.166   8.278   0.197 -0.3113  1.0121 -0.2939
  392MOL0     C52834   5.028   8.254   0.166  0.4306 -0.9711 -0.3715
  392MOL0     N52835   4.913   7.916   0.100  0.8501  0.5524  0.0190
  392MOL0     N52836   5.034   7.882   0.115 -0.1615  0.0032  0.0294
  392MOL0     C52837   6.091   7.739   0.344 -0.5683  0.8234 -1.2376
  392MOL0     C52838   6.157   7.739   0.468 -0.2054  0.7996 -0.7671
  392MOL0     C52839   6.455   7.819   0.814  0.3659 -0.2281 -0.8415
  392MOL0     C52840   6.589   7.822   0.768  0.7508 -0.1028  1.0848
  392MOL0     C52841   6.692   7.840   0.861  0.4930 -0.7067 -0.0617
  392MOL0     C52842   6.672   7.857   0.997 -0.8880  0.0791 -0.0412
  392MOL0     O52843   6.781   7.893   1.072  0.7098  0.0790  0.1658
  392MOL0     C52844   6.784   7.928   1.216 -0.3271 -0.1346  0.9544
  392MOL0     C52845   6.866   8.060   1.219  0.0896  0.5459 -0.2419
  392MOL0     C52846   7.017   8.041   1.186 -0.0518  0.4159  0.3059
  392MOL0     C52847   7.094   8.168   1.241 -0.6268  1.0472  0.0882
  392MOL0     C52848   7.236   8.142   1.199  0.1832  0.3245  0.0140
  392MOL0     C52849   7.354   8.132   1.161  0.4532 -0.6158 -0.0973
  392MOL0     C52850   6.543   7.837   1.039 -0.5060  0.2868 -0.8730
  392MOL0     C52851   6.428   7.820   0.956 -0.6194 -0.3704  0.5664
  392MOL0     C52852   6.290   7.790   1.016 -0.0451  0.5141  0.1776
  392MOL0     H52853   6.465   7.819   0.371  0.4995 -1.3539 -2.2701
  392MOL0     H52854   6.350   7.809   0.140 -2.2974  0.0640 -1.4445
  392MOL0     H52855   5.917   7.864   0.189 -0.3472 -1.9372  0.0322
  392MOL0     H52856   6.047   7.974   0.183  0.5941 -1.3807  1.0618
  392MOL0     H52857   5.972   7.873  -0.091  0.2167  1.1698 -2.8727
  392MOL0     H52858   6.029   8.031  -0.037 -0.1654 -1.1697 -1.8489
  392MOL0     H52859   5.835   8.097  -0.116  0.0210  2.4695  1.7949
  392MOL0     H52860   5.798   8.088   0.049 -1.9766  2.8709 -3.0114
  392MOL0     H52861   5.711   7.874  -0.164  1.5664 -1.9890  0.6225
  392MOL0     H52862   5.719   7.840   0.009 -0.3236  0.3182 -0.2987
  392MOL0     H52863   5.557   8.032   0.043  1.3444 -0.6799  1.4357
  392MOL0     H52864   5.553   8.054  -0.134 -1.4903 -2.6561 -1.7015
  392MOL0     H52865   5.466   7.830  -0.173 -0.5722 -0.9877  0.0218
  392MOL0     H52866   5.486   7.780  -0.011 -1.3552 -1.5563 -1.0198
  392MOL0     H52867   5.302   7.999  -0.113 -1.3490 -1.9745 -1.7034
  392MOL0     H52868   5.338   7.957   0.056  1.4406  2.5748 -0.9765
  392MOL0     H52869   5.215   7.765  -0.144 -2.0271 -2.0820 -0.1266
  392MOL0     H52870   5.251   7.720   0.024 -1.4334  3.0117  2.9044
  392MOL0     H52871   4.974   7.847  -0.210  1.4662 -0.1596 -0.3161
  392MOL0     H52872   4.762   7.960  -0.205 -0.0304  1.8720  0.4512
  392MOL0     H52873   4.667   7.878  -0.077 -3.1557  3.0278  1.3907
  392MOL0     H52874   4.595   8.080  -0.047 -0.4858 -2.6304  1.3306
  392MOL0     H52875   4.729   8.071   0.069  0.0685 -1.0639 -0.5039
  392MOL0     H52876   4.738   8.208  -0.196  0.7430  5.4443 -0.4490
  392MOL0     H52877   4.885   8.195  -0.091  0.7272  1.2918 -1.9300
  392MOL0     H52878   4.635   8.360  -0.029 -0.3496  0.5428  1.3730
  392MOL0     H52879   4.795   8.420  -0.080  1.1292 -0.8229  0.4711
  392MOL0     H52880   4.927   8.560   0.070  0.6501  2.9982  3.4707
  392MOL0     H52881   5.164   8.614   0.127  0.4860 -0.0872 -3.9763
  392MOL0     H52882   5.520   8.431   0.440 -3.4420  1.7197  0.4180
  392MOL0     H52883   5.730   8.496   0.535 -0.6810 -3.1494 -1.7636
  392MOL0     H52884   5.946   8.541   0.521 -1.1575 -0.1437  0.2932
  392MOL0     H52885   6.056   8.675   0.566  0.9031 -0.9592  0.3924
  392MOL0     H52886   5.800   8.599   0.725  0.6566 -0.4041  3.2812
  392MOL0     H52887   5.968   8.569   0.773 -2.7994 -1.7582  0.8430
  392MOL0     H52888   5.896   8.736   0.889 -0.8946  1.6247 -0.0821
  392MOL0     H52889   5.995   8.818   0.766 -0.6065  0.7055 -2.7902
  392MOL0     H52890   5.691   8.810   0.764  0.1888  0.5461 -3.2111
  392MOL0     H52891   5.781   8.902   0.660 -1.6820 -1.0669 -1.4537
  392MOL0     H52892   5.826   8.973   0.941  1.1815  3.0022 -0.1187
  392MOL0     H52893   5.667   9.005   0.864  0.1081 -1.4382  1.9129
  392MOL0     H52894   5.951   9.075   0.806  0.1390 -1.4185 -1.0381
  392MOL0     H52895   5.839   9.143   0.695  1.8595  1.4143 -0.0874
  392MOL0     H52896   5.841   9.193   0.996 -2.1452 -0.3213 -0.0762
  392MOL0     H52897   5.738   9.281   0.893  0.1263 -0.3275  0.9951
  392MOL0     H52898   5.918   9.417   0.948  1.3039  0.8024 -1.7058
  392MOL0     H52899   6.039   9.310   0.903 -0.1677 -1.5245  1.3546
  392MOL0     H52900   5.711   8.868   0.316 -1.6582  1.0421 -1.3783
  392MOL0     H52901   5.508   8.792   0.211  2.3244  0.9107 -1.0316
  392MOL0     H52902   5.230   8.192   0.207 -0.0964  0.6845 -3.4694
  392MOL0     H52903   4.998   8.150   0.177 -0.7783 -0.6199 -0.1420
  392MOL0     H52904   5.983   7.733   0.333 -0.3555 -0.4376 -3.1197
  392MOL0     H52905   6.097   7.710   0.554  0.3569  1.2845 -0.2078
  392MOL0     H52906   6.603   7.810   0.661  0.3738 -2.9265  1.2889
  392MOL0     H52907   6.786   7.849   0.807  0.5530  0.6563  0.2457
  392MOL0     H52908   6.846   7.857   1.270  1.0883  2.8736  3.6635
  392MOL0     H52909   6.685   7.947   1.257 -0.2305  1.4775  0.5382
  392MOL0     H52910   6.859   8.084   1.326 -2.3594  1.1040 -0.4624
  392MOL0     H52911   6.818   8.136   1.157 -0.4888  2.0179  1.9027
  392MOL0     H52912   7.033   8.010   1.083  1.3783 -1.1440  0.9364
  392MOL0     H52913   7.066   7.963   1.246  0.4064  0.0026 -0.5885
  392MOL0     H52914   7.064   8.254   1.181  1.0172 -0.6483 -3.4861
  392MOL0     H52915   7.077   8.180   1.349 -3.8949  3.4794 -0.5550
  392MOL0     H52916   7.456   8.143   1.130  0.9518 -1.0611  1.2758
  392MOL0     H52917   6.523   7.824   1.145 -1.4301 -4.2727 -1.4205
  392MOL0     H52918   6.219   7.872   0.999  1.2177  1.4554 -0.6873
  392MOL0     H52919   6.245   7.696   0.984 -1.0263  1.3247 -0.9180
  392MOL0     H52920   6.297   7.774   1.124 -1.7919 -2.0742  0.0057
  393MOL0     O52921   6.598   8.412   3.909  0.3718 -0.0154  0.4835
  393MOL0     C52922   6.512   8.497   3.934 -0.0552 -0.2456 -0.8943
  393MOL0     O52923   6.549   8.626   3.960 -0.2639  0.1460  0.0034
  393MOL0     C52924   6.681   8.653   3.993  0.1162 -0.1657 -0.0423
  393MOL0     C52925   6.734   8.610   4.117 -0.7676 -0.0214  0.8762
  393MOL0     C52926   6.861   8.661   4.150  0.1394  0.0453  0.2026
  393MOL0     C52927   6.947   8.732   4.059  0.7371 -0.1223  0.5217
  393MOL0     O52928   7.079   8.776   4.107  0.5490 -0.6641  0.5386
  393MOL0     C52929   7.114   8.914   4.077  0.0660 -0.2813  0.0237
  393MOL0     C52930   7.221   8.948   4.173  0.0973 -0.2790  0.0917
  393MOL0     C52931   7.280   9.076   4.135  0.2017 -0.2735 -0.3259
  393MOL0     C52932   7.373   9.126   4.246  0.0512 -0.5428  0.8217
  393MOL0     C52933   7.439   9.255   4.186 -0.0143  0.2921  0.5554
  393MOL0     C52934   7.522   9.317   4.293  0.6915  0.5810 -0.1630
  393MOL0     C52935   7.589   9.444   4.274  0.0955  0.2391  0.9751
  393MOL0     C52936   7.498   9.567   4.254 -0.4739  0.0843  0.3003
  393MOL0     N52937   7.571   9.691   4.216 -0.2818 -0.1455 -0.8212
  393MOL0     C52938   7.685   9.751   4.276 -0.0775 -0.8641  0.8295
  393MOL0     C52939   7.730   9.850   4.197 -0.6155  0.4670  0.2613
  393MOL0     C52940   7.855   9.925   4.214 -0.3122 -0.1107 -0.1720
  393MOL0     C52941   7.981   9.839   4.234 -0.1167  0.4891 -0.6099
  393MOL0     C52942   8.018   9.814   4.383  0.1375 -0.5095 -1.3690
  393MOL0     C52943   8.087   9.938   4.439 -0.1036 -0.7652 -1.2608
  393MOL0     O52944   8.208   9.952   4.366  0.1166  0.6117 -0.3230
  393MOL0     C52945   8.311  10.012   4.431 -0.0774  0.4239  0.4049
  393MOL0     C52946   8.300  10.079   4.549 -0.2197 -0.8434  0.5753
  393MOL0     C52947   8.408  10.156   4.598  0.0434  0.2057  0.3976
  393MOL0     C52948   8.533  10.160   4.526 -0.2757  0.3829 -0.5573
  393MOL0     C52949   8.646  10.251   4.565 -0.6533  0.4391  0.2302
  393MOL0     O52950   8.768  10.237   4.512 -0.2526  0.3660  0.4011
  393MOL0     C52951   8.853  10.341   4.506 -0.9961 -0.8114  0.0624
  393MOL0     C52952   8.842  10.456   4.417  0.1849 -0.3461 -0.1532
  393MOL0     C52953   8.930  10.569   4.434 -0.7064 -0.4029 -0.6198
  393MOL0     C52954   9.032  10.571   4.530 -0.9578 -0.3677 -0.3213
  393MOL0     O52955   9.116  10.681   4.537  0.6476 -0.2785 -0.4916
  393MOL0     C52956   9.076  10.789   4.610 -0.8851  0.4677  0.3755
  393MOL0     C52957   9.194  10.888   4.616 -0.1472 -0.1126  0.7296
  393MOL0     C52958   9.172  11.009   4.707 -0.2441  0.2396  0.2799
  393MOL0     C52959   9.275  11.119   4.690 -0.8009 -0.8946  0.5919
  393MOL0     C52960   9.277  11.196   4.556 -0.1969  0.2773 -0.2028
  393MOL0     C52961   9.135  11.239   4.511 -0.2414 -0.5880  0.0422
  393MOL0     C52962   9.133  11.339   4.392  0.9680  0.3663 -0.7000
  393MOL0     C52963   8.991  11.361   4.345  0.8662  0.9007  1.3645
  393MOL0    Cl52964   8.938  11.494   4.460  0.1820 -0.0719  0.3504
  393MOL0     C52965   9.044  10.459   4.615 -0.7176  0.1805 -0.0601
  393MOL0     C52966   8.954  10.350   4.610  0.5284  0.0642  0.0910
  393MOL0     O52967   8.623  10.321   4.661  0.0370 -0.3488  0.5159
  393MOL0     C52968   8.552  10.072   4.419  0.8038  0.6383  0.7267
  393MOL0     C52969   8.436  10.003   4.362 -0.3806  0.3300 -0.8533
  393MOL0     N52970   7.643   9.862   4.091  0.6449  0.6530 -0.3550
  393MOL0     N52971   7.548   9.770   4.111  0.7746 -0.0271 -0.7336
  393MOL0     C52972   6.889   8.760   3.936 -0.0635 -0.2888 -0.1114
  393MOL0     C52973   6.754   8.719   3.900 -0.0397  0.4851  0.3533
  393MOL0     C52974   6.369   8.452   3.931 -0.5294  0.1453 -0.3984
  393MOL0     C52975   6.333   8.324   3.877 -0.5713 -0.5747 -0.3827
  393MOL0     C52976   6.204   8.278   3.874 -0.3076  0.9017  0.1881
  393MOL0     C52977   6.099   8.357   3.897  0.5441  0.1595 -0.5740
  393MOL0     O52978   5.977   8.295   3.891  0.0472  0.0045 -0.1807
  393MOL0     C52979   5.862   8.384   3.888 -0.1307  0.0790  0.2496
  393MOL0     C52980   5.815   8.406   4.036  0.3824 -0.3097  0.0899
  393MOL0     C52981   5.696   8.500   4.033  0.3895 -0.4913  0.3099
  393MOL0     C52982   5.634   8.510   4.170  0.1845 -0.2941 -0.1356
  393MOL0     C52983   5.530   8.619   4.178  0.8181  0.4896  0.3107
  393MOL0     C52984   5.444   8.703   4.166 -0.3582 -0.1628 -0.7348
  393MOL0     C52985   6.130   8.478   3.951  0.2002 -1.0888  0.4895
  393MOL0     C52986   6.261   8.527   3.973  0.2492  0.1837 -0.7061
  393MOL0     C52987   6.267   8.663   4.040  0.8754  0.6716 -0.7123
  393MOL0     H52988   6.683   8.544   4.187 -1.6761  0.3030  0.5328
  393MOL0     H52989   6.899   8.628   4.246  1.4090  0.9089  0.0144
  393MOL0     H52990   7.153   8.934   3.977  1.4585 -0.3365  0.5339
  393MOL0     H52991   7.033   8.984   4.101 -0.1339  0.3758 -2.3444
  393MOL0     H52992   7.304   8.878   4.183  0.5764  0.4432  1.3498
  393MOL0     H52993   7.174   8.954   4.271 -0.8283  0.6531 -0.3767
  393MOL0     H52994   7.196   9.141   4.106  0.2656 -0.1799 -0.3030
  393MOL0     H52995   7.347   9.064   4.050  1.7780  2.3139  0.4199
  393MOL0     H52996   7.310   9.140   4.335 -3.5281 -4.6584 -0.7083
  393MOL0     H52997   7.448   9.050   4.271  0.7381 -0.4060 -0.7429
  393MOL0     H52998   7.507   9.237   4.102  1.3965  3.4704  0.8622
  393MOL0     H52999   7.367   9.332   4.157 -1.5063 -0.5745  1.8286
  393MOL0     H53000   7.456   9.337   4.378 -0.3076  2.7008 -1.3561
  393MOL0     H53001   7.584   9.236   4.331 -1.6813  0.1932  3.4331
  393MOL0     H53002   7.650   9.429   4.184 -2.5266 -0.8348 -0.7507
  393MOL0     H53003   7.643   9.460   4.368 -0.2203 -1.1798  1.4309
  393MOL0     H53004   7.452   9.548   4.157  1.3128  0.5458 -0.6758
  393MOL0     H53005   7.425   9.578   4.335  2.0690 -0.7182  2.8564
  393MOL0     H53006   7.735   9.723   4.369 -0.2100  0.4636  1.3120
  393MOL0     H53007   7.873   9.987   4.125 -0.4885  3.1747  1.9158
  393MOL0     H53008   7.839   9.999   4.293 -0.6863  0.7610 -1.0395
  393MOL0     H53009   7.958   9.739   4.195 -2.7275  0.5071  0.7013
  393MOL0     H53010   8.062   9.880   4.174 -1.1118 -1.8779 -3.8633
  393MOL0     H53011   8.078   9.723   4.389  0.1257 -0.4435  3.2602
  393MOL0     H53012   7.932   9.795   4.447  4.2970  0.9085  5.7974
  393MOL0     H53013   8.106   9.919   4.545  1.1053 -0.7127 -1.4585
  393MOL0     H53014   8.024  10.028   4.438 -0.0152 -0.6361  0.6767
  393MOL0     H53015   8.209  10.082   4.609 -0.4430 -2.7192  0.4114
  393MOL0     H53016   8.398  10.226   4.681  0.4373  1.4882 -0.6138
  393MOL0     H53017   8.757  10.465   4.350  0.4592  1.8979 -0.2477
  393MOL0     H53018   8.909  10.659   4.377  0.0597  0.1448 -0.0664
  393MOL0     H53019   8.989  10.834   4.561 -0.7260  1.8151  1.2633
  393MOL0     H53020   9.056  10.762   4.714 -1.9488 -0.9056 -0.1636
  393MOL0     H53021   9.281  10.845   4.666  0.4667  1.9333  1.5126
  393MOL0     H53022   9.221  10.919   4.514  0.4185 -0.5191  0.7513
  393MOL0     H53023   9.071  11.050   4.695  0.0130  0.2949 -2.1341
  393MOL0     H53024   9.178  10.978   4.812 -1.7103  2.3922  1.0789
  393MOL0     H53025   9.375  11.075   4.703 -0.2283 -0.5671 -2.1859
  393MOL0     H53026   9.261  11.193   4.770 -1.5099  2.0508 -2.0660
  393MOL0     H53027   9.320  11.125   4.485 -0.3731 -0.4736  0.4311
  393MOL0     H53028   9.344  11.281   4.576  0.8306 -0.1887 -1.5087
  393MOL0     H53029   9.081  11.146   4.491  1.5428 -1.9518  1.2410
  393MOL0     H53030   9.080  11.272   4.599 -1.0328 -1.3353 -0.1488
  393MOL0     H53031   9.193  11.291   4.314  1.7554  1.7876 -1.0089
  393MOL0     H53032   9.184  11.431   4.419  1.8057 -0.4524  0.6024
  393MOL0     H53033   8.999  11.378   4.237 -1.3948 -0.0824  1.0032
  393MOL0     H53034   8.916  11.284   4.365  0.2197  1.8504  2.7512
  393MOL0     H53035   9.121  10.453   4.692 -1.4758  1.9181  0.8855
  393MOL0     H53036   8.952  10.274   4.687  0.9012 -1.9101 -1.7338
  393MOL0     H53037   8.637  10.077   4.352  0.3975  1.5265  0.2529
  393MOL0     H53038   8.443   9.943   4.272 -1.1566  1.5547 -1.7667
  393MOL0     H53039   6.948   8.808   3.859  2.3306 -2.4501  0.2385
  393MOL0     H53040   6.703   8.735   3.805 -1.0281  2.5878  1.1800
  393MOL0     H53041   6.394   8.247   3.830  0.0137 -0.1218 -0.3772
  393MOL0     H53042   6.190   8.175   3.846  0.8883  0.4917  1.0370
  393MOL0     H53043   5.787   8.338   3.824  1.9043 -1.7502 -0.9422
  393MOL0     H53044   5.886   8.476   3.833 -0.4900 -1.4920 -2.7569
  393MOL0     H53045   5.892   8.450   4.101  0.7327  1.1973 -1.2652
  393MOL0     H53046   5.778   8.316   4.084 -0.7203 -1.1804 -2.2372
  393MOL0     H53047   5.623   8.462   3.960  1.1635  0.6866 -1.1403
  393MOL0     H53048   5.727   8.597   3.994  2.2544 -1.1508  0.0406
  393MOL0     H53049   5.583   8.415   4.190 -2.3128  1.0947  0.6757
  393MOL0     H53050   5.703   8.527   4.254  1.7032  2.7781 -1.8368
  393MOL0     H53051   5.370   8.780   4.156  1.2666  1.4195 -1.1797
  393MOL0     H53052   6.043   8.533   3.986  0.1193 -0.6023 -0.4607
  393MOL0     H53053   6.360   8.661   4.097  1.3428 -0.4574 -1.4744
  393MOL0     H53054   6.272   8.744   3.966 -0.8919  0.0339 -1.5954
  393MOL0     H53055   6.183   8.678   4.108  0.3020  0.9102 -1.4609
  394MOL0     O53056   5.788   1.486   7.006  0.1431 -0.6384  0.3880
  394MOL0     C53057   5.706   1.578   7.018 -0.2199  0.0663  0.3476
  394MOL0     O53058   5.731   1.718   7.007 -0.1965  0.5393 -0.1951
  394MOL0     C53059   5.847   1.770   6.959 -0.0915  0.1924 -0.1154
  394MOL0     C53060   5.852   1.906   6.989  0.1650  0.7469 -0.2121
  394MOL0     C53061   5.976   1.981   6.978  0.7828  0.7095 -0.4129
  394MOL0     C53062   6.086   1.925   6.912  0.1685 -0.5549  1.2263
  394MOL0     O53063   6.209   1.983   6.887 -0.1251  0.2953  1.1006
  394MOL0     C53064   6.235   2.104   6.959  0.3877 -0.2619 -0.2146
  394MOL0     C53065   6.387   2.105   6.987  0.1157  0.6400 -0.3558
  394MOL0     C53066   6.460   2.116   6.851  0.1997  0.6956 -0.3191
  394MOL0     C53067   6.510   1.984   6.789  0.9617  0.4874 -0.3193
  394MOL0     C53068   6.587   2.009   6.662 -0.5236  0.2339  0.2644
  394MOL0     C53069   6.588   1.887   6.567  0.4226  0.9737 -0.1505
  394MOL0     C53070   6.697   1.898   6.456  0.6221  0.0329  0.9379
  394MOL0     C53071   6.693   1.766   6.378 -0.3507 -0.0560 -0.1444
  394MOL0     N53072   6.832   1.739   6.336  0.7863  0.6915  0.0614
  394MOL0     C53073   6.868   1.779   6.207  0.0513 -0.0478 -0.3549
  394MOL0     C53074   6.996   1.733   6.196  0.2336  0.6785 -0.8368
  394MOL0     C53075   7.083   1.752   6.077 -0.2746 -0.7428  0.1587
  394MOL0     C53076   7.205   1.837   6.110  0.0799  0.9652 -0.2592
  394MOL0     C53077   7.286   1.881   5.987  0.1900  0.3083 -0.0411
  394MOL0     C53078   7.360   1.768   5.915 -0.5439 -0.8906  0.3896
  394MOL0     O53079   7.458   1.821   5.825  0.0305 -0.6615 -0.3279
  394MOL0     C53080   7.520   1.727   5.751  0.2871 -0.0152 -0.6166
  394MOL0     C53081   7.622   1.649   5.808 -0.4331 -0.3758 -0.3895
  394MOL0     C53082   7.701   1.567   5.729  0.4364  0.8510 -0.5450
  394MOL0     C53083   7.677   1.558   5.586 -0.0959  0.2867  0.2639
  394MOL0     C53084   7.768   1.483   5.500  0.2864  0.4211  0.1077
  394MOL0     O53085   7.859   1.405   5.560  0.1556  0.1038 -0.1653
  394MOL0     C53086   7.970   1.348   5.488  0.6021 -0.5857 -0.2257
  394MOL0     C53087   7.969   1.286   5.364  0.0102  0.4364  0.1639
  394MOL0     C53088   8.089   1.227   5.307  0.5741  0.8165  1.3813
  394MOL0     C53089   8.213   1.225   5.377  0.3814 -0.6841 -0.6403
  394MOL0     O53090   8.343   1.187   5.336  1.0175 -0.5028 -0.1501
  394MOL0     C53091   8.349   1.117   5.213 -0.2841 -0.1154 -0.5514
  394MOL0     C53092   8.488   1.044   5.194  0.9081 -0.4308  0.1826
  394MOL0     C53093   8.607   1.123   5.225 -0.7481 -0.6052 -0.0753
  394MOL0     C53094   8.634   1.248   5.138 -0.0208 -0.4274 -0.0446
  394MOL0     C53095   8.695   1.198   5.011  0.1032 -0.0826 -0.0382
  394MOL0     C53096   8.624   1.260   4.891 -0.0717  0.0883  0.5171
  394MOL0     C53097   8.660   1.204   4.764  0.4652  0.0137 -0.2824
  394MOL0     C53098   8.716   1.302   4.665 -0.1172 -0.9513 -0.4079
  394MOL0    Cl53099   8.880   1.353   4.735  0.1288 -0.3622  0.6652
  394MOL0     C53100   8.206   1.286   5.507  0.4983 -0.9600  0.0065
  394MOL0     C53101   8.096   1.343   5.559  0.5167  0.4931  0.5236
  394MOL0     O53102   7.761   1.508   5.374  0.3537  0.2965 -0.0117
  394MOL0     C53103   7.572   1.636   5.539  0.7410 -0.5195  0.6911
  394MOL0     C53104   7.486   1.705   5.618  0.7208  0.1871 -0.4653
  394MOL0     N53105   7.016   1.659   6.317  0.2046 -0.2843  0.5527
  394MOL0     N53106   6.920   1.662   6.395 -0.0767  0.7783 -0.9813
  394MOL0     C53107   6.076   1.792   6.877 -0.3843  0.2765  0.2663
  394MOL0     C53108   5.959   1.716   6.900  0.3564 -0.4252  0.8420
  394MOL0     C53109   5.577   1.519   7.054  0.3630  0.3367 -0.3125
  394MOL0     C53110   5.505   1.575   7.158 -0.0130 -0.6777 -0.4993
  394MOL0     C53111   5.380   1.524   7.186  0.4821  0.1261 -1.3813
  394MOL0     C53112   5.321   1.414   7.122 -0.1582 -0.2603 -0.2530
  394MOL0     O53113   5.198   1.372   7.163  0.3772  0.3358  0.7175
  394MOL0     C53114   5.112   1.283   7.085 -0.8746  0.1765  0.7539
  394MOL0     C53115   4.963   1.319   7.095  0.1454  0.4294  1.3417
  394MOL0     C53116   4.913   1.330   7.236 -0.3344  0.6583 -0.5022
  394MOL0     C53117   4.771   1.370   7.247  0.5691  0.2983 -0.6399
  394MOL0     C53118   4.720   1.347   7.381  0.7892  1.3539 -0.6217
  394MOL0     C53119   4.654   1.311   7.481  0.3285  0.1952  0.0076
  394MOL0     C53120   5.398   1.354   7.017  0.6176 -0.9622 -0.1239
  394MOL0     C53121   5.519   1.407   6.979  0.0629 -0.1751 -0.5819
  394MOL0     C53122   5.584   1.364   6.850 -0.4753 -0.3230  0.4877
  394MOL0     H53123   5.772   1.948   7.048 -1.9047 -3.4064  0.3526
  394MOL0     H53124   5.967   2.086   7.003  0.8587  0.2089  1.8965
  394MOL0     H53125   6.210   2.192   6.899 -2.4614 -0.5233  0.4865
  394MOL0     H53126   6.188   2.112   7.057 -1.2657  0.0454 -1.0103
  394MOL0     H53127   6.420   2.012   7.036  0.4165  1.3436  0.8157
  394MOL0     H53128   6.419   2.195   7.041  0.1573  0.6297 -0.3634
  394MOL0     H53129   6.545   2.182   6.867  0.9393 -0.3828  0.2938
  394MOL0     H53130   6.402   2.161   6.770  3.2064  2.2201 -1.7448
  394MOL0     H53131   6.572   1.936   6.865 -1.9535 -0.1826  1.8273
  394MOL0     H53132   6.439   1.904   6.769  1.1335 -0.3268  1.9666
  394MOL0     H53133   6.530   2.080   6.600  0.6352 -0.1165 -1.2700
  394MOL0     H53134   6.683   2.050   6.694 -0.5727 -0.7180  1.6820
  394MOL0     H53135   6.606   1.796   6.624  1.3207  0.9022 -0.5322
  394MOL0     H53136   6.489   1.875   6.521  0.5945  0.5250 -0.4117
  394MOL0     H53137   6.793   1.904   6.507  0.8827  0.0699  0.4519
  394MOL0     H53138   6.677   1.985   6.393 -1.3042 -0.6324  0.5490
  394MOL0     H53139   6.657   1.680   6.434 -4.3035  0.3831 -1.6894
  394MOL0     H53140   6.616   1.780   6.302 -1.2517 -1.4052  0.4976
  394MOL0     H53141   6.806   1.830   6.134  0.0284 -1.8045 -1.6215
  394MOL0     H53142   7.125   1.658   6.040  0.5642  0.1236 -1.1875
  394MOL0     H53143   7.022   1.796   5.997 -1.6899  0.0118  1.5857
  394MOL0     H53144   7.169   1.922   6.170 -1.3416  0.4181 -0.3035
  394MOL0     H53145   7.275   1.773   6.166  0.7209 -0.3966 -2.5195
  394MOL0     H53146   7.357   1.956   6.024  1.6101 -0.1492 -1.7531
  394MOL0     H53147   7.216   1.935   5.922  0.6667 -0.0052 -0.8284
  394MOL0     H53148   7.287   1.709   5.858 -2.0103  0.9071  0.3282
  394MOL0     H53149   7.400   1.705   5.995  0.1057  1.1821  1.7737
  394MOL0     H53150   7.643   1.651   5.915 -0.3410  3.0179 -0.3782
  394MOL0     H53151   7.787   1.519   5.775 -1.0106  1.1721  2.7721
  394MOL0     H53152   7.871   1.288   5.317  1.0346  1.8191 -2.0195
  394MOL0     H53153   8.090   1.199   5.202 -0.9736  4.6075  0.1857
  394MOL0     H53154   8.278   1.034   5.220 -0.4935  0.1681  1.0484
  394MOL0     H53155   8.336   1.175   5.121 -0.8520 -0.8857 -0.9708
  394MOL0     H53156   8.487   0.956   5.260 -1.9962 -0.9135 -0.3945
  394MOL0     H53157   8.493   1.006   5.092 -1.2080 -0.5760  0.1035
  394MOL0     H53158   8.595   1.157   5.328 -0.0654 -2.1461  0.5439
  394MOL0     H53159   8.694   1.057   5.214 -1.5603 -1.7518  0.2451
  394MOL0     H53160   8.709   1.310   5.187 -0.3577  1.1228 -1.4049
  394MOL0     H53161   8.540   1.304   5.127  0.3347  0.3889  0.9543
  394MOL0     H53162   8.680   1.090   5.003  0.6174 -0.1623  0.0578
  394MOL0     H53163   8.803   1.211   5.004 -0.2643  3.0459 -4.4241
  394MOL0     H53164   8.516   1.256   4.904 -0.2384 -2.8098 -1.0186
  394MOL0     H53165   8.654   1.366   4.892 -1.7056  0.6044 -0.9304
  394MOL0     H53166   8.577   1.149   4.718  2.2007 -0.6762 -2.7676
  394MOL0     H53167   8.747   1.139   4.770 -0.2546 -0.9302  0.1153
  394MOL0     H53168   8.744   1.255   4.571 -0.6217 -1.3095 -0.3803
  394MOL0     H53169   8.652   1.388   4.644 -1.6103 -1.6013  1.2406
  394MOL0     H53170   8.298   1.300   5.564  1.7567  0.1851 -2.1390
  394MOL0     H53171   8.098   1.379   5.661 -2.2821  0.0278  0.8093
  394MOL0     H53172   7.560   1.647   5.432  0.9623  0.5879  0.7636
  394MOL0     H53173   7.405   1.759   5.569 -1.5646 -1.1612  1.6138
  394MOL0     H53174   6.158   1.737   6.831  1.5498  2.1162  1.3527
  394MOL0     H53175   5.958   1.613   6.867  0.4143 -0.1734  0.0465
  394MOL0     H53176   5.539   1.662   7.213  0.0538 -1.3846  0.6253
  394MOL0     H53177   5.332   1.571   7.270  2.1321  1.2236 -1.0211
  394MOL0     H53178   5.129   1.184   7.126 -3.4975  0.4451  2.7556
  394MOL0     H53179   5.143   1.287   6.980  0.2833 -1.5209  0.9950
  394MOL0     H53180   4.908   1.248   7.034  1.8755  0.5688 -0.4993
  394MOL0     H53181   4.957   1.413   7.039 -3.2676 -1.9327 -2.7837
  394MOL0     H53182   4.972   1.403   7.292 -1.4688  1.0754  0.1854
  394MOL0     H53183   4.921   1.226   7.269 -1.5134 -0.0691 -2.3310
  394MOL0     H53184   4.762   1.472   7.209 -2.4841 -0.4647 -2.3179
  394MOL0     H53185   4.711   1.313   7.175  0.1519  1.6537 -1.3983
  394MOL0     H53186   4.616   1.288   7.579  2.6127 -0.3923  0.8329
  394MOL0     H53187   5.354   1.267   6.968 -1.6519 -2.2741  3.8309
  394MOL0     H53188   5.680   1.317   6.871 -0.4151  0.3539  1.8898
  394MOL0     H53189   5.531   1.281   6.803  1.0058 -0.1284 -1.6136
  394MOL0     H53190   5.587   1.455   6.789 -0.0959 -0.2215  0.6570
  395MOL0     O53191  10.072   2.436   0.539  1.1417 -0.1527 -0.1741
  395MOL0     C53192  10.054   2.319   0.584  0.4746 -0.1539 -0.9114
  395MOL0     O53193  10.146   2.237   0.642 -0.2002 -0.9821 -0.1352
  395MOL0     C53194  10.276   2.280   0.656  0.4667 -0.2215  0.9543
  395MOL0     C53195  10.339   2.281   0.781  0.3598  0.0332  0.0703
  395MOL0     C53196  10.475   2.327   0.785 -0.4776  0.4986 -0.1094
  395MOL0     C53197  10.544   2.370   0.675 -0.5661  0.5276  1.0547
  395MOL0     O53198  10.676   2.401   0.671  0.1440 -0.2159 -0.2506
  395MOL0     C53199  10.762   2.383   0.781  0.3702  0.4809 -0.2584
  395MOL0     C53200  10.894   2.458   0.754  0.0525  0.0765 -0.1320
  395MOL0     C53201  10.995   2.458   0.870 -0.6588  0.8091  0.5431
  395MOL0     C53202  11.130   2.529   0.823  0.8093  0.7643  0.4685
  395MOL0     C53203  11.226   2.455   0.732 -0.8115  0.0290 -0.6177
  395MOL0     C53204  11.326   2.551   0.672 -0.1390  0.2945  0.0188
  395MOL0     C53205  11.436   2.485   0.600 -0.9841 -0.5074  0.3277
  395MOL0     C53206  11.383   2.394   0.486 -0.4428 -0.2066 -0.4224
  395MOL0     N53207  11.490   2.306   0.420 -0.2397 -0.3653 -0.5358
  395MOL0     C53208  11.512   2.302   0.281  0.1200  0.2440 -0.0471
  395MOL0     C53209  11.617   2.210   0.274 -0.4302 -0.8989  0.7433
  395MOL0     C53210  11.680   2.157   0.165 -0.5265 -0.0755 -0.3369
  395MOL0     C53211  11.589   2.069   0.084  0.3207  0.1290  0.1253
  395MOL0     C53212  11.657   1.954   0.010  0.1915  0.1050  0.5102
  395MOL0     C53213  11.544   1.864  -0.048 -0.6715 -0.2773 -0.5737
  395MOL0     O53214  11.490   1.942  -0.155 -0.0535 -0.4298 -0.3901
  395MOL0     C53215  11.362   1.919  -0.199 -0.4814 -0.4123 -0.0742
  395MOL0     C53216  11.304   2.014  -0.283  0.9618  0.0597 -0.4668
  395MOL0     C53217  11.174   1.995  -0.329  0.3610  0.9349  0.0079
  395MOL0     C53218  11.099   1.887  -0.293  0.0910  0.4793 -0.7720
  395MOL0     C53219  10.959   1.873  -0.333 -0.3571  0.2928 -0.3324
  395MOL0     O53220  10.887   1.983  -0.351  0.0388 -0.5912 -0.0628
  395MOL0     C53221  10.750   1.981  -0.379 -0.4621  0.0056 -0.5436
  395MOL0     C53222  10.696   2.077  -0.458  0.7160  0.2688 -0.3459
  395MOL0     C53223  10.558   2.093  -0.462 -0.9963  0.3284  0.1161
  395MOL0     C53224  10.475   2.017  -0.380 -0.9630  0.1061 -0.0477
  395MOL0     O53225  10.337   2.026  -0.380 -0.5073 -0.2357  0.3083
  395MOL0     C53226  10.289   2.127  -0.477  0.4411  0.4066  0.4939
  395MOL0     C53227  10.138   2.116  -0.491  0.5346 -0.4196 -0.0182
  395MOL0     C53228  10.058   2.132  -0.362  0.2117  0.5044  0.1126
  395MOL0     C53229   9.909   2.103  -0.379 -0.1795 -0.2360  0.0149
  395MOL0     C53230   9.853   2.085  -0.241  0.2668 -0.3336 -0.4125
  395MOL0     C53231   9.708   2.034  -0.242  0.8869  0.1250  0.3996
  395MOL0     C53232   9.632   2.085  -0.123  0.2973  0.5414  0.1821
  395MOL0     C53233   9.482   2.049  -0.119 -0.6403  0.0181  0.0178
  395MOL0    Cl53234   9.462   1.876  -0.123  0.0191  0.1226 -0.0635
  395MOL0     C53235  10.534   1.927  -0.290  0.8054  0.1030  1.1869
  395MOL0     C53236  10.674   1.903  -0.296  0.7185 -0.3276  0.0251
  395MOL0     O53237  10.919   1.764  -0.352 -0.2865  0.4281 -1.2184
  395MOL0     C53238  11.162   1.783  -0.219  0.5744 -0.2773  0.4293
  395MOL0     C53239  11.293   1.798  -0.170 -0.4482 -0.5403  0.3710
  395MOL0     N53240  11.653   2.171   0.401  0.0090 -0.1516  1.6221
  395MOL0     N53241  11.580   2.233   0.480  0.4416 -0.2206  0.2544
  395MOL0     C53242  10.481   2.374   0.552  0.1695  0.1520 -0.3146
  395MOL0     C53243  10.348   2.334   0.544 -0.1453  0.0386  0.0908
  395MOL0     C53244   9.903   2.294   0.601  0.1874 -0.4722  1.1052
  395MOL0     C53245   9.798   2.403   0.588 -0.0190 -0.6897 -0.0492
  395MOL0     C53246   9.658   2.385   0.600  0.0117 -0.1816  0.2965
  395MOL0     C53247   9.611   2.262   0.644  0.1624  0.4135 -1.4163
  395MOL0     O53248   9.478   2.238   0.681 -0.5932 -0.6038  0.0038
  395MOL0     C53249   9.404   2.351   0.726  0.1607 -0.7601  0.2748
  395MOL0     C53250   9.276   2.301   0.782  0.2275 -0.5805  0.4550
  395MOL0     C53251   9.281   2.226   0.913 -0.7160 -0.0120 -0.4371
  395MOL0     C53252   9.138   2.182   0.962 -0.7764  0.0410 -0.6941
  395MOL0     C53253   9.042   2.127   0.860 -0.4953  0.0393  0.7034
  395MOL0     C53254   8.977   2.095   0.768  0.1626  0.7040 -0.2458
  395MOL0     C53255   9.711   2.161   0.666  0.3170  0.7324  0.4728
  395MOL0     C53256   9.847   2.164   0.626  0.3500  0.2540 -0.8044
  395MOL0     C53257   9.921   2.041   0.658  0.1146 -0.8815  0.4579
  395MOL0     H53258  10.286   2.241   0.866 -1.3134  1.6059 -0.1562
  395MOL0     H53259  10.532   2.304   0.874 -1.4197 -0.0595  0.3669
  395MOL0     H53260  10.723   2.428   0.873 -0.1456  0.0594 -0.2683
  395MOL0     H53261  10.772   2.275   0.798 -1.5767  0.4037  0.6387
  395MOL0     H53262  10.865   2.561   0.731  1.0969  0.3742 -0.1408
  395MOL0     H53263  10.947   2.424   0.664  2.6895  1.4525  0.7910
  395MOL0     H53264  11.012   2.353   0.897 -2.2349  0.7981  1.5756
  395MOL0     H53265  10.951   2.507   0.957 -0.8618  3.0816 -0.7506
  395MOL0     H53266  11.103   2.621   0.770  1.4122  1.1803  0.8588
  395MOL0     H53267  11.189   2.562   0.909 -0.0794 -1.7564  2.1642
  395MOL0     H53268  11.291   2.382   0.781  0.0280  0.1674 -1.4911
  395MOL0     H53269  11.168   2.395   0.662 -0.2037 -1.8219  0.4016
  395MOL0     H53270  11.279   2.626   0.607  1.6857  1.2059 -0.3347
  395MOL0     H53271  11.366   2.624   0.743 -1.9286  0.8314  0.5358
  395MOL0     H53272  11.499   2.423   0.665  0.2333  0.5395  0.1945
  395MOL0     H53273  11.507   2.551   0.549  1.0712 -2.6321  0.2691
  395MOL0     H53274  11.313   2.322   0.530 -0.2267 -1.5776 -2.1836
  395MOL0     H53275  11.333   2.450   0.406 -1.6961 -2.6819 -1.4913
  395MOL0     H53276  11.462   2.351   0.198 -0.3168 -4.0851 -2.6380
  395MOL0     H53277  11.721   2.239   0.107  3.3109 -2.3238 -1.1113
  395MOL0     H53278  11.761   2.093   0.201 -0.8938  0.2797  1.2331
  395MOL0     H53279  11.513   2.026   0.148  2.1718 -2.9182  0.4602
  395MOL0     H53280  11.538   2.128   0.006  2.7925  1.9809 -0.2335
  395MOL0     H53281  11.717   1.904   0.087 -0.1302 -0.3144  0.4936
  395MOL0     H53282  11.720   1.987  -0.073  0.3017  0.2934  0.6672
  395MOL0     H53283  11.471   1.827   0.025 -0.2788 -4.0253 -1.8662
  395MOL0     H53284  11.589   1.774  -0.090  0.2788  0.5192 -1.3147
  395MOL0     H53285  11.356   2.101  -0.323 -1.4804  0.8865 -2.0481
  395MOL0     H53286  11.134   2.075  -0.391 -0.1932 -0.4377 -1.4798
  395MOL0     H53287  10.757   2.141  -0.521 -0.0782  0.9656 -0.4232
  395MOL0     H53288  10.525   2.165  -0.536  2.8134 -0.2635 -2.4219
  395MOL0     H53289  10.311   2.223  -0.430  0.7473  0.0570  1.0757
  395MOL0     H53290  10.336   2.126  -0.576  0.6643 -0.2670  0.5986
  395MOL0     H53291  10.118   2.193  -0.566  1.7969 -2.0756 -2.1746
  395MOL0     H53292  10.109   2.020  -0.533 -0.6616 -0.7916  1.5353
  395MOL0     H53293  10.100   2.060  -0.291 -0.1718 -0.6647 -0.8280
  395MOL0     H53294  10.071   2.234  -0.323  0.9701 -0.2690  1.9955
  395MOL0     H53295   9.904   2.008  -0.433  1.9828  0.1255 -0.9676
  395MOL0     H53296   9.854   2.174  -0.441  0.4355  0.1998 -0.0463
  395MOL0     H53297   9.861   2.176  -0.181  0.5360 -0.9411  0.4909
  395MOL0     H53298   9.915   2.005  -0.198  1.7091 -0.6949 -2.9568
  395MOL0     H53299   9.658   2.080  -0.327 -0.0098  1.9724  1.8564
  395MOL0     H53300   9.700   1.926  -0.259  2.0067  0.2499 -1.1163
  395MOL0     H53301   9.635   2.194  -0.107 -0.8598  0.4718  1.0572
  395MOL0     H53302   9.685   2.041  -0.038 -1.7222 -0.5988  0.9299
  395MOL0     H53303   9.444   2.081  -0.021  0.9660  0.3583  0.5470
  395MOL0     H53304   9.440   2.110  -0.200  1.2259  0.3881 -0.7042
  395MOL0     H53305  10.475   1.864  -0.224 -3.0207 -1.2443 -2.9952
  395MOL0     H53306  10.716   1.827  -0.231 -1.1863 -1.1939  0.3078
  395MOL0     H53307  11.118   1.685  -0.207  1.3639 -0.4054  2.7522
  395MOL0     H53308  11.336   1.724  -0.104 -2.3580  1.3666  4.0164
  395MOL0     H53309  10.542   2.414   0.471  0.1355 -0.7989 -0.8267
  395MOL0     H53310  10.298   2.347   0.449 -1.6266 -0.6707  0.7399
  395MOL0     H53311   9.834   2.503   0.564  2.5529 -1.0820  1.7373
  395MOL0     H53312   9.593   2.470   0.585  0.7203  0.6090  1.5345
  395MOL0     H53313   9.394   2.428   0.649  0.3751 -1.8099 -0.8374
  395MOL0     H53314   9.468   2.407   0.795  0.7377  1.2198 -1.7253
  395MOL0     H53315   9.228   2.241   0.704 -0.3703  0.3031  0.1243
  395MOL0     H53316   9.211   2.388   0.796  0.9881 -0.2868  2.5655
  395MOL0     H53317   9.329   2.283   0.993  0.8355 -0.0369 -1.3204
  395MOL0     H53318   9.352   2.145   0.894 -2.4752 -2.0648  1.1401
  395MOL0     H53319   9.146   2.114   1.048 -4.8641  1.5144  1.1109
  395MOL0     H53320   9.094   2.269   1.011  0.5029  0.3002  0.0482
  395MOL0     H53321   8.913   2.059   0.690  2.0719 -0.2066 -1.4620
  395MOL0     H53322   9.660   2.070   0.694  0.4411 -0.4045 -2.5898
  395MOL0     H53323   9.987   2.052   0.745 -0.4176  1.8754  0.5889
  395MOL0     H53324   9.851   1.959   0.675  1.2602 -1.5007  2.4768
  395MOL0     H53325   9.988   2.008   0.577 -0.1445  1.8904 -1.0213
  396MOL0     O53326   1.011   2.293   7.354 -0.3946  1.1315  0.4546
  396MOL0     C53327   1.020   2.238   7.458  0.0619 -0.0404 -0.0607
  396MOL0     O53328   1.113   2.264   7.560  0.0557 -0.1629  0.6480
  396MOL0     C53329   1.203   2.366   7.535 -1.2533  0.1774 -1.1181
  396MOL0     C53330   1.334   2.334   7.582  0.3660  0.9814  0.2041
  396MOL0     C53331   1.440   2.422   7.557  0.3464  0.0041 -0.5619
  396MOL0     C53332   1.422   2.548   7.496  0.3438 -0.3415 -0.2831
  396MOL0     O53333   1.525   2.638   7.471 -0.0833 -0.5530  0.9305
  396MOL0     C53334   1.659   2.592   7.492 -0.2495 -0.5155 -0.0861
  396MOL0     C53335   1.757   2.671   7.407 -0.5617  0.0998 -0.3690
  396MOL0     C53336   1.794   2.805   7.469  0.3363 -0.8146  0.6435
  396MOL0     C53337   1.929   2.852   7.419  0.0777 -0.8985  0.6573
  396MOL0     C53338   1.974   2.994   7.454  0.3292 -0.0516  0.6165
  396MOL0     C53339   1.928   3.098   7.346 -0.0161 -0.5594  0.1620
  396MOL0     C53340   2.053   3.143   7.263  0.3544  0.9567 -1.3635
  396MOL0     C53341   2.102   3.049   7.150 -0.1612 -0.4905  0.3291
  396MOL0     N53342   2.140   3.131   7.034  0.0321 -0.2218 -1.1886
  396MOL0     C53343   2.053   3.211   6.964 -0.7716 -0.8881  0.0533
  396MOL0     C53344   2.138   3.263   6.872  0.5681  0.3723  0.0394
  396MOL0     C53345   2.091   3.366   6.774 -0.5367  0.3457 -0.0470
  396MOL0     C53346   2.083   3.317   6.626 -0.2432 -0.1247  0.0147
  396MOL0     C53347   2.220   3.289   6.557 -0.3519  0.1188 -0.5109
  396MOL0     C53348   2.320   3.410   6.543  0.2507 -0.3729 -0.8765
  396MOL0     O53349   2.343   3.444   6.404  0.2965  0.4315 -0.0743
  396MOL0     C53350   2.475   3.461   6.363  0.1484 -0.6110  0.3927
  396MOL0     C53351   2.576   3.370   6.389 -0.5220  0.7446  0.1657
  396MOL0     C53352   2.707   3.404   6.346 -0.0796  0.1161 -0.0314
  396MOL0     C53353   2.741   3.523   6.283  0.1472  0.7993 -0.3243
  396MOL0     C53354   2.880   3.550   6.237  0.8886 -0.1907  0.2551
  396MOL0     O53355   2.982   3.481   6.295 -0.2421 -0.4745 -0.3134
  396MOL0     C53356   3.103   3.463   6.238  0.3828  0.4323 -0.8090
  396MOL0     C53357   3.118   3.460   6.095 -0.9501  0.2248  0.8378
  396MOL0     C53358   3.238   3.419   6.037 -0.8252  0.1305  0.4686
  396MOL0     C53359   3.342   3.375   6.119 -0.1439  0.7396 -0.8784
  396MOL0     O53360   3.468   3.347   6.064 -0.8466 -0.3915 -1.2061
  396MOL0     C53361   3.592   3.342   6.152 -0.0827 -0.1926  0.9348
  396MOL0     C53362   3.715   3.306   6.073 -0.1275 -1.0779 -0.2114
  396MOL0     C53363   3.839   3.329   6.161  0.3376  0.6673  0.7057
  396MOL0     C53364   3.963   3.258   6.111 -0.7379 -0.4340 -0.2600
  396MOL0     C53365   4.077   3.298   6.197 -0.4771 -0.1598  0.7620
  396MOL0     C53366   4.206   3.217   6.165 -0.0450  0.1922 -0.1226
  396MOL0     C53367   4.321   3.291   6.251  0.6271 -0.3015  0.4798
  396MOL0     C53368   4.460   3.231   6.235 -0.3954  0.2873  0.5255
  396MOL0    Cl53369   4.521   3.179   6.393 -0.0951 -0.0625  0.1250
  396MOL0     C53370   3.329   3.370   6.264 -0.2077 -1.0186  0.0065
  396MOL0     C53371   3.214   3.419   6.320 -0.2088  0.5545 -0.3373
  396MOL0     O53372   2.893   3.624   6.144  0.5859 -0.4531  0.3741
  396MOL0     C53373   2.635   3.610   6.250 -0.1843  0.1911  0.1006
  396MOL0     C53374   2.506   3.580   6.292 -0.9181 -0.2633  0.5785
  396MOL0     N53375   2.271   3.231   6.898  0.7289  0.1780 -0.0728
  396MOL0     N53376   2.269   3.152   7.001  0.6228 -0.6588  0.4652
  396MOL0     C53377   1.291   2.578   7.464  0.1397  0.0777 -0.6227
  396MOL0     C53378   1.186   2.495   7.482 -1.1639 -0.4217  1.0821
  396MOL0     C53379   0.929   2.124   7.491  0.7573 -0.3119 -0.1007
  396MOL0     C53380   0.932   2.065   7.628  0.3994 -1.0035 -0.0740
  396MOL0     C53381   0.849   1.964   7.657  0.7340  0.2568 -0.0011
  396MOL0     C53382   0.756   1.913   7.560 -0.3875  0.0864  1.3093
  396MOL0     O53383   0.652   1.829   7.598 -0.2800  0.7512  0.5287
  396MOL0     C53384   0.695   1.709   7.657 -1.3878 -0.1410  0.1804
  396MOL0     C53385   0.667   1.588   7.568  0.2423 -0.4617  0.5918
  396MOL0     C53386   0.516   1.586   7.543 -0.0444  0.2999  0.1069
  396MOL0     C53387   0.478   1.490   7.425 -1.0010 -0.3939  0.8090
  396MOL0     C53388   0.343   1.501   7.389 -0.6080 -0.3303  0.2685
  396MOL0     C53389   0.225   1.502   7.388  0.7986 -0.2013  0.3712
  396MOL0     C53390   0.742   1.968   7.430 -0.0964 -0.6303  0.7929
  396MOL0     C53391   0.833   2.072   7.399 -0.4756  1.1347  0.2052
  396MOL0     C53392   0.814   2.129   7.262  0.0338 -0.0388 -0.4715
  396MOL0     H53393   1.342   2.247   7.647  0.1668 -0.6426 -1.8090
  396MOL0     H53394   1.530   2.405   7.615 -1.0722 -2.1569  1.2049
  396MOL0     H53395   1.674   2.589   7.601  0.5733 -0.1644 -0.1823
  396MOL0     H53396   1.673   2.489   7.458  2.3344 -0.5282  0.7523
  396MOL0     H53397   1.727   2.675   7.302  3.6557 -0.4753 -1.7942
  396MOL0     H53398   1.853   2.619   7.403  0.3067  1.4815  1.2143
  396MOL0     H53399   1.803   2.803   7.578  5.6624 -0.4243  0.4752
  396MOL0     H53400   1.719   2.880   7.443 -0.6141 -1.8442  0.3692
  396MOL0     H53401   2.002   2.786   7.467 -0.5185 -0.5789  2.0517
  396MOL0     H53402   1.927   2.831   7.311 -2.7802 -1.2518  0.7147
  396MOL0     H53403   1.937   3.015   7.555  0.1077 -2.6872  1.1582
  396MOL0     H53404   2.082   3.003   7.470  0.4253 -0.7574  0.3916
  396MOL0     H53405   1.852   3.056   7.279  0.0805 -1.5169  0.6309
  396MOL0     H53406   1.873   3.176   7.399 -0.6644 -2.6813  2.8175
  396MOL0     H53407   2.136   3.158   7.334  1.8334 -1.4617 -2.4813
  396MOL0     H53408   2.021   3.241   7.226  0.3083  2.2987  1.8200
  396MOL0     H53409   2.177   2.984   7.196  0.1375 -1.7802 -1.8482
  396MOL0     H53410   2.023   2.980   7.119 -0.0062 -0.1033 -0.9593
  396MOL0     H53411   1.946   3.228   6.972 -0.7684 -1.1768  0.7996
  396MOL0     H53412   1.992   3.402   6.803  0.7126  4.2077 -0.1070
  396MOL0     H53413   2.148   3.459   6.782  1.4681 -0.8818  0.7750
  396MOL0     H53414   2.015   3.231   6.625  1.6865 -1.7520  0.9496
  396MOL0     H53415   2.035   3.397   6.570  2.4260  0.8795 -1.0007
  396MOL0     H53416   2.207   3.240   6.461 -0.7915 -0.2578 -0.2630
  396MOL0     H53417   2.268   3.209   6.614 -2.7632  0.5268  2.3749
  396MOL0     H53418   2.407   3.386   6.605 -0.7752 -1.8933  0.0585
  396MOL0     H53419   2.281   3.502   6.587  2.4745  0.6577 -0.8959
  396MOL0     H53420   2.566   3.272   6.435 -0.4373 -0.1316 -1.5879
  396MOL0     H53421   2.786   3.336   6.376  0.6535  1.0402  0.1808
  396MOL0     H53422   3.037   3.482   6.025 -1.8916 -2.6718  0.8740
  396MOL0     H53423   3.259   3.415   5.930 -3.1224 -1.5959  0.0021
  396MOL0     H53424   3.618   3.445   6.179  2.7354  0.0267 -2.0892
  396MOL0     H53425   3.578   3.260   6.224  2.2865 -2.1236 -0.6643
  396MOL0     H53426   3.698   3.204   6.039  3.6938 -1.5629 -1.0985
  396MOL0     H53427   3.727   3.368   5.984 -0.5247  1.0377  1.1181
  396MOL0     H53428   3.847   3.438   6.170  0.5291  1.0314 -2.5674
  396MOL0     H53429   3.827   3.285   6.260  1.0147 -0.6131  0.2480
  396MOL0     H53430   3.990   3.265   6.005 -1.2430  1.0757 -0.3115
  396MOL0     H53431   3.956   3.151   6.133 -0.0046 -1.4364 -4.1599
  396MOL0     H53432   4.048   3.297   6.302 -3.0622  1.3038  0.1534
  396MOL0     H53433   4.102   3.401   6.169  2.1287 -1.0439 -0.5478
  396MOL0     H53434   4.204   3.111   6.192  0.3948  0.1990 -0.0608
  396MOL0     H53435   4.238   3.218   6.061  1.4379  0.0998  0.3150
  396MOL0     H53436   4.275   3.280   6.349  0.8345  0.8617  0.7319
  396MOL0     H53437   4.329   3.398   6.227  0.7156 -0.4868 -0.3570
  396MOL0     H53438   4.463   3.155   6.157 -0.3858  1.0213 -0.2088
  396MOL0     H53439   4.531   3.306   6.197  1.1937 -1.1167  0.6204
  396MOL0     H53440   3.409   3.333   6.327 -1.0310 -2.3986  0.2865
  396MOL0     H53441   3.219   3.432   6.427 -1.3762  0.7504 -0.2890
  396MOL0     H53442   2.657   3.692   6.182  0.7342 -1.1165 -1.2311
  396MOL0     H53443   2.433   3.659   6.279  0.2208  0.6931 -0.2875
  396MOL0     H53444   1.275   2.676   7.420 -3.7547 -0.1640 -0.1010
  396MOL0     H53445   1.085   2.526   7.457  0.2270  2.9970 -0.8762
  396MOL0     H53446   1.003   2.101   7.701  0.5949  1.7390 -1.5055
  396MOL0     H53447   0.851   1.922   7.757 -0.9503  1.8375  0.7560
  396MOL0     H53448   0.631   1.709   7.746 -2.0830 -0.4231 -0.3208
  396MOL0     H53449   0.801   1.713   7.684 -1.1151  1.3508 -0.9848
  396MOL0     H53450   0.684   1.488   7.609  2.5543 -0.2116  0.3658
  396MOL0     H53451   0.720   1.600   7.474 -2.7009 -1.1559 -1.3051
  396MOL0     H53452   0.480   1.689   7.545  2.3584  1.2267  2.5394
  396MOL0     H53453   0.457   1.549   7.628  0.4403 -1.7006 -0.3769
  396MOL0     H53454   0.524   1.532   7.336 -0.6540 -1.1516  0.6261
  396MOL0     H53455   0.528   1.393   7.435  3.2141  1.6793  1.8520
  396MOL0     H53456   0.119   1.511   7.398  0.7611 -2.1146  2.5958
  396MOL0     H53457   0.665   1.940   7.359 -0.5180 -3.2473  2.1285
  396MOL0     H53458   0.905   2.114   7.203 -1.1562  0.7838 -2.5966
  396MOL0     H53459   0.736   2.065   7.221  1.3142 -2.6031  0.7911
  396MOL0     H53460   0.786   2.234   7.269  0.6215  0.0492  1.1646
  397MOL0     O53461   1.426  10.806   7.627 -0.1239 -0.0439  0.4236
  397MOL0     C53462   1.328  10.867   7.577 -0.5278 -0.2099  0.1392
  397MOL0     O53463   1.313  10.894   7.448  0.2919  0.1996  0.6416
  397MOL0     C53464   1.396  10.840   7.357 -0.4663 -0.1655 -0.0639
  397MOL0     C53465   1.438  10.924   7.257  0.3236  0.1377 -0.2760
  397MOL0     C53466   1.510  10.884   7.152  0.7787 -0.7500  0.1455
  397MOL0     C53467   1.548  10.749   7.135 -0.5755 -0.2707  0.1039
  397MOL0     O53468   1.625  10.695   7.028 -0.5111  0.5060 -0.2231
  397MOL0     C53469   1.692  10.565   7.041  1.1078 -0.0118 -0.5216
  397MOL0     C53470   1.823  10.581   6.974 -0.3001 -0.2689  1.0225
  397MOL0     C53471   1.809  10.645   6.836  0.4997 -0.1227 -0.8464
  397MOL0     C53472   1.950  10.656   6.778 -0.2403  0.3828 -0.4284
  397MOL0     C53473   1.948  10.736   6.648  0.1996  0.6164 -1.6290
  397MOL0     C53474   2.091  10.750   6.597  0.4251 -0.3112  0.1945
  397MOL0     C53475   2.100  10.837   6.466  0.6534  0.3550 -0.2830
  397MOL0     C53476   2.237  10.835   6.395  0.5621 -0.1691 -1.2359
  397MOL0     N53477   2.218  10.940   6.291 -0.4740 -0.0858 -0.6294
  397MOL0     C53478   2.309  11.039   6.257  0.3497 -0.1508 -0.3562
  397MOL0     C53479   2.283  11.080   6.134  0.3535  0.3167  0.2933
  397MOL0     C53480   2.349  11.187   6.052  0.6254  0.2064 -0.0334
  397MOL0     C53481   2.342  11.324   6.133  0.2098  0.3293  0.7543
  397MOL0     C53482   2.385  11.426   6.022 -0.2521  0.0846 -0.1364
  397MOL0     C53483   2.397  11.569   6.088 -0.1841  0.7496  0.4585
  397MOL0     O53484   2.517  11.569   6.174  0.5914  0.0626  0.1406
  397MOL0     C53485   2.638  11.588   6.111  0.8025  0.1932  0.4475
  397MOL0     C53486   2.663  11.594   5.975  0.5248 -0.3498 -0.6744
  397MOL0     C53487   2.797  11.570   5.931 -0.1924  0.0062 -0.2280
  397MOL0     C53488   2.907  11.573   6.027 -0.5776 -0.1147 -0.0030
  397MOL0     C53489   3.044  11.573   5.983  0.1143 -0.6697 -0.3631
  397MOL0     O53490   3.139  11.629   6.074  0.2981  0.5334 -0.5165
  397MOL0     C53491   3.268  11.615   6.040  0.3277 -0.3735 -0.2513
  397MOL0     C53492   3.332  11.494   6.047  0.3973  0.4054  0.4025
  397MOL0     C53493   3.470  11.485   6.007 -0.3490  0.1637 -0.9313
  397MOL0     C53494   3.550  11.593   5.984 -0.4988 -0.3191 -0.2225
  397MOL0     O53495   3.681  11.572   5.950  0.3886  0.1251 -0.3819
  397MOL0     C53496   3.779  11.671   5.977  0.1063  0.0242 -0.9510
  397MOL0     C53497   3.814  11.695   6.124  0.5513 -0.4165  0.1228
  397MOL0     C53498   3.913  11.810   6.131  0.5535 -0.1285 -0.2191
  397MOL0     C53499   3.966  11.824   6.275  0.7390  0.4555 -0.3566
  397MOL0     C53500   4.031  11.962   6.289 -0.1378  0.2507 -0.6426
  397MOL0     C53501   4.058  12.013   6.428  0.6297  0.2624  0.2855
  397MOL0     C53502   4.161  11.924   6.497 -0.0209  0.7112 -0.4866
  397MOL0     C53503   4.183  12.000   6.628  0.1806 -1.1126  0.6019
  397MOL0    Cl53504   4.258  11.896   6.756 -0.0556  0.2074 -0.2725
  397MOL0     C53505   3.487  11.719   5.994 -0.8147 -0.1875 -0.1605
  397MOL0     C53506   3.350  11.727   6.017 -0.2994  0.0907 -0.9792
  397MOL0     O53507   3.066  11.505   5.878  0.0854 -0.5214 -0.7282
  397MOL0     C53508   2.871  11.582   6.162 -0.4346  0.5132 -0.5502
  397MOL0     C53509   2.739  11.586   6.203 -0.3432 -0.1371 -0.2351
  397MOL0     N53510   2.178  10.996   6.084  0.5369  0.6115  0.2395
  397MOL0     N53511   2.155  10.908   6.178  0.3347 -0.6295  0.7761
  397MOL0     C53512   1.495  10.664   7.231 -0.3688  1.0134  1.0980
  397MOL0     C53513   1.427  10.706   7.339  0.0621  0.2285  0.5400
  397MOL0     C53514   1.225  10.913   7.667 -0.0883 -0.4925 -0.3027
  397MOL0     C53515   1.187  11.045   7.641 -0.7217  0.1693  0.8054
  397MOL0     C53516   1.110  11.110   7.737  0.6981  0.3140  0.2877
  397MOL0     C53517   1.047  11.035   7.835  0.2762  0.1315 -0.0664
  397MOL0     O53518   0.971  11.105   7.924  0.6298  0.3919 -0.2064
  397MOL0     C53519   0.948  11.057   8.058  0.6410 -0.5356  0.4727
  397MOL0     C53520   1.076  11.038   8.140  1.2731 -0.2606  0.7118
  397MOL0     C53521   1.047  10.966   8.278  0.5533  0.1187 -0.6822
  397MOL0     C53522   1.171  10.967   8.363 -0.4649  0.0032 -0.9264
  397MOL0     C53523   1.255  10.861   8.307 -0.0909 -1.0547  0.1727
  397MOL0     C53524   1.327  10.774   8.252  0.7651 -0.3885 -0.8260
  397MOL0     C53525   1.070  10.895   7.846  0.8097  0.1238 -0.0595
  397MOL0     C53526   1.158  10.838   7.766 -1.1074  0.4841  1.3550
  397MOL0     C53527   1.189  10.691   7.780  0.0242  0.3309  0.2315
  397MOL0     H53528   1.426  11.031   7.272  2.1605  0.0945  2.1608
  397MOL0     H53529   1.547  10.965   7.089 -1.1321  0.7075  0.8029
  397MOL0     H53530   1.719  10.541   7.145  1.9065  4.2594  0.4446
  397MOL0     H53531   1.622  10.494   6.997 -1.1438  2.0200 -0.3933
  397MOL0     H53532   1.878  10.486   6.971 -0.4450 -0.5114  3.7241
  397MOL0     H53533   1.877  10.658   7.030  0.0214  2.1449 -2.2703
  397MOL0     H53534   1.774  10.747   6.852  0.5730 -0.4003  1.4260
  397MOL0     H53535   1.745  10.582   6.774  3.9064 -7.2463  1.8311
  397MOL0     H53536   2.006  10.716   6.851  3.7915 -1.0772 -1.9953
  397MOL0     H53537   1.994  10.556   6.765  0.4675  0.6133  0.0901
  397MOL0     H53538   1.883  10.694   6.571  0.5952  1.2997 -2.3571
  397MOL0     H53539   1.903  10.835   6.662 -0.2302  0.3516 -1.0826
  397MOL0     H53540   2.157  10.802   6.667  0.5729  1.2475 -1.0381
  397MOL0     H53541   2.138  10.654   6.577  1.0541  0.1097 -0.3952
  397MOL0     H53542   2.058  10.933   6.498 -0.2570 -1.1016  3.4037
  397MOL0     H53543   2.022  10.789   6.404  0.3642 -1.8353  1.6358
  397MOL0     H53544   2.321  10.863   6.460  0.8543 -1.7608 -0.8887
  397MOL0     H53545   2.253  10.738   6.348  2.0849 -1.1719  1.1774
  397MOL0     H53546   2.387  11.074   6.324  0.6536 -0.6858 -0.4255
  397MOL0     H53547   2.455  11.175   6.025  0.5552 -2.1740  0.5559
  397MOL0     H53548   2.296  11.196   5.957 -1.5820  0.1695  1.1406
  397MOL0     H53549   2.243  11.335   6.177  0.3521 -0.0831  1.1913
  397MOL0     H53550   2.411  11.330   6.217  0.9552  1.0384  0.1057
  397MOL0     H53551   2.310  11.429   5.942 -0.7161  0.2757  0.2990
  397MOL0     H53552   2.480  11.401   5.975  1.5043 -0.3190  3.3064
  397MOL0     H53553   2.312  11.601   6.150 -1.6192 -1.3147 -0.3020
  397MOL0     H53554   2.411  11.639   6.005  0.9123 -0.4906 -0.4373
  397MOL0     H53555   2.579  11.597   5.906 -0.9931 -2.1830  0.9716
  397MOL0     H53556   2.805  11.583   5.823 -0.9477  1.3947 -0.1387
  397MOL0     H53557   3.275  11.403   6.063  0.4764 -0.0227 -1.5613
  397MOL0     H53558   3.506  11.383   6.012  1.6121  0.8480  2.2225
  397MOL0     H53559   3.867  11.631   5.925 -0.1705 -3.0494  0.6890
  397MOL0     H53560   3.772  11.769   5.930  3.7075  0.3994 -0.9725
  397MOL0     H53561   3.720  11.733   6.164  1.9239  3.0051  0.4042
  397MOL0     H53562   3.849  11.600   6.166  2.8520 -0.9768 -2.6873
  397MOL0     H53563   3.992  11.803   6.055  0.8538 -0.6797  0.1403
  397MOL0     H53564   3.861  11.903   6.109 -1.1149 -0.6261  1.4021
  397MOL0     H53565   4.042  11.748   6.293 -0.9801 -1.2032  0.1833
  397MOL0     H53566   3.879  11.806   6.339  0.2338  3.4730 -0.0541
  397MOL0     H53567   3.973  12.047   6.251 -0.1847  0.5712  0.1267
  397MOL0     H53568   4.119  11.955   6.223 -1.0358 -0.7156 -1.7795
  397MOL0     H53569   4.120  12.103   6.421  0.9517  0.0545  0.4414
  397MOL0     H53570   3.967  12.030   6.485  2.0641 -1.4450  3.3006
  397MOL0     H53571   4.253  11.908   6.442  0.4753 -2.1318  0.9388
  397MOL0     H53572   4.103  11.832   6.510 -3.7222  2.9075  0.0133
  397MOL0     H53573   4.240  12.091   6.606 -1.8338  1.2086  4.0888
  397MOL0     H53574   4.088  12.034   6.670 -0.5290 -0.5855 -1.3103
  397MOL0     H53575   3.537  11.813   5.971 -2.9296  0.6774 -1.4744
  397MOL0     H53576   3.311  11.827   6.005  1.2642  0.9370  0.4996
  397MOL0     H53577   2.950  11.592   6.236 -1.1879  0.4916  0.2740
  397MOL0     H53578   2.706  11.599   6.306 -2.5245 -0.7731 -0.7965
  397MOL0     H53579   1.524  10.560   7.234 -0.7606  0.7760 -1.4475
  397MOL0     H53580   1.382  10.634   7.407 -0.8145  0.7968  0.5893
  397MOL0     H53581   1.223  11.107   7.559 -3.3028  3.1265  1.7494
  397MOL0     H53582   1.093  11.216   7.754  3.3703  0.6930  1.0000
  397MOL0     H53583   0.905  10.957   8.054  1.3694 -0.8338 -1.4536
  397MOL0     H53584   0.881  11.127   8.108  0.6743 -0.4234  0.3599
  397MOL0     H53585   1.115  11.137   8.166 -3.1620  2.1472 -0.7868
  397MOL0     H53586   1.151  10.984   8.081  1.4250  0.0618  0.6039
  397MOL0     H53587   1.003  10.869   8.256  2.4857 -0.8299 -0.5823
  397MOL0     H53588   0.967  11.016   8.334  0.4647 -0.0629 -0.6456
  397MOL0     H53589   1.233  11.058   8.364  0.9504 -0.9242  0.4741
  397MOL0     H53590   1.149  10.947   8.468  2.2550  1.3210  0.0120
  397MOL0     H53591   1.390  10.695   8.216  0.5400 -0.2364 -1.5827
  397MOL0     H53592   1.006  10.836   7.910  0.5828  0.6240  0.1793
  397MOL0     H53593   1.246  10.675   7.872 -0.8877  0.1536  0.7775
  397MOL0     H53594   1.102  10.625   7.777 -0.9025  1.1352  4.3572
  397MOL0     H53595   1.253  10.651   7.700 -1.5372 -2.2963  0.1575
  398MOL0     O53596   7.344   9.187   3.736  0.2508 -0.1992  0.4594
  398MOL0     C53597   7.314   9.071   3.726 -0.7099  0.3540 -0.8547
  398MOL0     O53598   7.395   8.977   3.766  0.3105 -0.1149  1.0845
  398MOL0     C53599   7.508   9.007   3.840  0.1966 -0.1336  0.3691
  398MOL0     C53600   7.530   8.913   3.940  0.3659  0.4175 -0.5997
  398MOL0     C53601   7.645   8.923   4.028 -0.3592 -0.5318 -0.1045
  398MOL0     C53602   7.734   9.029   4.001  0.5818  0.4974 -0.6964
  398MOL0     O53603   7.847   9.036   4.072  0.3545  0.1371 -0.9450
  398MOL0     C53604   7.844   9.141   4.172 -0.0799 -0.0375  0.5788
  398MOL0     C53605   7.975   9.219   4.159 -0.5467  0.1881 -0.5245
  398MOL0     C53606   7.982   9.342   4.242  0.1152 -0.4711 -0.9704
  398MOL0     C53607   7.970   9.308   4.396  0.4960 -0.6792  0.4386
  398MOL0     C53608   8.049   9.411   4.477  0.1346  0.4396 -0.4065
  398MOL0     C53609   8.193   9.395   4.440  0.4325  0.6506  1.1682
  398MOL0     C53610   8.282   9.449   4.552 -0.4413 -0.1791 -0.4085
  398MOL0     C53611   8.361   9.578   4.508  1.2887  0.8818  0.0112
  398MOL0     N53612   8.449   9.624   4.615 -0.6483 -0.4239 -0.1616
  398MOL0     C53613   8.518   9.535   4.707  0.0119 -0.7393  0.6901
  398MOL0     C53614   8.534   9.616   4.816 -0.6002 -0.7091 -0.2858
  398MOL0     C53615   8.601   9.575   4.935 -0.8299  0.0024 -0.8153
  398MOL0     C53616   8.727   9.662   4.945  0.1979  0.5108 -0.2996
  398MOL0     C53617   8.819   9.597   5.046  0.1898  0.0399 -0.3922
  398MOL0     C53618   8.919   9.702   5.100 -0.7460 -0.6002  0.3074
  398MOL0     O53619   9.026   9.628   5.161  0.5528  0.4823  0.5817
  398MOL0     C53620   9.152   9.662   5.156 -0.0946  0.8366  0.0770
  398MOL0     C53621   9.193   9.793   5.133  1.0284 -0.0818 -0.8355
  398MOL0     C53622   9.324   9.827   5.138  0.2880 -0.3527 -0.0658
  398MOL0     C53623   9.423   9.729   5.143  1.2193 -0.4350  0.2553
  398MOL0     C53624   9.570   9.769   5.115  0.0836 -0.7269  0.2587
  398MOL0     O53625   9.586   9.915   5.116  0.3823 -0.3060  0.5693
  398MOL0     C53626   9.704   9.979   5.097  0.0088  0.3734 -1.7620
  398MOL0     C53627   9.794   9.976   5.207 -0.6061 -0.3523 -0.1637
  398MOL0     C53628   9.922  10.017   5.194  0.0946 -0.3768  0.5505
  398MOL0     C53629   9.965  10.073   5.075  0.3733 -0.4535  0.3508
  398MOL0     O53630  10.087  10.121   5.050 -0.5323 -0.4090 -0.3091
  398MOL0     C53631  10.178  10.144   5.167  0.0927  0.0122 -0.3366
  398MOL0     C53632  10.313  10.212   5.125  0.0314 -0.3937 -0.8937
  398MOL0     C53633  10.402  10.224   5.254  0.0739 -0.8883 -0.3138
  398MOL0     C53634  10.538  10.280   5.214  0.3658 -0.0058 -0.7121
  398MOL0     C53635  10.626  10.282   5.339 -0.2436  0.0187 -0.1672
  398MOL0     C53636  10.777  10.322   5.312 -0.6382  0.2732 -0.5353
  398MOL0     C53637  10.859  10.322   5.451  0.6709 -0.2512  0.3964
  398MOL0     C53638  11.007  10.287   5.424 -0.0747  0.2377 -0.6618
  398MOL0    Cl53639  11.095  10.444   5.403 -0.3479  0.0516  0.0710
  398MOL0     C53640   9.877  10.078   4.966 -0.3880 -0.4072 -0.8613
  398MOL0     C53641   9.753  10.025   4.976 -0.6544 -0.4137 -0.0550
  398MOL0     O53642   9.661   9.688   5.095 -0.0634  0.0484 -0.0370
  398MOL0     C53643   9.379   9.597   5.157 -0.1095 -0.0038  0.1016
  398MOL0     C53644   9.250   9.563   5.169 -0.1717 -0.8140 -0.0190
  398MOL0     N53645   8.484   9.746   4.786 -0.0307  0.0341 -0.8341
  398MOL0     N53646   8.431   9.747   4.671  0.1353 -0.0151  0.1642
  398MOL0     C53647   7.712   9.119   3.894  0.0897 -0.2637 -0.3700
  398MOL0     C53648   7.600   9.117   3.820 -0.0190  0.7215  0.4662
  398MOL0     C53649   7.173   9.036   3.682 -0.1399 -1.0984  0.1144
  398MOL0     C53650   7.079   9.143   3.679 -0.2501  0.8101  0.5706
  398MOL0     C53651   6.946   9.133   3.633 -0.0509 -0.0100  0.2125
  398MOL0     C53652   6.897   9.009   3.594 -0.9444  0.2564  1.4039
  398MOL0     O53653   6.772   8.990   3.531 -0.1827 -0.8658 -0.2175
  398MOL0     C53654   6.659   9.084   3.537  1.0216 -0.6982  0.2306
  398MOL0     C53655   6.534   9.002   3.551 -1.1835 -0.3640  0.4275
  398MOL0     C53656   6.514   8.952   3.689  0.5094  0.0033  0.1560
  398MOL0     C53657   6.394   9.033   3.749 -1.1716  0.0589  0.4041
  398MOL0     C53658   6.263   9.033   3.673 -0.0362 -0.9431  0.2200
  398MOL0     C53659   6.154   9.030   3.621 -0.5140  0.7021 -1.1601
  398MOL0     C53660   6.983   8.900   3.606 -0.2640  0.4151  0.8529
  398MOL0     C53661   7.116   8.906   3.648 -0.5971 -0.3128 -0.2585
  398MOL0     C53662   7.189   8.776   3.654  0.4780  1.9072  0.2451
  398MOL0     H53663   7.464   8.828   3.958  3.7936 -2.5250 -0.8222
  398MOL0     H53664   7.642   8.867   4.121 -0.4444 -1.5567 -0.7019
  398MOL0     H53665   7.765   9.216   4.169  1.0010  1.1273 -0.5100
  398MOL0     H53666   7.848   9.095   4.272  0.5679 -0.0657  0.5472
  398MOL0     H53667   7.988   9.235   4.052 -3.0474 -0.6013 -1.0049
  398MOL0     H53668   8.047   9.145   4.197  0.5428  2.1092  1.4258
  398MOL0     H53669   7.896   9.405   4.215 -0.0966 -1.2246 -2.1477
  398MOL0     H53670   8.073   9.400   4.224 -1.0328  1.6364 -0.3721
  398MOL0     H53671   7.863   9.311   4.417  0.3643 -1.1352 -0.1499
  398MOL0     H53672   7.998   9.204   4.412 -0.9753 -1.1930 -0.1372
  398MOL0     H53673   8.012   9.513   4.461 -0.6869  0.1063 -0.6826
  398MOL0     H53674   8.037   9.375   4.580 -2.3047  1.9682 -0.0777
  398MOL0     H53675   8.226   9.291   4.432  1.9014  0.8450  3.5808
  398MOL0     H53676   8.219   9.443   4.345  2.7458 -2.3535  0.1458
  398MOL0     H53677   8.354   9.376   4.587  1.4077  2.3880  1.5461
  398MOL0     H53678   8.221   9.473   4.640  1.7565 -1.6998  1.6280
  398MOL0     H53679   8.419   9.574   4.415  2.8741  5.8910  0.4821
  398MOL0     H53680   8.287   9.658   4.496  2.0249  1.4932 -0.5190
  398MOL0     H53681   8.553   9.435   4.683 -0.7951 -0.5621 -1.3572
  398MOL0     H53682   8.531   9.595   5.016  1.6498  2.9244  0.8172
  398MOL0     H53683   8.630   9.470   4.927  2.2887  0.5845  1.0725
  398MOL0     H53684   8.769   9.684   4.847 -0.9633 -0.7886 -1.1275
  398MOL0     H53685   8.702   9.760   4.986 -3.9215 -0.7100  0.6480
  398MOL0     H53686   8.867   9.505   5.013  0.7208  0.7914 -1.8615
  398MOL0     H53687   8.761   9.560   5.130 -2.0199  2.8201 -0.5163
  398MOL0     H53688   8.874   9.770   5.172 -0.6121 -0.9834  0.7608
  398MOL0     H53689   8.953   9.760   5.014  3.0784  1.2034  2.7867
  398MOL0     H53690   9.114   9.867   5.130 -0.3927 -1.2478  2.5873
  398MOL0     H53691   9.357   9.929   5.120 -0.0275 -0.5314 -1.8053
  398MOL0     H53692   9.757   9.941   5.303  1.0838  2.7554  1.7493
  398MOL0     H53693   9.986  10.013   5.282 -1.7545 -0.0114  1.9794
  398MOL0     H53694  10.129  10.201   5.246  3.5438  1.1087  1.2286
  398MOL0     H53695  10.214  10.056   5.221  0.6575  0.8735  0.7411
  398MOL0     H53696  10.357  10.138   5.057  3.7043  1.5604 -0.8633
  398MOL0     H53697  10.294  10.304   5.069 -2.3808 -0.3698 -0.1487
  398MOL0     H53698  10.349  10.290   5.324  2.5263 -0.6281  1.4235
  398MOL0     H53699  10.413  10.129   5.306  0.2114 -1.4303 -1.3013
  398MOL0     H53700  10.522  10.381   5.177  2.5067  0.9817  0.8719
  398MOL0     H53701  10.590  10.232   5.130  2.4931 -1.1023  1.1352
  398MOL0     H53702  10.613  10.179   5.374 -1.8563  0.9144  2.1185
  398MOL0     H53703  10.589  10.347   5.419  3.4338  1.8989  0.2436
  398MOL0     H53704  10.819  10.252   5.239  0.7957 -0.6252  1.0873
  398MOL0     H53705  10.785  10.426   5.281 -2.1851  1.3170  2.1995
  398MOL0     H53706  10.810  10.245   5.511 -0.5057  0.3352  0.2155
  398MOL0     H53707  10.853  10.420   5.501 -2.6062  0.5602 -1.2722
  398MOL0     H53708  11.058  10.236   5.507  0.7986 -1.1117 -1.9692
  398MOL0     H53709  11.015  10.229   5.331  0.3397  1.1145 -1.1876
  398MOL0     H53710   9.906  10.108   4.866  0.1322  1.5036 -0.1813
  398MOL0     H53711   9.684  10.015   4.893 -0.8355  0.3633 -0.0059
  398MOL0     H53712   9.451   9.516   5.171 -0.6123 -0.8185 -1.7698
  398MOL0     H53713   9.231   9.457   5.180  2.4679 -1.1008  3.4526
  398MOL0     H53714   7.778   9.205   3.892  1.2702 -1.0543  1.7554
  398MOL0     H53715   7.585   9.192   3.744 -1.8276  2.6354  2.5652
  398MOL0     H53716   7.120   9.236   3.717 -0.0983  0.7239  0.6196
  398MOL0     H53717   6.881   9.220   3.626 -1.9980 -0.9683  3.9737
  398MOL0     H53718   6.664   9.140   3.444  1.3576 -0.4645  0.3862
  398MOL0     H53719   6.670   9.164   3.612  0.4253  0.8448 -1.2560
  398MOL0     H53720   6.557   8.921   3.481  1.3862  1.4847 -1.0593
  398MOL0     H53721   6.456   9.063   3.504  0.5297  0.7999 -1.0607
  398MOL0     H53722   6.607   8.969   3.743  0.6143  2.2427 -0.6530
  398MOL0     H53723   6.496   8.844   3.687  1.3498 -0.1497 -2.6577
  398MOL0     H53724   6.385   9.033   3.858  0.8005 -2.4424  0.6385
  398MOL0     H53725   6.436   9.133   3.731 -1.1462 -0.3317 -2.1717
  398MOL0     H53726   6.059   9.031   3.571 -2.1569  0.0559  1.6879
  398MOL0     H53727   6.936   8.807   3.575 -1.8995  1.2075  0.8299
  398MOL0     H53728   7.258   8.767   3.570 -1.4653  1.4277 -1.3698
  398MOL0     H53729   7.236   8.765   3.752 -2.3266  1.3175  1.6361
  398MOL0     H53730   7.114   8.696   3.658  0.7103  1.6872  0.2063
  399MOL0     O53731   0.624   5.711   4.690  0.1944  0.0054  0.8983
  399MOL0     C53732   0.656   5.712   4.807  0.0080  1.1563 -0.5459
  399MOL0     O53733   0.576   5.679   4.905  0.7094  0.3931  0.3527
  399MOL0     C53734   0.460   5.613   4.867 -0.3634 -0.4564  0.3384
  399MOL0     C53735   0.340   5.667   4.908  0.0855 -1.5084  0.0778
  399MOL0     C53736   0.219   5.596   4.878  0.0310 -0.3830 -0.1632
  399MOL0     C53737   0.220   5.467   4.819 -0.0606  0.2874  0.7902
  399MOL0     O53738   0.116   5.391   4.784 -0.0776  0.2106 -0.2338
  399MOL0     C53739  -0.004   5.459   4.737  0.3071  0.0972 -0.0976
  399MOL0     C53740  -0.115   5.349   4.716  0.0790 -0.5919 -0.5089
  399MOL0     C53741  -0.260   5.392   4.718  0.3057  0.3398  0.4106
  399MOL0     C53742  -0.341   5.351   4.589  0.1336 -0.3582 -0.1181
  399MOL0     C53743  -0.486   5.383   4.582  0.1408 -0.5313  0.3501
  399MOL0     C53744  -0.569   5.321   4.465  0.7988  0.0144 -1.5913
  399MOL0     C53745  -0.596   5.168   4.476  0.2865  0.4432  0.7232
  399MOL0     C53746  -0.744   5.130   4.512 -0.8737  0.3228  0.9761
  399MOL0     N53747  -0.797   5.207   4.623  0.6051 -0.3910  0.3792
  399MOL0     C53748  -0.745   5.214   4.749 -0.3599  0.5865  0.2240
  399MOL0     C53749  -0.828   5.295   4.818 -0.6477  0.3610  1.4519
  399MOL0     C53750  -0.798   5.350   4.953 -0.0221 -0.5218 -0.5579
  399MOL0     C53751  -0.679   5.438   4.966  0.1473  0.0241 -0.3139
  399MOL0     C53752  -0.560   5.366   5.026 -0.4168  0.1518  1.1283
  399MOL0     C53753  -0.450   5.461   5.068 -0.0024 -0.0200 -0.1448
  399MOL0     O53754  -0.348   5.384   5.127  0.5461 -1.0013  0.1229
  399MOL0     C53755  -0.222   5.439   5.145 -0.3307 -0.2983  0.1129
  399MOL0     C53756  -0.115   5.350   5.145 -0.3744  0.7379 -0.3318
  399MOL0     C53757   0.014   5.397   5.164 -0.1275 -0.7611 -0.3614
  399MOL0     C53758   0.032   5.533   5.190 -0.4955 -0.6186 -0.7152
  399MOL0     C53759   0.159   5.584   5.234  0.3187 -0.6070 -0.3804
  399MOL0     O53760   0.258   5.492   5.250  0.3397  0.0556  0.6416
  399MOL0     C53761   0.395   5.531   5.262  0.7728  0.1181 -0.6604
  399MOL0     C53762   0.471   5.436   5.341  0.2618 -0.4214 -0.4559
  399MOL0     C53763   0.600   5.471   5.368  0.4909 -0.1172 -1.2979
  399MOL0     C53764   0.663   5.590   5.327  0.1445  0.0932 -0.6881
  399MOL0     O53765   0.795   5.628   5.361 -0.2665  0.2056  0.1613
  399MOL0     C53766   0.873   5.523   5.419 -0.3951 -0.4031  0.0112
  399MOL0     C53767   1.013   5.569   5.440  1.0180 -0.3457 -0.1939
  399MOL0     C53768   1.029   5.687   5.543  0.0689  0.3084  0.1538
  399MOL0     C53769   1.132   5.795   5.509  0.1118 -0.9088  0.8841
  399MOL0     C53770   1.085   5.882   5.391  0.3141 -0.2966 -0.6253
  399MOL0     C53771   1.203   5.972   5.343  0.3904 -0.9869  1.0292
  399MOL0     C53772   1.144   6.089   5.256  0.7292  0.3131 -0.2611
  399MOL0     C53773   1.243   6.190   5.219 -0.2934  0.7873 -1.1770
  399MOL0    Cl53774   1.360   6.103   5.108  0.0507 -0.5313  0.3950
  399MOL0     C53775   0.583   5.679   5.259 -0.1512 -0.7732 -0.3172
  399MOL0     C53776   0.456   5.652   5.225  0.0174 -0.7046  0.7110
  399MOL0     O53777   0.178   5.709   5.239 -0.4411  0.4109 -0.5108
  399MOL0     C53778  -0.071   5.630   5.178 -0.4480 -0.0339  0.8645
  399MOL0     C53779  -0.201   5.577   5.157 -0.1974 -0.0802  0.4707
  399MOL0     N53780  -0.944   5.328   4.741 -0.1130  0.1840  0.3862
  399MOL0     N53781  -0.916   5.272   4.629 -0.2563  0.6974  0.2234
  399MOL0     C53782   0.346   5.415   4.794 -0.3572  0.0730  0.2437
  399MOL0     C53783   0.466   5.488   4.809  0.4406  0.7748  0.2688
  399MOL0     C53784   0.799   5.737   4.830  0.1676  0.1159  0.8376
  399MOL0     C53785   0.859   5.693   4.954  0.2689  0.1073  0.9097
  399MOL0     C53786   0.998   5.705   4.986 -0.9275  0.8324  0.2056
  399MOL0     C53787   1.082   5.759   4.889 -0.0326 -0.3548  0.1944
  399MOL0     O53788   1.221   5.766   4.901  0.1009  0.1092  0.8305
  399MOL0     C53789   1.282   5.755   5.031  0.0566 -0.2513  0.0783
  399MOL0     C53790   1.355   5.622   5.074 -0.4162  0.1849 -0.2609
  399MOL0     C53791   1.424   5.613   5.212  0.2077 -0.3195 -0.1344
  399MOL0     C53792   1.518   5.501   5.240 -0.7457 -0.6357  0.1290
  399MOL0     C53793   1.641   5.521   5.177 -0.6597 -1.1362 -0.3434
  399MOL0     C53794   1.754   5.548   5.132 -1.0175  0.4660 -0.0208
  399MOL0     C53795   1.025   5.812   4.770  0.1523 -0.6070  0.0265
  399MOL0     C53796   0.889   5.806   4.736 -0.3210 -0.8317 -0.2048
  399MOL0     C53797   0.847   5.874   4.606  0.9982  0.0744  0.0417
  399MOL0     H53798   0.339   5.763   4.959  2.9396  0.2383 -2.7494
  399MOL0     H53799   0.121   5.640   4.895 -0.3822 -0.4827 -2.0747
  399MOL0     H53800  -0.045   5.532   4.807 -1.8648 -0.2279 -0.9453
  399MOL0     H53801   0.011   5.506   4.639 -2.2328  0.6367 -0.2978
  399MOL0     H53802  -0.095   5.272   4.791 -1.3107  0.9857  1.5746
  399MOL0     H53803  -0.094   5.307   4.617 -0.4102  0.8791 -1.2614
  399MOL0     H53804  -0.264   5.500   4.734 -1.1190  0.2354  0.9142
  399MOL0     H53805  -0.310   5.344   4.803 -1.7612 -0.2943 -1.0992
  399MOL0     H53806  -0.294   5.419   4.518  2.7776 -0.4004  1.4441
  399MOL0     H53807  -0.336   5.245   4.562  1.3594  0.0559 -1.6764
  399MOL0     H53808  -0.533   5.362   4.679 -1.9066 -0.0852 -0.4816
  399MOL0     H53809  -0.494   5.492   4.575  1.2541 -0.5244 -1.8318
  399MOL0     H53810  -0.668   5.365   4.454 -0.1974 -1.9324 -0.8821
  399MOL0     H53811  -0.513   5.337   4.372  1.9969  0.3368 -0.8402
  399MOL0     H53812  -0.521   5.128   4.545  2.0268  1.9477 -0.2259
  399MOL0     H53813  -0.575   5.122   4.379 -2.2157  0.6997 -0.0070
  399MOL0     H53814  -0.807   5.147   4.424 -2.6779 -1.7307  1.7865
  399MOL0     H53815  -0.747   5.025   4.540  3.4925 -0.4553 -0.6424
  399MOL0     H53816  -0.668   5.153   4.796 -0.6705  0.6292  0.8030
  399MOL0     H53817  -0.888   5.398   4.991 -1.0067 -2.5211 -0.2072
  399MOL0     H53818  -0.791   5.264   5.021  0.6887  1.4520  2.0211
  399MOL0     H53819  -0.655   5.476   4.866  0.0382 -0.4162 -0.5118
  399MOL0     H53820  -0.708   5.521   5.031  0.4464 -0.6315  0.6739
  399MOL0     H53821  -0.523   5.294   4.953 -0.1353  1.1716  0.2502
  399MOL0     H53822  -0.596   5.310   5.113  0.7179 -1.0831  0.8260
  399MOL0     H53823  -0.488   5.523   5.150  0.3573  0.2169 -0.1526
  399MOL0     H53824  -0.421   5.530   4.988  0.0276  0.3773  0.2074
  399MOL0     H53825  -0.136   5.245   5.124  0.0878  1.0993 -2.9681
  399MOL0     H53826   0.094   5.324   5.159  0.1632 -0.4126 -0.9894
  399MOL0     H53827   0.418   5.345   5.370 -2.1234  0.1609 -2.6282
  399MOL0     H53828   0.647   5.401   5.437 -1.2106  0.8355  0.9754
  399MOL0     H53829   0.839   5.468   5.508  0.5865 -2.5377 -0.8470
  399MOL0     H53830   0.883   5.441   5.347  2.7372  0.6987 -0.9589
  399MOL0     H53831   1.085   5.491   5.466  1.0967  0.3076  1.6445
  399MOL0     H53832   1.047   5.601   5.341  2.6825  1.5042  0.9060
  399MOL0     H53833   0.935   5.738   5.566  0.4962  1.2001 -0.0286
  399MOL0     H53834   1.069   5.648   5.637  1.7787  4.6253  1.4966
  399MOL0     H53835   1.226   5.746   5.483  1.5342  2.2585 -0.5048
  399MOL0     H53836   1.154   5.859   5.596 -0.7307  1.1911 -0.3658
  399MOL0     H53837   1.012   5.957   5.424  1.0404  0.5498 -0.8975
  399MOL0     H53838   1.044   5.828   5.305 -0.3777  0.8692 -1.0558
  399MOL0     H53839   1.257   6.028   5.420  2.7082 -0.6104 -0.7701
  399MOL0     H53840   1.278   5.906   5.298  0.5319 -0.1578  0.0239
  399MOL0     H53841   1.069   6.137   5.319  0.5255  0.3846 -0.5569
  399MOL0     H53842   1.104   6.051   5.162  1.4713  2.3727 -1.4691
  399MOL0     H53843   1.176   6.267   5.180 -1.3604 -1.1816 -3.4799
  399MOL0     H53844   1.284   6.219   5.317 -1.6008 -0.9064 -0.0677
  399MOL0     H53845   0.627   5.776   5.234 -0.1045 -0.4353  1.0078
  399MOL0     H53846   0.408   5.726   5.162  1.5603 -0.3792 -0.1514
  399MOL0     H53847  -0.047   5.735   5.182 -0.0673  0.1581 -3.2001
  399MOL0     H53848  -0.274   5.656   5.145  2.9288  2.9388 -0.1879
  399MOL0     H53849   0.361   5.314   4.757  2.0491  0.5645 -0.3115
  399MOL0     H53850   0.563   5.447   4.781 -0.5895 -0.2981 -1.9643
  399MOL0     H53851   0.794   5.654   5.032  1.6779 -1.9989  1.1182
  399MOL0     H53852   1.020   5.673   5.087  3.9706  4.6657  0.7622
  399MOL0     H53853   1.213   5.791   5.108 -2.4739  0.1678 -2.2152
  399MOL0     H53854   1.355   5.835   5.018 -0.4914 -0.0281 -2.0870
  399MOL0     H53855   1.423   5.585   4.997 -1.6287 -0.0009 -1.2822
  399MOL0     H53856   1.273   5.549   5.064  1.3524 -1.6808 -2.1454
  399MOL0     H53857   1.358   5.596   5.298 -0.0887 -0.1852 -0.3328
  399MOL0     H53858   1.472   5.710   5.227 -0.4846 -0.0169  0.1346
  399MOL0     H53859   1.539   5.488   5.347 -1.2798  2.0205  0.6136
  399MOL0     H53860   1.468   5.412   5.201 -2.1653 -0.0449  0.5272
  399MOL0     H53861   1.858   5.561   5.113 -0.4086 -3.7583 -0.4637
  399MOL0     H53862   1.095   5.853   4.697  2.2848 -1.8131  1.3038
  399MOL0     H53863   0.773   5.950   4.632 -2.6518 -2.8425 -0.8828
  399MOL0     H53864   0.918   5.935   4.550  0.3592  0.3162 -0.5232
  399MOL0     H53865   0.814   5.803   4.529  1.1299  1.9652 -1.8464
  400MOL0     O53866   7.600   2.792   5.673 -0.0177  0.4790 -0.0334
  400MOL0     C53867   7.650   2.754   5.778 -0.0730 -0.1597 -0.3445
  400MOL0     O53868   7.767   2.691   5.793  0.4125 -0.5899  0.3947
  400MOL0     C53869   7.816   2.627   5.684 -0.0513  0.3177 -0.4957
  400MOL0     C53870   7.735   2.546   5.592 -0.9711 -0.2946  0.1894
  400MOL0     C53871   7.795   2.453   5.505 -0.2869  0.1068 -0.1250
  400MOL0     C53872   7.936   2.439   5.487  0.5180  0.1034 -0.4608
  400MOL0     O53873   7.996   2.351   5.397 -1.1319  0.3767 -0.4634
  400MOL0     C53874   7.929   2.299   5.282 -1.0682  0.1524  0.3243
  400MOL0     C53875   7.901   2.392   5.166  0.8346 -0.1117 -0.2863
  400MOL0     C53876   8.022   2.462   5.111 -0.1661 -0.2738  0.7394
  400MOL0     C53877   7.968   2.582   5.027  0.3823  0.4083 -0.5606
  400MOL0     C53878   8.081   2.678   5.004 -0.4201  0.5061 -0.7708
  400MOL0     C53879   8.065   2.801   5.097 -0.4810 -0.1015  0.0470
  400MOL0     C53880   8.169   2.912   5.060  0.4638 -0.5729  0.6465
  400MOL0     C53881   8.123   3.019   4.956 -0.7123  1.3212 -0.6792
  400MOL0     N53882   8.015   3.099   5.004 -1.0504 -0.3922 -0.5992
  400MOL0     C53883   7.916   3.140   4.921  0.3826  0.3164 -0.6018
  400MOL0     C53884   7.839   3.220   4.993  0.6413 -0.3727 -0.6006
  400MOL0     C53885   7.734   3.313   4.932 -0.2181  0.5448  0.8676
  400MOL0     C53886   7.609   3.308   5.028  0.3486  0.1031 -0.4944
  400MOL0     C53887   7.602   3.422   5.139 -0.0932 -0.1855 -0.8839
  400MOL0     C53888   7.583   3.559   5.071 -0.6535  0.6485 -0.1781
  400MOL0     O53889   7.530   3.652   5.169 -0.3320 -0.2536  0.8180
  400MOL0     C53890   7.499   3.785   5.136 -0.2009 -0.4124  0.3838
  400MOL0     C53891   7.467   3.832   5.005 -0.0010  1.0097 -1.3708
  400MOL0     C53892   7.407   3.957   4.982  0.6142 -0.3919 -0.7126
  400MOL0     C53893   7.382   4.042   5.090  0.4100  0.1338 -0.5506
  400MOL0     C53894   7.316   4.178   5.074 -0.0824  0.1519  0.4869
  400MOL0     O53895   7.343   4.274   5.168  0.8075  0.2700 -0.0805
  400MOL0     C53896   7.334   4.403   5.127  1.1199 -0.1351  0.2387
  400MOL0     C53897   7.246   4.482   5.203  0.3953 -0.5385  0.9676
  400MOL0     C53898   7.249   4.622   5.190 -1.1407  0.4851  0.4410
  400MOL0     C53899   7.346   4.686   5.108  0.1186 -0.7516 -0.1553
  400MOL0     O53900   7.332   4.827   5.107 -0.2481 -0.2222  0.3592
  400MOL0     C53901   7.330   4.906   4.988  0.4894 -0.4275 -0.1062
  400MOL0     C53902   7.201   4.891   4.899  0.1037  0.0755 -0.6771
  400MOL0     C53903   7.067   4.950   4.964  0.4252  0.0016 -0.2531
  400MOL0     C53904   6.997   4.838   5.039 -0.2114  0.4128 -0.0357
  400MOL0     C53905   6.902   4.900   5.137  0.4967  0.1511 -0.5393
  400MOL0     C53906   6.794   4.803   5.190  0.6243 -0.0516  1.1014
  400MOL0     C53907   6.718   4.744   5.073 -0.3709  0.7375 -0.1388
  400MOL0     C53908   6.586   4.659   5.093 -0.3243 -1.0793  0.9526
  400MOL0    Cl53909   6.457   4.776   5.094  0.3845 -0.0202 -0.2665
  400MOL0     C53910   7.428   4.610   5.029 -0.3379 -0.1365 -0.8341
  400MOL0     C53911   7.423   4.468   5.031  0.2100 -0.2323 -0.7159
  400MOL0     O53912   7.246   4.194   4.977  0.5717  0.1251 -0.2455
  400MOL0     C53913   7.406   4.004   5.222 -0.7446 -0.4298 -0.3868
  400MOL0     C53914   7.461   3.872   5.241 -0.1630  0.2360 -0.4967
  400MOL0     N53915   7.904   3.233   5.121  0.4172  0.2669 -0.1496
  400MOL0     N53916   8.012   3.165   5.124  0.9387 -0.4767 -0.8560
  400MOL0     C53917   8.011   2.522   5.575 -0.5230 -0.0689  0.7943
  400MOL0     C53918   7.953   2.602   5.675  0.2360 -0.3349 -0.1102
  400MOL0     C53919   7.570   2.784   5.899  0.0384  0.1693  0.4920
  400MOL0     C53920   7.501   2.904   5.911 -0.0939 -0.3489 -0.5202
  400MOL0     C53921   7.437   2.946   6.021  0.4733  0.0879 -0.2987
  400MOL0     C53922   7.419   2.853   6.129 -0.8206 -0.6699 -1.0314
  400MOL0     O53923   7.335   2.905   6.225 -0.5766  0.4123 -0.3508
  400MOL0     C53924   7.312   2.825   6.343  1.0369 -0.1182  0.0318
  400MOL0     C53925   7.200   2.722   6.340 -0.3504  0.4973 -0.5428
  400MOL0     C53926   7.209   2.615   6.455  0.2110 -0.9541  0.9179
  400MOL0     C53927   7.119   2.496   6.409 -0.3771  0.1362  0.6762
  400MOL0     C53928   6.988   2.519   6.459  0.1192 -0.0755  0.7593
  400MOL0     C53929   6.882   2.535   6.505  0.4895  0.4489 -0.0554
  400MOL0     C53930   7.486   2.726   6.121  0.4797  0.3841 -0.3657
  400MOL0     C53931   7.564   2.698   6.007  0.6464  0.9574  0.0847
  400MOL0     C53932   7.623   2.556   5.998 -0.5437 -0.3807 -0.1277
  400MOL0     H53933   7.627   2.550   5.592 -1.0513 -0.4687 -2.8759
  400MOL0     H53934   7.717   2.408   5.445 -0.5394 -0.4900  0.6273
  400MOL0     H53935   7.987   2.215   5.242 -2.7814 -1.6292  1.4267
  400MOL0     H53936   7.838   2.257   5.325 -1.1035  0.3666  0.4566
  400MOL0     H53937   7.839   2.472   5.206  0.0730  0.5335 -2.6252
  400MOL0     H53938   7.853   2.346   5.080 -4.0511 -4.1097  3.9435
  400MOL0     H53939   8.080   2.391   5.051 -1.8580 -0.9695 -0.1205
  400MOL0     H53940   8.088   2.510   5.184  1.8304 -0.3443 -0.9201
  400MOL0     H53941   7.932   2.550   4.928 -0.1038 -0.1080 -0.2182
  400MOL0     H53942   7.895   2.645   5.078  0.5868  0.8345 -0.7897
  400MOL0     H53943   8.184   2.649   5.026 -0.3105  2.3266  1.5259
  400MOL0     H53944   8.078   2.708   4.899 -1.4541 -1.4347 -1.3540
  400MOL0     H53945   7.967   2.847   5.083 -0.5606 -0.5949 -1.0989
  400MOL0     H53946   8.078   2.771   5.201 -0.9271 -1.7879 -0.3635
  400MOL0     H53947   8.261   2.860   5.032 -0.9761 -2.1326 -1.4926
  400MOL0     H53948   8.185   2.971   5.151 -1.2019 -0.7530  1.0804
  400MOL0     H53949   8.214   3.079   4.948 -0.4800  0.9065 -1.2252
  400MOL0     H53950   8.094   2.988   4.855 -0.6250 -1.6728  0.1170
  400MOL0     H53951   7.903   3.120   4.815 -1.4738 -0.8457 -0.2022
  400MOL0     H53952   7.777   3.412   4.916 -0.0279  0.0961 -1.9310
  400MOL0     H53953   7.711   3.274   4.832  0.5751  2.6726 -0.2002
  400MOL0     H53954   7.513   3.311   4.976 -0.6834  0.0102  1.3497
  400MOL0     H53955   7.610   3.209   5.075 -2.7919  0.9904  1.8090
  400MOL0     H53956   7.702   3.414   5.182  0.0089  0.9583 -0.8783
  400MOL0     H53957   7.524   3.398   5.212  0.6991 -2.0287 -0.5685
  400MOL0     H53958   7.521   3.550   4.981 -1.0294 -0.4433  0.1655
  400MOL0     H53959   7.675   3.601   5.031 -1.4514  0.9819 -1.7709
  400MOL0     H53960   7.466   3.758   4.926  2.1434  2.5330 -2.9592
  400MOL0     H53961   7.371   3.984   4.884  2.4472  0.4720 -1.1842
  400MOL0     H53962   7.173   4.439   5.270 -0.6485 -0.2355  0.0475
  400MOL0     H53963   7.184   4.683   5.252 -2.3800 -0.6912  0.3548
  400MOL0     H53964   7.351   5.007   5.022  2.4013 -0.4606 -1.0355
  400MOL0     H53965   7.424   4.882   4.937 -0.1497  2.5528 -3.0780
  400MOL0     H53966   7.215   4.950   4.808 -0.6349  2.9783  0.9614
  400MOL0     H53967   7.183   4.786   4.874  2.2274 -0.7054  0.7577
  400MOL0     H53968   7.091   5.027   5.038 -1.5796  1.0309 -0.5928
  400MOL0     H53969   7.016   4.984   4.873 -0.9699 -1.6337 -0.1386
  400MOL0     H53970   7.079   4.787   5.090  1.5693  2.5075 -0.6389
  400MOL0     H53971   6.954   4.773   4.962  0.3085  1.0052 -0.8428
  400MOL0     H53972   6.847   4.980   5.086 -1.4628  0.2936  1.6243
  400MOL0     H53973   6.967   4.936   5.218  0.2337  0.2174 -0.3560
  400MOL0     H53974   6.839   4.722   5.248  0.7800 -0.4662  0.4137
  400MOL0     H53975   6.730   4.853   5.262 -0.4589  2.1087 -1.2218
  400MOL0     H53976   6.788   4.670   5.033  1.3858  1.3727  1.5922
  400MOL0     H53977   6.696   4.823   5.000 -0.3056 -0.4127 -1.4469
  400MOL0     H53978   6.573   4.590   5.009 -0.2316 -0.6249  0.5598
  400MOL0     H53979   6.580   4.600   5.185 -1.5943 -3.6005 -0.6281
  400MOL0     H53980   7.501   4.661   4.967 -0.4660 -1.3155 -2.0053
  400MOL0     H53981   7.489   4.401   4.977  2.5948 -2.3549  4.2185
  400MOL0     H53982   7.393   4.057   5.315  2.7067 -1.4078  0.8287
  400MOL0     H53983   7.493   3.859   5.344 -0.6340 -0.4831 -0.4360
  400MOL0     H53984   8.118   2.505   5.585 -0.2947 -1.9240 -3.0433
  400MOL0     H53985   8.009   2.650   5.755  1.5588 -3.0273  0.7252
  400MOL0     H53986   7.522   2.979   5.836  0.2529  0.6389  0.5331
  400MOL0     H53987   7.384   3.041   6.022  0.2291 -0.0533  0.1671
  400MOL0     H53988   7.303   2.898   6.423 -0.6718 -0.3834  0.1224
  400MOL0     H53989   7.401   2.766   6.367  1.2315  0.2766  0.2846
  400MOL0     H53990   7.205   2.676   6.241  0.8361 -0.2948 -0.1399
  400MOL0     H53991   7.108   2.776   6.365 -2.7442 -3.0136 -1.0084
  400MOL0     H53992   7.152   2.659   6.537 -0.9681 -2.5909  1.0422
  400MOL0     H53993   7.312   2.586   6.474  1.0350 -1.1990 -3.0083
  400MOL0     H53994   7.128   2.481   6.301  0.5692 -1.4682  0.9417
  400MOL0     H53995   7.161   2.401   6.442  0.8488  0.6236  0.5840
  400MOL0     H53996   6.791   2.547   6.560 -1.0143 -0.5186 -2.2289
  400MOL0     H53997   7.478   2.653   6.200  1.8297  0.0041 -0.5533
  400MOL0     H53998   7.719   2.560   6.050 -1.6904 -1.7351  2.2722
  400MOL0     H53999   7.549   2.495   6.050 -0.9820  1.4428  1.5114
  400MOL0     H54000   7.643   2.506   5.903  0.1456  1.0655 -0.7780
  401MOL0     O54001   4.881   6.297   3.518  0.6301  0.3995  0.2685
  401MOL0     C54002   4.896   6.283   3.643 -0.5993 -0.1733  0.1040
  401MOL0     O54003   4.949   6.377   3.724  0.1021  0.8882 -0.1492
  401MOL0     C54004   5.002   6.492   3.664 -0.2479 -0.3209 -0.2570
  401MOL0     C54005   4.964   6.608   3.725  0.6959  0.1932  0.6346
  401MOL0     C54006   5.011   6.726   3.673  0.2595 -0.0104 -0.1319
  401MOL0     C54007   5.090   6.744   3.552  0.0818  0.8136 -0.5221
  401MOL0     O54008   5.119   6.874   3.500  0.1795  0.1063 -0.5724
  401MOL0     C54009   5.172   6.867   3.371  0.3423 -0.1467  0.1510
  401MOL0     C54010   5.120   6.996   3.302 -0.4275  0.8333  0.1331
  401MOL0     C54011   5.155   7.000   3.150 -0.2636  0.2265  0.0295
  401MOL0     C54012   5.050   7.068   3.060 -0.1274 -0.2988  0.6185
  401MOL0     C54013   5.042   7.017   2.912 -0.1463  0.7926  0.2319
  401MOL0     C54014   5.160   7.072   2.830  0.0750  0.7620 -0.8289
  401MOL0     C54015   5.163   7.036   2.680 -0.4324 -0.0847 -0.5945
  401MOL0     C54016   5.243   7.127   2.579  0.7265 -0.0832 -0.7170
  401MOL0     N54017   5.384   7.119   2.602 -0.2163 -0.1782 -0.3528
  401MOL0     C54018   5.455   7.154   2.722 -0.0699 -0.8287  0.1836
  401MOL0     C54019   5.587   7.124   2.694 -0.2752  0.7980 -0.5618
  401MOL0     C54020   5.710   7.154   2.780  0.1938 -0.5804  0.1756
  401MOL0     C54021   5.738   7.299   2.739 -0.1511  0.5109 -0.0584
  401MOL0     C54022   5.837   7.343   2.850  0.2615  0.6956  0.7819
  401MOL0     C54023   5.937   7.445   2.785 -0.2252  0.2278 -0.3614
  401MOL0     O54024   6.065   7.446   2.857  0.0273 -0.2690 -0.6198
  401MOL0     C54025   6.169   7.507   2.806  0.4156 -0.5221  0.0374
  401MOL0     C54026   6.176   7.566   2.674  0.3421 -0.5622  0.6112
  401MOL0     C54027   6.293   7.630   2.632  0.3288 -1.1043 -0.4597
  401MOL0     C54028   6.400   7.656   2.726 -0.2815  0.0385 -0.0530
  401MOL0     C54029   6.524   7.740   2.690 -0.7970 -0.1343 -0.8288
  401MOL0     O54030   6.513   7.832   2.582  0.4323 -0.6035 -0.4452
  401MOL0     C54031   6.619   7.911   2.546  0.3821  0.7244  0.8316
  401MOL0     C54032   6.643   8.038   2.607 -0.1028  0.7217  0.3854
  401MOL0     C54033   6.745   8.115   2.568 -0.7095 -0.4853  0.3214
  401MOL0     C54034   6.826   8.078   2.452 -0.3457  0.0634 -0.2791
  401MOL0     O54035   6.945   8.149   2.438 -0.1989  0.0830  0.3262
  401MOL0     C54036   6.966   8.199   2.301  0.2077  0.7509 -0.1778
  401MOL0     C54037   7.005   8.346   2.326 -0.4431  0.2154 -0.0029
  401MOL0     C54038   6.922   8.425   2.425  1.1138 -0.6858 -0.2005
  401MOL0     C54039   6.989   8.561   2.442  0.0066 -0.9713  0.6541
  401MOL0     C54040   6.970   8.655   2.319  0.2419  0.0464 -0.0292
  401MOL0     C54041   7.085   8.761   2.332  0.7896  1.0193 -0.3265
  401MOL0     C54042   7.085   8.859   2.216 -0.6779  0.1578 -0.0941
  401MOL0     C54043   7.227   8.850   2.154 -0.3189 -0.1353 -0.5650
  401MOL0    Cl54044   7.222   8.954   2.011 -0.4656  0.1579  0.0862
  401MOL0     C54045   6.799   7.956   2.388 -0.6213 -0.1953 -0.7145
  401MOL0     C54046   6.694   7.874   2.433 -0.3613 -0.2399  0.2720
  401MOL0     O54047   6.617   7.736   2.767 -0.2230  0.1443 -0.4318
  401MOL0     C54048   6.394   7.599   2.859  0.8914  0.0512 -0.6943
  401MOL0     C54049   6.282   7.518   2.895  0.4328 -0.2708  0.2853
  401MOL0     N54050   5.588   7.052   2.573 -0.6488  0.3599 -0.1721
  401MOL0     N54051   5.473   7.063   2.511  0.4213  0.3322 -0.4549
  401MOL0     C54052   5.140   6.618   3.501  0.4603  0.4245 -0.5250
  401MOL0     C54053   5.104   6.500   3.565 -0.3280  0.2727  1.5518
  401MOL0     C54054   4.849   6.155   3.708 -0.2388  1.2947  0.3186
  401MOL0     C54055   4.782   6.062   3.618 -0.1351 -0.2910  0.7012
  401MOL0     C54056   4.743   5.941   3.660 -0.1734 -0.2585  1.6672
  401MOL0     C54057   4.770   5.899   3.792  0.8696 -0.7440 -0.8445
  401MOL0     O54058   4.740   5.778   3.851  0.0401  0.1076  0.3772
  401MOL0     C54059   4.729   5.665   3.758  0.5416 -0.1358  0.1470
  401MOL0     C54060   4.590   5.628   3.712  0.3946  0.1702 -0.4015
  401MOL0     C54061   4.590   5.533   3.592  0.7300 -0.1842 -0.2304
  401MOL0     C54062   4.554   5.388   3.633  0.4415 -0.1866  0.2942
  401MOL0     C54063   4.680   5.323   3.684  0.7821  0.6530 -0.6734
  401MOL0     C54064   4.774   5.260   3.700  0.6660 -0.7791 -0.3372
  401MOL0     C54065   4.817   5.992   3.878  1.3071 -0.4576 -0.3926
  401MOL0     C54066   4.866   6.122   3.841 -0.3655  0.8757 -0.1945
  401MOL0     C54067   4.928   6.198   3.960  0.0025 -0.1944 -0.0930
  401MOL0     H54068   4.893   6.604   3.807  2.0227 -2.5528  1.7604
  401MOL0     H54069   4.988   6.819   3.722  1.8467  1.5295 -2.1357
  401MOL0     H54070   5.280   6.881   3.373  0.0908  2.2400  0.1989
  401MOL0     H54071   5.130   6.785   3.313 -1.1003 -0.0764  1.0308
  401MOL0     H54072   5.151   7.087   3.355 -0.4790  1.1434 -0.3630
  401MOL0     H54073   5.011   7.006   3.313 -0.3607  0.1230  1.8723
  401MOL0     H54074   5.175   6.904   3.102 -0.0189  0.1909  0.2019
  401MOL0     H54075   5.245   7.062   3.152  1.0147 -1.4976 -1.2257
  401MOL0     H54076   4.950   7.055   3.102 -0.0735  0.0636  0.8638
  401MOL0     H54077   5.069   7.176   3.056  2.0862 -0.6534  0.4078
  401MOL0     H54078   5.034   6.908   2.901  1.6927  0.7978 -1.8670
  401MOL0     H54079   4.948   7.047   2.865 -0.1125 -1.4147 -1.4079
  401MOL0     H54080   5.166   7.179   2.854 -2.3385  0.9019 -0.5700
  401MOL0     H54081   5.253   7.030   2.869  0.2318  3.1874  1.7157
  401MOL0     H54082   5.063   7.004   2.651 -0.4581 -1.4709  0.9021
  401MOL0     H54083   5.216   6.940   2.677  2.4436  1.4077 -1.2357
  401MOL0     H54084   5.217   7.086   2.481 -0.7307 -2.5696  0.6191
  401MOL0     H54085   5.202   7.226   2.599 -0.7042 -0.8299  0.1732
  401MOL0     H54086   5.428   7.210   2.810  0.8765  1.8460 -1.1287
  401MOL0     H54087   5.678   7.138   2.883 -1.1126  2.9236  0.4524
  401MOL0     H54088   5.792   7.086   2.754 -0.7188 -1.3041 -0.8995
  401MOL0     H54089   5.784   7.292   2.640  1.4893 -1.1567  0.7648
  401MOL0     H54090   5.647   7.358   2.749 -1.1630 -1.4054  3.6678
  401MOL0     H54091   5.899   7.260   2.886  3.2526  2.7607  0.7697
  401MOL0     H54092   5.777   7.383   2.932  1.4417 -0.5543  2.3461
  401MOL0     H54093   5.888   7.541   2.767  0.7255  1.2450  1.9650
  401MOL0     H54094   5.952   7.421   2.680  0.3028  2.2265 -0.7882
  401MOL0     H54095   6.090   7.559   2.608  0.9752 -2.4586 -0.0857
  401MOL0     H54096   6.288   7.683   2.537 -0.9141 -0.3678 -0.0150
  401MOL0     H54097   6.588   8.055   2.700  1.4239 -0.0138  1.4735
  401MOL0     H54098   6.762   8.200   2.633 -0.9432 -1.4078  1.6175
  401MOL0     H54099   7.050   8.149   2.252  0.5676  2.2052 -1.0919
  401MOL0     H54100   6.870   8.193   2.250  1.1442 -1.7745 -1.8628
  401MOL0     H54101   7.111   8.350   2.355 -0.1502 -0.8213 -0.8556
  401MOL0     H54102   7.006   8.395   2.228  0.8854 -3.0228 -1.7745
  401MOL0     H54103   6.819   8.449   2.397  0.9210  0.8998  1.6678
  401MOL0     H54104   6.929   8.357   2.510  1.4981 -1.8419 -1.1299
  401MOL0     H54105   7.095   8.537   2.453  0.7105  1.6766  0.3914
  401MOL0     H54106   6.953   8.616   2.529 -1.2101  1.5082 -1.2579
  401MOL0     H54107   6.870   8.699   2.316  0.6255  0.9651  0.2579
  401MOL0     H54108   6.986   8.599   2.226 -0.6541 -0.6343  0.2156
  401MOL0     H54109   7.062   8.815   2.424  1.2103 -0.2202  0.5428
  401MOL0     H54110   7.182   8.710   2.336 -0.2660 -1.1245 -0.6004
  401MOL0     H54111   7.054   8.956   2.256 -3.5969  0.0743 -1.9164
  401MOL0     H54112   7.019   8.824   2.137  0.0698 -0.8900 -0.2635
  401MOL0     H54113   7.313   8.883   2.214 -0.2737  1.4046 -1.4352
  401MOL0     H54114   7.238   8.749   2.114 -0.3438 -0.8570  1.1335
  401MOL0     H54115   6.849   7.910   2.304 -1.3202 -2.1526 -0.1163
  401MOL0     H54116   6.660   7.778   2.396 -0.8883 -0.1980  0.6439
  401MOL0     H54117   6.467   7.620   2.935  0.4021  1.0017 -0.4710
  401MOL0     H54118   6.273   7.476   2.995  2.6339 -0.8141  0.3058
  401MOL0     H54119   5.202   6.611   3.412 -2.9587 -3.2856 -2.9272
  401MOL0     H54120   5.135   6.407   3.518  0.0884  1.4000 -0.5021
  401MOL0     H54121   4.756   6.085   3.515 -0.5128  1.6100  1.1916
  401MOL0     H54122   4.708   5.871   3.585  0.2966 -0.1209  1.3101
  401MOL0     H54123   4.772   5.578   3.809  1.4204  0.1810 -0.0412
  401MOL0     H54124   4.795   5.669   3.671 -1.0861  0.0313 -1.1354
  401MOL0     H54125   4.556   5.726   3.677 -0.6760 -0.3921 -0.9559
  401MOL0     H54126   4.538   5.591   3.801  2.1037  0.8188  0.9282
  401MOL0     H54127   4.688   5.545   3.544  1.4707  0.1651  1.2774
  401MOL0     H54128   4.522   5.570   3.516 -0.4110 -1.6452  0.0396
  401MOL0     H54129   4.480   5.390   3.714  2.1611 -1.8485  2.0235
  401MOL0     H54130   4.514   5.333   3.548  1.0600  0.2725 -0.3018
  401MOL0     H54131   4.859   5.197   3.714  1.4804  0.1333 -1.0609
  401MOL0     H54132   4.813   5.966   3.983  0.5463 -0.9991 -0.5432
  401MOL0     H54133   4.854   6.265   4.003 -2.5193 -2.6355 -0.3522
  401MOL0     H54134   4.975   6.131   4.033  0.1492  1.3236  1.2460
  401MOL0     H54135   5.013   6.260   3.930  0.3089 -2.2025 -4.1308
  402MOL0     O54136  10.440   8.806  10.151 -0.2888  0.5403 -0.3474
  402MOL0     C54137  10.459   8.824  10.271 -0.3240 -0.3577 -0.6407
  402MOL0     O54138  10.391   8.765  10.373 -0.3323  0.7441  0.2603
  402MOL0     C54139  10.282   8.689  10.332  0.5494 -0.3875  0.0436
  402MOL0     C54140  10.275   8.552  10.345 -0.4322  0.3517 -0.4672
  402MOL0     C54141  10.152   8.488  10.303  0.3099  0.2458  0.5784
  402MOL0     C54142  10.036   8.557  10.258 -0.0769  1.3235  0.3613
  402MOL0     O54143   9.930   8.500  10.200  0.5779  0.4672  0.0672
  402MOL0     C54144   9.865   8.406  10.285 -0.2973 -0.4391  0.1912
  402MOL0     C54145   9.749   8.344  10.217 -0.2296  0.0517  1.0064
  402MOL0     C54146   9.638   8.451  10.190 -0.0140  0.2116  0.4404
  402MOL0     C54147   9.602   8.535  10.310  0.4123 -0.4072  0.1996
  402MOL0     C54148   9.575   8.451  10.451 -1.0590  0.0896  0.5102
  402MOL0     C54149   9.519   8.551  10.548 -0.6109 -0.2432  0.0243
  402MOL0     C54150   9.629   8.655  10.596  1.0603  0.0328  0.3377
  402MOL0     C54151   9.739   8.597  10.678 -0.7562  1.3252  0.0342
  402MOL0     N54152   9.828   8.710  10.718 -0.0380  1.0687  0.8027
  402MOL0     C54153   9.942   8.747  10.661 -1.0752 -0.0069  0.0396
  402MOL0     C54154   9.998   8.833  10.747 -0.1501 -0.5737  0.0536
  402MOL0     C54155  10.131   8.899  10.723 -0.3221 -0.3758 -0.3195
  402MOL0     C54156  10.225   8.868  10.847 -0.1503 -0.4487  0.0338
  402MOL0     C54157  10.372   8.893  10.804 -0.1305  0.0337  1.3911
  402MOL0     C54158  10.422   9.030  10.837 -0.8279 -0.4516  0.0447
  402MOL0     O54159  10.557   9.057  10.789 -0.0275 -0.5080 -0.0710
  402MOL0     C54160  10.676   9.055  10.863  0.4402  1.5967  0.1397
  402MOL0     C54161  10.692   8.975  10.987 -0.5972  0.2602 -1.0623
  402MOL0     C54162  10.811   8.995  11.056 -0.6035 -0.5081 -0.1568
  402MOL0     C54163  10.908   9.090  11.009  0.7211  0.4812 -1.1428
  402MOL0     C54164  11.017   9.120  11.101 -0.0885  0.6609 -0.2107
  402MOL0     O54165  11.131   9.168  11.051 -0.5505 -0.3235  0.2700
  402MOL0     C54166  11.243   9.176  11.130 -0.7634 -0.6526  0.0206
  402MOL0     C54167  11.349   9.093  11.097  0.7907 -0.3341 -0.1514
  402MOL0     C54168  11.453   9.073  11.187  0.8663  0.1778 -0.0255
  402MOL0     C54169  11.451   9.143  11.311 -0.5338  0.0108 -0.2923
  402MOL0     O54170  11.564   9.130  11.389 -0.3454  0.3035 -0.1332
  402MOL0     C54171  11.565   9.190  11.516  0.1793  0.2374 -0.5958
  402MOL0     C54172  11.715   9.196  11.547 -0.3214  0.7426 -0.6232
  402MOL0     C54173  11.783   9.316  11.485  1.3365 -0.3165 -0.3794
  402MOL0     C54174  11.937   9.318  11.496  0.5194  0.3585  0.5650
  402MOL0     C54175  12.002   9.276  11.361  1.0937 -0.4493 -0.0929
  402MOL0     C54176  12.144   9.332  11.359 -0.1814  0.7155 -1.0257
  402MOL0     C54177  12.236   9.230  11.287 -1.1915  0.0005 -0.5726
  402MOL0     C54178  12.385   9.264  11.275 -0.1065 -0.1854  0.1924
  402MOL0    Cl54179  12.417   9.378  11.135 -0.0705  0.1824 -0.1699
  402MOL0     C54180  11.347   9.232  11.335  0.6226 -0.0912  0.1614
  402MOL0     C54181  11.241   9.245  11.247  0.1779 -0.8716 -0.2382
  402MOL0     O54182  11.002   9.098  11.224 -0.0899 -0.5071  0.0282
  402MOL0     C54183  10.901   9.144  10.879  0.5362  0.5546 -0.0574
  402MOL0     C54184  10.782   9.127  10.816  0.9829 -0.8320  0.7022
  402MOL0     N54185   9.916   8.829  10.863  0.3767  0.5973  0.3386
  402MOL0     N54186   9.809   8.765  10.837  0.2225  0.3239 -0.2904
  402MOL0     C54187  10.048   8.696  10.262 -0.6804  0.1192 -0.5894
  402MOL0     C54188  10.168   8.761  10.290 -0.4550  0.2708  0.1675
  402MOL0     C54189  10.577   8.921  10.304  0.6529  0.5722  0.0799
  402MOL0     C54190  10.651   8.894  10.418 -0.0523 -0.0676 -1.0559
  402MOL0     C54191  10.764   8.966  10.458 -0.1566 -0.0113 -0.5587
  402MOL0     C54192  10.811   9.075  10.379 -0.1200 -0.2422  0.7909
  402MOL0     O54193  10.920   9.150  10.403  0.3222 -0.5290 -0.5952
  402MOL0     C54194  11.000   9.122  10.517  0.8552 -1.2882  0.1491
  402MOL0     C54195  11.106   9.017  10.493 -0.6842 -0.0402  1.1009
  402MOL0     C54196  11.245   9.083  10.489  0.3050  0.2400 -0.3051
  402MOL0     C54197  11.286   9.088  10.634  0.2935  0.0552  0.5313
  402MOL0     C54198  11.428   9.130  10.653  0.7882  0.5163 -0.8381
  402MOL0     C54199  11.548   9.145  10.680 -0.0084  1.1306  0.8525
  402MOL0     C54200  10.728   9.116  10.272  0.1139  0.2029  0.0085
  402MOL0     C54201  10.613   9.041  10.231 -0.1275 -0.6063 -0.1737
  402MOL0     C54202  10.546   9.094  10.116 -0.3299 -0.4690  0.0475
  402MOL0     H54203  10.348   8.486  10.390 -1.0229  0.1377  0.1964
  402MOL0     H54204  10.153   8.380  10.317  2.3408  0.0846 -0.4261
  402MOL0     H54205   9.932   8.322  10.307 -1.0989 -0.9847  0.6055
  402MOL0     H54206   9.837   8.445  10.384  2.2358 -1.4255  1.3933
  402MOL0     H54207   9.713   8.265  10.284  0.8272  3.0256  5.5170
  402MOL0     H54208   9.779   8.307  10.118  0.7230 -0.2428  1.4013
  402MOL0     H54209   9.551   8.389  10.168  0.5541 -0.4525  0.0060
  402MOL0     H54210   9.672   8.515  10.108 -0.7014  0.4659  0.3516
  402MOL0     H54211   9.685   8.602  10.332 -1.9880  3.8586 -2.2837
  402MOL0     H54212   9.510   8.586  10.276  0.7064  0.4112  0.6043
  402MOL0     H54213   9.496   8.377  10.438 -0.6559 -0.3736  0.6559
  402MOL0     H54214   9.666   8.403  10.489 -2.8053 -3.0179  1.0664
  402MOL0     H54215   9.431   8.604  10.511 -0.2738  1.2089  1.2147
  402MOL0     H54216   9.486   8.489  10.632  1.0361 -2.7626 -1.0639
  402MOL0     H54217   9.573   8.715  10.669  0.3012 -2.5655  2.0770
  402MOL0     H54218   9.669   8.709  10.510  1.6603 -0.9380 -0.0169
  402MOL0     H54219   9.696   8.545  10.764  0.6987  0.6371  0.3858
  402MOL0     H54220   9.804   8.526  10.626  0.7522  1.9274  1.0173
  402MOL0     H54221   9.981   8.710  10.567  2.4188  0.3736  1.2118
  402MOL0     H54222  10.164   8.857  10.627 -0.3599 -0.7089 -0.1888
  402MOL0     H54223  10.124   9.006  10.703  1.0114 -0.1815  0.1865
  402MOL0     H54224  10.193   8.920  10.938  1.5819 -0.9238  0.9426
  402MOL0     H54225  10.212   8.761  10.867 -1.9786 -0.3556 -0.4874
  402MOL0     H54226  10.398   8.872  10.700  2.5064 -1.4394  2.2815
  402MOL0     H54227  10.434   8.828  10.865  0.7870  0.5037  0.9705
  402MOL0     H54228  10.421   9.052  10.944  0.6793  1.6563 -0.3073
  402MOL0     H54229  10.351   9.102  10.796 -4.5128 -1.8138  3.3875
  402MOL0     H54230  10.615   8.907  11.023 -0.9092  1.7451  1.2237
  402MOL0     H54231  10.814   8.944  11.152 -1.0982 -0.6340 -0.2036
  402MOL0     H54232  11.328   9.026  11.014 -1.8947  2.5480 -2.0160
  402MOL0     H54233  11.536   9.004  11.171  0.1842 -0.9543  1.0707
  402MOL0     H54234  11.527   9.292  11.521  3.2400  1.4220  0.9092
  402MOL0     H54235  11.509   9.117  11.575 -0.1381  0.9377 -0.0202
  402MOL0     H54236  11.735   9.213  11.653 -1.4190 -1.4919 -0.0136
  402MOL0     H54237  11.767   9.107  11.511  2.5265 -0.0805  4.5230
  402MOL0     H54238  11.760   9.324  11.378 -0.6734 -0.2466  0.0343
  402MOL0     H54239  11.743   9.408  11.527  0.3102 -0.7877 -0.3102
  402MOL0     H54240  11.981   9.256  11.575 -0.6525  1.2310  1.9578
  402MOL0     H54241  11.957   9.423  11.517 -1.5052  0.6630  1.1483
  402MOL0     H54242  11.950   9.293  11.266 -0.2791  3.4477  1.1352
  402MOL0     H54243  11.995   9.167  11.370 -2.1882 -0.1681  3.4916
  402MOL0     H54244  12.139   9.434  11.320  1.5832  1.5414  0.7302
  402MOL0     H54245  12.187   9.339  11.460 -0.7884 -2.4889 -0.4112
  402MOL0     H54246  12.201   9.207  11.186 -1.6631 -1.0150 -0.1901
  402MOL0     H54247  12.239   9.137  11.343 -1.8424 -0.6004 -1.5124
  402MOL0     H54248  12.437   9.307  11.361  1.0798 -0.1656 -0.5171
  402MOL0     H54249  12.436   9.172  11.248 -2.5026 -1.5523  0.0759
  402MOL0     H54250  11.346   9.294  11.425  0.5642 -1.6970  1.3009
  402MOL0     H54251  11.158   9.312  11.271  3.1534  2.6424  1.2345
  402MOL0     H54252  10.984   9.200  10.838  1.5537  0.3978  1.7158
  402MOL0     H54253  10.772   9.173  10.718 -0.5638  0.7776  1.5850
  402MOL0     H54254   9.958   8.756  10.253  1.5072  3.6629 -0.7121
  402MOL0     H54255  10.151   8.868  10.298  2.5232  0.6946  2.3371
  402MOL0     H54256  10.615   8.809  10.474 -2.1523 -0.0537 -2.2732
  402MOL0     H54257  10.824   8.913  10.532  0.1557  0.3289 -0.5686
  402MOL0     H54258  10.938   9.085  10.599  1.5493 -1.6197  0.5285
  402MOL0     H54259  11.037   9.221  10.546 -0.7687 -0.7320  0.4611
  402MOL0     H54260  11.087   8.968  10.397 -0.1623  0.9481  0.4826
  402MOL0     H54261  11.115   8.936  10.567  1.8891 -0.6066  0.2544
  402MOL0     H54262  11.241   9.177  10.433 -2.3144 -0.2518 -1.0845
  402MOL0     H54263  11.316   9.016  10.439  1.5766  1.7610 -0.6180
  402MOL0     H54264  11.210   9.137  10.696 -1.9660  0.6664 -2.4928
  402MOL0     H54265  11.268   8.989  10.676 -2.0144  1.3361  2.8827
  402MOL0     H54266  11.652   9.161  10.699  1.1294 -1.1512 -2.5156
  402MOL0     H54267  10.760   9.199  10.210 -0.0593  0.2842  0.0263
  402MOL0     H54268  10.620   9.144  10.053  1.6347 -0.2640  2.4020
  402MOL0     H54269  10.501   9.014  10.057  2.8967 -0.4151 -2.7309
  402MOL0     H54270  10.463   9.163  10.136 -0.2340  0.6492 -2.9266
  403MOL0     O54271   1.341   1.757   6.687 -0.3525  0.0439  0.6501
  403MOL0     C54272   1.357   1.638   6.658 -0.2404  0.2888  0.5200
  403MOL0     O54273   1.478   1.582   6.624 -0.1564  0.5339  0.0630
  403MOL0     C54274   1.575   1.639   6.545 -0.1897 -0.5830 -0.2033
  403MOL0     C54275   1.686   1.553   6.537  0.0332 -0.2974  0.8274
  403MOL0     C54276   1.801   1.584   6.466  0.0878 -0.3582  0.6339
  403MOL0     C54277   1.811   1.714   6.411  0.4755  0.2083  0.2589
  403MOL0     O54278   1.921   1.760   6.339 -0.5692  0.3725  0.3980
  403MOL0     C54279   2.033   1.774   6.425  0.4134 -0.3709  0.8614
  403MOL0     C54280   2.156   1.778   6.339  0.2104 -0.5809  0.8077
  403MOL0     C54281   2.282   1.815   6.418 -0.1150 -0.3169  0.7520
  403MOL0     C54282   2.288   1.965   6.455 -0.0067  0.1594 -0.5653
  403MOL0     C54283   2.420   1.976   6.534 -0.4498 -0.3692 -0.2307
  403MOL0     C54284   2.540   1.908   6.477 -0.1632 -0.9323  0.1152
  403MOL0     C54285   2.679   1.957   6.528 -0.3191 -0.3958  0.2462
  403MOL0     C54286   2.739   2.079   6.445  0.0417  0.1376 -0.5071
  403MOL0     N54287   2.668   2.204   6.460 -0.3330 -0.5370  0.0806
  403MOL0     C54288   2.694   2.280   6.568  0.2892 -0.5065 -0.0629
  403MOL0     C54289   2.599   2.384   6.554  0.7066  1.0756  0.2579
  403MOL0     C54290   2.577   2.506   6.642 -0.4820 -0.4174  0.8444
  403MOL0     C54291   2.466   2.496   6.743 -0.3197 -0.2841 -0.1316
  403MOL0     C54292   2.491   2.389   6.851 -0.5398  0.5549  0.0779
  403MOL0     C54293   2.374   2.289   6.835  0.1075 -0.5902  0.1259
  403MOL0     O54294   2.369   2.219   6.959 -0.4839  0.3746  0.0024
  403MOL0     C54295   2.289   2.107   6.948 -0.7357 -0.1251 -0.2207
  403MOL0     C54296   2.259   2.052   7.066 -1.0685 -0.1680 -0.1704
  403MOL0     C54297   2.176   1.940   7.069 -0.4047  0.0860 -0.0234
  403MOL0     C54298   2.132   1.872   6.954  1.1778 -0.3121  0.0059
  403MOL0     C54299   2.049   1.749   6.979  0.1147 -0.1576  0.2181
  403MOL0     O54300   2.071   1.687   7.099 -0.2212 -0.1548  0.0630
  403MOL0     C54301   2.015   1.565   7.110 -0.2731 -0.6808 -0.7036
  403MOL0     C54302   1.882   1.537   7.094  0.2373  0.0788 -0.2162
  403MOL0     C54303   1.822   1.422   7.143 -0.4690  0.0135  0.5987
  403MOL0     C54304   1.900   1.321   7.194  0.0491  0.1764  0.0250
  403MOL0     O54305   1.854   1.197   7.216  0.4779  0.0185  0.3235
  403MOL0     C54306   1.886   1.125   7.340 -0.5169  0.8081 -0.5033
  403MOL0     C54307   1.779   1.029   7.383  0.2146 -1.1592 -0.6814
  403MOL0     C54308   1.768   0.906   7.298  0.0596  0.8348  0.4519
  403MOL0     C54309   1.653   0.821   7.348  0.2543  0.1626  1.3369
  403MOL0     C54310   1.657   0.673   7.297  0.3900  0.2184  0.0565
  403MOL0     C54311   1.623   0.665   7.142 -0.4022  0.1579  0.4850
  403MOL0     C54312   1.676   0.532   7.073  0.9341 -0.1406  0.0666
  403MOL0     C54313   1.686   0.550   6.922  0.0426 -0.4236 -0.0368
  403MOL0    Cl54314   1.797   0.683   6.869  0.4831 -0.1454  0.3458
  403MOL0     C54315   2.038   1.346   7.213 -0.1178  0.0421  1.1247
  403MOL0     C54316   2.087   1.470   7.168 -0.8813  0.3223 -0.4914
  403MOL0     O54317   1.981   1.705   6.885  1.0336  0.1271  0.3005
  403MOL0     C54318   2.167   1.923   6.831 -0.6297  0.4059 -0.7928
  403MOL0     C54319   2.235   2.049   6.832  0.3911 -0.0237  1.0438
  403MOL0     N54320   2.507   2.352   6.445 -0.0002 -0.2077 -1.0036
  403MOL0     N54321   2.556   2.249   6.395 -0.3944 -0.2626 -0.2566
  403MOL0     C54322   1.710   1.802   6.432 -0.4126 -0.5955 -0.1466
  403MOL0     C54323   1.588   1.766   6.488  0.0384 -0.1019 -0.1668
  403MOL0     C54324   1.271   1.533   6.712 -0.2125  0.6334 -0.0326
  403MOL0     C54325   1.317   1.396   6.747 -0.6146  0.0931  0.4037
  403MOL0     C54326   1.236   1.299   6.799  0.8332  0.7550 -0.2530
  403MOL0     C54327   1.102   1.320   6.836 -0.2583 -1.6883  1.0285
  403MOL0     O54328   1.012   1.238   6.902  0.7451 -0.0009  1.0230
  403MOL0     C54329   1.030   1.100   6.862 -0.5622 -1.1521  0.0459
  403MOL0     C54330   0.946   1.007   6.949  0.5178 -0.1967  1.4427
  403MOL0     C54331   0.794   1.058   6.940  0.0159  0.4026 -0.2340
  403MOL0     C54332   0.701   0.943   7.002  0.0870  0.7121  0.4082
  403MOL0     C54333   0.720   0.914   7.152  0.9551  0.3188 -0.3554
  403MOL0     C54334   0.719   0.899   7.274 -0.6614 -0.9369 -0.3211
  403MOL0     C54335   1.063   1.456   6.829 -0.2336  1.1256  0.4765
  403MOL0     C54336   1.139   1.551   6.760 -0.8502 -0.8606  0.8796
  403MOL0     C54337   1.069   1.696   6.749 -0.0264  0.4497  0.5447
  403MOL0     H54338   1.681   1.452   6.575  1.1416 -1.3290 -1.5498
  403MOL0     H54339   1.887   1.519   6.469  2.0819  2.1444  1.5617
  403MOL0     H54340   2.014   1.874   6.465 -1.1070  0.7394 -2.2556
  403MOL0     H54341   2.049   1.696   6.499  0.5733 -1.2283 -0.0495
  403MOL0     H54342   2.138   1.842   6.251  0.6659 -2.5658 -0.8007
  403MOL0     H54343   2.170   1.676   6.302  0.5703 -1.6380  3.6520
  403MOL0     H54344   2.368   1.784   6.358  0.3299  0.1941  1.1264
  403MOL0     H54345   2.282   1.760   6.513  0.1035  0.0135  0.9452
  403MOL0     H54346   2.279   2.022   6.362 -3.6212  1.4405  0.4026
  403MOL0     H54347   2.207   2.007   6.515 -1.8681  0.4095 -3.0802
  403MOL0     H54348   2.438   2.082   6.556  1.0929 -0.7562  0.5566
  403MOL0     H54349   2.410   1.925   6.631 -2.2702 -1.7930 -1.1106
  403MOL0     H54350   2.543   1.801   6.499  0.7725 -1.2000 -1.2064
  403MOL0     H54351   2.546   1.917   6.368  0.6820 -3.7575 -0.1324
  403MOL0     H54352   2.748   1.872   6.523  2.3423  1.6586 -0.9752
  403MOL0     H54353   2.678   1.985   6.634  3.4421 -0.1944  0.3855
  403MOL0     H54354   2.848   2.088   6.455  0.2320 -2.0919 -0.1394
  403MOL0     H54355   2.719   2.053   6.341  1.1415  1.6255 -1.1336
  403MOL0     H54356   2.775   2.262   6.638 -0.3648 -0.2707  0.7692
  403MOL0     H54357   2.676   2.530   6.683  0.0012 -2.5999  1.1275
  403MOL0     H54358   2.556   2.588   6.573  4.9268 -0.6428 -1.6066
  403MOL0     H54359   2.457   2.592   6.795 -0.6361 -1.4985  2.1880
  403MOL0     H54360   2.367   2.488   6.698  0.0778  2.3765 -1.6559
  403MOL0     H54361   2.488   2.422   6.956  0.2466  0.2926  0.1860
  403MOL0     H54362   2.586   2.336   6.841 -0.4875 -0.0450  2.7998
  403MOL0     H54363   2.395   2.241   6.739  1.1138  2.3189 -1.2326
  403MOL0     H54364   2.276   2.336   6.819 -1.1283 -2.8076  0.7413
  403MOL0     H54365   2.305   2.099   7.152 -0.5594  0.7452 -0.9232
  403MOL0     H54366   2.157   1.915   7.173 -1.3116 -0.0796 -0.2141
  403MOL0     H54367   1.820   1.609   7.042 -1.3297 -2.3947 -2.0312
  403MOL0     H54368   1.718   1.392   7.130 -0.1414 -1.1881  0.6989
  403MOL0     H54369   1.973   1.061   7.320 -2.6165 -2.4109 -0.1531
  403MOL0     H54370   1.922   1.189   7.421  0.7071  1.4865 -1.5359
  403MOL0     H54371   1.809   1.000   7.484 -2.7468 -0.5798  0.4518
  403MOL0     H54372   1.691   1.088   7.409  0.6176 -0.5438 -0.6808
  403MOL0     H54373   1.744   0.935   7.196 -2.2110  2.4186  1.3536
  403MOL0     H54374   1.857   0.843   7.290  0.4731  1.5267 -0.5161
  403MOL0     H54375   1.560   0.860   7.304  1.0582  1.2027  0.5095
  403MOL0     H54376   1.630   0.836   7.454 -1.0278 -1.2431  1.2973
  403MOL0     H54377   1.584   0.621   7.360 -0.3138  1.4618  0.2961
  403MOL0     H54378   1.756   0.631   7.312 -0.0109 -1.5108 -1.7385
  403MOL0     H54379   1.516   0.685   7.143 -0.2738  1.2283  3.5303
  403MOL0     H54380   1.672   0.744   7.084  2.0234 -1.1809  0.5440
  403MOL0     H54381   1.615   0.445   7.098  0.6856 -0.0171 -0.1025
  403MOL0     H54382   1.778   0.512   7.106 -0.1888 -2.8334  2.2735
  403MOL0     H54383   1.727   0.457   6.881  2.4911  1.0503 -1.1776
  403MOL0     H54384   1.587   0.565   6.877 -1.7360 -2.9306  2.6255
  403MOL0     H54385   2.094   1.272   7.270  1.5285  1.8286  1.9669
  403MOL0     H54386   2.184   1.513   7.191 -1.1953  0.4080  0.7643
  403MOL0     H54387   2.132   1.869   6.744 -0.6958 -0.8220 -0.0296
  403MOL0     H54388   2.248   2.097   6.736 -2.3790 -0.3222  0.4309
  403MOL0     H54389   1.728   1.904   6.400 -0.1497 -1.1795 -1.9670
  403MOL0     H54390   1.516   1.845   6.505  3.1255  2.9577 -0.0840
  403MOL0     H54391   1.419   1.377   6.715 -1.6624  1.0245 -4.1056
  403MOL0     H54392   1.279   1.200   6.809 -0.8009 -0.0380 -0.6622
  403MOL0     H54393   1.136   1.075   6.873  0.1421  0.6629 -1.8740
  403MOL0     H54394   0.992   1.082   6.762  1.6895 -2.1279 -0.6909
  403MOL0     H54395   0.982   1.003   7.052  2.5961  0.0251  0.7775
  403MOL0     H54396   0.968   0.910   6.903  1.6335  0.6724  0.0702
  403MOL0     H54397   0.764   1.090   6.840 -0.7407 -1.5927 -0.6912
  403MOL0     H54398   0.775   1.144   7.006  1.8362 -0.1360  1.0691
  403MOL0     H54399   0.602   0.990   6.999  0.1768  0.8634 -0.3912
  403MOL0     H54400   0.693   0.850   6.945 -3.4038  0.4698  1.0802
  403MOL0     H54401   0.725   0.877   7.379  0.2919 -1.2099 -0.4241
  403MOL0     H54402   0.972   1.493   6.875  0.9889  3.7721  0.9570
  403MOL0     H54403   0.962   1.683   6.768  0.1892  0.5340  1.9190
  403MOL0     H54404   1.109   1.755   6.832 -1.2547 -2.7450  3.6946
  403MOL0     H54405   1.086   1.744   6.652  2.9275  3.0222  2.1580
  404MOL0     O54406   4.882   6.644  10.094  0.6226  0.3265 -0.2700
  404MOL0     C54407   4.813   6.659   9.996  0.1374 -0.5417  0.3986
  404MOL0     O54408   4.815   6.757   9.900  0.3753  0.6870  0.3891
  404MOL0     C54409   4.934   6.822   9.895 -0.2660  0.5533  0.0731
  404MOL0     C54410   5.050   6.763   9.844 -0.0483  0.3424 -0.3481
  404MOL0     C54411   5.163   6.835   9.844  1.0662  1.0099 -0.0878
  404MOL0     C54412   5.177   6.972   9.868  1.0535 -1.4782 -0.0012
  404MOL0     O54413   5.292   7.044   9.880  0.4240 -0.2690 -0.3695
  404MOL0     C54414   5.411   7.001   9.826  0.2075  0.3067 -0.8813
  404MOL0     C54415   5.426   7.036   9.676  0.0959 -0.0805  0.1040
  404MOL0     C54416   5.447   7.182   9.632 -0.5228 -0.9304  0.4279
  404MOL0     C54417   5.337   7.276   9.671  0.2009  0.0490  0.5291
  404MOL0     C54418   5.354   7.409   9.593  0.7348  0.3529 -0.0524
  404MOL0     C54419   5.264   7.520   9.655 -0.5877 -0.5928  1.4724
  404MOL0     C54420   5.297   7.656   9.578 -0.8816  0.2431 -0.3252
  404MOL0     C54421   5.216   7.775   9.640 -0.1872  0.2922  0.2373
  404MOL0     N54422   5.283   7.808   9.769 -0.3915  0.0988  0.4712
  404MOL0     C54423   5.420   7.835   9.790  0.6046 -0.1103 -0.2957
  404MOL0     C54424   5.447   7.874   9.913 -0.2665  0.1437 -0.4214
  404MOL0     C54425   5.577   7.918   9.984  0.3470 -0.6337 -0.5256
  404MOL0     C54426   5.590   7.893  10.139 -0.1150  0.5290 -0.0832
  404MOL0     C54427   5.660   7.756  10.178 -0.6468  0.5551 -0.5287
  404MOL0     C54428   5.819   7.773  10.187  0.2386 -0.6046 -0.5953
  404MOL0     O54429   5.860   7.839  10.069 -0.1248 -0.4877  0.1094
  404MOL0     C54430   5.981   7.865  10.038 -1.3575 -0.1070  0.1275
  404MOL0     C54431   6.006   7.915   9.918 -0.1009 -0.3346  0.1116
  404MOL0     C54432   6.133   7.934   9.869 -0.4703 -0.7157 -0.3443
  404MOL0     C54433   6.248   7.924   9.955  0.2963  0.2898  1.1523
  404MOL0     C54434   6.379   7.957   9.906 -0.3910  0.1940  0.1159
  404MOL0     O54435   6.483   7.932   9.995  1.0206 -1.1969  0.7432
  404MOL0     C54436   6.616   7.939   9.960 -0.3334  0.8811  0.0321
  404MOL0     C54437   6.693   7.916  10.068 -0.0008 -0.2009 -0.0248
  404MOL0     C54438   6.831   7.948  10.056  1.1904  0.5894 -0.2294
  404MOL0     C54439   6.892   7.958   9.932 -0.9093 -0.6824  0.1702
  404MOL0     O54440   7.030   7.954   9.938  0.3810  0.3264  0.3789
  404MOL0     C54441   7.098   7.922   9.815 -0.7695  0.3717  0.1625
  404MOL0     C54442   7.249   7.934   9.833 -0.0449  0.0221 -0.3465
  404MOL0     C54443   7.290   8.074   9.860 -0.4752 -0.1301 -0.1874
  404MOL0     C54444   7.446   8.099   9.881 -0.3803  0.3179 -0.1862
  404MOL0     C54445   7.462   8.251   9.916 -0.0947 -0.0091  0.0414
  404MOL0     C54446   7.412   8.284  10.061 -0.0965 -0.7618 -0.3397
  404MOL0     C54447   7.420   8.435  10.084 -0.0404  0.1803 -0.8539
  404MOL0     C54448   7.396   8.474  10.232 -0.1966 -0.4293 -0.9094
  404MOL0    Cl54449   7.232   8.464  10.289  0.5477  0.4456 -0.2921
  404MOL0     C54450   6.811   7.946   9.817 -0.8369 -0.7849  0.1662
  404MOL0     C54451   6.673   7.943   9.832  0.1207 -0.1928 -0.4346
  404MOL0     O54452   6.388   7.988   9.788  0.5840  0.1332 -0.7503
  404MOL0     C54453   6.227   7.868  10.079 -0.5822  0.1016 -0.3782
  404MOL0     C54454   6.098   7.841  10.123  0.1066 -0.7895 -0.3493
  404MOL0     N54455   5.325   7.867   9.980  0.7540 -0.3471 -0.0853
  404MOL0     N54456   5.231   7.833   9.895 -0.0724  0.2027 -0.3043
  404MOL0     C54457   5.060   7.028   9.911  0.0517  1.0349  0.4694
  404MOL0     C54458   4.937   6.957   9.925  0.1693 -0.2831 -0.5277
  404MOL0     C54459   4.696   6.565   9.976  0.4623  0.8219  0.1918
  404MOL0     C54460   4.566   6.617   9.973 -0.3008  1.1585  0.4157
  404MOL0     C54461   4.449   6.540   9.961 -0.2166 -0.3482 -0.4634
  404MOL0     C54462   4.467   6.407   9.913  0.5969  0.2463 -0.6190
  404MOL0     O54463   4.364   6.315   9.876 -0.5508  0.1945 -0.5831
  404MOL0     C54464   4.231   6.330   9.937  0.1318  0.0925  0.5612
  404MOL0     C54465   4.159   6.195   9.944  0.7857 -0.6447 -0.7565
  404MOL0     C54466   4.039   6.204  10.025  0.5544 -0.6296 -0.1717
  404MOL0     C54467   3.927   6.286   9.951  0.0439 -1.0369  0.6738
  404MOL0     C54468   3.867   6.209   9.841 -0.9874  0.1006  0.5111
  404MOL0     C54469   3.816   6.152   9.751 -1.0513 -0.6608  0.2784
  404MOL0     C54470   4.598   6.344   9.917 -0.0113 -0.8283  0.2236
  404MOL0     C54471   4.711   6.425   9.944 -0.1601 -0.2978  0.2549
  404MOL0     C54472   4.851   6.361   9.964  0.0450  0.2315 -0.3228
  404MOL0     H54473   5.048   6.657   9.821 -0.7494 -0.4166  2.7387
  404MOL0     H54474   5.253   6.784   9.813  1.7300  0.1532  2.9443
  404MOL0     H54475   5.490   7.046   9.887  0.7762 -2.1886  0.3733
  404MOL0     H54476   5.420   6.893   9.842  2.5860  0.6850  0.9232
  404MOL0     H54477   5.338   6.998   9.625  0.0067 -1.1883  1.0390
  404MOL0     H54478   5.513   6.980   9.640  0.1980  0.4726 -0.5419
  404MOL0     H54479   5.471   7.181   9.526  0.3427  3.8008  0.3616
  404MOL0     H54480   5.535   7.221   9.684  0.3944 -1.0811 -0.9577
  404MOL0     H54481   5.246   7.218   9.652 -1.8040  2.7157  1.3507
  404MOL0     H54482   5.343   7.287   9.779  0.6406  0.9661  0.4228
  404MOL0     H54483   5.454   7.450   9.607  0.4223  0.7993  1.0346
  404MOL0     H54484   5.328   7.402   9.487  1.5032  1.3806 -0.3177
  404MOL0     H54485   5.157   7.503   9.643 -0.4409  0.5005 -4.3516
  404MOL0     H54486   5.291   7.534   9.760 -0.4578  1.1500  1.2393
  404MOL0     H54487   5.273   7.645   9.472  0.6237 -2.6057 -0.4528
  404MOL0     H54488   5.404   7.676   9.589 -0.8803  0.3563 -0.5361
  404MOL0     H54489   5.228   7.859   9.571  1.3182 -1.9369 -2.3810
  404MOL0     H54490   5.109   7.753   9.644  0.0657 -2.2627 -2.9015
  404MOL0     H54491   5.493   7.826   9.710 -0.9972  0.2981 -1.8557
  404MOL0     H54492   5.665   7.881   9.931  1.6409 -0.6410  1.5185
  404MOL0     H54493   5.562   8.026   9.975 -3.1828 -0.6380  2.7047
  404MOL0     H54494   5.639   7.974  10.195 -0.1413  1.6337 -1.5848
  404MOL0     H54495   5.488   7.884  10.179 -0.8712  0.1183 -2.0104
  404MOL0     H54496   5.625   7.685  10.102 -2.8336  0.8509  0.1281
  404MOL0     H54497   5.621   7.732  10.277 -1.2002  0.5489 -0.7420
  404MOL0     H54498   5.878   7.681  10.198  0.7262 -0.2166  0.1611
  404MOL0     H54499   5.840   7.827  10.281  4.1623 -2.0093 -0.4551
  404MOL0     H54500   5.917   7.945   9.864 -0.6485 -0.3799  0.9715
  404MOL0     H54501   6.150   7.970   9.768  4.3492 -1.4911 -0.0499
  404MOL0     H54502   6.653   7.896  10.166 -3.0643  2.1731 -0.6247
  404MOL0     H54503   6.889   7.959  10.147  0.3547 -0.5552  0.4747
  404MOL0     H54504   7.085   7.813   9.807 -1.3615  0.3154  1.6163
  404MOL0     H54505   7.057   7.974   9.728 -2.3913  1.5661  1.5730
  404MOL0     H54506   7.287   7.868   9.911  0.5965  2.5802  1.6556
  404MOL0     H54507   7.306   7.899   9.746  2.4041  2.1282  0.2920
  404MOL0     H54508   7.260   8.141   9.779 -0.9053  0.5853  0.5463
  404MOL0     H54509   7.239   8.113   9.948 -1.7974  1.0753 -1.4564
  404MOL0     H54510   7.507   8.072   9.794  0.8091 -1.6191  1.1623
  404MOL0     H54511   7.496   8.044   9.961 -1.2568  0.8407  0.7421
  404MOL0     H54512   7.420   8.316   9.838 -0.1724 -0.2563 -0.1224
  404MOL0     H54513   7.569   8.273   9.927  0.1623 -1.2578  0.1346
  404MOL0     H54514   7.312   8.247  10.083 -0.0500 -0.6341  0.0955
  404MOL0     H54515   7.478   8.246  10.140  0.8029 -1.9788 -1.6114
  404MOL0     H54516   7.358   8.483  10.007 -0.1961 -3.3355 -3.1714
  404MOL0     H54517   7.518   8.474  10.057 -0.7866  1.4335 -1.8575
  404MOL0     H54518   7.473   8.429  10.294  2.4827  0.5136 -3.3438
  404MOL0     H54519   7.409   8.582  10.242  0.8346 -0.7480  5.9319
  404MOL0     H54520   6.862   7.937   9.721  2.5580  0.0871  1.7469
  404MOL0     H54521   6.608   7.946   9.745  0.2354 -1.1111 -0.5609
  404MOL0     H54522   6.314   7.860  10.144  2.0765 -0.8535 -3.7366
  404MOL0     H54523   6.074   7.821  10.227 -0.0873 -0.1298 -0.2635
  404MOL0     H54524   5.053   7.133   9.940 -2.7922  1.4629 -1.3968
  404MOL0     H54525   4.850   7.004   9.969  0.4742  0.4948 -0.7400
  404MOL0     H54526   4.571   6.722   9.998  3.8166  1.0416  0.6621
  404MOL0     H54527   4.355   6.593   9.951 -0.0213  0.1163  0.1001
  404MOL0     H54528   4.174   6.400   9.874  0.8781 -0.8261 -1.2121
  404MOL0     H54529   4.243   6.374  10.036  1.9749  1.2427 -0.1287
  404MOL0     H54530   4.224   6.122   9.995 -1.3713 -1.5621  0.8663
  404MOL0     H54531   4.144   6.151   9.845  1.1788 -0.4408 -0.9076
  404MOL0     H54532   4.066   6.267  10.110 -0.6251  1.1247 -1.0331
  404MOL0     H54533   4.003   6.108  10.064  2.8714 -0.7803  1.7897
  404MOL0     H54534   3.847   6.325  10.014  0.5828 -2.3683  2.2434
  404MOL0     H54535   3.974   6.374   9.905 -0.5368 -0.7771  0.5672
  404MOL0     H54536   3.759   6.109   9.671 -1.4974  2.4479 -1.2119
  404MOL0     H54537   4.608   6.238   9.895 -1.3383 -1.8128  3.6666
  404MOL0     H54538   4.877   6.285   9.890  0.3402  1.2440 -1.3086
  404MOL0     H54539   4.938   6.428   9.966  0.0459  0.2208  1.3268
  404MOL0     H54540   4.856   6.329  10.068  1.3300  1.2823 -0.0268
  405MOL0     O54541   5.738   4.289   2.497 -0.3991 -0.5414 -0.0461
  405MOL0     C54542   5.704   4.380   2.573 -1.1695  0.6204  0.8395
  405MOL0     O54543   5.788   4.481   2.623  0.1757 -0.1214 -0.5162
  405MOL0     C54544   5.921   4.468   2.592  0.3060  1.1715  0.1706
  405MOL0     C54545   5.991   4.567   2.531  0.0534  0.0631 -0.3085
  405MOL0     C54546   6.124   4.545   2.494 -0.4744 -0.7870  0.2172
  405MOL0     C54547   6.188   4.418   2.503  0.9853 -0.4066  0.1795
  405MOL0     O54548   6.317   4.397   2.457  0.2081 -0.3915 -0.7641
  405MOL0     C54549   6.407   4.433   2.564 -0.8529  0.3983  0.2340
  405MOL0     C54550   6.544   4.412   2.501  0.5438  0.2190  0.1801
  405MOL0     C54551   6.650   4.414   2.613 -0.2946  0.5539 -1.1528
  405MOL0     C54552   6.783   4.453   2.544 -0.4467 -0.3159  0.4501
  405MOL0     C54553   6.899   4.405   2.625 -1.2413 -0.1145  0.2729
  405MOL0     C54554   6.928   4.493   2.747  0.0815 -0.9364 -0.4363
  405MOL0     C54555   7.027   4.439   2.858  0.9235  0.2540  0.2442
  405MOL0     C54556   7.152   4.373   2.804  0.0169 -0.1186 -0.1876
  405MOL0     N54557   7.263   4.412   2.891 -1.1661  0.0624 -0.5441
  405MOL0     C54558   7.320   4.537   2.881 -0.1406 -0.1783 -0.1761
  405MOL0     C54559   7.415   4.536   2.981  0.7098 -0.5240  0.5869
  405MOL0     C54560   7.494   4.652   3.008  0.5467  0.1332  0.3701
  405MOL0     C54561   7.644   4.613   3.010 -0.5277 -0.0309  0.3052
  405MOL0     C54562   7.729   4.726   3.075 -0.1004  0.9839 -0.1955
  405MOL0     C54563   7.878   4.718   3.049  1.0684 -0.2455 -0.1022
  405MOL0     O54564   7.901   4.745   2.914  0.0628 -0.1798 -0.1607
  405MOL0     C54565   8.023   4.706   2.857  0.1011 -0.9067  0.3696
  405MOL0     C54566   8.132   4.649   2.920 -0.0802 -0.0634 -0.2559
  405MOL0     C54567   8.257   4.625   2.853  0.8005  0.3122  0.0001
  405MOL0     C54568   8.267   4.646   2.713  0.2761  0.5185 -0.3080
  405MOL0     C54569   8.389   4.627   2.643 -0.4265 -0.2044 -1.0843
  405MOL0     O54570   8.507   4.630   2.715  0.5200  0.2229 -0.4754
  405MOL0     C54571   8.620   4.584   2.655  0.2413 -0.4203 -0.9845
  405MOL0     C54572   8.728   4.670   2.631  0.1095  0.5457  0.8740
  405MOL0     C54573   8.851   4.623   2.561  0.1600 -1.2927 -0.2409
  405MOL0     C54574   8.866   4.490   2.539  0.3775 -0.4978  0.4282
  405MOL0     O54575   8.986   4.433   2.490  0.1509  0.0307  0.2059
  405MOL0     C54576   9.093   4.448   2.582 -1.0130 -0.0962  0.0727
  405MOL0     C54577   9.213   4.368   2.528  0.7312  0.4924 -0.6348
  405MOL0     C54578   9.243   4.398   2.377 -0.0019 -1.1432 -0.0963
  405MOL0     C54579   9.351   4.504   2.362  0.0141 -0.2586  0.1245
  405MOL0     C54580   9.495   4.458   2.413  0.3874  0.2833  0.4889
  405MOL0     C54581   9.568   4.380   2.303  0.2682  0.3129  0.1795
  405MOL0     C54582   9.720   4.366   2.330  0.1906  0.6486  0.2662
  405MOL0     C54583   9.769   4.232   2.273 -0.3916  0.0363 -0.1468
  405MOL0    Cl54584   9.945   4.210   2.276 -0.4707  0.2935  0.2148
  405MOL0     C54585   8.755   4.405   2.579  0.1583 -0.3926  1.1692
  405MOL0     C54586   8.636   4.448   2.636 -0.0676 -0.9691 -0.6518
  405MOL0     O54587   8.384   4.610   2.521  1.0293 -0.1961 -0.4902
  405MOL0     C54588   8.151   4.693   2.649 -0.0484 -0.2222 -0.3426
  405MOL0     C54589   8.031   4.719   2.718 -0.3003  0.0547 -0.0944
  405MOL0     N54590   7.408   4.420   3.056 -0.7966  0.5996  0.5138
  405MOL0     N54591   7.323   4.342   2.994  0.2363  0.0574  0.8972
  405MOL0     C54592   6.114   4.321   2.570 -0.3641 -0.0560 -0.0731
  405MOL0     C54593   5.986   4.343   2.619  0.0222 -0.3734  0.0714
  405MOL0     C54594   5.565   4.358   2.623 -1.1046  0.0588 -1.0335
  405MOL0     C54595   5.484   4.262   2.555 -0.0282 -0.3313 -0.0704
  405MOL0     C54596   5.358   4.237   2.614  0.5691 -0.8289  0.1871
  405MOL0     C54597   5.304   4.303   2.722  0.2090  0.1797  0.2464
  405MOL0     O54598   5.175   4.262   2.758 -0.2314 -1.2873  0.7244
  405MOL0     C54599   5.108   4.314   2.879 -1.5302  0.5764  0.8193
  405MOL0     C54600   5.160   4.240   3.003 -0.0717 -0.3332 -0.0753
  405MOL0     C54601   5.119   4.088   3.016  0.4363 -0.1209 -0.4574
  405MOL0     C54602   4.992   4.069   3.075  0.5837  0.5503  0.3498
  405MOL0     C54603   4.881   4.091   2.983 -0.4990  0.7931 -0.2545
  405MOL0     C54604   4.776   4.092   2.925  0.3745 -0.0525 -0.9741
  405MOL0     C54605   5.391   4.388   2.791  0.0535 -0.8300  0.8217
  405MOL0     C54606   5.518   4.414   2.744 -0.2753 -1.2047  0.9399
  405MOL0     C54607   5.607   4.499   2.832  0.9407 -1.0827 -0.0803
  405MOL0     H54608   5.946   4.666   2.536 -1.6051 -0.6553 -0.3870
  405MOL0     H54609   6.186   4.634   2.491 -1.6971  0.1499  1.5508
  405MOL0     H54610   6.394   4.540   2.584 -1.2026  0.3248  0.4094
  405MOL0     H54611   6.395   4.370   2.652 -0.3258  0.8122  0.6086
  405MOL0     H54612   6.558   4.495   2.431  0.1755  0.5384  0.4807
  405MOL0     H54613   6.551   4.316   2.449 -2.2152 -2.2765  3.8367
  405MOL0     H54614   6.658   4.323   2.673  1.6308  1.0999 -0.5334
  405MOL0     H54615   6.625   4.493   2.684 -0.0968 -0.0446 -0.4059
  405MOL0     H54616   6.781   4.408   2.444 -2.4794  1.8796 -0.5998
  405MOL0     H54617   6.782   4.561   2.532  1.2294 -0.2312  0.7938
  405MOL0     H54618   6.885   4.308   2.674  0.9479  0.8104  3.0062
  405MOL0     H54619   6.985   4.392   2.558 -0.5552 -0.2633  1.1511
  405MOL0     H54620   6.959   4.594   2.719  1.9128 -1.1318  0.7598
  405MOL0     H54621   6.833   4.512   2.799  0.1820  1.5510 -1.0260
  405MOL0     H54622   6.977   4.357   2.912  0.4512  1.0201  0.9968
  405MOL0     H54623   7.054   4.517   2.929 -0.8159  2.7953 -1.6900
  405MOL0     H54624   7.141   4.264   2.800 -1.9381  0.0797 -1.9122
  405MOL0     H54625   7.174   4.409   2.704  3.9683  0.9176  0.8877
  405MOL0     H54626   7.285   4.611   2.810  2.9164 -0.0338 -1.7220
  405MOL0     H54627   7.466   4.734   2.941 -0.1932  1.6799  2.4779
  405MOL0     H54628   7.471   4.680   3.111  1.5211 -1.4096  1.0340
  405MOL0     H54629   7.650   4.519   3.064 -1.2221 -0.1271  0.2172
  405MOL0     H54630   7.679   4.595   2.908 -3.2760  0.7058 -0.8617
  405MOL0     H54631   7.726   4.722   3.184  1.3176  2.4711 -0.0706
  405MOL0     H54632   7.684   4.820   3.042 -1.9103 -0.1424 -1.1195
  405MOL0     H54633   7.900   4.612   3.060 -0.6994 -0.8924 -2.1495
  405MOL0     H54634   7.932   4.791   3.110 -2.1417  3.1507 -0.9129
  405MOL0     H54635   8.135   4.625   3.026  0.6076 -3.2517 -0.8754
  405MOL0     H54636   8.338   4.590   2.917 -0.1501 -1.3448  0.3566
  405MOL0     H54637   8.705   4.774   2.651 -2.3378  0.1386  0.5222
  405MOL0     H54638   8.927   4.696   2.535 -3.3512  1.5439 -3.6636
  405MOL0     H54639   9.119   4.551   2.605  1.5587 -0.8391  0.8049
  405MOL0     H54640   9.071   4.400   2.678  3.6393 -2.8090  0.0609
  405MOL0     H54641   9.297   4.373   2.598  0.3993 -2.9364  0.2016
  405MOL0     H54642   9.185   4.262   2.523  1.8503  0.1741 -0.4126
  405MOL0     H54643   9.289   4.305   2.341  5.9866 -0.0121  3.3736
  405MOL0     H54644   9.150   4.427   2.327 -1.5183 -2.1420  1.9759
  405MOL0     H54645   9.336   4.590   2.428 -0.7712 -1.0519  1.0079
  405MOL0     H54646   9.360   4.540   2.260  2.2481 -0.9178  0.0287
  405MOL0     H54647   9.488   4.408   2.510 -1.5984 -0.2523  0.1028
  405MOL0     H54648   9.545   4.550   2.447 -0.0368  0.1539  1.4833
  405MOL0     H54649   9.523   4.281   2.296  1.9390 -0.3589 -3.1343
  405MOL0     H54650   9.560   4.427   2.205 -3.7337 -2.4338 -1.0451
  405MOL0     H54651   9.724   4.363   2.440 -1.2581 -0.6779  0.3238
  405MOL0     H54652   9.768   4.454   2.287  1.0708  0.9810  1.8560
  405MOL0     H54653   9.729   4.138   2.312 -1.1931  1.0120  1.5385
  405MOL0     H54654   9.741   4.227   2.167  2.1982 -1.8536 -0.8272
  405MOL0     H54655   8.784   4.300   2.570  3.5968  0.2229  3.0090
  405MOL0     H54656   8.564   4.373   2.666 -0.2599 -0.0291  1.3621
  405MOL0     H54657   8.155   4.705   2.541  1.0915 -0.3146 -0.3279
  405MOL0     H54658   7.951   4.770   2.666 -1.1192 -0.3071  0.7845
  405MOL0     H54659   6.164   4.226   2.585  0.3239  0.3366  0.1586
  405MOL0     H54660   5.927   4.256   2.648 -0.4265  0.2212  0.9756
  405MOL0     H54661   5.510   4.211   2.463  2.1520 -0.8373  0.7719
  405MOL0     H54662   5.295   4.158   2.572 -0.8064 -0.2723  1.1448
  405MOL0     H54663   5.001   4.318   2.858 -1.2914  2.3128 -0.2510
  405MOL0     H54664   5.146   4.416   2.890  1.2302 -0.4604  1.7730
  405MOL0     H54665   5.115   4.283   3.093 -1.2579 -0.8150 -0.4101
  405MOL0     H54666   5.268   4.248   2.996  0.3935 -0.9370  4.1179
  405MOL0     H54667   5.197   4.038   3.075 -0.5206  1.1030  2.0132
  405MOL0     H54668   5.116   4.056   2.912 -0.2665  0.0767 -0.4983
  405MOL0     H54669   4.990   3.963   3.102  1.5843  0.5727  0.5713
  405MOL0     H54670   4.976   4.128   3.166  1.1228 -2.1087  2.2955
  405MOL0     H54671   4.678   4.102   2.883 -0.7502  1.8454  1.7665
  405MOL0     H54672   5.353   4.435   2.881  1.2354  1.0535  0.4007
  405MOL0     H54673   5.709   4.461   2.839  1.5267  0.6152  1.3749
  405MOL0     H54674   5.622   4.600   2.792  0.7643 -1.1002 -0.1933
  405MOL0     H54675   5.573   4.507   2.936  1.2921  0.4080 -0.0564
  406MOL0     O54676   1.824   6.849   8.886  0.5491  0.4750 -0.9118
  406MOL0     C54677   1.787   6.783   8.793  0.3107 -0.1871 -0.3458
  406MOL0     O54678   1.754   6.647   8.802 -0.4409  0.3402  0.5145
  406MOL0     C54679   1.753   6.567   8.911  1.2528 -0.4688 -0.4854
  406MOL0     C54680   1.733   6.606   9.046 -0.4028  0.3198 -0.0462
  406MOL0     C54681   1.717   6.518   9.149  0.1918  0.0333  0.1042
  406MOL0     C54682   1.715   6.381   9.112  0.7886 -0.2257  0.2411
  406MOL0     O54683   1.676   6.287   9.202 -0.5129  0.4975  0.2525
  406MOL0     C54684   1.534   6.269   9.202  0.1125  0.3493  0.8718
  406MOL0     C54685   1.485   6.250   9.338 -0.4273 -0.4524  0.3238
  406MOL0     C54686   1.535   6.116   9.380  0.0165  0.3479 -0.1248
  406MOL0     C54687   1.523   6.103   9.540  0.1152 -0.6416 -0.2468
  406MOL0     C54688   1.570   5.974   9.598 -0.1357  0.4329  0.1184
  406MOL0     C54689   1.488   5.848   9.567 -0.3183  0.2799 -0.1369
  406MOL0     C54690   1.570   5.729   9.616 -0.8698  0.5597  0.4936
  406MOL0     C54691   1.524   5.602   9.552  1.0227 -0.6089 -0.6753
  406MOL0     N54692   1.379   5.596   9.536 -0.3790  0.2115 -0.6076
  406MOL0     C54693   1.307   5.506   9.612 -0.4085 -0.1922  0.3854
  406MOL0     C54694   1.181   5.515   9.563  0.4063 -0.4375  0.5418
  406MOL0     C54695   1.047   5.461   9.610  0.3610  1.0175 -0.9570
  406MOL0     C54696   1.043   5.442   9.765  0.6210  0.0069 -0.0816
  406MOL0     C54697   0.904   5.419   9.822  0.2085  0.6936  0.1002
  406MOL0     C54698   0.815   5.322   9.751 -0.2958 -0.2718  0.5535
  406MOL0     O54699   0.876   5.197   9.745 -0.4040  0.7505 -0.2842
  406MOL0     C54700   0.815   5.090   9.682 -0.7438 -0.1835 -0.2419
  406MOL0     C54701   0.877   4.968   9.689 -0.5539  0.3328  0.1798
  406MOL0     C54702   0.816   4.862   9.624  0.2505  0.5464 -0.4094
  406MOL0     C54703   0.690   4.871   9.558  0.6741  1.0651  0.8478
  406MOL0     C54704   0.633   4.748   9.491  0.6856  0.6277  0.6929
  406MOL0     O54705   0.541   4.757   9.390  0.9517 -0.5404  0.3336
  406MOL0     C54706   0.484   4.639   9.348 -0.4306 -0.5165 -1.0828
  406MOL0     C54707   0.352   4.624   9.372  0.9167  0.6526  0.5408
  406MOL0     C54708   0.288   4.522   9.303  0.0804  0.2205 -1.0734
  406MOL0     C54709   0.356   4.442   9.215 -0.2482  0.2825  0.1811
  406MOL0     O54710   0.284   4.341   9.158 -0.3613 -0.3645  0.3181
  406MOL0     C54711   0.327   4.205   9.198 -0.2608  0.2304 -0.5216
  406MOL0     C54712   0.249   4.093   9.132  0.4231 -1.3109  0.8168
  406MOL0     C54713   0.099   4.088   9.174 -0.3749  0.7583  0.0726
  406MOL0     C54714   0.022   4.008   9.065  0.6875 -0.2617 -0.4633
  406MOL0     C54715  -0.127   4.018   9.107 -0.0677 -0.0927 -0.6749
  406MOL0     C54716  -0.213   3.938   8.999  1.0123  0.3272 -0.6201
  406MOL0     C54717  -0.370   3.938   9.028 -0.2459  0.0289  0.1620
  406MOL0     C54718  -0.445   3.876   8.910 -0.4215  0.2410 -0.1163
  406MOL0    Cl54719  -0.403   3.935   8.755 -0.0124 -0.3273  0.1074
  406MOL0     C54720   0.494   4.456   9.191 -0.1969 -1.0276 -0.1145
  406MOL0     C54721   0.556   4.569   9.252  0.8809  0.7812  0.6984
  406MOL0     O54722   0.687   4.640   9.519  0.1665 -0.1072 -0.6237
  406MOL0     C54723   0.625   4.996   9.563  0.1117  0.8086 -0.0021
  406MOL0     C54724   0.691   5.097   9.622  0.5669 -0.4949 -0.2569
  406MOL0     N54725   1.188   5.605   9.448 -0.5590  0.1033 -0.6230
  406MOL0     N54726   1.307   5.647   9.435 -0.1470  0.2672 -0.0480
  406MOL0     C54727   1.745   6.336   8.983  0.8526 -0.6171 -0.3005
  406MOL0     C54728   1.762   6.432   8.881 -0.9058 -0.4051  0.6878
  406MOL0     C54729   1.768   6.863   8.667  0.2990  0.2515 -0.2099
  406MOL0     C54730   1.809   6.994   8.668  0.1691 -0.6128  0.5288
  406MOL0     C54731   1.804   7.076   8.563 -0.7247 -0.4891  0.3841
  406MOL0     C54732   1.763   7.025   8.440  0.0421 -0.7504  0.5946
  406MOL0     O54733   1.724   7.101   8.335 -0.7272 -0.7813  0.2753
  406MOL0     C54734   1.772   7.239   8.318 -0.7717  0.0773  0.0784
  406MOL0     C54735   1.905   7.251   8.231  0.2091  0.1902 -0.0416
  406MOL0     C54736   2.014   7.147   8.265 -0.0433 -0.3158  0.2434
  406MOL0     C54737   2.127   7.163   8.158  0.6843  0.2255  0.3114
  406MOL0     C54738   2.247   7.088   8.194 -0.3212 -0.8044  0.1650
  406MOL0     C54739   2.347   7.021   8.229  0.1654  0.6268 -0.3011
  406MOL0     C54740   1.712   6.897   8.435 -0.0718 -0.8233 -0.2681
  406MOL0     C54741   1.708   6.817   8.552  0.4187  0.3803  0.1550
  406MOL0     C54742   1.648   6.672   8.539  0.2523 -0.0214 -0.3547
  406MOL0     H54743   1.720   6.713   9.063 -1.3577  0.1223  0.5537
  406MOL0     H54744   1.703   6.546   9.253  1.8408 -1.4487  0.7725
  406MOL0     H54745   1.492   6.353   9.146 -1.9305 -1.7527 -0.9697
  406MOL0     H54746   1.504   6.188   9.135  0.7937 -0.3841  1.4369
  406MOL0     H54747   1.376   6.252   9.348 -0.2734  0.2983  2.3273
  406MOL0     H54748   1.525   6.339   9.388  2.0062  0.4950 -3.0167
  406MOL0     H54749   1.643   6.123   9.362  0.0263 -0.7968 -0.5783
  406MOL0     H54750   1.505   6.025   9.328 -0.1548  0.9030 -1.0132
  406MOL0     H54751   1.580   6.183   9.589  0.8576 -1.2545 -0.0925
  406MOL0     H54752   1.418   6.117   9.569 -0.3355 -3.2555 -0.3880
  406MOL0     H54753   1.675   5.954   9.573  0.4043 -1.7635  3.4705
  406MOL0     H54754   1.579   5.995   9.705  2.0255  3.9686 -0.6226
  406MOL0     H54755   1.387   5.858   9.607  0.5572  0.2829  2.2244
  406MOL0     H54756   1.480   5.827   9.460  3.7548 -3.9973  0.0648
  406MOL0     H54757   1.563   5.716   9.724  1.7390 -0.5357  0.6086
  406MOL0     H54758   1.676   5.747   9.596 -0.5917 -0.9185  0.5490
  406MOL0     H54759   1.582   5.591   9.460  3.0947 -0.5358  0.5546
  406MOL0     H54760   1.542   5.512   9.612  0.8623 -0.8019 -0.9150
  406MOL0     H54761   1.359   5.464   9.697  1.9072  0.6347 -0.5166
  406MOL0     H54762   0.971   5.528   9.568 -2.1555 -0.8364  0.4299
  406MOL0     H54763   1.023   5.369   9.557  1.2480  0.5134 -0.5051
  406MOL0     H54764   1.111   5.365   9.804  0.6109  0.9550  1.9204
  406MOL0     H54765   1.073   5.542   9.800  1.8307  0.8584 -3.2276
  406MOL0     H54766   0.856   5.517   9.834 -0.4140  0.4087 -0.0209
  406MOL0     H54767   0.910   5.377   9.923 -1.1849 -0.0206 -0.0843
  406MOL0     H54768   0.792   5.352   9.649  3.4031  1.1496 -0.0085
  406MOL0     H54769   0.726   5.322   9.815  0.7065 -0.1352  1.9990
  406MOL0     H54770   0.978   4.965   9.730 -0.5243 -0.5609  0.0679
  406MOL0     H54771   0.854   4.760   9.626 -0.0177  0.3083 -3.2627
  406MOL0     H54772   0.295   4.684   9.442  0.9697  0.5384  0.6828
  406MOL0     H54773   0.183   4.501   9.323 -0.2839  0.4151 -2.6368
  406MOL0     H54774   0.433   4.190   9.175  0.4079  1.7495  1.3677
  406MOL0     H54775   0.311   4.193   9.305  2.8815  0.4983  0.0979
  406MOL0     H54776   0.262   4.103   9.024  2.5534 -1.7392  0.9755
  406MOL0     H54777   0.298   3.999   9.161  0.2106 -0.5260  4.1820
  406MOL0     H54778   0.092   4.038   9.272 -0.8636 -5.1164 -2.5340
  406MOL0     H54779   0.050   4.185   9.172 -1.6358  0.1260 -1.0321
  406MOL0     H54780   0.042   3.900   9.066 -1.5942 -0.7355  0.4401
  406MOL0     H54781   0.046   4.047   8.966  1.0453 -0.8804 -0.6282
  406MOL0     H54782  -0.154   4.124   9.102  0.5265  0.0699 -0.4933
  406MOL0     H54783  -0.139   3.975   9.207  1.2460 -0.0440 -0.4843
  406MOL0     H54784  -0.187   3.975   8.899  1.2168 -0.9852 -1.0762
  406MOL0     H54785  -0.186   3.832   8.998 -0.5505 -0.1674  1.2951
  406MOL0     H54786  -0.419   4.036   9.037 -0.2949 -0.0280  0.5390
  406MOL0     H54787  -0.394   3.886   9.121 -0.7891  0.0051  0.0122
  406MOL0     H54788  -0.435   3.768   8.916  2.8822  0.4234 -0.7051
  406MOL0     H54789  -0.553   3.894   8.915 -0.0695  2.3491  1.6644
  406MOL0     H54790   0.552   4.396   9.122 -0.9726 -0.7909 -0.9947
  406MOL0     H54791   0.659   4.589   9.223  0.4884 -0.2706 -1.6253
  406MOL0     H54792   0.521   5.004   9.533 -0.1418 -1.1478  0.1888
  406MOL0     H54793   0.637   5.191   9.621  0.0448 -0.7419  1.2831
  406MOL0     H54794   1.741   6.229   8.963 -0.2233 -0.7533  0.5367
  406MOL0     H54795   1.767   6.398   8.778 -0.8248  1.1639  0.1331
  406MOL0     H54796   1.865   7.036   8.751  1.4554 -0.5161 -0.3584
  406MOL0     H54797   1.843   7.177   8.566 -0.9964 -0.3754  0.1644
  406MOL0     H54798   1.791   7.289   8.413  3.0185 -0.9335  0.0170
  406MOL0     H54799   1.699   7.293   8.256 -0.0080 -0.2050 -1.1149
  406MOL0     H54800   1.943   7.352   8.248 -1.7780  1.3123 -1.8255
  406MOL0     H54801   1.877   7.246   8.125  0.7205  0.1335 -0.1799
  406MOL0     H54802   1.979   7.043   8.264  1.2610 -0.7739 -0.5974
  406MOL0     H54803   2.036   7.174   8.369 -2.0866  2.1577  0.1086
  406MOL0     H54804   2.098   7.115   8.064 -0.8195 -1.7053  1.6687
  406MOL0     H54805   2.159   7.267   8.151  0.5610  0.2015 -0.8928
  406MOL0     H54806   2.431   6.967   8.268 -0.2177  1.1216  1.2772
  406MOL0     H54807   1.661   6.865   8.345  1.1112 -0.2931 -1.1496
  406MOL0     H54808   1.590   6.660   8.447 -1.2436  1.1752  0.3813
  406MOL0     H54809   1.734   6.605   8.546  2.6585  2.9596  1.1380
  406MOL0     H54810   1.581   6.656   8.625  1.2517 -0.0513  0.4338
  407MOL0     O54811   3.290   3.424   7.389 -0.3141  0.1835 -0.0316
  407MOL0     C54812   3.257   3.330   7.460  0.2202 -0.3512 -0.0174
  407MOL0     O54813   3.127   3.266   7.460  0.2561  0.1412  0.1473
  407MOL0     C54814   3.042   3.302   7.358  0.0196  0.2465 -0.3604
  407MOL0     C54815   2.955   3.410   7.354  0.2542 -0.4769  0.5197
  407MOL0     C54816   2.870   3.434   7.249 -0.8120  0.4687  0.2674
  407MOL0     C54817   2.875   3.342   7.139  1.1123  0.2293  0.1707
  407MOL0     O54818   2.797   3.342   7.029  0.1471  0.2297 -0.5161
  407MOL0     C54819   2.687   3.440   7.027  0.0723 -0.0332  0.0441
  407MOL0     C54820   2.613   3.432   6.889  0.1698  0.8466 -0.8616
  407MOL0     C54821   2.697   3.495   6.775  0.0224 -0.9192 -0.5031
  407MOL0     C54822   2.770   3.368   6.707  0.6006 -0.3007 -0.0428
  407MOL0     C54823   2.909   3.413   6.663 -0.0631  0.8842 -0.4440
  407MOL0     C54824   2.992   3.303   6.608  0.5007  0.1511 -1.0150
  407MOL0     C54825   3.050   3.228   6.724  0.7171 -0.4671 -0.0889
  407MOL0     C54826   3.154   3.128   6.680  0.4352  1.5612 -1.2138
  407MOL0     N54827   3.232   3.076   6.801  0.3791  0.2934  0.7809
  407MOL0     C54828   3.207   2.962   6.874  0.9113 -0.5247 -0.2309
  407MOL0     C54829   3.313   2.952   6.964 -0.0931 -0.4431  0.8417
  407MOL0     C54830   3.336   2.845   7.065 -0.0253  0.2534 -0.1592
  407MOL0     C54831   3.312   2.912   7.201  0.1404  0.1506 -0.0449
  407MOL0     C54832   3.279   2.816   7.313 -0.6000 -0.6366 -0.4163
  407MOL0     C54833   3.224   2.872   7.448  0.0014 -0.1791  0.4339
  407MOL0     O54834   3.082   2.897   7.441  0.3565  0.3526  0.1622
  407MOL0     C54835   3.017   2.780   7.423 -0.0040  0.5604  0.3585
  407MOL0     C54836   2.937   2.765   7.311  0.5761 -0.2760 -0.0512
  407MOL0     C54837   2.877   2.643   7.285  0.7086  0.8899  0.5122
  407MOL0     C54838   2.895   2.529   7.362  0.7272  0.0158  0.5056
  407MOL0     C54839   2.827   2.401   7.326 -0.0958 -0.1699  0.1032
  407MOL0     O54840   2.827   2.309   7.424 -0.8383  0.1310  0.5686
  407MOL0     C54841   2.758   2.189   7.420 -0.4417  0.2066  0.0181
  407MOL0     C54842   2.825   2.061   7.421 -0.0445 -0.3257  0.2741
  407MOL0     C54843   2.750   1.941   7.406 -0.0120  0.2747  0.3277
  407MOL0     C54844   2.617   1.946   7.360  0.1252  0.3122 -0.2452
  407MOL0     O54845   2.539   1.844   7.321 -0.3734  0.1109 -0.4674
  407MOL0     C54846   2.588   1.710   7.351  0.8037  0.2885 -0.5558
  407MOL0     C54847   2.468   1.609   7.360 -0.0326 -0.2867 -0.5887
  407MOL0     C54848   2.362   1.646   7.466  0.4613  0.1588  0.3601
  407MOL0     C54849   2.421   1.619   7.612  0.4987 -0.3853  0.1619
  407MOL0     C54850   2.316   1.651   7.719 -0.7056  0.2266  0.0219
  407MOL0     C54851   2.392   1.624   7.855  0.1447 -0.2590 -0.7577
  407MOL0     C54852   2.312   1.682   7.980 -0.1050 -0.4426  0.3117
  407MOL0     C54853   2.384   1.643   8.110  0.2485 -0.4888  0.6469
  407MOL0    Cl54854   2.278   1.603   8.250 -0.1952  0.6421 -0.0732
  407MOL0     C54855   2.555   2.071   7.351  0.0941 -0.6027  0.5197
  407MOL0     C54856   2.623   2.185   7.381  0.0210 -0.1779 -0.1188
  407MOL0     O54857   2.764   2.396   7.225  0.0497  0.9674  0.5301
  407MOL0     C54858   2.959   2.550   7.486 -0.1682  0.2259  0.2766
  407MOL0     C54859   3.018   2.673   7.512 -0.6525  0.9691  0.4533
  407MOL0     N54860   3.403   3.045   6.927 -0.5898  0.1073 -0.0564
  407MOL0     N54861   3.350   3.125   6.834 -0.3198 -0.6151  0.1744
  407MOL0     C54862   2.962   3.239   7.138 -0.5186  0.2587  0.4415
  407MOL0     C54863   3.038   3.214   7.253 -0.3819 -0.1482  0.3986
  407MOL0     C54864   3.358   3.271   7.558  0.1479 -0.0632 -0.1661
  407MOL0     C54865   3.306   3.234   7.679  0.5952  0.5841  0.0041
  407MOL0     C54866   3.393   3.194   7.787  0.7284 -0.2454 -0.8821
  407MOL0     C54867   3.524   3.171   7.765 -0.5410  0.5673 -0.2391
  407MOL0     O54868   3.609   3.119   7.863  0.5920  0.4748  0.5691
  407MOL0     C54869   3.564   3.088   7.998 -0.5258 -0.5256 -0.1678
  407MOL0     C54870   3.554   3.222   8.081 -0.0774 -1.0312  0.2651
  407MOL0     C54871   3.675   3.313   8.068 -0.2752  0.6787  0.2337
  407MOL0     C54872   3.813   3.247   8.116  0.5254 -0.3430  0.3285
  407MOL0     C54873   3.820   3.194   8.253  0.6548 -0.1512  0.3571
  407MOL0     C54874   3.848   3.147   8.361  0.3615 -0.2065  0.1698
  407MOL0     C54875   3.577   3.198   7.637  0.2108  0.3114  0.3761
  407MOL0     C54876   3.497   3.255   7.538  0.2994  0.3033  0.9122
  407MOL0     C54877   3.564   3.279   7.407  0.2084 -0.3585 -0.1934
  407MOL0     H54878   2.961   3.479   7.437  0.9406 -1.4352  1.2809
  407MOL0     H54879   2.808   3.522   7.261 -0.2126  0.5798  3.1080
  407MOL0     H54880   2.610   3.411   7.098 -0.5486  2.7791  0.6287
  407MOL0     H54881   2.718   3.545   7.031 -1.9228  0.6252 -0.6400
  407MOL0     H54882   2.520   3.489   6.896  0.9579  2.0099  1.5520
  407MOL0     H54883   2.596   3.326   6.871  1.8380  0.4156 -0.1748
  407MOL0     H54884   2.770   3.564   6.819  0.6544 -2.6816  1.3382
  407MOL0     H54885   2.635   3.544   6.700  1.6989  1.8260 -0.2379
  407MOL0     H54886   2.770   3.291   6.785 -1.8973 -1.3313 -0.9541
  407MOL0     H54887   2.717   3.321   6.624 -0.4616  1.4610 -0.4075
  407MOL0     H54888   2.906   3.486   6.582 -2.2295 -0.4511 -1.6284
  407MOL0     H54889   2.961   3.453   6.751 -1.5575  0.5493  0.6333
  407MOL0     H54890   2.937   3.227   6.551  0.8568 -0.6943 -0.2657
  407MOL0     H54891   3.077   3.345   6.553  1.7667 -0.3800  0.4540
  407MOL0     H54892   2.966   3.180   6.776  0.8018 -1.8257 -1.1738
  407MOL0     H54893   3.107   3.298   6.786 -1.3707  2.7005 -1.4557
  407MOL0     H54894   3.105   3.048   6.625  2.1916  0.9798 -2.0072
  407MOL0     H54895   3.219   3.182   6.611 -0.1576  1.7667 -1.6216
  407MOL0     H54896   3.117   2.901   6.872  0.2054  0.1540  3.4593
  407MOL0     H54897   3.269   2.765   7.033 -0.5320  1.0098 -1.0413
  407MOL0     H54898   3.438   2.803   7.063  0.4524  1.3947 -0.7149
  407MOL0     H54899   3.409   2.957   7.224 -0.8721  3.4949 -1.6049
  407MOL0     H54900   3.235   2.990   7.191 -2.3002 -2.2079 -0.9179
  407MOL0     H54901   3.379   2.780   7.342 -0.9453 -2.0408 -0.8563
  407MOL0     H54902   3.219   2.731   7.281 -0.3907 -0.7108 -0.6154
  407MOL0     H54903   3.267   2.967   7.483 -0.8157  0.3669 -0.0031
  407MOL0     H54904   3.246   2.798   7.525  0.0378  0.5415  1.1235
  407MOL0     H54905   2.919   2.857   7.256  1.2199  0.7310  1.3668
  407MOL0     H54906   2.828   2.640   7.188  0.5637 -0.3152  0.6121
  407MOL0     H54907   2.931   2.047   7.440 -0.0043 -2.0446 -0.9979
  407MOL0     H54908   2.810   1.850   7.401  0.6737  0.6158  1.7558
  407MOL0     H54909   2.650   1.701   7.262 -0.8104  3.5643 -2.2072
  407MOL0     H54910   2.640   1.712   7.447  0.2857  0.4001 -0.2718
  407MOL0     H54911   2.419   1.596   7.263  0.1569  1.2447 -0.9102
  407MOL0     H54912   2.519   1.516   7.387  1.9182  0.8391 -0.2761
  407MOL0     H54913   2.343   1.754   7.456 -0.8641 -0.2074 -2.0628
  407MOL0     H54914   2.268   1.591   7.458  0.4517  0.4058 -1.8268
  407MOL0     H54915   2.521   1.652   7.642 -0.9644  1.9968  2.9364
  407MOL0     H54916   2.429   1.510   7.624 -0.9904 -0.4887  0.4894
  407MOL0     H54917   2.230   1.584   7.719  0.2031 -1.0078  1.3150
  407MOL0     H54918   2.288   1.756   7.708  3.1680  1.3496 -0.4702
  407MOL0     H54919   2.397   1.516   7.874  0.6067  0.0487  1.0617
  407MOL0     H54920   2.493   1.667   7.850 -0.4140  1.2681  0.4491
  407MOL0     H54921   2.215   1.632   7.979  1.3331 -3.6955  2.9235
  407MOL0     H54922   2.304   1.787   7.951 -2.1667 -1.2934 -2.5742
  407MOL0     H54923   2.421   1.544   8.082 -2.7505 -2.5294  3.2274
  407MOL0     H54924   2.475   1.701   8.127  0.3629 -0.1187 -1.0075
  407MOL0     H54925   2.455   2.072   7.308 -0.4140 -0.7104  1.6446
  407MOL0     H54926   2.579   2.283   7.399  1.1232  0.1210  1.0360
  407MOL0     H54927   2.977   2.471   7.558  0.7771 -1.3778 -1.5976
  407MOL0     H54928   3.074   2.671   7.606 -0.3403 -2.6139  0.3432
  407MOL0     H54929   2.979   3.166   7.059  0.9686  0.2830  0.7021
  407MOL0     H54930   3.118   3.141   7.259  1.1559  1.5576  2.4292
  407MOL0     H54931   3.201   3.244   7.706  0.9798 -0.1511  1.9222
  407MOL0     H54932   3.347   3.179   7.885 -2.1399  0.1226 -2.0520
  407MOL0     H54933   3.643   3.024   8.038  0.8724  0.3598 -1.4207
  407MOL0     H54934   3.466   3.040   7.996 -1.8024  1.8600 -2.6181
  407MOL0     H54935   3.528   3.213   8.186 -5.3540  3.7713 -0.1187
  407MOL0     H54936   3.469   3.274   8.036 -0.3479 -0.9354  0.8855
  407MOL0     H54937   3.655   3.396   8.135 -1.3249  0.0672  0.7076
  407MOL0     H54938   3.682   3.348   7.964  0.5691  3.7435  1.2454
  407MOL0     H54939   3.840   3.176   8.037 -0.4128  2.0535 -2.3367
  407MOL0     H54940   3.885   3.328   8.105  0.3078  0.1295  2.0852
  407MOL0     H54941   3.873   3.102   8.455  1.9052 -3.8817 -1.7733
  407MOL0     H54942   3.674   3.165   7.602 -0.2189  0.1989 -0.7494
  407MOL0     H54943   3.669   3.248   7.403  0.3132 -0.5589  2.6332
  407MOL0     H54944   3.499   3.222   7.340 -0.6014 -2.1630  2.0136
  407MOL0     H54945   3.569   3.387   7.388  3.6976 -0.8036 -2.7763
  408MOL0     O54946   5.882   1.105   3.585  0.1949  0.7416 -0.5885
  408MOL0     C54947   5.768   1.057   3.573  0.1740 -0.1765 -0.2177
  408MOL0     O54948   5.668   1.124   3.502 -0.1576  1.1151 -0.3360
  408MOL0     C54949   5.680   1.256   3.449  0.0706  0.1485 -0.6072
  408MOL0     C54950   5.795   1.322   3.415 -0.1125 -0.3164  0.0920
  408MOL0     C54951   5.783   1.453   3.361 -0.2711  0.1454  0.4145
  408MOL0     C54952   5.663   1.528   3.362 -0.5360  0.2455  0.1351
  408MOL0     O54953   5.643   1.658   3.328  0.5772  0.0540 -0.4776
  408MOL0     C54954   5.754   1.747   3.296 -1.2033 -0.1288 -0.0559
  408MOL0     C54955   5.827   1.797   3.419 -0.0285  0.4872  0.6174
  408MOL0     C54956   5.949   1.878   3.380  0.2569 -0.4044  0.5286
  408MOL0     C54957   5.997   1.954   3.501 -1.1916 -0.8105 -0.3565
  408MOL0     C54958   6.085   1.863   3.586  0.1994 -0.5151  0.0308
  408MOL0     C54959   6.163   1.958   3.692 -0.2605  0.1018  0.0465
  408MOL0     C54960   6.087   2.074   3.750 -1.0497  0.4091  0.4334
  408MOL0     C54961   6.160   2.130   3.871  0.7420  0.2825  0.2331
  408MOL0     N54962   6.295   2.164   3.841 -0.1090 -1.1451  0.2397
  408MOL0     C54963   6.404   2.084   3.852  1.1502  0.1525 -0.3889
  408MOL0     C54964   6.505   2.168   3.855  0.2290  1.2380  0.0394
  408MOL0     C54965   6.652   2.140   3.893 -0.0495 -0.3494  0.8721
  408MOL0     C54966   6.679   2.133   4.044  0.1140  0.1581  0.9677
  408MOL0     C54967   6.714   2.270   4.099  0.3304 -0.4303 -0.2027
  408MOL0     C54968   6.850   2.333   4.047  1.0394 -0.1944  1.0698
  408MOL0     O54969   6.911   2.403   4.158 -0.3127  0.3674  0.3207
  408MOL0     C54970   7.042   2.447   4.135  0.5516 -0.1706  0.5784
  408MOL0     C54971   7.123   2.424   4.023  0.4648 -0.4386 -0.7286
  408MOL0     C54972   7.256   2.464   4.034  0.0633  0.2165 -0.0121
  408MOL0     C54973   7.310   2.522   4.148  0.2839  1.1496  0.4719
  408MOL0     C54974   7.450   2.560   4.139  0.2674  0.4856  0.1881
  408MOL0     O54975   7.529   2.494   4.040  0.1420 -0.0346 -0.3638
  408MOL0     C54976   7.661   2.518   4.047  0.9169  0.6525 -0.0630
  408MOL0     C54977   7.750   2.430   4.116  0.2809  0.8019  0.1221
  408MOL0     C54978   7.880   2.464   4.135 -0.0390 -0.3101 -0.5334
  408MOL0     C54979   7.923   2.594   4.086 -0.6051  0.4933  0.7952
  408MOL0     O54980   8.057   2.625   4.089  0.0655  0.0514  0.1178
  408MOL0     C54981   8.118   2.609   4.220 -0.6035 -0.6247 -0.2240
  408MOL0     C54982   8.234   2.515   4.220  1.0111  0.3358  0.6936
  408MOL0     C54983   8.370   2.586   4.193  0.0445 -0.3111  0.3426
  408MOL0     C54984   8.479   2.504   4.259  0.1688 -0.3361  0.0241
  408MOL0     C54985   8.611   2.560   4.233  0.4293  0.3714  0.8522
  408MOL0     C54986   8.699   2.494   4.126  0.2367  0.0146 -0.8572
  408MOL0     C54987   8.768   2.359   4.177 -0.3642 -0.0001 -0.2565
  408MOL0     C54988   8.877   2.373   4.286  0.3882  0.2140  0.3290
  408MOL0    Cl54989   8.976   2.519   4.281  0.0742 -0.0038  0.0936
  408MOL0     C54990   7.837   2.676   4.018  1.2699 -0.2065  0.0474
  408MOL0     C54991   7.708   2.638   3.993 -0.3242 -0.6742  0.3648
  408MOL0     O54992   7.489   2.658   4.199  0.3760 -0.6056 -0.5699
  408MOL0     C54993   7.227   2.546   4.254  0.3904 -0.3412 -0.8310
  408MOL0     C54994   7.095   2.501   4.249  0.1535 -0.6485 -0.9853
  408MOL0     N54995   6.461   2.301   3.832  0.2389  0.7101  0.0754
  408MOL0     N54996   6.331   2.295   3.817 -0.0801  0.7308  0.0852
  408MOL0     C54997   5.555   1.460   3.411 -1.1183 -0.1437  0.2104
  408MOL0     C54998   5.558   1.325   3.454 -0.5283 -0.7774  0.1101
  408MOL0     C54999   5.750   0.923   3.626 -0.4992  0.1412  0.6320
  408MOL0     C55000   5.684   0.835   3.542  0.3341 -0.4364  0.0701
  408MOL0     C55001   5.654   0.716   3.595 -0.5923  0.3515  0.5889
  408MOL0     C55002   5.682   0.677   3.722  0.2281  0.0784  0.2129
  408MOL0     O55003   5.635   0.560   3.771  0.2230 -0.2697  0.4586
  408MOL0     C55004   5.546   0.479   3.686  0.5634 -0.2170  0.2393
  408MOL0     C55005   5.469   0.365   3.756  0.2325 -0.1896  0.0838
  408MOL0     C55006   5.414   0.402   3.891 -0.5445 -0.7377 -0.0188
  408MOL0     C55007   5.339   0.293   3.963 -0.9087 -1.2336  1.0150
  408MOL0     C55008   5.252   0.352   4.058  0.2691  0.1667 -0.8823
  408MOL0     C55009   5.173   0.387   4.137  0.5378 -0.0661 -0.4619
  408MOL0     C55010   5.753   0.765   3.805  0.1607  0.6402 -0.1661
  408MOL0     C55011   5.784   0.887   3.757 -0.3086  0.3510  0.9094
  408MOL0     C55012   5.862   0.982   3.851  0.3676  0.0305  0.1368
  408MOL0     H55013   5.895   1.284   3.432 -0.2509 -0.4068  0.7191
  408MOL0     H55014   5.874   1.510   3.344  0.8402 -2.0139 -1.2910
  408MOL0     H55015   5.825   1.715   3.219  1.8215  0.9631  2.0834
  408MOL0     H55016   5.710   1.834   3.247 -1.3080  0.3921  0.9358
  408MOL0     H55017   5.872   1.720   3.482  3.6522  2.5554  0.8081
  408MOL0     H55018   5.755   1.854   3.479  0.6418  0.2266  1.6744
  408MOL0     H55019   5.922   1.950   3.303  0.5001 -0.9016 -0.0257
  408MOL0     H55020   6.024   1.813   3.335 -1.0982 -1.9194  0.3906
  408MOL0     H55021   6.061   2.036   3.466  1.4601 -2.9869 -1.0067
  408MOL0     H55022   5.913   2.001   3.552  0.7580  3.3962 -0.6555
  408MOL0     H55023   6.025   1.789   3.640 -0.4136 -0.7708 -0.9648
  408MOL0     H55024   6.149   1.804   3.519 -0.7717 -1.3296 -0.2194
  408MOL0     H55025   6.192   1.891   3.774  0.7477  0.3461 -0.0914
  408MOL0     H55026   6.259   1.989   3.649 -0.4709 -0.2998 -0.7133
  408MOL0     H55027   5.988   2.042   3.784 -1.2416 -0.8402 -1.2269
  408MOL0     H55028   6.089   2.148   3.670  0.2643  2.5087  2.2804
  408MOL0     H55029   6.116   2.227   3.896  3.2822  2.0192 -1.4259
  408MOL0     H55030   6.155   2.062   3.956  2.0533 -3.9753 -2.8070
  408MOL0     H55031   6.412   1.981   3.884 -1.9218  0.5136  1.9498
  408MOL0     H55032   6.679   2.046   3.844 -0.3521  0.9116 -1.9221
  408MOL0     H55033   6.712   2.214   3.840 -1.0868 -2.2546 -3.4377
  408MOL0     H55034   6.601   2.077   4.097 -0.3836 -1.2464 -1.1352
  408MOL0     H55035   6.769   2.072   4.055  0.8473  0.8251 -1.0013
  408MOL0     H55036   6.715   2.252   4.207  1.3752 -2.0104 -0.4424
  408MOL0     H55037   6.627   2.331   4.074 -1.3387 -2.8293 -0.7152
  408MOL0     H55038   6.836   2.396   3.959 -1.0253 -2.8233 -0.6778
  408MOL0     H55039   6.898   2.237   4.027  1.2428  0.5177 -2.5882
  408MOL0     H55040   7.089   2.376   3.932  0.4790 -0.0853 -0.9206
  408MOL0     H55041   7.319   2.451   3.947 -0.2738 -0.3212 -0.1788
  408MOL0     H55042   7.721   2.341   4.171  4.0659 -0.5574  0.2492
  408MOL0     H55043   7.947   2.396   4.187  0.6677  0.1861 -0.7773
  408MOL0     H55044   8.145   2.709   4.255 -1.8187 -0.7368  1.1513
  408MOL0     H55045   8.040   2.573   4.289 -0.7138 -0.1352 -0.0875
  408MOL0     H55046   8.251   2.464   4.316 -1.5595 -2.1893 -0.0384
  408MOL0     H55047   8.227   2.426   4.157  2.1270 -0.4706  1.6465
  408MOL0     H55048   8.383   2.588   4.084  4.0569  0.4537  0.6681
  408MOL0     H55049   8.362   2.688   4.233  1.0038  0.9047 -2.3463
  408MOL0     H55050   8.477   2.398   4.234  1.0215  0.2331 -2.9268
  408MOL0     H55051   8.469   2.518   4.367  1.8562 -1.5172  0.3667
  408MOL0     H55052   8.657   2.550   4.331 -2.2186 -1.3076  2.0245
  408MOL0     H55053   8.598   2.667   4.218 -3.7838 -0.1536 -0.5112
  408MOL0     H55054   8.636   2.484   4.038 -3.2224 -2.0552  1.5780
  408MOL0     H55055   8.772   2.570   4.097 -0.7425  1.1522 -0.4044
  408MOL0     H55056   8.816   2.313   4.090  2.2450  0.8303  0.6352
  408MOL0     H55057   8.696   2.294   4.227 -0.1314  0.8096  1.1771
  408MOL0     H55058   8.826   2.377   4.382 -1.7667 -0.8265 -0.7022
  408MOL0     H55059   8.943   2.286   4.275  1.7276  1.4850 -2.7452
  408MOL0     H55060   7.876   2.772   3.986 -2.6098  1.2328 -0.8142
  408MOL0     H55061   7.648   2.709   3.937 -1.9500 -0.9045  1.7240
  408MOL0     H55062   7.272   2.597   4.338 -0.4647  2.1524 -1.7913
  408MOL0     H55063   7.031   2.513   4.336  0.1712  0.6789 -1.1333
  408MOL0     H55064   5.459   1.511   3.414  0.6575  3.6192 -0.6083
  408MOL0     H55065   5.475   1.272   3.500 -0.4657 -2.1229 -1.2501
  408MOL0     H55066   5.653   0.848   3.439  1.6660 -1.0027 -0.4345
  408MOL0     H55067   5.604   0.651   3.524  1.2773 -0.1703 -0.3092
  408MOL0     H55068   5.597   0.438   3.598 -1.6055 -1.9290 -0.3159
  408MOL0     H55069   5.465   0.548   3.660  1.6499  1.0750  0.1911
  408MOL0     H55070   5.534   0.277   3.765 -1.8617 -1.8063  0.2871
  408MOL0     H55071   5.387   0.339   3.688  1.2130  1.2124 -1.7125
  408MOL0     H55072   5.350   0.486   3.862  2.0585  1.5599  0.3381
  408MOL0     H55073   5.491   0.441   3.959 -1.4951 -0.6993  1.0729
  408MOL0     H55074   5.276   0.238   3.893 -0.8030 -1.1307  0.8375
  408MOL0     H55075   5.407   0.223   4.013 -1.4859 -2.0679  0.6608
  408MOL0     H55076   5.103   0.422   4.210  0.2919  0.1809 -0.8120
  408MOL0     H55077   5.796   0.746   3.902 -0.0107 -1.5729 -0.4634
  408MOL0     H55078   5.820   1.083   3.843 -1.0504 -0.6238 -1.4324
  408MOL0     H55079   5.858   0.950   3.955 -2.3323 -0.0357  0.0889
  408MOL0     H55080   5.966   0.987   3.817 -0.3315  0.4059 -2.1212
  409MOL0     O55081   5.361   0.953   4.846 -0.0298 -0.0733 -0.3436
  409MOL0     C55082   5.425   0.949   4.949  0.0467 -0.4159 -0.1461
  409MOL0     O55083   5.371   0.980   5.073 -0.3497 -0.0113  0.3365
  409MOL0     C55084   5.263   1.065   5.069 -0.6171 -0.2569 -0.0996
  409MOL0     C55085   5.284   1.202   5.108 -0.3257 -1.4738 -0.2800
  409MOL0     C55086   5.182   1.291   5.092 -0.0981  0.3944 -0.6036
  409MOL0     C55087   5.052   1.246   5.054 -0.8042 -0.8665  0.1390
  409MOL0     O55088   4.956   1.349   5.041  0.1156  0.4377  0.4528
  409MOL0     C55089   4.825   1.303   5.088  0.4660 -0.7260  0.4874
  409MOL0     C55090   4.713   1.394   5.044  0.2600 -0.6087  0.5000
  409MOL0     C55091   4.592   1.356   5.113  0.4382 -0.1081 -0.2902
  409MOL0     C55092   4.473   1.438   5.066 -0.1231  0.3322 -0.3150
  409MOL0     C55093   4.330   1.410   5.126 -0.0965  0.5427  0.0813
  409MOL0     C55094   4.270   1.280   5.099  0.2276  0.0770 -1.0021
  409MOL0     C55095   4.115   1.285   5.097  0.5902 -0.4669 -0.4605
  409MOL0     C55096   4.058   1.155   5.022  0.4915 -0.8227 -0.7989
  409MOL0     N55097   3.918   1.151   5.003  0.4164  0.2419 -0.4865
  409MOL0     C55098   3.829   1.262   5.013  0.4474 -0.4259 -0.2656
  409MOL0     C55099   3.712   1.215   5.038  0.5336 -0.5535  0.0122
  409MOL0     C55100   3.594   1.318   5.060  0.3678  0.3674 -0.2789
  409MOL0     C55101   3.588   1.348   5.209  0.2103  0.1111  0.4831
  409MOL0     C55102   3.475   1.453   5.234  0.3411  0.0658  0.0436
  409MOL0     C55103   3.502   1.581   5.147 -1.0366 -0.7119 -0.0428
  409MOL0     O55104   3.626   1.634   5.180 -0.1138 -0.3278  0.5183
  409MOL0     C55105   3.729   1.654   5.092 -0.0551  0.4432  0.3676
  409MOL0     C55106   3.719   1.664   4.952 -0.2695 -0.0812  1.0857
  409MOL0     C55107   3.843   1.691   4.878  0.2207  0.1782 -0.0971
  409MOL0     C55108   3.965   1.681   4.940 -0.4520 -0.7749  0.2965
  409MOL0     C55109   4.093   1.666   4.862  0.7669 -0.5186 -0.1993
  409MOL0     O55110   4.081   1.634   4.733 -0.1158 -0.0957 -0.3657
  409MOL0     C55111   4.205   1.614   4.666  0.4921 -0.2661 -0.8389
  409MOL0     C55112   4.284   1.502   4.706  0.0004  0.1264 -0.5384
  409MOL0     C55113   4.404   1.480   4.643  0.4491 -0.1936  0.1126
  409MOL0     C55114   4.448   1.554   4.530  0.3652 -0.6303 -0.0043
  409MOL0     O55115   4.569   1.533   4.480 -0.5429  0.2110  0.2032
  409MOL0     C55116   4.613   1.616   4.366 -0.2043 -0.4416 -0.2964
  409MOL0     C55117   4.750   1.578   4.317 -0.6145  0.1490  0.0849
  409MOL0     C55118   4.791   1.636   4.189 -0.1935  0.3379  0.8125
  409MOL0     C55119   4.934   1.611   4.132  0.2336  0.1791 -0.5752
  409MOL0     C55120   4.969   1.682   4.000 -0.0967 -0.5905 -0.3098
  409MOL0     C55121   5.030   1.825   4.034 -0.4708  0.8419  0.6345
  409MOL0     C55122   4.919   1.927   4.035 -0.2478 -0.7005 -1.1350
  409MOL0     C55123   4.937   2.024   4.153 -0.0203 -0.3636 -0.4505
  409MOL0    Cl55124   5.088   2.123   4.154  0.1328  0.2548  0.1259
  409MOL0     C55125   4.358   1.655   4.490 -0.8436 -0.5589  0.1666
  409MOL0     C55126   4.243   1.684   4.555 -0.2949 -0.3819 -0.7902
  409MOL0     O55127   4.196   1.695   4.921  0.9044  0.7067  0.0332
  409MOL0     C55128   3.967   1.663   5.078  0.2847 -0.6541  0.0693
  409MOL0     C55129   3.850   1.659   5.151 -0.3879 -0.6570  0.5720
  409MOL0     N55130   3.713   1.076   5.041  0.0783 -0.7975 -0.5332
  409MOL0     N55131   3.835   1.041   5.024  0.1867  0.1278  0.6811
  409MOL0     C55132   5.032   1.106   5.027 -0.1521  0.4964 -0.6157
  409MOL0     C55133   5.138   1.018   5.040  0.0836  0.3105 -1.1106
  409MOL0     C55134   5.577   0.932   4.954 -0.3685 -0.0676 -0.3218
  409MOL0     C55135   5.650   0.976   5.064 -0.1933  0.5986 -0.1397
  409MOL0     C55136   5.787   0.948   5.072 -0.3126  0.3512  0.4599
  409MOL0     C55137   5.856   0.868   4.971 -0.4224 -0.2871  0.6131
  409MOL0     O55138   5.988   0.839   4.999 -0.8087 -0.0442 -0.3591
  409MOL0     C55139   6.008   0.693   5.019  0.0039  0.0004 -0.4927
  409MOL0     C55140   6.069   0.683   5.158  0.5428 -0.6835 -0.3201
  409MOL0     C55141   6.093   0.540   5.205  0.5665 -1.1315  0.4616
  409MOL0     C55142   6.204   0.530   5.301 -0.1713 -0.0580 -0.4197
  409MOL0     C55143   6.194   0.399   5.371 -0.0792 -0.8150 -0.1251
  409MOL0     C55144   6.192   0.297   5.436  0.5366 -0.1049 -0.6184
  409MOL0     C55145   5.791   0.827   4.864  0.5588  0.0243 -0.0830
  409MOL0     C55146   5.653   0.847   4.861  0.2519  0.1065 -0.7878
  409MOL0     C55147   5.591   0.779   4.749 -0.6893  0.1140  0.4044
  409MOL0     H55148   5.380   1.248   5.129 -0.8258  1.3740 -3.2843
  409MOL0     H55149   5.185   1.392   5.132 -0.6138  0.0996  0.2135
  409MOL0     H55150   4.801   1.209   5.037 -1.6092 -0.0128  0.0720
  409MOL0     H55151   4.829   1.289   5.196  0.6784 -2.0742  0.3280
  409MOL0     H55152   4.707   1.418   4.937 -0.5606 -3.7397 -0.2584
  409MOL0     H55153   4.745   1.487   5.091  1.1348 -0.7142  0.1329
  409MOL0     H55154   4.599   1.360   5.222 -0.0183 -0.0150 -0.2591
  409MOL0     H55155   4.569   1.252   5.087  1.6839 -0.0055 -1.9502
  409MOL0     H55156   4.499   1.544   5.073 -1.2023  0.5230  1.5738
  409MOL0     H55157   4.464   1.426   4.958 -0.5660 -0.1910 -0.2244
  409MOL0     H55158   4.346   1.420   5.234 -0.1715  1.7756 -0.0094
  409MOL0     H55159   4.272   1.495   5.089  2.6158  1.6009 -2.0891
  409MOL0     H55160   4.312   1.236   5.008  0.2162 -4.2802  0.8678
  409MOL0     H55161   4.287   1.207   5.178 -3.4339 -0.8283 -0.9113
  409MOL0     H55162   4.080   1.380   5.056  2.8741  0.8701  0.4791
  409MOL0     H55163   4.087   1.272   5.202  0.6441 -0.4339 -0.4422
  409MOL0     H55164   4.091   1.157   4.917 -0.7985 -1.6498 -1.2493
  409MOL0     H55165   4.084   1.064   5.076 -2.6196 -2.2878 -1.5213
  409MOL0     H55166   3.853   1.367   5.003  2.2000 -0.8736 -1.2028
  409MOL0     H55167   3.610   1.408   5.000 -3.4936 -1.5896 -4.9222
  409MOL0     H55168   3.508   1.265   5.018  1.1188  1.0174 -2.8259
  409MOL0     H55169   3.567   1.256   5.265  1.6783 -0.5029  0.0761
  409MOL0     H55170   3.675   1.401   5.249 -0.5241  0.7956  1.2116
  409MOL0     H55171   3.474   1.483   5.339 -3.3616 -2.3115  0.8973
  409MOL0     H55172   3.381   1.403   5.209 -0.6278  0.2313  2.9748
  409MOL0     H55173   3.425   1.654   5.174 -1.0518 -0.7187 -0.0680
  409MOL0     H55174   3.486   1.567   5.040 -1.2030  0.2855 -0.1621
  409MOL0     H55175   3.621   1.663   4.905  1.1837  0.7181 -2.2235
  409MOL0     H55176   3.841   1.710   4.772  0.2271  3.1702  0.3445
  409MOL0     H55177   4.267   1.461   4.805 -0.6626  0.2190 -0.6077
  409MOL0     H55178   4.474   1.411   4.687  0.2337 -0.3245  0.2509
  409MOL0     H55179   4.545   1.586   4.285  1.2316 -0.4463 -1.5262
  409MOL0     H55180   4.594   1.721   4.387  1.9678 -0.1672  0.4650
  409MOL0     H55181   4.821   1.612   4.393  2.4593 -3.7167 -0.6833
  409MOL0     H55182   4.778   1.472   4.318  2.4385  0.8597 -0.2611
  409MOL0     H55183   4.714   1.624   4.112 -1.0366  3.0555  1.1504
  409MOL0     H55184   4.809   1.740   4.218  4.1223 -0.2556  0.7901
  409MOL0     H55185   4.947   1.503   4.119  0.2957  0.1867 -0.5798
  409MOL0     H55186   5.003   1.636   4.213  0.4262  2.1866 -1.2954
  409MOL0     H55187   4.886   1.688   3.929  0.6318 -0.7349 -1.1864
  409MOL0     H55188   5.054   1.631   3.954  1.9031  1.3640  1.0277
  409MOL0     H55189   5.078   1.825   4.132 -1.2711  0.7462  1.0411
  409MOL0     H55190   5.106   1.862   3.964  1.8900 -1.8452  1.6050
  409MOL0     H55191   4.823   1.878   4.051  1.2532 -2.7561  2.9622
  409MOL0     H55192   4.912   1.992   3.947  0.0591  2.3215  0.8958
  409MOL0     H55193   4.853   2.093   4.144 -1.0821 -0.9602  3.0568
  409MOL0     H55194   4.921   1.972   4.249  0.5362  0.6235  0.1961
  409MOL0     H55195   4.375   1.715   4.401 -4.6464  0.4217 -0.0982
  409MOL0     H55196   4.187   1.775   4.532  2.5152  1.6831  0.0129
  409MOL0     H55197   4.063   1.677   5.126  0.6891 -1.1842 -0.5643
  409MOL0     H55198   3.850   1.642   5.258  0.8558  0.1784  0.7149
  409MOL0     H55199   4.939   1.064   4.990 -0.7178  1.7571 -0.6750
  409MOL0     H55200   5.126   0.912   5.018 -0.1588 -0.3655  1.9312
  409MOL0     H55201   5.592   1.025   5.142 -3.5772 -3.1810  0.0670
  409MOL0     H55202   5.846   0.986   5.154 -0.1006  0.4460  0.2631
  409MOL0     H55203   6.058   0.636   4.941  0.9229 -0.1615  0.1890
  409MOL0     H55204   5.907   0.649   5.019 -1.2818  2.6508 -2.8666
  409MOL0     H55205   5.995   0.709   5.234 -0.0248  1.4899 -1.5313
  409MOL0     H55206   6.160   0.743   5.149 -0.2626  0.2954 -3.4819
  409MOL0     H55207   6.113   0.479   5.116  1.1863  0.8050 -0.7804
  409MOL0     H55208   6.003   0.491   5.244 -0.8450  0.9519 -0.0096
  409MOL0     H55209   6.305   0.535   5.258  0.8298  0.1543  1.8243
  409MOL0     H55210   6.200   0.603   5.382 -1.3262 -0.9624  0.3800
  409MOL0     H55211   6.211   0.201   5.479 -1.8038  0.2576  1.3943
  409MOL0     H55212   5.840   0.772   4.785  0.1607 -1.0335  0.3802
  409MOL0     H55213   5.655   0.718   4.684 -2.0448 -0.5237 -0.3835
  409MOL0     H55214   5.518   0.703   4.780  0.9135 -1.9025 -0.5115
  409MOL0     H55215   5.560   0.855   4.677 -0.9678 -0.4558 -0.0923
  410MOL0     O55216  10.604   6.187   4.429 -0.9799 -0.6644  0.9920
  410MOL0     C55217  10.586   6.100   4.337  1.0174 -0.5053 -0.0021
  410MOL0     O55218  10.686   6.047   4.262 -0.4434 -0.0254  0.7692
  410MOL0     C55219  10.812   6.092   4.280 -0.7637  0.1492 -0.5983
  410MOL0     C55220  10.880   6.073   4.408  0.2042 -0.4530  0.0113
  410MOL0     C55221  11.011   6.121   4.422  0.2356 -0.2629  0.3380
  410MOL0     C55222  11.069   6.178   4.311  0.3716  0.6915  0.4608
  410MOL0     O55223  11.194   6.228   4.324  0.8531 -0.5962 -0.9256
  410MOL0     C55224  11.220   6.339   4.243 -0.3932 -0.7598  0.6041
  410MOL0     C55225  11.348   6.398   4.301 -0.2650  0.1087  0.3835
  410MOL0     C55226  11.474   6.349   4.238 -0.0100  0.8699 -0.1064
  410MOL0     C55227  11.596   6.399   4.315 -1.0276  1.1433  0.1843
  410MOL0     C55228  11.719   6.335   4.246  0.3992 -0.0152 -0.1453
  410MOL0     C55229  11.846   6.420   4.264 -0.2953 -0.2459  0.6112
  410MOL0     C55230  11.963   6.331   4.226  0.1579 -0.0699  0.2361
  410MOL0     C55231  12.090   6.423   4.202 -0.4586 -0.0200 -0.5424
  410MOL0     N55232  12.157   6.459   4.327 -0.6696 -0.3017 -0.2895
  410MOL0     C55233  12.142   6.580   4.391 -0.9378  0.0474 -0.0591
  410MOL0     C55234  12.215   6.578   4.501  0.5992 -0.1351  0.0496
  410MOL0     C55235  12.245   6.679   4.612  0.2503  0.1090  0.3423
  410MOL0     C55236  12.395   6.702   4.630 -0.4669 -1.1633  0.0271
  410MOL0     C55237  12.436   6.774   4.760 -0.4134 -0.5823 -0.5105
  410MOL0     C55238  12.589   6.795   4.789 -0.9050 -0.1789 -0.4674
  410MOL0     O55239  12.643   6.667   4.827  0.0236 -0.2607 -0.0783
  410MOL0     C55240  12.767   6.664   4.881 -0.0420 -0.4338  0.2345
  410MOL0     C55241  12.810   6.545   4.950  0.6291 -0.0878 -0.6874
  410MOL0     C55242  12.943   6.526   4.992  0.0158 -0.6111 -0.1039
  410MOL0     C55243  13.043   6.627   4.976  0.6286  0.2915  1.1488
  410MOL0     C55244  13.181   6.609   5.029  0.1022 -0.6657 -0.3717
  410MOL0     O55245  13.284   6.677   4.959 -0.0414  0.0987  0.5764
  410MOL0     C55246  13.394   6.691   5.028 -0.4732 -0.5526 -0.2427
  410MOL0     C55247  13.411   6.765   5.149 -0.4277  0.0763  0.8439
  410MOL0     C55248  13.532   6.768   5.217 -0.2722  0.6395  0.1603
  410MOL0     C55249  13.644   6.708   5.162 -0.3628  0.0473  0.0838
  410MOL0     O55250  13.757   6.698   5.230  0.1802 -0.4132 -0.4410
  410MOL0     C55251  13.878   6.724   5.167  0.6703 -0.4602 -1.3720
  410MOL0     C55252  13.980   6.807   5.245  1.0099 -0.4795 -0.1379
  410MOL0     C55253  14.103   6.844   5.162 -0.3554  0.0552 -0.5594
  410MOL0     C55254  14.224   6.850   5.257 -0.1904 -0.5232 -0.1724
  410MOL0     C55255  14.356   6.831   5.176  0.1218  0.2600 -0.4304
  410MOL0     C55256  14.401   6.686   5.169  0.8566 -0.5706 -0.1136
  410MOL0     C55257  14.540   6.673   5.112 -0.3171  0.3492  0.2243
  410MOL0     C55258  14.532   6.666   4.957 -0.7014  0.5940 -0.7421
  410MOL0    Cl55259  14.560   6.834   4.893  0.4380 -0.1317 -0.2748
  410MOL0     C55260  13.631   6.643   5.035 -1.0727  0.5542  0.2308
  410MOL0     C55261  13.507   6.638   4.965 -0.1323 -0.0678 -0.4505
  410MOL0     O55262  13.192   6.544   5.135 -0.0832 -0.0260 -0.5755
  410MOL0     C55263  12.999   6.746   4.923 -0.1883 -0.0148  0.3088
  410MOL0     C55264  12.866   6.754   4.871 -0.6610 -0.5786  0.2992
  410MOL0     N55265  12.262   6.446   4.512 -0.0053  0.4599  0.1817
  410MOL0     N55266  12.230   6.371   4.409  1.4326  0.3461 -0.3724
  410MOL0     C55267  10.999   6.186   4.186 -1.5722  1.4154  0.0073
  410MOL0     C55268  10.886   6.129   4.168  0.2489  0.3361  0.9830
  410MOL0     C55269  10.441   6.079   4.296  0.1044 -1.3745  0.3634
  410MOL0     C55270  10.412   6.045   4.162  0.2116 -0.0419  0.0416
  410MOL0     C55271  10.283   6.013   4.122  0.0466 -0.2329  0.1609
  410MOL0     C55272  10.172   6.025   4.208 -0.0156  0.5849 -0.9778
  410MOL0     O55273  10.038   6.014   4.155  0.1730 -0.0449  0.3633
  410MOL0     C55274   9.921   6.028   4.237  0.1733 -0.6493 -0.5726
  410MOL0     C55275   9.796   6.007   4.160 -0.5899 -0.3447  0.4334
  410MOL0     C55276   9.671   6.035   4.249  0.3329  0.1245 -0.0968
  410MOL0     C55277   9.550   6.057   4.157  0.2526  0.4241  0.1515
  410MOL0     C55278   9.510   5.933   4.087  0.2091  0.6042 -0.4704
  410MOL0     C55279   9.493   5.827   4.020 -0.1158  0.0556 -0.0592
  410MOL0     C55280  10.205   6.062   4.338  0.5193  0.2952  0.2672
  410MOL0     C55281  10.328   6.087   4.388 -0.5327 -1.3464 -0.3486
  410MOL0     C55282  10.355   6.106   4.538  0.6676 -0.0998 -0.9838
  410MOL0     H55283  10.809   6.042   4.485  0.4684 -0.2034  0.3606
  410MOL0     H55284  11.065   6.123   4.516 -0.1466  0.2324  0.5518
  410MOL0     H55285  11.240   6.301   4.142 -1.9402 -1.3783  0.5068
  410MOL0     H55286  11.153   6.425   4.248  3.4737  2.6178 -0.8397
  410MOL0     H55287  11.333   6.388   4.409  0.2306 -0.9785  0.3635
  410MOL0     H55288  11.341   6.506   4.282  1.5878  0.0297 -0.9781
  410MOL0     H55289  11.463   6.406   4.145 -0.0386  2.4076  0.8118
  410MOL0     H55290  11.476   6.240   4.243 -2.2077  0.8567  2.2717
  410MOL0     H55291  11.593   6.507   4.296 -0.8424  0.7511 -2.4751
  410MOL0     H55292  11.591   6.374   4.421 -1.6010  1.1120  0.1532
  410MOL0     H55293  11.733   6.235   4.290  0.5473  0.3783  0.7123
  410MOL0     H55294  11.700   6.323   4.139  1.3004 -0.1519 -0.3008
  410MOL0     H55295  11.846   6.499   4.188  3.0664  0.1362  0.8480
  410MOL0     H55296  11.871   6.457   4.364  1.4736  1.0297 -0.2343
  410MOL0     H55297  11.930   6.264   4.147  0.9822 -0.3858  0.1401
  410MOL0     H55298  11.995   6.268   4.311  3.5901  3.2979  1.7425
  410MOL0     H55299  12.145   6.359   4.133 -0.7915  0.2525 -1.0665
  410MOL0     H55300  12.058   6.513   4.149 -1.3230  0.0263  0.0347
  410MOL0     H55301  12.097   6.670   4.349  0.6118  1.7347  1.7159
  410MOL0     H55302  12.183   6.766   4.590 -1.2852 -1.6167 -2.8603
  410MOL0     H55303  12.205   6.643   4.707 -1.1032  6.4402  2.6595
  410MOL0     H55304  12.465   6.618   4.624 -0.1599 -0.9018 -0.0645
  410MOL0     H55305  12.418   6.762   4.542 -1.3193 -1.2861 -0.2924
  410MOL0     H55306  12.390   6.718   4.843  0.2912 -1.8071 -0.9293
  410MOL0     H55307  12.380   6.868   4.757  2.8393  1.4858 -0.8551
  410MOL0     H55308  12.600   6.869   4.869  2.7847  1.2072 -2.0464
  410MOL0     H55309  12.644   6.832   4.703 -1.7224  4.6977  0.7824
  410MOL0     H55310  12.739   6.468   4.978 -0.0324 -0.2693 -2.7164
  410MOL0     H55311  12.963   6.436   5.049 -1.0510 -2.2611 -2.1988
  410MOL0     H55312  13.338   6.832   5.193  0.2876 -0.5024  3.0245
  410MOL0     H55313  13.544   6.803   5.318  2.7448  2.0866 -0.5888
  410MOL0     H55314  13.918   6.623   5.154 -2.6026 -1.6778 -3.1232
  410MOL0     H55315  13.859   6.779   5.075  1.0059  4.2849  1.0786
  410MOL0     H55316  13.932   6.900   5.276  0.8195  0.0265 -1.8675
  410MOL0     H55317  14.014   6.752   5.333  0.8096  0.9961  0.8926
  410MOL0     H55318  14.116   6.758   5.096 -2.4059 -3.3020  2.9256
  410MOL0     H55319  14.093   6.941   5.114 -1.3923  0.4991  0.5072
  410MOL0     H55320  14.219   6.776   5.338 -0.2488  1.6999  1.9916
  410MOL0     H55321  14.226   6.942   5.316  1.7605 -1.4711  1.3502
  410MOL0     H55322  14.436   6.896   5.212 -0.0405 -0.0190  0.4590
  410MOL0     H55323  14.353   6.864   5.071 -0.2316  2.7880  0.3078
  410MOL0     H55324  14.425   6.657   5.272  4.6521  0.3150 -0.5951
  410MOL0     H55325  14.334   6.623   5.110  0.2168  1.6912 -1.9306
  410MOL0     H55326  14.582   6.576   5.141  3.4359  1.3039 -1.4372
  410MOL0     H55327  14.613   6.749   5.141 -0.2510 -0.0515  1.1462
  410MOL0     H55328  14.615   6.601   4.927 -0.1304  0.7257  0.5037
  410MOL0     H55329  14.442   6.618   4.918  0.9533 -2.3108 -1.2727
  410MOL0     H55330  13.724   6.597   5.004  0.1875  1.8728  1.8888
  410MOL0     H55331  13.482   6.579   4.877 -1.8348  0.8491 -0.6218
  410MOL0     H55332  13.074   6.823   4.909 -0.4731 -0.2723 -3.8254
  410MOL0     H55333  12.848   6.842   4.810  0.3064 -1.3164 -1.1107
  410MOL0     H55334  11.045   6.229   4.098 -0.8900 -0.6001 -0.6860
  410MOL0     H55335  10.831   6.130   4.075 -0.2425  0.6278  1.2705
  410MOL0     H55336  10.484   6.022   4.084 -1.0398 -0.7601 -0.9346
  410MOL0     H55337  10.247   5.974   4.027 -2.1897 -0.1918  0.9334
  410MOL0     H55338   9.918   6.127   4.283 -2.1118 -0.2078 -1.5763
  410MOL0     H55339   9.924   5.961   4.324  0.2096 -0.2978 -0.3032
  410MOL0     H55340   9.803   5.904   4.124 -0.8274  0.1481 -1.1387
  410MOL0     H55341   9.793   6.083   4.081  0.9004 -0.9950 -0.2969
  410MOL0     H55342   9.678   6.119   4.318 -0.4911 -0.1166  0.3047
  410MOL0     H55343   9.655   5.945   4.310  3.4256  1.1084  2.3947
  410MOL0     H55344   9.462   6.094   4.211 -0.5873  0.4559 -1.1753
  410MOL0     H55345   9.581   6.131   4.083 -1.7737  1.3238  0.1165
  410MOL0     H55346   9.504   5.737   3.962 -0.7419 -0.5403  0.7185
  410MOL0     H55347  10.125   6.067   4.411 -0.8111 -1.3881 -1.0020
  410MOL0     H55348  10.451   6.071   4.578 -0.1190  0.0623  1.2226
  410MOL0     H55349  10.333   6.211   4.557 -0.7935 -0.5072 -0.2161
  410MOL0     H55350  10.274   6.051   4.588 -0.9095  0.6638 -2.5917
  411MOL0     O55351   8.143   3.614   5.444 -0.2147 -0.6454  0.5913
  411MOL0     C55352   8.146   3.732   5.421  1.2087 -0.0134  0.3996
  411MOL0     O55353   8.261   3.808   5.407  0.3237  0.3048  0.8380
  411MOL0     C55354   8.372   3.744   5.453 -0.4550 -0.6048  0.3083
  411MOL0     C55355   8.475   3.741   5.369  0.7499  0.6785 -0.2348
  411MOL0     C55356   8.586   3.657   5.397  0.7403 -0.0709 -0.0189
  411MOL0     C55357   8.593   3.591   5.518  0.5700 -0.4647  0.2478
  411MOL0     O55358   8.699   3.516   5.554 -0.6181 -0.2323  0.3641
  411MOL0     C55359   8.794   3.469   5.453 -0.0167  0.0708 -0.2722
  411MOL0     C55360   8.911   3.402   5.516  0.0404 -1.3049  1.1372
  411MOL0     C55361   8.996   3.350   5.402  0.0422  0.0171  0.5030
  411MOL0     C55362   8.963   3.214   5.351 -0.0345  0.9645 -0.3851
  411MOL0     C55363   9.060   3.170   5.243 -0.0209  0.1136  0.1677
  411MOL0     C55364   9.201   3.132   5.289 -0.0364 -0.0930  0.9718
  411MOL0     C55365   9.288   3.121   5.162 -0.3131 -0.4548  0.3869
  411MOL0     C55366   9.435   3.103   5.198 -0.0247  0.3167 -0.4538
  411MOL0     N55367   9.536   3.116   5.095 -0.1794  0.5419 -0.0484
  411MOL0     C55368   9.643   3.191   5.085 -1.0431  0.9396  0.9339
  411MOL0     C55369   9.716   3.135   4.984 -1.0394 -0.1730  0.1128
  411MOL0     C55370   9.859   3.184   4.947  0.0404 -0.6873 -0.1079
  411MOL0     C55371   9.949   3.073   4.952 -0.5749 -0.0256  0.5040
  411MOL0     C55372  10.092   3.127   4.949 -0.6132  0.6330  0.8704
  411MOL0     C55373  10.193   3.020   4.972 -0.4601  0.9770 -0.9071
  411MOL0     O55374  10.322   3.081   4.993 -0.7258 -0.2842  0.0757
  411MOL0     C55375  10.426   3.021   5.053 -0.0850  0.1515 -0.0857
  411MOL0     C55376  10.544   3.094   5.041 -0.2065  0.4196 -0.4257
  411MOL0     C55377  10.664   3.034   5.078 -0.6927  0.0722  0.2377
  411MOL0     C55378  10.658   2.906   5.130  0.0622  0.7799 -0.0094
  411MOL0     C55379  10.777   2.837   5.156 -0.2200 -0.3215 -0.0771
  411MOL0     O55380  10.882   2.914   5.150 -0.9815 -0.3182 -0.7232
  411MOL0     C55381  11.008   2.861   5.145 -0.8921 -0.6076  0.5674
  411MOL0     C55382  11.113   2.934   5.201  0.3894 -1.8469 -0.4032
  411MOL0     C55383  11.244   2.903   5.175 -0.1579  0.6973  0.4528
  411MOL0     C55384  11.273   2.788   5.103 -0.3060 -0.6513  0.9229
  411MOL0     O55385  11.403   2.760   5.066 -0.3385 -0.0865  0.3893
  411MOL0     C55386  11.449   2.622   5.099 -0.7115 -0.0762  0.0229
  411MOL0     C55387  11.602   2.614   5.070  0.4732  0.5544 -0.4136
  411MOL0     C55388  11.634   2.615   4.926  1.2137 -0.1258 -0.1101
  411MOL0     C55389  11.786   2.574   4.910  0.1598 -0.0941 -0.0153
  411MOL0     C55390  11.821   2.585   4.769  0.0668 -0.1119  0.8863
  411MOL0     C55391  11.980   2.561   4.752 -0.0735  0.2303 -0.3687
  411MOL0     C55392  12.002   2.522   4.612 -0.6448 -0.5509 -0.1557
  411MOL0     C55393  12.151   2.510   4.585  0.6760  0.1654  0.9259
  411MOL0    Cl55394  12.218   2.677   4.592 -0.0128  0.0866 -0.2852
  411MOL0     C55395  11.174   2.709   5.048  0.7234 -0.1973 -0.5218
  411MOL0     C55396  11.046   2.742   5.079 -0.4836 -0.0557  0.6911
  411MOL0     O55397  10.770   2.717   5.192 -0.0215 -0.5256  0.7026
  411MOL0     C55398  10.534   2.842   5.159 -0.5376 -0.4318  0.3911
  411MOL0     C55399  10.415   2.901   5.120  0.2149  0.1498 -0.7971
  411MOL0     N55400   9.643   3.039   4.924 -0.3220 -0.1683 -0.0699
  411MOL0     N55401   9.532   3.038   4.989 -0.0109 -0.3993 -0.8135
  411MOL0     C55402   8.494   3.611   5.618  0.5898 -0.0937  1.1960
  411MOL0     C55403   8.383   3.690   5.574  0.3860 -0.2220  0.3456
  411MOL0     C55404   8.014   3.798   5.436 -0.6658 -0.0908 -0.2347
  411MOL0     C55405   8.026   3.920   5.510  0.6010  0.1810 -0.7488
  411MOL0     C55406   7.911   3.990   5.540  0.2027 -0.3538  0.5120
  411MOL0     C55407   7.786   3.946   5.507  0.4317  0.0462 -0.3707
  411MOL0     O55408   7.669   4.021   5.534 -0.5003  0.3389  1.0994
  411MOL0     C55409   7.649   4.042   5.673  0.4020 -0.1117  1.0238
  411MOL0     C55410   7.503   4.097   5.691 -0.3736  0.1679  0.0716
  411MOL0     C55411   7.388   4.000   5.647  0.0729 -0.5429  0.4852
  411MOL0     C55412   7.360   3.896   5.757  0.1805  0.7036  0.0850
  411MOL0     C55413   7.447   3.775   5.749 -0.7717 -0.8356  0.8239
  411MOL0     C55414   7.522   3.681   5.742  0.5025 -0.9733  0.1502
  411MOL0     C55415   7.775   3.819   5.447 -0.1878 -0.3794 -0.2732
  411MOL0     C55416   7.886   3.745   5.400 -0.1393  0.3452 -0.7682
  411MOL0     C55417   7.864   3.615   5.331 -0.1523  0.4110 -0.5921
  411MOL0     H55418   8.475   3.794   5.274  3.1136 -0.2797 -0.8450
  411MOL0     H55419   8.650   3.659   5.310 -1.1535 -2.6728 -1.6417
  411MOL0     H55420   8.740   3.395   5.393 -2.7439  0.9230  0.9859
  411MOL0     H55421   8.821   3.551   5.386 -1.0217  0.5369 -0.1225
  411MOL0     H55422   8.883   3.321   5.584 -0.4057 -2.3233 -0.2121
  411MOL0     H55423   8.966   3.474   5.576 -0.0080 -0.9542  0.7636
  411MOL0     H55424   9.099   3.349   5.438  0.5609  0.4918 -0.8871
  411MOL0     H55425   8.994   3.426   5.324  1.3242 -1.5827 -1.1867
  411MOL0     H55426   8.975   3.147   5.436  0.5123 -0.4566 -1.5534
  411MOL0     H55427   8.857   3.204   5.327 -0.7826  1.1256  2.4803
  411MOL0     H55428   9.021   3.085   5.187  0.7378 -1.6369  2.1840
  411MOL0     H55429   9.060   3.259   5.179 -0.1998 -0.4411 -0.6086
  411MOL0     H55430   9.236   3.216   5.350 -3.8032  1.4460  1.3095
  411MOL0     H55431   9.201   3.040   5.348 -0.6932  0.3868  1.7432
  411MOL0     H55432   9.275   3.208   5.098  3.6922  0.9883  1.2283
  411MOL0     H55433   9.262   3.022   5.121  0.7975 -0.4563 -0.3413
  411MOL0     H55434   9.457   3.186   5.265 -0.8318  0.2563 -0.0976
  411MOL0     H55435   9.439   3.011   5.257 -3.4756 -0.7923 -1.7409
  411MOL0     H55436   9.690   3.265   5.150  3.4712 -0.9510  0.2289
  411MOL0     H55437   9.855   3.237   4.851  1.5755  1.1621  0.7927
  411MOL0     H55438   9.891   3.257   5.023  3.5245  0.9759 -2.8780
  411MOL0     H55439   9.932   3.017   5.044  0.3917 -0.1347  0.6171
  411MOL0     H55440   9.924   3.005   4.869 -2.1289  2.2760 -1.0361
  411MOL0     H55441  10.113   3.194   5.033  0.0868 -1.5115  2.5091
  411MOL0     H55442  10.109   3.166   4.848 -0.9487  1.1188  0.9968
  411MOL0     H55443  10.196   2.954   4.885 -3.0099  1.5464 -1.5128
  411MOL0     H55444  10.150   2.956   5.050 -0.6707  0.0213 -1.7817
  411MOL0     H55445  10.528   3.186   4.987 -0.7155  0.1957 -0.6593
  411MOL0     H55446  10.757   3.081   5.047 -1.2046  1.0128  0.1103
  411MOL0     H55447  11.095   3.020   5.265 -1.1916 -0.3141 -2.7554
  411MOL0     H55448  11.323   2.966   5.215  0.1208 -0.6002  2.1107
  411MOL0     H55449  11.444   2.599   5.206  1.4641 -2.7606 -0.3551
  411MOL0     H55450  11.389   2.552   5.041 -0.5009  0.6317 -1.0906
  411MOL0     H55451  11.644   2.704   5.117 -0.7300  1.0709 -0.3012
  411MOL0     H55452  11.653   2.529   5.118  0.1477  1.8056  2.3349
  411MOL0     H55453  11.577   2.547   4.861 -2.0298  2.6318 -0.4302
  411MOL0     H55454  11.610   2.712   4.882 -0.7106  0.1377  1.4036
  411MOL0     H55455  11.801   2.472   4.944  0.2446  0.3205  1.2273
  411MOL0     H55456  11.846   2.633   4.980 -0.3998  0.3678  0.0815
  411MOL0     H55457  11.806   2.688   4.735  0.4471 -0.3304  0.0197
  411MOL0     H55458  11.753   2.521   4.713 -0.0212 -0.1140  0.9952
  411MOL0     H55459  12.028   2.654   4.784  1.0761 -0.6944  0.6793
  411MOL0     H55460  12.009   2.480   4.819  2.6745  3.2121  2.4026
  411MOL0     H55461  11.963   2.589   4.535 -0.7585 -3.7928 -3.2263
  411MOL0     H55462  11.951   2.425   4.603  0.8447 -1.3353 -0.3181
  411MOL0     H55463  12.198   2.443   4.658 -1.9963 -2.9014  0.0563
  411MOL0     H55464  12.168   2.463   4.488 -0.3513  3.0795 -0.7716
  411MOL0     H55465  11.194   2.628   4.978 -2.8764  0.9347 -3.1641
  411MOL0     H55466  10.972   2.686   5.023  0.0343  2.2244 -2.5205
  411MOL0     H55467  10.522   2.742   5.200 -3.8705 -0.4474 -0.2895
  411MOL0     H55468  10.318   2.852   5.122 -1.2517  2.8918 -0.3049
  411MOL0     H55469   8.513   3.570   5.717 -0.1027  0.1940  1.4567
  411MOL0     H55470   8.304   3.684   5.648 -0.1491  1.5075 -0.0255
  411MOL0     H55471   8.119   3.965   5.544  1.4516  0.0062 -2.6779
  411MOL0     H55472   7.918   4.084   5.594  1.6116 -1.4400  2.3385
  411MOL0     H55473   7.712   4.122   5.712  2.2955 -0.0028 -1.8923
  411MOL0     H55474   7.663   3.953   5.735  1.7707 -0.6842 -0.0459
  411MOL0     H55475   7.505   4.186   5.628 -1.5325 -1.5561 -2.5935
  411MOL0     H55476   7.482   4.137   5.790 -1.4767 -0.0640 -0.0583
  411MOL0     H55477   7.421   3.961   5.550  2.4024 -1.7457  1.6902
  411MOL0     H55478   7.296   4.053   5.621 -0.8587 -2.6343 -0.7343
  411MOL0     H55479   7.367   3.927   5.862  0.2408 -0.8169  0.5615
  411MOL0     H55480   7.256   3.864   5.756  0.0868  0.9330  1.2658
  411MOL0     H55481   7.570   3.586   5.740  1.0776 -0.7954  2.4871
  411MOL0     H55482   7.676   3.776   5.440  0.3770 -1.8842  0.5337
  411MOL0     H55483   7.763   3.582   5.356  1.1529 -1.7165  2.5155
  411MOL0     H55484   7.881   3.620   5.223  0.8797 -3.2347 -0.7229
  411MOL0     H55485   7.928   3.537   5.374 -0.9896  0.4827  0.8144
  412MOL0     O55486   0.016   8.658   2.400 -0.3474  0.1076 -0.4847
  412MOL0     C55487  -0.008   8.666   2.276  0.1114 -0.4202 -0.1044
  412MOL0     O55488   0.055   8.595   2.176 -0.4721  0.4693 -0.5164
  412MOL0     C55489   0.171   8.535   2.215 -0.0507  0.3336  0.0602
  412MOL0     C55490   0.177   8.397   2.211 -0.7279  0.6391  0.0059
  412MOL0     C55491   0.303   8.336   2.218 -1.0612 -0.5877 -0.4240
  412MOL0     C55492   0.424   8.404   2.225  0.4569  0.8881  0.2871
  412MOL0     O55493   0.547   8.343   2.224 -0.7474 -0.5047  0.5700
  412MOL0     C55494   0.560   8.209   2.264  0.1899  0.3718  0.2990
  412MOL0     C55495   0.712   8.170   2.277 -0.2177 -0.3568 -1.0380
  412MOL0     C55496   0.784   8.262   2.375  0.1142  0.7485  0.0458
  412MOL0     C55497   0.909   8.194   2.428 -0.5984 -0.0931 -0.6843
  412MOL0     C55498   0.978   8.289   2.535  0.2717  0.1313 -0.5326
  412MOL0     C55499   1.084   8.218   2.616 -0.6127 -0.3498  0.6907
  412MOL0     C55500   1.216   8.291   2.615  0.4566 -0.0624 -0.7101
  412MOL0     C55501   1.341   8.204   2.614 -0.3747 -0.1967  1.0530
  412MOL0     N55502   1.456   8.282   2.650 -0.1474  0.3628 -0.2848
  412MOL0     C55503   1.491   8.313   2.787 -0.5276  0.3518  0.0260
  412MOL0     C55504   1.611   8.377   2.770  0.6685 -0.2959  1.2930
  412MOL0     C55505   1.706   8.453   2.859  0.1541  0.3574 -0.3984
  412MOL0     C55506   1.847   8.399   2.838  0.2774  0.6519 -0.9529
  412MOL0     C55507   1.861   8.249   2.849  1.1861  0.1477  0.9282
  412MOL0     C55508   2.004   8.225   2.811 -0.1541 -0.5473  0.1017
  412MOL0     O55509   2.025   8.081   2.795 -0.3145  0.1810  0.3085
  412MOL0     C55510   2.111   8.034   2.705 -0.5030  0.0787 -0.0762
  412MOL0     C55511   2.221   8.113   2.668  0.8101  0.8388 -0.1120
  412MOL0     C55512   2.304   8.060   2.573  0.3174  0.0894 -0.1164
  412MOL0     C55513   2.294   7.934   2.519 -0.1246 -0.1540 -0.8909
  412MOL0     C55514   2.382   7.893   2.414 -0.3387 -0.4426  1.0050
  412MOL0     O55515   2.430   7.769   2.424  0.6348 -0.5396  0.2738
  412MOL0     C55516   2.543   7.720   2.367  0.3069  0.4943 -0.2259
  412MOL0     C55517   2.587   7.732   2.226 -0.3878  0.0697 -0.0128
  412MOL0     C55518   2.689   7.652   2.186  0.2523  0.0018  0.3732
  412MOL0     C55519   2.754   7.557   2.268  0.4061 -0.2748 -0.9018
  412MOL0     O55520   2.845   7.468   2.227 -0.1829  0.0575 -0.1404
  412MOL0     C55521   2.843   7.438   2.089  0.4071  0.5453 -0.4517
  412MOL0     C55522   2.946   7.326   2.065 -0.4184  0.5493  0.6016
  412MOL0     C55523   2.974   7.297   1.914  0.0428 -0.3644 -1.1232
  412MOL0     C55524   3.089   7.204   1.913  0.0793  0.5742 -1.2993
  412MOL0     C55525   3.094   7.139   1.780  0.3958 -0.7706  0.1258
  412MOL0     C55526   3.201   7.031   1.792 -0.7357  0.4693  0.0142
  412MOL0     C55527   3.207   6.957   1.664 -0.1088 -0.3148 -0.9427
  412MOL0     C55528   3.344   6.923   1.620 -0.1529  1.0317  0.5158
  412MOL0    Cl55529   3.448   6.857   1.745 -0.3102 -0.2613 -0.1167
  412MOL0     C55530   2.715   7.555   2.407 -0.0554 -0.2171 -0.4423
  412MOL0     C55531   2.614   7.637   2.449 -0.0829 -0.8927 -0.4782
  412MOL0     O55532   2.406   7.973   2.328 -0.8166  0.1691 -0.0367
  412MOL0     C55533   2.186   7.850   2.562 -0.4745  0.0997  0.5607
  412MOL0     C55534   2.095   7.896   2.658  0.0587  0.2659 -0.2642
  412MOL0     N55535   1.649   8.368   2.636  0.4141 -0.6685 -0.1294
  412MOL0     N55536   1.554   8.317   2.567  0.8530  0.3336 -0.1715
  412MOL0     C55537   0.412   8.543   2.234  0.3989  0.1296  0.3526
  412MOL0     C55538   0.293   8.606   2.229  0.7583  0.2769  0.6685
  412MOL0     C55539  -0.118   8.757   2.231 -1.0461 -0.1671 -0.1074
  412MOL0     C55540  -0.133   8.781   2.093 -0.2423  0.7192  0.0447
  412MOL0     C55541  -0.243   8.853   2.043 -0.3809 -0.3180 -0.2342
  412MOL0     C55542  -0.324   8.923   2.126 -0.3859  0.3035 -0.9432
  412MOL0     O55543  -0.428   8.999   2.063 -0.2986 -0.1567 -0.1941
  412MOL0     C55544  -0.539   9.050   2.129 -0.2296  0.1780  0.3901
  412MOL0     C55545  -0.656   9.010   2.056 -0.0524  0.3649  0.4268
  412MOL0     C55546  -0.780   9.096   2.089 -0.0282 -0.4201 -0.9016
  412MOL0     C55547  -0.879   9.107   1.969 -0.6623  0.1752 -0.0530
  412MOL0     C55548  -0.963   8.989   1.943  0.1345  1.4567  0.0717
  412MOL0     C55549  -1.029   8.894   1.896  0.2741 -0.4838 -0.3520
  412MOL0     C55550  -0.295   8.928   2.263 -0.0434 -0.1068  0.0852
  412MOL0     C55551  -0.193   8.840   2.322  0.3971 -0.2511 -0.1717
  412MOL0     C55552  -0.193   8.825   2.469 -0.1230 -0.0617 -0.3011
  412MOL0     H55553   0.084   8.342   2.214 -1.7225  2.2949  2.4957
  412MOL0     H55554   0.305   8.228   2.207 -0.2671 -0.5270 -0.8839
  412MOL0     H55555   0.527   8.187   2.366  2.0170 -0.6859  0.7070
  412MOL0     H55556   0.513   8.147   2.187 -2.1832 -1.1873  2.8119
  412MOL0     H55557   0.755   8.183   2.177  1.3215  0.8942 -0.2608
  412MOL0     H55558   0.722   8.065   2.306  1.9456 -0.5047 -2.1756
  412MOL0     H55559   0.719   8.261   2.463  0.8637  0.6782  0.6146
  412MOL0     H55560   0.802   8.360   2.331  2.5128 -0.0675 -0.9558
  412MOL0     H55561   0.881   8.099   2.474 -1.0341  0.9416  1.3143
  412MOL0     H55562   0.977   8.155   2.351  0.9094  1.0525  0.0065
  412MOL0     H55563   1.012   8.373   2.473 -2.3128  0.9756 -0.9557
  412MOL0     H55564   0.903   8.324   2.606  0.4718 -1.0294  0.2664
  412MOL0     H55565   1.049   8.221   2.719  2.4581 -2.0840  1.9341
  412MOL0     H55566   1.093   8.114   2.582 -1.1291  0.0039 -0.5751
  412MOL0     H55567   1.214   8.350   2.708  1.5308 -0.7467 -0.2344
  412MOL0     H55568   1.227   8.362   2.532 -1.7588 -0.8013 -1.7337
  412MOL0     H55569   1.312   8.133   2.692 -3.4790 -0.4523 -0.1725
  412MOL0     H55570   1.374   8.162   2.518  0.7656  1.7423  0.5507
  412MOL0     H55571   1.436   8.286   2.877  0.4490 -1.3626  0.1580
  412MOL0     H55572   1.715   8.559   2.836  1.6653  0.4572  0.5269
  412MOL0     H55573   1.679   8.431   2.962  0.7314 -0.3556 -0.3875
  412MOL0     H55574   1.886   8.435   2.742 -0.2915 -1.7395 -2.1495
  412MOL0     H55575   1.912   8.443   2.914  0.8338  1.0136 -1.6255
  412MOL0     H55576   1.794   8.196   2.780  2.0289 -0.5122  0.5909
  412MOL0     H55577   1.833   8.224   2.951 -1.5099 -1.2898 -0.0689
  412MOL0     H55578   2.077   8.272   2.877 -1.1568  1.5865 -0.2311
  412MOL0     H55579   2.026   8.274   2.716  0.4325  0.5260  0.7759
  412MOL0     H55580   2.243   8.216   2.698  1.2551  0.9200 -0.7045
  412MOL0     H55581   2.379   8.136   2.552  0.0333  0.9374  1.7500
  412MOL0     H55582   2.539   7.793   2.150 -1.6290 -3.4769 -2.3086
  412MOL0     H55583   2.725   7.690   2.091  0.5787  1.0307  0.8972
  412MOL0     H55584   2.739   7.406   2.071  0.3218  0.7693 -0.3617
  412MOL0     H55585   2.872   7.527   2.031  1.2191  0.8644  0.4282
  412MOL0     H55586   3.043   7.365   2.096  0.1096  1.2089 -1.6671
  412MOL0     H55587   2.913   7.236   2.117  0.0063  0.2326  0.3320
  412MOL0     H55588   2.880   7.255   1.877 -0.1547  0.1033 -1.1586
  412MOL0     H55589   2.993   7.390   1.859 -0.8188  0.0946 -0.6561
  412MOL0     H55590   3.081   7.125   1.988 -2.3003  2.9767  1.1926
  412MOL0     H55591   3.177   7.266   1.927  0.5036 -0.2944  0.0679
  412MOL0     H55592   3.118   7.209   1.699 -0.0547  0.1449  0.7757
  412MOL0     H55593   2.994   7.098   1.768 -0.0020  0.3183 -0.3599
  412MOL0     H55594   3.302   7.071   1.806 -0.6991  0.4289 -0.1319
  412MOL0     H55595   3.171   6.968   1.875 -2.1706  1.7711  0.5425
  412MOL0     H55596   3.162   7.022   1.588 -1.3538 -0.8081 -0.6330
  412MOL0     H55597   3.154   6.862   1.671  0.5417 -0.5744  3.6004
  412MOL0     H55598   3.327   6.861   1.532 -3.1027  2.2406  0.0876
  412MOL0     H55599   3.386   7.014   1.575 -1.8520 -0.3139 -4.4789
  412MOL0     H55600   2.772   7.490   2.472 -1.3466 -0.4924  0.4518
  412MOL0     H55601   2.584   7.628   2.553  1.9207  1.5268  0.4024
  412MOL0     H55602   2.179   7.753   2.514  4.3309 -0.6514  0.9010
  412MOL0     H55603   2.012   7.835   2.691  0.6479 -1.4424 -1.8033
  412MOL0     H55604   0.508   8.593   2.227  1.0818 -1.3184 -1.7012
  412MOL0     H55605   0.298   8.714   2.233  2.2025  0.3474 -1.3872
  412MOL0     H55606  -0.073   8.742   2.012  0.4914 -0.3410  1.0542
  412MOL0     H55607  -0.259   8.851   1.935  1.5505  0.4362 -0.5697
  412MOL0     H55608  -0.540   9.159   2.144 -2.6952  0.6527 -2.3384
  412MOL0     H55609  -0.553   9.008   2.229 -1.3963  1.0684  0.6346
  412MOL0     H55610  -0.679   8.905   2.076 -0.7312 -0.5246 -3.9434
  412MOL0     H55611  -0.631   9.021   1.950 -0.0671 -0.8467  0.2795
  412MOL0     H55612  -0.740   9.194   2.116  2.5508 -1.3065 -1.2793
  412MOL0     H55613  -0.834   9.062   2.178  2.3019  1.4089  1.3572
  412MOL0     H55614  -0.941   9.196   1.988 -1.7190 -0.4511 -0.4653
  412MOL0     H55615  -0.820   9.128   1.879  0.4809  0.2070  0.6850
  412MOL0     H55616  -1.070   8.796   1.881  0.4796 -0.8953  1.5333
  412MOL0     H55617  -0.359   8.981   2.333 -0.6461 -2.0971  1.1327
  412MOL0     H55618  -0.189   8.719   2.495 -2.7217 -0.5015 -1.4373
  412MOL0     H55619  -0.119   8.880   2.528 -0.3361 -1.9051  1.7943
  412MOL0     H55620  -0.283   8.867   2.514 -0.0863 -0.4796  0.1641
  413MOL0     O55621   7.745   9.978   6.047 -0.3552 -0.3934 -0.2795
  413MOL0     C55622   7.770  10.039   6.151  0.6024 -0.0233 -0.2741
  413MOL0     O55623   7.791   9.983   6.270  0.4191  0.2403 -0.3009
  413MOL0     C55624   7.767   9.858   6.294 -0.1151  1.4699 -0.0688
  413MOL0     C55625   7.659   9.826   6.384 -0.1482  0.0219  0.4011
  413MOL0     C55626   7.652   9.697   6.428 -0.7321  0.1235  0.5549
  413MOL0     C55627   7.744   9.590   6.385  0.5688  0.2281  0.2196
  413MOL0     O55628   7.728   9.459   6.431 -0.1498  0.0355  0.0276
  413MOL0     C55629   7.646   9.377   6.347  0.1973  0.6651 -1.2342
  413MOL0     C55630   7.515   9.332   6.416  0.3459 -0.6296  0.4334
  413MOL0     C55631   7.554   9.217   6.516 -0.2982 -0.4401  0.1843
  413MOL0     C55632   7.654   9.251   6.630 -0.0978  0.4367 -0.3467
  413MOL0     C55633   7.647   9.151   6.738 -0.7943  0.8035  1.1792
  413MOL0     C55634   7.771   9.171   6.826 -0.2812 -0.4441  0.5190
  413MOL0     C55635   7.759   9.095   6.960  0.2398 -0.6765  1.0408
  413MOL0     C55636   7.878   9.117   7.049 -0.0527 -0.6495  0.5798
  413MOL0     N55637   7.868   9.051   7.180  0.1146 -0.9984 -0.4271
  413MOL0     C55638   7.758   9.033   7.259 -0.0979  0.8516 -0.2138
  413MOL0     C55639   7.812   9.006   7.377 -0.2551  0.0274  0.6629
  413MOL0     C55640   7.745   8.966   7.502 -0.7188  0.1042  0.6129
  413MOL0     C55641   7.745   9.083   7.608 -0.0878  1.2441  0.8972
  413MOL0     C55642   7.696   9.214   7.544  0.3023 -0.0550 -0.5574
  413MOL0     C55643   7.670   9.325   7.643 -0.3935 -0.0466  0.7941
  413MOL0     O55644   7.601   9.428   7.574 -0.0048  0.0460 -1.2423
  413MOL0     C55645   7.604   9.554   7.626 -0.7076 -0.3866 -0.3758
  413MOL0     C55646   7.647   9.598   7.760  0.0308  0.1482  0.6741
  413MOL0     C55647   7.655   9.731   7.785  0.3696  0.0913  0.3909
  413MOL0     C55648   7.630   9.829   7.687 -0.1231  0.0415  0.8223
  413MOL0     C55649   7.634   9.974   7.716  0.4185  1.3650  0.3700
  413MOL0     O55650   7.629  10.059   7.613  0.2091  0.2048  0.6574
  413MOL0     C55651   7.589  10.189   7.612 -1.1586  0.4244  0.1327
  413MOL0     C55652   7.504  10.243   7.708  0.0910  0.3130 -1.0067
  413MOL0     C55653   7.477  10.381   7.712 -0.2963 -0.8071  0.8709
  413MOL0     C55654   7.527  10.473   7.617  0.2965 -0.4758 -0.1605
  413MOL0     O55655   7.507  10.606   7.611  0.3015 -0.2224  0.5549
  413MOL0     C55656   7.440  10.670   7.723 -0.2325  0.5852  1.1863
  413MOL0     C55657   7.442  10.822   7.685  0.9662 -0.2820 -0.5292
  413MOL0     C55658   7.393  10.905   7.811  0.3247 -0.4772 -0.0911
  413MOL0     C55659   7.396  11.055   7.774  0.6562  0.3649 -0.1027
  413MOL0     C55660   7.364  11.147   7.892 -0.9568 -0.8266  0.1688
  413MOL0     C55661   7.357  11.299   7.853  0.3399  0.2633 -0.0679
  413MOL0     C55662   7.332  11.384   7.971  0.5228  0.3537  0.3826
  413MOL0     C55663   7.184  11.400   8.009  0.1575 -0.5372  0.4292
  413MOL0    Cl55664   7.107  11.482   7.862  0.2426  0.0661 -0.0061
  413MOL0     C55665   7.603  10.413   7.511 -0.1219 -0.6101  0.4758
  413MOL0     C55666   7.641  10.279   7.514  0.9917  0.2685 -0.3277
  413MOL0     O55667   7.637  10.006   7.833  0.1745 -0.8103 -0.8319
  413MOL0     C55668   7.571   9.781   7.563  0.8695  0.1653 -0.4846
  413MOL0     C55669   7.571   9.650   7.532 -0.0460 -0.0346  1.0257
  413MOL0     N55670   7.945   8.974   7.357  0.1789  0.1529 -0.5378
  413MOL0     N55671   7.979   9.002   7.235 -0.2358 -0.8896  0.4956
  413MOL0     C55672   7.857   9.634   6.307 -0.1579 -0.2360 -0.2920
  413MOL0     C55673   7.871   9.766   6.263 -0.8164  0.8313 -0.3222
  413MOL0     C55674   7.759  10.184   6.141  0.4451 -0.5833  0.2353
  413MOL0     C55675   7.765  10.246   6.011  0.5489 -1.0889 -0.6580
  413MOL0     C55676   7.767  10.382   6.008 -0.7693  1.0491  0.0191
  413MOL0     C55677   7.737  10.460   6.121  0.4354 -0.1320 -0.6106
  413MOL0     O55678   7.724  10.593   6.099 -0.3601 -0.2871  0.3391
  413MOL0     C55679   7.724  10.683   6.218 -0.0829  0.4427  0.6307
  413MOL0     C55680   7.690  10.828   6.183  0.6819 -1.1459 -0.1062
  413MOL0     C55681   7.566  10.836   6.091 -1.0008  0.1134  1.2284
  413MOL0     C55682   7.556  10.981   6.031  1.1789  0.7340 -0.8379
  413MOL0     C55683   7.432  10.973   5.949  0.3777 -0.0556  0.2842
  413MOL0     C55684   7.340  10.948   5.874 -0.0208  0.0735  0.3366
  413MOL0     C55685   7.716  10.398   6.241 -0.2900  0.5266  0.3818
  413MOL0     C55686   7.728  10.263   6.258  0.6380  1.5167  0.3176
  413MOL0     C55687   7.696  10.199   6.398  0.1242 -0.3619 -0.0883
  413MOL0     H55688   7.600   9.909   6.420 -0.6104  1.1933 -2.7309
  413MOL0     H55689   7.579   9.670   6.503  1.9141 -0.5627  3.0797
  413MOL0     H55690   7.615   9.442   6.265  0.7102 -0.1379 -2.0865
  413MOL0     H55691   7.704   9.293   6.308  0.4405  1.3078 -2.3233
  413MOL0     H55692   7.442   9.294   6.344 -0.7696  0.6545  0.8603
  413MOL0     H55693   7.468   9.421   6.458  1.7038  0.7224 -0.7513
  413MOL0     H55694   7.601   9.139   6.456 -1.2309 -1.7328  1.0824
  413MOL0     H55695   7.456   9.181   6.548 -0.4438 -0.4486 -0.2688
  413MOL0     H55696   7.754   9.243   6.588  0.1409 -2.2712  0.5229
  413MOL0     H55697   7.641   9.352   6.669 -1.5102  0.1424  0.0049
  413MOL0     H55698   7.562   9.186   6.798 -0.1865  1.0265  1.9237
  413MOL0     H55699   7.638   9.046   6.708  3.5207  0.4978  0.3211
  413MOL0     H55700   7.864   9.140   6.778  0.3274 -1.4177  2.2251
  413MOL0     H55701   7.776   9.278   6.845 -1.6049 -0.2205 -0.2531
  413MOL0     H55702   7.750   8.989   6.935  0.3178 -1.0013  2.3070
  413MOL0     H55703   7.670   9.133   7.012  1.6069  2.8402  1.0719
  413MOL0     H55704   7.973   9.075   7.014  0.5130 -1.6423  3.0709
  413MOL0     H55705   7.894   9.224   7.062 -1.0040 -0.4648  0.3062
  413MOL0     H55706   7.652   9.043   7.236 -0.2723  0.9836  0.6179
  413MOL0     H55707   7.651   8.922   7.466  1.3776 -1.7913 -3.0022
  413MOL0     H55708   7.813   8.888   7.537  0.0401  0.1730 -0.6684
  413MOL0     H55709   7.685   9.057   7.696 -1.0185  0.4218  0.0622
  413MOL0     H55710   7.849   9.087   7.641  0.0798 -0.6033  0.7182
  413MOL0     H55711   7.601   9.200   7.491 -0.5580  5.3741 -1.1032
  413MOL0     H55712   7.765   9.255   7.469 -0.1191  0.5885 -0.6008
  413MOL0     H55713   7.760   9.364   7.693 -0.1431 -0.2080  0.4748
  413MOL0     H55714   7.617   9.279   7.727  0.6619  2.4697  3.0054
  413MOL0     H55715   7.674   9.531   7.841 -1.6020 -0.7633  0.5035
  413MOL0     H55716   7.677   9.763   7.886 -0.6068  0.8284  0.3842
  413MOL0     H55717   7.468  10.197   7.799  2.5862  1.6134  0.7762
  413MOL0     H55718   7.423  10.425   7.796 -0.7938 -0.8970  0.6009
  413MOL0     H55719   7.339  10.632   7.737 -0.6872  0.1182 -2.4638
  413MOL0     H55720   7.497  10.656   7.816 -1.5230  5.7455  3.1128
  413MOL0     H55721   7.544  10.855   7.664  0.8021  0.7401  0.2160
  413MOL0     H55722   7.369  10.849   7.608 -0.5410 -0.1203  0.8901
  413MOL0     H55723   7.298  10.858   7.837 -0.1369  0.8816  0.8011
  413MOL0     H55724   7.464  10.890   7.893  0.3172  0.8520  0.1938
  413MOL0     H55725   7.314  11.075   7.704  0.2273 -1.2753 -0.1182
  413MOL0     H55726   7.491  11.078   7.726  1.0604  0.6019  0.7879
  413MOL0     H55727   7.441  11.129   7.968 -1.8385  1.3775  1.6855
  413MOL0     H55728   7.267  11.127   7.937 -0.1845 -0.4596  2.1311
  413MOL0     H55729   7.454  11.327   7.810  0.5760 -2.3430 -1.4248
  413MOL0     H55730   7.279  11.317   7.778  0.4663 -1.6352 -0.6996
  413MOL0     H55731   7.375  11.482   7.945  0.7517  0.6512  1.7836
  413MOL0     H55732   7.390  11.350   8.057  0.3228 -1.1836 -0.0688
  413MOL0     H55733   7.138  11.306   8.042 -1.0190  0.0479  0.5135
  413MOL0     H55734   7.179  11.474   8.089  0.0978 -0.3262  0.2327
  413MOL0     H55735   7.636  10.484   7.437  4.2637 -0.9158  1.8626
  413MOL0     H55736   7.706  10.235   7.438  3.6464 -2.5591  3.2196
  413MOL0     H55737   7.516   9.844   7.493  0.1398 -1.9170 -1.8900
  413MOL0     H55738   7.535   9.632   7.431  3.9774  4.2136 -1.5701
  413MOL0     H55739   7.935   9.564   6.279  0.1967 -1.3017  2.9173
  413MOL0     H55740   7.962   9.792   6.211 -0.1699  0.1746  0.4519
  413MOL0     H55741   7.762  10.193   5.916 -0.0685 -0.7493 -0.8362
  413MOL0     H55742   7.794  10.427   5.912 -2.3627  1.2491 -0.3659
  413MOL0     H55743   7.824  10.688   6.262  0.2621  4.0495 -0.2221
  413MOL0     H55744   7.652  10.647   6.293  0.9044 -1.0217  0.9175
  413MOL0     H55745   7.775  10.874   6.132  0.5581  0.8580  1.3556
  413MOL0     H55746   7.667  10.887   6.272 -0.3144 -0.9869 -0.4489
  413MOL0     H55747   7.470  10.820   6.139 -1.5596 -1.6117 -0.3303
  413MOL0     H55748   7.581  10.768   6.007  0.2723 -0.1288  1.6214
  413MOL0     H55749   7.554  11.054   6.112 -1.2193 -0.7962  0.6122
  413MOL0     H55750   7.634  10.997   5.956  0.1647  0.2293 -2.0358
  413MOL0     H55751   7.269  10.912   5.803  0.1248 -0.3769  0.4168
  413MOL0     H55752   7.696  10.463   6.326  1.4556  0.1540  1.1142
  413MOL0     H55753   7.784  10.152   6.443  1.0987  2.3339  1.0765
  413MOL0     H55754   7.665  10.275   6.471 -1.3301  1.2495 -2.2424
  413MOL0     H55755   7.615  10.126   6.394  0.6616 -1.2228  2.5769
  414MOL0     O55756   1.572   1.385   4.340  0.7372  0.9371  0.3219
  414MOL0     C55757   1.671   1.384   4.270  0.2872  0.4637 -0.0715
  414MOL0     O55758   1.793   1.407   4.314 -0.0842  0.1099 -1.1201
  414MOL0     C55759   1.818   1.437   4.448  0.2420  0.6554  0.2854
  414MOL0     C55760   1.766   1.554   4.497  0.9803  0.1955 -0.2608
  414MOL0     C55761   1.815   1.597   4.627 -0.1257 -0.7577  0.0651
  414MOL0     C55762   1.894   1.519   4.711 -0.3182 -0.2259  0.4850
  414MOL0     O55763   1.930   1.548   4.842  0.2007  0.2559  1.2438
  414MOL0     C55764   1.965   1.686   4.873 -0.2731  0.2011 -0.3815
  414MOL0     C55765   2.050   1.702   4.998  1.1065 -0.1104  0.3337
  414MOL0     C55766   2.180   1.623   4.989 -0.6231  0.1610  0.1331
  414MOL0     C55767   2.250   1.635   5.121  0.5980  0.5456  0.3856
  414MOL0     C55768   2.381   1.556   5.117  0.1065 -1.0105  1.0598
  414MOL0     C55769   2.471   1.573   5.251  0.0502 -0.5820 -0.2848
  414MOL0     C55770   2.599   1.479   5.233 -0.2882 -0.2915  0.2603
  414MOL0     C55771   2.704   1.530   5.134 -1.1794  0.4511 -0.8911
  414MOL0     N55772   2.829   1.458   5.129  0.1372  0.6525  0.0081
  414MOL0     C55773   2.826   1.324   5.107 -1.3482  0.7392  0.3104
  414MOL0     C55774   2.956   1.292   5.093  0.4348 -0.4280  1.0645
  414MOL0     C55775   2.997   1.148   5.092  0.6174 -0.0193  0.0114
  414MOL0     C55776   3.137   1.141   5.020  0.1781 -0.1705  0.1278
  414MOL0     C55777   3.157   0.994   4.981  0.5841  0.3138  0.1326
  414MOL0     C55778   3.282   0.961   4.909  0.3717  0.1942  0.1496
  414MOL0     O55779   3.278   0.812   4.882  0.1447 -0.4126  0.5920
  414MOL0     C55780   3.397   0.770   4.845  0.3884  0.2746 -0.7665
  414MOL0     C55781   3.402   0.653   4.772  1.0816  0.1698 -0.6569
  414MOL0     C55782   3.515   0.576   4.747  0.5579  1.1094 -0.1621
  414MOL0     C55783   3.642   0.620   4.781  0.9348 -0.1475 -0.8338
  414MOL0     C55784   3.764   0.533   4.744  0.1467 -1.2422  0.0774
  414MOL0     O55785   3.877   0.609   4.719 -0.7994 -0.7292 -0.6251
  414MOL0     C55786   3.990   0.560   4.648 -1.0221 -0.0809 -0.8417
  414MOL0     C55787   4.069   0.660   4.599 -0.4257 -0.3711 -0.6602
  414MOL0     C55788   4.200   0.634   4.553  0.1189 -0.1447 -0.6256
  414MOL0     C55789   4.248   0.501   4.545  0.3401  0.5357  0.9263
  414MOL0     O55790   4.366   0.482   4.490  0.8737 -0.2017 -0.1009
  414MOL0     C55791   4.455   0.381   4.538  0.0781  1.0105  0.2516
  414MOL0     C55792   4.606   0.421   4.536 -0.2381 -0.1117  0.5103
  414MOL0     C55793   4.651   0.497   4.670  0.5807 -0.1684  0.0433
  414MOL0     C55794   4.805   0.505   4.669 -0.1132  0.6684 -0.1420
  414MOL0     C55795   4.853   0.548   4.813 -0.8049  0.3680 -0.4813
  414MOL0     C55796   5.001   0.536   4.816  0.3989  0.4352 -0.5388
  414MOL0     C55797   5.072   0.584   4.940  1.2381 -0.9582 -0.5347
  414MOL0     C55798   5.222   0.631   4.931  0.6741  0.4848 -0.2893
  414MOL0    Cl55799   5.335   0.513   4.855 -0.0978 -0.1323 -0.3079
  414MOL0     C55800   4.165   0.398   4.596  0.3901  0.0359 -0.2913
  414MOL0     C55801   4.039   0.428   4.646 -0.7728 -0.9003 -0.2406
  414MOL0     O55802   3.750   0.415   4.711 -0.1864  0.7495  0.3159
  414MOL0     C55803   3.642   0.738   4.868 -1.1420 -0.3281  0.6059
  414MOL0     C55804   3.521   0.804   4.897 -1.1318  0.2004  0.2763
  414MOL0     N55805   3.038   1.402   5.112 -0.7889  0.5177 -0.3745
  414MOL0     N55806   2.960   1.508   5.127 -0.3518  0.4177 -0.7423
  414MOL0     C55807   1.934   1.394   4.661 -0.0151 -0.3455  0.2354
  414MOL0     C55808   1.906   1.360   4.533 -0.3677 -0.1991 -0.6017
  414MOL0     C55809   1.658   1.376   4.127  0.2484  0.1852  1.5341
  414MOL0     C55810   1.536   1.316   4.076  0.6934  0.6507 -0.2353
  414MOL0     C55811   1.504   1.301   3.949  0.4919 -0.3212  0.8015
  414MOL0     C55812   1.592   1.365   3.847  0.4961  0.1551 -1.0226
  414MOL0     O55813   1.577   1.363   3.708  0.2471 -0.8085 -0.2943
  414MOL0     C55814   1.464   1.304   3.649  0.1454  0.2901  0.3224
  414MOL0     C55815   1.341   1.396   3.638 -0.1159 -0.2395  1.0565
  414MOL0     C55816   1.356   1.523   3.538 -0.1368  0.2621  0.0693
  414MOL0     C55817   1.341   1.497   3.389 -0.0540  0.4550  0.1224
  414MOL0     C55818   1.212   1.443   3.365  0.0418 -0.9902 -0.0474
  414MOL0     C55819   1.097   1.412   3.334  1.0525 -0.9199  0.3838
  414MOL0     C55820   1.708   1.430   3.891 -0.3566  1.0455 -0.7136
  414MOL0     C55821   1.745   1.435   4.024  0.3156  0.1368  0.3753
  414MOL0     C55822   1.875   1.501   4.049  0.0261 -0.2351  0.1803
  414MOL0     H55823   1.697   1.618   4.443 -0.2015 -1.2072 -0.4570
  414MOL0     H55824   1.782   1.694   4.664  3.7918  1.2748 -1.1781
  414MOL0     H55825   2.019   1.733   4.790  1.3019 -0.1477  0.4024
  414MOL0     H55826   1.876   1.747   4.890  0.5323  1.0055  1.2088
  414MOL0     H55827   1.998   1.663   5.086  1.9243  0.7866  1.2374
  414MOL0     H55828   2.078   1.807   5.014 -1.4686  1.1009 -2.2439
  414MOL0     H55829   2.244   1.672   4.915 -0.4975 -0.8735 -0.4660
  414MOL0     H55830   2.161   1.522   4.953 -3.9990  1.1052 -1.1479
  414MOL0     H55831   2.278   1.740   5.138 -0.3475  0.9775 -0.6492
  414MOL0     H55832   2.193   1.603   5.208  2.7211  1.0820  2.0654
  414MOL0     H55833   2.357   1.451   5.100  0.3328 -1.1244  1.4427
  414MOL0     H55834   2.432   1.590   5.026 -0.6625  2.9840  1.9357
  414MOL0     H55835   2.505   1.676   5.267  0.2918 -0.5677 -0.8688
  414MOL0     H55836   2.406   1.540   5.333  0.9473  0.4026  0.8653
  414MOL0     H55837   2.572   1.374   5.218  0.8147 -0.4963 -0.4189
  414MOL0     H55838   2.640   1.482   5.334 -0.5744 -0.1281  0.3718
  414MOL0     H55839   2.664   1.526   5.032  0.9209 -0.9262 -1.7265
  414MOL0     H55840   2.727   1.630   5.171 -5.0308 -0.4952  5.8288
  414MOL0     H55841   2.743   1.254   5.105 -0.1848 -0.6955 -1.5586
  414MOL0     H55842   2.988   1.099   5.189  0.9729 -1.5617 -0.7107
  414MOL0     H55843   2.929   1.085   5.035  0.2344 -0.0059  0.4456
  414MOL0     H55844   3.133   1.205   4.932  1.3003  0.9710  0.8628
  414MOL0     H55845   3.208   1.178   5.095 -0.3227  0.7073  0.1830
  414MOL0     H55846   3.073   0.948   4.928  0.9757 -0.0134 -0.2078
  414MOL0     H55847   3.165   0.948   5.080  2.8803  2.6534  1.1357
  414MOL0     H55848   3.372   0.996   4.960  0.8111  3.6328 -2.5806
  414MOL0     H55849   3.271   1.009   4.811  0.5407  1.0313  0.5378
  414MOL0     H55850   3.313   0.616   4.721  1.0594  1.0920 -1.3176
  414MOL0     H55851   3.504   0.493   4.678  0.4594  1.4777 -0.5989
  414MOL0     H55852   4.045   0.765   4.608 -4.5315 -1.2014  0.2333
  414MOL0     H55853   4.268   0.711   4.521 -1.4427  0.8201 -1.7899
  414MOL0     H55854   4.426   0.361   4.642 -0.6100  0.8342  0.0290
  414MOL0     H55855   4.438   0.284   4.490 -1.6560 -0.4070  3.4260
  414MOL0     H55856   4.673   0.338   4.514  0.3379  1.1013 -2.8807
  414MOL0     H55857   4.619   0.471   4.440 -4.8680 -1.1316 -0.9229
  414MOL0     H55858   4.613   0.597   4.692  1.6313 -0.2087  2.3151
  414MOL0     H55859   4.631   0.447   4.765 -2.1051 -0.3439 -0.5331
  414MOL0     H55860   4.846   0.569   4.591  0.0101  1.1667  0.3253
  414MOL0     H55861   4.841   0.405   4.644  1.3969  0.5390  2.1788
  414MOL0     H55862   4.813   0.485   4.893  1.6051  1.2500  1.5482
  414MOL0     H55863   4.818   0.650   4.829  0.6729  0.6481  1.2795
  414MOL0     H55864   5.025   0.430   4.806  2.4407  0.7211  0.7037
  414MOL0     H55865   5.054   0.589   4.736  1.7264 -1.2279 -0.8306
  414MOL0     H55866   5.074   0.503   5.014  2.3714 -0.9675 -0.5649
  414MOL0     H55867   5.007   0.658   4.987  3.4445  0.6463  0.1325
  414MOL0     H55868   5.226   0.724   4.873 -0.1025 -0.8933 -2.6508
  414MOL0     H55869   5.255   0.658   5.032 -0.0402  0.4887 -0.0565
  414MOL0     H55870   4.193   0.294   4.601 -0.6734 -0.2768 -0.7095
  414MOL0     H55871   3.973   0.346   4.674 -0.9552 -0.3519  1.0198
  414MOL0     H55872   3.737   0.779   4.899  0.0911 -1.9526 -0.8430
  414MOL0     H55873   3.536   0.894   4.955 -2.0478 -0.0060  0.8433
  414MOL0     H55874   2.011   1.336   4.711  0.7809  0.4828  0.0081
  414MOL0     H55875   1.958   1.280   4.481  0.5817  2.2020 -3.6875
  414MOL0     H55876   1.476   1.256   4.145  1.9230 -1.1778 -0.6876
  414MOL0     H55877   1.416   1.241   3.934 -1.2540  1.6765  2.4372
  414MOL0     H55878   1.418   1.224   3.709  0.5789 -0.4991 -0.3771
  414MOL0     H55879   1.485   1.259   3.551 -0.2209 -2.0475  1.2368
  414MOL0     H55880   1.308   1.437   3.734 -3.3075 -1.7130  0.7394
  414MOL0     H55881   1.256   1.333   3.610 -2.2705  2.5080  0.9408
  414MOL0     H55882   1.442   1.586   3.563  0.0871  2.5745 -5.2232
  414MOL0     H55883   1.276   1.594   3.563  1.2792  2.8703 -2.3054
  414MOL0     H55884   1.361   1.587   3.330  1.8218 -0.0076 -0.0213
  414MOL0     H55885   1.416   1.431   3.345 -0.2680  1.4800 -1.8775
  414MOL0     H55886   0.995   1.385   3.317  0.2439  2.7891 -1.8225
  414MOL0     H55887   1.780   1.472   3.822  2.1600 -2.7191 -0.7156
  414MOL0     H55888   1.857   1.590   4.111 -0.9786  1.6564 -2.5859
  414MOL0     H55889   1.945   1.439   4.105 -0.3685  0.6059  1.6662
  414MOL0     H55890   1.917   1.536   3.954 -0.5496  0.9883  0.3499
  415MOL0     O55891   3.943   3.463  11.139 -0.1078  0.0619 -0.7868
  415MOL0     C55892   3.954   3.366  11.219  0.1135  0.3436  0.9762
  415MOL0     O55893   4.069   3.341  11.293  0.1677 -0.0770  0.3448
  415MOL0     C55894   4.180   3.429  11.311  0.6010  0.8050 -0.8674
  415MOL0     C55895   4.307   3.372  11.327 -0.1034  0.1701 -0.2490
  415MOL0     C55896   4.418   3.454  11.342  0.2266 -0.2120 -0.2293
  415MOL0     C55897   4.407   3.597  11.320 -0.9577  0.2136  0.4044
  415MOL0     O55898   4.528   3.663  11.324  0.2173  0.4111  0.1200
  415MOL0     C55899   4.555   3.767  11.228 -0.4550  0.4844  0.4883
  415MOL0     C55900   4.559   3.899  11.300  0.8188  0.4658 -1.0572
  415MOL0     C55901   4.606   4.016  11.221  1.0733 -0.0880  0.1398
  415MOL0     C55902   4.735   4.072  11.266  0.7762 -0.3649 -0.7218
  415MOL0     C55903   4.786   4.190  11.182 -0.3719  0.3762  0.3293
  415MOL0     C55904   4.908   4.267  11.249 -0.7460  0.6382  1.0892
  415MOL0     C55905   4.966   4.359  11.150  0.6162  0.3873  0.0210
  415MOL0     C55906   5.079   4.452  11.214 -0.4575 -0.5163 -0.5109
  415MOL0     N55907   5.152   4.532  11.109  0.1767  0.9723 -0.4830
  415MOL0     C55908   5.096   4.567  10.983  0.9022 -0.3171 -1.0906
  415MOL0     C55909   5.192   4.657  10.936 -0.6195 -0.1033  0.4107
  415MOL0     C55910   5.186   4.731  10.808  0.3755  0.9944  0.4589
  415MOL0     C55911   5.319   4.750  10.736 -0.4151  0.1331 -0.1078
  415MOL0     C55912   5.370   4.630  10.647 -0.3901 -0.9086 -0.9580
  415MOL0     C55913   5.523   4.659  10.625 -0.1182  0.3735  0.6122
  415MOL0     O55914   5.544   4.779  10.550 -0.9175  0.7826 -0.6356
  415MOL0     C55915   5.666   4.822  10.517 -0.0747 -0.0559  0.4531
  415MOL0     C55916   5.782   4.777  10.575  0.6997 -1.0018  0.3633
  415MOL0     C55917   5.897   4.821  10.525  0.0257 -0.1412 -0.0023
  415MOL0     C55918   5.903   4.918  10.425  0.2815 -0.5760  0.2843
  415MOL0     C55919   6.035   4.979  10.377 -0.0563 -0.0454  0.5106
  415MOL0     O55920   6.147   4.966  10.459  0.0979  0.4996  0.1490
  415MOL0     C55921   6.249   5.054  10.442 -0.2995  0.4615 -0.3744
  415MOL0     C55922   6.247   5.191  10.485 -0.0254  0.1046 -0.0073
  415MOL0     C55923   6.359   5.275  10.480 -0.2384  0.1267 -0.9963
  415MOL0     C55924   6.480   5.216  10.429 -0.7568 -0.4458 -0.2858
  415MOL0     O55925   6.597   5.287  10.429  0.2412  0.2585  0.1058
  415MOL0     C55926   6.595   5.424  10.389  0.4797 -0.4674  0.7670
  415MOL0     C55927   6.734   5.475  10.394  0.1177  0.6809  0.4153
  415MOL0     C55928   6.734   5.617  10.337  0.0794 -0.2237 -0.8714
  415MOL0     C55929   6.708   5.644  10.190 -0.6279 -0.5094  0.0838
  415MOL0     C55930   6.652   5.790  10.182 -0.3116  0.5519 -0.7704
  415MOL0     C55931   6.712   5.843  10.042  0.3090  0.2497  0.1127
  415MOL0     C55932   6.655   5.975  10.012 -0.3274 -0.5181 -0.2918
  415MOL0     C55933   6.744   6.095  10.036  0.3668 -0.0537  0.5036
  415MOL0    Cl55934   6.651   6.245  10.021  0.2710  0.0495  0.0713
  415MOL0     C55935   6.492   5.083  10.388  0.4422  0.2321 -0.2111
  415MOL0     C55936   6.380   5.003  10.398 -0.2392  0.3232 -0.8401
  415MOL0     O55937   6.022   5.041  10.269 -0.6655  0.1052 -0.5607
  415MOL0     C55938   5.782   4.959  10.365  1.0090 -0.1592  0.0100
  415MOL0     C55939   5.661   4.908  10.413 -0.8077 -0.2217  0.0399
  415MOL0     N55940   5.298   4.666  11.024  0.4988 -0.2048 -0.9245
  415MOL0     N55941   5.271   4.598  11.124  0.0355  0.2000  0.2116
  415MOL0     C55942   4.288   3.658  11.300 -0.2443  0.8134 -0.1512
  415MOL0     C55943   4.176   3.573  11.306  0.6650  1.2672 -0.3438
  415MOL0     C55944   3.840   3.271  11.245  0.3089 -0.4650  0.3616
  415MOL0     C55945   3.834   3.197  11.364  0.1112  0.3747  0.0652
  415MOL0     C55946   3.726   3.119  11.406 -0.4791  0.8217  0.4710
  415MOL0     C55947   3.629   3.094  11.317 -0.4810 -0.5147 -0.2381
  415MOL0     O55948   3.531   3.006  11.343 -0.1282  0.2649 -0.0500
  415MOL0     C55949   3.396   3.047  11.383 -0.2987  0.2287  1.1041
  415MOL0     C55950   3.401   3.098  11.524 -0.1435 -0.4550 -0.0638
  415MOL0     C55951   3.253   3.138  11.558  0.4399 -0.0878 -0.5387
  415MOL0     C55952   3.218   3.148  11.708 -0.2470  0.3691 -0.7825
  415MOL0     C55953   3.308   3.247  11.779  0.5573 -0.2943 -0.1709
  415MOL0     C55954   3.393   3.317  11.820 -0.1991  0.9922  0.2933
  415MOL0     C55955   3.631   3.153  11.196  0.4421 -1.0446 -0.5174
  415MOL0     C55956   3.724   3.253  11.159 -0.2758 -0.4042 -0.3623
  415MOL0     C55957   3.693   3.335  11.037  0.2517  1.5819  0.6450
  415MOL0     H55958   4.318   3.266  11.348 -0.0636 -0.0359 -1.2504
  415MOL0     H55959   4.513   3.402  11.348  0.7458  0.5188 -1.8803
  415MOL0     H55960   4.655   3.756  11.185 -0.6482  1.8055 -0.3630
  415MOL0     H55961   4.486   3.772  11.143  0.4839 -0.1163 -0.3483
  415MOL0     H55962   4.618   3.890  11.391 -0.7705 -0.3979 -0.0636
  415MOL0     H55963   4.459   3.930  11.333  0.0645 -3.4624  0.9318
  415MOL0     H55964   4.536   4.098  11.239 -1.1090 -2.0407  1.1856
  415MOL0     H55965   4.594   4.003  11.113 -1.9638 -1.2046  0.5086
  415MOL0     H55966   4.716   4.106  11.368 -1.5946 -1.4809 -0.7438
  415MOL0     H55967   4.805   3.988  11.268  2.7089  1.1289 -1.1666
  415MOL0     H55968   4.820   4.147  11.087 -0.4774 -0.2227  0.5565
  415MOL0     H55969   4.709   4.261  11.152 -0.3389 -0.1265 -0.9727
  415MOL0     H55970   4.868   4.322  11.334 -0.3932 -0.6779  2.1272
  415MOL0     H55971   4.992   4.202  11.276 -1.9455 -1.0186  0.9753
  415MOL0     H55972   4.892   4.422  11.099 -0.5324 -1.1175 -0.2710
  415MOL0     H55973   5.013   4.290  11.080  0.3637 -2.1108  2.1577
  415MOL0     H55974   5.029   4.521  11.283 -0.3981 -1.7607  0.8108
  415MOL0     H55975   5.140   4.387  11.276 -0.9943  3.0231  4.3082
  415MOL0     H55976   4.999   4.546  10.940  0.2762 -0.8561  0.5214
  415MOL0     H55977   5.122   4.676  10.739 -1.5587  0.4658  2.5473
  415MOL0     H55978   5.145   4.832  10.818  0.5329  0.9080  2.2412
  415MOL0     H55979   5.298   4.836  10.672 -0.3386 -0.4626 -0.9471
  415MOL0     H55980   5.393   4.769  10.814 -1.0122 -3.8400  1.6236
  415MOL0     H55981   5.315   4.629  10.553 -0.6585  2.8802 -0.9987
  415MOL0     H55982   5.364   4.537  10.704 -1.1938  0.4656  1.3504
  415MOL0     H55983   5.579   4.576  10.580  0.3645 -0.6626  2.9822
  415MOL0     H55984   5.577   4.667  10.720  3.4204  1.4883 -1.3187
  415MOL0     H55985   5.790   4.703  10.654  4.3645  1.1946  2.3431
  415MOL0     H55986   5.991   4.782  10.563 -0.5504 -1.5733  0.0476
  415MOL0     H55987   6.160   5.237  10.531  2.1681  3.5329  1.0536
  415MOL0     H55988   6.358   5.371  10.532 -0.3512 -0.7453  0.6534
  415MOL0     H55989   6.550   5.427  10.289  1.8055  2.5288  0.1347
  415MOL0     H55990   6.531   5.487  10.451 -0.7659  0.9672 -1.7810
  415MOL0     H55991   6.771   5.462  10.496  3.5576 -2.4249 -0.9970
  415MOL0     H55992   6.797   5.415  10.329  0.1184 -0.8727  1.8014
  415MOL0     H55993   6.652   5.661  10.395  0.7476  0.5499 -0.4978
  415MOL0     H55994   6.831   5.659  10.365  0.1909  0.3277 -2.0125
  415MOL0     H55995   6.636   5.576  10.144  0.8463 -0.2730 -2.8096
  415MOL0     H55996   6.803   5.631  10.137 -0.8645  2.4802 -1.2675
  415MOL0     H55997   6.686   5.853  10.265 -0.5901 -2.4982  1.8142
  415MOL0     H55998   6.542   5.791  10.186 -0.3007 -0.8336  1.9043
  415MOL0     H55999   6.821   5.844  10.053  0.4402 -0.7215 -0.9227
  415MOL0     H56000   6.682   5.778   9.959 -2.3380 -1.4144  2.1945
  415MOL0     H56001   6.568   5.988  10.076  2.0538  1.2798  2.8882
  415MOL0     H56002   6.636   5.986   9.905  0.6235  0.6747 -0.3615
  415MOL0     H56003   6.793   6.101  10.133 -2.0595 -0.8127  1.8664
  415MOL0     H56004   6.829   6.104   9.967  0.3711 -0.8319  0.3974
  415MOL0     H56005   6.591   5.044  10.365  1.3232  2.0880  0.2142
  415MOL0     H56006   6.394   4.898  10.374  3.4738  0.6709 -0.8083
  415MOL0     H56007   5.790   5.045  10.298  4.0239  0.5740  1.1429
  415MOL0     H56008   5.572   4.946  10.363 -0.0924  0.7743 -0.5063
  415MOL0     H56009   4.263   3.763  11.288 -2.8720  0.2718 -0.0002
  415MOL0     H56010   4.083   3.629  11.305 -0.5147 -0.5643  0.6424
  415MOL0     H56011   3.913   3.206  11.438  0.0870 -1.9277  0.4456
  415MOL0     H56012   3.732   3.061  11.497  3.2294  0.9959  0.4744
  415MOL0     H56013   3.341   2.952  11.382  0.5098 -0.2685  2.5856
  415MOL0     H56014   3.353   3.115  11.308  0.4205 -1.0562 -0.5446
  415MOL0     H56015   3.464   3.186  11.539 -1.2863  0.5873 -1.1079
  415MOL0     H56016   3.443   3.020  11.588  1.5040  0.3622 -0.0803
  415MOL0     H56017   3.177   3.070  11.518 -0.5659 -0.0241  1.1256
  415MOL0     H56018   3.223   3.236  11.519  0.3058  0.1742  0.1967
  415MOL0     H56019   3.116   3.181  11.730 -1.4759 -2.1150 -2.3325
  415MOL0     H56020   3.234   3.046  11.745  1.5672  0.3966 -1.4129
  415MOL0     H56021   3.491   3.360  11.828  1.3377 -1.5496 -2.6715
  415MOL0     H56022   3.545   3.139  11.130  3.0124 -1.8378 -3.9838
  415MOL0     H56023   3.765   3.298  10.964 -1.8929  2.5489 -2.1287
  415MOL0     H56024   3.599   3.302  10.990  0.3399 -0.7045  1.9045
  415MOL0     H56025   3.698   3.444  11.038  0.5359  1.7199 -2.8466
  416MOL0     O56026   2.776  10.332  10.165 -0.5385  0.2267  0.4495
  416MOL0     C56027   2.778  10.206  10.165  0.2244  0.0254  0.5005
  416MOL0     O56028   2.860  10.128  10.250  0.5040  0.5106  1.1533
  416MOL0     C56029   2.936  10.196  10.347 -0.5446  0.8032 -0.3741
  416MOL0     C56030   2.881  10.216  10.467 -0.1689  0.1097 -0.3674
  416MOL0     C56031   2.949  10.283  10.562  0.1303 -0.4963 -0.2945
  416MOL0     C56032   3.078  10.335  10.546  0.1799 -0.3463  0.4140
  416MOL0     O56033   3.134  10.392  10.653 -0.0640  0.0767  0.2983
  416MOL0     C56034   3.274  10.421  10.672 -0.0455 -0.2384 -0.7600
  416MOL0     C56035   3.307  10.441  10.820  0.0204  0.2988 -0.3140
  416MOL0     C56036   3.452  10.483  10.833 -0.4474 -0.7727 -1.2351
  416MOL0     C56037   3.474  10.634  10.858  0.5390 -0.0225  0.2426
  416MOL0     C56038   3.622  10.659  10.890  0.2529  0.5668 -0.1740
  416MOL0     C56039   3.645  10.813  10.888  0.6062  0.0681  0.2512
  416MOL0     C56040   3.790  10.858  10.904 -0.9400 -0.4203  0.3012
  416MOL0     C56041   3.793  11.011  10.876  0.0606  0.5840  0.3445
  416MOL0     N56042   3.928  11.051  10.929 -0.1714  0.2243  0.5272
  416MOL0     C56043   4.055  11.017  10.885  0.3403  0.2950  0.9360
  416MOL0     C56044   4.138  11.091  10.959 -0.7287 -0.2415  0.1007
  416MOL0     C56045   4.291  11.084  10.959  0.5421 -0.3819 -0.1660
  416MOL0     C56046   4.340  11.108  11.098 -0.0871  0.7042 -0.2175
  416MOL0     C56047   4.490  11.128  11.094  0.2233  0.1619 -0.7127
  416MOL0     C56048   4.561  11.117  11.228 -0.8198  0.2342  0.0881
  416MOL0     O56049   4.585  10.983  11.270  0.0028  0.0285  0.0821
  416MOL0     C56050   4.717  10.967  11.313  0.1195  0.5285 -0.4313
  416MOL0     C56051   4.797  10.866  11.262 -0.6436  0.2813  0.5528
  416MOL0     C56052   4.920  10.837  11.332  1.4632 -0.0365 -0.6604
  416MOL0     C56053   4.966  10.915  11.444 -0.2857 -0.1341 -1.0864
  416MOL0     C56054   5.104  10.900  11.507  0.3703 -0.6783 -0.2817
  416MOL0     O56055   5.141  11.002  11.601 -0.8313 -0.0213  0.4362
  416MOL0     C56056   5.248  10.991  11.692 -0.1962 -0.0377 -0.2905
  416MOL0     C56057   5.323  11.111  11.707  0.3625  0.6471 -0.1762
  416MOL0     C56058   5.431  11.110  11.795  0.0451 -0.1311 -0.9796
  416MOL0     C56059   5.458  10.996  11.875  0.3091 -0.0013 -0.0713
  416MOL0     O56060   5.552  10.999  11.971  0.0243  0.0725  0.0120
  416MOL0     C56061   5.605  11.116  12.028 -0.1786  1.4178 -0.1065
  416MOL0     C56062   5.721  11.081  12.121 -0.1779  0.7883  1.0954
  416MOL0     C56063   5.831  11.021  12.031 -0.4362  0.6667  0.0606
  416MOL0     C56064   5.963  11.044  12.101  0.3215  1.0646  0.5897
  416MOL0     C56065   6.059  10.955  12.018 -0.2245  0.3784 -0.2901
  416MOL0     C56066   6.199  10.979  12.077  0.0749  0.2618  0.4674
  416MOL0     C56067   6.314  10.918  11.998 -0.3447  0.2862 -0.1096
  416MOL0     C56068   6.454  10.933  12.063 -0.8927  0.1380  0.5954
  416MOL0    Cl56069   6.565  10.822  11.998 -0.2796  0.0115  0.1633
  416MOL0     C56070   5.383  10.884  11.853 -1.3718  0.2426 -0.3429
  416MOL0     C56071   5.281  10.873  11.759 -0.7517 -0.0557  1.1705
  416MOL0     O56072   5.172  10.801  11.487  0.3740  0.5711 -0.8653
  416MOL0     C56073   4.881  11.020  11.494 -0.4356  0.3183  0.5559
  416MOL0     C56074   4.763  11.043  11.428 -0.7602 -0.6137  0.2729
  416MOL0     N56075   4.063  11.178  11.028 -0.5838 -0.2925 -0.0495
  416MOL0     N56076   3.937  11.160  10.998 -0.6529 -0.5400 -0.0284
  416MOL0     C56077   3.139  10.319  10.418  0.2894  0.2008  0.0697
  416MOL0     C56078   3.055  10.259  10.314  1.4018  0.4042  0.6054
  416MOL0     C56079   2.721  10.132  10.051 -0.6763 -0.0528 -0.5250
  416MOL0     C56080   2.794  10.012  10.012  0.3308  1.1521  0.7085
  416MOL0     C56081   2.755   9.940   9.893  0.3798 -0.4673 -0.6194
  416MOL0     C56082   2.649   9.985   9.811 -0.4551  0.6166 -0.1086
  416MOL0     O56083   2.616   9.926   9.698 -0.4747  0.0540 -0.2824
  416MOL0     C56084   2.537   9.806   9.699 -0.2619  0.1743 -0.0349
  416MOL0     C56085   2.619   9.673   9.722  0.4474  0.4131 -0.3675
  416MOL0     C56086   2.750   9.665   9.646  0.3354  0.1337 -0.3713
  416MOL0     C56087   2.746   9.720   9.501 -0.7144  0.4228 -0.7527
  416MOL0     C56088   2.870   9.691   9.428 -0.6135 -0.0964 -1.1911
  416MOL0     C56089   2.964   9.663   9.362 -0.7600 -0.0242 -1.1854
  416MOL0     C56090   2.567  10.092   9.858  0.1299 -0.0769  0.0993
  416MOL0     C56091   2.613  10.179   9.965 -0.5765  1.0040 -0.1564
  416MOL0     C56092   2.532  10.300   9.990 -0.1593 -1.1607 -0.0303
  416MOL0     H56093   2.781  10.182  10.492 -0.1326  0.7944  0.8099
  416MOL0     H56094   2.894  10.274  10.656  1.7009  3.1613  1.1664
  416MOL0     H56095   3.340  10.343  10.634  3.7965  1.1343  2.3930
  416MOL0     H56096   3.294  10.510  10.612 -2.7529 -0.8768 -2.7952
  416MOL0     H56097   3.288  10.344  10.866  0.8118  0.2295 -0.1174
  416MOL0     H56098   3.238  10.509  10.872  1.3079  0.3351  1.4504
  416MOL0     H56099   3.506  10.468  10.739  2.6365  2.9753 -0.3355
  416MOL0     H56100   3.507  10.427  10.909 -1.2525 -1.9166 -1.4706
  416MOL0     H56101   3.438  10.680  10.766 -1.1403 -2.2371 -0.2867
  416MOL0     H56102   3.413  10.670  10.941 -1.3404 -0.9728 -0.6767
  416MOL0     H56103   3.643  10.613  10.987  0.2882 -1.6417 -1.1687
  416MOL0     H56104   3.687  10.608  10.818  0.1241  0.8983 -0.5215
  416MOL0     H56105   3.607  10.841  10.789  1.4362 -0.1333 -0.1325
  416MOL0     H56106   3.589  10.856  10.971 -2.2273  3.0137 -2.8390
  416MOL0     H56107   3.859  10.803  10.839  0.1431 -0.8929  1.7854
  416MOL0     H56108   3.818  10.849  11.009 -1.1420  2.4159  0.6812
  416MOL0     H56109   3.777  11.042  10.773 -3.0163  2.0162  1.1469
  416MOL0     H56110   3.722  11.058  10.944  0.4588  1.1228  0.3905
  416MOL0     H56111   4.081  10.938  10.816 -2.2688  0.5379 -0.4242
  416MOL0     H56112   4.328  10.984  10.936  2.1012 -0.6500  3.0674
  416MOL0     H56113   4.346  11.160  10.903  2.5664 -2.3960 -1.0670
  416MOL0     H56114   4.273  11.180  11.145 -1.1042  1.0268 -2.0743
  416MOL0     H56115   4.338  11.014  11.154  2.9545  0.6946  0.0566
  416MOL0     H56116   4.502  11.228  11.051 -3.3046 -0.0371 -2.4639
  416MOL0     H56117   4.537  11.070  11.015  0.4313 -0.1874 -0.3362
  416MOL0     H56118   4.505  11.170  11.306 -1.8712 -0.9508  0.1844
  416MOL0     H56119   4.650  11.180  11.222 -0.2770 -0.3761  1.3954
  416MOL0     H56120   4.771  10.816  11.169 -3.7903  1.3742  0.7359
  416MOL0     H56121   4.985  10.758  11.293  0.6443 -0.6322 -0.8420
  416MOL0     H56122   5.286  11.188  11.640  1.9261 -0.8723 -2.9670
  416MOL0     H56123   5.496  11.197  11.786  1.1120 -0.7090  0.6891
  416MOL0     H56124   5.646  11.175  11.945 -0.5054  0.0971 -1.2520
  416MOL0     H56125   5.530  11.170  12.086 -1.3028 -2.2416  2.2190
  416MOL0     H56126   5.762  11.169  12.172 -1.1781  0.8512  1.8341
  416MOL0     H56127   5.683  11.011  12.196 -0.1027 -0.6042 -0.1187
  416MOL0     H56128   5.813  10.918  11.998  1.6800  0.4051 -0.3904
  416MOL0     H56129   5.835  11.067  11.932 -1.8418 -0.9115 -0.7898
  416MOL0     H56130   5.951  10.998  12.200  0.6953  0.7992  0.5101
  416MOL0     H56131   5.998  11.146  12.118  2.1527 -0.0203  4.6386
  416MOL0     H56132   6.068  11.004  11.921 -0.0415  1.0181  0.0409
  416MOL0     H56133   6.036  10.848  12.012  0.0690  0.2789  0.2226
  416MOL0     H56134   6.211  11.088  12.079  0.1109  0.2572  1.6847
  416MOL0     H56135   6.199  10.941  12.180 -1.3701 -1.6598 -0.1753
  416MOL0     H56136   6.311  10.955  11.895 -2.0576  2.5189  0.6732
  416MOL0     H56137   6.293  10.811  12.005 -1.0750  0.5565  2.8165
  416MOL0     H56138   6.489  11.035  12.050 -0.0059 -0.0952  1.1232
  416MOL0     H56139   6.450  10.906  12.169 -1.0465  0.4194  0.6620
  416MOL0     H56140   5.426  10.797  11.902 -1.2436  0.9420  0.8175
  416MOL0     H56141   5.219  10.785  11.748 -1.7860  0.8392 -0.7084
  416MOL0     H56142   4.889  11.083  11.583 -3.9587  2.6257 -0.5295
  416MOL0     H56143   4.698  11.116  11.474  0.2384  0.8082 -0.5091
  416MOL0     H56144   3.230  10.372  10.391  1.7455 -1.1538  2.0872
  416MOL0     H56145   3.087  10.272  10.211 -0.2325  0.3252  0.0640
  416MOL0     H56146   2.881   9.975  10.066 -0.2910 -0.6729  0.5355
  416MOL0     H56147   2.810   9.852   9.861 -0.6836 -0.6702 -2.0050
  416MOL0     H56148   2.451   9.802   9.632  1.4706  1.0347 -2.4204
  416MOL0     H56149   2.483   9.810   9.794  2.6034  1.2356  1.6736
  416MOL0     H56150   2.550   9.592   9.699  0.7860 -0.1397  0.5013
  416MOL0     H56151   2.643   9.647   9.825 -0.0295  0.9877 -0.1080
  416MOL0     H56152   2.777   9.559   9.646 -0.8966 -0.2061  0.6867
  416MOL0     H56153   2.828   9.702   9.713  3.3192 -3.6506 -1.3712
  416MOL0     H56154   2.654   9.707   9.444 -1.3738  1.4558  0.0400
  416MOL0     H56155   2.747   9.828   9.519  1.7026 -0.1806  4.7831
  416MOL0     H56156   3.036   9.611   9.303 -0.2560 -1.4147  0.5816
  416MOL0     H56157   2.483  10.117   9.795  1.1480  0.2239 -1.1892
  416MOL0     H56158   2.597  10.388   9.993 -1.2214 -0.3820  1.9167
  416MOL0     H56159   2.466  10.310   9.904  1.0285  1.6108 -0.7143
  416MOL0     H56160   2.488  10.278  10.088  2.3499  1.8677  1.9712
  417MOL0     O56161   7.769  11.025   4.284  0.5635  0.1113  0.2072
  417MOL0     C56162   7.712  10.989   4.175  0.2775  0.3929  0.3670
  417MOL0     O56163   7.743  11.025   4.052 -0.0988  0.5195  0.0520
  417MOL0     C56164   7.871  11.069   4.046  0.1418  0.8364  0.3009
  417MOL0     C56165   7.886  11.194   4.098  0.3943  0.2885  0.6148
  417MOL0     C56166   8.013  11.254   4.107 -0.7204 -0.1084 -0.0937
  417MOL0     C56167   8.124  11.191   4.041  0.0643 -0.0496  0.3012
  417MOL0     O56168   8.242  11.255   4.045 -0.4784 -0.2156 -0.0519
  417MOL0     C56169   8.328  11.233   3.929  0.1953  0.2374  0.5367
  417MOL0     C56170   8.459  11.301   3.967 -0.8000  0.1710 -0.0935
  417MOL0     C56171   8.571  11.270   3.875  0.4570 -0.5659 -0.4821
  417MOL0     C56172   8.703  11.317   3.940  0.1551  0.1132 -0.0208
  417MOL0     C56173   8.812  11.293   3.834  0.4585  0.5901 -0.8897
  417MOL0     C56174   8.947  11.357   3.875 -0.0032 -0.1047 -0.7815
  417MOL0     C56175   9.070  11.308   3.799 -0.0518 -0.5040 -0.4019
  417MOL0     C56176   9.202  11.320   3.886  0.7523  0.8188  0.2791
  417MOL0     N56177   9.306  11.240   3.822 -0.1790  0.6742 -0.5999
  417MOL0     C56178   9.437  11.243   3.842  0.3488  0.0248 -0.2873
  417MOL0     C56179   9.495  11.175   3.745  0.0588  0.1047  0.7285
  417MOL0     C56180   9.641  11.151   3.731 -0.3565 -0.6386  0.0012
  417MOL0     C56181   9.678  10.999   3.762  0.8481 -0.2425 -0.0248
  417MOL0     C56182   9.808  10.937   3.705  0.5636  0.4764 -0.2422
  417MOL0     C56183   9.934  11.019   3.735  0.1509 -0.5346  0.6911
  417MOL0     O56184   9.915  11.153   3.679  0.4109  0.6001 -0.4162
  417MOL0     C56185  10.019  11.236   3.679  0.3620  0.0346  1.5512
  417MOL0     C56186  10.021  11.340   3.576  0.0675  1.1211 -0.2834
  417MOL0     C56187  10.127  11.438   3.583 -0.1652 -0.3552 -0.0408
  417MOL0     C56188  10.236  11.430   3.671  0.7956 -0.7322 -0.4694
  417MOL0     C56189  10.349  11.527   3.663 -0.5371 -0.3827 -0.6304
  417MOL0     O56190  10.352  11.601   3.552 -0.6623 -0.3032 -0.2735
  417MOL0     C56191  10.444  11.704   3.528 -1.1973 -0.1026  0.4066
  417MOL0     C56192  10.470  11.801   3.623  0.1566  0.1627  1.1458
  417MOL0     C56193  10.561  11.898   3.593 -0.6722 -0.3143  0.8409
  417MOL0     C56194  10.636  11.897   3.475  0.2975 -1.1156  0.3027
  417MOL0     O56195  10.739  11.985   3.443 -0.5213 -0.8204 -0.5150
  417MOL0     C56196  10.751  12.093   3.538 -0.2790  0.3494 -0.0297
  417MOL0     C56197  10.861  12.193   3.499  0.2704  1.2522  0.5625
  417MOL0     C56198  10.861  12.312   3.594 -1.2398  0.4424  0.4383
  417MOL0     C56199  10.725  12.377   3.618 -0.3671 -0.5065 -0.0740
  417MOL0     C56200  10.727  12.516   3.682  0.6459 -0.3157 -0.6835
  417MOL0     C56201  10.815  12.540   3.805 -0.6002  0.3583  0.7229
  417MOL0     C56202  10.850  12.687   3.826  0.2971  0.4054 -0.1014
  417MOL0     C56203  10.730  12.780   3.860  0.2080 -0.4549  0.2554
  417MOL0    Cl56204  10.694  12.763   4.033 -0.2663 -0.3009 -0.6198
  417MOL0     C56205  10.607  11.798   3.377  1.4779 -1.1526 -0.1033
  417MOL0     C56206  10.517  11.704   3.405  1.2877 -0.0204 -0.3610
  417MOL0     O56207  10.436  11.521   3.753  0.0782  0.2072  0.5490
  417MOL0     C56208  10.230  11.328   3.768  0.3748 -0.8591  0.1934
  417MOL0     C56209  10.126  11.233   3.767  1.2526 -1.2630  0.4021
  417MOL0     N56210   9.403  11.117   3.667 -0.7898  0.3733  0.4970
  417MOL0     N56211   9.287  11.157   3.711  0.6820  0.5988 -0.0678
  417MOL0     C56212   8.090  11.071   3.977  0.1295  1.0099 -0.2427
  417MOL0     C56213   7.966  10.998   3.982 -1.2493  0.4988 -0.0259
  417MOL0     C56214   7.584  10.912   4.201  0.4339 -0.8454  0.0523
  417MOL0     C56215   7.541  10.892   4.335  0.2183 -0.8137 -0.6828
  417MOL0     C56216   7.415  10.832   4.364 -0.7468  0.0659 -0.2643
  417MOL0     C56217   7.317  10.817   4.270 -0.4133 -0.3164 -0.0323
  417MOL0     O56218   7.196  10.781   4.312 -0.1064 -0.1409 -0.1938
  417MOL0     C56219   7.094  10.710   4.232 -0.7334 -0.6304 -0.0927
  417MOL0     C56220   7.011  10.637   4.324 -0.0066  0.3319  0.1227
  417MOL0     C56221   6.918  10.531   4.265  1.0710 -0.1771  0.0161
  417MOL0     C56222   6.982  10.399   4.224  0.1583 -0.2543 -0.3769
  417MOL0     C56223   7.069  10.352   4.329 -0.4482 -0.1286  0.5609
  417MOL0     C56224   7.145  10.316   4.412 -0.0440  0.0536  0.6152
  417MOL0     C56225   7.363  10.829   4.137  0.1557 -0.8450 -0.2814
  417MOL0     C56226   7.486  10.881   4.100  0.0531  0.4213  0.7968
  417MOL0     C56227   7.512  10.889   3.953 -0.4099  0.6802 -0.5670
  417MOL0     H56228   7.802  11.258   4.122 -2.2557 -2.1940 -1.3521
  417MOL0     H56229   8.025  11.342   4.169 -0.4322  0.6260 -1.1853
  417MOL0     H56230   8.361  11.129   3.929  0.3299  0.2783  0.1232
  417MOL0     H56231   8.280  11.265   3.836  0.9238  0.4615  0.2305
  417MOL0     H56232   8.471  11.270   4.071 -0.4481 -2.0014 -0.7241
  417MOL0     H56233   8.443  11.409   3.978  1.9826  1.2342 -4.1188
  417MOL0     H56234   8.565  11.311   3.774  0.4079 -0.1701 -0.3213
  417MOL0     H56235   8.595  11.164   3.862 -0.1380 -0.8761  0.7669
  417MOL0     H56236   8.692  11.425   3.957 -1.8973  0.1311 -1.1651
  417MOL0     H56237   8.733  11.272   4.035  3.0925  0.0485 -0.8696
  417MOL0     H56238   8.818  11.185   3.814 -3.3210  0.8295 -4.7199
  417MOL0     H56239   8.778  11.347   3.745 -1.3533 -0.7887 -1.0809
  417MOL0     H56240   8.945  11.466   3.881 -0.2593 -0.1198 -0.5506
  417MOL0     H56241   8.960  11.334   3.981 -1.3082  0.8082 -0.3941
  417MOL0     H56242   9.076  11.368   3.707 -2.7290  1.0589  0.3436
  417MOL0     H56243   9.051  11.208   3.758 -2.4660 -1.5253  2.8132
  417MOL0     H56244   9.234  11.424   3.874  0.6899  0.7853 -0.2141
  417MOL0     H56245   9.178  11.288   3.987  0.1550 -0.1718 -0.1597
  417MOL0     H56246   9.485  11.296   3.924 -0.5057 -1.6298  1.3604
  417MOL0     H56247   9.682  11.167   3.631 -1.4177  0.0998 -0.3270
  417MOL0     H56248   9.697  11.216   3.799 -2.3708  2.1804 -0.8487
  417MOL0     H56249   9.683  10.992   3.871  0.3253  1.1177  0.1076
  417MOL0     H56250   9.601  10.934   3.718 -2.2900  3.3792 -0.3918
  417MOL0     H56251   9.791  10.929   3.598  1.0952  2.3631 -0.5135
  417MOL0     H56252   9.829  10.838   3.746  1.4958  0.2392 -1.2740
  417MOL0     H56253  10.021  10.976   3.685 -0.4530 -0.3241 -0.5839
  417MOL0     H56254   9.953  11.015   3.842  2.0838  0.5314  0.4259
  417MOL0     H56255   9.941  11.350   3.503 -1.5646  1.4133  1.4949
  417MOL0     H56256  10.137  11.516   3.508  0.4965  0.1154  0.5282
  417MOL0     H56257  10.422  11.805   3.721 -1.4870 -0.8019  0.4112
  417MOL0     H56258  10.586  11.971   3.670 -2.4656  1.3263 -0.0599
  417MOL0     H56259  10.662  12.152   3.559 -0.1152  0.9019 -0.8487
  417MOL0     H56260  10.792  12.063   3.635  1.7598  2.4701 -0.1277
  417MOL0     H56261  10.950  12.130   3.494 -0.7203 -0.2628  1.4816
  417MOL0     H56262  10.832  12.230   3.400 -0.7220 -0.4859  0.1726
  417MOL0     H56263  10.906  12.269   3.684 -2.8340 -2.8299 -0.1833
  417MOL0     H56264  10.941  12.379   3.560  0.1820 -0.2138  2.2936
  417MOL0     H56265  10.673  12.308   3.685 -1.6778  1.6087  1.1954
  417MOL0     H56266  10.674  12.380   3.521 -0.1801  0.4929 -0.1469
  417MOL0     H56267  10.627  12.536   3.721  2.4476  1.2021  3.8852
  417MOL0     H56268  10.765  12.589   3.610  6.1763 -0.3354  1.6708
  417MOL0     H56269  10.768  12.501   3.896 -1.4664 -2.0938 -0.6704
  417MOL0     H56270  10.911  12.491   3.792  0.4147  2.6090 -1.0667
  417MOL0     H56271  10.900  12.726   3.737  1.5296 -1.5569 -0.3280
  417MOL0     H56272  10.920  12.693   3.911 -0.9077 -1.1286  1.0535
  417MOL0     H56273  10.761  12.883   3.839  1.2689 -0.4415  1.7679
  417MOL0     H56274  10.639  12.758   3.803  0.8144 -2.2789 -0.0958
  417MOL0     H56275  10.657  11.803   3.280 -0.8253 -2.8905 -1.4866
  417MOL0     H56276  10.484  11.628   3.334  2.9345  0.0441 -1.2393
  417MOL0     H56277  10.309  11.323   3.842 -0.3336 -3.8441  0.8887
  417MOL0     H56278  10.121  11.157   3.845 -2.5449 -1.4364  0.1958
  417MOL0     H56279   8.175  11.020   3.933 -0.6573  0.5700 -1.2966
  417MOL0     H56280   7.944  10.901   3.939  0.5298 -0.4524  1.0875
  417MOL0     H56281   7.593  10.936   4.419 -1.7500  0.5324 -0.1005
  417MOL0     H56282   7.378  10.837   4.466  1.2437 -1.4751  0.6084
  417MOL0     H56283   7.142  10.638   4.164 -1.5912 -1.4836  0.1940
  417MOL0     H56284   7.033  10.779   4.173 -1.0965 -2.4620 -2.0078
  417MOL0     H56285   6.951  10.705   4.384  0.4676  0.1194  0.8488
  417MOL0     H56286   7.080  10.580   4.387 -0.6775 -1.8214 -0.9881
  417MOL0     H56287   6.872  10.580   4.180  1.0338  1.9407  1.1983
  417MOL0     H56288   6.846  10.519   4.348 -0.1210 -0.3252 -1.0085
  417MOL0     H56289   6.912  10.324   4.187  1.8637 -1.4605 -1.2977
  417MOL0     H56290   7.043  10.421   4.135 -0.5557  0.8546 -0.6248
  417MOL0     H56291   7.201  10.270   4.490  0.8617 -0.3483 -0.2544
  417MOL0     H56292   7.288  10.793   4.068 -0.8823  0.4826  0.1000
  417MOL0     H56293   7.610  10.850   3.925 -1.0032  0.1635 -2.0046
  417MOL0     H56294   7.440  10.816   3.915 -0.3248 -1.6240  3.1108
  417MOL0     H56295   7.510  10.995   3.928  0.1320  0.2878 -2.4046
  418MOL0     O56296   9.396   4.047  10.101  0.2463  0.2652  0.6466
  418MOL0     C56297   9.332   4.038  10.210  0.4060 -0.7163  0.0657
  418MOL0     O56298   9.382   4.007  10.329 -0.2095 -0.5229  0.1450
  418MOL0     C56299   9.506   3.963  10.337  0.0328  0.7928  0.2868
  418MOL0     C56300   9.617   3.969  10.250  0.0575 -0.0628 -0.5449
  418MOL0     C56301   9.724   3.886  10.264 -0.2844  0.0393 -0.6145
  418MOL0     C56302   9.742   3.807  10.373 -0.2363  0.5705 -0.0534
  418MOL0     O56303   9.848   3.720  10.368 -0.0676 -0.3498  0.4646
  418MOL0     C56304   9.871   3.620  10.471 -0.7771  0.0407 -0.0657
  418MOL0     C56305   9.987   3.682  10.565  0.2561  0.1439 -0.2544
  418MOL0     C56306  10.117   3.695  10.497 -0.1648 -0.4249  0.6001
  418MOL0     C56307  10.176   3.562  10.440  0.5356 -0.0498  0.8018
  418MOL0     C56308  10.215   3.445  10.540 -0.7010 -0.1406  0.7635
  418MOL0     C56309  10.320   3.479  10.649  1.1547  0.2233 -0.0622
  418MOL0     C56310  10.321   3.379  10.761 -0.4801  0.5460 -0.0160
  418MOL0     C56311  10.417   3.421  10.873  0.7339 -0.7032  1.1991
  418MOL0     N56312  10.367   3.355  10.995 -0.7212  0.7593 -0.5986
  418MOL0     C56313  10.264   3.385  11.083  1.5193 -1.1140 -0.6618
  418MOL0     C56314  10.273   3.301  11.178 -0.3183  0.4742 -0.0423
  418MOL0     C56315  10.187   3.313  11.299 -0.6910 -0.1849  0.5592
  418MOL0     C56316  10.258   3.393  11.406  0.0340 -0.6598 -1.1735
  418MOL0     C56317  10.370   3.316  11.465 -0.3299  1.0388  0.2397
  418MOL0     C56318  10.432   3.367  11.594  0.1706 -0.7704 -0.2982
  418MOL0     O56319  10.489   3.496  11.607  0.4421 -0.1544  0.2644
  418MOL0     C56320  10.619   3.530  11.565 -0.0041  0.3513 -0.7746
  418MOL0     C56321  10.668   3.661  11.575  0.6411 -0.6072 -0.0008
  418MOL0     C56322  10.772   3.713  11.501  0.8717  0.3378  0.0413
  418MOL0     C56323  10.848   3.621  11.427  0.6902 -0.2366  0.5498
  418MOL0     C56324  10.970   3.666  11.349  0.4204 -0.2133  0.4210
  418MOL0     O56325  11.047   3.570  11.288  0.3324 -0.2685 -1.0953
  418MOL0     C56326  11.176   3.591  11.260  0.1704 -0.9103  0.9536
  418MOL0     C56327  11.229   3.544  11.142 -0.3167 -0.9573 -0.6141
  418MOL0     C56328  11.372   3.534  11.119 -0.2200 -0.9612 -0.9479
  418MOL0     C56329  11.456   3.594  11.216 -0.1813  0.7365  0.3219
  418MOL0     O56330  11.599   3.586  11.202  0.2419 -0.4172 -0.8597
  418MOL0     C56331  11.640   3.603  11.070  0.1573 -0.8095 -0.1502
  418MOL0     C56332  11.784   3.660  11.073  1.0145 -0.9296 -0.1825
  418MOL0     C56333  11.809   3.739  10.943 -0.3081 -0.0974  0.7339
  418MOL0     C56334  11.961   3.757  10.922  0.1743 -0.7061  1.4419
  418MOL0     C56335  12.001   3.800  10.783  1.0417 -0.4234  0.0930
  418MOL0     C56336  12.152   3.816  10.776 -0.6105 -0.3101  0.2005
  418MOL0     C56337  12.197   3.876  10.642 -0.6757 -0.4636  0.3224
  418MOL0     C56338  12.281   4.006  10.651  1.0113  0.6436 -0.0156
  418MOL0    Cl56339  12.432   3.969  10.756 -0.0549 -0.1271 -0.3932
  418MOL0     C56340  11.402   3.652  11.332 -0.1044 -0.3230 -0.3094
  418MOL0     C56341  11.269   3.652  11.353 -0.8829  0.9785 -0.3259
  418MOL0     O56342  10.997   3.784  11.347 -0.1536 -0.1841 -0.5233
  418MOL0     C56343  10.813   3.482  11.437 -0.5277  0.2363 -0.5020
  418MOL0     C56344  10.698   3.443  11.500 -0.1062  0.0299  0.8401
  418MOL0     N56345  10.369   3.199  11.146 -0.3112 -1.6989 -0.1258
  418MOL0     N56346  10.426   3.242  11.042 -0.6150  0.2467 -0.9780
  418MOL0     C56347   9.650   3.820  10.483  0.0172  0.9032  0.2788
  418MOL0     C56348   9.535   3.895  10.457 -0.3124  0.2202  0.7325
  418MOL0     C56349   9.195   4.090  10.209 -0.7293  1.3855  0.3033
  418MOL0     C56350   9.153   4.162  10.314  0.7534 -0.7548  0.1115
  418MOL0     C56351   9.041   4.235  10.294  0.6986 -0.6756  0.6475
  418MOL0     C56352   8.965   4.231  10.173  0.8336 -0.8564  0.0107
  418MOL0     O56353   8.857   4.319  10.162 -0.5658  0.3082  0.0414
  418MOL0     C56354   8.729   4.251  10.185 -0.2104 -0.5436 -0.9513
  418MOL0     C56355   8.622   4.360  10.199 -0.1622  0.6080 -0.3280
  418MOL0     C56356   8.492   4.303  10.268 -0.9115  0.2562  0.2573
  418MOL0     C56357   8.384   4.392  10.223 -0.8041 -0.6968  0.4691
  418MOL0     C56358   8.247   4.347  10.274 -0.4033 -0.2020 -0.5202
  418MOL0     C56359   8.134   4.324  10.310  0.7469 -0.6631 -0.9231
  418MOL0     C56360   9.000   4.141  10.073 -0.2199 -0.1932 -0.2466
  418MOL0     C56361   9.119   4.062  10.093  0.7623  0.4070  0.0046
  418MOL0     C56362   9.157   3.972   9.972 -0.1466 -0.3276  0.2883
  418MOL0     H56363   9.622   4.023  10.157 -2.0484  0.7877 -0.2180
  418MOL0     H56364   9.796   3.880  10.183  0.6901  1.8464  0.0682
  418MOL0     H56365   9.774   3.605  10.520 -0.1014  1.9506  2.0576
  418MOL0     H56366   9.899   3.521  10.435  1.8621  0.7674 -0.2112
  418MOL0     H56367  10.011   3.611  10.645  2.2376  0.1854 -0.7565
  418MOL0     H56368   9.959   3.774  10.618  0.8443  1.1713 -1.6551
  418MOL0     H56369  10.193   3.738  10.563 -0.2156  1.9387 -0.7494
  418MOL0     H56370  10.108   3.774  10.422 -1.9248  0.9607  2.1467
  418MOL0     H56371  10.101   3.517  10.375 -1.9881  2.7852  1.5209
  418MOL0     H56372  10.255   3.583  10.368 -1.9365  1.9506 -1.5303
  418MOL0     H56373  10.116   3.418  10.580 -1.1110  0.0929 -0.0588
  418MOL0     H56374  10.243   3.364  10.472 -1.3430  3.4465 -4.3670
  418MOL0     H56375  10.417   3.514  10.615  0.6288  2.1434  0.3107
  418MOL0     H56376  10.285   3.570  10.699 -1.5987 -1.0008  0.4578
  418MOL0     H56377  10.351   3.282  10.720 -1.1744 -0.2171  1.2098
  418MOL0     H56378  10.221   3.360  10.801 -0.2975  0.4974  0.4266
  418MOL0     H56379  10.514   3.378  10.846 -0.5939 -1.9542 -2.1634
  418MOL0     H56380  10.420   3.529  10.893 -2.1736 -0.2402 -0.3475
  418MOL0     H56381  10.208   3.478  11.084  4.8087  1.3399  4.5396
  418MOL0     H56382  10.093   3.365  11.278 -1.5415 -0.4221  3.3507
  418MOL0     H56383  10.170   3.212  11.336  3.1257 -1.6275 -1.1013
  418MOL0     H56384  10.296   3.489  11.369  0.2935 -0.2030  0.2095
  418MOL0     H56385  10.185   3.415  11.484 -0.6832  1.1050 -2.2971
  418MOL0     H56386  10.452   3.307  11.392 -2.5432  1.8550 -2.5592
  418MOL0     H56387  10.337   3.213  11.481  0.1625  0.9657  0.8242
  418MOL0     H56388  10.502   3.292  11.632  0.8388  0.4365  0.9663
  418MOL0     H56389  10.354   3.365  11.670  1.0885  0.1771  0.7164
  418MOL0     H56390  10.601   3.732  11.623  0.0644 -1.4778  0.5006
  418MOL0     H56391  10.809   3.815  11.500 -0.5745  0.8857  0.0013
  418MOL0     H56392  11.152   3.505  11.077 -0.6924 -2.8909  0.9220
  418MOL0     H56393  11.407   3.485  11.029 -1.5480  1.7219 -3.0831
  418MOL0     H56394  11.635   3.514  11.007 -3.0319  0.1468 -1.4946
  418MOL0     H56395  11.574   3.677  11.023 -0.3453 -2.0659 -1.4940
  418MOL0     H56396  11.802   3.731  11.154 -1.3488  0.0069 -0.3928
  418MOL0     H56397  11.854   3.576  11.076 -0.0824 -1.8421  2.0115
  418MOL0     H56398  11.763   3.680  10.864  2.4159 -2.3759  0.6879
  418MOL0     H56399  11.764   3.839  10.940  0.5072  0.3640  2.5554
  418MOL0     H56400  12.020   3.671  10.955  3.4370  1.5725  2.0599
  418MOL0     H56401  11.984   3.841  10.989  0.4773  3.0431 -2.8918
  418MOL0     H56402  11.961   3.897  10.752  3.4657  0.4583 -0.4991
  418MOL0     H56403  11.971   3.725  10.709  0.2999 -0.8594  0.8204
  418MOL0     H56404  12.182   3.886  10.854  0.8719 -0.9632  0.2428
  418MOL0     H56405  12.206   3.722  10.792  1.0578  0.5270 -0.2927
  418MOL0     H56406  12.108   3.898  10.582 -0.4443 -0.6918 -0.1122
  418MOL0     H56407  12.251   3.799  10.586 -0.0469  1.5398 -1.9967
  418MOL0     H56408  12.295   4.040  10.548 -2.9231  2.0258 -0.2709
  418MOL0     H56409  12.220   4.085  10.696  2.7845  1.4386  1.1086
  418MOL0     H56410  11.467   3.692  11.409  1.5335  0.0358 -1.8137
  418MOL0     H56411  11.243   3.686  11.453  1.7851  1.3828  0.2986
  418MOL0     H56412  10.879   3.402  11.404  0.2524  1.1765 -1.3133
  418MOL0     H56413  10.683   3.335  11.506  1.5509 -0.3020 -0.3114
  418MOL0     H56414   9.653   3.767  10.578 -1.9271  2.1315  1.1001
  418MOL0     H56415   9.444   3.891  10.516 -2.6654 -2.3087 -2.6938
  418MOL0     H56416   9.220   4.171  10.399 -1.1605 -0.0515  1.6037
  418MOL0     H56417   9.016   4.324  10.351  4.1186  1.0873 -0.3395
  418MOL0     H56418   8.738   4.209  10.286  2.3937 -0.3852 -1.0514
  418MOL0     H56419   8.702   4.176  10.111 -3.0592  1.6727 -2.3535
  418MOL0     H56420   8.596   4.400  10.101  0.6933  2.8165  0.2976
  418MOL0     H56421   8.664   4.440  10.260  0.4186  1.9436 -2.3938
  418MOL0     H56422   8.514   4.282  10.373  2.9164  0.4101 -0.3619
  418MOL0     H56423   8.466   4.210  10.218  2.0857  0.6609 -2.4084
  418MOL0     H56424   8.401   4.494  10.259 -1.6040 -0.2191 -0.4527
  418MOL0     H56425   8.382   4.392  10.114 -3.9473 -1.3807  0.4131
  418MOL0     H56426   8.037   4.296  10.346  1.2034 -2.4343 -0.9718
  418MOL0     H56427   8.934   4.112   9.992 -0.4471  0.4900 -0.3102
  418MOL0     H56428   9.192   4.024   9.882 -2.5705 -1.5792 -1.4758
  418MOL0     H56429   9.227   3.891   9.992  0.2480 -0.6721 -2.2146
  418MOL0     H56430   9.068   3.918   9.941  1.0429 -1.3472 -1.5207
  419MOL0     O56431   2.221   2.586   9.579 -0.7897  0.4097 -0.5073
  419MOL0     C56432   2.163   2.662   9.502  0.5520  0.4150 -0.0186
  419MOL0     O56433   2.212   2.775   9.440 -0.5170  0.1793 -0.5797
  419MOL0     C56434   2.349   2.791   9.447 -0.6142 -0.2297 -1.0330
  419MOL0     C56435   2.433   2.761   9.560 -0.1245 -1.1007  0.0108
  419MOL0     C56436   2.572   2.753   9.546 -0.3177  0.8925 -0.0630
  419MOL0     C56437   2.638   2.785   9.426 -0.0838 -0.2085 -0.2695
  419MOL0     O56438   2.774   2.807   9.409 -1.0431 -0.0103 -0.2768
  419MOL0     C56439   2.863   2.717   9.483  0.1336  0.0409  0.6847
  419MOL0     C56440   3.008   2.738   9.460 -0.9637 -0.1034  1.4143
  419MOL0     C56441   3.045   2.745   9.312  0.9174  0.0547 -0.5861
  419MOL0     C56442   3.199   2.725   9.310 -0.5134 -0.3084  0.4677
  419MOL0     C56443   3.286   2.847   9.371 -0.6367 -0.4088 -0.1770
  419MOL0     C56444   3.258   2.982   9.317  1.0080 -0.7190  0.0694
  419MOL0     C56445   3.234   2.990   9.162 -0.0918 -0.1502 -0.3951
  419MOL0     C56446   3.160   3.119   9.126  0.3485 -0.2396  1.0920
  419MOL0     N56447   3.011   3.107   9.139 -0.7613 -0.1871  0.6047
  419MOL0     C56448   2.924   3.084   9.034  0.2369 -0.7299 -0.5870
  419MOL0     C56449   2.801   3.087   9.086  0.6201 -0.5404 -0.7442
  419MOL0     C56450   2.686   3.059   8.994  0.1552  0.1994 -0.0291
  419MOL0     C56451   2.591   3.186   8.997 -0.5981 -1.3133  0.8625
  419MOL0     C56452   2.648   3.303   8.915 -0.6322  0.2001 -0.3506
  419MOL0     C56453   2.582   3.437   8.958 -0.7047  0.6001 -0.7335
  419MOL0     O56454   2.608   3.465   9.094  0.5149 -0.1626 -0.8001
  419MOL0     C56455   2.740   3.485   9.133  0.2321  1.3528  0.0278
  419MOL0     C56456   2.840   3.520   9.041 -0.5493 -0.6583 -0.4468
  419MOL0     C56457   2.973   3.505   9.086  0.3408 -0.5535 -0.0187
  419MOL0     C56458   3.017   3.472   9.214  0.4945 -0.6237  0.7438
  419MOL0     C56459   3.160   3.468   9.250 -0.6817 -0.8416 -0.8858
  419MOL0     O56460   3.181   3.488   9.386  0.7791 -0.2336  0.0918
  419MOL0     C56461   3.311   3.488   9.424 -0.0980  0.1907 -0.0549
  419MOL0     C56462   3.381   3.374   9.458 -0.4238  0.0348  0.1081
  419MOL0     C56463   3.522   3.389   9.488  0.4074 -0.5181  0.4812
  419MOL0     C56464   3.589   3.515   9.486 -0.1547 -0.0298 -0.6516
  419MOL0     O56465   3.722   3.512   9.528  0.4440 -0.1254  0.0661
  419MOL0     C56466   3.800   3.616   9.466  0.2329 -0.5796  0.0016
  419MOL0     C56467   3.952   3.593   9.479  0.5227 -0.3775 -0.0214
  419MOL0     C56468   4.033   3.709   9.425 -0.0208 -0.6073  0.0419
  419MOL0     C56469   4.177   3.663   9.419 -0.9736 -0.9169 -0.2278
  419MOL0     C56470   4.267   3.783   9.375 -0.0042 -0.8835  0.7343
  419MOL0     C56471   4.416   3.758   9.346 -0.2037 -0.8939 -0.3305
  419MOL0     C56472   4.485   3.620   9.382 -0.7934  0.9715  0.6486
  419MOL0     C56473   4.641   3.634   9.412  0.6852 -0.1408  0.7719
  419MOL0    Cl56474   4.713   3.470   9.424 -0.1199 -0.1358 -0.0946
  419MOL0     C56475   3.516   3.627   9.460 -0.2660  0.3744 -0.1943
  419MOL0     C56476   3.374   3.616   9.434  0.1819  1.1771  0.8863
  419MOL0     O56477   3.247   3.456   9.165 -0.5472 -0.0802  1.1506
  419MOL0     C56478   2.910   3.445   9.308 -0.4295  0.1585  0.7382
  419MOL0     C56479   2.773   3.444   9.263 -0.2371  0.0441  0.0112
  419MOL0     N56480   2.805   3.104   9.221 -1.1323  0.3381 -0.1931
  419MOL0     N56481   2.931   3.129   9.248  0.0420  0.1309 -0.5931
  419MOL0     C56482   2.556   2.829   9.323  0.4039  0.4021  0.0220
  419MOL0     C56483   2.417   2.836   9.337  0.4443 -0.4749  0.0684
  419MOL0     C56484   2.007   2.641   9.499 -1.0177  0.6389  0.5389
  419MOL0     C56485   1.941   2.607   9.620 -0.1001 -1.3112 -0.0139
  419MOL0     C56486   1.797   2.588   9.620  0.2422  0.7484  0.2740
  419MOL0     C56487   1.717   2.590   9.510 -0.5607 -0.4408  0.0367
  419MOL0     O56488   1.583   2.582   9.531 -0.0001 -0.6108  0.0540
  419MOL0     C56489   1.489   2.626   9.434 -0.9206 -1.1892 -0.2077
  419MOL0     C56490   1.352   2.629   9.498  0.4863  0.0848  0.2288
  419MOL0     C56491   1.346   2.726   9.620 -1.0890 -0.4388  0.6688
  419MOL0     C56492   1.206   2.764   9.633  0.2143  0.0551 -0.3155
  419MOL0     C56493   1.192   2.798   9.775 -0.4579  0.5681 -0.6353
  419MOL0     C56494   1.176   2.824   9.891  0.1689 -0.1331  0.4958
  419MOL0     C56495   1.781   2.621   9.391  0.0813 -0.0134  0.1175
  419MOL0     C56496   1.919   2.653   9.383  0.3999 -0.0793  0.8338
  419MOL0     C56497   1.980   2.706   9.249 -0.6645  1.0466  0.0811
  419MOL0     H56498   2.396   2.728   9.656  2.5800 -2.3689  0.7255
  419MOL0     H56499   2.615   2.717   9.639 -3.6787 -2.6414  0.3381
  419MOL0     H56500   2.857   2.725   9.592  1.3823  1.0762  0.7008
  419MOL0     H56501   2.848   2.613   9.452  1.2013  0.1230 -0.1541
  419MOL0     H56502   3.069   2.662   9.509 -1.0010 -1.9474 -1.2238
  419MOL0     H56503   3.033   2.835   9.504 -1.6855  0.1060  1.3842
  419MOL0     H56504   3.014   2.841   9.270 -2.7198 -0.3236  0.8389
  419MOL0     H56505   3.003   2.666   9.248 -3.2639  0.8684  0.8045
  419MOL0     H56506   3.222   2.633   9.364 -0.9368 -0.4641  0.3871
  419MOL0     H56507   3.231   2.715   9.206 -0.5099 -0.7902  0.5139
  419MOL0     H56508   3.272   2.832   9.478  0.9638 -6.1194 -0.3863
  419MOL0     H56509   3.391   2.829   9.345  0.3765  1.3517  2.3734
  419MOL0     H56510   3.175   3.032   9.369  0.5492 -1.3595 -0.0370
  419MOL0     H56511   3.341   3.053   9.319 -0.3887  1.1065 -1.9392
  419MOL0     H56512   3.179   2.903   9.123 -1.2595  0.1038  0.6242
  419MOL0     H56513   3.328   2.986   9.107 -0.0345 -0.5451 -0.2707
  419MOL0     H56514   3.194   3.205   9.185 -0.0759 -0.0232  1.0312
  419MOL0     H56515   3.184   3.134   9.020 -0.7361  2.2877  1.1234
  419MOL0     H56516   2.954   3.082   8.929  2.2696 -0.3160 -0.0531
  419MOL0     H56517   2.709   3.029   8.892 -3.6160  1.3335 -1.3965
  419MOL0     H56518   2.640   2.972   9.042  1.1248 -1.3081 -1.7262
  419MOL0     H56519   2.489   3.163   8.965 -0.4741  1.0697 -1.6009
  419MOL0     H56520   2.576   3.213   9.102 -1.9668 -2.9642  1.1424
  419MOL0     H56521   2.623   3.290   8.809  2.4537 -0.0773 -1.1493
  419MOL0     H56522   2.757   3.312   8.921 -0.6151 -0.0152 -0.3595
  419MOL0     H56523   2.473   3.424   8.956 -0.5797 -1.0695  1.0221
  419MOL0     H56524   2.608   3.514   8.884 -0.7381  0.7577 -0.5808
  419MOL0     H56525   2.812   3.548   8.940 -1.4513 -0.1147 -0.0560
  419MOL0     H56526   3.054   3.518   9.014  0.5748  0.7723  0.4412
  419MOL0     H56527   3.335   3.276   9.472  0.5022 -1.2367 -4.1874
  419MOL0     H56528   3.576   3.299   9.518  0.3332  0.2327  3.1255
  419MOL0     H56529   3.768   3.619   9.361 -2.5887 -3.6693  0.6126
  419MOL0     H56530   3.780   3.709   9.519  4.2002  2.3450 -3.0322
  419MOL0     H56531   3.984   3.569   9.580  2.9968 -2.3766 -1.1899
  419MOL0     H56532   3.976   3.503   9.422 -0.1254  0.6812 -2.0963
  419MOL0     H56533   4.006   3.743   9.324 -0.5921 -0.7061  0.1590
  419MOL0     H56534   4.027   3.785   9.503  1.4542 -0.5705  0.1446
  419MOL0     H56535   4.199   3.581   9.349  1.5033  0.6333 -1.3880
  419MOL0     H56536   4.205   3.618   9.515 -0.0993 -1.7551 -0.8558
  419MOL0     H56537   4.259   3.852   9.459 -2.6429 -1.0763  0.7527
  419MOL0     H56538   4.231   3.825   9.280  0.0478 -0.5770  0.8487
  419MOL0     H56539   4.439   3.769   9.240  1.3034  1.5058  0.1686
  419MOL0     H56540   4.467   3.840   9.398  0.6088 -1.6236  0.0481
  419MOL0     H56541   4.467   3.552   9.298  1.2284  0.3565  0.6702
  419MOL0     H56542   4.450   3.565   9.469 -1.0829  1.5293  0.8870
  419MOL0     H56543   4.695   3.682   9.330  0.3995 -1.0523  0.0312
  419MOL0     H56544   4.659   3.677   9.511 -1.8806 -1.2533  1.8230
  419MOL0     H56545   3.560   3.726   9.457  0.7609 -0.0295  0.8962
  419MOL0     H56546   3.321   3.708   9.414  0.9249  1.2408 -0.9842
  419MOL0     H56547   2.937   3.418   9.409 -3.3467 -0.4378  1.4393
  419MOL0     H56548   2.691   3.418   9.330 -0.5555  2.2340  0.5412
  419MOL0     H56549   2.602   2.872   9.234 -0.4682 -0.4297 -0.8532
  419MOL0     H56550   2.363   2.874   9.251  1.3024  0.0497 -0.2485
  419MOL0     H56551   1.998   2.603   9.712  1.6117  1.1521 -0.8494
  419MOL0     H56552   1.751   2.556   9.712  2.2200  1.3716  1.5505
  419MOL0     H56553   1.479   2.554   9.351 -0.7410  1.3090 -2.5235
  419MOL0     H56554   1.519   2.723   9.393  0.6998 -0.7344  1.9064
  419MOL0     H56555   1.322   2.526   9.519 -0.2014  0.3224  0.4261
  419MOL0     H56556   1.280   2.669   9.426 -0.1759 -0.0273  0.8253
  419MOL0     H56557   1.398   2.821   9.605 -2.7284  0.1489 -2.0510
  419MOL0     H56558   1.399   2.675   9.700  2.6133 -0.9483 -1.8836
  419MOL0     H56559   1.188   2.861   9.584 -0.3629  0.4838  0.7115
  419MOL0     H56560   1.137   2.688   9.597  1.1096  0.1689 -2.4073
  419MOL0     H56561   1.158   2.847   9.994 -1.6380  1.9453 -0.2184
  419MOL0     H56562   1.719   2.638   9.304  0.1644  1.2581  0.2931
  419MOL0     H56563   1.905   2.692   9.170 -2.2114 -1.0793  1.7969
  419MOL0     H56564   2.005   2.812   9.247 -0.0558  0.9058 -1.2429
  419MOL0     H56565   2.072   2.653   9.225 -0.2124  1.8985 -0.1132
  420MOL0     O56566  10.941   7.260   3.836 -0.0814 -0.6727 -0.0088
  420MOL0     C56567  10.921   7.142   3.838 -0.3578 -1.0007  0.4392
  420MOL0     O56568  10.996   7.055   3.768  0.1169  0.3896  0.0987
  420MOL0     C56569  11.125   7.089   3.719  1.2870 -0.6334  0.0410
  420MOL0     C56570  11.232   7.112   3.809 -0.9711 -0.8685  1.0411
  420MOL0     C56571  11.357   7.156   3.754  0.1455 -0.3480  0.4941
  420MOL0     C56572  11.377   7.176   3.613  0.2522  0.0804  0.2144
  420MOL0     O56573  11.496   7.212   3.552  0.3228 -0.3105  0.2715
  420MOL0     C56574  11.605   7.266   3.635 -0.2678  0.4063  0.1578
  420MOL0     C56575  11.714   7.315   3.544 -0.0101  0.4968 -0.1136
  420MOL0     C56576  11.669   7.452   3.491 -0.3102  0.1590 -0.5792
  420MOL0     C56577  11.783   7.513   3.410 -0.7079 -0.0602 -0.2624
  420MOL0     C56578  11.749   7.664   3.366 -0.2005  0.7883  0.4604
  420MOL0     C56579  11.858   7.743   3.284  0.9471 -1.1876 -0.4522
  420MOL0     C56580  11.948   7.661   3.203  0.4646  0.2131  0.2465
  420MOL0     C56581  12.087   7.733   3.167  0.5156  0.4407  0.0461
  420MOL0     N56582  12.187   7.639   3.104  0.3312 -0.7116 -0.2056
  420MOL0     C56583  12.187   7.614   2.969 -0.2218 -0.1565  0.4425
  420MOL0     C56584  12.287   7.528   2.946  0.2941  0.0804  0.2703
  420MOL0     C56585  12.325   7.475   2.810  0.4160  0.4670 -0.3397
  420MOL0     C56586  12.354   7.322   2.810 -0.3503 -0.6533 -0.1873
  420MOL0     C56587  12.338   7.266   2.667  0.2029  0.5291  0.1372
  420MOL0     C56588  12.360   7.121   2.642 -0.1062 -0.0180 -1.0238
  420MOL0     O56589  12.272   7.041   2.718 -0.5123  0.6228 -0.1837
  420MOL0     C56590  12.291   6.904   2.729 -0.1150 -0.3359 -0.7500
  420MOL0     C56591  12.204   6.833   2.812 -0.0616 -0.0799 -0.4886
  420MOL0     C56592  12.211   6.694   2.823 -0.3249 -0.6280  0.4834
  420MOL0     C56593  12.312   6.625   2.766  0.2370 -0.1644  0.1547
  420MOL0     C56594  12.326   6.469   2.776 -0.3805 -1.2054 -0.5163
  420MOL0     O56595  12.249   6.412   2.865  0.3782 -0.5462  0.7317
  420MOL0     C56596  12.257   6.287   2.906  0.4042  0.4066  0.7965
  420MOL0     C56597  12.248   6.267   3.043  0.9154  0.2918  0.2400
  420MOL0     C56598  12.241   6.135   3.090  0.5210  0.8247 -0.4035
  420MOL0     C56599  12.247   6.022   3.000 -0.4112 -0.1394  0.1705
  420MOL0     O56600  12.237   5.891   3.039  0.5111 -0.0002  0.4732
  420MOL0     C56601  12.240   5.864   3.176 -0.1139 -0.5670 -0.5080
  420MOL0     C56602  12.230   5.715   3.201 -0.1928  0.3951  0.6954
  420MOL0     C56603  12.357   5.637   3.170 -0.4085 -0.0856  0.1881
  420MOL0     C56604  12.369   5.504   3.237  0.2288  0.1665  0.4964
  420MOL0     C56605  12.329   5.384   3.143 -0.6306  0.4356  0.5519
  420MOL0     C56606  12.185   5.348   3.159 -0.4756 -0.2792 -0.0434
  420MOL0     C56607  12.159   5.211   3.090  1.5451  0.4166  0.3014
  420MOL0     C56608  12.210   5.209   2.947 -0.2848 -0.8130  0.0774
  420MOL0    Cl56609  12.135   5.075   2.862 -0.3412 -0.3994 -0.1450
  420MOL0     C56610  12.266   6.042   2.864  0.1901 -0.5983  0.4490
  420MOL0     C56611  12.268   6.179   2.822 -0.5640  0.4355  0.4121
  420MOL0     O56612  12.416   6.414   2.715  0.9484  0.7480 -0.9306
  420MOL0     C56613  12.399   6.696   2.676 -0.5628  0.4780  0.0852
  420MOL0     C56614  12.389   6.835   2.654  0.1948  0.2856  0.4770
  420MOL0     N56615  12.362   7.510   3.065  0.1202 -0.6501 -0.4922
  420MOL0     N56616  12.296   7.575   3.153  0.4009 -0.2110 -0.6465
  420MOL0     C56617  11.269   7.153   3.527  0.6464  0.6392 -0.4317
  420MOL0     C56618  11.146   7.100   3.582  0.6369 -0.3417 -0.2612
  420MOL0     C56619  10.835   7.096   3.949  0.0808 -0.7001 -0.3708
  420MOL0     C56620  10.887   7.122   4.084 -0.4520  1.0918 -0.2397
  420MOL0     C56621  10.840   7.032   4.184 -0.0540 -0.6917  1.1440
  420MOL0     C56622  10.722   6.958   4.168 -0.2115 -0.1075  0.8637
  420MOL0     O56623  10.686   6.864   4.255  0.1120  0.3884 -1.0856
  420MOL0     C56624  10.615   6.920   4.366 -0.4891 -0.1312  0.9168
  420MOL0     C56625  10.479   6.975   4.341 -0.5411  0.6102 -0.0048
  420MOL0     C56626  10.370   6.861   4.334  0.4400 -0.6578 -0.2369
  420MOL0     C56627  10.253   6.916   4.398 -0.2694 -0.1718 -0.2937
  420MOL0     C56628  10.144   6.817   4.419  0.6474 -0.6549 -0.0432
  420MOL0     C56629  10.041   6.756   4.432 -0.3854 -0.1663  0.6570
  420MOL0     C56630  10.673   6.943   4.041  0.2554 -0.1170  1.3778
  420MOL0     C56631  10.730   7.008   3.930  0.5434 -0.4662 -0.3851
  420MOL0     C56632  10.660   6.983   3.797 -0.7862  0.3779 -0.0459
  420MOL0     H56633  11.210   7.092   3.913 -0.7310 -1.5915  0.9556
  420MOL0     H56634  11.436   7.176   3.825  1.6364  1.2905 -1.4951
  420MOL0     H56635  11.584   7.353   3.698  0.3909 -0.9735  2.3931
  420MOL0     H56636  11.644   7.188   3.701 -0.4142  0.4574  0.3063
  420MOL0     H56637  11.725   7.249   3.457  3.2893 -1.1699  1.3769
  420MOL0     H56638  11.806   7.324   3.603 -0.9401  2.0402  1.1800
  420MOL0     H56639  11.641   7.519   3.572 -0.8710 -1.9200  1.0302
  420MOL0     H56640  11.576   7.442   3.434 -0.7233 -3.6867  0.4629
  420MOL0     H56641  11.883   7.507   3.454 -0.9813 -1.2267  0.2270
  420MOL0     H56642  11.791   7.451   3.321  1.1970  0.3552 -0.4273
  420MOL0     H56643  11.656   7.664   3.308 -1.2531  0.0736  2.0667
  420MOL0     H56644  11.731   7.716   3.460 -2.4448 -1.9745  1.7301
  420MOL0     H56645  11.806   7.812   3.217  1.3239 -1.1427 -0.7020
  420MOL0     H56646  11.914   7.805   3.356  0.7191 -1.7152  0.1783
  420MOL0     H56647  11.894   7.634   3.113 -0.6672  1.3147  0.5724
  420MOL0     H56648  11.975   7.570   3.259 -2.7817 -0.6054  0.7083
  420MOL0     H56649  12.065   7.815   3.100  0.3978  0.3228 -0.0599
  420MOL0     H56650  12.135   7.768   3.259  1.7533 -0.1557 -0.3460
  420MOL0     H56651  12.126   7.657   2.891 -0.2550 -0.6228  0.2091
  420MOL0     H56652  12.237   7.495   2.748 -0.5208 -1.9188  0.0996
  420MOL0     H56653  12.411   7.530   2.770  0.5199  2.1986  2.0362
  420MOL0     H56654  12.460   7.317   2.835 -0.5732  0.7482  1.2084
  420MOL0     H56655  12.294   7.262   2.880 -0.0632 -2.2196 -1.2266
  420MOL0     H56656  12.408   7.322   2.604 -0.4879  0.5513 -0.6269
  420MOL0     H56657  12.233   7.284   2.644 -1.0823 -2.0077  3.2557
  420MOL0     H56658  12.464   7.102   2.668 -0.3787 -0.3670 -0.1666
  420MOL0     H56659  12.339   7.091   2.539 -2.2632 -0.6363 -0.4698
  420MOL0     H56660  12.125   6.893   2.858 -3.1985 -0.4918 -4.7229
  420MOL0     H56661  12.128   6.643   2.871 -1.4451  0.6742  0.0211
  420MOL0     H56662  12.227   6.355   3.103 -2.1364  0.1771 -0.5230
  420MOL0     H56663  12.226   6.117   3.196  0.7022 -0.1358 -0.5368
  420MOL0     H56664  12.343   5.892   3.203  0.0229 -1.8559  0.3601
  420MOL0     H56665  12.157   5.905   3.233  0.0901  1.3599 -1.5006
  420MOL0     H56666  12.220   5.702   3.309 -0.0724 -2.6999  0.4442
  420MOL0     H56667  12.141   5.666   3.158 -0.2136  1.5172 -0.5983
  420MOL0     H56668  12.357   5.619   3.062  1.4255 -0.8627  0.2778
  420MOL0     H56669  12.446   5.689   3.206  1.0005 -0.0560 -3.0149
  420MOL0     H56670  12.303   5.500   3.324 -0.3729  0.2666  0.0470
  420MOL0     H56671  12.475   5.499   3.264  0.1086 -0.3795  0.8783
  420MOL0     H56672  12.396   5.301   3.169 -1.5778 -0.6931 -0.4330
  420MOL0     H56673  12.356   5.407   3.039  0.2721 -1.5025  0.2992
  420MOL0     H56674  12.174   5.346   3.268 -0.3934  3.9310  0.2140
  420MOL0     H56675  12.118   5.426   3.122  0.6223  0.5196 -0.3962
  420MOL0     H56676  12.056   5.174   3.098  1.4135  0.7143 -0.0102
  420MOL0     H56677  12.210   5.134   3.149  2.9420 -1.4941 -3.1195
  420MOL0     H56678  12.185   5.302   2.895  1.7756  0.3052  0.9389
  420MOL0     H56679  12.318   5.193   2.952 -0.2391 -0.3724  0.6086
  420MOL0     H56680  12.282   5.962   2.794  2.4964 -2.1539  2.5985
  420MOL0     H56681  12.285   6.189   2.715  5.6686 -2.2193  0.7316
  420MOL0     H56682  12.459   6.628   2.615 -0.3914 -1.0343  1.8722
  420MOL0     H56683  12.443   6.884   2.573  1.4183  1.1834  1.7942
  420MOL0     H56684  11.280   7.171   3.420 -0.5482  0.2437 -0.6405
  420MOL0     H56685  11.061   7.097   3.515  0.3426  1.7786 -0.0557
  420MOL0     H56686  10.982   7.172   4.103  0.0773 -0.0025  0.1283
  420MOL0     H56687  10.872   7.043   4.287 -0.1663 -3.6024  1.5839
  420MOL0     H56688  10.680   7.001   4.401  2.0134 -1.2158 -0.8760
  420MOL0     H56689  10.597   6.840   4.438 -2.4679 -0.1140  0.4960
  420MOL0     H56690  10.479   7.029   4.246  1.9863  0.0493 -0.4032
  420MOL0     H56691  10.460   7.050   4.419  1.7592  0.2231  1.0428
  420MOL0     H56692  10.404   6.770   4.384  1.4835  1.0158  2.2944
  420MOL0     H56693  10.348   6.829   4.231 -0.2925 -0.5078 -0.1312
  420MOL0     H56694  10.259   6.958   4.499 -2.3920 -1.1002  0.2727
  420MOL0     H56695  10.215   6.990   4.328 -2.4994 -1.7275 -0.8538
  420MOL0     H56696   9.951   6.698   4.443 -1.5623  1.4685 -0.0106
  420MOL0     H56697  10.595   6.868   4.032  2.9415 -2.8804 -1.4978
  420MOL0     H56698  10.615   6.884   3.793 -1.0680  0.4734  0.5371
  420MOL0     H56699  10.583   7.060   3.788 -4.7220 -2.4553  4.6095
  420MOL0     H56700  10.734   6.972   3.717 -0.8306 -3.8046  0.2834
  421MOL0     O56701   0.479  10.589   4.653 -0.8385  0.0541  0.4279
  421MOL0     C56702   0.575  10.571   4.732  0.9449  0.2134 -0.2144
  421MOL0     O56703   0.671  10.472   4.709 -0.3846 -1.0093  0.0139
  421MOL0     C56704   0.670  10.423   4.583 -0.5244 -0.1618  0.4729
  421MOL0     C56705   0.621  10.297   4.563  0.3208  0.6262  0.2427
  421MOL0     C56706   0.639  10.226   4.445  0.2038 -0.3258 -0.4172
  421MOL0     C56707   0.706  10.282   4.328  0.4604  0.2650 -0.4690
  421MOL0     O56708   0.722  10.231   4.207 -0.2604 -0.6490 -0.2294
  421MOL0     C56709   0.679  10.092   4.193 -0.0044 -0.0256 -0.4382
  421MOL0     C56710   0.751  10.039   4.068 -0.0705 -0.0459 -0.3486
  421MOL0     C56711   0.907  10.048   4.064  0.7371 -0.7650  0.0551
  421MOL0     C56712   0.972   9.925   4.114 -0.4573  0.0224 -0.5925
  421MOL0     C56713   1.126   9.913   4.126  0.0868  0.5434 -0.2656
  421MOL0     C56714   1.189   9.923   3.990  0.2261 -0.2750  0.8700
  421MOL0     C56715   1.339   9.906   3.991 -0.2609 -0.0983  0.4494
  421MOL0     C56716   1.406   9.998   4.090 -0.5095  0.1703 -0.3867
  421MOL0     N56717   1.554   9.986   4.079 -0.2889  0.1039  0.1977
  421MOL0     C56718   1.640  10.075   4.138  0.2375  0.2416  0.4511
  421MOL0     C56719   1.763  10.023   4.123 -0.2212 -0.7659 -0.5063
  421MOL0     C56720   1.890  10.072   4.183  0.0302 -0.3411  0.0952
  421MOL0     C56721   1.909  10.040   4.331 -0.3828 -0.7073  0.5808
  421MOL0     C56722   2.033  10.105   4.384 -0.4693 -0.6857 -0.6204
  421MOL0     C56723   2.049  10.095   4.539 -0.3772  0.2937 -0.4426
  421MOL0     O56724   2.155  10.183   4.579 -0.2086  0.0709  0.3450
  421MOL0     C56725   2.288  10.162   4.564  0.5316  0.5805 -0.3113
  421MOL0     C56726   2.333  10.024   4.548  0.8003  0.5720 -0.5459
  421MOL0     C56727   2.462  10.000   4.502 -0.3116 -0.4413  0.4056
  421MOL0     C56728   2.558  10.105   4.495 -0.6032 -0.3949  0.9814
  421MOL0     C56729   2.695  10.089   4.449 -0.7052  0.3793  0.8813
  421MOL0     O56730   2.753   9.969   4.457  0.6856  0.1489  0.0628
  421MOL0     C56731   2.885   9.965   4.427 -0.7156  0.2195  0.2704
  421MOL0     C56732   2.923   9.950   4.297 -0.4807  0.2448  0.0383
  421MOL0     C56733   3.062   9.936   4.269  0.1805  0.1424  0.0203
  421MOL0     C56734   3.161   9.934   4.373 -0.0393  0.0205  0.9199
  421MOL0     O56735   3.290   9.912   4.333 -0.1540 -0.5096 -0.8778
  421MOL0     C56736   3.377   9.878   4.436 -0.1163 -0.4569  0.4476
  421MOL0     C56737   3.513   9.834   4.381  0.5827 -0.1893 -0.1015
  421MOL0     C56738   3.625   9.828   4.492 -0.6609  0.2642  0.2886
  421MOL0     C56739   3.757   9.784   4.433 -0.4763  0.2666 -0.1266
  421MOL0     C56740   3.869   9.778   4.544 -0.0387  0.3458 -0.2411
  421MOL0     C56741   4.004   9.762   4.487  0.5230  0.0344 -1.5607
  421MOL0     C56742   4.018   9.624   4.419  0.4091 -0.6270  0.3634
  421MOL0     C56743   4.163   9.578   4.442 -0.6175 -0.2785  1.0161
  421MOL0    Cl56744   4.273   9.679   4.344 -0.2035 -0.1566  0.1849
  421MOL0     C56745   3.117   9.940   4.507  0.0971  0.1767 -0.4931
  421MOL0     C56746   2.979   9.965   4.530  1.2396 -0.1846 -0.0738
  421MOL0     O56747   2.758  10.187   4.426 -0.0432 -0.1198  0.4769
  421MOL0     C56748   2.512  10.231   4.519  0.3968 -0.2673  1.5125
  421MOL0     C56749   2.382  10.262   4.560  0.0635 -0.3654  0.1632
  421MOL0     N56750   1.757   9.895   4.063 -0.2702 -0.4894 -0.0406
  421MOL0     N56751   1.630   9.886   4.027 -0.6644 -0.1108 -0.3320
  421MOL0     C56752   0.748  10.409   4.353  0.5577  0.0168  0.1167
  421MOL0     C56753   0.735  10.484   4.469 -0.6189  1.2779 -0.8194
  421MOL0     C56754   0.588  10.666   4.847 -0.9578 -0.1361 -0.1273
  421MOL0     C56755   0.723  10.684   4.882 -0.2651  0.6353 -0.3853
  421MOL0     C56756   0.762  10.768   4.982  0.1641 -0.3524  0.8624
  421MOL0     C56757   0.668  10.832   5.055 -0.5587 -0.8761  0.0645
  421MOL0     O56758   0.695  10.937   5.140  0.2621 -0.6795  0.1842
  421MOL0     C56759   0.705  11.066   5.072 -0.5083 -0.1112 -0.5849
  421MOL0     C56760   0.846  11.107   5.024  0.2563  0.1003  0.8012
  421MOL0     C56761   0.825  11.237   4.936  0.0390  0.5557 -0.3920
  421MOL0     C56762   0.955  11.317   4.911  0.5701 -0.0451 -0.1069
  421MOL0     C56763   0.953  11.374   4.778 -0.0368 -0.8765  0.1989
  421MOL0     C56764   0.961  11.419   4.668 -0.3662 -0.2131  0.1338
  421MOL0     C56765   0.534  10.812   5.025  0.8738  0.0201 -0.5524
  421MOL0     C56766   0.489  10.742   4.921  0.9790  0.8048  0.3139
  421MOL0     C56767   0.341  10.742   4.882  0.8529  0.3393 -0.5588
  421MOL0     H56768   0.559  10.259   4.644 -1.8087 -0.1335 -1.6519
  421MOL0     H56769   0.595  10.127   4.446  1.5437 -0.9444  0.4998
  421MOL0     H56770   0.726  10.040   4.277  0.0703 -0.8793 -1.0070
  421MOL0     H56771   0.570  10.087   4.191 -0.1207 -0.4086  2.2527
  421MOL0     H56772   0.705  10.091   3.983  0.8507 -0.0100 -0.8378
  421MOL0     H56773   0.715   9.939   4.045 -2.1790  0.7963 -0.9697
  421MOL0     H56774   0.932  10.128   4.133 -1.4816 -0.8483  1.0391
  421MOL0     H56775   0.936  10.070   3.961  0.0259  1.5089  0.2976
  421MOL0     H56776   0.940   9.917   4.218 -0.1812  2.8424 -0.2124
  421MOL0     H56777   0.935   9.847   4.046 -0.6657  0.9223 -1.5363
  421MOL0     H56778   1.160   9.997   4.188  0.0964  0.7909 -0.6046
  421MOL0     H56779   1.154   9.828   4.189  0.7888  1.0168  0.0751
  421MOL0     H56780   1.145   9.840   3.935 -2.2452 -0.5746  3.1193
  421MOL0     H56781   1.162  10.014   3.935  0.9947 -0.4747  0.1292
  421MOL0     H56782   1.386   9.925   3.894  2.0113 -0.3681  1.4191
  421MOL0     H56783   1.369   9.804   4.020  1.0313  1.0997  3.8916
  421MOL0     H56784   1.377  10.099   4.060  1.8531  0.3911 -2.3145
  421MOL0     H56785   1.386   9.995   4.197  0.4405  2.1666 -0.1010
  421MOL0     H56786   1.610  10.163   4.194 -0.1053 -0.7156  1.8432
  421MOL0     H56787   1.977  10.042   4.124 -1.2650  0.0706 -2.1435
  421MOL0     H56788   1.895  10.181   4.172  0.8477  0.0648  3.3621
  421MOL0     H56789   1.827  10.081   4.390  1.1163  0.2113  2.1435
  421MOL0     H56790   1.915   9.933   4.356  0.3637 -1.2046 -1.5206
  421MOL0     H56791   2.028  10.214   4.371 -1.3476 -0.4542  1.3744
  421MOL0     H56792   2.123  10.058   4.343 -1.3591 -3.1756  0.1351
  421MOL0     H56793   2.069   9.993   4.573  1.7516  0.6328 -0.5674
  421MOL0     H56794   1.958  10.137   4.583 -2.3035  0.9913 -4.6156
  421MOL0     H56795   2.272   9.941   4.583  1.5871  1.5267  3.6440
  421MOL0     H56796   2.497   9.899   4.482  0.8848 -0.2120  1.2398
  421MOL0     H56797   2.852   9.949   4.214 -1.8337  1.5904  1.1287
  421MOL0     H56798   3.102   9.946   4.168  1.1163  2.2846  0.5467
  421MOL0     H56799   3.395   9.975   4.485 -1.3400  0.8427 -1.5078
  421MOL0     H56800   3.334   9.803   4.503 -1.6003  0.7790  0.9475
  421MOL0     H56801   3.497   9.732   4.343 -1.3370 -0.7993  2.1037
  421MOL0     H56802   3.559   9.892   4.301 -0.4930  3.0643  1.4959
  421MOL0     H56803   3.634   9.919   4.552 -1.8647  0.7984 -0.3176
  421MOL0     H56804   3.592   9.749   4.560 -0.4409 -0.0147  0.0711
  421MOL0     H56805   3.797   9.848   4.354  0.1449 -0.7147 -0.6353
  421MOL0     H56806   3.743   9.688   4.381  1.9478 -0.1540 -0.1429
  421MOL0     H56807   3.851   9.706   4.624 -0.4438 -0.0165 -0.6581
  421MOL0     H56808   3.882   9.870   4.603  5.1494  0.7312 -1.5029
  421MOL0     H56809   4.031   9.849   4.426 -0.9170  1.3412 -0.4269
  421MOL0     H56810   4.071   9.776   4.572 -0.2156 -1.4816 -0.6881
  421MOL0     H56811   3.980   9.615   4.317  0.2551  0.2629  0.3339
  421MOL0     H56812   3.946   9.565   4.476 -2.4443  1.8365 -0.4384
  421MOL0     H56813   4.201   9.591   4.543  1.6401  1.8147 -0.0066
  421MOL0     H56814   4.166   9.471   4.418 -0.0004  0.0651 -0.5594
  421MOL0     H56815   3.188   9.933   4.588  0.1126 -1.1936 -0.6116
  421MOL0     H56816   2.944   9.976   4.632 -0.3051  0.2561 -0.6199
  421MOL0     H56817   2.572  10.318   4.493 -0.6791 -0.6713 -3.5317
  421MOL0     H56818   2.356  10.366   4.576  0.7758  0.0279 -1.0962
  421MOL0     H56819   0.801  10.446   4.265  0.2520 -1.7351 -0.8475
  421MOL0     H56820   0.772  10.585   4.464  2.2345  0.2982 -1.2245
  421MOL0     H56821   0.803  10.632   4.832  0.5829  1.8870 -0.3656
  421MOL0     H56822   0.868  10.775   5.005  0.2310 -1.5369  0.9912
  421MOL0     H56823   0.687  11.145   5.146  0.8745  1.5020 -1.8980
  421MOL0     H56824   0.632  11.076   4.991 -2.9807  0.7969  1.6112
  421MOL0     H56825   0.892  11.031   4.959  0.9384  0.0504  1.3263
  421MOL0     H56826   0.913  11.121   5.109  2.3738 -0.8707 -0.6187
  421MOL0     H56827   0.758  11.306   4.988  1.4603  1.8772 -0.2506
  421MOL0     H56828   0.774  11.211   4.843 -3.8221  1.3728  1.3285
  421MOL0     H56829   0.955  11.398   4.985 -0.2857  2.5235 -2.6829
  421MOL0     H56830   1.049  11.264   4.932  0.8457  0.3788 -0.2465
  421MOL0     H56831   0.976  11.446   4.565  0.7971 -0.9246  0.1052
  421MOL0     H56832   0.462  10.849   5.098 -0.4972  1.4425 -2.4968
  421MOL0     H56833   0.301  10.644   4.857  2.1570 -0.0239 -1.2791
  421MOL0     H56834   0.280  10.776   4.967  2.6537  2.2734  0.0518
  421MOL0     H56835   0.320  10.809   4.798 -0.7901  1.4391  0.6495
  422MOL0     O56836   9.492   8.609   8.496 -0.3192  0.1397 -0.0759
  422MOL0     C56837   9.524   8.718   8.534 -0.0330 -0.3274 -0.3349
  422MOL0     O56838   9.645   8.775   8.510  0.8643 -0.0202  0.1322
  422MOL0     C56839   9.759   8.700   8.485  0.3343 -0.9815  0.0589
  422MOL0     C56840   9.872   8.767   8.429 -1.1917  0.0064 -0.3516
  422MOL0     C56841   9.995   8.697   8.408  0.3631  0.1774  1.2357
  422MOL0     C56842  10.005   8.569   8.456  0.4169 -0.3677 -0.2827
  422MOL0     O56843  10.127   8.499   8.471  0.3929  0.9654 -0.1712
  422MOL0     C56844  10.248   8.573   8.470  0.3864 -0.4280  0.3068
  422MOL0     C56845  10.271   8.673   8.585  0.4677  0.1254  0.0538
  422MOL0     C56846  10.280   8.603   8.728 -0.2772 -0.3472 -0.8539
  422MOL0     C56847  10.311   8.712   8.842 -0.3124  0.3705  0.3005
  422MOL0     C56848  10.302   8.630   8.976  0.4207  0.1796  0.5191
  422MOL0     C56849  10.319   8.717   9.093  0.5954 -0.2312 -1.0987
  422MOL0     C56850  10.448   8.798   9.095 -0.1284  0.0358 -0.1041
  422MOL0     C56851  10.484   8.828   9.237 -0.2590 -0.3606 -0.0331
  422MOL0     N56852  10.609   8.904   9.250 -0.3585  0.1201  0.2627
  422MOL0     C56853  10.704   8.890   9.349 -0.6497  0.1863 -0.2930
  422MOL0     C56854  10.782   8.996   9.356  0.2429  0.1518  1.7254
  422MOL0     C56855  10.890   9.017   9.459  0.1415  0.2749 -0.8556
  422MOL0     C56856  10.913   9.158   9.524 -0.3306  0.5850  0.8736
  422MOL0     C56857  10.935   9.277   9.429 -0.1740 -0.0759 -0.2142
  422MOL0     C56858  11.039   9.265   9.327 -0.1842 -0.5855 -0.2415
  422MOL0     O56859  11.162   9.225   9.381  0.1102  0.4681 -0.3980
  422MOL0     C56860  11.264   9.196   9.291  0.6290  1.2024  0.0701
  422MOL0     C56861  11.233   9.134   9.164 -0.3623 -0.7344 -0.7144
  422MOL0     C56862  11.332   9.110   9.072 -0.0807  0.0563 -0.1439
  422MOL0     C56863  11.464   9.139   9.099  0.1166  0.0293 -0.0583
  422MOL0     C56864  11.578   9.112   9.000 -0.0164 -1.0468 -0.1332
  422MOL0     O56865  11.712   9.158   9.040  0.1142  0.2621  0.1880
  422MOL0     C56866  11.822   9.149   8.952  0.3903 -0.9366  0.1702
  422MOL0     C56867  11.839   9.073   8.835 -0.7360  0.2344  0.6312
  422MOL0     C56868  11.949   9.096   8.749 -0.2809 -0.0208 -0.3211
  422MOL0     C56869  12.043   9.199   8.778  0.0381 -0.5106  0.4645
  422MOL0     O56870  12.139   9.235   8.682 -0.1967 -0.1106 -0.5087
  422MOL0     C56871  12.196   9.120   8.612 -0.5706 -0.1608 -0.0583
  422MOL0     C56872  12.348   9.149   8.587 -0.2108  0.2390 -0.2018
  422MOL0     C56873  12.386   9.040   8.485  0.6884  0.7221 -0.2815
  422MOL0     C56874  12.524   9.066   8.431 -0.8069 -0.1009  0.1032
  422MOL0     C56875  12.540   9.199   8.351  1.0870  0.2410 -0.4107
  422MOL0     C56876  12.678   9.211   8.291  0.3000  0.1988 -0.3791
  422MOL0     C56877  12.802   9.213   8.377  0.2404  0.0712  0.0251
  422MOL0     C56878  12.918   9.128   8.326 -0.4087 -0.4648 -0.5733
  422MOL0    Cl56879  13.062   9.145   8.421  0.3761  0.2835  0.2083
  422MOL0     C56880  12.034   9.258   8.894  0.5548 -0.6829 -1.0546
  422MOL0     C56881  11.929   9.235   8.986 -0.0013 -0.5551 -0.0520
  422MOL0     O56882  11.550   9.065   8.895 -0.4786 -0.4077 -0.2288
  422MOL0     C56883  11.504   9.187   9.228  0.5708  0.1545 -1.0214
  422MOL0     C56884  11.398   9.212   9.322 -1.1059  0.7104  1.2393
  422MOL0     N56885  10.732   9.079   9.250  0.1091 -0.3280  0.2243
  422MOL0     N56886  10.631   9.025   9.200 -0.6831  0.1075 -0.0707
  422MOL0     C56887   9.900   8.506   8.521  0.5623  1.6331  0.2069
  422MOL0     C56888   9.776   8.568   8.537 -0.4163 -0.6175  0.0212
  422MOL0     C56889   9.428   8.802   8.600  0.3145  0.8585  0.2537
  422MOL0     C56890   9.469   8.927   8.639 -0.5575 -0.4669  0.3951
  422MOL0     C56891   9.385   9.003   8.719 -0.0411  0.4050 -0.4538
  422MOL0     C56892   9.256   8.961   8.753  1.0455  0.3772  0.6768
  422MOL0     O56893   9.192   9.050   8.837  0.2292  0.2715 -0.6316
  422MOL0     C56894   9.046   9.033   8.861  0.0454  0.1353  0.0269
  422MOL0     C56895   8.990   9.137   8.955 -0.0354 -0.7519 -0.1868
  422MOL0     C56896   9.031   9.128   9.108  0.1045  0.1861  0.2141
  422MOL0     C56897   8.986   9.242   9.193 -0.2554 -0.1946  0.6536
  422MOL0     C56898   8.873   9.216   9.274  0.4850 -0.2709  0.2770
  422MOL0     C56899   8.769   9.200   9.336 -0.0105  0.7062  0.0522
  422MOL0     C56900   9.201   8.849   8.687  0.1461 -0.2390  0.3447
  422MOL0     C56901   9.286   8.771   8.607 -0.0355 -1.2543 -0.4323
  422MOL0     C56902   9.213   8.652   8.561 -0.9805  0.2376 -0.2359
  422MOL0     H56903   9.863   8.869   8.395  1.3821 -0.1279 -1.7124
  422MOL0     H56904  10.078   8.748   8.360 -1.7509  1.6516 -1.1182
  422MOL0     H56905  10.322   8.493   8.469  1.6052  0.6482 -2.2904
  422MOL0     H56906  10.260   8.627   8.376  0.9579  0.2973  0.7815
  422MOL0     H56907  10.176   8.727   8.588 -0.0846 -0.7958 -0.4626
  422MOL0     H56908  10.359   8.738   8.581 -1.8271  3.3873 -0.5181
  422MOL0     H56909  10.363   8.532   8.725  0.0848 -0.0331  0.5291
  422MOL0     H56910  10.186   8.556   8.757 -0.3775  0.6469  0.5769
  422MOL0     H56911  10.409   8.750   8.811 -0.3608 -0.4113 -0.8808
  422MOL0     H56912  10.241   8.794   8.830 -2.2699 -1.5049 -2.1261
  422MOL0     H56913  10.205   8.583   8.993  0.9000 -0.6366  1.0578
  422MOL0     H56914  10.381   8.554   8.976  0.1570 -0.1061 -0.3271
  422MOL0     H56915  10.243   8.795   9.087  3.1888  2.5587 -0.4372
  422MOL0     H56916  10.307   8.656   9.183 -1.7933  2.2442  0.4012
  422MOL0     H56917  10.447   8.883   9.026 -0.6345 -2.1648 -3.0058
  422MOL0     H56918  10.522   8.735   9.046 -1.7551  0.4093 -3.4107
  422MOL0     H56919  10.401   8.867   9.296 -0.7315 -1.2007 -0.1281
  422MOL0     H56920  10.497   8.729   9.282 -3.2693 -0.5333  0.6972
  422MOL0     H56921  10.714   8.811   9.422 -1.6689 -1.4827 -1.8891
  422MOL0     H56922  10.869   8.948   9.541  1.4462  0.4093 -0.3694
  422MOL0     H56923  10.984   8.967   9.432  1.4588  0.1513  3.2193
  422MOL0     H56924  10.827   9.189   9.584  0.2431  0.5498  1.7380
  422MOL0     H56925  10.999   9.162   9.591  0.3381 -1.0629  0.1667
  422MOL0     H56926  10.964   9.368   9.483  1.9971 -1.1662  0.5784
  422MOL0     H56927  10.842   9.284   9.371 -1.6656 -2.7855  1.6639
  422MOL0     H56928  11.050   9.357   9.268  0.7133 -1.9169 -2.2634
  422MOL0     H56929  11.018   9.185   9.257  5.5855 -1.2329 -1.7725
  422MOL0     H56930  11.134   9.109   9.126 -1.1799  2.6843 -1.1073
  422MOL0     H56931  11.310   9.064   8.976 -2.2247 -0.8933  0.7565
  422MOL0     H56932  11.759   9.005   8.808  1.1040 -1.4407 -0.8837
  422MOL0     H56933  11.938   9.055   8.650 -1.7782  0.0307 -0.2045
  422MOL0     H56934  12.192   9.023   8.662  0.5271 -0.9409 -1.4008
  422MOL0     H56935  12.147   9.109   8.515 -1.4028 -0.3859  0.3850
  422MOL0     H56936  12.360   9.249   8.544 -1.4884  2.1424  3.5000
  422MOL0     H56937  12.404   9.143   8.681  4.4121 -3.4865 -2.7541
  422MOL0     H56938  12.365   8.950   8.542 -1.2295  1.3930  0.1700
  422MOL0     H56939  12.319   9.035   8.398  1.4587  0.8116 -0.8903
  422MOL0     H56940  12.547   8.989   8.358  0.5237  0.3449  0.0314
  422MOL0     H56941  12.590   9.066   8.518 -0.2743 -0.2674 -0.2988
  422MOL0     H56942  12.530   9.280   8.424 -1.6806 -0.2980 -0.0877
  422MOL0     H56943  12.470   9.198   8.267  1.5381 -2.8913 -0.8474
  422MOL0     H56944  12.693   9.122   8.230  0.4676  1.0167 -1.5801
  422MOL0     H56945  12.677   9.293   8.219 -2.4052 -0.5061 -1.2221
  422MOL0     H56946  12.767   9.177   8.475  1.0700 -0.3922  0.1642
  422MOL0     H56947  12.845   9.313   8.383  1.0013 -0.1756 -1.0190
  422MOL0     H56948  12.904   9.019   8.330 -2.7783 -0.2290 -1.0069
  422MOL0     H56949  12.938   9.162   8.224 -0.3913  2.6006  0.3637
  422MOL0     H56950  12.122   9.308   8.935  0.5156 -2.4334  1.3737
  422MOL0     H56951  11.935   9.285   9.082  0.1466  0.8176 -0.7562
  422MOL0     H56952  11.607   9.194   9.260  0.0342  1.3485  0.5124
  422MOL0     H56953  11.420   9.240   9.424  1.8045  2.1037  0.3524
  422MOL0     H56954   9.911   8.404   8.558  3.6196  1.2167 -1.5010
  422MOL0     H56955   9.697   8.519   8.593  0.9263 -2.9831 -0.0206
  422MOL0     H56956   9.567   8.971   8.624 -1.9808  3.7367  1.8554
  422MOL0     H56957   9.411   9.101   8.757  1.2659  1.3992 -3.6376
  422MOL0     H56958   9.038   8.932   8.901  2.4720 -0.0117  0.2815
  422MOL0     H56959   8.996   9.045   8.764 -0.6425 -0.9432  0.2307
  422MOL0     H56960   8.881   9.145   8.960  0.0064 -0.7806  1.3000
  422MOL0     H56961   9.027   9.236   8.926 -0.4071 -0.4295  0.4020
  422MOL0     H56962   9.140   9.136   9.116 -0.0201  0.1949  5.1056
  422MOL0     H56963   9.005   9.035   9.160  0.7711  0.3002  0.7749
  422MOL0     H56964   9.071   9.254   9.261  1.5027 -1.2159 -1.2459
  422MOL0     H56965   8.969   9.332   9.134 -0.1108  0.4282  1.5386
  422MOL0     H56966   8.680   9.181   9.393  1.6443 -1.8778  2.0407
  422MOL0     H56967   9.098   8.822   8.709 -0.9941  3.1791 -0.1365
  422MOL0     H56968   9.105   8.668   8.568 -0.8718  0.2957  2.1888
  422MOL0     H56969   9.250   8.630   8.461  0.8504  2.3595 -0.0984
  422MOL0     H56970   9.242   8.565   8.621 -1.2161  1.9887  2.6496
  423MOL0     O56971   8.294   3.131   2.057  0.3653 -0.1478 -0.5782
  423MOL0     C56972   8.405   3.115   2.098 -0.0386 -0.0777 -0.1121
  423MOL0     O56973   8.440   3.014   2.181 -0.4768  0.2207 -0.0660
  423MOL0     C56974   8.354   2.911   2.188  0.8708 -1.0032  0.7880
  423MOL0     C56975   8.383   2.812   2.098 -0.5547 -0.0700 -0.1713
  423MOL0     C56976   8.331   2.683   2.109  0.7835 -0.4250  0.1458
  423MOL0     C56977   8.209   2.667   2.174 -0.1204  0.8450  0.4940
  423MOL0     O56978   8.140   2.545   2.182 -0.0865  0.2186  0.0823
  423MOL0     C56979   8.201   2.422   2.149 -0.6508 -0.7724 -0.3003
  423MOL0     C56980   8.162   2.383   2.008 -0.4571 -0.2109  0.6515
  423MOL0     C56981   8.243   2.254   1.979 -0.2614 -0.8900 -0.2008
  423MOL0     C56982   8.169   2.184   1.863 -0.1204 -0.2033  0.5248
  423MOL0     C56983   8.231   2.042   1.853 -0.0766 -0.5629  0.2536
  423MOL0     C56984   8.373   2.032   1.793 -0.4005 -0.1465 -0.0220
  423MOL0     C56985   8.375   2.103   1.654 -0.3381 -0.8415 -0.3971
  423MOL0     C56986   8.522   2.114   1.599 -0.1416  0.9550 -0.1788
  423MOL0     N56987   8.602   2.226   1.622 -0.5921 -0.4363 -0.0699
  423MOL0     C56988   8.687   2.256   1.723 -0.9210 -0.2715 -0.5644
  423MOL0     C56989   8.762   2.358   1.674 -0.2604 -0.5610  0.4578
  423MOL0     C56990   8.867   2.431   1.750 -0.1727  0.4101 -0.1667
  423MOL0     C56991   8.977   2.336   1.804  0.0135  0.2593 -0.1808
  423MOL0     C56992   9.050   2.284   1.684  0.0682 -1.1594  0.0165
  423MOL0     C56993   9.185   2.222   1.723  0.6549  0.3601  0.2204
  423MOL0     O56994   9.285   2.316   1.746 -0.5143  0.1997 -0.5248
  423MOL0     C56995   9.412   2.268   1.767 -0.1913 -0.9117 -0.2787
  423MOL0     C56996   9.509   2.365   1.787 -0.6415 -0.1808  0.0232
  423MOL0     C56997   9.635   2.318   1.805 -0.6044  1.1351 -0.3801
  423MOL0     C56998   9.686   2.191   1.791 -0.0996 -0.0320  0.2360
  423MOL0     C56999   9.829   2.159   1.805  0.0672 -0.9506 -0.2988
  423MOL0     O57000   9.859   2.033   1.772  0.5477  0.6340 -0.0851
  423MOL0     C57001   9.977   1.989   1.736 -0.1868  0.0606 -0.7188
  423MOL0     C57002  10.013   1.959   1.598 -0.0249 -0.7200 -0.2507
  423MOL0     C57003  10.148   1.926   1.572 -0.0218 -0.1584 -0.0686
  423MOL0     C57004  10.248   1.916   1.666 -0.0177  0.4340 -0.3862
  423MOL0     O57005  10.384   1.899   1.632  0.4396 -0.9362  0.0312
  423MOL0     C57006  10.450   2.027   1.664  0.2685  0.4777 -0.8197
  423MOL0     C57007  10.600   2.028   1.616  0.1425 -0.1037  0.2134
  423MOL0     C57008  10.617   1.950   1.478 -1.2132 -0.4121  0.4874
  423MOL0     C57009  10.771   1.931   1.445 -0.5975 -0.2588  0.0348
  423MOL0     C57010  10.783   1.853   1.315 -0.5931 -0.4897 -0.2981
  423MOL0     C57011  10.735   1.707   1.326 -0.0238 -0.9519  0.0547
  423MOL0     C57012  10.718   1.636   1.193  0.3738 -0.7322 -0.3789
  423MOL0     C57013  10.670   1.493   1.219 -0.4220 -0.5470  0.3371
  423MOL0    Cl57014  10.820   1.402   1.272  0.1679  0.3240 -0.5022
  423MOL0     C57015  10.198   1.921   1.797 -0.9925 -0.6274 -0.2889
  423MOL0     C57016  10.074   1.959   1.834  0.8654 -0.0983 -1.7634
  423MOL0     O57017   9.906   2.250   1.838 -0.4560 -0.5649  0.2259
  423MOL0     C57018   9.590   2.091   1.759 -0.0903 -0.1147  0.6103
  423MOL0     C57019   9.451   2.129   1.753 -0.1119  0.7757 -0.8113
  423MOL0     N57020   8.715   2.398   1.554  0.4876 -0.4233  0.3143
  423MOL0     N57021   8.624   2.310   1.520  0.1473 -0.5403 -0.1644
  423MOL0     C57022   8.173   2.769   2.266 -0.4664 -0.1076  0.8869
  423MOL0     C57023   8.243   2.895   2.272  0.1134  0.1994 -0.6162
  423MOL0     C57024   8.517   3.192   2.045  0.2068  0.5900 -0.1499
  423MOL0     C57025   8.633   3.129   2.029  0.4108  0.3379 -0.4648
  423MOL0     C57026   8.740   3.185   1.966 -0.2464 -0.7648 -0.1978
  423MOL0     C57027   8.729   3.310   1.915 -0.7922 -0.8188 -0.4736
  423MOL0     O57028   8.839   3.373   1.853 -0.4981  0.4682  0.1271
  423MOL0     C57029   8.969   3.375   1.919 -0.0620  0.7218 -0.4915
  423MOL0     C57030   9.068   3.447   1.833  0.9125  1.1345 -1.0467
  423MOL0     C57031   9.200   3.453   1.909  0.0022 -0.0329  0.0281
  423MOL0     C57032   9.313   3.500   1.815 -0.3346  0.4036 -0.3213
  423MOL0     C57033   9.436   3.518   1.900  0.2459  1.2189 -0.2898
  423MOL0     C57034   9.520   3.521   1.993  0.0611  0.2878  0.4528
  423MOL0     C57035   8.610   3.382   1.925  0.4372  0.0424 -0.8560
  423MOL0     C57036   8.498   3.323   1.989 -0.3642  0.6421 -0.2337
  423MOL0     C57037   8.365   3.398   1.981 -0.2985 -0.2161  0.1490
  423MOL0     H57038   8.453   2.827   2.016  1.9982 -0.6991  1.7752
  423MOL0     H57039   8.366   2.608   2.039 -1.9569 -0.6329 -1.1063
  423MOL0     H57040   8.308   2.426   2.170 -0.8158  1.6801  0.3425
  423MOL0     H57041   8.162   2.344   2.215 -1.8610 -0.6480 -0.8306
  423MOL0     H57042   8.189   2.471   1.949  1.8555 -0.1644  1.6621
  423MOL0     H57043   8.055   2.359   2.015 -0.4238  0.0070  2.4973
  423MOL0     H57044   8.264   2.195   2.068 -1.1581 -0.4468  0.3208
  423MOL0     H57045   8.339   2.284   1.936  0.4533 -2.0695  0.5260
  423MOL0     H57046   8.063   2.179   1.892 -1.0279 -1.8228 -2.6656
  423MOL0     H57047   8.167   2.245   1.772 -2.1405 -0.4764  0.3285
  423MOL0     H57048   8.208   1.980   1.939  0.1326 -0.3756  0.4463
  423MOL0     H57049   8.173   1.988   1.777 -0.7530  1.0625 -0.4281
  423MOL0     H57050   8.452   2.074   1.857 -0.5424  3.6072 -2.0493
  423MOL0     H57051   8.395   1.925   1.786  1.9736  0.3542 -1.7000
  423MOL0     H57052   8.332   2.202   1.674 -0.7559 -1.4040  1.6767
  423MOL0     H57053   8.321   2.053   1.574  1.3499 -1.1117 -1.4274
  423MOL0     H57054   8.579   2.026   1.631 -3.4754 -1.6507 -0.8687
  423MOL0     H57055   8.513   2.103   1.490 -7.2375  1.9062 -0.1578
  423MOL0     H57056   8.700   2.194   1.812 -1.9300  0.9665  0.4905
  423MOL0     H57057   8.911   2.512   1.692  0.5257 -0.9161 -1.5712
  423MOL0     H57058   8.813   2.489   1.825 -0.1729  0.9473 -0.5720
  423MOL0     H57059   9.033   2.401   1.872 -1.3270  0.9101  0.3478
  423MOL0     H57060   8.941   2.252   1.864  0.3384 -0.6906 -1.2842
  423MOL0     H57061   9.064   2.363   1.609 -0.8381  0.5518  1.5768
  423MOL0     H57062   8.991   2.210   1.629  0.5376 -1.7756  0.3378
  423MOL0     H57063   9.218   2.173   1.631 -2.3613 -4.6289  1.4028
  423MOL0     H57064   9.182   2.156   1.811 -3.5343  0.2504  0.1999
  423MOL0     H57065   9.492   2.473   1.791  0.5698  0.0395 -0.3793
  423MOL0     H57066   9.714   2.391   1.820 -0.1598  0.3618  1.2939
  423MOL0     H57067   9.939   1.971   1.519  0.0282  1.4600 -0.0340
  423MOL0     H57068  10.183   1.907   1.471  1.4991  1.6763  0.0505
  423MOL0     H57069  10.410   2.114   1.610  0.5508 -0.1933 -2.1449
  423MOL0     H57070  10.438   2.037   1.772 -3.6799 -3.0195 -0.6791
  423MOL0     H57071  10.637   2.131   1.601  1.3069 -0.5365 -0.0128
  423MOL0     H57072  10.671   1.980   1.684 -1.8277  0.3449  2.7559
  423MOL0     H57073  10.580   1.847   1.478 -4.6382  0.6544 -1.8249
  423MOL0     H57074  10.571   2.016   1.405 -1.6338  1.4017  2.2982
  423MOL0     H57075  10.835   1.889   1.523  2.1922 -0.3856 -2.1738
  423MOL0     H57076  10.806   2.031   1.416  2.9075 -1.4324 -0.2025
  423MOL0     H57077  10.889   1.852   1.286 -0.3724 -0.6659  0.4971
  423MOL0     H57078  10.724   1.900   1.235  2.9909  2.5367 -1.4859
  423MOL0     H57079  10.798   1.653   1.398  1.2311 -0.6862 -0.8127
  423MOL0     H57080  10.636   1.693   1.369 -1.2799  2.3385 -1.4543
  423MOL0     H57081  10.812   1.642   1.138 -0.7643 -2.5631 -2.6725
  423MOL0     H57082  10.645   1.695   1.136  1.3721  1.7739  0.7815
  423MOL0     H57083  10.592   1.502   1.296 -0.4392  1.5125  0.1172
  423MOL0     H57084  10.625   1.453   1.128  0.3535 -2.4592  0.7347
  423MOL0     H57085  10.270   1.911   1.876 -0.7101  0.5219 -0.3702
  423MOL0     H57086  10.055   1.978   1.939  1.3687 -1.0693 -1.4887
  423MOL0     H57087   9.622   1.995   1.722 -3.6085 -0.4319 -2.0947
  423MOL0     H57088   9.378   2.055   1.723  1.6847 -0.7117 -1.6965
  423MOL0     H57089   8.088   2.744   2.329 -1.9903 -1.7041 -1.6322
  423MOL0     H57090   8.203   2.967   2.342 -1.4908 -1.5210  0.3399
  423MOL0     H57091   8.642   3.025   2.058 -0.3808  0.7899  1.5079
  423MOL0     H57092   8.835   3.137   1.945 -1.3326 -3.2631  0.3357
  423MOL0     H57093   9.007   3.272   1.924 -2.5337 -0.2344  0.5596
  423MOL0     H57094   8.973   3.415   2.021 -1.1912  1.4587 -0.7246
  423MOL0     H57095   9.032   3.550   1.820 -3.2862 -0.2270 -1.6958
  423MOL0     H57096   9.080   3.403   1.733 -1.1396 -0.1958 -0.7562
  423MOL0     H57097   9.224   3.353   1.946  4.0136  1.4337  2.0959
  423MOL0     H57098   9.202   3.532   1.986  1.8068  0.8460 -0.8452
  423MOL0     H57099   9.322   3.426   1.735  1.7229  0.1233  0.1064
  423MOL0     H57100   9.286   3.598   1.774 -2.0965  0.3377  0.6011
  423MOL0     H57101   9.596   3.528   2.068 -0.5465  2.6545  0.9523
  423MOL0     H57102   8.594   3.479   1.878  0.7357  0.7442  0.4500
  423MOL0     H57103   8.378   3.496   1.933 -0.7502 -1.1202 -1.9467
  423MOL0     H57104   8.297   3.347   1.912 -1.0641 -2.9749  2.7475
  423MOL0     H57105   8.325   3.410   2.081  2.8978 -0.7685  1.6214
  424MOL0     O57106   6.182  10.400   4.004  0.5339  0.4215 -0.2895
  424MOL0     C57107   6.141  10.509   3.966 -0.7617  0.5494  0.6937
  424MOL0     O57108   6.214  10.603   3.906  0.4091 -0.1336 -0.9260
  424MOL0     C57109   6.331  10.563   3.857 -0.5855  0.6388  1.0118
  424MOL0     C57110   6.444  10.591   3.920  0.3120 -0.6444 -0.4261
  424MOL0     C57111   6.573  10.558   3.874  0.8771  0.0080 -0.4707
  424MOL0     C57112   6.587  10.498   3.751 -0.3050  0.6126 -0.3242
  424MOL0     O57113   6.709  10.473   3.695  0.7239 -0.7329  0.1868
  424MOL0     C57114   6.772  10.351   3.722 -0.6140 -0.6975  0.3511
  424MOL0     C57115   6.881  10.327   3.621  0.1916  0.2659  0.0928
  424MOL0     C57116   6.952  10.200   3.661 -0.2445 -0.5162  0.4003
  424MOL0     C57117   7.000  10.203   3.811 -0.4111 -0.4675  0.4723
  424MOL0     C57118   7.076  10.082   3.854  0.7602 -0.0985  1.1944
  424MOL0     C57119   7.217  10.080   3.785 -0.2964 -1.6575  0.0606
  424MOL0     C57120   7.331  10.009   3.860 -0.7226 -0.1492 -1.0680
  424MOL0     C57121   7.458   9.961   3.788  0.4450 -0.1443 -0.2425
  424MOL0     N57122   7.551  10.076   3.783  0.2731  0.6742 -0.0178
  424MOL0     C57123   7.673  10.071   3.835 -0.4591  0.8806 -0.4460
  424MOL0     C57124   7.746  10.165   3.781 -0.4035  0.2055  0.2877
  424MOL0     C57125   7.889  10.203   3.830 -0.1997 -0.0113  0.2584
  424MOL0     C57126   7.962  10.309   3.751  0.7712 -0.7716  0.3125
  424MOL0     C57127   8.113  10.319   3.786  0.4577  0.0676 -0.7400
  424MOL0     C57128   8.202  10.226   3.717  0.2115  0.0984  1.2221
  424MOL0     O57129   8.334  10.261   3.750 -0.5325 -0.0932 -0.1763
  424MOL0     C57130   8.432  10.252   3.650  0.6635 -0.8011 -0.0771
  424MOL0     C57131   8.539  10.354   3.650 -0.1533 -0.0916 -0.3563
  424MOL0     C57132   8.654  10.343   3.565  0.5274 -0.2465  0.1063
  424MOL0     C57133   8.669  10.231   3.479 -0.2635  0.5708 -0.8266
  424MOL0     C57134   8.800  10.219   3.404  0.4401 -0.5400  1.1809
  424MOL0     O57135   8.878  10.328   3.404 -0.0797 -0.0209  0.1610
  424MOL0     C57136   9.013  10.328   3.366  0.0814 -0.8162  0.5870
  424MOL0     C57137   9.095  10.212   3.348  0.7477 -0.0111 -1.5452
  424MOL0     C57138   9.228  10.223   3.307 -0.6101 -0.2678  0.1692
  424MOL0     C57139   9.276  10.352   3.265  0.6162 -0.0422  0.2283
  424MOL0     O57140   9.404  10.345   3.211 -0.3066  0.1867 -0.6072
  424MOL0     C57141   9.444  10.425   3.096 -1.2740  0.8239  0.5746
  424MOL0     C57142   9.591  10.403   3.076 -0.7292 -0.3153  0.1232
  424MOL0     C57143   9.625  10.256   3.043 -1.2327  0.3429 -0.0914
  424MOL0     C57144   9.589  10.224   2.891 -0.0137 -0.3453 -0.1978
  424MOL0     C57145   9.580  10.076   2.876  0.7224  0.1937 -0.1369
  424MOL0     C57146   9.717  10.004   2.883 -0.4462 -0.0471  0.2567
  424MOL0     C57147   9.684   9.859   2.880 -0.3611 -0.0055 -0.5495
  424MOL0     C57148   9.812   9.776   2.876  0.1039  0.0720  0.3961
  424MOL0    Cl57149   9.895   9.797   2.725  0.0080  0.4631 -0.2958
  424MOL0     C57150   9.202  10.474   3.272  0.3406  0.4325 -1.0566
  424MOL0     C57151   9.073  10.455   3.324  0.2278  0.4344 -0.6053
  424MOL0     O57152   8.824  10.115   3.344 -0.4681  0.2718  0.2741
  424MOL0     C57153   8.567  10.129   3.487  0.4706  0.7839  0.6986
  424MOL0     C57154   8.448  10.144   3.563  0.3076  0.1514 -0.6980
  424MOL0     N57155   7.658  10.240   3.698 -0.2476  0.2465 -0.4974
  424MOL0     N57156   7.546  10.175   3.688 -0.7255  0.0656  0.6115
  424MOL0     C57157   6.472  10.477   3.679 -0.3066  0.4036 -0.8609
  424MOL0     C57158   6.347  10.497   3.737 -0.0665  0.2742 -0.1347
  424MOL0     C57159   5.992  10.533   3.992  0.3502 -0.4111 -0.6450
  424MOL0     C57160   5.897  10.422   3.974  1.4006 -0.3078  0.2277
  424MOL0     C57161   5.758  10.427   4.006 -0.6464  0.1607  0.6037
  424MOL0     C57162   5.706  10.547   4.050 -0.1633 -0.4635  0.0246
  424MOL0     O57163   5.569  10.569   4.074  0.6013 -0.8085 -0.2765
  424MOL0     C57164   5.468  10.472   4.040  0.0895  0.7538 -0.2366
  424MOL0     C57165   5.330  10.526   4.086 -0.6574 -0.0936  0.6941
  424MOL0     C57166   5.303  10.661   4.025 -0.6500 -0.4748 -0.8809
  424MOL0     C57167   5.158  10.700   4.060  0.0968 -0.7995  0.7607
  424MOL0     C57168   5.143  10.836   4.010  1.4092  0.4907 -0.6978
  424MOL0     C57169   5.126  10.947   3.964  0.5390 -0.6028 -0.2172
  424MOL0     C57170   5.788  10.660   4.055 -0.5892 -0.3528  0.0053
  424MOL0     C57171   5.926  10.656   4.035  0.1637 -0.6279  0.7164
  424MOL0     C57172   5.996  10.786   4.039  0.0510  0.3759 -0.6185
  424MOL0     H57173   6.435  10.618   4.025  3.0417 -3.2092  0.6069
  424MOL0     H57174   6.660  10.583   3.935  0.0272 -0.8996  1.2061
  424MOL0     H57175   6.821  10.367   3.819  1.1141  0.0021 -0.6058
  424MOL0     H57176   6.707  10.264   3.737 -1.1867 -0.3776 -0.2526
  424MOL0     H57177   6.948  10.409   3.595 -0.9232  0.7065 -1.5061
  424MOL0     H57178   6.824  10.305   3.530  2.1160  2.9244 -1.9120
  424MOL0     H57179   7.043  10.200   3.601  0.1989 -0.1541  1.0519
  424MOL0     H57180   6.889  10.112   3.645  3.2202 -2.9697 -0.7656
  424MOL0     H57181   7.055  10.295   3.832  2.3551 -2.1078  0.8654
  424MOL0     H57182   6.914  10.199   3.879 -0.9448  2.2256  0.0816
  424MOL0     H57183   7.078  10.088   3.963 -1.2035  0.7479  1.2408
  424MOL0     H57184   7.030   9.984   3.833 -0.4844  0.7593 -0.3506
  424MOL0     H57185   7.210  10.023   3.692 -0.1478  0.7229 -1.4966
  424MOL0     H57186   7.247  10.185   3.776 -1.3666 -1.0385  2.6214
  424MOL0     H57187   7.282   9.921   3.903 -0.2956 -0.9915 -2.2177
  424MOL0     H57188   7.368  10.078   3.936 -2.0952 -2.2165  1.6243
  424MOL0     H57189   7.508   9.877   3.836 -1.6409  0.0263  2.4431
  424MOL0     H57190   7.434   9.931   3.685 -1.1564  1.4311 -0.3876
  424MOL0     H57191   7.714  10.011   3.916 -2.4652  1.0872  0.7873
  424MOL0     H57192   7.876  10.239   3.932  1.9476  1.4397  0.0663
  424MOL0     H57193   7.958  10.118   3.839  1.0335  1.2014  4.0536
  424MOL0     H57194   7.955  10.302   3.642 -0.8082  2.3732  0.1151
  424MOL0     H57195   7.913  10.403   3.778  1.1312 -0.0996 -1.2455
  424MOL0     H57196   8.129  10.323   3.894  2.3201 -0.2500 -0.9619
  424MOL0     H57197   8.144  10.422   3.765  0.8624 -0.5114 -3.2118
  424MOL0     H57198   8.194  10.234   3.608  0.1692 -4.7273  0.6597
  424MOL0     H57199   8.188  10.119   3.732 -2.1901  0.1333 -0.2874
  424MOL0     H57200   8.519  10.446   3.703  0.1441 -0.6957  0.8466
  424MOL0     H57201   8.724  10.426   3.558  0.3203  0.1565  2.2250
  424MOL0     H57202   9.053  10.118   3.383  1.5927 -0.0514 -0.5729
  424MOL0     H57203   9.294  10.139   3.289 -1.0950 -0.9307  1.3634
  424MOL0     H57204   9.395  10.382   3.008  0.3809 -1.3728  0.6558
  424MOL0     H57205   9.413  10.529   3.109 -2.1638  0.7578 -0.7844
  424MOL0     H57206   9.630  10.465   2.995 -0.8257 -0.9174 -0.3859
  424MOL0     H57207   9.645  10.433   3.167  2.1318  1.0691 -1.8646
  424MOL0     H57208   9.734  10.253   3.054 -1.2037 -1.5514 -0.5537
  424MOL0     H57209   9.582  10.193   3.122 -3.4172  2.3878  0.4461
  424MOL0     H57210   9.665  10.270   2.828  0.0211  1.2215  0.9452
  424MOL0     H57211   9.496  10.274   2.864  1.8139  3.7796  0.4731
  424MOL0     H57212   9.535  10.047   2.780  0.8617 -2.8994  0.6394
  424MOL0     H57213   9.520  10.037   2.958  0.4701  3.1148  1.1948
  424MOL0     H57214   9.777  10.028   2.794 -1.3430 -2.6815 -1.1681
  424MOL0     H57215   9.770  10.033   2.974 -0.3981  0.5960  0.0287
  424MOL0     H57216   9.623   9.835   2.792  2.1805  1.2058 -2.7833
  424MOL0     H57217   9.636   9.830   2.974  3.7641 -1.8533  1.2366
  424MOL0     H57218   9.880   9.807   2.957  0.3281 -0.8802  0.5872
  424MOL0     H57219   9.792   9.668   2.879  0.3317 -0.0180 -0.8057
  424MOL0     H57220   9.238  10.563   3.222  1.7171  0.8264  0.5450
  424MOL0     H57221   8.993  10.526   3.340 -0.3134 -0.2137 -0.3784
  424MOL0     H57222   8.575  10.046   3.417  0.0590 -0.3689  1.9886
  424MOL0     H57223   8.363  10.077   3.572 -0.1928  0.6294 -1.7529
  424MOL0     H57224   6.478  10.452   3.574 -2.0690  0.6182 -1.0495
  424MOL0     H57225   6.258  10.476   3.680 -0.6188  1.9146  0.0683
  424MOL0     H57226   5.936  10.322   3.955  0.3440 -0.5281 -0.9129
  424MOL0     H57227   5.694  10.340   3.997 -1.0449  0.5636 -0.5667
  424MOL0     H57228   5.496  10.383   4.097 -3.0280  1.4803  2.7665
  424MOL0     H57229   5.461  10.441   3.935  1.4011 -0.2585 -0.0548
  424MOL0     H57230   5.336  10.524   4.195  3.3897 -1.9761  0.6318
  424MOL0     H57231   5.255  10.453   4.053 -1.0532  0.6806 -0.1597
  424MOL0     H57232   5.326  10.652   3.918 -0.4754 -2.7179 -0.7000
  424MOL0     H57233   5.376  10.731   4.067  0.2416  0.5301 -3.8052
  424MOL0     H57234   5.078  10.639   4.016 -0.6617 -1.4432  2.9083
  424MOL0     H57235   5.142  10.696   4.168  1.0498 -1.1103  0.9041
  424MOL0     H57236   5.128  11.042   3.916 -0.1387 -2.5326 -4.6090
  424MOL0     H57237   5.739  10.754   4.080 -0.8735  0.3824 -3.0099
  424MOL0     H57238   5.990  10.838   3.943 -0.3011 -0.0069 -0.8060
  424MOL0     H57239   5.952  10.849   4.116 -1.9074 -2.1223  0.4545
  424MOL0     H57240   6.100  10.757   4.062 -0.4702 -2.6980 -1.6330
  425MOL0     O57241   3.503  11.221   1.620 -0.7483 -0.0669 -0.0100
  425MOL0     C57242   3.480  11.323   1.683 -0.0351  0.5956 -0.7325
  425MOL0     O57243   3.404  11.431   1.635 -0.2487  0.6029  0.1147
  425MOL0     C57244   3.395  11.460   1.502  0.2970  0.0956  0.0998
  425MOL0     C57245   3.455  11.394   1.392  0.2379  0.4232 -0.4234
  425MOL0     C57246   3.425  11.432   1.258  0.3798  0.1237  0.4894
  425MOL0     C57247   3.345  11.546   1.233  1.2317  0.3739 -0.3169
  425MOL0     O57248   3.302  11.574   1.107 -0.2449 -0.2801  0.5089
  425MOL0     C57249   3.403  11.641   1.034 -0.0551  0.1094  0.2883
  425MOL0     C57250   3.355  11.693   0.905 -0.0135 -0.0034  0.3254
  425MOL0     C57251   3.452  11.762   0.816  0.5500 -0.1101  0.1612
  425MOL0     C57252   3.375  11.831   0.694 -0.0175  0.7585  0.3452
  425MOL0     C57253   3.449  11.817   0.556 -0.4764  0.2525  0.6682
  425MOL0     C57254   3.440  11.681   0.488 -0.4404 -0.5753 -0.3599
  425MOL0     C57255   3.555  11.635   0.394 -0.2171 -0.8992  0.6257
  425MOL0     C57256   3.582  11.747   0.290 -0.9546  0.6591 -0.1213
  425MOL0     N57257   3.699  11.715   0.204  1.2368  0.4803 -0.7017
  425MOL0     C57258   3.730  11.588   0.161 -0.2843  0.1914 -0.7256
  425MOL0     C57259   3.808  11.615   0.050 -0.5603  0.7003  0.8065
  425MOL0     C57260   3.886  11.517  -0.039  0.0927  0.5963 -0.8210
  425MOL0     C57261   3.819  11.380  -0.028  0.1138  0.1474 -0.2668
  425MOL0     C57262   3.781  11.321  -0.165  0.3343 -0.1080 -0.6751
  425MOL0     C57263   3.731  11.181  -0.145 -0.3212  0.6680 -0.0556
  425MOL0     O57264   3.597  11.194  -0.100  0.6432  0.0924 -0.1507
  425MOL0     C57265   3.507  11.092  -0.128 -0.6688  0.6317 -0.6725
  425MOL0     C57266   3.376  11.126  -0.097 -0.3596  0.3626  0.3525
  425MOL0     C57267   3.273  11.035  -0.099  0.4837  0.2038  0.6824
  425MOL0     C57268   3.295  10.899  -0.134 -0.7503  0.3104 -1.4244
  425MOL0     C57269   3.187  10.788  -0.156  0.1805 -0.1479  0.6001
  425MOL0     O57270   3.222  10.668  -0.204 -0.4492 -0.4657  0.3483
  425MOL0     C57271   3.128  10.567  -0.207 -0.1804 -0.1616  0.1483
  425MOL0     C57272   3.026  10.565  -0.300  1.0050  0.5084  0.3583
  425MOL0     C57273   2.928  10.459  -0.299 -0.3020  0.4850 -0.4875
  425MOL0     C57274   2.947  10.350  -0.219  0.8149  0.1576 -0.0121
  425MOL0     O57275   2.855  10.248  -0.232  0.0519  0.3323 -0.6604
  425MOL0     C57276   2.896  10.119  -0.183 -0.0693  1.3763  0.1089
  425MOL0     C57277   2.805  10.008  -0.244  0.5051  0.0166  0.4403
  425MOL0     C57278   2.658  10.008  -0.205 -0.2990  0.1551  0.4408
  425MOL0     C57279   2.572   9.893  -0.249 -0.4794 -0.4941  0.5919
  425MOL0     C57280   2.581   9.779  -0.153 -0.3440 -1.2800 -0.0971
  425MOL0     C57281   2.500   9.666  -0.220 -0.2455 -0.7941 -0.5865
  425MOL0     C57282   2.345   9.689  -0.187 -0.0995 -1.1288 -0.3471
  425MOL0     C57283   2.266   9.696  -0.317 -1.1596 -0.4404  0.2151
  425MOL0    Cl57284   2.098   9.732  -0.290 -0.5514  0.3651 -0.5500
  425MOL0     C57285   3.051  10.354  -0.121  0.0391 -0.2555 -0.5352
  425MOL0     C57286   3.143  10.462  -0.124  0.5064 -0.0850 -0.4321
  425MOL0     O57287   3.068  10.818  -0.129 -0.3323 -0.4034  0.4705
  425MOL0     C57288   3.431  10.863  -0.152 -0.2976  0.0037 -0.1309
  425MOL0     C57289   3.534  10.955  -0.153  0.2305 -0.1793 -0.1836
  425MOL0     N57290   3.832  11.753   0.038 -0.3339 -1.1617 -0.0144
  425MOL0     N57291   3.759  11.813   0.132 -0.4446  0.5206  0.1381
  425MOL0     C57292   3.290  11.620   1.337 -0.5713  0.3977 -0.0622
  425MOL0     C57293   3.315  11.580   1.471 -0.3197 -0.3951 -0.2842
  425MOL0     C57294   3.515  11.334   1.823  0.4107 -0.2078 -0.8410
  425MOL0     C57295   3.458  11.441   1.891  0.5026  0.1269 -0.4971
  425MOL0     C57296   3.486  11.463   2.025 -0.0601 -0.9576  0.0942
  425MOL0     C57297   3.572  11.376   2.097  0.6246 -0.3052  0.1793
  425MOL0     O57298   3.617  11.387   2.223  0.7931  0.0497 -0.5313
  425MOL0     C57299   3.557  11.481   2.315 -0.1502 -0.3257 -0.4522
  425MOL0     C57300   3.413  11.449   2.347  0.2604 -0.4312  0.1636
  425MOL0     C57301   3.373  11.521   2.476 -0.4369  0.2477 -0.3002
  425MOL0     C57302   3.218  11.521   2.497 -0.4046  0.1585 -0.2697
  425MOL0     C57303   3.170  11.385   2.475  0.6352  0.4389 -1.3396
  425MOL0     C57304   3.133  11.269   2.460  0.2378 -0.1898 -0.5579
  425MOL0     C57305   3.633  11.275   2.025  0.3929 -0.0029 -0.5488
  425MOL0     C57306   3.599  11.255   1.894  0.5589  1.8643  0.4106
  425MOL0     C57307   3.652  11.124   1.841  0.6254 -0.1571  0.5622
  425MOL0     H57308   3.528  11.315   1.401 -1.8692 -1.5508  0.1866
  425MOL0     H57309   3.453  11.386   1.164  0.5006  2.3996 -0.6764
  425MOL0     H57310   3.443  11.720   1.100  0.3547 -1.6038  2.2026
  425MOL0     H57311   3.487  11.582   0.996 -0.0748  0.6090 -0.5512
  425MOL0     H57312   3.267  11.752   0.931 -1.1712 -0.9191 -1.3365
  425MOL0     H57313   3.316  11.608   0.848 -0.5228 -0.2953  1.0979
  425MOL0     H57314   3.525  11.691   0.777 -1.3364 -1.4839 -1.0757
  425MOL0     H57315   3.504  11.839   0.875  1.0256 -0.7889  0.6482
  425MOL0     H57316   3.277  11.785   0.681  0.3771  0.7780 -5.0225
  425MOL0     H57317   3.354  11.937   0.708 -0.9360  0.9567 -2.1199
  425MOL0     H57318   3.416  11.890   0.482  3.4187 -0.7874 -2.4567
  425MOL0     H57319   3.557  11.836   0.558 -0.1408 -1.2659 -0.8911
  425MOL0     H57320   3.442  11.603   0.564 -1.3947 -1.3110 -1.0546
  425MOL0     H57321   3.340  11.671   0.443 -0.6655  0.5835 -0.1400
  425MOL0     H57322   3.534  11.545   0.336 -0.7092  0.1545 -0.8889
  425MOL0     H57323   3.643  11.624   0.458  0.9576 -0.8905 -0.9321
  425MOL0     H57324   3.496  11.770   0.227 -0.0181  3.2962 -0.5551
  425MOL0     H57325   3.599  11.842   0.342 -0.8184 -0.5554  2.1803
  425MOL0     H57326   3.695  11.494   0.203 -1.4408 -0.5575 -3.2020
  425MOL0     H57327   3.888  11.564  -0.138  1.0071  1.6527 -0.3283
  425MOL0     H57328   3.988  11.512   0.000 -0.6245  1.4798  1.3180
  425MOL0     H57329   3.897  11.319   0.020 -0.4490  0.0369  0.5430
  425MOL0     H57330   3.730  11.374   0.036 -0.0401  0.0935 -0.4836
  425MOL0     H57331   3.874  11.318  -0.222  0.8983  2.1643  0.0181
  425MOL0     H57332   3.698  11.365  -0.220 -0.2784 -1.6424 -1.0238
  425MOL0     H57333   3.796  11.130  -0.073 -0.0040  0.3482 -0.5635
  425MOL0     H57334   3.724  11.126  -0.240 -2.3813  1.2257 -0.2831
  425MOL0     H57335   3.345  11.224  -0.063 -1.3104 -0.2160  1.2292
  425MOL0     H57336   3.168  11.062  -0.093  0.3929  0.6718 -1.8661
  425MOL0     H57337   3.007  10.652  -0.360 -0.4330  0.9392  1.3762
  425MOL0     H57338   2.839  10.459  -0.361 -1.2302  1.4658  0.7979
  425MOL0     H57339   3.004  10.100  -0.186  0.4397  4.0414 -0.9995
  425MOL0     H57340   2.875  10.120  -0.075 -0.6589  1.3826 -0.0031
  425MOL0     H57341   2.811  10.021  -0.353  0.6380  1.4204  0.6009
  425MOL0     H57342   2.848   9.916  -0.204 -0.9278 -1.2688 -0.8095
  425MOL0     H57343   2.652  10.018  -0.096  1.2173  0.8347  0.4835
  425MOL0     H57344   2.626  10.107  -0.239  2.6414  1.1335  0.2692
  425MOL0     H57345   2.625   9.867  -0.342  2.8854  3.6944  1.0315
  425MOL0     H57346   2.466   9.918  -0.254 -1.9266 -4.9264  3.2489
  425MOL0     H57347   2.557   9.812  -0.052  2.3944 -1.0152  0.5625
  425MOL0     H57348   2.682   9.738  -0.156  0.3054  0.2760 -0.5623
  425MOL0     H57349   2.520   9.647  -0.326 -0.1359 -0.6243 -0.5964
  425MOL0     H57350   2.532   9.584  -0.154  1.0232  1.8056  2.2612
  425MOL0     H57351   2.316   9.774  -0.125  1.8645 -2.5843  2.8412
  425MOL0     H57352   2.321   9.600  -0.128  0.9983 -0.0803  1.7796
  425MOL0     H57353   2.311   9.773  -0.380  1.2894 -1.6986  0.2706
  425MOL0     H57354   2.280   9.601  -0.369  0.2553 -0.2783  0.2421
  425MOL0     H57355   3.071  10.270  -0.055  0.2991  0.8245  0.7913
  425MOL0     H57356   3.238  10.460  -0.071  0.0527 -1.2412  0.4029
  425MOL0     H57357   3.457  10.758  -0.157  1.8403  0.4000  1.4633
  425MOL0     H57358   3.636  10.917  -0.146 -1.1861 -4.5877 -0.0999
  425MOL0     H57359   3.232  11.705   1.302 -0.7993 -0.3262 -1.5012
  425MOL0     H57360   3.277  11.648   1.547  0.8563  3.3342 -2.7110
  425MOL0     H57361   3.392  11.518   1.852 -0.8734  1.3384  3.6544
  425MOL0     H57362   3.441  11.554   2.064  0.2028 -1.3100  1.2883
  425MOL0     H57363   3.578  11.585   2.290  1.6295 -0.1099  1.6093
  425MOL0     H57364   3.624  11.475   2.402 -0.7795  2.3598  0.3012
  425MOL0     H57365   3.417  11.342   2.369  2.5621 -0.3294  0.4652
  425MOL0     H57366   3.346  11.468   2.262  2.2411 -0.7727 -1.5529
  425MOL0     H57367   3.401  11.627   2.472  0.2418  0.0526 -0.8188
  425MOL0     H57368   3.417  11.476   2.565 -3.3471  0.3950  1.3601
  425MOL0     H57369   3.193  11.562   2.595 -1.6793 -0.7368 -0.2005
  425MOL0     H57370   3.165  11.579   2.421 -4.9692 -1.5526  1.3033
  425MOL0     H57371   3.110  11.165   2.451  1.9328 -0.6883  0.4556
  425MOL0     H57372   3.703  11.205   2.071 -0.7316 -0.2973  0.7929
  425MOL0     H57373   3.565  11.061   1.820 -1.2251  2.6925 -0.8793
  425MOL0     H57374   3.704  11.118   1.745 -0.0776 -1.1284  0.2214
  425MOL0     H57375   3.714  11.073   1.916  0.0172 -0.4213  0.8947
  426MOL0     O57376   1.003   8.754   7.862  0.2210  0.0257 -0.4270
  426MOL0     C57377   1.006   8.655   7.941  0.8496  0.0672  0.9027
  426MOL0     O57378   1.110   8.624   8.031 -0.5556  0.4118  0.0823
  426MOL0     C57379   1.233   8.685   8.007  1.2398 -1.0467 -0.6808
  426MOL0     C57380   1.296   8.775   8.102  1.0398  1.2653 -0.9844
  426MOL0     C57381   1.422   8.813   8.081 -0.3099 -0.8834  0.6489
  426MOL0     C57382   1.494   8.784   7.962 -0.1605  0.2992 -0.3662
  426MOL0     O57383   1.607   8.845   7.948  0.3492 -0.1422 -0.6859
  426MOL0     C57384   1.714   8.764   7.896  0.3603 -1.1138  0.2715
  426MOL0     C57385   1.845   8.848   7.898 -0.2085 -0.1786 -0.4023
  426MOL0     C57386   1.965   8.772   7.839 -0.9578 -0.1200  0.8113
  426MOL0     C57387   2.107   8.841   7.859 -0.2806 -0.1052 -0.5804
  426MOL0     C57388   2.193   8.827   7.731  0.8068 -0.3355  0.0829
  426MOL0     C57389   2.342   8.850   7.751 -0.5393 -0.2013  0.5481
  426MOL0     C57390   2.385   8.983   7.810 -0.7580 -0.3502 -0.3160
  426MOL0     C57391   2.391   9.109   7.710 -0.1298 -0.6829 -0.5696
  426MOL0     N57392   2.505   9.204   7.739  0.6553  0.0551  0.0318
  426MOL0     C57393   2.624   9.182   7.685  0.4992  0.3662  0.2287
  426MOL0     C57394   2.707   9.268   7.750 -0.1111 -0.0597  0.9577
  426MOL0     C57395   2.856   9.300   7.712 -0.2931 -0.9346  0.1870
  426MOL0     C57396   2.868   9.442   7.650 -0.4118  0.5709 -0.4218
  426MOL0     C57397   2.999   9.465   7.572  0.2380 -0.1338 -0.1580
  426MOL0     C57398   3.128   9.452   7.653  0.0962  0.8759 -0.1302
  426MOL0     O57399   3.241   9.454   7.562  0.3695 -0.0855  0.3010
  426MOL0     C57400   3.368   9.428   7.616 -0.4677  0.7484  0.5212
  426MOL0     C57401   3.479   9.427   7.536  0.5193  0.2319 -0.3985
  426MOL0     C57402   3.604   9.413   7.585  0.4018 -0.5142 -0.1891
  426MOL0     C57403   3.629   9.368   7.718 -0.1106  0.5903  0.3935
  426MOL0     C57404   3.775   9.354   7.762 -0.2616  0.3901 -0.0094
  426MOL0     O57405   3.789   9.306   7.891  0.9231  0.0065  0.2568
  426MOL0     C57406   3.912   9.283   7.950 -0.5067 -0.1806  0.2147
  426MOL0     C57407   4.016   9.205   7.896  0.8820 -0.5274  0.0707
  426MOL0     C57408   4.129   9.172   7.979 -0.1396 -0.4787 -0.1751
  426MOL0     C57409   4.133   9.220   8.114 -0.3757  0.1517  0.0672
  426MOL0     O57410   4.232   9.196   8.200  0.2788 -0.1086 -0.2035
  426MOL0     C57411   4.350   9.115   8.174  0.9445 -0.1290  0.6304
  426MOL0     C57412   4.450   9.138   8.273 -0.4045 -0.1414 -0.5139
  426MOL0     C57413   4.511   9.281   8.272  0.3771 -0.1641  0.4414
  426MOL0     C57414   4.635   9.288   8.180  0.2836 -0.2540  0.6484
  426MOL0     C57415   4.676   9.434   8.181  0.6922 -0.0070  0.3794
  426MOL0     C57416   4.806   9.461   8.108 -0.0744  0.1304  0.5741
  426MOL0     C57417   4.843   9.606   8.108  0.3053  1.0642 -0.2867
  426MOL0     C57418   4.981   9.625   8.034 -0.2291 -0.1485 -0.0266
  426MOL0    Cl57419   4.997   9.799   7.999  0.1922 -0.2272  0.0420
  426MOL0     C57420   4.025   9.291   8.169  1.2648  0.9268 -0.6897
  426MOL0     C57421   3.913   9.313   8.085 -1.2794  0.5996  0.2120
  426MOL0     O57422   3.864   9.388   7.690 -0.1118 -0.0885  0.1594
  426MOL0     C57423   3.514   9.346   7.797 -0.4852  0.0867  0.4388
  426MOL0     C57424   3.383   9.388   7.752  0.8410 -0.1422  0.3783
  426MOL0     N57425   2.633   9.325   7.847  0.8766 -0.8336  0.2237
  426MOL0     N57426   2.511   9.288   7.839  0.2419  0.3314  0.3680
  426MOL0     C57427   1.433   8.703   7.871 -0.6836  0.2644 -0.4665
  426MOL0     C57428   1.308   8.657   7.897 -0.0891  0.1026  0.1428
  426MOL0     C57429   0.884   8.565   7.957  1.1941 -0.8288 -0.5958
  426MOL0     C57430   0.802   8.531   7.845  0.5431 -0.0341  0.1903
  426MOL0     C57431   0.685   8.467   7.860  0.4509  0.6642  0.3691
  426MOL0     C57432   0.634   8.431   7.987  0.0993  0.0618 -0.2851
  426MOL0     O57433   0.533   8.349   8.020  0.2520  0.4571  0.0123
  426MOL0     C57434   0.449   8.288   7.916  0.1747  0.5172 -0.2345
  426MOL0     C57435   0.524   8.177   7.833  0.9827 -0.9517  0.0248
  426MOL0     C57436   0.580   8.071   7.913  0.1447 -0.9950  1.0212
  426MOL0     C57437   0.655   7.968   7.820  0.2208  0.8176  0.5528
  426MOL0     C57438   0.572   7.867   7.755  0.1126  0.0603 -0.6656
  426MOL0     C57439   0.497   7.783   7.711  0.5951  0.4886  0.1393
  426MOL0     C57440   0.712   8.463   8.099  0.6905  0.0944 -0.2907
  426MOL0     C57441   0.826   8.536   8.088 -0.3012 -1.0602 -0.1304
  426MOL0     C57442   0.876   8.582   8.215 -0.1398 -0.5623  0.1426
  426MOL0     H57443   1.249   8.791   8.198 -0.0746 -0.8231 -1.1083
  426MOL0     H57444   1.464   8.874   8.161 -1.6270 -2.8064  2.9479
  426MOL0     H57445   1.721   8.666   7.943 -2.6575 -2.0129 -0.9598
  426MOL0     H57446   1.692   8.751   7.790  0.3963 -3.1650  0.4784
  426MOL0     H57447   1.868   8.871   8.002 -2.1055  0.1525 -0.0096
  426MOL0     H57448   1.838   8.944   7.845 -2.2955 -0.0688 -0.0267
  426MOL0     H57449   1.941   8.769   7.732 -1.6684 -3.0280  0.9515
  426MOL0     H57450   1.965   8.670   7.880 -0.0752  0.0870  1.3505
  426MOL0     H57451   2.090   8.948   7.874 -3.5460 -0.4715 -0.9028
  426MOL0     H57452   2.162   8.800   7.944  0.8496  3.7052  0.7526
  426MOL0     H57453   2.184   8.725   7.696  2.8020 -0.6035  0.2429
  426MOL0     H57454   2.148   8.888   7.652  0.9681 -2.3681 -1.6621
  426MOL0     H57455   2.380   8.773   7.818  1.4768 -2.2470 -2.6979
  426MOL0     H57456   2.396   8.830   7.658  1.5455 -0.7908  1.8373
  426MOL0     H57457   2.485   8.975   7.854 -1.4338  1.3250  1.6886
  426MOL0     H57458   2.322   9.013   7.894 -0.6148  0.1606 -0.3891
  426MOL0     H57459   2.378   9.074   7.607 -0.6730  1.9773 -1.4918
  426MOL0     H57460   2.304   9.175   7.723  1.5119  2.1544 -2.7513
  426MOL0     H57461   2.655   9.124   7.599  0.1248  2.0623 -1.1233
  426MOL0     H57462   2.915   9.278   7.802 -1.8827 -0.5757  1.3623
  426MOL0     H57463   2.883   9.223   7.639  0.9233 -1.5215  1.2102
  426MOL0     H57464   2.781   9.467   7.588 -2.1299  0.2477  1.7220
  426MOL0     H57465   2.869   9.524   7.722  0.1881  0.1295  0.0801
  426MOL0     H57466   3.008   9.566   7.531  2.1089 -0.4006 -0.5381
  426MOL0     H57467   3.005   9.401   7.484  3.1633 -0.1229 -0.0786
  426MOL0     H57468   3.129   9.354   7.702 -0.1551  1.1053  0.3433
  426MOL0     H57469   3.133   9.525   7.734 -0.7629  0.0523  0.6882
  426MOL0     H57470   3.476   9.460   7.433  0.2612  0.8732 -0.1924
  426MOL0     H57471   3.678   9.437   7.509 -1.4263  3.6719 -0.9394
  426MOL0     H57472   4.017   9.191   7.788 -1.0191 -0.4442  0.0148
  426MOL0     H57473   4.225   9.139   7.940  1.8709  3.2083  1.1756
  426MOL0     H57474   4.323   9.009   8.169 -0.7900  0.3099 -0.0171
  426MOL0     H57475   4.380   9.130   8.070  0.2736 -2.1021  0.0972
  426MOL0     H57476   4.388   9.119   8.362 -1.7234 -0.6289 -1.5053
  426MOL0     H57477   4.523   9.057   8.265 -0.9056 -1.2895  3.9659
  426MOL0     H57478   4.434   9.349   8.235  1.5677  1.3790  0.7049
  426MOL0     H57479   4.522   9.316   8.375 -2.7180  1.8484  0.2468
  426MOL0     H57480   4.608   9.264   8.076 -2.7208 -2.1355  1.7464
  426MOL0     H57481   4.718   9.228   8.218 -1.1725 -1.5320  1.8989
  426MOL0     H57482   4.682   9.456   8.288 -3.1006  0.3959  0.6585
  426MOL0     H57483   4.589   9.488   8.142 -1.6145 -2.7049  1.4384
  426MOL0     H57484   4.882   9.404   8.164 -0.2195  1.7315  2.5060
  426MOL0     H57485   4.792   9.431   8.004 -0.5074 -0.3133  0.7557
  426MOL0     H57486   4.844   9.647   8.210  1.4119  0.2326  0.0518
  426MOL0     H57487   4.766   9.666   8.058  0.4697 -0.5328 -2.6183
  426MOL0     H57488   5.051   9.584   8.108 -1.5817 -2.7771 -0.0925
  426MOL0     H57489   4.985   9.576   7.937 -2.6744 -1.2133  0.3283
  426MOL0     H57490   4.040   9.308   8.275 -0.3167  1.7783 -0.5780
  426MOL0     H57491   3.815   9.342   8.122 -0.9965  1.4097  0.3506
  426MOL0     H57492   3.533   9.313   7.899  0.0907 -1.2458 -0.0795
  426MOL0     H57493   3.298   9.383   7.819 -1.8111  0.2392 -2.6614
  426MOL0     H57494   1.481   8.693   7.774 -4.6736  0.6391 -2.7152
  426MOL0     H57495   1.273   8.600   7.811  1.5510  0.8161 -1.0626
  426MOL0     H57496   0.820   8.560   7.742 -1.5416  1.3511  0.1613
  426MOL0     H57497   0.611   8.439   7.786 -1.1942  0.4501  2.0285
  426MOL0     H57498   0.414   8.359   7.840  1.8678  0.7626 -0.8408
  426MOL0     H57499   0.363   8.244   7.966 -0.8923  0.1269 -2.2726
  426MOL0     H57500   0.595   8.225   7.765 -0.9154  2.6256  0.3079
  426MOL0     H57501   0.442   8.134   7.774 -0.5594  1.4329  0.2750
  426MOL0     H57502   0.504   8.017   7.971  0.7451 -1.0549  1.7705
  426MOL0     H57503   0.655   8.093   7.990 -0.8757 -2.4613  2.5056
  426MOL0     H57504   0.721   8.015   7.746 -0.2492  0.3209 -0.1935
  426MOL0     H57505   0.718   7.918   7.894 -1.5974 -1.3234  0.7291
  426MOL0     H57506   0.448   7.696   7.673  0.9689 -1.1172  3.0375
  426MOL0     H57507   0.678   8.432   8.198  0.1159  0.3603 -0.4070
  426MOL0     H57508   0.826   8.552   8.307  2.0512 -1.0045  1.2665
  426MOL0     H57509   0.981   8.550   8.216  0.2871  0.3920 -2.9919
  426MOL0     H57510   0.881   8.691   8.211  0.9786 -0.6362 -2.1459
  427MOL0     O57511   2.392   8.882  10.712 -0.0220  0.3378 -0.3239
  427MOL0     C57512   2.330   8.847  10.814  0.1914  0.1100  0.4491
  427MOL0     O57513   2.334   8.912  10.928  0.5536  0.3496  0.2194
  427MOL0     C57514   2.416   9.019  10.945  1.0872 -0.5024  0.2292
  427MOL0     C57515   2.552   9.031  10.899 -0.2148 -0.5781  0.0331
  427MOL0     C57516   2.618   9.150  10.929  0.7554  0.3055 -0.4711
  427MOL0     C57517   2.561   9.256  11.005 -0.1813 -0.4168  0.3279
  427MOL0     O57518   2.635   9.358  11.067  0.1447 -1.0005  0.2418
  427MOL0     C57519   2.765   9.393  11.011  0.4009  0.5483  0.5646
  427MOL0     C57520   2.802   9.524  11.081 -0.3114  0.0635  0.4495
  427MOL0     C57521   2.949   9.553  11.056  0.1860  1.0171 -0.9524
  427MOL0     C57522   3.002   9.652  11.164 -0.0916 -0.5872 -0.6717
  427MOL0     C57523   3.135   9.711  11.109 -0.4789 -0.0558  0.3590
  427MOL0     C57524   3.179   9.829  11.191  0.6944  0.0104  0.1984
  427MOL0     C57525   3.277   9.915  11.118  0.0494 -0.3664 -0.1890
  427MOL0     C57526   3.417   9.856  11.101 -0.4234  0.2617 -0.0095
  427MOL0     N57527   3.504   9.968  11.065 -0.1136 -0.1735  0.3456
  427MOL0     C57528   3.524  10.073  11.149  0.9697 -0.5131  0.4383
  427MOL0     C57529   3.621  10.156  11.092  0.0454 -0.2628  0.4559
  427MOL0     C57530   3.690  10.273  11.151  0.3491  0.6319 -0.3329
  427MOL0     C57531   3.799  10.330  11.055 -0.5303 -0.7533  0.1694
  427MOL0     C57532   3.931  10.260  11.092 -0.4253 -0.7692  0.3797
  427MOL0     C57533   4.032  10.280  10.973 -0.0496 -0.9948 -0.7122
  427MOL0     O57534   4.053  10.427  10.954  0.3201 -0.2619  0.1856
  427MOL0     C57535   4.117  10.486  11.058  0.3527 -0.0532 -0.3382
  427MOL0     C57536   4.242  10.452  11.114 -0.4829  0.8084  0.2671
  427MOL0     C57537   4.292  10.533  11.215 -0.4510 -0.9018 -0.5069
  427MOL0     C57538   4.235  10.657  11.246  0.2044 -1.4782 -0.0684
  427MOL0     C57539   4.298  10.761  11.337 -1.1851  0.6721  0.4923
  427MOL0     O57540   4.241  10.885  11.358 -0.3463  1.1853  0.1586
  427MOL0     C57541   4.285  10.971  11.449 -0.8508 -0.1335 -0.8431
  427MOL0     C57542   4.224  11.090  11.435  0.0870 -0.1283  0.1615
  427MOL0     C57543   4.246  11.193  11.537 -0.8544 -0.6763  0.3391
  427MOL0     C57544   4.348  11.185  11.631  0.1387  0.5875 -0.6924
  427MOL0     O57545   4.370  11.286  11.723 -0.3239  0.5598 -0.7266
  427MOL0     C57546   4.434  11.400  11.666 -0.1767 -0.4989  0.3798
  427MOL0     C57547   4.515  11.483  11.768  0.5841  0.1787 -0.5915
  427MOL0     C57548   4.423  11.557  11.866  0.7315  0.6672 -1.1412
  427MOL0     C57549   4.373  11.696  11.815 -0.1457 -0.4638 -0.5256
  427MOL0     C57550   4.262  11.759  11.906 -0.7718 -0.1450 -0.4728
  427MOL0     C57551   4.264  11.910  11.879 -0.7604  0.0818 -0.2093
  427MOL0     C57552   4.143  11.975  11.946  0.7220 -0.8222 -0.1660
  427MOL0     C57553   4.128  11.962  12.101 -0.1091  0.0754  0.4395
  427MOL0    Cl57554   3.966  12.002  12.164  0.1454 -0.1254  0.3154
  427MOL0     C57555   4.411  11.066  11.643 -0.5866  1.1979  0.6248
  427MOL0     C57556   4.373  10.955  11.558 -0.3273 -0.7047  0.8219
  427MOL0     O57557   4.402  10.726  11.394 -0.1877 -0.3108  0.5271
  427MOL0     C57558   4.110  10.693  11.185 -0.1138 -0.0219 -0.5231
  427MOL0     C57559   4.057  10.604  11.099 -0.7718  0.2724 -0.1811
  427MOL0     N57560   3.663  10.083  10.977  0.4010  0.2907 -0.3118
  427MOL0     N57561   3.597   9.976  10.963 -0.4991  0.7418  0.7193
  427MOL0     C57562   2.429   9.241  11.048  0.0959  0.4257 -0.1012
  427MOL0     C57563   2.360   9.123  11.018 -0.0043  0.6767 -0.5092
  427MOL0     C57564   2.239   8.736  10.795 -0.4463  0.3919 -0.8139
  427MOL0     C57565   2.263   8.639  10.702 -0.2491  0.3224 -0.0867
  427MOL0     C57566   2.205   8.511  10.698  0.1657  0.6392 -0.7921
  427MOL0     C57567   2.102   8.485  10.786 -0.2277 -0.0919 -0.3043
  427MOL0     O57568   2.024   8.375  10.794  0.0110 -0.3067  0.5903
  427MOL0     C57569   2.089   8.261  10.721  0.9160 -0.0283  0.7109
  427MOL0     C57570   2.000   8.132  10.727  0.1897 -0.0996 -0.7377
  427MOL0     C57571   2.059   8.005  10.681 -0.2016 -0.5314  1.2236
  427MOL0     C57572   2.148   7.943  10.793 -0.6195  0.7139  0.5460
  427MOL0     C57573   2.186   7.811  10.750  0.0531  0.5769  0.0027
  427MOL0     C57574   2.229   7.699  10.740  0.0758 -0.3184  0.1243
  427MOL0     C57575   2.064   8.585  10.872 -1.0932 -0.1234  0.1669
  427MOL0     C57576   2.132   8.712  10.884 -0.6995 -0.6385 -0.2620
  427MOL0     C57577   2.067   8.802  10.996 -0.7233 -0.3610  0.8285
  427MOL0     H57578   2.612   8.949  10.861 -0.4328 -0.0661 -1.4486
  427MOL0     H57579   2.713   9.173  10.883 -0.0511  1.2328 -1.7534
  427MOL0     H57580   2.831   9.311  11.041 -1.3322 -1.4900 -0.8866
  427MOL0     H57581   2.765   9.408  10.903  1.2092  2.0414  0.7441
  427MOL0     H57582   2.764   9.525  11.184 -0.1271 -1.2924  0.5436
  427MOL0     H57583   2.748   9.604  11.030  1.0512  2.7693  2.9088
  427MOL0     H57584   2.959   9.583  10.951  0.5847  0.6708 -1.0193
  427MOL0     H57585   3.012   9.466  11.080 -1.8773 -0.0659  0.8168
  427MOL0     H57586   2.920   9.724  11.171  0.3876 -0.1039  0.0224
  427MOL0     H57587   3.016   9.607  11.262  2.7021  0.7783 -0.3351
  427MOL0     H57588   3.205   9.628  11.098 -0.7116  0.0588 -3.6294
  427MOL0     H57589   3.115   9.750  11.008 -0.5058  1.6676  0.9908
  427MOL0     H57590   3.086   9.886  11.203  0.0681 -1.3746  2.6182
  427MOL0     H57591   3.212   9.795  11.290  0.7285 -0.5688 -0.0091
  427MOL0     H57592   3.277  10.003  11.183  1.3848  1.6821 -2.7500
  427MOL0     H57593   3.245   9.957  11.022  2.5179  2.5666  0.1156
  427MOL0     H57594   3.457   9.828  11.199  0.1391 -2.1773 -0.8563
  427MOL0     H57595   3.429   9.768  11.038  2.0085  0.1311  0.5515
  427MOL0     H57596   3.468  10.088  11.240  3.3098 -3.3407  2.5275
  427MOL0     H57597   3.621  10.357  11.168  2.1312  2.0664  0.1502
  427MOL0     H57598   3.725  10.252  11.253 -2.4422 -1.2424  0.3687
  427MOL0     H57599   3.755  10.309  10.957 -2.0951  0.7533  0.5144
  427MOL0     H57600   3.809  10.436  11.078 -2.1534 -0.7169  0.8374
  427MOL0     H57601   3.914  10.152  11.101 -0.9067 -0.6889  0.4699
  427MOL0     H57602   3.978  10.307  11.179 -0.0828 -1.4775  0.5861
  427MOL0     H57603   4.003  10.236  10.877 -3.0766  1.8154 -1.2509
  427MOL0     H57604   4.119  10.228  11.015 -0.4398 -0.8257  0.3437
  427MOL0     H57605   4.284  10.357  11.082 -1.0084  0.7516 -0.2724
  427MOL0     H57606   4.387  10.496  11.253  0.8532 -1.5554 -4.0502
  427MOL0     H57607   4.135  11.100  11.375  0.1727 -3.5192 -0.7357
  427MOL0     H57608   4.181  11.279  11.528 -1.6782 -1.4970 -3.3378
  427MOL0     H57609   4.500  11.369  11.585  0.4173  2.5882 -0.4606
  427MOL0     H57610   4.355  11.465  11.625 -0.4717 -0.8977  0.3132
  427MOL0     H57611   4.596  11.429  11.818  0.8666  1.1571  0.0309
  427MOL0     H57612   4.554  11.570  11.715  0.6051  2.3741  2.7428
  427MOL0     H57613   4.345  11.487  11.899  0.5965  1.4753  0.3589
  427MOL0     H57614   4.473  11.584  11.959 -0.7861  2.8644 -0.8670
  427MOL0     H57615   4.340  11.694  11.711 -1.3524 -3.7827 -0.2001
  427MOL0     H57616   4.466  11.754  11.817  0.6202 -1.6444  0.5181
  427MOL0     H57617   4.286  11.738  12.010 -2.7288 -2.4435 -0.3935
  427MOL0     H57618   4.165  11.713  11.884 -1.1791 -0.8753  2.4937
  427MOL0     H57619   4.357  11.949  11.922  0.8233 -2.9432 -0.6814
  427MOL0     H57620   4.266  11.927  11.771  1.4761  0.4158 -0.1532
  427MOL0     H57621   4.051  11.929  11.909  2.0104 -4.0953  0.3350
  427MOL0     H57622   4.129  12.074  11.904 -0.7057  0.0573  2.1431
  427MOL0     H57623   4.152  11.861  12.134 -1.0867 -0.5790 -0.7829
  427MOL0     H57624   4.195  12.034  12.149 -1.6202  1.0336  1.1788
  427MOL0     H57625   4.470  11.058  11.734 -3.4055 -0.3991  2.4666
  427MOL0     H57626   4.431  10.864  11.564  0.9687 -0.1198 -1.6134
  427MOL0     H57627   4.071  10.794  11.192 -0.7068 -0.2736 -0.1742
  427MOL0     H57628   3.962  10.626  11.051  0.7834  1.2330 -3.0750
  427MOL0     H57629   2.380   9.309  11.118  0.0637 -2.1727  2.6162
  427MOL0     H57630   2.257   9.111  11.052 -0.5933  2.0292 -1.7076
  427MOL0     H57631   2.345   8.655  10.632 -1.3261  0.7682 -1.2846
  427MOL0     H57632   2.241   8.440  10.624 -2.3411 -1.6585 -0.0101
  427MOL0     H57633   2.180   8.249  10.780  0.3889  0.0284  1.5636
  427MOL0     H57634   2.105   8.277  10.614  5.1529 -4.8318  0.2683
  427MOL0     H57635   1.903   8.145  10.679  0.0393  0.3124 -0.3271
  427MOL0     H57636   1.991   8.120  10.836  0.5799  0.2400 -0.6638
  427MOL0     H57637   2.123   8.019  10.593  1.5187 -4.0351  1.6988
  427MOL0     H57638   1.983   7.933  10.650  0.4569 -0.0414 -1.9445
  427MOL0     H57639   2.243   7.992  10.818 -0.0018 -1.1545  2.0743
  427MOL0     H57640   2.087   7.942  10.884 -0.1090 -0.6632  0.8867
  427MOL0     H57641   2.268   7.600  10.725  3.4367  0.5669  2.0251
  427MOL0     H57642   1.982   8.562  10.939  1.0388 -1.7797  2.4371
  427MOL0     H57643   2.122   8.789  11.090 -2.9154  0.8493  2.3715
  427MOL0     H57644   2.070   8.906  10.960 -1.9137 -0.9989 -1.2816
  427MOL0     H57645   1.959   8.787  11.004 -1.2628  2.5135  0.1824
  428MOL0     O57646  10.769   2.031   3.544  0.9424  0.2016  0.6746
  428MOL0     C57647  10.788   1.999   3.427  0.3972 -0.5348  0.9596
  428MOL0     O57648  10.893   2.039   3.355  0.5224 -0.1950 -0.6707
  428MOL0     C57649  11.012   2.069   3.405 -0.1326 -0.3280  0.3551
  428MOL0     C57650  11.068   2.030   3.523 -0.3677 -0.0034  0.3021
  428MOL0     C57651  11.217   2.046   3.538  1.3119  0.3714  0.1546
  428MOL0     C57652  11.294   2.113   3.436  0.5475  0.1793  0.1589
  428MOL0     O57653  11.422   2.153   3.447  0.1202 -0.6504 -0.3990
  428MOL0     C57654  11.500   2.139   3.568  1.0181 -0.6708 -0.2679
  428MOL0     C57655  11.650   2.143   3.529  0.9900  0.8134  0.0880
  428MOL0     C57656  11.739   2.124   3.647 -0.7275 -0.3445 -0.8466
  428MOL0     C57657  11.883   2.107   3.605  1.3134 -0.3003 -0.0313
  428MOL0     C57658  11.977   2.069   3.711 -0.7554 -0.2928  0.2575
  428MOL0     C57659  12.018   2.178   3.806 -0.0013 -0.0745  0.6007
  428MOL0     C57660  12.127   2.273   3.740 -0.1847  0.3060 -0.4629
  428MOL0     C57661  12.183   2.358   3.848  0.1040 -0.0092 -0.3236
  428MOL0     N57662  12.261   2.297   3.957  0.0308 -0.1085 -0.4194
  428MOL0     C57663  12.380   2.228   3.936  0.5013 -0.4204 -0.3247
  428MOL0     C57664  12.438   2.239   4.058  0.4913  0.3631  0.5312
  428MOL0     C57665  12.572   2.175   4.089 -0.4679 -0.7112  0.0901
  428MOL0     C57666  12.683   2.271   4.120 -0.1920  0.5416  0.6125
  428MOL0     C57667  12.800   2.187   4.188  0.4205  0.3696  0.3691
  428MOL0     C57668  12.906   2.288   4.249  1.0014 -0.1872  0.8500
  428MOL0     O57669  12.961   2.359   4.140  0.6564 -0.4983  0.1191
  428MOL0     C57670  13.092   2.398   4.135 -0.3177 -0.8370  0.4280
  428MOL0     C57671  13.196   2.345   4.212  0.3092 -0.2570  0.7210
  428MOL0     C57672  13.325   2.388   4.194  0.4472  0.8746  0.0235
  428MOL0     C57673  13.362   2.467   4.080 -0.3184 -0.3322 -0.2003
  428MOL0     C57674  13.502   2.495   4.048 -1.1506 -1.2428 -0.3949
  428MOL0     O57675  13.599   2.464   4.142  0.0732  0.0995 -0.3434
  428MOL0     C57676  13.729   2.515   4.138  0.5598  0.3599  0.1594
  428MOL0     C57677  13.826   2.449   4.211 -0.5376  1.0001  0.1483
  428MOL0     C57678  13.960   2.493   4.217  0.3017  0.9321 -0.4333
  428MOL0     C57679  14.000   2.613   4.154 -0.2013 -0.2265  0.0744
  428MOL0     O57680  14.132   2.651   4.158 -0.4400 -0.0251 -0.0799
  428MOL0     C57681  14.172   2.788   4.135 -0.4850  0.2564  0.1391
  428MOL0     C57682  14.313   2.814   4.176 -0.2040 -0.7532 -0.0610
  428MOL0     C57683  14.357   2.946   4.105  0.3305 -0.4016  0.2387
  428MOL0     C57684  14.502   2.980   4.161  0.6780  0.3135 -0.1508
  428MOL0     C57685  14.553   3.118   4.113  0.8682  0.6182 -0.4350
  428MOL0     C57686  14.696   3.135   4.154 -0.3827 -0.7227 -0.7699
  428MOL0     C57687  14.766   3.260   4.096 -0.2808 -0.2589  0.0305
  428MOL0     C57688  14.908   3.294   4.151  0.6630  0.1440 -0.0348
  428MOL0    Cl57689  14.963   3.460   4.123 -0.4607  0.3131 -0.4522
  428MOL0     C57690  13.903   2.678   4.073 -1.1481 -0.3938  0.4104
  428MOL0     C57691  13.775   2.634   4.075  0.1646 -0.4214 -0.7732
  428MOL0     O57692  13.524   2.564   3.949  0.7582 -0.4560 -0.5975
  428MOL0     C57693  13.258   2.517   4.004 -0.4435  0.4572  0.2803
  428MOL0     C57694  13.128   2.473   4.030 -0.1478 -0.1956  0.3687
  428MOL0     N57695  12.352   2.294   4.146 -0.7971 -0.0063 -0.3796
  428MOL0     N57696  12.251   2.333   4.087 -0.4478 -0.1413  0.3051
  428MOL0     C57697  11.218   2.162   3.323 -0.3703  0.8802 -0.1709
  428MOL0     C57698  11.092   2.130   3.311  1.3421  0.3914  0.1888
  428MOL0     C57699  10.680   1.913   3.367  0.6494  0.2688 -0.3275
  428MOL0     C57700  10.572   1.873   3.446  0.7719  0.3034 -0.7309
  428MOL0     C57701  10.461   1.810   3.403  0.0343  1.0501  0.1700
  428MOL0     C57702  10.450   1.787   3.264 -0.5190 -0.2749 -0.2307
  428MOL0     O57703  10.347   1.712   3.213  0.1108  0.3037 -0.7859
  428MOL0     C57704  10.315   1.585   3.278  0.0623 -0.1855 -0.3678
  428MOL0     C57705  10.433   1.492   3.265  0.0731  0.9089  0.3519
  428MOL0     C57706  10.417   1.369   3.351  0.9085  0.4241 -0.1076
  428MOL0     C57707  10.552   1.308   3.384 -0.2298  0.6176  0.2081
  428MOL0     C57708  10.641   1.385   3.470 -0.3356  0.1131  0.2050
  428MOL0     C57709  10.720   1.456   3.530 -0.1514 -0.1956 -0.1229
  428MOL0     C57710  10.566   1.814   3.188 -0.2269  0.8751  0.0199
  428MOL0     C57711  10.675   1.883   3.227 -0.7743 -0.5520 -0.1706
  428MOL0     C57712  10.784   1.905   3.122 -0.2487 -0.0051  0.3922
  428MOL0     H57713  11.019   1.976   3.603 -1.3536 -2.6817 -1.9422
  428MOL0     H57714  11.272   2.004   3.621  3.4522 -2.6162 -2.5145
  428MOL0     H57715  11.469   2.228   3.624 -0.6776 -1.1462 -0.3983
  428MOL0     H57716  11.479   2.048   3.626 -3.0885  1.6259  2.3564
  428MOL0     H57717  11.667   2.239   3.480 -2.6945  0.7064 -1.7302
  428MOL0     H57718  11.662   2.073   3.446 -1.7340  1.2643 -0.7711
  428MOL0     H57719  11.704   2.045   3.715 -0.0295 -0.5232 -0.6841
  428MOL0     H57720  11.731   2.205   3.721 -1.0805 -1.4562  0.3798
  428MOL0     H57721  11.893   2.032   3.526  2.6022 -0.0461 -0.1431
  428MOL0     H57722  11.921   2.199   3.561  2.5956 -0.9744 -0.4031
  428MOL0     H57723  11.931   1.988   3.769 -2.9956 -1.6557 -3.0632
  428MOL0     H57724  12.069   2.032   3.664 -0.2285  2.4985 -1.1431
  428MOL0     H57725  11.930   2.232   3.843 -0.8532 -1.1486  0.1797
  428MOL0     H57726  12.063   2.135   3.896  2.1113  3.2201  1.3100
  428MOL0     H57727  12.069   2.335   3.671  0.7856  2.2803  0.4204
  428MOL0     H57728  12.205   2.221   3.684 -1.9208  0.5988 -3.3538
  428MOL0     H57729  12.246   2.430   3.795  0.6286 -1.8834 -2.3951
  428MOL0     H57730  12.093   2.404   3.890 -1.9680 -2.6656 -1.5580
  428MOL0     H57731  12.422   2.186   3.846  1.0383 -0.0820 -0.2334
  428MOL0     H57732  12.548   2.108   4.172  2.1714 -1.4873  0.3128
  428MOL0     H57733  12.611   2.116   4.006  0.1449 -4.3942  2.7830
  428MOL0     H57734  12.711   2.330   4.031 -2.9340  0.8261 -0.1690
  428MOL0     H57735  12.644   2.343   4.193  0.8596  2.0300 -0.2484
  428MOL0     H57736  12.848   2.130   4.108 -0.2779 -0.6395  0.6527
  428MOL0     H57737  12.757   2.120   4.264 -0.1363 -2.3612 -2.1694
  428MOL0     H57738  12.976   2.227   4.306  0.7518 -1.6032 -0.2980
  428MOL0     H57739  12.861   2.357   4.321  0.4021  0.5003 -0.1596
  428MOL0     H57740  13.178   2.267   4.285  3.8045 -1.5305  0.4000
  428MOL0     H57741  13.408   2.349   4.252 -0.2066 -0.5634  0.0240
  428MOL0     H57742  13.794   2.365   4.271 -1.3022 -0.5224 -2.2423
  428MOL0     H57743  14.025   2.429   4.276 -1.1147  0.5866  0.8245
  428MOL0     H57744  14.165   2.809   4.028 -0.4256  1.7493  0.4098
  428MOL0     H57745  14.104   2.853   4.190 -0.6274  0.9965 -0.8768
  428MOL0     H57746  14.317   2.841   4.282  0.9210  1.5457 -0.6382
  428MOL0     H57747  14.385   2.737   4.146  2.2323  1.8029 -1.1695
  428MOL0     H57748  14.367   2.939   3.996  3.9064 -2.9386  0.5402
  428MOL0     H57749  14.301   3.038   4.124 -0.0853 -0.3559 -1.1008
  428MOL0     H57750  14.564   2.897   4.126 -1.9875 -1.9285  0.0804
  428MOL0     H57751  14.503   2.980   4.271  0.6431  1.8676 -0.1299
  428MOL0     H57752  14.498   3.204   4.153  0.3994 -0.1936  0.6905
  428MOL0     H57753  14.538   3.125   4.004 -2.7679 -1.0589 -0.1912
  428MOL0     H57754  14.691   3.141   4.263 -1.7062 -0.7161 -0.8196
  428MOL0     H57755  14.753   3.046   4.125  2.0630  0.6263 -0.3976
  428MOL0     H57756  14.703   3.346   4.124  2.0888  0.7920  2.7091
  428MOL0     H57757  14.763   3.254   3.987 -1.7367  0.6227 -0.0056
  428MOL0     H57758  14.910   3.282   4.259  2.6165  0.9427  0.0651
  428MOL0     H57759  14.978   3.228   4.100  1.7232  0.2957  1.1825
  428MOL0     H57760  13.931   2.768   4.019  0.5024 -1.5022 -0.6988
  428MOL0     H57761  13.706   2.704   4.027  1.7264 -0.0750 -2.6146
  428MOL0     H57762  13.263   2.580   3.915  0.8466 -0.7506 -0.5419
  428MOL0     H57763  13.047   2.508   3.967 -0.4838 -0.5847  0.5772
  428MOL0     H57764  11.279   2.217   3.252  2.7044  0.4922  1.9500
  428MOL0     H57765  11.042   2.157   3.219  0.5368 -0.8528  0.2368
  428MOL0     H57766  10.563   1.925   3.541 -0.6375  0.1208 -0.7342
  428MOL0     H57767  10.381   1.794   3.475 -0.7025 -2.7420 -1.2472
  428MOL0     H57768  10.223   1.542   3.237 -1.2498 -0.6542  2.7743
  428MOL0     H57769  10.294   1.597   3.384 -3.5347  3.0120 -1.2119
  428MOL0     H57770  10.528   1.537   3.295  0.9466 -1.0876  0.7469
  428MOL0     H57771  10.448   1.459   3.162 -0.1280 -0.6002  0.7908
  428MOL0     H57772  10.350   1.291   3.312  1.9104 -1.6807  2.0994
  428MOL0     H57773  10.373   1.395   3.448  1.9589  2.0366 -0.0331
  428MOL0     H57774  10.526   1.210   3.427 -0.4322  0.3661 -0.4722
  428MOL0     H57775  10.603   1.283   3.290 -2.3807  2.7892 -1.6613
  428MOL0     H57776  10.781   1.527   3.583 -0.7028 -0.6228  1.1338
  428MOL0     H57777  10.578   1.767   3.091 -0.5876 -0.6069  0.6579
  428MOL0     H57778  10.753   1.998   3.074 -2.4966  0.1480  2.0399
  428MOL0     H57779  10.889   1.916   3.152 -0.4623 -0.4685  1.3546
  428MOL0     H57780  10.787   1.833   3.040  0.2142  2.1579 -1.5861
  429MOL0     O57781   9.484   6.620   6.181 -0.3817  0.0362 -0.6147
  429MOL0     C57782   9.419   6.677   6.271  0.8437  0.0428 -0.1883
  429MOL0     O57783   9.437   6.666   6.400 -0.7899 -0.0367 -0.4760
  429MOL0     C57784   9.542   6.583   6.442 -0.0505 -0.4434 -0.6386
  429MOL0     C57785   9.667   6.634   6.476 -0.3423  0.9707 -1.2089
  429MOL0     C57786   9.761   6.559   6.547  0.8087  0.1624 -0.0936
  429MOL0     C57787   9.740   6.425   6.566  0.6823 -0.0220  1.1833
  429MOL0     O57788   9.835   6.348   6.604 -0.5992  0.5265 -0.1137
  429MOL0     C57789   9.934   6.409   6.688 -0.5173  1.1649  0.1304
  429MOL0     C57790  10.041   6.309   6.733 -0.0529 -0.1989  0.7130
  429MOL0     C57791  10.007   6.185   6.810  0.4716 -1.0306 -0.2001
  429MOL0     C57792   9.896   6.221   6.911 -0.3686 -1.0561  0.2763
  429MOL0     C57793   9.867   6.103   7.006 -0.2759  0.4702  0.4961
  429MOL0     C57794   9.772   6.148   7.110  0.2244  0.4816  0.8401
  429MOL0     C57795   9.728   6.023   7.195  0.1417  0.7439  0.2331
  429MOL0     C57796   9.807   6.013   7.324  0.2691  0.5537  0.6677
  429MOL0     N57797   9.734   6.081   7.434 -0.5058 -0.8109 -0.4599
  429MOL0     C57798   9.641   6.186   7.422 -0.1048  0.2095  0.5222
  429MOL0     C57799   9.601   6.218   7.548  0.4587  0.3330 -0.3302
  429MOL0     C57800   9.512   6.332   7.599  0.1864  0.0206  0.5113
  429MOL0     C57801   9.529   6.470   7.536  0.0394 -0.1520 -0.1933
  429MOL0     C57802   9.453   6.485   7.410  0.8314 -0.1669  0.9503
  429MOL0     C57803   9.542   6.558   7.298 -0.3696 -0.0171 -1.0273
  429MOL0     O57804   9.658   6.483   7.265 -0.0023  0.5307 -0.5008
  429MOL0     C57805   9.742   6.534   7.168  1.2934  0.0764 -0.1728
  429MOL0     C57806   9.707   6.642   7.080 -0.2148 -0.1586  0.6159
  429MOL0     C57807   9.804   6.687   6.991 -0.7284  1.0268 -0.8269
  429MOL0     C57808   9.938   6.639   6.995  0.7456  1.2526  0.0311
  429MOL0     C57809  10.045   6.699   6.910 -0.8804  0.1673 -0.7464
  429MOL0     O57810  10.178   6.688   6.955 -0.1333 -0.4946 -0.1660
  429MOL0     C57811  10.287   6.710   6.874  0.1109 -0.5068  0.0940
  429MOL0     C57812  10.404   6.690   6.941 -0.0485 -0.5247 -0.2012
  429MOL0     C57813  10.525   6.683   6.869  0.4108 -0.0370  0.7501
  429MOL0     C57814  10.533   6.700   6.728 -0.4394  0.3443  0.4230
  429MOL0     O57815  10.648   6.693   6.647 -0.4371  0.0753  0.9930
  429MOL0     C57816  10.775   6.649   6.714 -0.4224  0.2605  0.3943
  429MOL0     C57817  10.893   6.650   6.617  1.4494 -0.3758  0.2546
  429MOL0     C57818  10.885   6.545   6.506  1.0046 -0.7543 -0.7339
  429MOL0     C57819  10.812   6.585   6.384 -0.1993 -0.6951 -0.3620
  429MOL0     C57820  10.809   6.464   6.296  0.8017 -0.2037  0.5216
  429MOL0     C57821  10.754   6.500   6.154 -0.0989 -0.4317  0.2421
  429MOL0     C57822  10.783   6.381   6.051 -0.1680 -0.4845 -0.6856
  429MOL0     C57823  10.740   6.432   5.915 -0.4171 -1.3903 -0.2573
  429MOL0    Cl57824  10.845   6.577   5.871  0.2857 -0.3717  0.0365
  429MOL0     C57825  10.413   6.710   6.654  0.5958 -0.1287 -0.2512
  429MOL0     C57826  10.290   6.714   6.733  0.2479 -0.0976 -0.0517
  429MOL0     O57827  10.009   6.752   6.808  0.6722 -0.1838  0.1694
  429MOL0     C57828   9.974   6.538   7.083  0.6120  0.2713  0.8081
  429MOL0     C57829   9.877   6.493   7.166  0.5819  0.0639 -0.2710
  429MOL0     N57830   9.667   6.129   7.631  0.3211  0.9023  0.5374
  429MOL0     N57831   9.735   6.045   7.561 -0.2329 -0.1918  0.1828
  429MOL0     C57832   9.616   6.370   6.525 -0.6619 -0.4369 -0.5004
  429MOL0     C57833   9.514   6.458   6.482  0.5874 -0.0109  0.3779
  429MOL0     C57834   9.295   6.738   6.224 -0.4635  0.7128 -0.5838
  429MOL0     C57835   9.192   6.666   6.157  0.9679  0.0546  0.1389
  429MOL0     C57836   9.077   6.734   6.108 -0.4648  0.6172 -0.6265
  429MOL0     C57837   9.067   6.869   6.122  0.7485  1.4102 -0.2908
  429MOL0     O57838   8.954   6.925   6.067 -0.0676 -0.2989  0.3738
  429MOL0     C57839   8.936   7.067   6.036  0.2878 -0.6471  0.0249
  429MOL0     C57840   8.806   7.099   5.944 -1.1415  0.0936 -0.0100
  429MOL0     C57841   8.793   7.254   5.927  0.7589 -0.0441 -0.2476
  429MOL0     C57842   8.676   7.309   5.837 -0.2549  0.0057 -0.8553
  429MOL0     C57843   8.703   7.453   5.825 -0.4922 -0.1545  0.2646
  429MOL0     C57844   8.721   7.573   5.819 -0.0158  0.2735  0.5201
  429MOL0     C57845   9.157   6.941   6.184 -0.2901  0.1058 -0.7532
  429MOL0     C57846   9.275   6.882   6.239  0.4778  0.3336  0.1302
  429MOL0     C57847   9.389   6.969   6.292 -0.0491 -0.4378 -0.3607
  429MOL0     H57848   9.677   6.741   6.459 -2.6486  1.0549 -2.3331
  429MOL0     H57849   9.847   6.609   6.590  1.2378 -2.1570  1.9513
  429MOL0     H57850   9.993   6.487   6.640  2.4239 -1.4684 -0.8621
  429MOL0     H57851   9.884   6.452   6.775 -0.0038 -1.5530  1.9086
  429MOL0     H57852  10.108   6.370   6.793 -3.1794  2.4868  1.7776
  429MOL0     H57853  10.090   6.281   6.639  0.3234  0.4219  0.7259
  429MOL0     H57854  10.089   6.140   6.868  1.0686 -1.0220 -1.0160
  429MOL0     H57855   9.981   6.110   6.736  1.7719 -4.5226  2.5901
  429MOL0     H57856   9.924   6.309   6.969  0.2594 -1.7822  1.0968
  429MOL0     H57857   9.815   6.246   6.841 -0.0121  1.5209  0.6697
  429MOL0     H57858   9.830   6.018   6.948  1.4569 -0.5157  0.7798
  429MOL0     H57859   9.955   6.066   7.059 -0.7719 -1.1024  0.2868
  429MOL0     H57860   9.821   6.216   7.181  2.6251 -0.4866  0.1998
  429MOL0     H57861   9.680   6.184   7.062  0.6841  0.0861 -0.3561
  429MOL0     H57862   9.752   5.924   7.154 -2.4663 -0.3838  1.2290
  429MOL0     H57863   9.619   6.030   7.203  0.1020  2.3596 -1.0966
  429MOL0     H57864   9.798   5.909   7.357 -1.4095 -0.0331 -1.3699
  429MOL0     H57865   9.911   6.047   7.321 -0.2311  2.0798 -0.5504
  429MOL0     H57866   9.594   6.226   7.332 -0.6438 -0.1834  0.6273
  429MOL0     H57867   9.409   6.296   7.590  0.5277 -0.7372 -0.5268
  429MOL0     H57868   9.535   6.345   7.705  1.3479  0.9495  0.1630
  429MOL0     H57869   9.485   6.552   7.594 -0.5601 -2.0316  2.1555
  429MOL0     H57870   9.635   6.490   7.517 -0.4620  1.5164 -1.4682
  429MOL0     H57871   9.362   6.541   7.432  0.6899 -0.8371  2.1518
  429MOL0     H57872   9.434   6.386   7.367  2.2531 -0.2666  0.4783
  429MOL0     H57873   9.577   6.656   7.333 -1.4425 -0.0904  0.3406
  429MOL0     H57874   9.476   6.578   7.213 -0.0469  0.9352 -1.0719
  429MOL0     H57875   9.605   6.680   7.079 -0.5066 -0.9258 -0.3186
  429MOL0     H57876   9.791   6.770   6.922 -1.3864 -0.0902 -2.0897
  429MOL0     H57877  10.412   6.681   7.049  1.7138  2.6221  0.0494
  429MOL0     H57878  10.620   6.674   6.920  1.1589 -0.0487 -0.5856
  429MOL0     H57879  10.812   6.711   6.796  3.8931 -0.8853 -0.4553
  429MOL0     H57880  10.764   6.550   6.759 -3.7751  0.2620 -0.1672
  429MOL0     H57881  10.903   6.752   6.578  0.6371 -0.0392  0.8838
  429MOL0     H57882  10.986   6.640   6.674  1.0936  0.8237  1.0941
  429MOL0     H57883  10.990   6.534   6.479  1.4269 -0.1038  0.5644
  429MOL0     H57884  10.846   6.451   6.547  0.3677  0.0097  0.4794
  429MOL0     H57885  10.867   6.669   6.341 -0.7458  1.2678  2.4965
  429MOL0     H57886  10.710   6.615   6.409 -0.6120 -2.0899 -0.3003
  429MOL0     H57887  10.741   6.393   6.345  0.8006  0.3785  1.3852
  429MOL0     H57888  10.904   6.412   6.282 -0.1463 -1.5724 -1.1539
  429MOL0     H57889  10.651   6.534   6.164  0.5695  1.3898  1.6957
  429MOL0     H57890  10.816   6.581   6.113  1.1790 -1.9262 -0.8816
  429MOL0     H57891  10.729   6.290   6.075  1.4349 -1.2437  0.1411
  429MOL0     H57892  10.890   6.359   6.062  0.1085  1.8153  2.9014
  429MOL0     H57893  10.740   6.353   5.839  0.9020 -2.1514  0.5061
  429MOL0     H57894  10.634   6.459   5.921 -0.6762 -1.3920 -3.3102
  429MOL0     H57895  10.410   6.715   6.546  0.7423 -1.7855 -0.3582
  429MOL0     H57896  10.194   6.744   6.690 -1.2107  3.1964  4.6790
  429MOL0     H57897  10.069   6.486   7.078  1.2473  1.4414  0.4641
  429MOL0     H57898   9.901   6.413   7.236  0.3777 -0.0843 -0.3707
  429MOL0     H57899   9.587   6.268   6.549 -1.6998 -0.0245  0.0865
  429MOL0     H57900   9.423   6.404   6.457  1.8215 -1.8872 -0.2926
  429MOL0     H57901   9.214   6.563   6.132  1.1205  0.4453 -1.4528
  429MOL0     H57902   9.005   6.677   6.050  0.1402  0.7156 -1.4922
  429MOL0     H57903   9.024   7.103   5.982  1.4521 -1.9030  1.0215
  429MOL0     H57904   8.921   7.130   6.125 -2.5825 -0.8686 -0.2109
  429MOL0     H57905   8.719   7.053   5.992 -1.8279 -2.1460 -3.1281
  429MOL0     H57906   8.819   7.058   5.844 -0.0319 -0.1945  0.2351
  429MOL0     H57907   8.886   7.297   5.890  1.1605 -0.3903  0.3461
  429MOL0     H57908   8.768   7.288   6.028 -1.8547 -1.4345 -0.3136
  429MOL0     H57909   8.695   7.265   5.738  1.6747 -1.2413  0.0156
  429MOL0     H57910   8.573   7.297   5.873 -0.0683  1.1407  0.1079
  429MOL0     H57911   8.732   7.678   5.801 -1.0127 -0.0116 -2.3081
  429MOL0     H57912   9.136   7.047   6.186  0.0336  0.1639  1.0405
  429MOL0     H57913   9.367   6.990   6.397 -1.3185 -1.8827 -0.3019
  429MOL0     H57914   9.488   6.926   6.283  1.2096  1.6757  2.0771
  429MOL0     H57915   9.396   7.064   6.237 -1.0636 -0.5671 -0.7383
  430MOL0     O57916   1.100   2.959   5.371  0.2356 -0.4349 -0.2273
  430MOL0     C57917   1.011   2.903   5.430  0.2479  0.5569  0.4477
  430MOL0     O57918   1.024   2.826   5.548 -0.6966  0.5200 -0.5184
  430MOL0     C57919   1.149   2.799   5.607 -0.0835  0.5632  1.4184
  430MOL0     C57920   1.165   2.806   5.744 -0.3384 -0.1624 -0.6097
  430MOL0     C57921   1.288   2.791   5.800  1.4954  0.0458  0.3227
  430MOL0     C57922   1.400   2.781   5.716  0.2986 -0.1452 -0.2123
  430MOL0     O57923   1.527   2.762   5.775 -0.6866 -0.6575  0.3787
  430MOL0     C57924   1.560   2.806   5.906 -0.7308  0.1497  0.1737
  430MOL0     C57925   1.550   2.962   5.919 -0.4933  0.2616 -0.3937
  430MOL0     C57926   1.580   3.015   6.056 -0.3685 -0.5726  0.3920
  430MOL0     C57927   1.733   3.021   6.086  0.3405 -0.2546  0.6131
  430MOL0     C57928   1.756   3.080   6.226 -0.6146  0.2039 -0.0361
  430MOL0     C57929   1.757   3.233   6.217 -0.9247  0.1945  0.1153
  430MOL0     C57930   1.805   3.293   6.351 -0.2780 -0.0042 -0.0791
  430MOL0     C57931   1.689   3.336   6.443  0.3491  0.4543  0.8528
  430MOL0     N57932   1.622   3.468   6.393 -0.3482 -0.4713 -0.4586
  430MOL0     C57933   1.538   3.494   6.287  0.5951  0.6723 -0.2785
  430MOL0     C57934   1.490   3.618   6.306  0.5930  0.6106 -0.6033
  430MOL0     C57935   1.374   3.676   6.224  1.8682  0.0717 -0.2172
  430MOL0     C57936   1.244   3.681   6.307 -1.5602  0.1949  1.0898
  430MOL0     C57937   1.236   3.814   6.373 -0.6473  1.4356 -0.7780
  430MOL0     C57938   1.211   3.938   6.292 -0.5102  0.2055  0.0576
  430MOL0     O57939   1.205   4.050   6.385  0.1986  0.3444 -0.5728
  430MOL0     C57940   1.290   4.156   6.377 -0.1563  0.6643 -0.1637
  430MOL0     C57941   1.395   4.175   6.288 -0.5909  0.3927 -0.1587
  430MOL0     C57942   1.470   4.295   6.301  0.1199  0.3817  0.5029
  430MOL0     C57943   1.444   4.386   6.398  0.3005 -0.4498 -0.3056
  430MOL0     C57944   1.536   4.508   6.406  0.4435  0.2769 -0.2113
  430MOL0     O57945   1.502   4.589   6.512 -0.3017  0.1244 -0.8191
  430MOL0     C57946   1.560   4.718   6.512  0.1325 -0.2400 -0.6634
  430MOL0     C57947   1.484   4.825   6.458 -0.6937 -0.2380 -0.5053
  430MOL0     C57948   1.535   4.953   6.462 -0.6849  0.3168  0.5791
  430MOL0     C57949   1.662   4.981   6.514 -0.4281  0.5309  0.9412
  430MOL0     O57950   1.715   5.107   6.513 -0.0287  0.4545  0.0245
  430MOL0     C57951   1.863   5.135   6.503  0.3473 -0.0040  0.6266
  430MOL0     C57952   1.922   5.095   6.367 -0.8062  0.0860  0.2853
  430MOL0     C57953   2.071   5.092   6.372  0.0216 -0.1690 -0.2643
  430MOL0     C57954   2.130   5.053   6.237 -0.0942 -0.0214 -0.8541
  430MOL0     C57955   2.285   5.061   6.209  0.3434 -0.3458  0.0663
  430MOL0     C57956   2.358   4.990   6.316 -0.0713  0.1203 -0.2044
  430MOL0     C57957   2.317   4.838   6.310 -0.1919  0.5993 -0.2333
  430MOL0     C57958   2.392   4.758   6.418  0.1354  0.3421  0.3329
  430MOL0    Cl57959   2.381   4.582   6.392  0.4451  0.2899 -0.8243
  430MOL0     C57960   1.733   4.872   6.565 -0.1738  0.3160  0.3091
  430MOL0     C57961   1.688   4.746   6.561  0.1358 -0.1386  0.2968
  430MOL0     O57962   1.616   4.538   6.312 -0.2954  0.2848 -0.5040
  430MOL0     C57963   1.332   4.369   6.490 -0.4470 -0.1918  0.2523
  430MOL0     C57964   1.260   4.254   6.469 -0.6403 -0.1331 -0.6353
  430MOL0     N57965   1.548   3.667   6.428  0.2432 -0.2542 -0.3728
  430MOL0     N57966   1.628   3.582   6.474 -1.3494  0.2451 -0.8240
  430MOL0     C57967   1.386   2.756   5.585  0.2852 -0.0329  1.1497
  430MOL0     C57968   1.259   2.759   5.527  0.0592 -0.0403 -0.4914
  430MOL0     C57969   0.874   2.906   5.379  0.5557  0.2294  0.5248
  430MOL0     C57970   0.776   2.825   5.444  0.2911  0.2570  0.6633
  430MOL0     C57971   0.639   2.849   5.428 -0.8362  0.6459  0.3583
  430MOL0     C57972   0.586   2.942   5.334  0.3701  0.4041  0.9875
  430MOL0     O57973   0.450   2.948   5.339 -0.1938 -0.7714  0.6424
  430MOL0     C57974   0.385   3.067   5.287 -0.2745  0.3777  0.4638
  430MOL0     C57975   0.394   3.062   5.137  0.1778  0.2961  0.0435
  430MOL0     C57976   0.384   3.196   5.066 -0.3945  0.2563  0.6516
  430MOL0     C57977   0.276   3.289   5.130 -0.0362 -0.8585  0.4400
  430MOL0     C57978   0.140   3.243   5.109  0.1131 -0.1432 -0.1947
  430MOL0     C57979   0.025   3.210   5.095  0.3517  0.3786 -0.7058
  430MOL0     C57980   0.686   3.015   5.266  0.0330 -0.2616  0.0090
  430MOL0     C57981   0.828   2.996   5.285  0.1047  0.4270 -0.3449
  430MOL0     C57982   0.923   3.080   5.201 -0.0572  0.3306  0.6049
  430MOL0     H57983   1.077   2.823   5.806  1.1461  0.0642  1.5398
  430MOL0     H57984   1.296   2.778   5.907 -0.3815  1.3129  0.6841
  430MOL0     H57985   1.499   2.752   5.979 -1.4208  2.7943  1.6906
  430MOL0     H57986   1.663   2.773   5.925  0.5225  1.9969 -2.6933
  430MOL0     H57987   1.449   2.993   5.891  0.3650  0.9596 -2.9797
  430MOL0     H57988   1.611   3.012   5.843  1.4927 -0.4854  0.6299
  430MOL0     H57989   1.510   2.956   6.115 -2.1305  1.0055 -0.0038
  430MOL0     H57990   1.536   3.114   6.069  1.0215 -0.0098  1.0390
  430MOL0     H57991   1.760   2.915   6.089  0.4121 -0.2197  1.6526
  430MOL0     H57992   1.801   3.076   6.021 -0.5221  2.2435  1.6855
  430MOL0     H57993   1.672   3.044   6.287 -0.6477  0.4433  0.0588
  430MOL0     H57994   1.847   3.045   6.275 -1.3959 -1.0420  0.5849
  430MOL0     H57995   1.844   3.259   6.156 -1.2078 -0.4106 -0.5553
  430MOL0     H57996   1.667   3.272   6.169 -1.1448  0.8225  1.0129
  430MOL0     H57997   1.860   3.385   6.327  1.9984 -1.2516  0.1151
  430MOL0     H57998   1.878   3.229   6.400  0.6930 -1.9573 -3.6808
  430MOL0     H57999   1.616   3.256   6.459  0.8567 -0.0533  0.6731
  430MOL0     H58000   1.727   3.355   6.544 -2.8105  2.4561  1.8073
  430MOL0     H58001   1.503   3.428   6.208  1.4642  3.3361 -3.0669
  430MOL0     H58002   1.395   3.778   6.193 -1.5868  0.3921 -2.0783
  430MOL0     H58003   1.365   3.608   6.138  1.8692  0.9924 -0.9621
  430MOL0     H58004   1.159   3.683   6.238  0.2764 -0.9427 -1.3518
  430MOL0     H58005   1.238   3.594   6.372  0.4844 -0.3316  0.6434
  430MOL0     H58006   1.323   3.830   6.438 -0.3120 -0.8950 -0.5719
  430MOL0     H58007   1.155   3.804   6.447 -0.0256  2.2209  0.0353
  430MOL0     H58008   1.115   3.925   6.241 -0.6527 -2.4532  0.8499
  430MOL0     H58009   1.282   3.953   6.211 -0.1337 -0.1479  0.3167
  430MOL0     H58010   1.426   4.106   6.211  0.5279 -0.8036  1.2980
  430MOL0     H58011   1.544   4.314   6.224 -0.2622 -0.1735 -0.0174
  430MOL0     H58012   1.385   4.801   6.421 -0.3842 -0.4665 -1.2057
  430MOL0     H58013   1.477   5.031   6.414 -0.9029  0.8586  1.6959
  430MOL0     H58014   1.873   5.243   6.518 -0.7163  0.2935 -0.5921
  430MOL0     H58015   1.916   5.081   6.581  0.9817 -2.4713 -1.3772
  430MOL0     H58016   1.881   4.996   6.346 -1.4178 -0.2367  2.6797
  430MOL0     H58017   1.888   5.164   6.290 -1.4960  0.0182  0.5186
  430MOL0     H58018   2.114   5.188   6.402  1.8324 -0.5770 -1.3759
  430MOL0     H58019   2.095   5.017   6.448  1.2652  0.4594 -0.0091
  430MOL0     H58020   2.091   5.134   6.176  0.6840  3.6071  3.0246
  430MOL0     H58021   2.081   4.958   6.212  2.3939 -1.9690  0.9972
  430MOL0     H58022   2.306   5.168   6.199  0.1859 -0.2315  0.9162
  430MOL0     H58023   2.292   5.018   6.108  0.2615  0.2117 -0.1785
  430MOL0     H58024   2.467   5.001   6.308  0.3159  1.7044  4.3073
  430MOL0     H58025   2.336   5.046   6.407  1.3866 -0.6854  0.6728
  430MOL0     H58026   2.341   4.801   6.210  1.4116  3.9435 -1.2315
  430MOL0     H58027   2.210   4.814   6.307  0.2790 -2.0752 -3.8380
  430MOL0     H58028   2.501   4.771   6.415  0.1534 -0.0271 -0.8756
  430MOL0     H58029   2.358   4.780   6.520  0.5841 -2.8397  1.2827
  430MOL0     H58030   1.834   4.887   6.601 -0.7937  1.1834  1.8065
  430MOL0     H58031   1.745   4.666   6.608 -0.5767  0.1039  1.6244
  430MOL0     H58032   1.310   4.432   6.577  1.3892  1.4507 -0.3909
  430MOL0     H58033   1.180   4.225   6.535  2.1124  0.2191  3.1647
  430MOL0     H58034   1.472   2.733   5.523  1.6817 -0.8092  3.2685
  430MOL0     H58035   1.247   2.748   5.420 -0.2550  2.9541 -0.8394
  430MOL0     H58036   0.803   2.743   5.511 -2.9755 -2.4812 -1.0479
  430MOL0     H58037   0.568   2.792   5.487  0.9211 -0.0119  1.9509
  430MOL0     H58038   0.427   3.160   5.325 -1.4578  2.0126 -1.9946
  430MOL0     H58039   0.282   3.059   5.322 -0.3423 -0.4925  0.1008
  430MOL0     H58040   0.311   2.993   5.118 -0.2826  0.4654  1.3226
  430MOL0     H58041   0.480   3.007   5.098 -0.1698 -1.8404  2.0959
  430MOL0     H58042   0.354   3.177   4.963  1.7869 -0.3185  0.0619
  430MOL0     H58043   0.478   3.252   5.061 -1.1372  1.4840 -0.3252
  430MOL0     H58044   0.292   3.295   5.238 -1.3768 -2.3106  0.7593
  430MOL0     H58045   0.285   3.386   5.080 -1.3830  0.0364  1.8403
  430MOL0     H58046  -0.081   3.199   5.098  0.2322  1.6303  0.3522
  430MOL0     H58047   0.663   3.088   5.189 -0.6593 -2.2169 -1.7614
  430MOL0     H58048   1.009   3.020   5.171 -0.8796  0.0013 -1.2052
  430MOL0     H58049   0.873   3.113   5.109  1.4171  0.3945 -0.2105
  430MOL0     H58050   0.960   3.172   5.249  1.4383  2.4325 -3.9729
  431MOL0     O58051   2.411  10.312   8.326 -0.7397  0.7756 -0.0080
  431MOL0     C58052   2.362  10.200   8.343 -0.0732  0.0293 -0.0843
  431MOL0     O58053   2.422  10.101   8.411 -0.1550 -0.1169 -0.0431
  431MOL0     C58054   2.552  10.122   8.451  0.3593 -0.5723 -0.9896
  431MOL0     C58055   2.659  10.140   8.364 -0.2328  0.8183  0.1140
  431MOL0     C58056   2.785  10.174   8.421  0.4362  0.3448  0.8552
  431MOL0     C58057   2.809  10.165   8.556  0.3585 -0.2220  0.3352
  431MOL0     O58058   2.927  10.204   8.612 -0.3718  0.3824  0.4751
  431MOL0     C58059   2.987  10.113   8.712 -0.5607 -0.0953  0.8656
  431MOL0     C58060   3.132  10.085   8.663 -0.1027 -0.9591  0.5162
  431MOL0     C58061   3.214  10.216   8.691 -0.4125 -0.3907 -0.1905
  431MOL0     C58062   3.368  10.208   8.668  0.0111 -0.0321 -0.2776
  431MOL0     C58063   3.452  10.336   8.686  0.2084  0.2709 -0.0361
  431MOL0     C58064   3.412  10.464   8.610 -0.9196 -0.3942  0.8409
  431MOL0     C58065   3.379  10.435   8.453  0.8739 -0.4799 -0.5354
  431MOL0     C58066   3.319  10.554   8.391  0.2291  0.7170 -0.6199
  431MOL0     N58067   3.205  10.612   8.470 -0.2525 -0.1668 -0.2453
  431MOL0     C58068   3.094  10.540   8.492  0.4032 -0.1997  0.7072
  431MOL0     C58069   3.011  10.617   8.572  0.0607 -0.0666 -0.5942
  431MOL0     C58070   2.877  10.587   8.635 -0.0624 -0.3976  0.7319
  431MOL0     C58071   2.754  10.625   8.550  0.4729  0.4918 -0.3649
  431MOL0     C58072   2.758  10.538   8.428 -0.2569  0.6054  0.0596
  431MOL0     C58073   2.655  10.574   8.332 -0.6102  0.3386 -0.0829
  431MOL0     O58074   2.536  10.577   8.401  0.5853 -0.2789 -0.2498
  431MOL0     C58075   2.451  10.687   8.382  0.7314 -0.4615  0.0884
  431MOL0     C58076   2.384  10.720   8.265 -0.3681  0.6125 -0.3809
  431MOL0     C58077   2.312  10.832   8.253  0.4125 -0.5933  0.3301
  431MOL0     C58078   2.285  10.916   8.360 -0.0037 -0.8672 -0.3544
  431MOL0     C58079   2.191  11.026   8.342  0.7506  0.4727 -0.0280
  431MOL0     O58080   2.204  11.121   8.434 -0.3940 -0.2920 -0.6143
  431MOL0     C58081   2.118  11.232   8.443 -0.3422  0.3471  0.3510
  431MOL0     C58082   1.981  11.232   8.433 -0.3627 -0.1970  0.2940
  431MOL0     C58083   1.909  11.350   8.433 -0.1788  0.4965 -0.6104
  431MOL0     C58084   1.971  11.470   8.452  0.5042 -0.1246 -0.0758
  431MOL0     O58085   1.887  11.586   8.435 -0.5585  0.3414  0.2070
  431MOL0     C58086   1.958  11.708   8.413  0.2701 -0.0667  0.4341
  431MOL0     C58087   1.870  11.805   8.341 -0.5782 -0.1372 -0.2250
  431MOL0     C58088   1.826  11.745   8.201  0.2176  0.2386  0.6688
  431MOL0     C58089   1.705  11.651   8.199 -0.2061  0.1133 -0.5612
  431MOL0     C58090   1.621  11.665   8.068 -0.6148 -0.2306 -0.1665
  431MOL0     C58091   1.486  11.589   8.071  0.2830  0.4611  0.4236
  431MOL0     C58092   1.496  11.448   8.109  0.2679  0.4966  0.1331
  431MOL0     C58093   1.373  11.363   8.052 -0.1255 -1.0461  0.8297
  431MOL0    Cl58094   1.226  11.428   8.124  0.3172 -0.2538  0.3912
  431MOL0     C58095   2.114  11.468   8.474 -0.3775 -0.3940 -0.2177
  431MOL0     C58096   2.187  11.349   8.474 -0.2884 -0.4784 -0.7355
  431MOL0     O58097   2.095  11.014   8.274  0.3575  0.3331 -0.4496
  431MOL0     C58098   2.349  10.893   8.484 -0.5925 -0.3257  0.4560
  431MOL0     C58099   2.428  10.772   8.494 -0.2069 -0.1250  0.1772
  431MOL0     N58100   3.081  10.730   8.598 -0.4426  0.6040  0.5569
  431MOL0     N58101   3.193  10.733   8.531 -0.9662  0.4561  0.1675
  431MOL0     C58102   2.707  10.120   8.641  0.3755 -0.0468  0.4433
  431MOL0     C58103   2.577  10.111   8.589  0.6775  0.8120  0.2343
  431MOL0     C58104   2.213  10.170   8.309 -0.4719 -0.0961  0.1550
  431MOL0     C58105   2.169  10.043   8.265  0.6250 -0.7972  0.2077
  431MOL0     C58106   2.031  10.017   8.237 -0.1359  0.1835 -0.4843
  431MOL0     C58107   1.934  10.115   8.263 -0.0913 -0.9586 -0.2855
  431MOL0     O58108   1.797  10.084   8.242 -0.3689 -0.0984 -0.5265
  431MOL0     C58109   1.700  10.177   8.293 -0.5996  0.5892 -0.5579
  431MOL0     C58110   1.573  10.092   8.297  0.7493 -0.3209 -0.0989
  431MOL0     C58111   1.442  10.171   8.302  0.7726  0.4073  0.5144
  431MOL0     C58112   1.406  10.253   8.187 -0.9649 -0.2369  0.2191
  431MOL0     C58113   1.294  10.344   8.199 -0.3965 -0.7447 -0.4565
  431MOL0     C58114   1.200  10.424   8.209  0.3816 -0.2397  0.0666
  431MOL0     C58115   1.977  10.239   8.311  0.0202 -0.0163  0.3952
  431MOL0     C58116   2.111  10.275   8.329 -0.4255  0.8348  0.4820
  431MOL0     C58117   2.149  10.414   8.369 -0.4888 -0.8700  0.7181
  431MOL0     H58118   2.641  10.149   8.258 -1.7743  2.6285  0.4620
  431MOL0     H58119   2.876  10.181   8.361  0.0894 -0.9058  0.1408
  431MOL0     H58120   2.988  10.167   8.807 -0.4331 -1.8838  1.9395
  431MOL0     H58121   2.945  10.012   8.725  3.7773 -2.6041 -1.9698
  431MOL0     H58122   3.126  10.058   8.558 -0.2295  0.8923 -0.0012
  431MOL0     H58123   3.160   9.995   8.718 -2.5993 -1.1932  1.5331
  431MOL0     H58124   3.207  10.250   8.795  0.1232 -0.2625 -0.1921
  431MOL0     H58125   3.172  10.293   8.626 -3.8645 -0.8258  1.2958
  431MOL0     H58126   3.414  10.131   8.730  0.2697 -3.3637 -4.2498
  431MOL0     H58127   3.387  10.166   8.569  1.8632  1.9430 -0.8386
  431MOL0     H58128   3.450  10.360   8.793  2.5151  1.0621 -0.1066
  431MOL0     H58129   3.555  10.304   8.664  1.4070  4.2055 -0.9970
  431MOL0     H58130   3.328  10.508   8.664 -0.3334 -0.9643  2.2747
  431MOL0     H58131   3.490  10.540   8.624 -2.5377  1.6071 -0.3952
  431MOL0     H58132   3.304  10.357   8.434 -2.6776  1.7795  2.6702
  431MOL0     H58133   3.471  10.408   8.401  0.1071  3.4362 -4.5086
  431MOL0     H58134   3.404  10.623   8.389 -0.0787  1.1250  0.0470
  431MOL0     H58135   3.307  10.523   8.287 -0.0419  0.3475 -0.4796
  431MOL0     H58136   3.067  10.441   8.456 -1.8705 -0.8431  3.7784
  431MOL0     H58137   2.884  10.480   8.653  0.5944 -0.3152  1.0172
  431MOL0     H58138   2.877  10.634   8.734  0.1000 -1.3518  1.1878
  431MOL0     H58139   2.673  10.606   8.621  1.5569 -2.0914  0.3450
  431MOL0     H58140   2.760  10.731   8.528 -0.6336  0.3473 -1.4500
  431MOL0     H58141   2.746  10.435   8.462 -0.3609  0.9459  1.0668
  431MOL0     H58142   2.855  10.545   8.377 -0.5220  2.2561 -0.2675
  431MOL0     H58143   2.668  10.511   8.244  0.2506 -1.0409  1.0059
  431MOL0     H58144   2.685  10.674   8.299 -0.2507  1.4171  3.1326
  431MOL0     H58145   2.410  10.655   8.182  1.7656  1.7354 -0.6540
  431MOL0     H58146   2.281  10.852   8.151 -1.6368  0.9174  1.1746
  431MOL0     H58147   1.936  11.140   8.398  4.1960 -2.9010  0.7257
  431MOL0     H58148   1.803  11.348   8.409 -0.0242 -1.0482 -1.3001
  431MOL0     H58149   1.990  11.763   8.503 -0.3922 -1.1994  1.3848
  431MOL0     H58150   2.048  11.682   8.356 -0.1991 -3.5867  1.0840
  431MOL0     H58151   1.784  11.827   8.405  0.4043 -0.2156  1.1600
  431MOL0     H58152   1.918  11.903   8.333 -3.0917  1.2828  0.8219
  431MOL0     H58153   1.808  11.823   8.127 -0.1509  0.2911  0.8126
  431MOL0     H58154   1.909  11.688   8.156  0.9529  1.9829 -0.2733
  431MOL0     H58155   1.647  11.689   8.283  1.2906  0.8005  0.1918
  431MOL0     H58156   1.743  11.550   8.216  0.4192  0.3241 -0.7070
  431MOL0     H58157   1.691  11.646   7.986  2.0150  0.6945  1.7351
  431MOL0     H58158   1.589  11.767   8.045  2.1700  0.6065 -0.7348
  431MOL0     H58159   1.428  11.638   8.149  2.5175  1.5320  1.4969
  431MOL0     H58160   1.450  11.600   7.968  0.9285 -2.0265 -0.1406
  431MOL0     H58161   1.500  11.441   8.218  0.0805 -0.9691  0.0657
  431MOL0     H58162   1.589  11.404   8.074  1.0658  2.1131  0.1211
  431MOL0     H58163   1.370  11.370   7.942 -0.3375 -2.7294  0.7024
  431MOL0     H58164   1.384  11.257   8.075 -0.7123 -0.5712  3.5765
  431MOL0     H58165   2.174  11.557   8.491 -3.1498  2.1698 -2.5865
  431MOL0     H58166   2.295  11.338   8.481 -0.3871 -3.0249 -2.2326
  431MOL0     H58167   2.353  10.969   8.560  0.0143 -0.6790  0.7816
  431MOL0     H58168   2.470  10.734   8.586  1.1888  1.3641  0.2029
  431MOL0     H58169   2.717  10.111   8.749  0.9069 -0.8952  0.3389
  431MOL0     H58170   2.495  10.087   8.657 -1.7338  1.1807 -2.3826
  431MOL0     H58171   2.245   9.965   8.264  0.3519 -1.0652 -0.1468
  431MOL0     H58172   2.017   9.916   8.199  1.8032  0.4186 -1.9729
  431MOL0     H58173   1.685  10.254   8.217  0.4930  0.3385 -1.0542
  431MOL0     H58174   1.719  10.215   8.394  0.8291  1.0671 -0.9841
  431MOL0     H58175   1.590  10.023   8.380  0.9775 -3.2158 -2.3903
  431MOL0     H58176   1.566  10.028   8.208 -1.5086 -2.8836  1.7356
  431MOL0     H58177   1.440  10.248   8.380 -1.1099  0.6855  0.2477
  431MOL0     H58178   1.363  10.100   8.330  1.3147  0.3359  1.9250
  431MOL0     H58179   1.495  10.313   8.166 -0.6174  0.3224  2.9351
  431MOL0     H58180   1.380  10.206   8.092 -3.1204  1.7791 -0.2550
  431MOL0     H58181   1.127  10.502   8.212  0.4537 -0.1675 -0.0215
  431MOL0     H58182   1.903  10.314   8.335 -1.9814 -2.1050  1.0355
  431MOL0     H58183   2.203  10.420   8.464  4.5113 -3.5041 -1.5793
  431MOL0     H58184   2.220  10.450   8.294 -0.1710  1.2424  1.9627
  431MOL0     H58185   2.063  10.481   8.372 -0.5936 -0.7369 -2.2001
  432MOL0     O58186   3.790   2.337   6.768  0.0508 -0.1284  0.3907
  432MOL0     C58187   3.761   2.265   6.668 -0.5645 -0.4024  0.2521
  432MOL0     O58188   3.847   2.227   6.575  0.5718 -0.0715 -0.0716
  432MOL0     C58189   3.972   2.278   6.585 -1.0742  1.0409 -0.0125
  432MOL0     C58190   4.087   2.188   6.600 -0.7361 -0.6298 -0.6353
  432MOL0     C58191   4.216   2.236   6.590 -0.5211  0.1746  0.6460
  432MOL0     C58192   4.237   2.377   6.556 -0.1009 -0.0162  0.7439
  432MOL0     O58193   4.360   2.441   6.539  0.7004  0.5706  0.0051
  432MOL0     C58194   4.451   2.428   6.652  0.3369  0.0309 -0.6701
  432MOL0     C58195   4.565   2.529   6.644 -0.2004  0.2265 -1.1130
  432MOL0     C58196   4.626   2.533   6.794  0.5073 -0.7457  0.2686
  432MOL0     C58197   4.741   2.633   6.804 -0.0871 -0.2694 -0.1595
  432MOL0     C58198   4.709   2.765   6.742  1.7536 -0.2580 -0.3173
  432MOL0     C58199   4.819   2.862   6.790  0.0850 -0.5821  0.1969
  432MOL0     C58200   4.804   3.005   6.732  0.9815  0.4678 -0.0269
  432MOL0     C58201   4.683   3.080   6.790 -0.0521  0.6334  0.3608
  432MOL0     N58202   4.670   3.070   6.931  1.5554 -0.0397  0.0280
  432MOL0     C58203   4.701   3.175   7.016 -0.6305 -0.4872 -0.2295
  432MOL0     C58204   4.640   3.133   7.134  0.3649 -0.3649 -0.3029
  432MOL0     C58205   4.647   3.210   7.261 -0.5481  0.0417  0.1934
  432MOL0     C58206   4.713   3.150   7.386 -0.1610  0.5075  0.0025
  432MOL0     C58207   4.709   2.986   7.392  1.3660 -0.3949  0.4787
  432MOL0     C58208   4.775   2.940   7.530 -1.1741 -0.3169 -0.5336
  432MOL0     O58209   4.907   2.997   7.555 -0.0878 -0.2546  0.4580
  432MOL0     C58210   5.019   2.952   7.480  0.3700 -0.3522 -0.3821
  432MOL0     C58211   5.020   2.826   7.430 -0.2805 -0.2727 -0.2900
  432MOL0     C58212   5.131   2.771   7.370 -1.2815 -0.1260 -0.3782
  432MOL0     C58213   5.258   2.844   7.374  0.4077  0.4371  0.5739
  432MOL0     C58214   5.374   2.791   7.303  0.0397  0.9391 -0.3468
  432MOL0     O58215   5.464   2.867   7.250 -0.0082 -0.6927  0.0970
  432MOL0     C58216   5.546   2.821   7.149 -0.4791  1.0088  0.2258
  432MOL0     C58217   5.671   2.760   7.179 -0.1460  0.3350  0.2388
  432MOL0     C58218   5.731   2.692   7.075 -0.0188  0.0755 -1.0763
  432MOL0     C58219   5.684   2.687   6.945  0.2833 -0.7422  0.0398
  432MOL0     O58220   5.749   2.609   6.857 -0.7224 -0.0068 -0.2443
  432MOL0     C58221   5.805   2.664   6.738  0.3028  0.4724  0.2920
  432MOL0     C58222   5.855   2.551   6.654  0.2776  0.7680 -0.4618
  432MOL0     C58223   5.925   2.598   6.527  0.1309 -0.6060 -1.2844
  432MOL0     C58224   5.949   2.493   6.427  0.5132 -0.6832 -0.1087
  432MOL0     C58225   6.080   2.498   6.356 -0.4007 -0.0901  0.4924
  432MOL0     C58226   6.078   2.378   6.264 -0.2470 -0.2638 -0.1578
  432MOL0     C58227   6.216   2.351   6.194  0.1318  0.6534 -0.0404
  432MOL0     C58228   6.241   2.447   6.067  0.0256  0.8670  1.0941
  432MOL0    Cl58229   6.396   2.386   6.015  0.0836 -0.0402  0.4342
  432MOL0     C58230   5.565   2.752   6.914  0.5860  0.7326  0.6739
  432MOL0     C58231   5.496   2.823   7.019 -0.8897  0.2533  0.6166
  432MOL0     O58232   5.369   2.666   7.283 -0.9731 -0.5990 -0.0928
  432MOL0     C58233   5.255   2.971   7.422  0.3507  0.5110 -0.3747
  432MOL0     C58234   5.133   3.025   7.472 -0.1701 -1.2394 -0.2101
  432MOL0     N58235   4.576   3.010   7.107  0.0007 -0.8092  0.0544
  432MOL0     N58236   4.592   2.979   6.990 -0.7021 -0.1318  0.5801
  432MOL0     C58237   4.130   2.455   6.529 -0.3307  0.1773  0.3763
  432MOL0     C58238   3.999   2.409   6.538 -0.2999  0.1879 -0.5301
  432MOL0     C58239   3.625   2.210   6.646  0.1225 -0.9879 -0.0416
  432MOL0     C58240   3.522   2.255   6.733 -0.5128  0.4813  0.1503
  432MOL0     C58241   3.389   2.236   6.702  0.4007  0.3191  0.1635
  432MOL0     C58242   3.344   2.150   6.595 -0.5039  0.8535 -0.2236
  432MOL0     O58243   3.212   2.117   6.558  0.1051 -0.7001  0.4143
  432MOL0     C58244   3.100   2.191   6.608 -0.2664 -0.5993 -0.4539
  432MOL0     C58245   3.094   2.332   6.535 -0.0469 -0.1995 -0.0352
  432MOL0     C58246   3.103   2.314   6.393  0.3382  0.6213  0.3676
  432MOL0     C58247   3.093   2.453   6.322 -0.1343  0.3874  0.1313
  432MOL0     C58248   2.955   2.519   6.340 -0.7731  0.0146 -0.6740
  432MOL0     C58249   2.856   2.586   6.364  0.0429 -0.7084  0.2687
  432MOL0     C58250   3.451   2.074   6.533 -0.0380 -1.1823  0.2031
  432MOL0     C58251   3.586   2.101   6.562 -1.1038 -0.4334  1.2016
  432MOL0     C58252   3.688   2.019   6.486  0.2325  0.2804  0.4126
  432MOL0     H58253   4.064   2.091   6.644 -1.3361 -0.7612 -1.2232
  432MOL0     H58254   4.298   2.166   6.603  2.0897  3.0712  0.8914
  432MOL0     H58255   4.393   2.434   6.745  1.4516 -0.9971  0.1268
  432MOL0     H58256   4.494   2.328   6.655  0.5105  0.0647  3.2154
  432MOL0     H58257   4.533   2.629   6.614 -0.3655  1.2615  2.0564
  432MOL0     H58258   4.635   2.505   6.563 -0.4157  1.3545 -1.6469
  432MOL0     H58259   4.650   2.435   6.836 -0.2420 -1.4694 -0.9185
  432MOL0     H58260   4.544   2.580   6.849 -1.1651 -0.9853 -1.8757
  432MOL0     H58261   4.775   2.656   6.906  2.5107 -0.0326 -1.0225
  432MOL0     H58262   4.828   2.595   6.751 -0.6416  1.8017 -2.7285
  432MOL0     H58263   4.720   2.753   6.634  0.2033  1.0782 -0.6589
  432MOL0     H58264   4.606   2.794   6.767  1.4766 -0.9442 -0.6406
  432MOL0     H58265   4.832   2.863   6.898  0.2681  0.3530  0.1734
  432MOL0     H58266   4.913   2.821   6.750  0.9073  1.1423  0.2723
  432MOL0     H58267   4.790   2.992   6.624  3.7016  1.0082 -0.5091
  432MOL0     H58268   4.888   3.074   6.746  0.2287  2.2284 -3.2587
  432MOL0     H58269   4.682   3.181   6.749 -3.0704  1.3770  1.9808
  432MOL0     H58270   4.601   3.034   6.734  2.1070  0.8954 -3.4209
  432MOL0     H58271   4.776   3.249   6.991 -1.1319 -0.4812 -1.8615
  432MOL0     H58272   4.678   3.312   7.238 -2.1651  0.6073  0.4196
  432MOL0     H58273   4.543   3.228   7.290 -0.3085  3.0038 -0.5103
  432MOL0     H58274   4.818   3.176   7.396  0.3874 -2.2872  3.3890
  432MOL0     H58275   4.660   3.184   7.476 -1.8225 -1.2302 -0.2578
  432MOL0     H58276   4.773   2.944   7.314  0.5347 -0.7969  0.0018
  432MOL0     H58277   4.611   2.938   7.392  0.1838  1.8808 -0.0362
  432MOL0     H58278   4.790   2.832   7.544 -0.5301 -0.2152 -0.3993
  432MOL0     H58279   4.706   2.970   7.610  0.1510  0.1573  0.4681
  432MOL0     H58280   4.931   2.766   7.424 -0.4320  0.0694 -2.0878
  432MOL0     H58281   5.124   2.676   7.320  0.0160 -0.8012  0.6603
  432MOL0     H58282   5.706   2.761   7.282  0.5931 -0.9094  0.0167
  432MOL0     H58283   5.826   2.643   7.094 -0.5769 -1.0913 -1.2349
  432MOL0     H58284   5.727   2.710   6.677 -0.3422 -0.9485  0.0011
  432MOL0     H58285   5.893   2.726   6.756  1.7178 -1.2806 -0.2767
  432MOL0     H58286   5.934   2.500   6.711  0.1730 -1.9165 -2.4831
  432MOL0     H58287   5.784   2.469   6.641  1.9858 -0.4323 -2.9411
  432MOL0     H58288   5.863   2.673   6.476 -0.8480 -2.2106 -2.5953
  432MOL0     H58289   6.018   2.638   6.567  0.4384  0.0069 -2.5629
  432MOL0     H58290   5.868   2.498   6.354  1.2056  0.0863 -0.8361
  432MOL0     H58291   5.938   2.401   6.486 -0.0302  0.1413  1.1245
  432MOL0     H58292   6.169   2.492   6.420  2.3515 -2.2548 -3.1508
  432MOL0     H58293   6.084   2.590   6.298  0.4401 -0.8385 -0.6617
  432MOL0     H58294   6.054   2.292   6.327 -0.1900 -0.2776 -0.1551
  432MOL0     H58295   6.001   2.389   6.187 -0.2938  1.1300  0.0608
  432MOL0     H58296   6.220   2.248   6.158  2.4605  0.8339 -0.4724
  432MOL0     H58297   6.293   2.360   6.271 -1.0595  0.8031  1.1777
  432MOL0     H58298   6.164   2.443   5.989 -0.8595  1.1608  1.9355
  432MOL0     H58299   6.258   2.548   6.106 -0.3281  1.4975 -0.3203
  432MOL0     H58300   5.524   2.746   6.814  1.5524 -3.2330  0.3645
  432MOL0     H58301   5.396   2.853   6.988  0.2744  4.0117  0.0120
  432MOL0     H58302   5.353   3.019   7.421  0.4744  0.3355  1.1414
  432MOL0     H58303   5.119   3.128   7.501 -2.5085 -1.1960 -1.3128
  432MOL0     H58304   4.145   2.560   6.507 -0.7310  0.9369  3.2149
  432MOL0     H58305   3.914   2.463   6.496 -3.0951 -2.3527  1.4178
  432MOL0     H58306   3.537   2.325   6.814 -1.4333 -1.1765  1.8207
  432MOL0     H58307   3.319   2.287   6.768  2.1233  2.5779  0.3510
  432MOL0     H58308   3.098   2.209   6.716 -0.8504 -3.8458  0.1763
  432MOL0     H58309   3.010   2.131   6.595  0.4284 -1.7963  0.1320
  432MOL0     H58310   3.159   2.418   6.555 -0.9880  1.7394 -4.2415
  432MOL0     H58311   2.995   2.371   6.562 -0.8048 -0.8176 -1.7586
  432MOL0     H58312   3.024   2.242   6.368  1.0846 -0.6388  1.4944
  432MOL0     H58313   3.202   2.275   6.366  0.0710  0.9064 -1.1325
  432MOL0     H58314   3.168   2.517   6.369  1.5416 -0.0551 -1.8108
  432MOL0     H58315   3.116   2.446   6.216  0.8884 -0.0931  0.3783
  432MOL0     H58316   2.763   2.632   6.393 -0.8401 -3.6688  2.7109
  432MOL0     H58317   3.414   1.999   6.463  0.9196 -2.1847  0.7287
  432MOL0     H58318   3.712   2.062   6.389 -2.1399  0.3473 -0.2101
  432MOL0     H58319   3.779   2.013   6.546 -0.6759  0.0856  1.8271
  432MOL0     H58320   3.642   1.922   6.466 -1.3778  0.9901  0.5255
  433MOL0     O58321   4.232   8.642  10.196 -0.0539  0.1965  0.0105
  433MOL0     C58322   4.172   8.715  10.115  0.2269  0.3450 -0.2524
  433MOL0     O58323   4.207   8.843  10.080 -0.0859 -0.4030  0.7365
  433MOL0     C58324   4.314   8.895  10.149  0.1160  0.4411 -0.1776
  433MOL0     C58325   4.446   8.875  10.101 -0.0222 -0.0248 -0.6202
  433MOL0     C58326   4.561   8.907  10.179  0.1636 -0.8462  0.9920
  433MOL0     C58327   4.545   8.974  10.298  0.0704  0.8514  1.0925
  433MOL0     O58328   4.656   8.997  10.379  0.6055 -0.1840  0.2569
  433MOL0     C58329   4.655   9.123  10.454 -0.1404 -0.4682 -0.2226
  433MOL0     C58330   4.807   9.143  10.505 -0.0244 -0.0860 -0.4183
  433MOL0     C58331   4.833   9.290  10.535 -0.0851 -0.0577  0.7112
  433MOL0     C58332   4.950   9.313  10.618 -0.2655  0.1443 -0.4194
  433MOL0     C58333   4.978   9.451  10.653 -0.8598 -0.2531  0.6732
  433MOL0     C58334   5.116   9.445  10.729 -0.0306 -0.5481 -0.1667
  433MOL0     C58335   5.222   9.544  10.667  0.9744 -1.1826 -0.3978
  433MOL0     C58336   5.191   9.695  10.698 -0.0931  0.6389 -0.3025
  433MOL0     N58337   5.306   9.764  10.653 -0.5012  0.0027  0.2659
  433MOL0     C58338   5.418   9.799  10.733  0.1291  0.1410 -0.5859
  433MOL0     C58339   5.505   9.844  10.637  0.5179  0.3691 -0.1548
  433MOL0     C58340   5.643   9.891  10.664  0.5143 -1.0616 -0.3951
  433MOL0     C58341   5.741   9.791  10.717  0.2886 -0.4403 -0.4727
  433MOL0     C58342   5.804   9.709  10.603 -0.0455 -0.0442 -0.1192
  433MOL0     C58343   5.925   9.622  10.638 -0.1219  0.2204  0.8486
  433MOL0     O58344   6.025   9.705  10.698  0.0198 -0.7778  0.6089
  433MOL0     C58345   6.149   9.647  10.694  0.2695  0.4947 -0.1619
  433MOL0     C58346   6.174   9.512  10.669 -0.0784 -0.3121  0.4003
  433MOL0     C58347   6.304   9.461  10.664 -0.3090 -0.6739  0.1334
  433MOL0     C58348   6.412   9.543  10.667 -0.8360  1.3023  1.2941
  433MOL0     C58349   6.550   9.487  10.645  0.6147  0.0671 -0.5497
  433MOL0     O58350   6.649   9.579  10.674  0.2284 -0.0530 -0.1573
  433MOL0     C58351   6.784   9.538  10.672  0.5644  0.5882  0.1634
  433MOL0     C58352   6.874   9.643  10.626  0.1421  0.1168 -0.4956
  433MOL0     C58353   7.004   9.619  10.596 -0.6867  0.2867 -0.0511
  433MOL0     C58354   7.060   9.498  10.642  0.0301 -0.2336 -0.2768
  433MOL0     O58355   7.192   9.474  10.628 -0.8769  0.0412  0.5478
  433MOL0     C58356   7.265   9.476  10.756 -0.2503  0.0871  0.9678
  433MOL0     C58357   7.416   9.504  10.736 -0.4971 -0.1862  0.8762
  433MOL0     C58358   7.487   9.386  10.676  0.0191  0.1284 -0.4467
  433MOL0     C58359   7.639   9.426  10.645  0.7100 -0.6518 -0.1886
  433MOL0     C58360   7.727   9.306  10.638 -0.6877 -0.0886 -1.0496
  433MOL0     C58361   7.877   9.331  10.624 -1.1636  0.0647  1.2682
  433MOL0     C58362   7.908   9.344  10.471  0.2382 -0.6382  0.2330
  433MOL0     C58363   8.045   9.413  10.436  0.9139 -0.1879 -1.0092
  433MOL0    Cl58364   8.187   9.298  10.443  0.4501  0.5756  0.0027
  433MOL0     C58365   6.981   9.395  10.685  1.2560  0.1717 -0.0027
  433MOL0     C58366   6.840   9.416  10.691  0.9113 -0.4949 -0.1716
  433MOL0     O58367   6.562   9.369  10.616  0.3104 -0.2902  0.0969
  433MOL0     C58368   6.385   9.677  10.702  0.2622  0.8329 -0.3427
  433MOL0     C58369   6.260   9.727  10.720  0.3273  0.1005 -0.0217
  433MOL0     N58370   5.451   9.831  10.510 -0.4423  0.3038  0.6339
  433MOL0     N58371   5.327   9.789  10.517  0.4422 -0.3471  0.6390
  433MOL0     C58372   4.408   9.008  10.342  0.1965  0.5631 -0.5074
  433MOL0     C58373   4.300   8.959  10.266  1.0087  0.1756 -0.0194
  433MOL0     C58374   4.070   8.655  10.021 -0.0346  0.4189  0.9360
  433MOL0     C58375   4.024   8.730   9.915 -0.2442 -0.0672 -0.3803
  433MOL0     C58376   3.912   8.705   9.843 -0.8500  0.2840 -0.4399
  433MOL0     C58377   3.855   8.584   9.847 -0.1694 -0.0020  0.0179
  433MOL0     O58378   3.758   8.558   9.752 -0.4162  0.2752 -0.2565
  433MOL0     C58379   3.626   8.572   9.798  0.3272 -0.1487 -0.1039
  433MOL0     C58380   3.592   8.720   9.827  0.2969  0.9848  0.2926
  433MOL0     C58381   3.618   8.809   9.697  0.8962 -0.0010 -0.9847
  433MOL0     C58382   3.614   8.957   9.717  0.3727  0.0954 -0.1705
  433MOL0     C58383   3.481   9.017   9.748  0.4327 -0.2151  1.3732
  433MOL0     C58384   3.373   9.058   9.778 -0.0082 -0.6894 -1.2559
  433MOL0     C58385   3.907   8.493   9.935  0.0809  0.3924  0.8979
  433MOL0     C58386   4.004   8.528  10.030 -0.1962 -0.3598 -0.1536
  433MOL0     C58387   4.038   8.433  10.141 -0.4917 -0.6468  0.4935
  433MOL0     H58388   4.459   8.824  10.006 -1.0274  0.5208 -1.0604
  433MOL0     H58389   4.662   8.878  10.152 -0.3721 -1.0535 -0.9239
  433MOL0     H58390   4.612   9.193  10.381 -2.0797 -1.9602 -0.5696
  433MOL0     H58391   4.582   9.129  10.535  0.2769 -0.5524  0.1615
  433MOL0     H58392   4.882   9.106  10.435  0.8782 -1.7046  1.3126
  433MOL0     H58393   4.824   9.094  10.602  0.3241  4.3214  2.0311
  433MOL0     H58394   4.752   9.330  10.598  0.5196  0.6598  1.0538
  433MOL0     H58395   4.827   9.354  10.446 -1.9707  1.8188  2.0885
  433MOL0     H58396   4.931   9.261  10.713 -2.5872  2.4217  0.4906
  433MOL0     H58397   5.031   9.275  10.557 -2.1619 -2.8368 -1.2781
  433MOL0     H58398   4.981   9.511  10.562  0.9645 -0.1892  0.7214
  433MOL0     H58399   4.898   9.496  10.712 -4.2637 -0.9943 -2.9439
  433MOL0     H58400   5.098   9.470  10.834  1.4020 -1.7059  0.3847
  433MOL0     H58401   5.162   9.346  10.732 -1.3725 -1.2433 -1.2722
  433MOL0     H58402   5.222   9.533  10.559  3.4422  1.9783 -0.8648
  433MOL0     H58403   5.324   9.519  10.697  1.2721  0.5480  0.1772
  433MOL0     H58404   5.095   9.733  10.661 -0.8032 -0.3142  0.4882
  433MOL0     H58405   5.196   9.705  10.807  0.1812 -2.6466  0.0999
  433MOL0     H58406   5.425   9.791  10.841  2.0117  1.4158 -0.5525
  433MOL0     H58407   5.692   9.941  10.580  1.8027  0.3386  1.1379
  433MOL0     H58408   5.638   9.975  10.735 -1.3051  0.8526 -2.5950
  433MOL0     H58409   5.820   9.844  10.773 -2.7802  3.0702  0.9832
  433MOL0     H58410   5.680   9.729  10.783  1.5630  0.1426  1.3334
  433MOL0     H58411   5.837   9.780  10.527  0.6097  1.0030  1.1044
  433MOL0     H58412   5.722   9.642  10.576 -0.8205 -0.5959  3.1346
  433MOL0     H58413   5.955   9.590  10.537  0.2515  3.6143 -0.2228
  433MOL0     H58414   5.907   9.529  10.693  1.5191 -0.7972 -0.2484
  433MOL0     H58415   6.103   9.431  10.674 -0.6931 -0.1265 -2.8679
  433MOL0     H58416   6.309   9.352  10.658  1.2319 -0.6973  1.2123
  433MOL0     H58417   6.834   9.739  10.594  1.0934  0.9958  0.8514
  433MOL0     H58418   7.076   9.685  10.549 -0.0779 -0.1060  0.3363
  433MOL0     H58419   7.224   9.551  10.823 -1.8233  0.4380 -0.3272
  433MOL0     H58420   7.259   9.374  10.795 -0.4445  0.0326  0.8009
  433MOL0     H58421   7.431   9.584  10.663  2.7318 -2.0949 -0.7747
  433MOL0     H58422   7.453   9.532  10.834 -1.2643 -0.1889  1.1755
  433MOL0     H58423   7.480   9.297  10.739 -1.0928  1.8885  2.0692
  433MOL0     H58424   7.433   9.361  10.584  0.8366  0.4633 -1.0308
  433MOL0     H58425   7.666   9.492  10.728 -1.2377  3.8776 -2.7807
  433MOL0     H58426   7.648   9.479  10.550 -1.0508 -1.8575 -1.0849
  433MOL0     H58427   7.684   9.237  10.565 -2.4433 -1.8143  1.4600
  433MOL0     H58428   7.718   9.247  10.730  4.2709  1.5652  0.8313
  433MOL0     H58429   7.908   9.425  10.671 -0.6202  2.5375 -3.4276
  433MOL0     H58430   7.921   9.236  10.658  0.4916 -0.8799 -2.8768
  433MOL0     H58431   7.823   9.401  10.433  1.5689 -0.0141 -2.0133
  433MOL0     H58432   7.900   9.247  10.421  0.4194  0.5979 -2.3391
  433MOL0     H58433   8.041   9.454  10.334  0.6307  1.1895 -0.4686
  433MOL0     H58434   8.055   9.501  10.499 -0.5555 -2.7417  3.1809
  433MOL0     H58435   7.036   9.306  10.712  0.4013 -0.2001  0.5406
  433MOL0     H58436   6.780   9.328  10.716  0.2123 -0.1247 -0.5324
  433MOL0     H58437   6.470   9.744  10.709  1.9946 -1.3625  0.8135
  433MOL0     H58438   6.251   9.831  10.748  0.0931 -0.4151  1.9715
  433MOL0     H58439   4.395   9.059  10.437  1.0042 -1.8589  1.0258
  433MOL0     H58440   4.200   8.973  10.304  1.0709 -1.4001  0.8159
  433MOL0     H58441   4.070   8.827   9.903  1.7227 -0.5528  2.2280
  433MOL0     H58442   3.882   8.786   9.777 -0.1611  0.6967 -0.2528
  433MOL0     H58443   3.607   8.503   9.880  0.2937 -0.2919 -0.2321
  433MOL0     H58444   3.565   8.538   9.713  2.3363 -1.8379 -0.9528
  433MOL0     H58445   3.645   8.757   9.916 -2.4652 -0.2550  2.6098
  433MOL0     H58446   3.490   8.717   9.864 -0.6889 -1.8347 -2.2134
  433MOL0     H58447   3.544   8.808   9.616 -1.2648  0.9853  0.8630
  433MOL0     H58448   3.715   8.774   9.661  0.6013  0.5841 -2.4308
  433MOL0     H58449   3.684   8.993   9.792  4.0728  2.5061 -4.2485
  433MOL0     H58450   3.660   8.998   9.626  0.9449 -1.4445 -0.6085
  433MOL0     H58451   3.271   9.053   9.808  0.6604 -0.3697  1.2907
  433MOL0     H58452   3.869   8.392   9.946  2.8336 -0.6606  1.5607
  433MOL0     H58453   4.025   8.331  10.104  1.3306 -1.6072  2.3153
  433MOL0     H58454   4.146   8.440  10.159  0.3911 -0.5914 -3.8307
  433MOL0     H58455   3.973   8.445  10.229 -0.0755  1.4109  0.5565
  434MOL0     O58456  10.632   1.317   9.969 -0.0901  0.5812  0.0135
  434MOL0     C58457  10.646   1.340  10.091 -0.1467  0.2088  0.5201
  434MOL0     O58458  10.765   1.335  10.157 -0.2066 -1.4664  0.2269
  434MOL0     C58459  10.880   1.318  10.087  0.3728  0.0649  0.8009
  434MOL0     C58460  10.952   1.206  10.113 -0.4665 -0.1682  0.0153
  434MOL0     C58461  11.072   1.169  10.049 -0.0662 -0.1221  0.1141
  434MOL0     C58462  11.113   1.237   9.929 -0.2371  0.5725 -0.4735
  434MOL0     O58463  11.232   1.217   9.868  0.8247 -1.0629 -0.5056
  434MOL0     C58464  11.343   1.180   9.962  0.2293 -0.6901 -0.4836
  434MOL0     C58465  11.480   1.214   9.928 -0.2325  0.2113 -0.4379
  434MOL0     C58466  11.581   1.173  10.029 -0.0031 -1.3816 -0.1286
  434MOL0     C58467  11.720   1.217   9.989 -0.4796 -0.1398  0.3922
  434MOL0     C58468  11.820   1.237  10.111 -0.3157  0.2022 -0.1097
  434MOL0     C58469  11.954   1.238  10.044 -0.4418  0.1816  0.4744
  434MOL0     C58470  12.058   1.284  10.152 -0.1622  0.2671  0.7350
  434MOL0     C58471  12.202   1.281  10.099 -0.7358 -0.4590 -0.4737
  434MOL0     N58472  12.303   1.312  10.196 -0.4338  0.7474 -0.0573
  434MOL0     C58473  12.332   1.445  10.233  0.0906 -0.1082  0.1798
  434MOL0     C58474  12.431   1.441  10.328 -0.2355  0.3474  1.2155
  434MOL0     C58475  12.510   1.563  10.370  0.3724 -0.1439 -0.5012
  434MOL0     C58476  12.612   1.538  10.482  0.0155 -0.5579 -0.8629
  434MOL0     C58477  12.677   1.670  10.513 -0.4603  0.0729 -0.8843
  434MOL0     C58478  12.821   1.657  10.547 -0.8087 -0.3627  0.3343
  434MOL0     O58479  12.886   1.785  10.548  0.5658 -0.1001  0.0674
  434MOL0     C58480  13.014   1.782  10.585  1.0109 -0.6303 -1.1385
  434MOL0     C58481  13.044   1.849  10.698  0.2193  0.9307 -1.4357
  434MOL0     C58482  13.170   1.869  10.740 -0.5329 -0.3748 -1.0750
  434MOL0     C58483  13.273   1.804  10.678 -0.0644 -0.9411 -0.3157
  434MOL0     C58484  13.409   1.809  10.728 -0.1423 -0.1206 -0.0524
  434MOL0     O58485  13.500   1.738  10.661 -0.6995  0.6177  0.1741
  434MOL0     C58486  13.636   1.744  10.684  0.1210 -0.0686 -0.4260
  434MOL0     C58487  13.716   1.811  10.594 -0.3627 -0.3994 -0.3226
  434MOL0     C58488  13.853   1.805  10.626 -0.2732  0.0552 -0.0796
  434MOL0     C58489  13.913   1.725  10.718  0.6962 -0.5628 -1.1323
  434MOL0     O58490  14.050   1.727  10.719  0.4673  0.5070 -0.3245
  434MOL0     C58491  14.100   1.713  10.845  0.2610 -0.4080 -0.3245
  434MOL0     C58492  14.248   1.751  10.842 -0.7246 -0.1804 -0.6472
  434MOL0     C58493  14.275   1.899  10.865  0.5457  0.2215 -0.6093
  434MOL0     C58494  14.252   1.955  11.006 -0.6299  0.0218  0.4698
  434MOL0     C58495  14.305   2.092  11.015 -0.7199  0.1533 -0.0453
  434MOL0     C58496  14.286   2.158  11.163  0.2674 -0.3210  0.2541
  434MOL0     C58497  14.176   2.268  11.159  0.5000 -0.0981  0.1952
  434MOL0     C58498  14.185   2.360  11.268  0.5622 -0.8536 -0.4665
  434MOL0    Cl58499  14.355   2.435  11.286  0.4503  0.0541  0.4609
  434MOL0     C58500  13.827   1.654  10.809  0.3843  0.3228  1.2228
  434MOL0     C58501  13.687   1.662  10.786  0.0514 -0.2249  0.6499
  434MOL0     O58502  13.436   1.880  10.829 -0.9846 -0.7341  0.8489
  434MOL0     C58503  13.241   1.726  10.564 -0.4332  0.1188 -0.4179
  434MOL0     C58504  13.111   1.720  10.522 -0.0356  0.5764  0.3134
  434MOL0     N58505  12.456   1.304  10.350 -0.2123 -0.2413 -0.6020
  434MOL0     N58506  12.374   1.235  10.281 -0.0359  0.1491  0.2565
  434MOL0     C58507  11.032   1.346   9.901 -0.2001  0.0718  0.9118
  434MOL0     C58508  10.918   1.394   9.969  0.3450  0.0685 -0.0057
  434MOL0     C58509  10.516   1.364  10.168 -0.3215 -0.4213 -0.6227
  434MOL0     C58510  10.396   1.386  10.099 -0.1904  0.1507  0.3969
  434MOL0     C58511  10.274   1.380  10.165  0.4093  0.4753  0.0708
  434MOL0     C58512  10.268   1.394  10.304  0.3661  0.0939  1.1885
  434MOL0     O58513  10.155   1.393  10.378  0.6522  0.3530  0.4482
  434MOL0     C58514  10.031   1.436  10.316  0.8998 -0.2014  0.5341
  434MOL0     C58515   9.918   1.459  10.422  0.5469 -0.2162  0.8039
  434MOL0     C58516   9.783   1.480  10.344 -0.3715  0.4518  0.2072
  434MOL0     C58517   9.681   1.537  10.452 -0.0239 -0.4221 -0.4076
  434MOL0     C58518   9.702   1.685  10.466 -0.0796 -0.2399 -0.2604
  434MOL0     C58519   9.710   1.805  10.477  0.7353  0.2158  0.4464
  434MOL0     C58520  10.385   1.375  10.373 -0.1070 -1.0757 -1.0006
  434MOL0     C58521  10.510   1.368  10.308 -1.1411  0.3665 -0.5317
  434MOL0     C58522  10.623   1.343  10.405 -0.8227  0.0114 -0.3044
  434MOL0     H58523  10.919   1.141  10.194 -0.9510 -0.3258 -0.3031
  434MOL0     H58524  11.121   1.074  10.070 -0.1708 -0.9086 -2.7472
  434MOL0     H58525  11.319   1.218  10.062  1.4433 -1.4886  0.1381
  434MOL0     H58526  11.337   1.073   9.983 -0.0339 -0.2865  1.7386
  434MOL0     H58527  11.484   1.322   9.911 -1.8358  0.4634  0.5582
  434MOL0     H58528  11.509   1.155   9.840  1.2678  1.0073 -0.5156
  434MOL0     H58529  11.573   1.066  10.050  1.2398 -1.5728 -0.5671
  434MOL0     H58530  11.567   1.227  10.124  1.8246 -0.3476 -0.3983
  434MOL0     H58531  11.752   1.132   9.929 -0.4728 -0.8209  1.3482
  434MOL0     H58532  11.725   1.306   9.925  1.3342 -0.7755 -0.4121
  434MOL0     H58533  11.813   1.329  10.170 -1.0776  2.1904 -3.0866
  434MOL0     H58534  11.825   1.153  10.181  0.7403  2.2267  2.4274
  434MOL0     H58535  11.972   1.137  10.009  0.7961 -0.4691  2.7947
  434MOL0     H58536  11.959   1.312   9.964  2.0925 -1.2821 -0.8521
  434MOL0     H58537  12.061   1.219  10.240  0.3354  1.5321  1.6849
  434MOL0     H58538  12.037   1.387  10.182 -2.1914 -0.2090  1.1029
  434MOL0     H58539  12.203   1.181  10.056 -1.2154 -0.7893  0.2555
  434MOL0     H58540  12.205   1.356  10.020  0.1746  1.4027  1.2432
  434MOL0     H58541  12.286   1.532  10.188  3.0206 -0.1521 -3.3189
  434MOL0     H58542  12.565   1.597  10.282  0.9790  0.9581  0.2726
  434MOL0     H58543  12.446   1.649  10.389  0.9130  1.1087 -3.6853
  434MOL0     H58544  12.566   1.493  10.571 -0.9415  2.3167  0.2249
  434MOL0     H58545  12.692   1.475  10.443  2.5146  1.3750  0.8301
  434MOL0     H58546  12.626   1.713  10.600 -1.4600 -2.1224 -0.2966
  434MOL0     H58547  12.671   1.741  10.430  0.5033 -1.6189 -2.4768
  434MOL0     H58548  12.872   1.587  10.479 -0.8635 -1.6143  1.5322
  434MOL0     H58549  12.816   1.613  10.647  0.6862  0.2214  0.6831
  434MOL0     H58550  12.960   1.899  10.745 -0.0716 -1.4224  0.8275
  434MOL0     H58551  13.181   1.941  10.821  0.4807 -3.3941  1.6620
  434MOL0     H58552  13.679   1.876  10.516 -0.8607 -0.4657 -0.1483
  434MOL0     H58553  13.933   1.863  10.581 -1.0802  1.7912  0.6363
  434MOL0     H58554  14.056   1.782  10.918 -0.1079 -2.4645  1.5068
  434MOL0     H58555  14.084   1.609  10.875  0.2523 -0.0713  0.9015
  434MOL0     H58556  14.304   1.684  10.907  0.0227  1.8489  0.9320
  434MOL0     H58557  14.287   1.739  10.741  1.6597 -1.1407  0.3094
  434MOL0     H58558  14.378   1.913  10.831  0.2362  2.0780 -0.9074
  434MOL0     H58559  14.211   1.968  10.810 -1.7539 -0.9896  0.4149
  434MOL0     H58560  14.296   1.879  11.071 -0.4363 -0.4782 -0.2323
  434MOL0     H58561  14.145   1.943  11.027 -0.4033 -1.2791  0.9616
  434MOL0     H58562  14.260   2.142  10.929  1.6883  1.0625 -0.8517
  434MOL0     H58563  14.413   2.078  11.007 -1.0438 -1.8143 -2.7928
  434MOL0     H58564  14.272   2.069  11.225  0.0850  0.0657  0.7785
  434MOL0     H58565  14.385   2.198  11.186  1.3196 -1.1240 -2.4519
  434MOL0     H58566  14.085   2.206  11.157  0.1392  0.3895  0.8111
  434MOL0     H58567  14.177   2.321  11.063  0.5445 -0.1339  0.1767
  434MOL0     H58568  14.114   2.444  11.261  0.9640 -0.3363  1.2867
  434MOL0     H58569  14.163   2.298  11.355 -2.1590 -0.1569 -0.5549
  434MOL0     H58570  13.863   1.599  10.895  1.5177 -0.8812  0.0369
  434MOL0     H58571  13.622   1.614  10.859  0.8957 -0.6128  1.1776
  434MOL0     H58572  13.307   1.657  10.512 -0.3427 -1.5503  1.7711
  434MOL0     H58573  13.079   1.679  10.426 -2.5288  0.9094  0.9257
  434MOL0     H58574  11.055   1.393   9.806 -0.7302 -0.9634  0.2545
  434MOL0     H58575  10.861   1.478   9.931  0.7932  0.8698  1.0227
  434MOL0     H58576  10.401   1.386   9.991  2.6045  0.8543  0.4525
  434MOL0     H58577  10.193   1.386  10.093 -0.7200 -0.9600  1.1449
  434MOL0     H58578   9.993   1.361  10.246  0.1244 -0.4535  1.2155
  434MOL0     H58579  10.052   1.524  10.255  0.9231 -2.0295 -2.2755
  434MOL0     H58580   9.940   1.542  10.490  2.4865  1.1255 -1.3396
  434MOL0     H58581   9.911   1.365  10.479 -3.3895 -1.3046 -1.1154
  434MOL0     H58582   9.736   1.392  10.300 -0.9586  1.6505 -1.6972
  434MOL0     H58583   9.797   1.558  10.268 -2.9804  1.9323  1.1332
  434MOL0     H58584   9.580   1.513  10.417 -0.8656  3.9702 -1.6949
  434MOL0     H58585   9.708   1.478  10.539 -1.9693  0.7899  1.1106
  434MOL0     H58586   9.712   1.911  10.493 -0.9228  0.0517  1.9597
  434MOL0     H58587  10.379   1.377  10.482  3.5196  1.3813 -0.6585
  434MOL0     H58588  10.670   1.249  10.375 -0.9266  0.2147 -1.1169
  434MOL0     H58589  10.702   1.418  10.421  0.5184 -1.3125 -0.4814
  434MOL0     H58590  10.581   1.330  10.505  1.4110  0.3377  0.7556
  435MOL0     O58591   4.583   5.274   7.048  0.2807  0.7399  0.3586
  435MOL0     C58592   4.568   5.268   7.169 -0.2745 -0.3048  0.4952
  435MOL0     O58593   4.662   5.286   7.265 -0.5331 -0.4386 -0.5826
  435MOL0     C58594   4.780   5.340   7.221  0.2509 -0.4931  0.5158
  435MOL0     C58595   4.792   5.474   7.166 -0.6884 -0.7619 -0.4228
  435MOL0     C58596   4.912   5.525   7.115 -0.3339 -0.3409 -0.2817
  435MOL0     C58597   5.027   5.444   7.108  0.4211  0.4477  0.0850
  435MOL0     O58598   5.140   5.481   7.040 -0.5214 -0.3054 -0.3222
  435MOL0     C58599   5.121   5.513   6.899 -0.1016 -0.2245 -0.0736
  435MOL0     C58600   5.247   5.505   6.816 -0.0354 -0.1576  0.6027
  435MOL0     C58601   5.293   5.361   6.804 -0.4679  0.2002  0.5239
  435MOL0     C58602   5.409   5.347   6.701  0.6391  0.3790  0.0601
  435MOL0     C58603   5.538   5.392   6.768  0.5109  0.6756 -0.6775
  435MOL0     C58604   5.654   5.435   6.682 -0.0911 -0.5101 -0.6176
  435MOL0     C58605   5.774   5.492   6.763  1.4133 -0.3122  0.0563
  435MOL0     C58606   5.899   5.536   6.677 -0.2088  0.2583  0.6675
  435MOL0     N58607   6.015   5.558   6.763 -0.6759  0.1216  0.3723
  435MOL0     C58608   6.094   5.665   6.762 -0.3524 -0.0407 -0.8355
  435MOL0     C58609   6.183   5.635   6.853 -0.0672 -0.4496  0.6209
  435MOL0     C58610   6.307   5.708   6.892 -0.0323 -0.2037 -0.3856
  435MOL0     C58611   6.304   5.861   6.905 -0.3375 -0.5690 -0.9781
  435MOL0     C58612   6.445   5.916   6.915  0.5001 -0.0252 -0.4541
  435MOL0     C58613   6.444   6.056   6.976 -0.5253 -0.6655 -1.4054
  435MOL0     O58614   6.397   6.166   6.885 -0.6180 -0.4305 -0.2898
  435MOL0     C58615   6.368   6.277   6.955  0.2875  0.3005 -0.4587
  435MOL0     C58616   6.272   6.360   6.901 -0.1691 -0.2059 -0.2446
  435MOL0     C58617   6.230   6.476   6.962 -0.2618 -0.2023  0.0205
  435MOL0     C58618   6.279   6.521   7.091 -0.1794 -0.3415  0.3478
  435MOL0     C58619   6.220   6.642   7.154  0.2558  0.4291 -0.2665
  435MOL0     O58620   6.103   6.685   7.104 -0.2120 -0.3363 -0.1410
  435MOL0     C58621   6.042   6.798   7.155 -0.1914  0.6711 -0.2537
  435MOL0     C58622   6.068   6.913   7.088 -0.0560 -0.6759  1.1541
  435MOL0     C58623   5.996   7.030   7.127  0.7588 -0.8526 -1.0325
  435MOL0     C58624   5.907   7.029   7.238  1.3168  0.3708 -0.1385
  435MOL0     O58625   5.847   7.152   7.254  0.4485 -0.9567 -0.1020
  435MOL0     C58626   5.767   7.174   7.368 -0.6944 -0.2191  0.4513
  435MOL0     C58627   5.734   7.325   7.396 -0.1824 -0.2653  0.3994
  435MOL0     C58628   5.674   7.378   7.272  0.7714 -0.4152 -0.3893
  435MOL0     C58629   5.624   7.520   7.284  0.1209  0.1612 -0.6205
  435MOL0     C58630   5.625   7.595   7.144 -0.5673  0.4322  0.1030
  435MOL0     C58631   5.573   7.737   7.154 -0.0513  0.8570 -0.4581
  435MOL0     C58632   5.592   7.810   7.020  0.7744  0.4842  0.3135
  435MOL0     C58633   5.505   7.937   7.012 -0.4303  0.3175 -0.1943
  435MOL0    Cl58634   5.526   8.059   7.136 -0.0148  0.2949  0.2448
  435MOL0     C58635   5.888   6.903   7.311 -0.0448 -0.7663  0.6815
  435MOL0     C58636   5.951   6.790   7.263 -0.7848  0.1474  1.1430
  435MOL0     O58637   6.270   6.687   7.258  0.4685 -0.8878 -0.8671
  435MOL0     C58638   6.384   6.439   7.148  0.3729  0.3044 -0.3855
  435MOL0     C58639   6.430   6.318   7.079 -0.1994  0.4170 -0.1548
  435MOL0     N58640   6.162   5.510   6.910  0.2833 -0.0215 -0.6463
  435MOL0     N58641   6.062   5.463   6.850 -0.1923 -0.2378  0.1418
  435MOL0     C58642   5.010   5.315   7.152 -0.1811  0.9856  0.1777
  435MOL0     C58643   4.889   5.263   7.211  0.0985 -0.0142  0.6002
  435MOL0     C58644   4.434   5.213   7.214  0.0935  0.3140  0.5806
  435MOL0     C58645   4.340   5.178   7.118  0.4130 -0.2809 -0.0688
  435MOL0     C58646   4.215   5.127   7.154  0.2701 -0.3769  0.0383
  435MOL0     C58647   4.182   5.118   7.285  0.5824 -0.5596  0.5895
  435MOL0     O58648   4.052   5.079   7.325  0.4312  0.2478  0.0099
  435MOL0     C58649   3.995   5.162   7.422  0.0974 -0.9002  0.1918
  435MOL0     C58650   3.844   5.130   7.454 -0.4522  0.3478  0.3562
  435MOL0     C58651   3.756   5.155   7.335  0.7542  0.1658  0.2036
  435MOL0     C58652   3.609   5.160   7.378  0.0554  0.1788  0.0971
  435MOL0     C58653   3.555   5.024   7.395  0.4524 -0.2874 -0.7401
  435MOL0     C58654   3.525   4.909   7.424  0.1724 -0.8893  0.1344
  435MOL0     C58655   4.270   5.141   7.384 -0.4946  0.3448 -0.4258
  435MOL0     C58656   4.395   5.199   7.352 -0.1424 -0.1782 -0.1634
  435MOL0     C58657   4.482   5.242   7.470 -0.0032 -0.3135  0.0351
  435MOL0     H58658   4.701   5.531   7.150  0.5801  1.2765 -0.6868
  435MOL0     H58659   4.913   5.630   7.090 -1.9782 -0.6947 -2.0516
  435MOL0     H58660   5.034   5.457   6.863  0.1558 -0.6931  0.0239
  435MOL0     H58661   5.078   5.614   6.895 -0.7641 -0.3118  2.6411
  435MOL0     H58662   5.331   5.566   6.851  0.8104  0.1511 -1.7951
  435MOL0     H58663   5.218   5.532   6.715  2.3987  0.7195  0.0584
  435MOL0     H58664   5.204   5.303   6.782 -1.4259  1.1247  1.8652
  435MOL0     H58665   5.317   5.314   6.899 -0.8091  0.6984  0.8589
  435MOL0     H58666   5.421   5.245   6.663 -0.1662 -0.7317  2.5874
  435MOL0     H58667   5.386   5.408   6.613  0.8238  1.8613  1.0081
  435MOL0     H58668   5.506   5.470   6.837  2.5418  0.2363  0.8710
  435MOL0     H58669   5.572   5.306   6.827 -1.6486 -0.9190 -1.6294
  435MOL0     H58670   5.676   5.355   6.610  0.4209  2.1499 -3.6556
  435MOL0     H58671   5.628   5.517   6.614  1.8386 -0.9719 -1.9976
  435MOL0     H58672   5.794   5.423   6.846 -1.2398  0.0952  1.1539
  435MOL0     H58673   5.730   5.585   6.801  3.5985  1.3573 -1.2384
  435MOL0     H58674   5.914   5.460   6.600 -0.5399 -0.1012  0.9575
  435MOL0     H58675   5.877   5.632   6.629 -0.2626 -1.1707 -2.3577
  435MOL0     H58676   6.082   5.760   6.711  4.0819  1.6934  0.8232
  435MOL0     H58677   6.325   5.665   6.991 -2.8076  0.7419  0.6260
  435MOL0     H58678   6.390   5.685   6.825 -0.3291  0.7701 -1.0987
  435MOL0     H58679   6.253   5.895   6.815 -0.1460 -1.2218 -1.3331
  435MOL0     H58680   6.241   5.884   6.991  0.1691 -0.4839 -0.6188
  435MOL0     H58681   6.501   5.913   6.821  0.9769 -1.9841 -0.1493
  435MOL0     H58682   6.502   5.852   6.984  0.2975  2.6132  2.3617
  435MOL0     H58683   6.545   6.078   7.010 -0.6392  0.7808 -1.9488
  435MOL0     H58684   6.373   6.055   7.059  0.7504  3.2548 -0.0477
  435MOL0     H58685   6.235   6.346   6.800 -2.2321  0.7930  0.3122
  435MOL0     H58686   6.170   6.554   6.916 -0.0826  1.9529  3.0881
  435MOL0     H58687   6.132   6.916   7.000  1.0148 -1.9360  1.8533
  435MOL0     H58688   6.018   7.124   7.077 -0.2404 -0.0916 -0.0910
  435MOL0     H58689   5.677   7.117   7.346 -0.0285 -1.2505  0.3675
  435MOL0     H58690   5.816   7.118   7.448  0.7930  1.2740  0.6707
  435MOL0     H58691   5.667   7.326   7.481  1.3271 -2.1536  1.6947
  435MOL0     H58692   5.827   7.378   7.422 -1.7042  1.9871  1.5918
  435MOL0     H58693   5.748   7.374   7.192 -0.3317  0.4111 -1.5106
  435MOL0     H58694   5.591   7.308   7.256  1.3431 -1.7133  1.8370
  435MOL0     H58695   5.699   7.576   7.341  1.0171 -1.8633  0.2739
  435MOL0     H58696   5.528   7.525   7.336  0.6186 -1.1595  0.4627
  435MOL0     H58697   5.549   7.544   7.083 -0.6871 -1.3899  1.6756
  435MOL0     H58698   5.724   7.585   7.099  0.2451 -0.1306  1.9300
  435MOL0     H58699   5.469   7.739   7.186  0.2448  0.0368  0.6363
  435MOL0     H58700   5.634   7.800   7.220  1.1516  2.3880 -2.8988
  435MOL0     H58701   5.558   7.742   6.942 -1.5154  3.6365 -1.6429
  435MOL0     H58702   5.698   7.830   7.001  0.6723  0.3274 -0.4345
  435MOL0     H58703   5.527   7.989   6.918  0.6806  1.3134  0.5789
  435MOL0     H58704   5.402   7.900   7.016  0.0842 -1.3429 -1.0891
  435MOL0     H58705   5.836   6.903   7.406 -0.5577  0.8489  0.4241
  435MOL0     H58706   5.931   6.699   7.319 -0.6042 -1.2159 -0.8878
  435MOL0     H58707   6.434   6.470   7.239  1.3163  1.1959 -1.1728
  435MOL0     H58708   6.518   6.261   7.107  1.0286  1.6177 -1.4383
  435MOL0     H58709   5.094   5.246   7.157  0.4239  1.7936  1.8821
  435MOL0     H58710   4.877   5.161   7.247  1.3154 -0.0973  0.8042
  435MOL0     H58711   4.362   5.209   7.017 -1.1768 -1.3800 -0.8067
  435MOL0     H58712   4.149   5.087   7.077  3.5668 -1.8757 -2.2682
  435MOL0     H58713   4.005   5.264   7.384 -3.1659 -1.1681 -1.8411
  435MOL0     H58714   4.050   5.153   7.515  1.3889  0.3846 -0.4182
  435MOL0     H58715   3.815   5.197   7.536  0.9890  1.5664 -0.0871
  435MOL0     H58716   3.836   5.025   7.482 -0.6188  0.7053  1.6932
  435MOL0     H58717   3.761   5.074   7.262 -1.7774  0.6304 -0.5888
  435MOL0     H58718   3.782   5.248   7.283 -1.2420 -1.2284 -3.6407
  435MOL0     H58719   3.613   5.216   7.472  1.5665 -1.9430  1.3941
  435MOL0     H58720   3.555   5.216   7.301  0.7433 -1.3938 -1.6052
  435MOL0     H58721   3.496   4.809   7.448  0.4388 -1.6873 -2.6058
  435MOL0     H58722   4.250   5.117   7.488  0.1976  1.8367  0.0856
  435MOL0     H58723   4.536   5.149   7.492 -4.2319 -2.2436  3.6531
  435MOL0     H58724   4.540   5.331   7.440 -1.1374 -0.3123 -2.3936
  435MOL0     H58725   4.424   5.265   7.560  0.6493  3.0737 -0.2417
  436MOL0     O58726  10.503   7.692   5.623  0.2666 -0.0446 -1.0280
  436MOL0     C58727  10.505   7.601   5.541  0.2945 -0.2090 -0.2647
  436MOL0     O58728  10.453   7.606   5.421  0.8017 -0.0363  0.0546
  436MOL0     C58729  10.431   7.733   5.380  0.3453 -0.1104  0.0550
  436MOL0     C58730  10.304   7.792   5.376  1.1063 -0.6554 -0.4562
  436MOL0     C58731  10.282   7.920   5.341 -0.0004 -0.3563  0.4990
  436MOL0     C58732  10.385   7.999   5.297 -0.3251 -0.9907  1.1834
  436MOL0     O58733  10.388   8.127   5.258 -0.3704  0.0214  0.8006
  436MOL0     C58734  10.317   8.215   5.341  0.1656  0.1686  0.1244
  436MOL0     C58735  10.386   8.348   5.366 -0.3873  0.0386 -0.6049
  436MOL0     C58736  10.481   8.352   5.484 -0.0193  0.0156  0.8287
  436MOL0     C58737  10.567   8.226   5.511  0.0641 -0.7671 -0.9138
  436MOL0     C58738  10.675   8.248   5.612 -0.2207 -0.8796 -0.9622
  436MOL0     C58739  10.722   8.124   5.694  0.1746  0.0517 -0.7058
  436MOL0     C58740  10.761   8.018   5.588  0.9808  0.0311  0.8878
  436MOL0     C58741  10.846   7.903   5.640 -0.3603  0.0376 -0.3150
  436MOL0     N58742  10.880   7.796   5.538  0.3655  0.4390 -0.0938
  436MOL0     C58743  10.877   7.662   5.550  0.0075  0.4972  0.1792
  436MOL0     C58744  10.925   7.602   5.437  0.2896 -0.6107 -0.3049
  436MOL0     C58745  10.946   7.454   5.411  0.3192 -0.0130 -0.0572
  436MOL0     C58746  11.088   7.437   5.352  0.0691  0.1332 -0.5684
  436MOL0     C58747  11.208   7.452   5.450 -0.2606 -0.4624  0.0927
  436MOL0     C58748  11.219   7.589   5.511  0.2560 -0.4387 -0.4860
  436MOL0     O58749  11.347   7.592   5.581 -0.0397 -0.0214 -0.0043
  436MOL0     C58750  11.458   7.621   5.515  0.0361 -0.0573  0.1220
  436MOL0     C58751  11.464   7.654   5.377 -0.5799  0.5248 -0.0275
  436MOL0     C58752  11.582   7.691   5.322 -0.4386 -0.9878  0.1042
  436MOL0     C58753  11.696   7.716   5.401  0.4675 -0.5898  0.2081
  436MOL0     C58754  11.817   7.789   5.357 -0.4175  0.2009 -0.2448
  436MOL0     O58755  11.898   7.848   5.454  0.6015 -0.0812  0.1413
  436MOL0     C58756  12.016   7.907   5.418  1.1413  0.5919 -0.6380
  436MOL0     C58757  12.124   7.863   5.333 -0.3094  0.1900  0.2308
  436MOL0     C58758  12.247   7.937   5.327  0.5709 -0.1687 -0.0989
  436MOL0     C58759  12.259   8.066   5.388  0.1401  0.1806 -1.0388
  436MOL0     O58760  12.378   8.132   5.380 -0.0228  0.1823 -0.7306
  436MOL0     C58761  12.398   8.265   5.440  0.3569  0.1377 -0.7578
  436MOL0     C58762  12.541   8.316   5.416 -0.2483 -0.1440 -0.5208
  436MOL0     C58763  12.566   8.315   5.263 -0.7534  0.2020  0.0936
  436MOL0     C58764  12.717   8.317   5.227 -0.5978  0.5268  0.3820
  436MOL0     C58765  12.788   8.454   5.257 -0.0686 -0.9670 -0.5615
  436MOL0     C58766  12.930   8.462   5.188  0.2077  0.1742 -0.4172
  436MOL0     C58767  13.018   8.351   5.254  0.1210 -0.1341 -0.7879
  436MOL0     C58768  13.145   8.328   5.165 -0.4685  0.5549 -0.4611
  436MOL0    Cl58769  13.233   8.193   5.243  0.1914 -0.0357 -0.5410
  436MOL0     C58770  12.144   8.105   5.466 -0.3164 -0.8208  1.0925
  436MOL0     C58771  12.034   8.020   5.486  0.3169 -0.0937 -0.1465
  436MOL0     O58772  11.841   7.794   5.233  0.4195 -0.2816  0.1786
  436MOL0     C58773  11.687   7.685   5.540  0.8175 -0.4702  0.3054
  436MOL0     C58774  11.571   7.637   5.597  0.2103  1.5339 -0.1491
  436MOL0     N58775  10.931   7.717   5.355 -0.0447  0.1321 -0.4873
  436MOL0     N58776  10.911   7.826   5.414  0.1515 -0.0445 -0.0094
  436MOL0     C58777  10.514   7.941   5.287  0.6724 -0.5258 -0.0167
  436MOL0     C58778  10.539   7.810   5.341  1.3325  0.3783  0.5522
  436MOL0     C58779  10.564   7.467   5.570  0.1593  0.9682 -0.2148
  436MOL0     C58780  10.557   7.362   5.467 -0.1751  0.5948  0.0043
  436MOL0     C58781  10.604   7.233   5.491 -0.8589 -0.2589  0.3018
  436MOL0     C58782  10.674   7.207   5.609  0.6839 -0.6973 -0.1167
  436MOL0     O58783  10.730   7.088   5.645 -0.1192  0.5906 -0.2317
  436MOL0     C58784  10.698   6.965   5.585 -0.3115 -0.8697  0.0494
  436MOL0     C58785  10.686   6.843   5.684 -1.0178 -0.7268 -0.4912
  436MOL0     C58786  10.572   6.857   5.788  0.0280  0.0058 -0.1633
  436MOL0     C58787  10.438   6.823   5.714 -0.0259  0.7240  0.4501
  436MOL0     C58788  10.330   6.800   5.803  0.4543 -0.1854  0.8970
  436MOL0     C58789  10.225   6.798   5.867 -0.4805  0.2501 -0.1829
  436MOL0     C58790  10.689   7.306   5.703  0.1981 -0.3865 -0.9224
  436MOL0     C58791  10.624   7.432   5.690  0.2027  0.5467  0.7286
  436MOL0     C58792  10.635   7.521   5.801 -0.2516  0.1111 -0.0106
  436MOL0     H58793  10.214   7.738   5.405 -0.2717  1.3700 -0.8200
  436MOL0     H58794  10.183   7.958   5.363 -0.3457 -1.2429  0.5320
  436MOL0     H58795  10.236   8.242   5.273 -1.1856 -0.8849  1.2511
  436MOL0     H58796  10.273   8.179   5.434  2.1328 -0.5088  0.8613
  436MOL0     H58797  10.311   8.423   5.397 -0.7982 -1.2978  1.8848
  436MOL0     H58798  10.435   8.384   5.275 -0.5429  3.4009  0.4779
  436MOL0     H58799  10.421   8.383   5.570 -1.1625  0.1286  0.0056
  436MOL0     H58800  10.549   8.432   5.456  0.0975 -0.4549 -0.2728
  436MOL0     H58801  10.499   8.147   5.545 -0.8798  0.6872  0.7655
  436MOL0     H58802  10.612   8.186   5.419  2.8670 -1.1826  0.5268
  436MOL0     H58803  10.750   8.300   5.553 -1.3320  1.0302 -0.7976
  436MOL0     H58804  10.647   8.328   5.682  4.8676  0.2387  0.1601
  436MOL0     H58805  10.811   8.145   5.755 -1.0375  2.0264  0.4809
  436MOL0     H58806  10.638   8.089   5.754 -1.3556  3.5226 -0.5980
  436MOL0     H58807  10.816   8.063   5.505  0.4963  0.2423  0.6793
  436MOL0     H58808  10.669   7.971   5.551  2.2477 -1.8470 -0.1073
  436MOL0     H58809  10.945   7.945   5.664  0.2935 -2.6454  2.3684
  436MOL0     H58810  10.807   7.860   5.732  0.8611 -0.6770 -0.1027
  436MOL0     H58811  10.848   7.609   5.640  0.5809  1.5882  1.0234
  436MOL0     H58812  10.940   7.397   5.504 -1.1606 -0.0087 -0.1410
  436MOL0     H58813  10.863   7.425   5.346  0.2656  1.7391 -0.8117
  436MOL0     H58814  11.089   7.334   5.314 -0.7983 -0.6537  1.4516
  436MOL0     H58815  11.107   7.497   5.262  0.3560 -0.4254 -0.8834
  436MOL0     H58816  11.301   7.415   5.407 -0.9457 -2.9810  0.6519
  436MOL0     H58817  11.191   7.375   5.525  0.4496  0.8789  1.7075
  436MOL0     H58818  11.140   7.607   5.585 -1.9941 -3.0899 -2.0532
  436MOL0     H58819  11.227   7.662   5.430  1.4305 -0.5791 -0.5097
  436MOL0     H58820  11.397   7.637   5.292  2.3109  0.7506 -2.5142
  436MOL0     H58821  11.594   7.718   5.218 -0.0427 -1.4775  0.0208
  436MOL0     H58822  12.109   7.776   5.271 -1.4149 -0.1359  0.9278
  436MOL0     H58823  12.335   7.896   5.279  0.2207 -1.5376  0.3650
  436MOL0     H58824  12.317   8.326   5.398 -0.5450 -0.4977  0.0151
  436MOL0     H58825  12.383   8.263   5.549  5.5817 -0.1967  0.2297
  436MOL0     H58826  12.560   8.420   5.445  1.8864  0.1883 -2.7898
  436MOL0     H58827  12.604   8.248   5.473 -2.1312 -0.8295  0.8362
  436MOL0     H58828  12.537   8.217   5.223  3.8721 -0.9136 -1.1418
  436MOL0     H58829  12.513   8.395   5.210  2.0974  0.6309 -2.3552
  436MOL0     H58830  12.722   8.297   5.119 -2.4517 -1.9152  0.6682
  436MOL0     H58831  12.773   8.239   5.279  0.0569 -0.6197 -1.8979
  436MOL0     H58832  12.803   8.457   5.365  0.0412  0.7346 -0.5934
  436MOL0     H58833  12.739   8.549   5.231  0.8226  0.3138  2.1025
  436MOL0     H58834  12.923   8.462   5.079  0.5190 -2.2468 -0.4942
  436MOL0     H58835  12.980   8.555   5.216 -1.5311  0.0876  3.7418
  436MOL0     H58836  12.966   8.255   5.252  0.9012 -0.5662 -0.9874
  436MOL0     H58837  13.040   8.378   5.358  0.6053 -0.3098 -0.8401
  436MOL0     H58838  13.122   8.304   5.061  2.1819 -0.5823 -0.8639
  436MOL0     H58839  13.220   8.408   5.160 -1.0651  1.0563 -1.9088
  436MOL0     H58840  12.147   8.202   5.515 -0.8064 -0.8059  1.0989
  436MOL0     H58841  11.941   8.058   5.529  0.5482  0.8323 -0.4520
  436MOL0     H58842  11.770   7.715   5.602  0.2854  2.5889 -0.3234
  436MOL0     H58843  11.571   7.600   5.699  3.3592 -2.4452 -1.3283
  436MOL0     H58844  10.600   8.000   5.257  0.5464  1.6246  3.3316
  436MOL0     H58845  10.644   7.786   5.356  2.1699  3.4741  0.4568
  436MOL0     H58846  10.513   7.378   5.369 -0.5275 -2.1268 -0.3647
  436MOL0     H58847  10.608   7.164   5.406 -1.2675  3.7988 -3.3630
  436MOL0     H58848  10.761   6.950   5.496  0.1364 -0.5750  0.3179
  436MOL0     H58849  10.594   6.970   5.552 -0.7075 -0.7431  1.2738
  436MOL0     H58850  10.783   6.849   5.735  1.7717  1.3513 -5.3189
  436MOL0     H58851  10.682   6.746   5.633  0.9358  0.2238 -2.6352
  436MOL0     H58852  10.574   6.955   5.836  0.0076 -0.1950  0.2526
  436MOL0     H58853  10.582   6.796   5.878 -2.8602  3.0978  2.5447
  436MOL0     H58854  10.404   6.902   5.647 -1.3367  1.7315  2.2238
  436MOL0     H58855  10.444   6.731   5.656 -0.0898  1.2775 -0.4448
  436MOL0     H58856  10.141   6.785   5.932  0.7142 -1.9279  1.0611
  436MOL0     H58857  10.753   7.290   5.789 -1.3097 -2.3996 -0.0974
  436MOL0     H58858  10.538   7.549   5.844  0.8394  3.0633  0.7763
  436MOL0     H58859  10.693   7.470   5.878 -0.2591 -2.7973 -1.8124
  436MOL0     H58860  10.681   7.616   5.772  0.8873 -1.0544 -2.2868
  437MOL0     O58861   0.286   8.116   5.578  0.7818  0.2500  0.2691
  437MOL0     C58862   0.182   8.053   5.594 -0.2105 -0.6050  0.3711
  437MOL0     O58863   0.155   7.946   5.677 -0.5080  0.7901 -0.4077
  437MOL0     C58864   0.218   7.923   5.799  0.3095 -0.1560  0.2991
  437MOL0     C58865   0.333   7.987   5.849 -0.3329 -0.1182  1.1718
  437MOL0     C58866   0.380   7.956   5.980  0.2988  0.0686  0.6117
  437MOL0     C58867   0.321   7.861   6.058  0.5343 -0.3538 -0.4181
  437MOL0     O58868   0.358   7.816   6.178 -0.1538 -0.3220 -0.0536
  437MOL0     C58869   0.482   7.880   6.235  0.1641  0.6613 -0.5081
  437MOL0     C58870   0.472   8.025   6.288 -0.0129 -0.6304 -0.4142
  437MOL0     C58871   0.619   8.075   6.318  0.1373 -1.3016 -0.0233
  437MOL0     C58872   0.679   8.002   6.442  0.5041  0.3662  0.5683
  437MOL0     C58873   0.825   8.010   6.434  0.3053 -0.2799  0.7552
  437MOL0     C58874   0.881   8.150   6.442  0.0429 -0.3299 -0.9435
  437MOL0     C58875   0.862   8.232   6.575 -0.1713  0.6726  0.1287
  437MOL0     C58876   0.910   8.150   6.694  0.6980  0.1847 -0.4552
  437MOL0     N58877   0.875   8.212   6.822  0.0426  0.3673  0.5436
  437MOL0     C58878   0.755   8.199   6.893 -0.5452 -0.0259 -1.1070
  437MOL0     C58879   0.774   8.280   7.004  1.0097 -0.1353  0.4486
  437MOL0     C58880   0.663   8.304   7.108 -0.5101 -0.6152  0.1707
  437MOL0     C58881   0.564   8.399   7.049 -0.5548  0.1838  0.5261
  437MOL0     C58882   0.426   8.340   7.071  0.3773 -0.7478 -0.0035
  437MOL0     C58883   0.364   8.361   7.206  0.4854 -0.1509  0.4176
  437MOL0     O58884   0.245   8.273   7.219  0.8915  0.0891 -1.0453
  437MOL0     C58885   0.222   8.243   7.350 -0.0143 -0.0349 -0.8372
  437MOL0     C58886   0.217   8.343   7.444  0.4977 -0.4819  0.1807
  437MOL0     C58887   0.180   8.316   7.581 -1.4173  1.0014  0.2036
  437MOL0     C58888   0.167   8.184   7.624 -0.6355 -0.3196 -0.0607
  437MOL0     C58889   0.136   8.155   7.764  0.9725 -0.8244 -0.1088
  437MOL0     O58890   0.127   8.028   7.817 -0.4018 -0.4950  0.1117
  437MOL0     C58891   0.117   8.003   7.954  0.7899 -0.3600  0.2699
  437MOL0     C58892   0.204   7.913   8.015  0.1763  0.7418 -0.9356
  437MOL0     C58893   0.198   7.885   8.152 -0.2334  0.1173  0.1576
  437MOL0     C58894   0.103   7.954   8.228  0.3145 -0.4672 -0.6216
  437MOL0     O58895   0.099   7.956   8.367  0.1843 -0.4515  0.9741
  437MOL0     C58896   0.202   7.891   8.442  0.5082 -0.6169 -0.4294
  437MOL0     C58897   0.213   7.919   8.589 -0.1046  0.0177 -1.1308
  437MOL0     C58898   0.295   7.821   8.680 -0.0214  0.5200 -0.5577
  437MOL0     C58899   0.307   7.900   8.809  0.8041  0.7851 -0.0014
  437MOL0     C58900   0.337   7.823   8.937 -0.8738 -0.9454  0.3485
  437MOL0     C58901   0.372   7.926   9.056 -0.2655  1.3658 -0.2052
  437MOL0     C58902   0.417   7.857   9.184 -0.7147 -1.4754 -0.2673
  437MOL0     C58903   0.333   7.758   9.261  0.3741  0.1801 -0.2269
  437MOL0    Cl58904   0.174   7.813   9.305 -0.0866 -0.1270  0.0116
  437MOL0     C58905   0.012   8.046   8.161 -0.9070  0.9196 -0.9636
  437MOL0     C58906   0.007   8.050   8.029 -0.0782  0.0571 -0.5005
  437MOL0     O58907   0.116   8.254   7.839  0.6296  0.1877  0.2211
  437MOL0     C58908   0.171   8.081   7.528  0.6653 -0.2709 -0.1561
  437MOL0     C58909   0.199   8.111   7.396  0.1198  0.4691  0.5761
  437MOL0     N58910   0.889   8.338   6.995 -0.5651 -0.0960 -0.8926
  437MOL0     N58911   0.958   8.305   6.887  0.6059  0.5552  1.3722
  437MOL0     C58912   0.220   7.790   6.007 -0.2751 -0.4785  0.5731
  437MOL0     C58913   0.167   7.821   5.883  0.0463  0.1094  0.2205
  437MOL0     C58914   0.077   8.084   5.492 -0.2769  0.1551  0.5397
  437MOL0     C58915  -0.030   7.988   5.483 -0.0975 -0.8110 -0.6506
  437MOL0     C58916  -0.144   8.001   5.409 -0.2497  0.0641 -0.3066
  437MOL0     C58917  -0.148   8.114   5.318  0.4175 -0.3309 -0.9553
  437MOL0     O58918  -0.266   8.152   5.251  0.0439  0.0039 -0.0776
  437MOL0     C58919  -0.386   8.076   5.256 -0.2815 -1.1844  0.5004
  437MOL0     C58920  -0.465   8.078   5.119 -0.7329 -0.6676  0.3115
  437MOL0     C58921  -0.515   8.224   5.089  0.2672 -0.2641  0.3832
  437MOL0     C58922  -0.594   8.230   4.961 -0.5901  0.1798  0.7470
  437MOL0     C58923  -0.734   8.198   4.986  0.0968  0.1429  0.7624
  437MOL0     C58924  -0.852   8.173   5.007  0.7175 -0.3922 -1.0655
  437MOL0     C58925  -0.039   8.200   5.312 -1.1297 -0.2727  0.5242
  437MOL0     C58926   0.076   8.189   5.390  0.1118  0.4853 -0.5456
  437MOL0     C58927   0.179   8.302   5.374 -0.3362  0.7107  0.2605
  437MOL0     H58928   0.399   8.064   5.811 -0.2913  1.5557  4.3084
  437MOL0     H58929   0.471   8.011   6.005  1.1816 -2.4068  3.3167
  437MOL0     H58930   0.498   7.826   6.328 -0.6729  0.0601 -0.7049
  437MOL0     H58931   0.569   7.866   6.169  3.2306 -0.3914  3.3867
  437MOL0     H58932   0.416   8.038   6.380  1.7206  2.3100  0.3858
  437MOL0     H58933   0.437   8.098   6.214  1.4150 -0.1773 -0.6867
  437MOL0     H58934   0.621   8.183   6.335  2.6907 -1.1309 -0.9406
  437MOL0     H58935   0.677   8.065   6.227  1.6450  0.6106  0.6589
  437MOL0     H58936   0.655   8.030   6.545  2.0184 -1.2747  1.4313
  437MOL0     H58937   0.661   7.894   6.443 -1.2712  0.5899 -1.2547
  437MOL0     H58938   0.872   7.935   6.499  2.3509 -1.6761 -2.0987
  437MOL0     H58939   0.855   7.968   6.338 -0.7407 -4.3818  1.9676
  437MOL0     H58940   0.990   8.147   6.428  0.3622  0.8856  0.9728
  437MOL0     H58941   0.846   8.214   6.361  1.4922  1.0892 -0.4950
  437MOL0     H58942   0.755   8.254   6.588  0.0078  2.3663 -0.9983
  437MOL0     H58943   0.914   8.328   6.574 -0.7255  1.0082  1.3727
  437MOL0     H58944   0.860   8.053   6.687 -0.9630  1.0215 -0.8386
  437MOL0     H58945   1.019   8.148   6.701  0.7054 -2.0738 -0.5014
  437MOL0     H58946   0.661   8.151   6.866 -0.5421 -0.7496  0.1413
  437MOL0     H58947   0.619   8.209   7.142  1.8422 -1.1591  2.0216
  437MOL0     H58948   0.681   8.349   7.206  0.1860 -2.0134  0.7204
  437MOL0     H58949   0.557   8.486   7.115 -1.1852  0.2763  0.3374
  437MOL0     H58950   0.592   8.428   6.948  1.0325  3.5208  1.7720
  437MOL0     H58951   0.424   8.233   7.049  2.3626 -0.9538  0.6617
  437MOL0     H58952   0.354   8.397   7.011  0.7366  2.5747  2.4423
  437MOL0     H58953   0.329   8.463   7.222 -0.5284 -0.1302 -1.6183
  437MOL0     H58954   0.437   8.332   7.282 -1.6665 -0.2868  2.5441
  437MOL0     H58955   0.210   8.445   7.407  0.2514  0.3039  2.2669
  437MOL0     H58956   0.151   8.395   7.649 -4.4874  1.1110 -1.0781
  437MOL0     H58957   0.281   7.870   7.951 -0.0122  1.1001 -1.4096
  437MOL0     H58958   0.266   7.819   8.205  0.1789  1.2364  1.0770
  437MOL0     H58959   0.183   7.785   8.427  0.1109 -0.8422  1.3512
  437MOL0     H58960   0.297   7.914   8.394  1.3652  0.3894  1.5835
  437MOL0     H58961   0.254   8.020   8.595  2.1439 -0.9157  1.1864
  437MOL0     H58962   0.110   7.916   8.626  0.8531 -0.2558  1.7592
  437MOL0     H58963   0.249   7.722   8.690 -4.1705  2.1687 -1.0728
  437MOL0     H58964   0.394   7.798   8.641 -0.7916  0.1582 -2.4148
  437MOL0     H58965   0.215   7.955   8.831 -0.9023 -2.3619  1.4671
  437MOL0     H58966   0.388   7.973   8.797  0.1421  1.5952  0.3535
  437MOL0     H58967   0.418   7.751   8.924 -0.4336 -0.6777  1.5147
  437MOL0     H58968   0.239   7.784   8.969 -1.3769  0.5077  0.6476
  437MOL0     H58969   0.445   8.002   9.026  0.8254  0.5573  0.3806
  437MOL0     H58970   0.286   7.991   9.076  0.7129  1.4977  4.6056
  437MOL0     H58971   0.430   7.937   9.259  1.9029 -4.1952  2.4727
  437MOL0     H58972   0.513   7.809   9.161 -0.3537 -0.5407 -0.7928
  437MOL0     H58973   0.306   7.669   9.204 -1.1615  0.4127  0.0870
  437MOL0     H58974   0.394   7.718   9.342  1.7060 -2.0161 -2.1799
  437MOL0     H58975  -0.063   8.092   8.224  0.9028  1.1127  1.1942
  437MOL0     H58976  -0.058   8.126   7.985  0.2086  0.6043 -0.0007
  437MOL0     H58977   0.142   7.978   7.548 -0.7285 -0.2199 -1.6653
  437MOL0     H58978   0.209   8.035   7.318 -2.3946  0.8620 -0.2116
  437MOL0     H58979   0.175   7.706   6.060  0.6841 -1.9949 -0.9325
  437MOL0     H58980   0.072   7.778   5.853 -1.2393  3.0382 -0.2647
  437MOL0     H58981  -0.016   7.900   5.545 -1.1928 -1.3952 -1.1876
  437MOL0     H58982  -0.229   7.938   5.435 -1.5944  2.6511  2.2425
  437MOL0     H58983  -0.452   8.124   5.330 -0.2434  2.0404 -1.3697
  437MOL0     H58984  -0.365   7.970   5.271 -1.1337 -1.3190  0.8146
  437MOL0     H58985  -0.548   8.009   5.133 -3.1239  2.1192  0.6796
  437MOL0     H58986  -0.397   8.040   5.041  0.1657 -0.8340  1.1557
  437MOL0     H58987  -0.423   8.283   5.081 -0.7116  1.3662  0.4848
  437MOL0     H58988  -0.576   8.256   5.174  0.7146  4.7400 -0.8510
  437MOL0     H58989  -0.579   8.330   4.919  1.7463 -0.1830  0.6188
  437MOL0     H58990  -0.553   8.158   4.890 -0.9472  0.0690  0.6473
  437MOL0     H58991  -0.957   8.164   5.023  0.4700 -0.3131 -2.5073
  437MOL0     H58992  -0.065   8.290   5.256  0.8766 -0.2385 -0.4529
  437MOL0     H58993   0.203   8.340   5.473  0.7691  1.2774 -0.2043
  437MOL0     H58994   0.278   8.271   5.341 -0.9395  1.1801 -2.1999
  437MOL0     H58995   0.142   8.390   5.321  0.9839  1.3360  0.3358
  438MOL0     O58996   6.051   6.248   2.861 -0.2708  0.1321  0.0971
  438MOL0     C58997   5.975   6.339   2.832  0.8965 -0.4867 -0.3757
  438MOL0     O58998   6.013   6.463   2.767  0.3432 -0.3746 -0.3296
  438MOL0     C58999   6.146   6.496   2.754  0.2695  0.4596  0.4407
  438MOL0     C59000   6.239   6.500   2.860 -0.0611  0.8062 -0.6380
  438MOL0     C59001   6.364   6.546   2.845 -0.2457  0.5674  0.9256
  438MOL0     C59002   6.405   6.602   2.719 -0.7550 -0.7987  0.6472
  438MOL0     O59003   6.534   6.658   2.713  0.3515  0.4801 -0.2844
  438MOL0     C59004   6.591   6.715   2.592  0.4161 -0.3926 -0.8910
  438MOL0     C59005   6.739   6.713   2.633  0.0005 -0.1644  0.4593
  438MOL0     C59006   6.831   6.752   2.518  0.2161  0.0058 -0.6978
  438MOL0     C59007   6.982   6.732   2.542  0.6905 -1.0759  0.8656
  438MOL0     C59008   7.070   6.776   2.418  0.0743 -0.0582  0.1566
  438MOL0     C59009   7.086   6.661   2.313 -0.6836 -0.5565 -0.3798
  438MOL0     C59010   7.172   6.698   2.196 -0.2173  0.1270  0.2696
  438MOL0     C59011   7.105   6.795   2.102  0.9691 -0.0296 -0.0417
  438MOL0     N59012   7.168   6.801   1.976 -0.2216  0.3071  0.1526
  438MOL0     C59013   7.255   6.901   1.928  0.5179 -0.4348 -0.1432
  438MOL0     C59014   7.272   6.874   1.794 -0.1511  0.5035  0.2019
  438MOL0     C59015   7.384   6.941   1.710  0.5523  0.3427 -0.3239
  438MOL0     C59016   7.529   6.873   1.739 -0.1796 -0.9041 -0.3533
  438MOL0     C59017   7.581   6.881   1.884 -0.7263 -0.3400  0.8002
  438MOL0     C59018   7.734   6.842   1.887 -0.7381 -0.1556 -0.6091
  438MOL0     O59019   7.804   6.947   1.823 -1.3238  0.4389  0.3391
  438MOL0     C59020   7.946   6.934   1.803 -0.1317  0.2381  0.9199
  438MOL0     C59021   8.022   6.816   1.834  0.5893 -0.5355  0.5004
  438MOL0     C59022   8.159   6.811   1.826  0.1022 -1.3280 -0.1806
  438MOL0     C59023   8.225   6.922   1.771 -0.0427 -0.6235  0.5677
  438MOL0     C59024   8.371   6.919   1.780 -0.2180  0.3525  0.3416
  438MOL0     O59025   8.435   7.024   1.726 -0.9213  0.5268  0.8158
  438MOL0     C59026   8.573   7.034   1.733  0.2472  0.6095  0.0626
  438MOL0     C59027   8.631   7.072   1.851 -1.0481 -0.3931 -0.5361
  438MOL0     C59028   8.764   7.084   1.870  0.1105 -0.2705 -0.4888
  438MOL0     C59029   8.855   7.052   1.769  0.1268 -0.2670  1.1851
  438MOL0     O59030   8.986   7.082   1.791 -0.1515  0.2504 -0.4078
  438MOL0     C59031   9.073   7.058   1.680  0.1478  0.2402 -0.5666
  438MOL0     C59032   9.210   7.120   1.721 -0.7676  0.2594  0.7376
  438MOL0     C59033   9.264   7.067   1.852 -0.1423  0.1465 -0.0521
  438MOL0     C59034   9.382   6.971   1.839  0.0973 -0.5257 -0.4046
  438MOL0     C59035   9.479   6.954   1.961  0.2108 -0.6756 -0.3458
  438MOL0     C59036   9.593   6.856   1.932 -0.4972 -0.7720  0.4554
  438MOL0     C59037   9.719   6.902   1.851  0.4208  0.1736 -0.6677
  438MOL0     C59038   9.837   6.821   1.900  0.0485  0.2668  0.9441
  438MOL0    Cl59039   9.906   6.901   2.045 -0.0136  0.0534  0.1429
  438MOL0     C59040   8.798   7.013   1.647  0.0976  1.1189 -0.3960
  438MOL0     C59041   8.660   6.995   1.627  0.5875 -0.1016 -0.6279
  438MOL0     O59042   8.425   6.822   1.835 -0.3602 -0.4302 -0.5523
  438MOL0     C59043   8.149   7.023   1.712 -0.1780  0.5268  0.4603
  438MOL0     C59044   8.014   7.034   1.734  0.3669 -0.4787  0.7992
  438MOL0     N59045   7.205   6.759   1.760  0.3696 -0.4647 -0.0018
  438MOL0     N59046   7.145   6.717   1.871  0.9511 -0.1296  0.3225
  438MOL0     C59047   6.305   6.622   2.624 -0.7739  0.0811  0.1063
  438MOL0     C59048   6.171   6.560   2.634 -1.1019  0.5662  0.2061
  438MOL0     C59049   5.819   6.320   2.831 -0.6379 -0.5926 -0.1012
  438MOL0     C59050   5.740   6.397   2.742 -0.2384  0.7759  0.5369
  438MOL0     C59051   5.604   6.363   2.736 -1.0832  0.0410 -0.5197
  438MOL0     C59052   5.543   6.282   2.819  1.0897 -0.5395 -0.1595
  438MOL0     O59053   5.407   6.245   2.825 -0.7350  0.1942  0.1117
  438MOL0     C59054   5.348   6.226   2.701 -0.3293 -0.0483 -0.1048
  438MOL0     C59055   5.215   6.148   2.721  0.9762  0.2564  1.0875
  438MOL0     C59056   5.245   6.002   2.757  0.3467  0.5488  0.9163
  438MOL0     C59057   5.263   5.896   2.638  0.7875  0.0761  0.5928
  438MOL0     C59058   5.268   5.760   2.686 -0.5299  0.0683  0.2731
  438MOL0     C59059   5.280   5.639   2.727 -0.4038 -1.3367 -0.0236
  438MOL0     C59060   5.618   6.225   2.914 -0.0670  1.2030 -0.1950
  438MOL0     C59061   5.752   6.241   2.928  0.0286  0.3147  1.1023
  438MOL0     C59062   5.827   6.150   3.029 -0.6518  0.8109  0.5587
  438MOL0     H59063   6.208   6.472   2.960  1.4035 -0.6679 -0.5386
  438MOL0     H59064   6.428   6.550   2.933 -1.5435 -1.3377  2.0464
  438MOL0     H59065   6.571   6.647   2.508 -0.4656 -2.8319  1.1776
  438MOL0     H59066   6.541   6.812   2.581  0.5946 -0.3986 -1.8959
  438MOL0     H59067   6.744   6.611   2.674 -1.3140 -0.3923  0.0965
  438MOL0     H59068   6.753   6.774   2.723 -0.2299  0.0803  0.3312
  438MOL0     H59069   6.805   6.855   2.490 -2.0590 -0.8888 -2.1945
  438MOL0     H59070   6.799   6.683   2.439 -0.5495 -2.3962  1.5533
  438MOL0     H59071   7.007   6.802   2.622  0.5764 -1.8191  1.5743
  438MOL0     H59072   7.004   6.630   2.577  0.6515 -1.6602 -0.7564
  438MOL0     H59073   7.036   6.872   2.379 -1.0069  0.3588  1.9888
  438MOL0     H59074   7.172   6.784   2.457  0.5310  2.1396 -1.3105
  438MOL0     H59075   7.128   6.576   2.367  3.6368  0.7131 -1.3063
  438MOL0     H59076   6.987   6.642   2.271  1.0688 -1.0102 -4.7598
  438MOL0     H59077   7.209   6.609   2.143 -0.9573 -1.1553  1.8106
  438MOL0     H59078   7.262   6.753   2.226  0.4173 -0.5354 -0.3638
  438MOL0     H59079   7.003   6.763   2.076  0.1965  1.8515  0.5375
  438MOL0     H59080   7.095   6.895   2.145 -2.4090 -0.4001  0.2983
  438MOL0     H59081   7.287   6.976   2.000  1.1062 -1.5543  0.7881
  438MOL0     H59082   7.362   6.937   1.603 -1.9270 -0.2494  0.1315
  438MOL0     H59083   7.389   7.049   1.723 -0.5532  0.2322  1.4184
  438MOL0     H59084   7.518   6.771   1.703 -2.2214 -2.0322  2.9965
  438MOL0     H59085   7.601   6.913   1.667  1.8105 -4.4999 -0.5526
  438MOL0     H59086   7.529   6.807   1.945  0.4776 -2.4988 -0.6249
  438MOL0     H59087   7.569   6.983   1.919  0.8350  0.7855 -1.6325
  438MOL0     H59088   7.749   6.753   1.827 -2.3044 -0.5873 -0.4075
  438MOL0     H59089   7.770   6.832   1.990 -1.3644  1.0395 -0.2570
  438MOL0     H59090   7.969   6.729   1.871 -4.4458  1.6351 -0.8006
  438MOL0     H59091   8.208   6.715   1.837  2.0286 -0.5578 -1.4268
  438MOL0     H59092   8.557   7.081   1.931 -0.4918  0.5498 -0.1154
  438MOL0     H59093   8.801   7.122   1.965  1.8769  2.0202 -1.9536
  438MOL0     H59094   9.090   6.951   1.660 -0.6388 -0.3412  1.5329
  438MOL0     H59095   9.043   7.118   1.595  3.2959  1.2451 -1.0953
  438MOL0     H59096   9.280   7.115   1.636 -2.2735  1.7239 -0.6773
  438MOL0     H59097   9.201   7.228   1.737  2.9054  0.8159 -0.1102
  438MOL0     H59098   9.310   7.150   1.906 -0.5043  1.0971 -1.1732
  438MOL0     H59099   9.187   7.034   1.923  0.7989  2.1549  2.0154
  438MOL0     H59100   9.434   7.019   1.756 -0.9352  0.3878 -0.5625
  438MOL0     H59101   9.335   6.877   1.809  0.0874 -0.3935 -0.8129
  438MOL0     H59102   9.418   6.920   2.046  0.2676 -0.6433 -0.2923
  438MOL0     H59103   9.515   7.053   1.988  0.1373 -1.6526  4.0577
  438MOL0     H59104   9.635   6.824   2.028  0.6432 -0.7037 -0.0143
  438MOL0     H59105   9.544   6.769   1.887 -2.0650 -1.0666  2.5459
  438MOL0     H59106   9.735   7.010   1.843 -1.5987  0.4200 -2.1515
  438MOL0     H59107   9.689   6.884   1.747 -0.0780  1.4617 -0.7729
  438MOL0     H59108   9.806   6.716   1.911 -0.5904  0.5319  1.8245
  438MOL0     H59109   9.909   6.816   1.819 -1.6814  2.3031 -0.8210
  438MOL0     H59110   8.846   7.006   1.550  1.5126  3.7755  0.0220
  438MOL0     H59111   8.610   6.951   1.540 -1.5030 -0.2110  0.5517
  438MOL0     H59112   8.197   7.110   1.666  1.0942 -0.4598 -0.1379
  438MOL0     H59113   7.955   7.114   1.690 -0.9324 -2.1958 -0.7863
  438MOL0     H59114   6.329   6.679   2.535 -1.6633 -0.4780 -0.5118
  438MOL0     H59115   6.094   6.581   2.561 -0.4972  1.9630 -0.0718
  438MOL0     H59116   5.782   6.470   2.674  0.1332 -0.6032 -0.7583
  438MOL0     H59117   5.554   6.417   2.656 -0.7755 -2.1750 -2.3312
  438MOL0     H59118   5.419   6.174   2.636 -1.7495 -0.0016 -1.7735
  438MOL0     H59119   5.319   6.321   2.657 -0.4451 -0.8339 -1.8135
  438MOL0     H59120   5.160   6.152   2.626 -2.5316 -0.1223  2.9330
  438MOL0     H59121   5.149   6.179   2.803 -1.1023 -0.0363 -0.3851
  438MOL0     H59122   5.171   5.962   2.828  0.3771 -0.3006  0.4859
  438MOL0     H59123   5.338   5.996   2.814  1.1062 -0.1560 -0.3349
  438MOL0     H59124   5.184   5.897   2.563  2.3126  0.7349 -1.0904
  438MOL0     H59125   5.354   5.931   2.588  0.0752 -2.1953 -2.6373
  438MOL0     H59126   5.276   5.541   2.769  0.6802 -0.7552  1.5263
  438MOL0     H59127   5.568   6.158   2.982  0.5699  0.7134 -0.2063
  438MOL0     H59128   5.837   6.056   2.974 -4.6409 -0.3812  1.5430
  438MOL0     H59129   5.924   6.188   3.064 -1.8684  2.8516  1.9066
  438MOL0     H59130   5.766   6.096   3.101 -2.9656 -2.4090 -3.3756
  439MOL0     O59131   2.272   6.631   2.545 -0.6264 -0.3964  0.3802
  439MOL0     C59132   2.323   6.587   2.650 -0.8450 -0.3398  0.5520
  439MOL0     O59133   2.348   6.664   2.768 -0.3484  0.5847  0.1395
  439MOL0     C59134   2.389   6.784   2.732  0.1975 -0.2466  0.3960
  439MOL0     C59135   2.297   6.886   2.746 -0.6345  0.7205  0.6117
  439MOL0     C59136   2.333   7.014   2.724  0.1182 -0.0290 -0.1561
  439MOL0     C59137   2.467   7.046   2.679  1.3916  0.3178 -0.1963
  439MOL0     O59138   2.494   7.178   2.659  0.3679  0.9393  0.3120
  439MOL0     C59139   2.628   7.211   2.648  0.1375  0.3123  0.3799
  439MOL0     C59140   2.694   7.177   2.511  0.0800  0.2478 -0.6182
  439MOL0     C59141   2.847   7.168   2.536 -0.4080  0.3090 -0.0101
  439MOL0     C59142   2.916   7.093   2.417  0.1247  1.5631  0.8713
  439MOL0     C59143   3.069   7.074   2.438  0.0862  0.0588  0.5992
  439MOL0     C59144   3.147   7.189   2.482  0.1385 -0.4406 -0.4561
  439MOL0     C59145   3.137   7.316   2.390  1.0581  0.1290 -0.4746
  439MOL0     C59146   3.215   7.443   2.445 -0.6313  0.1722 -0.5023
  439MOL0     N59147   3.221   7.558   2.352 -0.5909 -0.3943 -0.9409
  439MOL0     C59148   3.111   7.625   2.308  0.5176  0.1388 -0.9232
  439MOL0     C59149   3.160   7.699   2.207  0.8313  0.6434  0.2986
  439MOL0     C59150   3.077   7.800   2.137 -0.0652 -0.2573  0.9913
  439MOL0     C59151   3.134   7.862   2.012 -0.4047  0.1857  0.4238
  439MOL0     C59152   3.110   7.774   1.894 -0.0101 -0.2715  0.5497
  439MOL0     C59153   3.225   7.677   1.868  0.1549 -0.6767  0.3409
  439MOL0     O59154   3.192   7.616   1.739 -0.3887  0.0281 -0.4855
  439MOL0     C59155   3.281   7.527   1.685 -0.4731 -0.1458  0.1420
  439MOL0     C59156   3.237   7.469   1.565  0.5813  0.1541 -0.1253
  439MOL0     C59157   3.319   7.377   1.499  1.2578  0.7945 -0.2761
  439MOL0     C59158   3.447   7.342   1.554  1.0789  0.2697 -0.0598
  439MOL0     C59159   3.531   7.241   1.490  0.1683  1.1746  0.8228
  439MOL0     O59160   3.645   7.194   1.555 -0.4668  0.2591  0.5921
  439MOL0     C59161   3.731   7.110   1.493 -0.4948 -0.3787  0.7452
  439MOL0     C59162   3.701   6.973   1.475 -0.2715  0.2956 -0.8905
  439MOL0     C59163   3.805   6.881   1.427 -0.7449 -0.0255 -0.5963
  439MOL0     C59164   3.927   6.932   1.380 -0.9943 -0.2291  0.2973
  439MOL0     O59165   4.010   6.853   1.303  0.1917  0.7346  0.5774
  439MOL0     C59166   4.149   6.880   1.291  0.3912  0.6396 -0.0690
  439MOL0     C59167   4.219   6.767   1.213  0.1140 -0.4341  0.3380
  439MOL0     C59168   4.250   6.646   1.296 -0.4500  0.0239  0.3911
  439MOL0     C59169   4.296   6.527   1.214  0.2189 -0.6886 -0.5340
  439MOL0     C59170   4.275   6.393   1.296 -0.3147  0.3645  0.3754
  439MOL0     C59171   4.350   6.274   1.227 -0.0688  0.0206  1.1137
  439MOL0     C59172   4.299   6.257   1.082  0.1581 -0.0475  0.2211
  439MOL0     C59173   4.364   6.143   1.007  0.6171 -0.6545  0.0204
  439MOL0    Cl59174   4.322   5.982   1.074 -0.2144 -0.1457 -0.3097
  439MOL0     C59175   3.958   7.068   1.397  0.1881  0.5616 -0.7256
  439MOL0     C59176   3.862   7.152   1.461 -0.4849 -0.1484 -0.0373
  439MOL0     O59177   3.508   7.220   1.374  0.3218  0.3136  0.5342
  439MOL0     C59178   3.491   7.402   1.672  0.0496 -0.0997 -0.4417
  439MOL0     C59179   3.405   7.486   1.740 -0.9912  0.0625  0.5706
  439MOL0     N59180   3.289   7.655   2.176 -0.3424 -0.5223  0.1962
  439MOL0     N59181   3.321   7.575   2.267  1.0654 -0.6845  0.4470
  439MOL0     C59182   2.559   6.949   2.670 -0.1200  0.7594  0.0153
  439MOL0     C59183   2.519   6.816   2.695 -0.0278 -0.0950 -0.9458
  439MOL0     C59184   2.348   6.438   2.647 -0.8954 -0.9129  0.8210
  439MOL0     C59185   2.295   6.367   2.753 -0.3857 -0.9665  0.9137
  439MOL0     C59186   2.324   6.227   2.770 -0.3471 -0.6275  0.0552
  439MOL0     C59187   2.406   6.157   2.675  0.6313 -0.1539 -0.9257
  439MOL0     O59188   2.429   6.025   2.705 -0.3045 -0.2715 -0.6283
  439MOL0     C59189   2.550   5.981   2.642 -0.5225  0.0199 -0.1704
  439MOL0     C59190   2.585   5.826   2.660 -0.6976  0.5825  0.2536
  439MOL0     C59191   2.465   5.725   2.624 -0.3896 -0.7329 -0.2894
  439MOL0     C59192   2.411   5.754   2.483  1.6460 -0.5061 -0.4322
  439MOL0     C59193   2.518   5.731   2.382  0.0959  0.6168 -0.3083
  439MOL0     C59194   2.600   5.707   2.295  0.2653  0.3951 -0.4360
  439MOL0     C59195   2.454   6.229   2.561 -0.1378  0.0422 -0.8389
  439MOL0     C59196   2.426   6.365   2.547  0.1888 -0.7232  0.5805
  439MOL0     C59197   2.470   6.434   2.415 -0.8504  0.3509  1.0706
  439MOL0     H59198   2.195   6.863   2.776  0.3557 -0.8490  3.1334
  439MOL0     H59199   2.251   7.084   2.736  0.1403  0.0477 -0.4455
  439MOL0     H59200   2.634   7.320   2.653 -0.1777  0.3168  0.7028
  439MOL0     H59201   2.688   7.177   2.733 -0.8010 -0.5643  0.6985
  439MOL0     H59202   2.665   7.245   2.430  1.7579  0.7012 -0.8787
  439MOL0     H59203   2.653   7.079   2.489 -0.9538 -0.0024  2.0582
  439MOL0     H59204   2.864   7.119   2.633  1.8713 -0.9451 -0.9906
  439MOL0     H59205   2.891   7.268   2.537  1.7597 -0.6070 -0.0365
  439MOL0     H59206   2.861   7.003   2.388  2.6075  0.4879 -0.8738
  439MOL0     H59207   2.901   7.148   2.323  0.6594  1.9247  0.9868
  439MOL0     H59208   3.067   6.986   2.503 -2.7151 -0.9354 -0.6811
  439MOL0     H59209   3.114   7.035   2.347 -0.6419 -0.1175  0.3117
  439MOL0     H59210   3.104   7.218   2.579  1.2680  0.9450 -0.3204
  439MOL0     H59211   3.252   7.161   2.498 -0.1806 -0.6923  1.4185
  439MOL0     H59212   3.030   7.338   2.386  0.5179 -1.8802  1.1875
  439MOL0     H59213   3.188   7.301   2.294  4.9453 -2.0742  1.6462
  439MOL0     H59214   3.187   7.487   2.542  1.0629  0.4773 -0.1280
  439MOL0     H59215   3.318   7.411   2.459 -0.4180  1.2157  0.4961
  439MOL0     H59216   3.022   7.633   2.368  1.0265 -2.7883  0.3731
  439MOL0     H59217   2.973   7.776   2.111 -0.4722  0.4750  1.8789
  439MOL0     H59218   3.067   7.890   2.198 -0.5636 -0.6464  1.5065
  439MOL0     H59219   3.083   7.957   1.993 -2.4798 -0.7781  0.8168
  439MOL0     H59220   3.238   7.890   2.031 -0.6048  0.3363  1.3749
  439MOL0     H59221   3.093   7.837   1.807 -0.3290 -0.0652  0.7568
  439MOL0     H59222   3.023   7.710   1.914  0.1525 -0.1964  1.5487
  439MOL0     H59223   3.222   7.593   1.937 -0.7883 -1.8760 -1.1073
  439MOL0     H59224   3.326   7.719   1.869  0.9809 -2.5373 -0.4645
  439MOL0     H59225   3.143   7.511   1.529 -0.0481 -1.7332 -0.7838
  439MOL0     H59226   3.282   7.323   1.413  1.0392  1.9871 -0.9530
  439MOL0     H59227   3.607   6.924   1.500 -0.1404 -0.4748 -1.8470
  439MOL0     H59228   3.775   6.777   1.421  1.5527 -0.7931  0.2825
  439MOL0     H59229   4.166   6.976   1.243  2.9325 -0.0707 -0.7449
  439MOL0     H59230   4.194   6.878   1.390  1.8969 -3.0563 -0.6458
  439MOL0     H59231   4.156   6.746   1.126 -1.4536  1.7070  0.8823
  439MOL0     H59232   4.314   6.807   1.176  0.9386 -1.4149  1.3481
  439MOL0     H59233   4.331   6.671   1.365  0.3817 -0.5487 -0.3633
  439MOL0     H59234   4.161   6.617   1.354 -0.9891  1.5584  0.3891
  439MOL0     H59235   4.403   6.542   1.194 -0.0379  0.8322 -0.8891
  439MOL0     H59236   4.237   6.522   1.122  0.8489  0.2208 -1.0086
  439MOL0     H59237   4.169   6.369   1.305  0.1713 -2.7624 -1.0358
  439MOL0     H59238   4.313   6.402   1.399 -2.2328  1.8761  1.0006
  439MOL0     H59239   4.458   6.286   1.229 -0.1928  1.3076  0.9897
  439MOL0     H59240   4.329   6.184   1.285  0.9637 -1.1495 -0.2500
  439MOL0     H59241   4.328   6.346   1.024  1.8051 -1.6096 -1.5064
  439MOL0     H59242   4.192   6.253   1.063  0.4037  0.8749 -1.6499
  439MOL0     H59243   4.345   6.165   0.901  1.0581  2.6811  0.5231
  439MOL0     H59244   4.472   6.155   1.021  0.7977  0.6929 -2.0926
  439MOL0     H59245   4.044   7.121   1.356  0.3998  2.3325  1.8082
  439MOL0     H59246   3.892   7.255   1.482 -0.0168  0.0639 -1.6176
  439MOL0     H59247   3.592   7.376   1.703 -0.9000 -2.7511  0.7797
  439MOL0     H59248   3.438   7.540   1.828 -0.4955  3.2537 -1.3976
  439MOL0     H59249   2.666   6.951   2.652 -0.3650 -1.5164 -2.1228
  439MOL0     H59250   2.585   6.729   2.695 -1.1131 -0.9408 -1.3299
  439MOL0     H59251   2.229   6.421   2.820 -1.4077 -1.3823  0.2778
  439MOL0     H59252   2.277   6.174   2.852  1.4532  0.8090  2.0986
  439MOL0     H59253   2.635   6.046   2.665 -1.3123  0.5388  1.4572
  439MOL0     H59254   2.542   5.986   2.533  2.8196 -1.6108 -0.6084
  439MOL0     H59255   2.622   5.808   2.762 -0.4242 -0.7270 -0.0607
  439MOL0     H59256   2.665   5.799   2.591 -0.2288  0.4783  0.8328
  439MOL0     H59257   2.381   5.743   2.692  2.6415  0.4472  3.5453
  439MOL0     H59258   2.511   5.626   2.630  0.5831 -0.3609 -1.2690
  439MOL0     H59259   2.314   5.705   2.466  1.9270 -0.3641 -2.8044
  439MOL0     H59260   2.385   5.859   2.464  3.0625  0.1336  0.9673
  439MOL0     H59261   2.673   5.681   2.221 -0.5674 -0.2598 -1.0541
  439MOL0     H59262   2.511   6.179   2.483  1.0174 -0.2597  0.1776
  439MOL0     H59263   2.579   6.426   2.408 -0.9686 -2.2136  1.3288
  439MOL0     H59264   2.411   6.388   2.335  0.8811  0.9220 -0.6048
  439MOL0     H59265   2.451   6.542   2.421  1.5720  0.7958  2.1503
  440MOL0     O59266   3.998   6.598   9.982 -0.5720  0.3557  0.7178
  440MOL0     C59267   3.921   6.667   9.916 -0.0898 -0.7610 -1.2614
  440MOL0     O59268   3.967   6.775   9.837  0.3267 -0.0638 -0.7120
  440MOL0     C59269   4.101   6.821   9.840  0.4655 -0.0309  0.3006
  440MOL0     C59270   4.182   6.834   9.952  0.2185  0.1910  0.8921
  440MOL0     C59271   4.321   6.865   9.941 -0.3179  0.6203  0.4937
  440MOL0     C59272   4.368   6.913   9.820  0.4482  0.8863  0.4405
  440MOL0     O59273   4.504   6.939   9.821  0.9094 -0.5843  0.5497
  440MOL0     C59274   4.524   7.065   9.756 -0.4726  0.1204  0.3208
  440MOL0     C59275   4.658   7.128   9.815  0.2604  0.7704  0.7851
  440MOL0     C59276   4.674   7.281   9.789 -0.3019  0.3176 -0.2406
  440MOL0     C59277   4.793   7.339   9.873  1.0085  0.0843  0.5326
  440MOL0     C59278   4.808   7.479   9.828  0.0167 -0.0561 -0.0364
  440MOL0     C59279   4.810   7.572   9.953 -0.0806  0.4993  0.6715
  440MOL0     C59280   4.912   7.682   9.920 -0.4346 -1.0766 -0.0099
  440MOL0     C59281   4.902   7.802  10.016 -0.3856 -0.9484  0.6358
  440MOL0     N59282   4.881   7.769  10.158  0.7272 -1.9218 -0.4945
  440MOL0     C59283   4.985   7.768  10.249 -0.4835 -0.2452 -0.5328
  440MOL0     C59284   4.921   7.731  10.366 -0.2812 -0.4500  0.3430
  440MOL0     C59285   4.990   7.709  10.495 -0.1614 -0.8362  0.3264
  440MOL0     C59286   5.151   7.686  10.508  0.9009 -0.5812  0.3102
  440MOL0     C59287   5.199   7.541  10.480  0.3282  0.0050  0.8770
  440MOL0     C59288   5.351   7.541  10.445 -0.7105  0.2314  0.3463
  440MOL0     O59289   5.441   7.595  10.546 -0.0351 -0.2605 -0.2049
  440MOL0     C59290   5.572   7.597  10.521  0.2029  0.1801 -0.5175
  440MOL0     C59291   5.628   7.511  10.424  0.0419  1.2615  1.2777
  440MOL0     C59292   5.776   7.514  10.410  0.3593  0.7244 -0.5486
  440MOL0     C59293   5.862   7.595  10.481  0.2040 -0.1631 -0.1311
  440MOL0     C59294   6.004   7.602  10.456  0.1400 -0.3753 -0.6510
  440MOL0     O59295   6.079   7.688  10.534  0.6941 -0.1794  0.7742
  440MOL0     C59296   6.210   7.692  10.499 -0.2802 -0.3842 -0.1398
  440MOL0     C59297   6.264   7.809  10.441 -0.8260  0.2247 -0.0229
  440MOL0     C59298   6.399   7.814  10.402 -0.7091  0.7835 -0.3686
  440MOL0     C59299   6.491   7.705  10.422 -0.2615 -0.9755  0.6851
  440MOL0     O59300   6.630   7.730  10.407 -0.3373 -0.1820 -0.2225
  440MOL0     C59301   6.686   7.858  10.440 -0.1715 -0.5838 -0.7456
  440MOL0     C59302   6.658   7.905  10.586 -0.1763  0.0401  0.2775
  440MOL0     C59303   6.760   7.834  10.678 -0.4972  0.2097 -0.2156
  440MOL0     C59304   6.774   7.889  10.828 -0.3376  0.4428  1.0970
  440MOL0     C59305   6.850   8.017  10.821 -0.3436 -0.2119  0.3991
  440MOL0     C59306   6.866   8.084  10.961 -0.3618  0.3229 -0.2509
  440MOL0     C59307   6.930   8.223  10.949  0.7969  0.6394 -0.3689
  440MOL0     C59308   7.060   8.248  11.031 -0.7247  0.2127 -0.2890
  440MOL0    Cl59309   7.184   8.147  10.966 -0.1648 -0.3179 -0.0165
  440MOL0     C59310   6.436   7.585  10.466  0.2231  0.4727 -1.2283
  440MOL0     C59311   6.298   7.583  10.507 -0.7619 -0.1394 -0.1570
  440MOL0     O59312   6.047   7.540  10.360  0.4004 -0.3401 -0.4694
  440MOL0     C59313   5.792   7.681  10.573  0.3568 -0.5210 -0.2368
  440MOL0     C59314   5.652   7.687  10.591 -0.3553 -1.2189 -0.1481
  440MOL0     N59315   4.779   7.734  10.350  0.4200  0.4782  0.6177
  440MOL0     N59316   4.763   7.746  10.222  0.4899  0.3038 -0.5522
  440MOL0     C59317   4.283   6.917   9.701 -0.2386  0.2797 -0.3280
  440MOL0     C59318   4.148   6.866   9.716 -0.1960 -0.6867  0.5115
  440MOL0     C59319   3.779   6.653   9.932  0.4846 -0.3633  0.1806
  440MOL0     C59320   3.709   6.692   9.821  0.0738 -1.7379 -0.5571
  440MOL0     C59321   3.564   6.690   9.824 -0.3283 -0.4116  0.0444
  440MOL0     C59322   3.494   6.632   9.933 -0.1245 -0.7884 -0.0100
  440MOL0     O59323   3.364   6.605   9.919 -0.3570 -1.0052 -0.4572
  440MOL0     C59324   3.317   6.503  10.014 -0.8195  1.1147  0.3435
  440MOL0     C59325   3.363   6.368   9.970 -0.4932  0.2540  0.3507
  440MOL0     C59326   3.320   6.340   9.823 -0.3625  0.8288 -0.8415
  440MOL0     C59327   3.327   6.192   9.781 -0.0691 -0.1772 -0.1826
  440MOL0     C59328   3.304   6.157   9.635  0.6972  1.1400 -0.5371
  440MOL0     C59329   3.259   6.157   9.522  0.3603 -0.0495  0.2272
  440MOL0     C59330   3.575   6.599  10.041 -0.0031  0.3044 -0.2697
  440MOL0     C59331   3.714   6.613  10.045 -0.1837  0.6144  0.3831
  440MOL0     C59332   3.778   6.554  10.164 -0.8070 -0.4179 -1.0414
  440MOL0     H59333   4.136   6.809  10.047  0.1134  2.7163  1.5924
  440MOL0     H59334   4.385   6.871  10.028  0.8524  0.3413 -0.3121
  440MOL0     H59335   4.542   7.069   9.648 -3.3134  1.1611 -0.2032
  440MOL0     H59336   4.445   7.136   9.782 -0.7228  0.4562 -1.2935
  440MOL0     H59337   4.741   7.081   9.762 -2.2319 -1.6993 -1.2075
  440MOL0     H59338   4.659   7.103   9.922 -5.1948 -3.2250  0.3596
  440MOL0     H59339   4.588   7.337   9.827  2.3616  2.0911  3.9429
  440MOL0     H59340   4.688   7.302   9.683  0.9110  0.9413  0.0360
  440MOL0     H59341   4.764   7.325   9.978  1.4854 -0.0470  0.6470
  440MOL0     H59342   4.879   7.273   9.862  0.2902 -0.6317 -1.2043
  440MOL0     H59343   4.906   7.482   9.780  0.3353  0.3780  0.6327
  440MOL0     H59344   4.729   7.517   9.763 -1.5949  0.9917  2.3807
  440MOL0     H59345   4.705   7.603   9.963 -1.0139  0.6794 -5.4339
  440MOL0     H59346   4.832   7.528  10.050  0.3084  2.3588  1.4609
  440MOL0     H59347   4.887   7.724   9.822  0.4741 -1.0864 -0.2552
  440MOL0     H59348   5.012   7.637   9.923 -0.1605 -0.5470 -0.7022
  440MOL0     H59349   4.987   7.871  10.004 -0.0903 -1.4278 -0.0807
  440MOL0     H59350   4.811   7.853   9.982  0.3246  1.7312  2.3681
  440MOL0     H59351   5.091   7.784  10.232 -0.1557  0.0553  1.5560
  440MOL0     H59352   4.957   7.793  10.557 -2.5306 -0.9253 -0.7039
  440MOL0     H59353   4.940   7.620  10.533 -0.5408 -0.8128 -0.1159
  440MOL0     H59354   5.206   7.753  10.441 -0.0728 -1.5852 -1.5914
  440MOL0     H59355   5.186   7.702  10.610 -0.3977 -1.2857  0.8926
  440MOL0     H59356   5.147   7.496  10.396  0.9048  1.8683 -0.5505
  440MOL0     H59357   5.183   7.476  10.566 -0.1749 -2.6434 -1.1087
  440MOL0     H59358   5.378   7.585  10.348  1.0567  1.3329  1.2898
  440MOL0     H59359   5.364   7.434  10.428 -2.2499  0.2087 -1.0035
  440MOL0     H59360   5.573   7.433  10.371 -1.3975  2.6190  0.6621
  440MOL0     H59361   5.837   7.440  10.359 -1.2966  0.1766 -1.8283
  440MOL0     H59362   6.202   7.898  10.443 -4.2260 -1.9292  2.2764
  440MOL0     H59363   6.432   7.909  10.362 -0.3093  0.4696 -0.7968
  440MOL0     H59364   6.795   7.846  10.432  0.0517  0.3754  0.5687
  440MOL0     H59365   6.665   7.938  10.368 -2.2785  0.9579  1.4325
  440MOL0     H59366   6.679   8.012  10.582  2.5961 -0.4832 -2.2164
  440MOL0     H59367   6.558   7.889  10.628  0.4545 -0.3920  1.6663
  440MOL0     H59368   6.744   7.725  10.676  3.4497 -0.5467 -2.2331
  440MOL0     H59369   6.860   7.837  10.633 -1.0281 -0.2501 -1.4843
  440MOL0     H59370   6.825   7.825  10.900  0.5649  0.5869  0.5969
  440MOL0     H59371   6.677   7.912  10.874  0.0491  1.2816  1.5241
  440MOL0     H59372   6.804   8.087  10.751  0.9937 -0.1791 -0.4942
  440MOL0     H59373   6.954   7.995  10.792  0.7175  0.5835  3.2142
  440MOL0     H59374   6.768   8.091  11.008 -0.1553 -0.3083  0.2867
  440MOL0     H59375   6.919   8.016  11.028  0.0031  0.4625 -0.3957
  440MOL0     H59376   6.856   8.296  10.983  2.8340  2.0445  1.2897
  440MOL0     H59377   6.963   8.240  10.846  0.7806  0.5643 -0.3866
  440MOL0     H59378   7.094   8.352  11.033  2.2743 -0.6534  2.3327
  440MOL0     H59379   7.042   8.232  11.137  0.5182 -1.6402 -0.3193
  440MOL0     H59380   6.498   7.503  10.502 -2.1260 -0.3327  1.3468
  440MOL0     H59381   6.252   7.498  10.557 -1.2324  1.0326  1.4862
  440MOL0     H59382   5.854   7.750  10.628 -0.1762 -2.2860  2.8180
  440MOL0     H59383   5.609   7.746  10.672  3.6415  1.4944  0.2870
  440MOL0     H59384   4.322   6.974   9.618  2.2991 -0.9089 -0.0459
  440MOL0     H59385   4.078   6.870   9.633  0.5924  3.0371 -0.1333
  440MOL0     H59386   3.753   6.726   9.728  0.4768 -0.7822 -0.0293
  440MOL0     H59387   3.516   6.721   9.732 -1.6809 -4.2237 -0.7164
  440MOL0     H59388   3.208   6.511  10.008 -0.6179  3.4297 -2.3532
  440MOL0     H59389   3.342   6.534  10.116  1.0206  1.3906 -0.1513
  440MOL0     H59390   3.324   6.299  10.045 -0.2515  1.8658  2.0595
  440MOL0     H59391   3.472   6.357   9.971 -0.6116 -1.1660 -0.3442
  440MOL0     H59392   3.392   6.396   9.762  1.2423  2.2573  2.1515
  440MOL0     H59393   3.215   6.370   9.810 -1.4903 -0.8116  3.1093
  440MOL0     H59394   3.432   6.165   9.796  0.6758 -0.0081 -4.0670
  440MOL0     H59395   3.249   6.141   9.839  0.6291  1.3629  2.2606
  440MOL0     H59396   3.216   6.155   9.424 -0.1964 -0.0194  0.4682
  440MOL0     H59397   3.538   6.564  10.136 -0.5658  2.3633  0.3251
  440MOL0     H59398   3.832   6.634  10.215 -1.9840 -0.0827 -0.2876
  440MOL0     H59399   3.706   6.517  10.238 -0.2838  1.0994  0.2822
  440MOL0     H59400   3.847   6.472  10.141 -1.8019 -1.2526 -1.0862
  441MOL0     O59401  10.062  10.235   9.062 -0.2226 -0.2392 -0.4962
  441MOL0     C59402  10.069  10.231   9.186 -0.2503  0.2354  0.0996
  441MOL0     O59403   9.965  10.247   9.272  0.5133  0.1897  0.0157
  441MOL0     C59404   9.844  10.267   9.211 -0.3798  0.0868 -0.8925
  441MOL0     C59405   9.740  10.182   9.241 -0.7971  0.6633  0.7703
  441MOL0     C59406   9.610  10.201   9.201 -0.6418 -0.8211  0.1974
  441MOL0     C59407   9.584  10.323   9.139  0.9654  0.4416  0.0888
  441MOL0     O59408   9.450  10.343   9.113  0.4298 -0.9501 -1.4834
  441MOL0     C59409   9.410  10.477   9.073 -0.3674 -0.6677  0.1001
  441MOL0     C59410   9.265  10.500   9.112  0.0404 -0.0846 -0.2936
  441MOL0     C59411   9.222  10.639   9.069  0.3668  0.5039  0.6595
  441MOL0     C59412   9.088  10.681   9.137 -0.2082 -0.4023 -0.1714
  441MOL0     C59413   9.008  10.789   9.057  0.3561  0.7075 -0.8373
  441MOL0     C59414   9.095  10.921   9.033 -0.2617  1.0475 -0.5049
  441MOL0     C59415   9.137  10.977   9.169  0.3126  0.3042  0.8092
  441MOL0     C59416   9.196  11.115   9.168  0.5230  0.1512  0.4398
  441MOL0     N59417   9.318  11.131   9.089 -0.1541  0.7399 -0.4475
  441MOL0     C59418   9.330  11.155   8.955  1.3473 -0.8094  0.0272
  441MOL0     C59419   9.448  11.107   8.913 -0.3125 -0.7138 -0.0455
  441MOL0     C59420   9.504  11.099   8.774  0.3589 -0.2311 -0.8230
  441MOL0     C59421   9.639  11.173   8.755  0.5888 -0.7060  0.3583
  441MOL0     C59422   9.756  11.068   8.789  0.5376 -0.7230  0.0539
  441MOL0     C59423   9.787  10.948   8.693 -0.5654 -0.1200 -0.3235
  441MOL0     O59424   9.829  11.003   8.566  0.2813 -0.6268  0.2362
  441MOL0     C59425   9.959  10.983   8.528 -0.8613 -0.5060  0.1691
  441MOL0     C59426  10.059  11.030   8.605  0.6432  0.5022 -0.6492
  441MOL0     C59427  10.189  11.003   8.569 -0.5441 -0.8682  0.9120
  441MOL0     C59428  10.224  10.929   8.453  0.7306 -0.3020 -0.3749
  441MOL0     C59429  10.360  10.907   8.408 -1.2590  0.1810  0.1187
  441MOL0     O59430  10.372  10.843   8.286 -0.8941 -0.7421 -0.0491
  441MOL0     C59431  10.501  10.817   8.241 -1.2344  0.0511  1.0103
  441MOL0     C59432  10.540  10.683   8.237 -0.6167  0.3364  0.1731
  441MOL0     C59433  10.665  10.655   8.185 -0.3135 -0.1931 -0.1006
  441MOL0     C59434  10.754  10.746   8.133  0.0265  0.1487 -0.0002
  441MOL0     O59435  10.864  10.717   8.071 -0.3124  0.1432  0.2562
  441MOL0     C59436  10.983  10.799   8.074 -0.7425  0.4445 -0.2871
  441MOL0     C59437  11.116  10.717   8.057  0.2051  0.6270  0.5041
  441MOL0     C59438  11.127  10.671   7.909 -0.4713 -0.9415 -0.2511
  441MOL0     C59439  11.205  10.784   7.833  0.2066  0.1492  0.3307
  441MOL0     C59440  11.355  10.764   7.860  0.3593 -0.2515 -0.5367
  441MOL0     C59441  11.430  10.871   7.787 -0.1522  0.8517  0.5651
  441MOL0     C59442  11.579  10.826   7.776 -0.5735 -0.8082 -0.3833
  441MOL0     C59443  11.625  10.729   7.667 -0.6287 -0.5894  0.6496
  441MOL0    Cl59444  11.548  10.768   7.511 -0.6764  0.0847  0.1540
  441MOL0     C59445  10.709  10.880   8.137  0.1589  0.3322  0.4549
  441MOL0     C59446  10.583  10.921   8.187 -0.9770 -0.5249 -0.0965
  441MOL0     O59447  10.452  10.930   8.492  0.5034 -0.2187  0.5929
  441MOL0     C59448  10.117  10.878   8.371  0.9853  0.0516 -0.2542
  441MOL0     C59449   9.987  10.914   8.408  0.2565  0.0929 -0.1448
  441MOL0     N59450   9.512  11.069   9.021 -0.0979 -0.2872  0.3108
  441MOL0     N59451   9.438  11.079   9.122  0.6880  0.1923 -0.0787
  441MOL0     C59452   9.686  10.409   9.105 -0.8985 -0.7338 -0.1131
  441MOL0     C59453   9.816  10.386   9.143 -0.5493  1.5147  0.3510
  441MOL0     C59454  10.198  10.208   9.261 -0.3779  0.1047 -0.1667
  441MOL0     C59455  10.195  10.151   9.397  0.0992 -0.0713  1.0191
  441MOL0     C59456  10.313  10.098   9.455  1.1506  0.2895  0.9085
  441MOL0     C59457  10.437  10.102   9.383  1.3849 -0.1894 -0.2114
  441MOL0     O59458  10.544  10.056   9.442  0.1103 -0.3666 -0.1187
  441MOL0     C59459  10.667  10.023   9.381 -0.4852 -0.5575 -0.6993
  441MOL0     C59460  10.756  10.140   9.353  0.2532  0.1198 -0.0098
  441MOL0     C59461  10.823  10.135   9.212  0.6226 -0.5535 -0.2783
  441MOL0     C59462  10.908  10.012   9.200  0.5919  0.5963  0.1038
  441MOL0     C59463  11.023  10.037   9.101  0.1615 -0.8262  0.5984
  441MOL0     C59464  11.106  10.040   9.017  1.2652 -0.7273 -0.4674
  441MOL0     C59465  10.440  10.165   9.262 -0.0078  0.5173 -0.0716
  441MOL0     C59466  10.321  10.217   9.200 -0.9415  0.1872  0.2603
  441MOL0     C59467  10.342  10.275   9.065  0.2094 -0.0312  0.3224
  441MOL0     H59468   9.780  10.101   9.301  2.2272  1.2738 -0.2423
  441MOL0     H59469   9.519  10.153   9.234 -2.3113  1.0829 -1.3851
  441MOL0     H59470   9.468  10.556   9.123 -1.6221  0.2349  0.1842
  441MOL0     H59471   9.422  10.494   8.966 -1.4668  1.0177  0.2114
  441MOL0     H59472   9.257  10.498   9.221  0.7913 -0.0905 -0.2357
  441MOL0     H59473   9.201  10.420   9.074  1.3693 -2.5606  2.3391
  441MOL0     H59474   9.189  10.634   8.965 -0.8979 -0.5424  1.0858
  441MOL0     H59475   9.297  10.718   9.080 -0.2798  0.8572  3.1006
  441MOL0     H59476   9.039  10.584   9.153  1.2977 -1.1923 -0.0666
  441MOL0     H59477   9.122  10.721   9.233  3.7663 -0.5581 -1.3094
  441MOL0     H59478   8.994  10.740   8.961  1.4695 -1.5320  0.0707
  441MOL0     H59479   8.912  10.818   9.101  1.4637  0.2858  2.1265
  441MOL0     H59480   9.184  10.898   8.974 -0.6501  0.1451 -0.7514
  441MOL0     H59481   9.030  10.998   8.989 -3.7766 -0.5474  1.4767
  441MOL0     H59482   9.220  10.917   9.207  3.2131  5.0028  2.6713
  441MOL0     H59483   9.060  10.965   9.246  0.7727 -3.8311  0.8882
  441MOL0     H59484   9.117  11.188   9.150 -1.5507 -1.5392  2.0863
  441MOL0     H59485   9.228  11.129   9.272  0.6338  1.2889  0.2573
  441MOL0     H59486   9.245  11.179   8.892  1.6276 -2.0196 -0.8435
  441MOL0     H59487   9.510  11.000   8.726  0.3134  0.1482 -1.6224
  441MOL0     H59488   9.429  11.155   8.718  0.2509  1.0163  0.5072
  441MOL0     H59489   9.647  11.219   8.657  0.0006 -1.1525  0.0913
  441MOL0     H59490   9.648  11.251   8.831 -1.0167 -1.6112  1.5538
  441MOL0     H59491   9.733  11.027   8.888  4.2146 -0.4290  1.1553
  441MOL0     H59492   9.857  11.108   8.800  1.1607 -2.4922  1.0263
  441MOL0     H59493   9.694  10.896   8.667 -2.6809  3.7750 -1.2788
  441MOL0     H59494   9.864  10.884   8.737  0.2251  0.2531 -1.1331
  441MOL0     H59495  10.054  11.076   8.704 -1.8286 -0.4882 -0.2611
  441MOL0     H59496  10.273  11.040   8.628  1.8876 -2.2565 -1.4352
  441MOL0     H59497  10.478  10.605   8.280  2.4762  0.0135  4.7225
  441MOL0     H59498  10.704  10.554   8.172 -4.3053 -1.8204 -1.1458
  441MOL0     H59499  10.964  10.877   8.000 -3.9607  1.5544  1.5151
  441MOL0     H59500  10.990  10.847   8.172  0.2535  0.8828 -0.5592
  441MOL0     H59501  11.207  10.772   8.082 -0.6785  1.9409  0.9043
  441MOL0     H59502  11.126  10.618   8.103  2.2713  0.1626 -0.7813
  441MOL0     H59503  11.175  10.574   7.896 -0.8950 -1.2353  0.3224
  441MOL0     H59504  11.027  10.654   7.869 -1.8140  0.2509  2.3405
  441MOL0     H59505  11.158  10.879   7.860 -0.1811  0.0432  0.0427
  441MOL0     H59506  11.192  10.775   7.725 -2.1263  0.6940  0.5006
  441MOL0     H59507  11.375  10.667   7.815  0.9410 -0.7740  0.7816
  441MOL0     H59508  11.383  10.770   7.966  0.8349  2.1183 -0.7284
  441MOL0     H59509  11.398  10.884   7.684  3.1318  3.2709 -0.2957
  441MOL0     H59510  11.415  10.960   7.848  0.2770 -0.3923  2.5912
  441MOL0     H59511  11.617  10.791   7.873 -0.4687 -1.6721 -0.7294
  441MOL0     H59512  11.626  10.924   7.765 -0.7910 -0.5885  0.5652
  441MOL0     H59513  11.731  10.735   7.642 -1.2006  1.6005 -1.6065
  441MOL0     H59514  11.590  10.629   7.697 -1.2405 -0.7810 -0.6517
  441MOL0     H59515  10.767  10.952   8.078 -0.8596  1.0681  0.3210
  441MOL0     H59516  10.571  11.029   8.185  1.4663 -0.1895 -0.1584
  441MOL0     H59517  10.131  10.826   8.277  2.4048  1.3459 -0.8172
  441MOL0     H59518   9.894  10.881   8.363  0.2416 -1.7012  1.0645
  441MOL0     H59519   9.661  10.502   9.054 -1.8789  0.3087  2.1016
  441MOL0     H59520   9.895  10.456   9.116  1.7347 -0.6764  0.9454
  441MOL0     H59521  10.095  10.144   9.439  0.1206  0.5769  1.1847
  441MOL0     H59522  10.304  10.053   9.553  1.9118  1.7546  1.6791
  441MOL0     H59523  10.664   9.956   9.295  3.3634 -0.4981 -1.0500
  441MOL0     H59524  10.723   9.969   9.459  1.8838 -0.0455 -1.9493
  441MOL0     H59525  10.837  10.146   9.426 -0.8913 -0.4617  1.3553
  441MOL0     H59526  10.698  10.232   9.357 -0.0585 -0.0598 -0.3044
  441MOL0     H59527  10.876  10.230   9.196  1.5469 -1.3181 -2.1083
  441MOL0     H59528  10.749  10.143   9.132 -1.4785 -4.3289  1.0858
  441MOL0     H59529  10.958   9.979   9.292 -0.0705 -3.8090 -0.8846
  441MOL0     H59530  10.842   9.929   9.172 -0.3486  0.7188  1.7887
  441MOL0     H59531  11.182  10.036   8.942  0.7186 -1.2691 -1.0053
  441MOL0     H59532  10.534  10.173   9.208  0.7327  4.1918  1.4517
  441MOL0     H59533  10.330  10.384   9.072 -0.1817 -0.0707  0.2840
  441MOL0     H59534  10.443  10.267   9.023 -0.5767  0.5804 -1.7864
  441MOL0     H59535  10.275  10.237   8.988 -1.8477  0.8549  1.6119
  442MOL0     O59536   0.669   9.540  10.909  0.1755 -1.0419  0.7684
  442MOL0     C59537   0.599   9.620  10.841 -0.6208 -0.2371 -0.5213
  442MOL0     O59538   0.641   9.747  10.793  0.0285  0.5107  0.0897
  442MOL0     C59539   0.776   9.775  10.790  0.0640 -0.5940  0.4509
  442MOL0     C59540   0.837   9.803  10.666  0.1975  0.0899 -0.2680
  442MOL0     C59541   0.979   9.807  10.647  0.7490 -0.3741  0.1176
  442MOL0     C59542   1.058   9.797  10.766 -0.4459  0.2361  0.4797
  442MOL0     O59543   1.199   9.798  10.759  0.3102 -0.5754 -0.7687
  442MOL0     C59544   1.268   9.768  10.635  0.3172 -0.0604  0.3510
  442MOL0     C59545   1.407   9.736  10.654  1.0912 -0.1371  0.5890
  442MOL0     C59546   1.482   9.837  10.740  0.2911  0.0544  0.2358
  442MOL0     C59547   1.631   9.831  10.705  0.0754 -0.6515 -0.4139
  442MOL0     C59548   1.708   9.711  10.763 -0.3491  0.6432 -0.0482
  442MOL0     C59549   1.742   9.717  10.911  0.4422 -0.6943  0.6044
  442MOL0     C59550   1.840   9.613  10.963 -0.0760  0.4729  0.0935
  442MOL0     C59551   1.802   9.466  10.952 -0.1113  0.4905 -0.0185
  442MOL0     N59552   1.903   9.382  11.011 -0.1918  0.3443 -0.0764
  442MOL0     C59553   1.910   9.352  11.152  0.6343 -0.7938  1.0792
  442MOL0     C59554   2.023   9.287  11.180  0.5079 -0.3761 -0.3488
  442MOL0     C59555   2.090   9.245  11.304  1.0507 -0.0303 -0.1627
  442MOL0     C59556   2.182   9.355  11.367  0.1808  0.5065 -0.6350
  442MOL0     C59557   2.181   9.348  11.521  0.1784 -0.3599 -0.3769
  442MOL0     C59558   2.270   9.445  11.595 -0.1972  0.2647  0.7804
  442MOL0     O59559   2.410   9.427  11.573 -0.2622  0.0003  0.3324
  442MOL0     C59560   2.491   9.534  11.591  0.7927 -0.4402  0.4787
  442MOL0     C59561   2.618   9.520  11.556  0.3570 -0.1176  1.2238
  442MOL0     C59562   2.710   9.626  11.558  0.2560  0.5551 -0.5189
  442MOL0     C59563   2.678   9.761  11.603  0.0366 -0.0043  0.5238
  442MOL0     C59564   2.766   9.878  11.582  0.7252 -0.2348 -0.2183
  442MOL0     O59565   2.708  10.000  11.615  0.6079 -0.6939  0.0384
  442MOL0     C59566   2.774  10.114  11.597 -0.7059  0.3346 -1.0639
  442MOL0     C59567   2.720  10.223  11.530  0.0784 -0.5879 -0.2574
  442MOL0     C59568   2.771  10.354  11.544  0.2500  0.7296  1.1075
  442MOL0     C59569   2.893  10.378  11.605 -0.2415  0.5602  0.3956
  442MOL0     O59570   2.942  10.501  11.619 -0.2080 -0.0765 -0.8107
  442MOL0     C59571   2.889  10.609  11.546  0.7839  0.2208 -1.1814
  442MOL0     C59572   2.937  10.737  11.613 -0.9042 -0.1682 -0.2666
  442MOL0     C59573   3.087  10.748  11.626  0.3439 -0.4789  0.3689
  442MOL0     C59574   3.136  10.894  11.647 -0.6007  0.8497  0.4027
  442MOL0     C59575   3.284  10.901  11.659 -0.1211 -0.1363 -0.6853
  442MOL0     C59576   3.337  11.033  11.708  0.6454  0.7398  0.3564
  442MOL0     C59577   3.488  11.046  11.684 -0.9239 -0.1092 -0.1604
  442MOL0     C59578   3.529  11.189  11.673 -0.7838 -0.5775 -0.7938
  442MOL0    Cl59579   3.488  11.288  11.822 -0.1032 -0.1493 -0.5668
  442MOL0     C59580   2.941  10.266  11.674  0.3754 -0.2789 -0.9400
  442MOL0     C59581   2.886  10.136  11.678 -0.0676  0.0902 -0.0205
  442MOL0     O59582   2.876   9.858  11.525  0.2610 -1.0938  0.4252
  442MOL0     C59583   2.546   9.766  11.650  0.5289 -0.6460  0.0122
  442MOL0     C59584   2.450   9.658  11.649  0.0789 -0.2715 -0.7252
  442MOL0     N59585   2.086   9.281  11.055 -0.0841 -0.7767 -0.3548
  442MOL0     N59586   2.021   9.331  10.954  0.9432  0.3548 -0.4199
  442MOL0     C59587   0.993   9.788  10.895  0.3678 -0.1714 -0.0771
  442MOL0     C59588   0.853   9.782  10.906  0.0803 -0.3037 -0.0789
  442MOL0     C59589   0.450   9.583  10.816  0.2052 -0.2612 -0.4125
  442MOL0     C59590   0.360   9.685  10.761  0.3653 -0.0156 -0.4710
  442MOL0     C59591   0.225   9.667  10.746  0.2221 -0.2454 -0.2448
  442MOL0     C59592   0.173   9.542  10.770  0.2031  0.8974 -0.4426
  442MOL0     O59593   0.037   9.515  10.771  0.1107  0.2245  0.1819
  442MOL0     C59594  -0.054   9.629  10.793 -0.6802  0.0492  0.9582
  442MOL0     C59595  -0.195   9.568  10.791  0.5153 -0.1053  0.2770
  442MOL0     C59596  -0.254   9.503  10.665 -0.4616 -0.4223 -0.1350
  442MOL0     C59597  -0.280   9.609  10.548  0.3754 -0.1357  0.6328
  442MOL0     C59598  -0.335   9.545  10.428 -0.0729  0.1659  0.3498
  442MOL0     C59599  -0.374   9.490  10.327 -0.0053  0.0688 -1.6394
  442MOL0     C59600   0.260   9.433  10.819 -0.6819 -0.6416 -0.3731
  442MOL0     C59601   0.396   9.452  10.843 -0.0129 -0.0238 -0.2601
  442MOL0     C59602   0.478   9.323  10.859  0.0445  0.2845  0.4559
  442MOL0     H59603   0.764   9.788  10.587  2.5913 -0.2980 -2.5677
  442MOL0     H59604   1.008   9.808  10.542 -3.4364 -1.0093 -1.2262
  442MOL0     H59605   1.217   9.684  10.587 -2.8119  2.8069 -1.8627
  442MOL0     H59606   1.268   9.846  10.558  0.3671 -2.7102 -2.5069
  442MOL0     H59607   1.439   9.715  10.551 -1.2563 -0.9810 -0.0374
  442MOL0     H59608   1.409   9.640  10.706  1.0887 -0.1149  0.6308
  442MOL0     H59609   1.470   9.828  10.848 -1.3167 -0.8185  0.0202
  442MOL0     H59610   1.441   9.937  10.721 -0.6571 -0.1931  0.9235
  442MOL0     H59611   1.637   9.831  10.596  1.6694  0.8326 -0.3750
  442MOL0     H59612   1.674   9.924  10.744  0.1294 -1.0865  0.5770
  442MOL0     H59613   1.661   9.619  10.726 -0.3445  1.5506 -2.4896
  442MOL0     H59614   1.806   9.716  10.715  1.7591 -1.7198  3.5895
  442MOL0     H59615   1.790   9.811  10.940 -1.7743  0.6379  0.1687
  442MOL0     H59616   1.646   9.717  10.965  0.0469  1.2915 -0.0205
  442MOL0     H59617   1.852   9.627  11.071 -0.0187  0.4901  0.0842
  442MOL0     H59618   1.930   9.630  10.904 -1.1690 -0.8788 -2.0915
  442MOL0     H59619   1.704   9.442  10.993 -1.3214  0.4942 -2.6778
  442MOL0     H59620   1.788   9.432  10.849 -1.7161  1.5292 -0.1728
  442MOL0     H59621   1.841   9.387  11.229 -1.1265  0.5295 -0.9883
  442MOL0     H59622   2.009   9.213  11.369  0.2022  0.4727 -0.9455
  442MOL0     H59623   2.145   9.151  11.290 -1.1915 -1.6739  1.4407
  442MOL0     H59624   2.280   9.341  11.323  0.5510  0.2216  0.2521
  442MOL0     H59625   2.151   9.454  11.332 -1.0176 -0.6612 -3.1146
  442MOL0     H59626   2.208   9.247  11.552  0.0143  0.5932  3.2609
  442MOL0     H59627   2.076   9.356  11.549  0.1134 -0.9956 -0.4391
  442MOL0     H59628   2.233   9.447  11.698 -3.4420  0.7067 -0.2649
  442MOL0     H59629   2.243   9.542  11.552 -0.5849  0.8654  2.3178
  442MOL0     H59630   2.643   9.422  11.517  1.2380 -1.1001  3.9741
  442MOL0     H59631   2.808   9.591  11.528  0.5072  0.4556  0.4033
  442MOL0     H59632   2.622  10.221  11.484 -0.9675  0.0535  1.8223
  442MOL0     H59633   2.717  10.424  11.481  0.3088 -0.1891  0.0172
  442MOL0     H59634   2.910  10.601  11.439 -0.9312  0.5759 -1.5716
  442MOL0     H59635   2.780  10.616  11.551  0.8144  0.5959 -1.0166
  442MOL0     H59636   2.906  10.824  11.554  3.5766  1.7282 -0.2430
  442MOL0     H59637   2.904  10.744  11.717 -1.0436 -1.8519 -0.1707
  442MOL0     H59638   3.111  10.687  11.714 -1.5388 -1.1066  0.4885
  442MOL0     H59639   3.120  10.703  11.532 -2.0888 -0.1055 -0.7567
  442MOL0     H59640   3.096  10.937  11.740  2.4916  0.4603  2.0298
  442MOL0     H59641   3.108  10.954  11.560 -0.0728 -2.1147 -1.9598
  442MOL0     H59642   3.338  10.873  11.568  0.5474 -0.2761 -0.2493
  442MOL0     H59643   3.319  10.824  11.728 -1.7383 -1.0136 -0.7919
  442MOL0     H59644   3.289  11.114  11.651  1.9210  0.1272 -1.6977
  442MOL0     H59645   3.322  11.051  11.815  0.8869 -1.2500  0.7636
  442MOL0     H59646   3.511  10.999  11.587 -1.2658  0.4612 -0.5245
  442MOL0     H59647   3.547  10.996  11.762  3.2206  1.2076 -2.1274
  442MOL0     H59648   3.635  11.204  11.650 -0.9830  0.1858 -1.2293
  442MOL0     H59649   3.474  11.228  11.587 -1.4790 -1.0515 -0.5712
  442MOL0     H59650   3.027  10.286  11.738  1.6703  0.8361 -2.9373
  442MOL0     H59651   2.924  10.065  11.751  1.5829  2.2608  1.3776
  442MOL0     H59652   2.497   9.860  11.675  1.4375  0.4943 -2.2248
  442MOL0     H59653   2.365   9.671  11.715  1.3117 -0.4361  0.9560
  442MOL0     H59654   1.050   9.789  10.988  2.1733 -2.8368 -1.0310
  442MOL0     H59655   0.817   9.767  11.008  0.8176 -1.0002  0.0969
  442MOL0     H59656   0.401   9.782  10.733 -0.1720  0.2454 -0.3583
  442MOL0     H59657   0.170   9.753  10.708 -0.3272 -1.3270 -2.0296
  442MOL0     H59658  -0.046   9.714  10.724 -3.4658  2.5029  3.3875
  442MOL0     H59659  -0.013   9.660  10.889 -0.7226 -2.3357  1.8163
  442MOL0     H59660  -0.262   9.650  10.819 -0.0321 -0.9824  1.6587
  442MOL0     H59661  -0.205   9.507  10.882 -2.0743  1.9682  1.5087
  442MOL0     H59662  -0.342   9.441  10.685 -0.3788 -0.5447 -0.1492
  442MOL0     H59663  -0.180   9.435  10.621  0.0526 -0.6104  0.9955
  442MOL0     H59664  -0.352   9.682  10.586  1.7469 -0.4334  4.1864
  442MOL0     H59665  -0.191   9.660  10.512  2.3559 -3.4949  0.3617
  442MOL0     H59666  -0.429   9.436  10.253  0.9488 -1.5047 -1.2409
  442MOL0     H59667   0.217   9.336  10.838  0.3150 -1.3673 -1.6857
  442MOL0     H59668   0.425   9.230  10.837  2.0413 -1.0786  1.1794
  442MOL0     H59669   0.562   9.329  10.789 -0.0729 -1.3372  0.1395
  442MOL0     H59670   0.516   9.312  10.960 -2.2782  1.6145  1.5484
  443MOL0     O59671   0.967   0.718   5.393  0.0743  0.5465 -0.0079
  443MOL0     C59672   1.000   0.614   5.347 -0.1571  0.5267 -0.0465
  443MOL0     O59673   1.129   0.559   5.327 -0.5605 -0.5466 -0.0028
  443MOL0     C59674   1.238   0.645   5.346  1.0247 -1.0756 -0.5172
  443MOL0     C59675   1.238   0.770   5.286  0.6525  0.4512 -0.7036
  443MOL0     C59676   1.346   0.853   5.291  0.3753 -0.4518 -0.7959
  443MOL0     C59677   1.470   0.805   5.340  0.2040 -0.2822 -0.0713
  443MOL0     O59678   1.579   0.889   5.360 -0.0388  0.6817  0.7009
  443MOL0     C59679   1.554   1.024   5.409  0.5253 -1.0257 -0.0761
  443MOL0     C59680   1.677   1.066   5.491  0.2499  0.5912  0.0841
  443MOL0     C59681   1.795   1.112   5.409  0.0236 -0.4221 -0.5903
  443MOL0     C59682   1.898   1.191   5.488  0.4843  0.4488  0.2032
  443MOL0     C59683   2.036   1.201   5.426 -0.8267 -0.6828 -0.1975
  443MOL0     C59684   2.104   1.320   5.484 -0.1664 -0.1723 -0.6234
  443MOL0     C59685   2.255   1.322   5.467  0.1653 -0.0554  0.0322
  443MOL0     C59686   2.322   1.197   5.515  0.2376  0.7749 -0.0019
  443MOL0     N59687   2.463   1.226   5.533  0.7084 -0.2216  0.7813
  443MOL0     C59688   2.538   1.245   5.649  1.1303 -1.5996  0.4154
  443MOL0     C59689   2.658   1.287   5.594 -0.2865 -0.0238  0.0072
  443MOL0     C59690   2.777   1.334   5.678 -0.4531 -0.1106 -0.4426
  443MOL0     C59691   2.817   1.483   5.639 -0.1561 -0.2952 -0.3284
  443MOL0     C59692   2.914   1.463   5.525 -0.2299 -0.5456  0.0606
  443MOL0     C59693   3.057   1.482   5.569  0.2004  0.5127 -0.5073
  443MOL0     O59694   3.108   1.364   5.640  0.2596  0.0327 -0.4568
  443MOL0     C59695   3.230   1.363   5.704  1.3378  0.5706  0.6700
  443MOL0     C59696   3.294   1.485   5.721  0.2801  0.0525  0.0292
  443MOL0     C59697   3.412   1.484   5.792  0.2058 -0.2321  0.5221
  443MOL0     C59698   3.468   1.367   5.862 -0.3409 -0.5163 -0.5477
  443MOL0     C59699   3.589   1.374   5.950  0.3308  0.4504 -0.1155
  443MOL0     O59700   3.644   1.492   5.980 -0.3421 -0.2504  0.3036
  443MOL0     C59701   3.758   1.500   6.057  0.7028  0.6525 -0.3348
  443MOL0     C59702   3.761   1.548   6.194 -0.3322  0.2390  0.0766
  443MOL0     C59703   3.883   1.559   6.262  0.6003  0.1972 -0.4075
  443MOL0     C59704   4.003   1.518   6.204  0.6134  0.7811  0.6096
  443MOL0     O59705   4.126   1.522   6.262  0.2111  0.4682  0.0007
  443MOL0     C59706   4.144   1.546   6.404  0.1285  0.0707  0.5379
  443MOL0     C59707   4.134   1.410   6.480 -0.4393 -0.3751  0.3196
  443MOL0     C59708   4.004   1.392   6.548 -0.4620 -0.3629 -0.1901
  443MOL0     C59709   3.989   1.486   6.671 -0.4117 -0.1549 -0.5668
  443MOL0     C59710   3.877   1.460   6.768 -1.0496  0.5257  0.0797
  443MOL0     C59711   3.737   1.494   6.717  0.0313 -0.5090 -0.1288
  443MOL0     C59712   3.736   1.647   6.701 -0.0073 -0.1032  0.6102
  443MOL0     C59713   3.601   1.689   6.648  0.5326  0.2446  0.1504
  443MOL0    Cl59714   3.561   1.621   6.492  0.2090  0.2690 -0.1291
  443MOL0     C59715   4.006   1.467   6.078  0.3901  0.9380  0.4358
  443MOL0     C59716   3.878   1.459   6.006 -0.6511  0.4432 -0.0561
  443MOL0     O59717   3.632   1.264   5.984  0.2559 -0.1370 -0.4353
  443MOL0     C59718   3.401   1.245   5.828  0.0126  0.1174 -0.0583
  443MOL0     C59719   3.273   1.245   5.755 -0.2005  0.2316 -0.6635
  443MOL0     N59720   2.657   1.261   5.461 -0.7119 -0.9340  0.3695
  443MOL0     N59721   2.538   1.233   5.423 -0.5246  0.3040  0.4861
  443MOL0     C59722   1.477   0.673   5.381 -0.2448  0.1561  0.1670
  443MOL0     C59723   1.365   0.601   5.398 -0.0011 -0.5581  1.0845
  443MOL0     C59724   0.894   0.511   5.314  0.6956 -0.5788 -0.0804
  443MOL0     C59725   0.933   0.382   5.287 -0.0878  0.2082  0.1860
  443MOL0     C59726   0.844   0.281   5.244  0.2882  0.2803 -0.1453
  443MOL0     C59727   0.708   0.303   5.232 -0.2011 -0.0031  0.1153
  443MOL0     O59728   0.617   0.205   5.203  0.0772 -0.1844 -1.0214
  443MOL0     C59729   0.639   0.079   5.250  1.1228  0.2942 -0.2743
  443MOL0     C59730   0.512   0.003   5.270 -1.3481 -0.5784 -0.4327
  443MOL0     C59731   0.424   0.051   5.384 -0.4697  0.8238  0.6107
  443MOL0     C59732   0.328  -0.061   5.426  0.1409  0.5525 -0.6173
  443MOL0     C59733   0.212  -0.044   5.340 -0.6086 -0.4361  1.2336
  443MOL0     C59734   0.126  -0.024   5.259 -0.0244  0.5335 -0.4396
  443MOL0     C59735   0.670   0.436   5.254 -0.0253 -0.2782 -0.2300
  443MOL0     C59736   0.761   0.545   5.283  1.1777  0.2615 -0.3410
  443MOL0     C59737   0.701   0.681   5.293 -0.1819  0.1841 -0.8139
  443MOL0     H59738   1.146   0.814   5.249 -0.2055  0.3155  1.1292
  443MOL0     H59739   1.325   0.958   5.274 -1.8759 -1.3183 -4.9238
  443MOL0     H59740   1.538   1.098   5.330 -3.5379 -1.6284 -0.0117
  443MOL0     H59741   1.466   1.023   5.473  0.0229 -0.2937 -0.7314
  443MOL0     H59742   1.709   0.980   5.550 -1.8335 -0.0270  0.3645
  443MOL0     H59743   1.653   1.147   5.560  1.7002 -0.0614  1.4053
  443MOL0     H59744   1.757   1.174   5.327  0.9846  0.7431 -0.1661
  443MOL0     H59745   1.840   1.024   5.361  1.2848 -1.2878  2.0319
  443MOL0     H59746   1.857   1.289   5.516 -2.1823 -0.3489 -0.6118
  443MOL0     H59747   1.901   1.144   5.587 -0.6616  1.0584  0.5492
  443MOL0     H59748   2.097   1.110   5.428 -0.1599 -0.2320  0.7383
  443MOL0     H59749   2.041   1.220   5.319  5.2242  0.9412  0.0002
  443MOL0     H59750   2.059   1.411   5.444 -2.7358 -0.0493  2.1881
  443MOL0     H59751   2.102   1.320   5.593  3.4048  0.8964 -0.4282
  443MOL0     H59752   2.312   1.398   5.521  1.3660 -0.7918 -0.1546
  443MOL0     H59753   2.278   1.343   5.362  0.9958  2.8733  0.7208
  443MOL0     H59754   2.288   1.151   5.609  0.1342 -2.1767 -1.3761
  443MOL0     H59755   2.298   1.115   5.446  2.8162 -0.7148  0.7587
  443MOL0     H59756   2.500   1.244   5.750 -0.9771 -1.0290 -0.3252
  443MOL0     H59757   2.756   1.340   5.785  2.0007  0.6188  0.0565
  443MOL0     H59758   2.853   1.255   5.676 -1.3416 -1.0012  0.0963
  443MOL0     H59759   2.725   1.534   5.612 -0.5886 -1.4956 -1.2143
  443MOL0     H59760   2.863   1.537   5.723 -1.9767 -0.1366  0.6133
  443MOL0     H59761   2.895   1.543   5.453 -0.1123 -1.6129 -1.1934
  443MOL0     H59762   2.901   1.363   5.483  0.5457 -0.2896 -0.8390
  443MOL0     H59763   3.057   1.568   5.636  1.6894 -0.9522  1.4997
  443MOL0     H59764   3.127   1.499   5.487  1.3672  3.8875  1.0247
  443MOL0     H59765   3.265   1.587   5.698 -0.4158 -0.4417 -1.4188
  443MOL0     H59766   3.472   1.574   5.802 -2.9354  2.1540 -0.6066
  443MOL0     H59767   3.670   1.596   6.227 -0.4582  0.8610 -1.1267
  443MOL0     H59768   3.874   1.596   6.364 -1.2611  1.1233 -0.8736
  443MOL0     H59769   4.244   1.591   6.407  0.9117 -1.3620 -1.4087
  443MOL0     H59770   4.075   1.624   6.438  0.9908  0.7400  0.7837
  443MOL0     H59771   4.156   1.329   6.410  2.1426 -0.8589  1.5671
  443MOL0     H59772   4.211   1.421   6.556  1.6731  1.0444 -1.8601
  443MOL0     H59773   3.922   1.412   6.478  1.0040 -0.6300 -2.0612
  443MOL0     H59774   3.990   1.285   6.570 -4.8935 -0.0345 -0.3865
  443MOL0     H59775   3.999   1.591   6.641  1.9133  0.0797  0.7944
  443MOL0     H59776   4.080   1.468   6.728 -0.8309 -1.2662 -0.2202
  443MOL0     H59777   3.893   1.526   6.854  0.3296 -1.4017  1.3833
  443MOL0     H59778   3.884   1.356   6.800 -1.0270 -0.2788 -2.3622
  443MOL0     H59779   3.709   1.443   6.625 -2.4945 -3.8768  2.2911
  443MOL0     H59780   3.663   1.452   6.786 -1.9488 -2.2892 -3.1291
  443MOL0     H59781   3.807   1.685   6.627 -1.5327  0.3766 -0.6611
  443MOL0     H59782   3.758   1.681   6.803  1.2521 -0.5407  0.4905
  443MOL0     H59783   3.523   1.662   6.720  1.2111 -1.4784  0.2859
  443MOL0     H59784   3.613   1.798   6.647 -1.1069  0.4506  0.0415
  443MOL0     H59785   4.096   1.434   6.027 -1.1165 -1.7241 -0.7266
  443MOL0     H59786   3.875   1.416   5.906 -0.8228 -2.2656  1.0020
  443MOL0     H59787   3.439   1.156   5.876 -2.2910  0.1501  1.9919
  443MOL0     H59788   3.201   1.164   5.743 -2.0464  1.4278  1.5689
  443MOL0     H59789   1.572   0.623   5.397  0.4124  1.5658  0.8775
  443MOL0     H59790   1.366   0.505   5.449  1.5567 -0.4223  1.3662
  443MOL0     H59791   1.034   0.343   5.301 -0.3169 -0.3487  0.3419
  443MOL0     H59792   0.892   0.189   5.211  1.3775 -0.3299  2.7772
  443MOL0     H59793   0.691   0.087   5.346 -0.9962  0.6798  0.8998
  443MOL0     H59794   0.700   0.025   5.177  0.5957 -0.5369 -0.1222
  443MOL0     H59795   0.539  -0.102   5.285  2.9266  0.6806  2.6222
  443MOL0     H59796   0.452   0.006   5.179 -1.8331  0.5039 -0.1051
  443MOL0     H59797   0.372   0.144   5.358 -1.6090  0.1673  0.4980
  443MOL0     H59798   0.497   0.066   5.465  2.9675 -0.6420 -1.9473
  443MOL0     H59799   0.377  -0.160   5.425  0.8978  0.9135 -1.6423
  443MOL0     H59800   0.288  -0.055   5.527 -2.4562 -0.8878 -1.4697
  443MOL0     H59801   0.056  -0.003   5.181 -1.7416 -0.5066  0.7564
  443MOL0     H59802   0.565   0.461   5.248  0.4735  2.7926  1.7300
  443MOL0     H59803   0.593   0.673   5.281 -0.4761  0.4824  1.1822
  443MOL0     H59804   0.731   0.723   5.390  0.6150 -0.0099 -0.9716
  443MOL0     H59805   0.738   0.754   5.222  0.1368  0.0323 -0.8057
  444MOL0     O59806   4.150   2.733   7.632 -1.3203  0.2658  0.2496
  444MOL0     C59807   4.204   2.829   7.575  0.2079  0.8839 -0.9734
  444MOL0     O59808   4.317   2.885   7.618 -1.0808 -0.3755 -1.0702
  444MOL0     C59809   4.423   2.809   7.670 -0.5586 -0.1877  0.0993
  444MOL0     C59810   4.445   2.675   7.633  0.2174 -0.3304  0.4268
  444MOL0     C59811   4.548   2.598   7.693  0.1309  0.3750 -0.2419
  444MOL0     C59812   4.630   2.655   7.780 -0.2130  0.6363 -0.6186
  444MOL0     O59813   4.751   2.584   7.812  0.1777 -0.9358 -0.3333
  444MOL0     C59814   4.762   2.550   7.949 -0.1339  0.7279 -0.2524
  444MOL0     C59815   4.846   2.418   7.956 -0.2519 -0.8157  0.3037
  444MOL0     C59816   4.988   2.416   7.892  0.2620  1.1855  0.6249
  444MOL0     C59817   5.092   2.474   7.985 -0.5504  0.1059  0.0890
  444MOL0     C59818   5.237   2.483   7.919  1.1928  0.7135  0.1284
  444MOL0     C59819   5.242   2.574   7.797 -0.2964  0.4645  0.7017
  444MOL0     C59820   5.388   2.597   7.749  0.4240  1.2114  0.1645
  444MOL0     C59821   5.418   2.683   7.624  0.2711  0.5710 -0.0379
  444MOL0     N59822   5.565   2.722   7.602  0.5637 -0.0726 -0.2823
  444MOL0     C59823   5.658   2.623   7.577  0.5038  0.7083  0.0539
  444MOL0     C59824   5.765   2.688   7.546 -0.1403  0.1540 -0.2107
  444MOL0     C59825   5.896   2.634   7.508 -0.4134  0.0408  0.0740
  444MOL0     C59826   5.976   2.554   7.613  0.6345 -0.0971  0.4855
  444MOL0     C59827   6.098   2.491   7.547 -0.5770 -0.0158 -0.4999
  444MOL0     C59828   6.192   2.432   7.649  0.2825 -0.0062  0.7705
  444MOL0     O59829   6.267   2.315   7.602 -0.2456  0.2901  0.4802
  444MOL0     C59830   6.387   2.337   7.536  0.6943  0.1266  0.4691
  444MOL0     C59831   6.481   2.435   7.569 -0.7646  0.3468  0.1259
  444MOL0     C59832   6.602   2.439   7.496  0.7153 -0.2681 -0.9382
  444MOL0     C59833   6.633   2.352   7.392  0.2554 -0.3647 -0.2372
  444MOL0     C59834   6.760   2.355   7.309  0.6207 -0.3401  0.2026
  444MOL0     O59835   6.836   2.470   7.332 -0.4083  0.1367  0.0999
  444MOL0     C59836   6.940   2.498   7.249  0.4204  0.1856  0.9692
  444MOL0     C59837   6.936   2.617   7.170  0.1887 -0.2598 -0.0321
  444MOL0     C59838   7.051   2.645   7.093  0.6353  0.2893  0.1745
  444MOL0     C59839   7.160   2.552   7.083 -0.4708 -0.3550  1.5497
  444MOL0     O59840   7.266   2.587   6.997 -0.1090  0.0272  0.6771
  444MOL0     C59841   7.401   2.567   7.044 -0.6280 -0.1217  0.4094
  444MOL0     C59842   7.416   2.625   7.192  0.1872  0.1765  0.6905
  444MOL0     C59843   7.392   2.776   7.191 -0.1000  0.1959  0.2035
  444MOL0     C59844   7.356   2.826   7.337 -0.6425  0.0918 -0.7000
  444MOL0     C59845   7.460   2.776   7.440  0.2353  0.0256  0.0562
  444MOL0     C59846   7.605   2.824   7.405  0.2675  0.0709 -0.8897
  444MOL0     C59847   7.628   2.971   7.368  0.6277  0.6600  0.7377
  444MOL0     C59848   7.776   3.013   7.365  0.1864 -0.4466  0.1206
  444MOL0    Cl59849   7.872   2.884   7.293  0.4138  0.1097 -0.1589
  444MOL0     C59850   7.152   2.432   7.152 -0.3862  0.6622  0.6194
  444MOL0     C59851   7.049   2.413   7.241 -0.5185 -0.3590 -0.1044
  444MOL0     O59852   6.787   2.273   7.223 -0.1949 -0.1460  0.3524
  444MOL0     C59853   6.543   2.252   7.357 -0.0579 -0.6218 -1.6110
  444MOL0     C59854   6.419   2.244   7.428 -0.4689  0.2259 -0.0680
  444MOL0     N59855   5.744   2.823   7.561 -0.4355 -0.6167  0.4122
  444MOL0     N59856   5.619   2.845   7.598  0.4326 -0.2977 -0.0427
  444MOL0     C59857   4.610   2.791   7.820 -0.5996  0.8569  0.0855
  444MOL0     C59858   4.513   2.866   7.767  0.0603  0.1724 -0.7216
  444MOL0     C59859   4.109   2.897   7.482 -0.6069  0.1278  0.0690
  444MOL0     C59860   3.981   2.950   7.525 -0.1786 -0.0010  0.1915
  444MOL0     C59861   3.904   3.027   7.445 -0.5139  0.2089  0.3765
  444MOL0     C59862   3.939   3.068   7.314 -0.1115  0.1585  0.8359
  444MOL0     O59863   3.848   3.141   7.244  0.2834 -0.0673  0.3624
  444MOL0     C59864   3.882   3.150   7.103 -0.1460 -0.0717 -0.1818
  444MOL0     C59865   3.851   3.015   7.038 -0.6845  0.4722 -0.1104
  444MOL0     C59866   3.774   3.018   6.904  0.2139  0.6893  1.1633
  444MOL0     C59867   3.712   2.885   6.865  0.0161  0.4698 -0.3194
  444MOL0     C59868   3.821   2.789   6.861 -0.4878 -0.0414  0.3374
  444MOL0     C59869   3.890   2.687   6.873 -0.3329 -0.4331 -0.6339
  444MOL0     C59870   4.070   3.016   7.274  0.1062  0.4505 -0.3405
  444MOL0     C59871   4.155   2.939   7.357  0.1968 -1.0882  1.1851
  444MOL0     C59872   4.300   2.902   7.306  0.8092  0.4733 -0.1423
  444MOL0     H59873   4.388   2.623   7.557  2.0535  0.2404 -1.4308
  444MOL0     H59874   4.559   2.495   7.661 -1.5998 -0.1250  0.6519
  444MOL0     H59875   4.827   2.625   7.993 -0.4915  1.2652 -0.6304
  444MOL0     H59876   4.668   2.541   8.005 -0.2749 -1.5282 -0.7479
  444MOL0     H59877   4.776   2.344   7.917  0.6184 -1.2989 -0.3691
  444MOL0     H59878   4.844   2.389   8.062  1.4239  0.5153  0.7493
  444MOL0     H59879   4.986   2.459   7.791  0.6373 -1.2480 -0.4850
  444MOL0     H59880   5.005   2.308   7.882  0.4877  1.4452 -3.1223
  444MOL0     H59881   5.048   2.570   8.017 -2.1784 -0.6109  0.1093
  444MOL0     H59882   5.103   2.421   8.080 -0.8040 -0.9421 -0.4534
  444MOL0     H59883   5.300   2.527   7.997 -0.8299 -2.3108  3.8012
  444MOL0     H59884   5.276   2.384   7.893  0.0128  0.9989 -3.2362
  444MOL0     H59885   5.189   2.531   7.711  1.3366  2.0207 -1.2044
  444MOL0     H59886   5.198   2.669   7.829 -0.0027  0.8602 -0.0512
  444MOL0     H59887   5.443   2.505   7.727  1.3033  1.6859  0.3302
  444MOL0     H59888   5.439   2.643   7.834  0.7282 -0.8527  1.1583
  444MOL0     H59889   5.380   2.621   7.541  5.3350 -3.4433  0.1607
  444MOL0     H59890   5.365   2.778   7.637 -1.2972 -0.1258 -1.0671
  444MOL0     H59891   5.648   2.515   7.572 -0.3323  0.8361 -1.3939
  444MOL0     H59892   5.892   2.567   7.422  1.5730 -1.3594  0.9856
  444MOL0     H59893   5.955   2.722   7.480 -2.3211  1.6967  0.9828
  444MOL0     H59894   6.004   2.638   7.676 -0.8448 -0.2400  1.3752
  444MOL0     H59895   5.927   2.472   7.667  0.0044 -2.1477 -2.8744
  444MOL0     H59896   6.160   2.570   7.504  2.1411 -0.9128  1.4871
  444MOL0     H59897   6.067   2.412   7.478 -0.7211  1.5296 -2.2725
  444MOL0     H59898   6.124   2.401   7.729 -0.4147  2.7068  1.3038
  444MOL0     H59899   6.261   2.509   7.683  3.0229 -2.1372  0.4063
  444MOL0     H59900   6.475   2.522   7.633  0.8682  1.5794 -1.2864
  444MOL0     H59901   6.653   2.531   7.524 -0.9084  0.3134  0.2320
  444MOL0     H59902   6.853   2.688   7.179  0.2539 -0.2013  0.1206
  444MOL0     H59903   7.051   2.737   7.034 -1.2980  1.3320  1.6963
  444MOL0     H59904   7.434   2.464   7.060  0.4340  0.1907  0.2843
  444MOL0     H59905   7.472   2.614   6.975  1.0618 -1.6888  1.0113
  444MOL0     H59906   7.349   2.571   7.259 -0.2228 -0.8571 -0.5158
  444MOL0     H59907   7.521   2.610   7.220  0.4582 -0.2372 -0.4595
  444MOL0     H59908   7.482   2.828   7.155  1.4751 -3.2193 -1.2086
  444MOL0     H59909   7.310   2.808   7.126 -0.0458  3.0256  1.3943
  444MOL0     H59910   7.255   2.788   7.358  0.1962 -2.4774 -0.9596
  444MOL0     H59911   7.354   2.935   7.347 -2.7254 -0.0778  1.5962
  444MOL0     H59912   7.456   2.666   7.439  1.6768 -0.0583 -1.3618
  444MOL0     H59913   7.431   2.814   7.538 -1.6205  2.4524 -1.3250
  444MOL0     H59914   7.662   2.797   7.494 -2.1317  2.1447  1.4697
  444MOL0     H59915   7.647   2.767   7.321  0.7977 -0.1756 -0.4627
  444MOL0     H59916   7.571   3.026   7.443  0.6344  0.3869  0.9457
  444MOL0     H59917   7.575   2.989   7.274 -0.2521 -1.1106  0.8611
  444MOL0     H59918   7.774   3.111   7.316 -4.2321  0.0587  0.8742
  444MOL0     H59919   7.798   3.031   7.470 -2.7341  6.0196  0.0783
  444MOL0     H59920   7.226   2.355   7.134 -2.2507 -0.6696 -2.0360
  444MOL0     H59921   7.039   2.315   7.288  1.4489 -1.9921 -2.7524
  444MOL0     H59922   6.558   2.189   7.270 -1.2880 -0.7150 -1.7737
  444MOL0     H59923   6.340   2.183   7.385 -1.3051  2.2837 -1.6450
  444MOL0     H59924   4.678   2.830   7.895  0.0527 -0.9579  0.4967
  444MOL0     H59925   4.508   2.970   7.795  1.6627  0.0028  0.2946
  444MOL0     H59926   3.949   2.917   7.624  2.2254  2.3173  1.9029
  444MOL0     H59927   3.802   3.038   7.480 -0.2912  0.5991  0.8958
  444MOL0     H59928   3.989   3.170   7.089  0.5866 -3.9001 -1.1693
  444MOL0     H59929   3.826   3.231   7.055 -1.1596 -1.3245 -1.1733
  444MOL0     H59930   3.806   2.946   7.110  0.5164  0.4744  0.6754
  444MOL0     H59931   3.949   2.973   7.013 -0.4702 -0.1122  1.5782
  444MOL0     H59932   3.831   3.044   6.814 -2.9257 -0.3053 -1.2796
  444MOL0     H59933   3.701   3.098   6.921 -1.5802 -0.8672  1.0901
  444MOL0     H59934   3.640   2.858   6.944  1.1512 -1.7508  0.0319
  444MOL0     H59935   3.662   2.887   6.768 -2.5465 -0.5249  0.8899
  444MOL0     H59936   3.952   2.604   6.903  2.4683  0.0164 -4.3245
  444MOL0     H59937   4.103   3.032   7.172 -2.3585 -3.5821 -2.0192
  444MOL0     H59938   4.316   2.935   7.203 -2.6990 -1.4012 -1.4335
  444MOL0     H59939   4.371   2.942   7.379 -1.9111  2.0731  1.7622
  444MOL0     H59940   4.318   2.794   7.311  3.1357  0.8496  3.6572
  445MOL0     O59941   3.640   9.435   4.150  0.5434  0.4520 -0.5515
  445MOL0     C59942   3.697   9.379   4.244  0.2425 -0.0846  0.6400
  445MOL0     O59943   3.654   9.380   4.368 -0.1716  0.5610 -0.6851
  445MOL0     C59944   3.533   9.440   4.403  0.9548  0.5833  0.0984
  445MOL0     C59945   3.525   9.489   4.534  0.1008  0.4665 -0.0048
  445MOL0     C59946   3.406   9.537   4.583 -0.0782  0.5902 -0.5533
  445MOL0     C59947   3.284   9.539   4.515 -0.7712 -0.7802  0.2584
  445MOL0     O59948   3.174   9.594   4.567 -0.1597 -0.3700 -0.4942
  445MOL0     C59949   3.047   9.594   4.507 -0.9777  0.0254  0.7050
  445MOL0     C59950   2.927   9.605   4.607  0.5870 -0.6205  0.3439
  445MOL0     C59951   2.795   9.578   4.522 -0.5238 -0.1936  0.1483
  445MOL0     C59952   2.677   9.596   4.616  0.4959  0.6633 -0.1642
  445MOL0     C59953   2.537   9.584   4.565  0.5665 -0.5941 -0.8155
  445MOL0     C59954   2.444   9.596   4.681  0.0407  1.1959 -0.4347
  445MOL0     C59955   2.304   9.609   4.624 -0.0253  0.4749 -0.0423
  445MOL0     C59956   2.193   9.612   4.736  1.1299  0.0016  0.2051
  445MOL0     N59957   2.063   9.655   4.687 -0.2163  0.4179 -1.1001
  445MOL0     C59958   1.995   9.601   4.582 -0.5767 -0.3278  0.3143
  445MOL0     C59959   1.893   9.691   4.556 -0.1472 -0.6169 -0.1867
  445MOL0     C59960   1.807   9.679   4.438  0.5723 -0.4064  0.2457
  445MOL0     C59961   1.678   9.598   4.459 -0.1464 -0.9016 -0.1731
  445MOL0     C59962   1.625   9.583   4.323 -0.2071  0.6326  0.0481
  445MOL0     C59963   1.536   9.711   4.299 -0.1072  0.4965  0.5813
  445MOL0     O59964   1.419   9.727   4.382 -0.2140 -0.0967 -0.0616
  445MOL0     C59965   1.301   9.655   4.365  0.0064  0.8275 -0.3606
  445MOL0     C59966   1.216   9.677   4.472 -0.5815 -0.1084 -0.4704
  445MOL0     C59967   1.090   9.625   4.478 -0.3854 -0.2432 -0.4487
  445MOL0     C59968   1.049   9.536   4.374  0.4540 -0.1730 -0.7050
  445MOL0     C59969   0.916   9.468   4.394 -0.1248  0.5004 -0.0933
  445MOL0     O59970   0.882   9.379   4.301  0.3314  0.3299  0.0293
  445MOL0     C59971   0.758   9.315   4.310 -0.6439  0.8935  0.6633
  445MOL0     C59972   0.746   9.182   4.343  0.2494 -0.4572  0.8023
  445MOL0     C59973   0.619   9.120   4.357 -0.2038 -0.1917 -0.0126
  445MOL0     C59974   0.503   9.207   4.359  0.9349 -0.5502  0.7147
  445MOL0     O59975   0.383   9.157   4.395  0.2329 -0.5184 -0.9792
  445MOL0     C59976   0.261   9.234   4.379  0.9021  1.1215 -0.5631
  445MOL0     C59977   0.138   9.146   4.415 -0.0532  0.1674 -0.6287
  445MOL0     C59978   0.007   9.226   4.403  0.0395  0.1833  0.2409
  445MOL0     C59979  -0.119   9.137   4.419  0.1323  0.1093 -0.1985
  445MOL0     C59980  -0.251   9.218   4.398  0.3255 -0.1897  0.4014
  445MOL0     C59981  -0.375   9.140   4.371  0.9977  0.6004 -0.3152
  445MOL0     C59982  -0.413   9.065   4.502 -0.3979 -0.4824 -0.4640
  445MOL0     C59983  -0.553   9.013   4.508  0.5435 -0.8584  0.3276
  445MOL0    Cl59984  -0.673   9.149   4.494 -0.2342 -0.6102  0.2133
  445MOL0     C59985   0.519   9.347   4.336  0.1629  0.1166 -0.0621
  445MOL0     C59986   0.644   9.397   4.305 -0.0851 -0.6827 -0.9200
  445MOL0     O59987   0.851   9.488   4.494 -0.4753  0.1648  0.2021
  445MOL0     C59988   1.136   9.509   4.270  0.9982 -0.2667  0.2093
  445MOL0     C59989   1.253   9.571   4.264  0.2597  0.8563  0.3227
  445MOL0     N59990   1.902   9.794   4.651  0.8972  0.7182 -0.0691
  445MOL0     N59991   1.992   9.764   4.730 -0.6104 -0.8166 -0.4582
  445MOL0     C59992   3.294   9.508   4.378  0.0381  0.6552  0.5429
  445MOL0     C59993   3.412   9.449   4.327 -0.5180 -0.3269 -0.2389
  445MOL0     C59994   3.814   9.289   4.213  0.3361  0.2533  0.0231
  445MOL0     C59995   3.833   9.178   4.302  0.8617  0.7710 -0.3464
  445MOL0     C59996   3.926   9.082   4.283 -0.6749  0.5031 -0.7214
  445MOL0     C59997   4.014   9.095   4.167 -0.2496  0.4400 -0.6750
  445MOL0     O59998   4.090   8.981   4.154  0.0057  1.0377 -0.1831
  445MOL0     C59999   4.175   8.971   4.033 -0.4538 -0.1978  0.2633
  445MOL0     C60000   4.277   8.859   4.048 -0.0574 -0.8430 -0.5074
  445MOL0     C60001   4.208   8.723   4.069  0.5195 -0.0834 -0.0373
  445MOL0     C60002   4.301   8.611   4.103 -0.4939  0.3159 -0.2854
  445MOL0     C60003   4.235   8.492   4.147  0.7454 -0.4430 -0.3934
  445MOL0     C60004   4.183   8.389   4.178  0.4054 -0.0218 -0.3210
  445MOL0     C60005   4.013   9.215   4.090 -0.1991  0.5642 -0.4078
  445MOL0     C60006   3.905   9.311   4.110 -0.7565  0.3679  0.8708
  445MOL0     C60007   3.901   9.425   4.012  0.0058 -0.4282 -0.0803
  445MOL0     H60008   3.611   9.478   4.598  0.5183 -1.0746 -0.7659
  445MOL0     H60009   3.396   9.575   4.685 -0.4263  1.4486 -0.8925
  445MOL0     H60010   3.026   9.674   4.435  0.2221 -2.5448 -2.8204
  445MOL0     H60011   3.045   9.492   4.467 -0.3420 -0.2097  1.2575
  445MOL0     H60012   2.916   9.703   4.653  2.6296 -0.5110  0.6664
  445MOL0     H60013   2.934   9.522   4.679 -0.0265  0.8577  2.1816
  445MOL0     H60014   2.797   9.485   4.465 -2.5423  0.3014 -0.8494
  445MOL0     H60015   2.787   9.660   4.450  3.0049  1.8273  1.7745
  445MOL0     H60016   2.693   9.516   4.688  1.3367  2.2955  1.5730
  445MOL0     H60017   2.694   9.696   4.659  0.0052  0.1322  1.3152
  445MOL0     H60018   2.513   9.667   4.498 -0.9625  1.2933  1.8877
  445MOL0     H60019   2.515   9.485   4.525 -0.4687 -0.9535  0.5602
  445MOL0     H60020   2.459   9.509   4.747  0.7535  1.5894 -0.0737
  445MOL0     H60021   2.458   9.678   4.752 -2.3308  1.1306  0.1911
  445MOL0     H60022   2.287   9.520   4.562  2.3429  1.1630 -1.8678
  445MOL0     H60023   2.302   9.697   4.559  1.8098  0.1213 -0.6541
  445MOL0     H60024   2.180   9.516   4.788  2.0586  1.0858  2.5970
  445MOL0     H60025   2.227   9.686   4.809  0.0011  0.9593 -0.2222
  445MOL0     H60026   2.024   9.524   4.511 -1.1346 -1.5703  1.4013
  445MOL0     H60027   1.786   9.784   4.415  3.1847  0.4880  1.5899
  445MOL0     H60028   1.867   9.631   4.360  0.9722 -0.2087  0.4304
  445MOL0     H60029   1.713   9.501   4.497  1.3757 -1.3733 -2.5438
  445MOL0     H60030   1.612   9.642   4.534  1.1985  0.2885  0.3500
  445MOL0     H60031   1.570   9.490   4.302  1.4640 -0.2915 -0.4026
  445MOL0     H60032   1.705   9.574   4.249  1.4442 -0.1715  1.8591
  445MOL0     H60033   1.501   9.713   4.195 -0.4182  3.7210  0.6260
  445MOL0     H60034   1.602   9.797   4.318  0.0920  0.1389  1.5605
  445MOL0     H60035   1.256   9.735   4.554  0.8631 -2.2426  0.4238
  445MOL0     H60036   1.035   9.651   4.568  1.6682 -1.5074  1.2845
  445MOL0     H60037   0.831   9.114   4.355  0.9627  0.3226  0.2797
  445MOL0     H60038   0.602   9.016   4.382 -0.6944  0.4465  2.6246
  445MOL0     H60039   0.262   9.319   4.449 -2.4222  1.5212 -0.8371
  445MOL0     H60040   0.249   9.276   4.278 -2.2256 -0.7579 -1.1058
  445MOL0     H60041   0.132   9.058   4.350  2.3894 -0.0576 -0.6296
  445MOL0     H60042   0.141   9.106   4.517 -2.7086  1.9361  0.2395
  445MOL0     H60043   0.011   9.312   4.472 -0.4796 -0.3913  1.0076
  445MOL0     H60044   0.007   9.265   4.301  0.6385 -0.5790 -0.0521
  445MOL0     H60045  -0.115   9.078   4.511  0.2614  0.0189 -0.2611
  445MOL0     H60046  -0.119   9.059   4.342 -1.7812 -0.8009  0.6649
  445MOL0     H60047  -0.249   9.284   4.311 -0.5266  1.7223  1.7669
  445MOL0     H60048  -0.268   9.272   4.492  0.0724  0.8953 -0.2550
  445MOL0     H60049  -0.458   9.206   4.344 -0.0153  1.1051  3.4335
  445MOL0     H60050  -0.350   9.067   4.294 -0.1105  0.8723 -0.9517
  445MOL0     H60051  -0.415   9.135   4.587  0.8739  0.6880 -1.3587
  445MOL0     H60052  -0.341   8.988   4.533  2.5350  0.5245 -4.0776
  445MOL0     H60053  -0.566   8.941   4.426  2.9095 -3.7100  2.2657
  445MOL0     H60054  -0.573   8.959   4.601 -0.5382 -1.0129  0.0243
  445MOL0     H60055   0.432   9.410   4.356  0.3087 -0.3942  2.5002
  445MOL0     H60056   0.656   9.502   4.279  0.3671 -0.7883 -1.1458
  445MOL0     H60057   1.115   9.429   4.200  0.9960 -0.6116  0.5988
  445MOL0     H60058   1.325   9.559   4.183  0.3526  2.3559  0.1645
  445MOL0     H60059   3.211   9.528   4.311  0.8708 -1.0757 -1.1075
  445MOL0     H60060   3.419   9.418   4.224 -3.1963 -0.4839 -0.4381
  445MOL0     H60061   3.767   9.163   4.387 -4.4724 -0.1318 -4.1990
  445MOL0     H60062   3.937   8.990   4.340 -2.0491 -0.8093 -2.4756
  445MOL0     H60063   4.236   9.060   4.013  3.7646 -2.7336  0.4996
  445MOL0     H60064   4.107   8.948   3.951 -1.2261 -0.4701  0.9708
  445MOL0     H60065   4.334   8.879   4.139 -0.3516  0.6567 -0.6326
  445MOL0     H60066   4.349   8.866   3.966  1.7286 -1.1685  0.9820
  445MOL0     H60067   4.147   8.695   3.982 -2.8177  2.9339  1.0605
  445MOL0     H60068   4.139   8.731   4.154 -2.8447  0.9226 -2.6092
  445MOL0     H60069   4.368   8.598   4.017 -0.4287  0.8725 -0.3237
  445MOL0     H60070   4.362   8.650   4.185 -1.3536  3.4381 -0.9690
  445MOL0     H60071   4.138   8.298   4.211  0.6916  0.2604  0.8944
  445MOL0     H60072   4.080   9.231   4.007  3.2917  0.6988  2.2106
  445MOL0     H60073   3.869   9.512   4.070 -0.9857 -3.6320  4.7638
  445MOL0     H60074   3.999   9.434   3.965 -1.0985  1.4321 -2.2460
  445MOL0     H60075   3.827   9.413   3.933  0.5745  1.4530 -0.9603
  446MOL0     O60076   4.928   2.494  10.220  0.3727  0.8303  0.3204
  446MOL0     C60077   4.878   2.599  10.180 -0.4655 -0.8967  0.3074
  446MOL0     O60078   4.949   2.703  10.129 -0.0197  0.6267 -0.0878
  446MOL0     C60079   5.086   2.706  10.112  0.5947  0.3806  0.0379
  446MOL0     C60080   5.142   2.781  10.006  0.5905 -0.0232  0.1003
  446MOL0     C60081   5.276   2.800   9.976 -0.2054  0.0097 -0.5776
  446MOL0     C60082   5.378   2.747  10.059  0.1132 -0.2632  0.3846
  446MOL0     O60083   5.515   2.752  10.037  0.0013 -0.5178  1.0880
  446MOL0     C60084   5.554   2.751   9.894 -0.3364 -0.2745 -0.4937
  446MOL0     C60085   5.704   2.713   9.881  0.3055 -0.4772 -0.3542
  446MOL0     C60086   5.748   2.576   9.927 -0.0691  0.2111  0.0216
  446MOL0     C60087   5.905   2.580   9.906  0.5635 -0.6268  0.5692
  446MOL0     C60088   5.966   2.443   9.949  1.3900  0.2265  1.1207
  446MOL0     C60089   6.116   2.449   9.958  0.1718 -0.0492 -0.2351
  446MOL0     C60090   6.155   2.302   9.984 -0.6808  0.4459  0.1675
  446MOL0     C60091   6.304   2.305  10.023  0.2823  0.0424  0.6184
  446MOL0     N60092   6.402   2.312   9.922  0.6570  0.3958  0.6834
  446MOL0     C60093   6.457   2.217   9.847 -0.1980  0.3098 -0.4332
  446MOL0     C60094   6.558   2.264   9.768 -0.0668 -0.2225 -0.2160
  446MOL0     C60095   6.648   2.184   9.688  0.2959  0.7072  0.3654
  446MOL0     C60096   6.791   2.230   9.719 -1.0737  0.2539  0.2601
  446MOL0     C60097   6.896   2.161   9.626  0.0232 -0.1560 -0.3367
  446MOL0     C60098   7.022   2.192   9.676 -0.3446  0.3624  0.0603
  446MOL0     O60099   7.044   2.088   9.776 -0.0831 -0.0028  0.2741
  446MOL0     C60100   7.150   2.109   9.857  0.9159 -0.1014  0.3262
  446MOL0     C60101   7.232   2.221   9.871 -0.1929  0.4612  0.2317
  446MOL0     C60102   7.331   2.228   9.973  0.2472 -0.6701 -0.1111
  446MOL0     C60103   7.342   2.128  10.065 -0.4551  1.3701 -0.5103
  446MOL0     C60104   7.450   2.143  10.169 -0.3633 -0.3309 -0.3087
  446MOL0     O60105   7.443   2.043  10.264  0.4243 -0.6639 -0.4020
  446MOL0     C60106   7.532   2.024  10.361  0.1522  0.1704  0.4337
  446MOL0     C60107   7.520   1.900  10.424 -0.1127  0.6267  0.2331
  446MOL0     C60108   7.591   1.868  10.536  0.7834 -1.1506  0.5555
  446MOL0     C60109   7.702   1.949  10.574  0.3422  0.2270 -0.0274
  446MOL0     O60110   7.783   1.923  10.681  0.0133  1.0447  0.3816
  446MOL0     C60111   7.742   1.808  10.761  0.7664  0.8257 -1.1420
  446MOL0     C60112   7.764   1.667  10.703 -0.1846 -0.0903  0.3455
  446MOL0     C60113   7.697   1.569  10.798  0.0063  0.2193  0.7112
  446MOL0     C60114   7.765   1.439  10.804  0.9094 -0.0218 -0.4987
  446MOL0     C60115   7.725   1.347  10.928 -0.1301 -0.5591  0.3273
  446MOL0     C60116   7.775   1.200  10.925  0.3792 -0.5530  0.1508
  446MOL0     C60117   7.673   1.117  11.000 -0.0133  0.0557  0.8008
  446MOL0     C60118   7.719   0.969  10.976  0.0621 -0.1734  0.2836
  446MOL0    Cl60119   7.607   0.845  11.060  0.0292  0.4550  0.2499
  446MOL0     C60120   7.723   2.064  10.510  0.1058  0.5610 -0.1480
  446MOL0     C60121   7.643   2.106  10.405  0.3748 -0.2536  0.1193
  446MOL0     O60122   7.544   2.222  10.154  0.5264 -0.4867 -0.3900
  446MOL0     C60123   7.260   2.007  10.044  0.4665  0.1384 -1.0145
  446MOL0     C60124   7.167   2.003   9.943  0.4242  0.2437 -0.8106
  446MOL0     N60125   6.546   2.403   9.798 -0.3123  0.0956  0.3355
  446MOL0     N60126   6.464   2.434   9.891 -0.7231  0.4723 -0.2395
  446MOL0     C60127   5.322   2.671  10.172 -0.4089 -0.1268  1.5130
  446MOL0     C60128   5.177   2.648  10.195 -0.5870  0.9662  0.8329
  446MOL0     C60129   4.729   2.611  10.172 -0.2096 -0.4516 -0.7199
  446MOL0     C60130   4.680   2.685  10.064 -0.3422 -1.3101  0.5724
  446MOL0     C60131   4.540   2.696  10.027 -1.4136  0.4999 -0.2149
  446MOL0     C60132   4.451   2.639  10.115  0.6116 -0.1649  0.6493
  446MOL0     O60133   4.313   2.666  10.092  0.3165 -0.0011  0.3974
  446MOL0     C60134   4.217   2.575  10.153  0.5757 -0.1287  0.3945
  446MOL0     C60135   4.224   2.438  10.097  0.0457  0.2642  0.4007
  446MOL0     C60136   4.196   2.430   9.940 -0.6061  1.7057 -0.2001
  446MOL0     C60137   4.047   2.421   9.905 -0.8624  1.0255  0.1319
  446MOL0     C60138   4.010   2.477   9.775 -0.3221 -0.8834  0.4149
  446MOL0     C60139   3.977   2.535   9.670  0.0192  0.1590 -0.1268
  446MOL0     C60140   4.487   2.562  10.223 -0.2832 -0.3760  0.3593
  446MOL0     C60141   4.629   2.549  10.254 -0.1298 -0.3000 -0.2473
  446MOL0     C60142   4.668   2.477  10.380 -0.0707  0.3895  0.6006
  446MOL0     H60143   5.084   2.807   9.917  1.4358 -0.7755 -0.6972
  446MOL0     H60144   5.288   2.857   9.884  0.1590  0.4952 -0.2331
  446MOL0     H60145   5.503   2.676   9.833 -1.7314  1.0225 -0.9774
  446MOL0     H60146   5.538   2.846   9.842 -2.8135 -0.7293 -0.6990
  446MOL0     H60147   5.768   2.794   9.916 -0.3722  0.3074 -0.9001
  446MOL0     H60148   5.734   2.706   9.776  0.4722  0.6720 -0.3973
  446MOL0     H60149   5.698   2.493   9.876  0.2227 -0.1856  0.3724
  446MOL0     H60150   5.724   2.554  10.032  0.6390 -2.5144 -0.3130
  446MOL0     H60151   5.915   2.591   9.798  1.2670 -0.2158  0.6729
  446MOL0     H60152   5.949   2.666   9.958 -0.1753 -0.9625  1.8037
  446MOL0     H60153   5.926   2.416  10.047 -0.5913  1.1750  0.6254
  446MOL0     H60154   5.930   2.365   9.881 -1.2270  1.7695  0.6180
  446MOL0     H60155   6.166   2.485   9.868 -1.0430  2.5622  0.0463
  446MOL0     H60156   6.144   2.515  10.040  1.6982  1.1141 -1.6277
  446MOL0     H60157   6.146   2.234   9.898 -2.0271 -1.0744  1.4425
  446MOL0     H60158   6.098   2.272  10.072 -0.3690  1.1166  0.6027
  446MOL0     H60159   6.319   2.381  10.100  1.2006 -3.6727  4.4804
  446MOL0     H60160   6.322   2.209  10.073 -1.8167 -1.6281 -1.6207
  446MOL0     H60161   6.424   2.113   9.845 -1.0489  0.5606 -0.0603
  446MOL0     H60162   6.643   2.078   9.717  2.4655  0.7613  1.1281
  446MOL0     H60163   6.626   2.187   9.581  0.9957  0.1868  0.1974
  446MOL0     H60164   6.799   2.337   9.698  2.3674  0.5006  2.0992
  446MOL0     H60165   6.805   2.211   9.826 -2.1941  4.8229  1.4152
  446MOL0     H60166   6.883   2.204   9.526  0.4508  2.1872  0.5367
  446MOL0     H60167   6.874   2.054   9.623 -0.5774 -0.1948  2.7518
  446MOL0     H60168   7.021   2.295   9.711  1.4102  0.3202  0.3301
  446MOL0     H60169   7.095   2.189   9.594 -0.6285  3.1504 -0.3851
  446MOL0     H60170   7.221   2.304   9.803  2.7809  0.3037 -0.5873
  446MOL0     H60171   7.382   2.323   9.982 -2.8380  1.3613 -2.1961
  446MOL0     H60172   7.442   1.831  10.394  1.8606 -2.3227  1.3794
  446MOL0     H60173   7.571   1.777  10.592  0.7554  0.0605  2.6452
  446MOL0     H60174   7.800   1.818  10.853 -1.4498 -2.2802  0.7974
  446MOL0     H60175   7.637   1.826  10.784  1.2037 -0.1615  2.2261
  446MOL0     H60176   7.711   1.656  10.608 -1.7084 -0.6762  1.2381
  446MOL0     H60177   7.870   1.640  10.694 -0.8472 -4.2374  2.5569
  446MOL0     H60178   7.701   1.608  10.900  1.6855  2.5413 -0.1633
  446MOL0     H60179   7.591   1.551  10.778  0.1295  1.0067 -0.7995
  446MOL0     H60180   7.874   1.450  10.814  0.6956  0.3400  1.9981
  446MOL0     H60181   7.739   1.390  10.710  0.1626 -1.7374  0.5707
  446MOL0     H60182   7.616   1.333  10.928 -0.3779  0.9149  2.6940
  446MOL0     H60183   7.756   1.395  11.021 -4.0483  1.9150  0.5988
  446MOL0     H60184   7.787   1.174  10.819 -0.5779  2.3319 -0.7710
  446MOL0     H60185   7.880   1.202  10.955  0.4971 -0.7027 -0.2399
  446MOL0     H60186   7.569   1.128  10.969 -0.1303 -0.9970  0.8095
  446MOL0     H60187   7.674   1.141  11.107 -1.6952  3.1103  0.2605
  446MOL0     H60188   7.714   0.956  10.868 -1.2298 -0.4504  0.3597
  446MOL0     H60189   7.822   0.966  11.014  0.1681  0.6814  0.0916
  446MOL0     H60190   7.804   2.130  10.537 -2.5273  3.8731  0.3172
  446MOL0     H60191   7.663   2.208  10.374  2.5546  0.5136  3.4912
  446MOL0     H60192   7.266   1.920  10.108 -0.6781 -0.9615 -2.3392
  446MOL0     H60193   7.106   1.915   9.958  1.7699 -0.5447  0.3658
  446MOL0     H60194   5.382   2.609  10.237  0.4556 -0.0221  0.8264
  446MOL0     H60195   5.158   2.586  10.282  1.1919 -0.7680  0.0603
  446MOL0     H60196   4.752   2.727   9.995 -1.4511 -0.3342 -0.0337
  446MOL0     H60197   4.506   2.749   9.939 -0.9983  3.3200  1.2230
  446MOL0     H60198   4.113   2.608  10.144  0.7093  0.1829 -0.0847
  446MOL0     H60199   4.239   2.575  10.260  3.0133 -1.4020 -0.0233
  446MOL0     H60200   4.150   2.380  10.152  0.8710 -2.5769 -1.2924
  446MOL0     H60201   4.323   2.395  10.115  0.1246  0.0916 -0.3937
  446MOL0     H60202   4.256   2.344   9.907  0.8286  1.1949  3.3381
  446MOL0     H60203   4.229   2.519   9.885 -0.8982  2.5430  0.9390
  446MOL0     H60204   4.028   2.315   9.924  3.1598  0.1673  0.3996
  446MOL0     H60205   3.983   2.481   9.971  0.1573  4.6662 -1.9271
  446MOL0     H60206   3.950   2.592   9.583 -0.3983  2.1375  1.2298
  446MOL0     H60207   4.416   2.532  10.299  0.6605  2.7168  2.6081
  446MOL0     H60208   4.585   2.478  10.451  0.1310 -0.3882  0.8506
  446MOL0     H60209   4.684   2.371  10.361 -2.6906  0.3042 -1.8121
  446MOL0     H60210   4.755   2.527  10.425 -1.2920  5.0752 -1.5897
  447MOL0     O60211   4.340   1.431   9.671 -0.1232 -0.6821  0.2243
  447MOL0     C60212   4.334   1.344   9.763 -0.3843  0.5800  0.2910
  447MOL0     O60213   4.417   1.345   9.863  0.4287 -0.4690  0.3716
  447MOL0     C60214   4.520   1.429   9.893  0.1611  0.5007 -0.3760
  447MOL0     C60215   4.627   1.373   9.965  0.0810 -0.2733  0.5698
  447MOL0     C60216   4.742   1.439  10.000 -0.6430  0.0517 -0.6590
  447MOL0     C60217   4.765   1.565   9.950  0.0174 -0.8515  0.1528
  447MOL0     O60218   4.883   1.627   9.957  0.2306  0.3308  0.2117
  447MOL0     C60219   4.952   1.665   9.837 -0.0491 -0.6706 -0.4339
  447MOL0     C60220   4.954   1.812   9.817 -1.1821  0.4891  0.1571
  447MOL0     C60221   5.062   1.827   9.706  0.1061  0.1873 -0.5591
  447MOL0     C60222   5.193   1.825   9.771  0.2376 -0.7832  0.0634
  447MOL0     C60223   5.308   1.864   9.670 -0.4266 -0.0674  0.5800
  447MOL0     C60224   5.370   1.751   9.585 -0.0119  0.5537  0.4435
  447MOL0     C60225   5.509   1.783   9.513  0.4893 -0.6605  0.1212
  447MOL0     C60226   5.621   1.859   9.592 -0.0582  0.1681 -0.1375
  447MOL0     N60227   5.717   1.908   9.499  0.1123 -0.1441  1.5694
  447MOL0     C60228   5.829   1.847   9.466  0.1633  0.0609  0.0916
  447MOL0     C60229   5.891   1.926   9.377  0.2252 -0.4496 -0.4830
  447MOL0     C60230   6.008   1.886   9.291 -0.2452 -0.7168 -1.1516
  447MOL0     C60231   6.140   1.832   9.362  0.4022  0.3234 -0.4205
  447MOL0     C60232   6.215   1.748   9.262  0.0359 -0.4700  0.4473
  447MOL0     C60233   6.360   1.721   9.309 -0.3395 -0.4900 -0.4864
  447MOL0     O60234   6.428   1.844   9.299 -0.0060  1.0647  0.2339
  447MOL0     C60235   6.571   1.848   9.296  0.2688 -0.5957 -0.0782
  447MOL0     C60236   6.630   1.974   9.270  0.0988 -0.4759  0.8329
  447MOL0     C60237   6.760   2.002   9.278 -0.5135 -0.7113 -0.0540
  447MOL0     C60238   6.848   1.897   9.307 -0.6856  0.0728  0.6507
  447MOL0     C60239   6.996   1.925   9.310 -0.4327  0.0808 -0.3710
  447MOL0     O60240   7.031   2.049   9.276  0.7556  0.1298  0.3199
  447MOL0     C60241   7.159   2.094   9.277  0.2764  0.1093 -0.1695
  447MOL0     C60242   7.275   2.038   9.336  0.6732 -0.9118 -0.1961
  447MOL0     C60243   7.397   2.095   9.305  1.0980  1.4376 -0.2138
  447MOL0     C60244   7.408   2.223   9.240  0.4380  0.1406 -0.3813
  447MOL0     O60245   7.519   2.297   9.236 -0.1098 -0.5801  0.2743
  447MOL0     C60246   7.643   2.232   9.255 -0.1374 -0.1284  0.2556
  447MOL0     C60247   7.754   2.332   9.233  0.4292 -0.7621 -0.6332
  447MOL0     C60248   7.881   2.255   9.210  1.2600 -0.1219  0.7532
  447MOL0     C60249   7.992   2.350   9.153  0.2638 -0.2377  0.4222
  447MOL0     C60250   8.113   2.274   9.103  0.1750  0.0685  0.6576
  447MOL0     C60251   8.249   2.342   9.128  0.2830  0.6881 -0.2879
  447MOL0     C60252   8.362   2.248   9.089  0.7476 -0.6986  0.2552
  447MOL0     C60253   8.494   2.318   9.106  0.5355  0.2565  0.8074
  447MOL0    Cl60254   8.530   2.418   8.962  0.3862  0.0207 -0.1441
  447MOL0     C60255   7.290   2.275   9.181 -0.4947  0.6521  0.5420
  447MOL0     C60256   7.173   2.204   9.195 -1.3900  0.2159  0.2666
  447MOL0     O60257   7.075   1.834   9.357 -0.0477  0.4923 -0.2440
  447MOL0     C60258   6.794   1.763   9.330  0.5101 -0.0979  0.3290
  447MOL0     C60259   6.658   1.742   9.323  0.1172 -0.1532 -0.1645
  447MOL0     N60260   5.818   2.048   9.367 -0.3853  0.0885 -0.0219
  447MOL0     N60261   5.717   2.035   9.448  0.2005 -0.1439  0.0646
  447MOL0     C60262   4.656   1.630   9.886  0.0891  0.7856  0.2666
  447MOL0     C60263   4.532   1.568   9.862  0.2142  1.2839 -0.3945
  447MOL0     C60264   4.252   1.226   9.735 -0.5382  0.4895  0.5244
  447MOL0     C60265   4.213   1.197   9.600  0.2697 -1.4778 -0.3356
  447MOL0     C60266   4.148   1.085   9.555  0.2069 -0.7709  0.0172
  447MOL0     C60267   4.117   0.986   9.644 -0.2829 -0.3520  0.3795
  447MOL0     O60268   4.054   0.874   9.601  0.1684  0.3613  0.2439
  447MOL0     C60269   4.135   0.789   9.514  0.3767 -0.8531 -0.1319
  447MOL0     C60270   4.132   0.649   9.573  1.4307  1.1723 -0.3238
  447MOL0     C60271   4.206   0.614   9.698 -0.2048 -0.1761 -0.2614
  447MOL0     C60272   4.226   0.465   9.707  0.5107  0.5272 -1.1690
  447MOL0     C60273   4.315   0.419   9.820  0.4340 -0.6971  0.1277
  447MOL0     C60274   4.400   0.356   9.887  0.1639 -0.4219  0.7244
  447MOL0     C60275   4.134   1.011   9.783  0.0799  0.8543  0.2828
  447MOL0     C60276   4.207   1.124   9.828  0.3826  0.2524 -0.0075
  447MOL0     C60277   4.236   1.127   9.975  0.4466  0.3361 -0.1655
  447MOL0     H60278   4.617   1.271  10.001  2.9399 -1.3376 -1.3135
  447MOL0     H60279   4.818   1.380  10.049 -1.2582 -0.3484 -0.1694
  447MOL0     H60280   5.055   1.630   9.833  0.9084  2.0190 -3.1335
  447MOL0     H60281   4.902   1.613   9.755 -0.2394 -2.8226  0.9709
  447MOL0     H60282   4.985   1.856   9.912  2.2845 -1.2111 -0.0331
  447MOL0     H60283   4.853   1.839   9.786  0.0842  3.7683 -1.6614
  447MOL0     H60284   5.043   1.928   9.669 -1.8793 -0.3949 -1.2911
  447MOL0     H60285   5.059   1.752   9.627 -0.3794  1.2760 -1.6021
  447MOL0     H60286   5.184   1.908   9.842  1.3529 -1.1810  0.7059
  447MOL0     H60287   5.219   1.737   9.831  0.4691 -0.8129 -0.0775
  447MOL0     H60288   5.269   1.940   9.602 -0.8514 -1.7227 -1.0958
  447MOL0     H60289   5.389   1.908   9.729  0.6109 -1.2898  0.1047
  447MOL0     H60290   5.384   1.658   9.640  2.0923 -1.6538 -3.3466
  447MOL0     H60291   5.294   1.727   9.510  1.3324 -1.2741 -0.4241
  447MOL0     H60292   5.492   1.846   9.426 -0.2037  0.0497  0.7568
  447MOL0     H60293   5.553   1.685   9.491 -1.1482 -1.6541  1.0977
  447MOL0     H60294   5.578   1.935   9.657  1.8731  1.0982  0.1284
  447MOL0     H60295   5.668   1.778   9.650  0.4913 -0.4680 -1.4408
  447MOL0     H60296   5.865   1.748   9.495  0.2167 -0.4264 -1.5020
  447MOL0     H60297   5.978   1.816   9.212  0.2751 -1.0504 -1.0544
  447MOL0     H60298   6.029   1.977   9.235  1.1282 -0.6990 -0.6448
  447MOL0     H60299   6.197   1.919   9.394 -0.7868  0.1516  2.4430
  447MOL0     H60300   6.113   1.770   9.448  0.3357  0.6821 -0.1811
  447MOL0     H60301   6.215   1.808   9.170  1.2996 -2.9449 -1.3141
  447MOL0     H60302   6.161   1.654   9.246 -2.1488  0.4887  1.8106
  447MOL0     H60303   6.410   1.652   9.240  1.3467 -1.0992  1.2314
  447MOL0     H60304   6.376   1.678   9.409 -0.7927 -1.0383 -0.6494
  447MOL0     H60305   6.557   2.048   9.238 -1.2174 -2.0526 -0.0080
  447MOL0     H60306   6.784   2.102   9.245 -3.6251 -0.1619 -0.9735
  447MOL0     H60307   7.272   1.954   9.406  2.4807  1.1948  2.6063
  447MOL0     H60308   7.492   2.052   9.337  2.8649  0.9696 -5.1371
  447MOL0     H60309   7.651   2.195   9.357 -0.5239 -2.2192 -0.4265
  447MOL0     H60310   7.646   2.149   9.184 -0.0163  0.3037 -0.2529
  447MOL0     H60311   7.730   2.395   9.147  0.0933  0.1181  0.0913
  447MOL0     H60312   7.770   2.410   9.308 -2.6068  1.1167 -1.7314
  447MOL0     H60313   7.918   2.196   9.294 -0.6345 -2.9042 -0.2246
  447MOL0     H60314   7.855   2.183   9.132 -0.4426  1.9869 -0.7432
  447MOL0     H60315   8.013   2.419   9.234 -2.0325  0.7910  0.2155
  447MOL0     H60316   7.963   2.399   9.060 -0.5369 -1.4468  0.0061
  447MOL0     H60317   8.100   2.249   8.997  0.8806 -2.0837  1.0150
  447MOL0     H60318   8.104   2.174   9.148 -3.8811  0.0963  0.2556
  447MOL0     H60319   8.246   2.441   9.080 -2.2432  1.2056  0.7823
  447MOL0     H60320   8.253   2.364   9.235 -0.7140  2.5938 -0.5863
  447MOL0     H60321   8.364   2.217   8.984 -1.4100 -2.9403  0.7767
  447MOL0     H60322   8.355   2.175   9.170 -1.2310  1.0898  1.8090
  447MOL0     H60323   8.491   2.385   9.193  1.8284  1.4597 -0.0170
  447MOL0     H60324   8.566   2.239   9.125  1.1759  0.2006 -1.5339
  447MOL0     H60325   7.308   2.361   9.118 -0.8458 -0.8670 -1.7510
  447MOL0     H60326   7.078   2.243   9.159 -1.9572 -0.1490  1.3346
  447MOL0     H60327   6.871   1.686   9.334  1.7329  0.9483 -1.4704
  447MOL0     H60328   6.618   1.643   9.343  0.4547 -0.2459  0.0638
  447MOL0     H60329   4.666   1.734   9.858  3.4219  0.2252 -1.1000
  447MOL0     H60330   4.444   1.612   9.816 -0.8551 -0.3733 -0.0227
  447MOL0     H60331   4.246   1.261   9.519 -1.6716 -0.7675 -0.6073
  447MOL0     H60332   4.125   1.068   9.450 -1.1039 -0.3386  0.2113
  447MOL0     H60333   4.239   0.822   9.511  0.5433 -1.4257 -2.0729
  447MOL0     H60334   4.104   0.795   9.409 -2.0329 -1.0610  0.5138
  447MOL0     H60335   4.177   0.576   9.506 -1.4144 -2.5332  1.4341
  447MOL0     H60336   4.028   0.615   9.579  1.3636  0.9747 -2.0578
  447MOL0     H60337   4.166   0.656   9.790  1.3051  2.6692 -0.7878
  447MOL0     H60338   4.302   0.666   9.684 -0.8708  1.2619  0.3699
  447MOL0     H60339   4.125   0.431   9.731  1.5417 -2.4413 -0.5910
  447MOL0     H60340   4.263   0.418   9.616 -0.8582  0.0373 -1.5031
  447MOL0     H60341   4.483   0.307   9.933  0.3347 -1.4437 -0.5891
  447MOL0     H60342   4.108   0.930   9.851 -0.2582  0.8438  0.1424
  447MOL0     H60343   4.344   1.130   9.995  0.3074  0.0625  0.6638
  447MOL0     H60344   4.176   1.208  10.018 -0.0458  0.4504 -1.0482
  447MOL0     H60345   4.201   1.035  10.022 -1.3673  1.2857  0.4089
  448MOL0     O60346   9.608   5.967   4.876  0.3656  0.1400 -0.0175
  448MOL0     C60347   9.722   5.945   4.907 -1.2879  0.0797 -0.8611
  448MOL0     O60348   9.798   6.022   4.994  0.7775 -0.8408  0.1463
  448MOL0     C60349   9.753   6.143   5.037  0.5906  0.4089 -0.7155
  448MOL0     C60350   9.827   6.190   5.142 -0.4616 -0.6300 -0.4604
  448MOL0     C60351   9.791   6.320   5.194  0.4431 -0.2412 -0.8901
  448MOL0     C60352   9.687   6.399   5.149  0.4006  0.0681 -0.4269
  448MOL0     O60353   9.654   6.523   5.199  0.0086 -0.9087  0.1620
  448MOL0     C60354   9.738   6.577   5.299 -0.3821 -0.1614 -0.1014
  448MOL0     C60355   9.713   6.730   5.307 -0.5529 -0.0505  0.1402
  448MOL0     C60356   9.713   6.810   5.177 -0.3461 -0.3217  0.5764
  448MOL0     C60357   9.663   6.941   5.204 -0.3672 -0.3101 -0.6315
  448MOL0     C60358   9.660   7.025   5.075 -0.6946  0.5604  0.7858
  448MOL0     C60359   9.594   7.165   5.089 -0.3585 -0.6878 -0.4761
  448MOL0     C60360   9.548   7.234   4.959  0.0789 -0.0951  0.3379
  448MOL0     C60361   9.640   7.267   4.841 -0.0340  0.0115  0.0375
  448MOL0     N60362   9.717   7.384   4.878 -0.7174  0.0839  0.1294
  448MOL0     C60363   9.811   7.390   4.974  0.0504 -0.1026 -0.1034
  448MOL0     C60364   9.849   7.519   4.979  0.1170 -0.2914  0.4418
  448MOL0     C60365   9.951   7.573   5.072  0.1599  0.4306 -0.0394
  448MOL0     C60366  10.086   7.534   5.019  0.0021  0.1090  0.1780
  448MOL0     C60367  10.192   7.589   5.118 -0.4173 -0.5289 -0.0834
  448MOL0     C60368  10.314   7.497   5.128  0.4492 -0.0354 -0.1366
  448MOL0     O60369  10.404   7.500   5.024 -0.7653 -0.1298  0.0864
  448MOL0     C60370  10.520   7.432   5.046  0.1941 -0.2496  0.8702
  448MOL0     C60371  10.529   7.297   5.031 -0.3214  0.0862 -0.1271
  448MOL0     C60372  10.642   7.230   5.055  1.1911 -0.2063  0.1212
  448MOL0     C60373  10.764   7.298   5.076 -0.3964 -0.2602  0.0507
  448MOL0     C60374  10.890   7.223   5.101 -0.2001 -0.3022 -0.2808
  448MOL0     O60375  10.872   7.090   5.131  0.5467 -0.2687 -0.1515
  448MOL0     C60376  10.957   7.037   5.220  0.4886  0.2147 -0.0586
  448MOL0     C60377  10.976   7.083   5.355 -0.6206  0.0067 -0.2844
  448MOL0     C60378  11.089   7.031   5.429 -0.4223  0.4998 -0.4030
  448MOL0     C60379  11.157   6.920   5.382  0.2491 -0.5320 -0.3331
  448MOL0     O60380  11.268   6.871   5.446 -0.3431 -0.3271  0.2547
  448MOL0     C60381  11.237   6.740   5.502  0.6208  0.7248 -0.5678
  448MOL0     C60382  11.326   6.724   5.633  0.9796 -0.9565 -0.4051
  448MOL0     C60383  11.472   6.711   5.613 -0.4590  0.2638 -0.2051
  448MOL0     C60384  11.559   6.677   5.735 -0.4003 -0.2091  0.3387
  448MOL0     C60385  11.698   6.629   5.697  0.0935  0.6138 -0.6294
  448MOL0     C60386  11.771   6.555   5.818  0.4681  0.6811 -0.6360
  448MOL0     C60387  11.917   6.530   5.782  0.3658  0.6738  0.6627
  448MOL0     C60388  11.990   6.469   5.901 -0.5699 -0.1557  0.2022
  448MOL0    Cl60389  11.982   6.560   6.059 -0.3822 -0.1054  0.3020
  448MOL0     C60390  11.139   6.878   5.254  0.4193  0.0185 -0.0872
  448MOL0     C60391  11.039   6.938   5.174  0.2832 -0.2671 -0.2215
  448MOL0     O60392  10.998   7.280   5.079 -0.9342 -0.4746  0.6978
  448MOL0     C60393  10.765   7.441   5.091 -0.3139 -1.0704 -0.5691
  448MOL0     C60394  10.638   7.502   5.079  0.4748 -0.5243 -0.2213
  448MOL0     N60395   9.788   7.590   4.879 -0.1809  0.3419 -0.0639
  448MOL0     N60396   9.701   7.508   4.820  0.4480  0.3109  0.0889
  448MOL0     C60397   9.625   6.353   5.036 -0.7357 -0.3654 -0.2274
  448MOL0     C60398   9.659   6.231   4.976 -0.4493 -0.0081  0.5633
  448MOL0     C60399   9.785   5.812   4.862 -0.7000 -0.3164 -0.2046
  448MOL0     C60400   9.911   5.785   4.903 -0.5372 -0.8786  0.5351
  448MOL0     C60401   9.978   5.666   4.897 -0.1361  0.1978 -0.2732
  448MOL0     C60402   9.906   5.556   4.850 -0.3115  0.4478  0.5443
  448MOL0     O60403   9.956   5.427   4.843 -0.7676  0.1923 -0.0254
  448MOL0     C60404  10.093   5.409   4.877  0.4731  0.2818  0.0670
  448MOL0     C60405  10.149   5.289   4.790  0.6086 -0.3514  1.1037
  448MOL0     C60406  10.156   5.318   4.639 -0.2900  0.2780  1.7069
  448MOL0     C60407  10.159   5.183   4.557  0.0745 -0.7810  0.1080
  448MOL0     C60408  10.201   5.218   4.418 -0.9292  0.3521  0.1520
  448MOL0     C60409  10.227   5.250   4.299  0.3399  0.3359 -0.1766
  448MOL0     C60410   9.774   5.572   4.807 -0.3885 -0.2576  0.4352
  448MOL0     C60411   9.717   5.698   4.803  0.1749  0.4055 -0.1684
  448MOL0     C60412   9.568   5.694   4.759  1.0227 -0.0347  0.0729
  448MOL0     H60413   9.910   6.135   5.185  0.1494  0.5423 -0.0935
  448MOL0     H60414   9.838   6.346   5.288 -3.4404 -1.3844  1.5907
  448MOL0     H60415   9.739   6.532   5.399  3.7085 -0.3036 -0.0525
  448MOL0     H60416   9.839   6.555   5.264 -1.0711 -0.7911 -1.7826
  448MOL0     H60417   9.786   6.775   5.375 -1.1834  2.9376 -1.0250
  448MOL0     H60418   9.612   6.739   5.348 -0.4894  0.0417  0.2788
  448MOL0     H60419   9.637   6.772   5.108 -0.3997  0.2085  0.3396
  448MOL0     H60420   9.813   6.814   5.135 -0.4792 -1.3915  0.1338
  448MOL0     H60421   9.574   6.947   5.268 -1.5236  2.1887 -2.3118
  448MOL0     H60422   9.735   6.991   5.269 -1.2517 -1.3978  1.2606
  448MOL0     H60423   9.761   7.042   5.038 -0.0617  0.7406  2.5071
  448MOL0     H60424   9.614   6.968   4.994  0.8627 -2.9413  2.1524
  448MOL0     H60425   9.508   7.153   5.157 -0.6022 -1.6759 -0.9461
  448MOL0     H60426   9.664   7.229   5.142 -1.4819 -0.6890  1.0784
  448MOL0     H60427   9.490   7.320   4.993 -1.5934 -0.3908 -1.5777
  448MOL0     H60428   9.470   7.172   4.913  0.1516 -0.3016  0.4932
  448MOL0     H60429   9.710   7.189   4.811  1.5439  0.9224  1.2404
  448MOL0     H60430   9.571   7.286   4.758 -0.2742 -0.5355  0.1079
  448MOL0     H60431   9.850   7.311   5.038  0.6648 -0.0354 -0.3944
  448MOL0     H60432   9.951   7.680   5.095  0.3803  0.4140  0.0356
  448MOL0     H60433   9.940   7.510   5.160 -1.0388 -1.2943 -1.3440
  448MOL0     H60434  10.102   7.426   5.010  2.3422  0.5651 -2.5449
  448MOL0     H60435  10.092   7.576   4.918 -0.6067 -2.2824 -0.9314
  448MOL0     H60436  10.145   7.595   5.217 -0.6788  2.5203 -0.2995
  448MOL0     H60437  10.222   7.690   5.089  0.9984 -1.4094 -1.8962
  448MOL0     H60438  10.282   7.393   5.135 -1.5560  0.4715 -1.1273
  448MOL0     H60439  10.358   7.532   5.222  0.8759  2.3929 -1.1594
  448MOL0     H60440  10.434   7.247   5.016 -0.9284  1.4334 -0.9512
  448MOL0     H60441  10.650   7.122   5.052  3.1254 -0.2573  3.1739
  448MOL0     H60442  10.916   7.166   5.388 -0.3273 -0.5732  1.8622
  448MOL0     H60443  11.118   7.073   5.525  2.6036  0.8112 -1.3516
  448MOL0     H60444  11.130   6.738   5.525  1.0133 -0.2639  1.3431
  448MOL0     H60445  11.253   6.649   5.444  0.2903 -0.0389  0.5097
  448MOL0     H60446  11.311   6.811   5.698 -1.3542 -1.9836  0.5564
  448MOL0     H60447  11.287   6.635   5.684  1.1064 -0.9979 -0.3795
  448MOL0     H60448  11.487   6.618   5.557 -1.2944  0.3057 -0.5098
  448MOL0     H60449  11.511   6.798   5.560  0.0526  0.0851 -0.1289
  448MOL0     H60450  11.515   6.598   5.797  1.9553 -1.6380  0.3242
  448MOL0     H60451  11.572   6.764   5.799  1.7895  0.5550 -1.0291
  448MOL0     H60452  11.765   6.700   5.648  3.4029  0.5612  3.2920
  448MOL0     H60453  11.676   6.554   5.621 -2.2350 -0.9065  1.3898
  448MOL0     H60454  11.755   6.631   5.894  0.1096  0.9731 -0.9972
  448MOL0     H60455  11.727   6.457   5.838 -1.3362  0.9562 -2.8356
  448MOL0     H60456  11.980   6.613   5.747  1.1020 -0.2343 -0.2109
  448MOL0     H60457  11.920   6.466   5.694  1.3443  0.5812  0.7456
  448MOL0     H60458  11.961   6.365   5.922  3.3195 -1.4499  0.0174
  448MOL0     H60459  12.097   6.454   5.883 -0.6957  0.7634 -1.4476
  448MOL0     H60460  11.201   6.800   5.210  0.9193  0.1581  0.3596
  448MOL0     H60461  11.035   6.901   5.072 -0.0824 -2.0217  0.4005
  448MOL0     H60462  10.861   7.488   5.110 -0.9908  0.4004 -0.6841
  448MOL0     H60463  10.621   7.609   5.091 -4.1454 -0.6259 -3.4786
  448MOL0     H60464   9.562   6.423   4.982 -1.2525 -0.5807  0.0823
  448MOL0     H60465   9.609   6.200   4.885  0.5172  0.0317  0.0112
  448MOL0     H60466   9.965   5.867   4.950 -0.8199 -0.9532  0.9931
  448MOL0     H60467  10.083   5.678   4.920  0.3216  2.6878 -3.0782
  448MOL0     H60468  10.091   5.384   4.983 -1.9094 -0.4431 -0.0744
  448MOL0     H60469  10.157   5.495   4.856  2.6166 -1.7599 -2.4828
  448MOL0     H60470  10.084   5.202   4.807 -0.3758  0.0367 -0.4766
  448MOL0     H60471  10.251   5.271   4.823  0.9196 -0.4855  0.0855
  448MOL0     H60472  10.241   5.384   4.615 -1.1559  1.5375  1.9870
  448MOL0     H60473  10.069   5.375   4.603 -0.4229 -1.5118 -1.1279
  448MOL0     H60474  10.218   5.104   4.604 -0.3277  0.1190  2.2031
  448MOL0     H60475  10.057   5.142   4.556  1.2971 -4.1328  0.3096
  448MOL0     H60476  10.285   5.282   4.214  0.8805  0.3668  0.2015
  448MOL0     H60477   9.721   5.492   4.756  0.8475 -0.5565 -0.4212
  448MOL0     H60478   9.543   5.594   4.721  0.7887 -0.4534  1.2815
  448MOL0     H60479   9.518   5.709   4.855  1.4604 -0.0924  0.3110
  448MOL0     H60480   9.560   5.768   4.679 -0.2042  0.5262  0.6933
  449MOL0     O60481   1.693   7.199   3.294 -1.1618 -0.4381  0.3798
  449MOL0     C60482   1.644   7.106   3.350  0.2947 -0.2488  0.5593
  449MOL0     O60483   1.703   6.990   3.390 -0.0596 -0.2797  0.7568
  449MOL0     C60484   1.840   7.009   3.414 -0.1888  1.1572  0.6460
  449MOL0     C60485   1.932   7.005   3.305 -0.1608 -0.9669 -0.3413
  449MOL0     C60486   2.069   7.014   3.331 -0.2083 -0.4711 -0.3719
  449MOL0     C60487   2.114   7.029   3.464  0.0217 -0.1729  0.2860
  449MOL0     O60488   2.250   7.022   3.504  0.0455 -0.2581 -0.9303
  449MOL0     C60489   2.367   7.041   3.414  0.2647  0.2759 -0.0019
  449MOL0     C60490   2.483   7.048   3.505 -0.1814 -0.2836  0.4783
  449MOL0     C60491   2.623   7.037   3.424 -0.2997 -0.0151  0.0781
  449MOL0     C60492   2.697   7.173   3.430 -0.2303  0.5611 -1.0157
  449MOL0     C60493   2.845   7.158   3.424 -0.0322  0.2318 -0.3321
  449MOL0     C60494   2.921   7.287   3.400 -0.2926  0.0529 -0.6218
  449MOL0     C60495   3.066   7.263   3.348 -0.9968  0.5571 -0.0852
  449MOL0     C60496   3.118   7.404   3.305 -0.5287 -0.6437  0.0707
  449MOL0     N60497   3.255   7.400   3.257 -0.9613 -0.1462 -0.2281
  449MOL0     C60498   3.352   7.495   3.298  0.1466 -0.1213  0.1451
  449MOL0     C60499   3.467   7.459   3.234  0.2052  1.4062 -1.5345
  449MOL0     C60500   3.607   7.522   3.258 -0.4347 -0.6336 -0.3836
  449MOL0     C60501   3.618   7.656   3.173  0.4586 -0.5108  0.8973
  449MOL0     C60502   3.592   7.630   3.023 -0.9206 -0.8610 -0.7562
  449MOL0     C60503   3.675   7.512   2.973 -0.0563 -0.2510 -0.6549
  449MOL0     O60504   3.814   7.519   3.007  0.4004 -0.0671 -0.4752
  449MOL0     C60505   3.884   7.620   2.947  0.6307 -0.6986  0.3683
  449MOL0     C60506   3.879   7.627   2.803  0.5287 -0.0504  0.4830
  449MOL0     C60507   3.944   7.727   2.736  0.0453 -0.9927  0.4466
  449MOL0     C60508   4.004   7.833   2.812 -0.2788  0.0151  0.1468
  449MOL0     C60509   4.086   7.928   2.738 -0.0345 -0.1405  0.7939
  449MOL0     O60510   4.074   7.938   2.604  0.2296  0.2286  0.1284
  449MOL0     C60511   4.149   8.008   2.507  0.6151 -0.5395 -0.3536
  449MOL0     C60512   4.285   7.986   2.491 -0.2757  0.2186  0.4435
  449MOL0     C60513   4.358   8.056   2.395 -0.5046 -0.3546  0.1757
  449MOL0     C60514   4.302   8.156   2.320  0.0294 -0.4220  0.0847
  449MOL0     O60515   4.383   8.233   2.241 -0.5585  0.3284 -0.4368
  449MOL0     C60516   4.336   8.360   2.171  0.4647 -0.2096  0.5792
  449MOL0     C60517   4.440   8.453   2.116  0.1926  0.1164 -0.0824
  449MOL0     C60518   4.492   8.398   1.987 -0.6233 -1.2467  0.6544
  449MOL0     C60519   4.538   8.517   1.892 -0.6641  0.4791 -0.4755
  449MOL0     C60520   4.662   8.597   1.924  0.3575 -0.2885 -0.0068
  449MOL0     C60521   4.792   8.517   1.930  0.4077 -0.0728  0.4189
  449MOL0     C60522   4.917   8.592   1.970 -0.0347  0.6603 -0.5555
  449MOL0     C60523   4.976   8.701   1.881 -0.7174 -0.4239  0.1298
  449MOL0    Cl60524   5.103   8.795   1.966  0.0711  0.1225 -0.1035
  449MOL0     C60525   4.166   8.176   2.327 -0.3080 -0.1241  0.5161
  449MOL0     C60526   4.085   8.095   2.415 -1.1492  0.3838 -0.3912
  449MOL0     O60527   4.171   7.987   2.798  0.0483  0.0448 -0.3157
  449MOL0     C60528   4.000   7.827   2.951  0.5547  0.2604 -0.7928
  449MOL0     C60529   3.942   7.718   3.016 -0.7250 -0.6098 -0.3579
  449MOL0     N60530   3.431   7.342   3.157  0.0533 -0.2894 -0.2596
  449MOL0     N60531   3.308   7.309   3.171 -0.3091 -0.1072 -0.0399
  449MOL0     C60532   2.025   7.036   3.561 -0.5046 -0.1927  0.3967
  449MOL0     C60533   1.891   7.011   3.544  0.4059  0.3921  0.3997
  449MOL0     C60534   1.498   7.119   3.348  0.0606  0.1016  0.1264
  449MOL0     C60535   1.433   7.005   3.292  0.9421 -0.1443  0.1895
  449MOL0     C60536   1.289   7.010   3.277  0.0057 -0.6483  0.2290
  449MOL0     C60537   1.211   7.113   3.313  0.1258 -0.2291  0.2792
  449MOL0     O60538   1.073   7.088   3.301 -0.9826  0.0665 -0.0377
  449MOL0     C60539   0.991   7.193   3.349  0.0803 -0.0788  0.3348
  449MOL0     C60540   0.841   7.164   3.324 -0.3022  0.4102  0.5517
  449MOL0     C60541   0.812   7.164   3.173 -0.3050 -0.2235  0.1495
  449MOL0     C60542   0.659   7.135   3.138 -0.4697 -0.3517 -0.3277
  449MOL0     C60543   0.623   6.998   3.170  0.8816 -0.0613 -0.6959
  449MOL0     C60544   0.589   6.885   3.193 -0.5288 -0.2487 -0.4965
  449MOL0     C60545   1.275   7.227   3.371 -0.7393  0.1169 -0.0726
  449MOL0     C60546   1.420   7.229   3.376  0.1150  0.2284 -0.7153
  449MOL0     C60547   1.492   7.354   3.426  0.5247 -0.6151  0.4696
  449MOL0     H60548   1.895   6.997   3.203  1.9396  0.0677 -1.2618
  449MOL0     H60549   2.131   7.022   3.243  0.4575 -2.0668 -0.0815
  449MOL0     H60550   2.382   6.966   3.337  3.2879  2.1025 -1.3951
  449MOL0     H60551   2.367   7.136   3.358  0.2927 -0.6145 -1.5644
  449MOL0     H60552   2.477   6.979   3.590 -1.7076 -0.6717  0.0867
  449MOL0     H60553   2.483   7.145   3.556  2.1467 -1.3787  2.7808
  449MOL0     H60554   2.608   6.995   3.324 -3.1669 -0.7342  0.7064
  449MOL0     H60555   2.690   6.965   3.472  1.1778  0.5513 -1.0506
  449MOL0     H60556   2.662   7.223   3.339 -3.3992 -0.5853 -0.5453
  449MOL0     H60557   2.665   7.232   3.516 -2.3267 -0.5244 -0.9875
  449MOL0     H60558   2.891   7.115   3.514  1.6700  3.4642  0.5193
  449MOL0     H60559   2.870   7.093   3.340  1.2462  1.1786 -0.7230
  449MOL0     H60560   2.881   7.352   3.322  1.9759  0.6400 -1.3680
  449MOL0     H60561   2.936   7.342   3.493 -0.9144  2.8106 -2.0405
  449MOL0     H60562   3.049   7.205   3.257 -0.0129  2.3698 -1.4887
  449MOL0     H60563   3.134   7.224   3.423  0.4020  3.1695  0.1058
  449MOL0     H60564   3.056   7.445   3.226 -1.1898 -1.4777  0.1469
  449MOL0     H60565   3.106   7.471   3.391 -1.5122 -2.2025  1.2082
  449MOL0     H60566   3.330   7.577   3.365  0.1736  0.4233 -0.5128
  449MOL0     H60567   3.627   7.546   3.363  1.6224 -1.4097 -0.5456
  449MOL0     H60568   3.682   7.451   3.223  2.0491  1.4612  0.3739
  449MOL0     H60569   3.536   7.719   3.209 -0.6922 -2.3367  1.6365
  449MOL0     H60570   3.707   7.714   3.198  1.5571 -0.5765 -2.4727
  449MOL0     H60571   3.610   7.724   2.969  0.6881 -1.0585 -0.6086
  449MOL0     H60572   3.492   7.592   3.001 -0.2258 -2.4425 -1.2661
  449MOL0     H60573   3.666   7.499   2.865  0.2608  1.2163 -0.8863
  449MOL0     H60574   3.643   7.417   3.016  0.9360 -0.2587  0.0954
  449MOL0     H60575   3.823   7.560   2.740 -1.3498  0.7541  1.2273
  449MOL0     H60576   3.931   7.739   2.629 -5.6297  4.3101  1.1771
  449MOL0     H60577   4.349   7.921   2.549  1.2792  1.4365  0.1998
  449MOL0     H60578   4.466   8.050   2.390 -0.4080  1.1563 -4.6119
  449MOL0     H60579   4.255   8.337   2.101 -0.0156 -1.5268  1.5241
  449MOL0     H60580   4.300   8.420   2.255  4.0569  1.3388  1.1887
  449MOL0     H60581   4.389   8.548   2.094 -0.2428  0.4247  2.0143
  449MOL0     H60582   4.520   8.466   2.189 -0.2291 -0.3719  0.4764
  449MOL0     H60583   4.574   8.331   2.012  0.1444 -1.0580 -1.2026
  449MOL0     H60584   4.407   8.356   1.932 -0.4994  0.4198 -0.8978
  449MOL0     H60585   4.453   8.586   1.888 -0.2672  0.9220 -1.6710
  449MOL0     H60586   4.552   8.467   1.795  0.0760 -1.3232  0.5091
  449MOL0     H60587   4.636   8.658   2.011  0.3272  0.1352 -0.3040
  449MOL0     H60588   4.684   8.662   1.839  1.6254 -3.9537 -2.7388
  449MOL0     H60589   4.769   8.438   2.003  2.1664 -0.7255  0.3090
  449MOL0     H60590   4.809   8.478   1.830  0.7955  0.7460  0.1563
  449MOL0     H60591   4.990   8.514   1.992 -2.4258 -1.6497 -0.2740
  449MOL0     H60592   4.909   8.640   2.068  1.7777  0.4882 -0.2884
  449MOL0     H60593   5.030   8.659   1.795 -0.1246  0.1472  0.2181
  449MOL0     H60594   4.899   8.773   1.852 -1.2212  0.3839  3.1274
  449MOL0     H60595   4.132   8.258   2.265  1.2948  0.2593  0.1065
  449MOL0     H60596   3.977   8.105   2.417 -1.1201  0.6742 -0.2491
  449MOL0     H60597   4.047   7.903   3.012  4.2947 -0.0380 -3.0329
  449MOL0     H60598   3.937   7.717   3.125 -1.2707 -1.2686 -0.3774
  449MOL0     H60599   2.062   7.042   3.663  1.4695  2.5564 -0.3639
  449MOL0     H60600   1.821   7.001   3.627 -0.9816  0.5905 -0.7038
  449MOL0     H60601   1.488   6.917   3.261  2.0079  0.6508 -0.2371
  449MOL0     H60602   1.227   6.937   3.227 -1.5965 -0.2781  1.5948
  449MOL0     H60603   1.025   7.289   3.308  0.8593  0.5433  2.3129
  449MOL0     H60604   0.993   7.200   3.458 -2.9669  0.1183  0.4726
  449MOL0     H60605   0.776   7.240   3.369  0.5929  1.1223  0.6648
  449MOL0     H60606   0.815   7.072   3.376  0.0696  1.6190  3.0051
  449MOL0     H60607   0.877   7.091   3.122 -1.2255 -0.3019 -0.9662
  449MOL0     H60608   0.848   7.259   3.133  1.5608 -0.4314  1.1978
  449MOL0     H60609   0.596   7.197   3.201 -0.1534  1.2948 -1.5564
  449MOL0     H60610   0.642   7.157   3.032  0.7550  0.5218 -0.3711
  449MOL0     H60611   0.552   6.784   3.196  2.2987 -1.3692 -0.0127
  449MOL0     H60612   1.220   7.318   3.393 -1.6018  0.1355 -2.1071
  449MOL0     H60613   1.415   7.413   3.475 -1.6161 -1.6261 -1.4850
  449MOL0     H60614   1.560   7.327   3.507  2.6085  0.2466 -0.8896
  449MOL0     H60615   1.536   7.410   3.343 -0.1925  0.5779  0.8741
  450MOL0     O60616   8.660   4.403   9.103  0.5558  0.0322 -0.5706
  450MOL0     C60617   8.686   4.432   9.216  0.3181  0.2430 -0.4853
  450MOL0     O60618   8.817   4.444   9.271  0.2624 -0.7023 -0.6364
  450MOL0     C60619   8.925   4.415   9.188  0.2534  0.5618 -0.5932
  450MOL0     C60620   9.029   4.493   9.169 -0.1990 -0.1785  0.0678
  450MOL0     C60621   9.144   4.461   9.095 -0.5249 -0.3179 -0.1928
  450MOL0     C60622   9.151   4.339   9.030  0.2034 -0.4517 -0.0819
  450MOL0     O60623   9.262   4.297   8.953 -0.0729 -0.0448  0.2502
  450MOL0     C60624   9.301   4.375   8.838 -0.0554  0.3005 -0.4103
  450MOL0     C60625   9.198   4.357   8.726  0.3161  0.8151  0.4686
  450MOL0     C60626   9.244   4.441   8.605  0.9776 -0.5605 -0.1411
  450MOL0     C60627   9.129   4.446   8.501  0.0803 -1.3083  0.0509
  450MOL0     C60628   9.178   4.512   8.372  0.5136  0.3654 -0.9407
  450MOL0     C60629   9.074   4.490   8.262  0.3419 -0.2181 -0.7197
  450MOL0     C60630   9.126   4.578   8.146 -0.1092  0.7739  0.5329
  450MOL0     C60631   9.036   4.551   8.027  0.3706 -0.3775 -0.3205
  450MOL0     N60632   9.084   4.606   7.899  0.7438 -0.2427  0.4461
  450MOL0     C60633   9.176   4.533   7.824 -0.4712 -0.0354  0.3427
  450MOL0     C60634   9.202   4.619   7.726 -0.1692  0.4657 -0.1785
  450MOL0     C60635   9.314   4.606   7.615  0.7458  0.1587 -0.1604
  450MOL0     C60636   9.467   4.576   7.658  0.3822  0.2434  0.0742
  450MOL0     C60637   9.559   4.615   7.540 -0.5257 -0.0182 -0.3673
  450MOL0     C60638   9.706   4.559   7.531  0.0579  0.1049 -0.1080
  450MOL0     O60639   9.778   4.566   7.655 -0.0118  0.2315  0.1199
  450MOL0     C60640   9.918   4.551   7.659 -0.7395  0.4432  0.0567
  450MOL0     C60641   9.979   4.493   7.548 -0.3156  0.2704  0.0493
  450MOL0     C60642  10.117   4.514   7.529  0.7846 -0.3723  0.5525
  450MOL0     C60643  10.201   4.551   7.637  0.7285 -0.1668  0.1083
  450MOL0     C60644  10.348   4.558   7.631 -0.4233 -0.9192 -0.1833
  450MOL0     O60645  10.415   4.577   7.749  0.2686  0.4188  0.0449
  450MOL0     C60646  10.554   4.586   7.757  0.0720 -0.1626 -0.2226
  450MOL0     C60647  10.597   4.676   7.844  0.2944  0.2745  0.7976
  450MOL0     C60648  10.735   4.712   7.852  0.5081  0.2613  0.1140
  450MOL0     C60649  10.831   4.619   7.803 -0.0769 -0.0585  0.0193
  450MOL0     O60650  10.960   4.660   7.822  0.3005 -0.0431 -0.1560
  450MOL0     C60651  11.039   4.633   7.706  0.1265 -0.5967 -0.4700
  450MOL0     C60652  11.169   4.696   7.713 -0.4447 -0.2847 -0.1241
  450MOL0     C60653  11.254   4.624   7.827 -0.8797  0.5317  0.7069
  450MOL0     C60654  11.382   4.715   7.844  0.3215  0.2637  1.0321
  450MOL0     C60655  11.496   4.627   7.892 -0.1885  0.4321  0.1483
  450MOL0     C60656  11.544   4.529   7.793  0.8138 -0.0770 -0.8178
  450MOL0     C60657  11.613   4.408   7.865 -0.5176  0.0663 -0.5138
  450MOL0     C60658  11.626   4.284   7.778 -0.4817 -0.6827 -0.0891
  450MOL0    Cl60659  11.741   4.313   7.649 -0.0729 -0.0176 -0.3815
  450MOL0     C60660  10.785   4.514   7.730  0.1215 -1.0369  0.5170
  450MOL0     C60661  10.650   4.505   7.701  0.8089  0.4641 -0.6068
  450MOL0     O60662  10.403   4.560   7.519 -0.4912 -0.7069  0.4673
  450MOL0     C60663  10.134   4.611   7.748  0.7032  0.7780  0.2562
  450MOL0     C60664  10.000   4.614   7.757  0.2426  0.1483 -0.3087
  450MOL0     N60665   9.107   4.715   7.721  0.1122 -0.2085  0.7843
  450MOL0     N60666   9.031   4.708   7.826 -0.0533 -0.2831  0.1845
  450MOL0     C60667   9.040   4.258   9.050 -0.6311 -0.4719  1.1147
  450MOL0     C60668   8.928   4.292   9.125  0.1556 -0.8063 -0.7889
  450MOL0     C60669   8.583   4.473   9.311  0.0664  0.2651 -0.2041
  450MOL0     C60670   8.609   4.576   9.403  0.4905 -0.1226 -0.5685
  450MOL0     C60671   8.520   4.605   9.501  0.1809  0.2822 -0.5123
  450MOL0     C60672   8.391   4.550   9.503  0.4255 -0.1020 -0.2333
  450MOL0     O60673   8.293   4.585   9.595  0.4171  0.4177  0.6748
  450MOL0     C60674   8.315   4.692   9.685  0.1578  1.2936  0.4967
  450MOL0     C60675   8.205   4.733   9.774  0.0571  1.2160  0.1601
  450MOL0     C60676   8.065   4.743   9.711 -0.1819 -0.2717 -0.2081
  450MOL0     C60677   7.942   4.807   9.805  1.2498 -0.2048 -0.1447
  450MOL0     C60678   7.819   4.825   9.739 -0.9179  0.2948 -0.1868
  450MOL0     C60679   7.711   4.824   9.691  0.1831 -0.6627 -0.0673
  450MOL0     C60680   8.368   4.449   9.410  0.9730 -1.3769  0.7875
  450MOL0     C60681   8.461   4.406   9.321  0.0242 -0.0434  0.8413
  450MOL0     C60682   8.434   4.290   9.225 -0.2256  0.1112  0.1007
  450MOL0     H60683   9.033   4.591   9.217 -1.4176  0.3646 -0.8892
  450MOL0     H60684   9.225   4.532   9.088 -0.8681  0.3712  2.0414
  450MOL0     H60685   9.309   4.478   8.875 -4.7823  0.6052  0.3199
  450MOL0     H60686   9.406   4.355   8.814  0.1370  0.9842 -0.1681
  450MOL0     H60687   9.096   4.383   8.758  0.3160 -0.1744  1.3082
  450MOL0     H60688   9.195   4.250   8.704 -2.9742  0.8920 -0.0036
  450MOL0     H60689   9.333   4.392   8.564  0.8351 -0.1786 -0.9283
  450MOL0     H60690   9.246   4.548   8.630 -0.8501  0.1748 -2.7449
  450MOL0     H60691   9.101   4.345   8.471  0.3331 -1.0677 -1.0151
  450MOL0     H60692   9.044   4.504   8.539  0.7238  1.1044 -1.8995
  450MOL0     H60693   9.182   4.615   8.410 -3.4900  0.9406 -1.7073
  450MOL0     H60694   9.283   4.492   8.348  0.3963 -0.6695 -0.6412
  450MOL0     H60695   9.080   4.387   8.226 -1.9360 -0.4088 -0.6682
  450MOL0     H60696   8.970   4.506   8.291  0.0803 -1.7091 -0.7633
  450MOL0     H60697   9.229   4.550   8.120 -0.5515 -2.1013  1.4757
  450MOL0     H60698   9.132   4.683   8.173 -0.9696  1.9501 -3.3101
  450MOL0     H60699   9.021   4.444   8.015 -2.5455 -0.1038  0.0069
  450MOL0     H60700   8.940   4.601   8.047 -0.1883 -1.1151 -1.1160
  450MOL0     H60701   9.233   4.446   7.855  0.0880 -0.0620 -0.7179
  450MOL0     H60702   9.280   4.531   7.543  1.4528 -0.4281  0.1064
  450MOL0     H60703   9.317   4.704   7.565 -1.4870  0.0187 -0.6843
  450MOL0     H60704   9.503   4.638   7.741 -0.2248  0.9712 -0.1895
  450MOL0     H60705   9.478   4.470   7.681  0.2325 -0.6033 -3.3136
  450MOL0     H60706   9.559   4.725   7.544 -0.6336 -0.0323  3.1921
  450MOL0     H60707   9.509   4.587   7.447 -2.1171 -0.9976  0.7367
  450MOL0     H60708   9.763   4.613   7.454 -0.8243  3.8944  1.6710
  450MOL0     H60709   9.704   4.456   7.494 -3.3356 -0.1400  0.4291
  450MOL0     H60710   9.919   4.446   7.471  0.7108  1.5030 -1.5768
  450MOL0     H60711  10.168   4.475   7.442  2.2253  3.0651 -0.2668
  450MOL0     H60712  10.521   4.738   7.890 -2.8547 -3.5260  1.2051
  450MOL0     H60713  10.761   4.802   7.909 -0.5428 -0.2911  1.5438
  450MOL0     H60714  11.064   4.527   7.698  0.5580 -0.7195  1.8389
  450MOL0     H60715  10.989   4.683   7.622 -0.7375  1.5678  1.2267
  450MOL0     H60716  11.212   4.703   7.613 -0.5093  1.6851 -0.0432
  450MOL0     H60717  11.158   4.800   7.743  2.1592  0.5358 -1.7446
  450MOL0     H60718  11.203   4.620   7.924 -1.6270  0.1293  0.3070
  450MOL0     H60719  11.275   4.521   7.796 -0.8078  0.5306  0.7585
  450MOL0     H60720  11.343   4.793   7.910  0.0229  1.1184 -0.1344
  450MOL0     H60721  11.407   4.770   7.753 -0.2848  1.4997  1.5988
  450MOL0     H60722  11.453   4.574   7.978 -0.0015 -1.2195 -0.7362
  450MOL0     H60723  11.580   4.690   7.922  0.0669  1.6260 -2.7357
  450MOL0     H60724  11.463   4.485   7.732  0.7182 -1.0677 -0.0102
  450MOL0     H60725  11.619   4.571   7.725  1.8759 -1.0606 -0.2845
  450MOL0     H60726  11.569   4.398   7.964  0.5571 -0.5040 -0.0757
  450MOL0     H60727  11.714   4.441   7.893 -0.9919  0.3645  0.9313
  450MOL0     H60728  11.660   4.194   7.829 -1.0076 -0.5830  0.4388
  450MOL0     H60729  11.529   4.275   7.728 -1.0895 -0.2945  0.9886
  450MOL0     H60730  10.842   4.430   7.692 -2.0904 -2.8652  1.0268
  450MOL0     H60731  10.609   4.421   7.646 -5.6608  1.3531  1.9646
  450MOL0     H60732  10.188   4.661   7.829  3.1513 -1.3942  0.1019
  450MOL0     H60733   9.947   4.657   7.843 -1.1743 -2.5208  0.2691
  450MOL0     H60734   9.049   4.160   9.005 -0.9927  0.8470 -2.1452
  450MOL0     H60735   8.853   4.214   9.126 -0.9092  0.0810  2.5373
  450MOL0     H60736   8.709   4.618   9.410  0.3163  0.3711 -0.9977
  450MOL0     H60737   8.546   4.677   9.578  0.3312  0.4376 -0.7086
  450MOL0     H60738   8.333   4.786   9.630 -2.8541  1.6234 -0.0781
  450MOL0     H60739   8.397   4.669   9.754 -0.9293  0.7018  1.6302
  450MOL0     H60740   8.224   4.833   9.814 -0.4066  0.1002  3.4913
  450MOL0     H60741   8.189   4.664   9.858  0.6694  0.1243 -0.5989
  450MOL0     H60742   8.038   4.640   9.686 -0.3030 -0.2896 -0.0113
  450MOL0     H60743   8.079   4.795   9.616 -0.0839  0.0193 -0.0350
  450MOL0     H60744   7.933   4.736   9.888  2.7182 -0.8478 -0.4932
  450MOL0     H60745   7.977   4.900   9.850  0.1671 -1.1559  2.9085
  450MOL0     H60746   7.608   4.830   9.664  0.0282 -0.6132  0.5244
  450MOL0     H60747   8.275   4.397   9.392 -0.3027  0.4631  1.7738
  450MOL0     H60748   8.510   4.211   9.236  0.5355  0.5378 -1.7927
  450MOL0     H60749   8.335   4.247   9.243  0.4149 -0.7641  1.8368
  450MOL0     H60750   8.428   4.331   9.124  2.2022  0.1978 -0.0730
  451MOL0     O60751   8.118   7.580   8.798  0.1046  0.0417  0.2922
  451MOL0     C60752   8.074   7.486   8.868  0.4215 -0.1653  0.2772
  451MOL0     O60753   8.145   7.385   8.928 -0.0280 -0.7960  0.2602
  451MOL0     C60754   8.280   7.360   8.889  0.1622 -0.4411  0.0511
  451MOL0     C60755   8.339   7.363   8.762 -0.4873  0.1453  1.2851
  451MOL0     C60756   8.473   7.326   8.741  0.4410 -0.0746 -0.5086
  451MOL0     C60757   8.549   7.290   8.856 -0.3605  0.2516  0.4317
  451MOL0     O60758   8.685   7.277   8.846  0.1113 -0.3872 -0.1185
  451MOL0     C60759   8.748   7.183   8.926  0.6315  0.2364  0.1202
  451MOL0     C60760   8.895   7.207   8.911 -0.5658  0.3772  0.5270
  451MOL0     C60761   8.943   7.164   8.766 -0.5037  0.2868 -0.1417
  451MOL0     C60762   9.091   7.212   8.758 -0.8434  0.1390 -0.2212
  451MOL0     C60763   9.125   7.234   8.610 -0.3402  0.0906  0.8765
  451MOL0     C60764   9.272   7.273   8.590 -0.3414  0.0499  0.5614
  451MOL0     C60765   9.294   7.287   8.441  0.2992  0.5889 -0.3369
  451MOL0     C60766   9.430   7.337   8.413 -0.0536 -0.2418 -0.5691
  451MOL0     N60767   9.475   7.313   8.276 -0.1005  0.3715 -0.2128
  451MOL0     C60768   9.542   7.406   8.205 -0.2225  0.8586  0.0912
  451MOL0     C60769   9.570   7.354   8.085 -0.1075 -0.2349  0.0228
  451MOL0     C60770   9.642   7.436   7.973  0.0146 -0.8846 -0.2972
  451MOL0     C60771   9.783   7.426   7.966 -0.6129 -0.2940 -0.6120
  451MOL0     C60772   9.846   7.288   7.963  0.3141  0.4976 -0.9526
  451MOL0     C60773   9.993   7.297   7.960 -0.7409  0.6407  0.3310
  451MOL0     O60774  10.037   7.344   7.833 -0.0730 -0.3072 -0.5753
  451MOL0     C60775  10.163   7.339   7.786  0.1816 -0.4733  0.8743
  451MOL0     C60776  10.273   7.271   7.838  0.5036 -0.4686  0.1302
  451MOL0     C60777  10.405   7.293   7.775 -0.5382  0.5279 -0.7123
  451MOL0     C60778  10.428   7.377   7.665  0.1632 -0.1308 -0.5282
  451MOL0     C60779  10.560   7.399   7.605  0.1826  0.3915  0.8213
  451MOL0     O60780  10.581   7.510   7.531  0.0956  0.2717 -0.2278
  451MOL0     C60781  10.702   7.573   7.530 -0.1337  0.3664  0.4480
  451MOL0     C60782  10.797   7.580   7.636 -0.8025 -0.4233 -0.0648
  451MOL0     C60783  10.912   7.659   7.613 -0.1766  0.5758 -0.1611
  451MOL0     C60784  10.929   7.734   7.494  0.4928  0.9911  1.0726
  451MOL0     O60785  11.055   7.794   7.461  0.3257  0.7260 -0.3648
  451MOL0     C60786  11.107   7.890   7.549 -0.7537  0.5893 -0.2361
  451MOL0     C60787  11.200   7.976   7.462 -0.3558 -0.9812 -0.3709
  451MOL0     C60788  11.097   8.066   7.381  0.4268 -0.5567  0.1671
  451MOL0     C60789  11.173   8.181   7.332 -0.2087  0.9222  0.3390
  451MOL0     C60790  11.306   8.160   7.252  0.2356  0.3532 -1.1348
  451MOL0     C60791  11.304   8.125   7.097 -0.3488 -1.0560  0.4970
  451MOL0     C60792  11.212   8.017   7.054 -0.0569  0.1831 -0.2544
  451MOL0     C60793  11.267   7.867   7.091 -0.5681 -0.3726  0.0652
  451MOL0    Cl60794  11.155   7.753   7.011 -0.0332 -0.2422 -0.2057
  451MOL0     C60795  10.828   7.738   7.398  1.4895  0.3323 -0.2947
  451MOL0     C60796  10.710   7.655   7.410  0.4734 -0.0624 -0.6707
  451MOL0     O60797  10.648   7.322   7.634 -0.1691 -0.1326 -0.0766
  451MOL0     C60798  10.315   7.451   7.623  0.0389 -0.4016  0.4188
  451MOL0     C60799  10.190   7.426   7.680  0.8705 -0.2730  0.2018
  451MOL0     N60800   9.516   7.221   8.085 -0.0976  0.2597  0.2640
  451MOL0     N60801   9.462   7.198   8.200 -0.4736  0.6644  0.1609
  451MOL0     C60802   8.483   7.283   8.981 -0.3180  0.8889  1.0838
  451MOL0     C60803   8.351   7.312   8.997  0.3835 -0.2264 -0.2053
  451MOL0     C60804   7.922   7.498   8.866 -0.0295 -0.8038 -0.2076
  451MOL0     C60805   7.867   7.612   8.916  0.2185 -0.1815 -0.0176
  451MOL0     C60806   7.731   7.631   8.931  0.7134  0.2551 -0.4139
  451MOL0     C60807   7.644   7.525   8.905 -0.9938 -0.0525  0.6245
  451MOL0     O60808   7.516   7.544   8.919  0.0510 -0.0420 -0.4035
  451MOL0     C60809   7.418   7.437   8.933 -0.1471 -0.3035  0.5616
  451MOL0     C60810   7.404   7.379   9.079 -0.0447  0.3200  0.1844
  451MOL0     C60811   7.308   7.467   9.176  0.7089  1.1415  0.8277
  451MOL0     C60812   7.330   7.624   9.189 -0.3043 -0.2312 -0.3521
  451MOL0     C60813   7.470   7.669   9.198 -0.4940  0.0670  0.2693
  451MOL0     C60814   7.584   7.693   9.214 -0.2508  0.5703  0.8252
  451MOL0     C60815   7.705   7.403   8.857  0.1390 -0.3599  0.1153
  451MOL0     C60816   7.839   7.394   8.828  0.3943 -0.0026 -0.1731
  451MOL0     C60817   7.895   7.268   8.773 -0.1277  0.3331 -0.8470
  451MOL0     H60818   8.270   7.395   8.684 -1.5872  0.1544  2.2310
  451MOL0     H60819   8.519   7.321   8.642  2.1703  1.4533  0.1593
  451MOL0     H60820   8.736   7.203   9.033  0.0345 -0.1875  0.1392
  451MOL0     H60821   8.726   7.078   8.905  2.3271 -0.3459  1.0547
  451MOL0     H60822   8.958   7.141   8.972  3.0216  0.8886 -2.2745
  451MOL0     H60823   8.918   7.314   8.918  0.2512  0.4008 -1.6523
  451MOL0     H60824   8.879   7.215   8.694 -2.4972 -3.1011 -0.9877
  451MOL0     H60825   8.935   7.059   8.738  0.3394  0.0441  0.4920
  451MOL0     H60826   9.103   7.306   8.812 -0.9321  2.3460 -3.7119
  451MOL0     H60827   9.155   7.136   8.802 -0.4410 -1.4082 -3.1704
  451MOL0     H60828   9.106   7.158   8.534  2.4214 -0.5804  0.7596
  451MOL0     H60829   9.063   7.318   8.576 -1.6627 -0.6428  1.3949
  451MOL0     H60830   9.297   7.365   8.644  2.9279 -0.0287 -0.5912
  451MOL0     H60831   9.344   7.196   8.620  2.8607  0.5433 -4.5816
  451MOL0     H60832   9.231   7.370   8.407 -0.2657  0.9937  1.5979
  451MOL0     H60833   9.264   7.197   8.387  0.1255  0.6686 -0.3749
  451MOL0     H60834   9.426   7.446   8.417  0.8355 -0.0687 -2.9757
  451MOL0     H60835   9.504   7.298   8.482 -0.1966 -1.5488 -1.1203
  451MOL0     H60836   9.567   7.508   8.233 -1.0047  0.2155  3.6336
  451MOL0     H60837   9.600   7.415   7.875  0.4310 -1.1916 -0.4154
  451MOL0     H60838   9.610   7.539   7.988 -2.2578 -1.8101  2.3702
  451MOL0     H60839   9.820   7.479   7.878  1.8110  0.4596  0.7461
  451MOL0     H60840   9.833   7.473   8.051  2.1526  1.4742 -3.0257
  451MOL0     H60841   9.831   7.239   7.866  0.5382  0.2022 -0.8385
  451MOL0     H60842   9.809   7.231   8.049 -2.1817  2.8181 -0.3551
  451MOL0     H60843  10.043   7.202   7.982  2.0958  1.0973 -3.2979
  451MOL0     H60844  10.031   7.355   8.045  2.0241 -0.0281 -0.3530
  451MOL0     H60845  10.261   7.209   7.926 -0.1315  0.2134  0.5368
  451MOL0     H60846  10.493   7.237   7.806 -0.7153  0.3386 -0.5476
  451MOL0     H60847  10.790   7.524   7.729 -2.9786 -0.5572 -0.2530
  451MOL0     H60848  10.987   7.656   7.691  0.5943 -0.2481 -0.8980
  451MOL0     H60849  11.023   7.945   7.593 -2.3066 -1.5392 -0.3697
  451MOL0     H60850  11.162   7.851   7.636  1.1136  2.4681 -0.5078
  451MOL0     H60851  11.266   8.040   7.521 -1.3330 -1.3546  1.1931
  451MOL0     H60852  11.258   7.918   7.390 -4.5346 -1.9851 -3.3321
  451MOL0     H60853  11.051   7.998   7.309 -3.1080  0.7301  0.9947
  451MOL0     H60854  11.023   8.108   7.449  1.5815  1.6465  0.1633
  451MOL0     H60855  11.201   8.232   7.424 -0.4782  0.3278  0.7498
  451MOL0     H60856  11.114   8.252   7.273 -0.6526  0.0013 -0.3556
  451MOL0     H60857  11.363   8.082   7.304  0.5956  1.7330  0.6153
  451MOL0     H60858  11.366   8.251   7.262  1.9384 -0.6374 -1.7473
  451MOL0     H60859  11.271   8.216   7.046 -0.1788 -0.1796  1.8794
  451MOL0     H60860  11.406   8.096   7.071 -0.4661 -1.3005  0.3090
  451MOL0     H60861  11.217   8.020   6.944  0.7512  0.8948 -0.2081
  451MOL0     H60862  11.112   8.040   7.092  0.3519 -0.7608  1.5089
  451MOL0     H60863  11.369   7.850   7.054 -0.4053 -3.9941  1.7759
  451MOL0     H60864  11.275   7.850   7.199 -1.4396 -1.8638 -0.0890
  451MOL0     H60865  10.833   7.799   7.308 -3.5297  0.0360 -1.0549
  451MOL0     H60866  10.638   7.655   7.329 -0.7508 -0.9906  0.3722
  451MOL0     H60867  10.324   7.517   7.537  0.4230  0.9700  1.4900
  451MOL0     H60868  10.107   7.485   7.641 -0.2593 -2.0278 -0.1707
  451MOL0     H60869   8.520   7.244   9.075 -0.8188 -1.3548  0.4074
  451MOL0     H60870   8.305   7.297   9.094  1.7359  0.8267  0.6241
  451MOL0     H60871   7.944   7.680   8.951 -0.7781 -0.3309  2.6855
  451MOL0     H60872   7.687   7.722   8.968 -1.3601 -0.6188 -0.6086
  451MOL0     H60873   7.431   7.352   8.865  1.8878  0.6803 -0.3741
  451MOL0     H60874   7.319   7.473   8.903  1.4308  0.3602 -4.9271
  451MOL0     H60875   7.503   7.367   9.124  0.3284  1.4086 -0.3048
  451MOL0     H60876   7.362   7.278   9.077  1.1613 -0.2625  1.7158
  451MOL0     H60877   7.312   7.425   9.277 -0.4106 -2.2205 -0.4014
  451MOL0     H60878   7.205   7.457   9.141  0.4494 -0.6813  1.9714
  451MOL0     H60879   7.288   7.671   9.100 -2.2973  0.3671  0.8369
  451MOL0     H60880   7.275   7.650   9.280  1.5555 -0.6358  0.9357
  451MOL0     H60881   7.689   7.714   9.208  0.1713 -1.1019  1.6624
  451MOL0     H60882   7.645   7.314   8.838  0.0878 -0.0444 -1.3218
  451MOL0     H60883   7.816   7.192   8.768  0.9454 -1.0137  1.2599
  451MOL0     H60884   7.954   7.278   8.681 -3.3223  2.0276 -2.8871
  451MOL0     H60885   7.960   7.226   8.850  2.8868 -0.3385 -3.5082
  452MOL0     O60886   9.935   4.783   6.713  0.6368  0.2518 -0.4240
  452MOL0     C60887   9.944   4.905   6.731  0.1143 -0.2240 -0.0898
  452MOL0     O60888  10.049   4.967   6.790 -0.3614 -0.7139 -0.4604
  452MOL0     C60889  10.139   4.879   6.848 -1.4988 -0.5563 -0.9692
  452MOL0     C60890  10.243   4.817   6.782 -0.0586 -0.7428 -0.0545
  452MOL0     C60891  10.343   4.735   6.853  1.1474 -0.7748 -0.2857
  452MOL0     C60892  10.343   4.734   6.986  0.4135 -0.2111  0.0366
  452MOL0     O60893  10.445   4.666   7.036  0.6642 -0.2921  0.5086
  452MOL0     C60894  10.466   4.648   7.184  0.1638  0.6995  0.0491
  452MOL0     C60895  10.598   4.578   7.194 -1.0730 -0.3807 -0.6500
  452MOL0     C60896  10.671   4.599   7.327 -0.4669  0.8956  0.3693
  452MOL0     C60897  10.812   4.554   7.314  0.0654 -0.0920  0.4248
  452MOL0     C60898  10.905   4.645   7.234  0.0355  0.3835  0.0390
  452MOL0     C60899  10.935   4.770   7.311  0.5133 -0.6915 -0.1220
  452MOL0     C60900  11.075   4.820   7.298 -1.0640  0.6388  0.3299
  452MOL0     C60901  11.122   4.854   7.153 -0.1207 -0.6906 -0.0638
  452MOL0     N60902  11.167   4.753   7.066 -1.0466 -0.4841 -0.0780
  452MOL0     C60903  11.103   4.704   6.957 -0.2639 -0.6280  0.7665
  452MOL0     C60904  11.180   4.606   6.912 -1.2684  0.1129  0.5721
  452MOL0     C60905  11.163   4.520   6.782 -0.7015 -0.2801 -0.2391
  452MOL0     C60906  11.138   4.375   6.796 -0.9365  0.1322 -0.1292
  452MOL0     C60907  11.261   4.305   6.877  1.1172 -0.6760  0.3232
  452MOL0     C60908  11.216   4.293   7.018  0.2141 -0.7485 -0.4181
  452MOL0     O60909  11.110   4.194   7.020 -0.4020  0.0280  0.3610
  452MOL0     C60910  11.018   4.194   7.122 -0.4491 -0.7403 -0.2864
  452MOL0     C60911  10.893   4.141   7.119 -0.2435  0.3104 -0.0809
  452MOL0     C60912  10.807   4.137   7.233 -0.4001 -0.2073  0.1560
  452MOL0     C60913  10.858   4.188   7.355 -0.7064 -0.7961 -0.0723
  452MOL0     C60914  10.777   4.181   7.480 -0.3611 -0.1114  0.2465
  452MOL0     O60915  10.640   4.176   7.474  0.6811 -0.0179  0.3063
  452MOL0     C60916  10.571   4.114   7.569 -0.3863 -0.8954 -1.3882
  452MOL0     C60917  10.441   4.151   7.601  0.4290 -0.5237 -0.2402
  452MOL0     C60918  10.373   4.091   7.712 -0.6631 -0.6642  0.2536
  452MOL0     C60919  10.432   3.981   7.775 -0.6199 -0.7693  0.0549
  452MOL0     O60920  10.371   3.926   7.884 -0.2808  0.3201 -0.1088
  452MOL0     C60921  10.379   3.785   7.890 -0.6370  0.7170 -0.4573
  452MOL0     C60922  10.288   3.734   7.996 -0.3961  0.0025  0.0128
  452MOL0     C60923  10.147   3.701   7.941 -0.3799 -0.4095  0.0763
  452MOL0     C60924  10.079   3.828   7.886  0.8142 -0.4784  0.8278
  452MOL0     C60925   9.948   3.791   7.805 -0.4758  0.1489  0.7255
  452MOL0     C60926   9.920   3.902   7.700  0.0092  0.1088  0.2178
  452MOL0     C60927   9.881   4.033   7.770 -1.3381 -0.0710  0.0976
  452MOL0     C60928   9.867   4.144   7.669 -0.4884  0.3944 -1.0827
  452MOL0    Cl60929   9.727   4.134   7.550 -0.0154 -0.3058 -0.1121
  452MOL0     C60930  10.558   3.939   7.733 -0.9770 -0.0913  0.1580
  452MOL0     C60931  10.631   4.004   7.634 -0.6303  0.2249  0.6257
  452MOL0     O60932  10.844   4.193   7.586 -0.6161  0.1738 -0.3487
  452MOL0     C60933  10.983   4.251   7.356 -0.4925  0.4520  0.1520
  452MOL0     C60934  11.065   4.246   7.246 -0.8219  0.9722 -0.2245
  452MOL0     N60935  11.286   4.590   6.988 -0.7492 -0.2490 -0.6248
  452MOL0     N60936  11.277   4.683   7.080 -0.4903 -0.1969 -0.2844
  452MOL0     C60937  10.242   4.798   7.056 -0.0311 -0.6620  0.0125
  452MOL0     C60938  10.143   4.878   6.984  0.4628 -0.3839  0.1754
  452MOL0     C60939   9.842   4.999   6.670 -0.9713  0.5107  0.5601
  452MOL0     C60940   9.857   5.141   6.685 -0.3244  0.7065  0.8574
  452MOL0     C60941   9.756   5.222   6.643  0.2794  0.9413 -0.5704
  452MOL0     C60942   9.634   5.178   6.591  0.0154 -0.0124  0.1994
  452MOL0     O60943   9.522   5.247   6.592  0.4389 -0.6854 -0.1194
  452MOL0     C60944   9.455   5.262   6.456  0.2407 -0.4933 -0.4235
  452MOL0     C60945   9.338   5.366   6.463 -0.1071 -0.5959 -0.0711
  452MOL0     C60946   9.379   5.503   6.523 -0.8747 -0.1173  0.1472
  452MOL0     C60947   9.269   5.618   6.494 -0.0280  0.3523  0.0492
  452MOL0     C60948   9.275   5.660   6.350  0.2018  0.1217 -0.4758
  452MOL0     C60949   9.282   5.683   6.232 -0.2438  0.5675  0.3093
  452MOL0     C60950   9.622   5.037   6.582  0.1834 -0.1116  0.3278
  452MOL0     C60951   9.719   4.955   6.620  0.4320 -0.1653 -0.1512
  452MOL0     C60952   9.684   4.811   6.615  0.8027  0.8498  0.2474
  452MOL0     H60953  10.246   4.827   6.674 -5.3978  0.3712 -0.3716
  452MOL0     H60954  10.423   4.679   6.806  2.5054 -1.6097  2.7846
  452MOL0     H60955  10.468   4.749   7.227  1.0499  1.3693 -1.4599
  452MOL0     H60956  10.388   4.586   7.228 -1.4534  2.6182  0.0439
  452MOL0     H60957  10.662   4.625   7.119  1.4714  0.3008  1.7705
  452MOL0     H60958  10.586   4.471   7.174 -1.7843 -0.8120  1.8094
  452MOL0     H60959  10.633   4.540   7.411  0.7438  1.3750  1.2888
  452MOL0     H60960  10.661   4.704   7.354 -3.1247  1.2513 -1.5869
  452MOL0     H60961  10.853   4.545   7.415  0.8150  0.5668  0.1875
  452MOL0     H60962  10.807   4.456   7.266  0.9093 -0.1105  0.3559
  452MOL0     H60963  10.991   4.581   7.212 -0.2163  0.5094 -1.3919
  452MOL0     H60964  10.868   4.672   7.135  1.8954  1.0810 -0.5245
  452MOL0     H60965  10.864   4.846   7.277 -0.1338 -0.2573  2.0318
  452MOL0     H60966  10.911   4.755   7.416  0.4590 -1.7873 -0.2776
  452MOL0     H60967  11.149   4.764   7.355 -0.2946  0.3213 -0.9340
  452MOL0     H60968  11.071   4.918   7.346  1.3219  1.2097 -0.4874
  452MOL0     H60969  11.052   4.916   7.097  0.4238 -0.6159 -0.6747
  452MOL0     H60970  11.201   4.928   7.160  0.2612 -1.1125  0.1904
  452MOL0     H60971  11.013   4.736   6.905  1.1378 -0.7143 -1.8517
  452MOL0     H60972  11.086   4.563   6.717 -2.3110  0.3493  1.9779
  452MOL0     H60973  11.250   4.539   6.718 -1.6751 -0.2900 -1.6008
  452MOL0     H60974  11.034   4.354   6.823 -1.1983  0.4203 -0.8842
  452MOL0     H60975  11.153   4.341   6.693  2.1467  2.0827 -0.4650
  452MOL0     H60976  11.349   4.370   6.862 -1.1418  2.2319 -1.3766
  452MOL0     H60977  11.276   4.204   6.837  4.0456  0.1633 -0.9946
  452MOL0     H60978  11.187   4.386   7.066 -0.8383 -1.8291  1.1102
  452MOL0     H60979  11.301   4.258   7.078  1.1149 -0.0815 -1.2568
  452MOL0     H60980  10.846   4.097   7.032  1.3510 -3.3467  0.7401
  452MOL0     H60981  10.707   4.097   7.232 -0.9473  1.1000 -1.2686
  452MOL0     H60982  10.403   4.227   7.533  2.6151  1.3986  0.5362
  452MOL0     H60983  10.271   4.114   7.742 -1.5157 -0.5059 -2.4787
  452MOL0     H60984  10.369   3.730   7.795  0.6956  1.2084 -0.9075
  452MOL0     H60985  10.475   3.754   7.934 -2.1181 -0.7508  1.9427
  452MOL0     H60986  10.338   3.648   8.041  1.4744 -0.2970 -2.4474
  452MOL0     H60987  10.275   3.805   8.079  1.5853  1.0483 -0.4941
  452MOL0     H60988  10.145   3.629   7.859 -2.0245  0.3624 -0.6286
  452MOL0     H60989  10.083   3.662   8.021  1.8474 -0.5138  1.8768
  452MOL0     H60990  10.144   3.869   7.807  0.5741  0.1081  0.9284
  452MOL0     H60991  10.063   3.902   7.965  1.1881  1.6734 -1.0201
  452MOL0     H60992   9.855   3.785   7.861 -1.3117  2.5862 -0.2612
  452MOL0     H60993   9.954   3.699   7.746  0.7418  0.6466  0.0352
  452MOL0     H60994  10.005   3.915   7.632  1.4899  2.5858  2.3634
  452MOL0     H60995   9.833   3.870   7.642  1.9073 -5.7486 -0.0654
  452MOL0     H60996   9.964   4.057   7.837 -0.3524  3.7495 -2.1670
  452MOL0     H60997   9.787   4.020   7.824 -0.5284  0.5576  1.7313
  452MOL0     H60998   9.855   4.239   7.722 -1.1265 -0.6887  0.7744
  452MOL0     H60999   9.957   4.147   7.606 -0.8742  1.7647 -1.6028
  452MOL0     H61000  10.608   3.866   7.796  2.4746  1.5541 -0.3973
  452MOL0     H61001  10.732   3.969   7.615 -1.8780 -3.5019  0.0197
  452MOL0     H61002  11.017   4.297   7.448  2.6328 -1.8664  0.3518
  452MOL0     H61003  11.165   4.286   7.255 -1.5090  2.2681  2.9607
  452MOL0     H61004  10.224   4.789   7.163 -1.2314 -0.1431 -0.1275
  452MOL0     H61005  10.066   4.929   7.042 -1.4905 -1.0787 -1.6718
  452MOL0     H61006   9.944   5.194   6.722 -0.8398  2.1917 -0.0165
  452MOL0     H61007   9.763   5.330   6.645 -3.1290  1.2571 -0.8536
  452MOL0     H61008   9.402   5.175   6.417 -0.2813  0.9082 -3.1245
  452MOL0     H61009   9.529   5.302   6.386  0.2158  1.9369  0.8222
  452MOL0     H61010   9.258   5.327   6.525  0.0047 -1.2403 -0.3213
  452MOL0     H61011   9.291   5.365   6.364  0.5920  0.6833 -0.4390
  452MOL0     H61012   9.484   5.529   6.503 -0.1172 -1.7204  1.7128
  452MOL0     H61013   9.376   5.489   6.631 -0.7213 -1.4829 -0.0129
  452MOL0     H61014   9.168   5.589   6.523 -0.1465 -1.4914 -1.9794
  452MOL0     H61015   9.292   5.711   6.547  1.9340 -0.3001  0.4383
  452MOL0     H61016   9.285   5.677   6.125  1.7840 -2.8934  0.3873
  452MOL0     H61017   9.531   4.998   6.538 -1.5707 -0.6634  4.0199
  452MOL0     H61018   9.580   4.799   6.583  0.9903 -1.5076  0.3723
  452MOL0     H61019   9.735   4.756   6.536 -0.0183 -1.3067  1.1620
  452MOL0     H61020   9.691   4.766   6.714 -2.8914  2.0038  1.1744
  453MOL0     O61021  11.188   9.026   7.276  0.3167  0.3812 -0.9435
  453MOL0     C61022  11.139   9.049   7.384  0.1422 -0.3404  0.1702
  453MOL0     O61023  11.214   9.079   7.497  0.3491  0.0320 -0.8573
  453MOL0     C61024  11.346   9.089   7.485 -0.6754  0.6110  0.7166
  453MOL0     C61025  11.390   9.218   7.469  0.3238  0.2095 -0.5406
  453MOL0     C61026  11.521   9.237   7.451 -0.4113  0.2000  0.2664
  453MOL0     C61027  11.616   9.131   7.449  0.1370 -0.5187  0.0320
  453MOL0     O61028  11.750   9.141   7.434  0.1278  0.6603  0.0580
  453MOL0     C61029  11.816   9.252   7.489 -0.0696 -0.4252  0.7507
  453MOL0     C61030  11.954   9.278   7.425  0.2902  0.4355  1.0270
  453MOL0     C61031  12.051   9.166   7.463  0.5493  1.5589 -0.1254
  453MOL0     C61032  12.195   9.210   7.425 -0.5394 -0.5618 -0.1803
  453MOL0     C61033  12.320   9.131   7.482 -0.4421  0.6768 -0.0497
  453MOL0     C61034  12.303   8.978   7.454 -0.0230 -0.0489 -0.1167
  453MOL0     C61035  12.407   8.891   7.518 -0.2400  0.2614  0.1877
  453MOL0     C61036  12.540   8.901   7.453 -0.2995 -0.5802 -0.3763
  453MOL0     N61037  12.623   8.991   7.538  0.5597  0.4999 -1.0802
  453MOL0     C61038  12.671   8.957   7.667 -0.2661 -1.1217  1.3633
  453MOL0     C61039  12.722   9.077   7.715  0.2802  0.0551  0.2852
  453MOL0     C61040  12.768   9.111   7.854 -0.4038  0.2700 -0.0593
  453MOL0     C61041  12.700   9.232   7.901  0.3988 -0.4128 -0.2005
  453MOL0     C61042  12.554   9.229   7.942 -0.5604  0.3263 -0.0099
  453MOL0     C61043  12.459   9.175   7.839 -0.1387 -0.3566  0.1555
  453MOL0     O61044  12.334   9.230   7.879  0.2368 -1.4368  1.0485
  453MOL0     C61045  12.256   9.173   7.970 -0.1136  0.6766  0.0739
  453MOL0     C61046  12.189   9.253   8.057 -0.3080 -0.6015 -0.7234
  453MOL0     C61047  12.103   9.192   8.147  0.3604 -0.4924 -0.5521
  453MOL0     C61048  12.086   9.055   8.154 -0.1261  1.6638 -1.0245
  453MOL0     C61049  11.994   8.976   8.247  1.2015 -0.3862 -0.3134
  453MOL0     O61050  11.988   8.842   8.238 -0.6060  0.2556 -0.8045
  453MOL0     C61051  11.944   8.779   8.356 -0.3726 -0.7338  0.0822
  453MOL0     C61052  11.838   8.689   8.348 -0.2036  0.6887  0.0986
  453MOL0     C61053  11.796   8.627   8.463 -0.7194 -0.0415  0.0280
  453MOL0     C61054  11.851   8.649   8.586 -0.5598  0.0844 -0.4629
  453MOL0     O61055  11.820   8.583   8.700  0.2838 -0.1288  0.3870
  453MOL0     C61056  11.678   8.562   8.735  0.8505 -0.4738 -0.5501
  453MOL0     C61057  11.655   8.424   8.795  0.0051 -0.2519  0.0389
  453MOL0     C61058  11.519   8.401   8.849 -0.3563 -0.6322  0.2858
  453MOL0     C61059  11.513   8.264   8.902  0.5012  0.3568  0.0461
  453MOL0     C61060  11.382   8.243   8.984  0.4959 -0.1624  0.3339
  453MOL0     C61061  11.377   8.114   9.058  0.0240 -1.0912  0.7146
  453MOL0     C61062  11.255   8.111   9.152  2.1617  0.0284  1.0378
  453MOL0     C61063  11.258   8.005   9.266 -0.6771 -0.6407  0.1317
  453MOL0    Cl61064  11.400   8.047   9.364 -0.4264  0.3384  0.0442
  453MOL0     C61065  11.955   8.742   8.591 -1.4025  0.8230  0.6941
  453MOL0     C61066  12.005   8.806   8.483 -0.2715 -0.1451  0.0303
  453MOL0     O61067  11.935   9.047   8.331  0.6042  0.3703  0.4236
  453MOL0     C61068  12.155   8.977   8.063 -0.1572 -0.8584  0.6109
  453MOL0     C61069  12.233   9.035   7.968  0.0284 -0.2826  0.7021
  453MOL0     N61070  12.711   9.168   7.608 -0.1336  0.1864 -0.5833
  453MOL0     N61071  12.653   9.118   7.505  0.0896  0.3025 -0.0328
  453MOL0     C61072  11.561   8.999   7.453  0.5296  0.4377 -0.6835
  453MOL0     C61073  11.427   8.976   7.468  0.0743 -0.1670  0.1671
  453MOL0     C61074  10.989   9.062   7.376 -0.2629 -0.2779  0.1998
  453MOL0     C61075  10.906   9.003   7.273 -1.0927 -1.1239 -0.8500
  453MOL0     C61076  10.771   9.021   7.256 -0.1311 -1.1022  0.5702
  453MOL0     C61077  10.708   9.094   7.345 -0.6429 -0.8496 -0.3329
  453MOL0     O61078  10.576   9.126   7.345 -0.0205  0.2991  0.0290
  453MOL0     C61079  10.531   9.203   7.236 -0.4454 -0.4840 -0.3825
  453MOL0     C61080  10.405   9.284   7.262 -0.5636  0.9333  0.0927
  453MOL0     C61081  10.323   9.334   7.137  0.8268  0.9137 -0.0599
  453MOL0     C61082  10.211   9.429   7.185 -0.6493  0.3363  0.4217
  453MOL0     C61083  10.124   9.448   7.072  0.3850  0.0288 -0.1324
  453MOL0     C61084  10.049   9.462   6.975  0.1787  0.3966  0.9302
  453MOL0     C61085  10.775   9.170   7.435 -1.0685  0.1029  0.6506
  453MOL0     C61086  10.915   9.158   7.457 -0.2517  0.6322  0.4306
  453MOL0     C61087  10.979   9.234   7.562 -0.1821 -0.7611 -0.1575
  453MOL0     H61088  11.335   9.312   7.468  0.0073  0.0231 -0.6365
  453MOL0     H61089  11.555   9.339   7.439 -0.4981 -0.0547 -3.1699
  453MOL0     H61090  11.760   9.346   7.493 -0.5237 -0.7258  1.9469
  453MOL0     H61091  11.823   9.218   7.593  0.7445 -1.4177  0.3864
  453MOL0     H61092  11.991   9.377   7.451 -0.5680  1.8182 -2.4035
  453MOL0     H61093  11.949   9.289   7.316 -1.2244 -1.9306  0.7813
  453MOL0     H61094  12.033   9.078   7.401 -1.2172  1.0899  0.9939
  453MOL0     H61095  12.053   9.142   7.570  0.4171 -0.9548 -0.6236
  453MOL0     H61096  12.188   9.203   7.316 -1.0463 -0.7097 -0.1395
  453MOL0     H61097  12.219   9.312   7.459 -0.3109 -0.1745 -1.4510
  453MOL0     H61098  12.408   9.178   7.438 -0.5056  0.4485 -0.4198
  453MOL0     H61099  12.310   9.147   7.590  0.8443 -1.1852  0.4017
  453MOL0     H61100  12.212   8.955   7.510 -1.0052 -1.5483 -2.1888
  453MOL0     H61101  12.301   8.967   7.345  0.2884 -1.0252 -0.0296
  453MOL0     H61102  12.365   8.790   7.519 -2.4825  1.0785  3.3216
  453MOL0     H61103  12.421   8.911   7.625  1.9003 -1.1732  0.2460
  453MOL0     H61104  12.594   8.806   7.444 -1.6561 -1.3730 -0.3423
  453MOL0     H61105  12.526   8.940   7.352 -0.5756 -1.3602 -0.6469
  453MOL0     H61106  12.677   8.861   7.717  3.0600 -2.4344 -1.1772
  453MOL0     H61107  12.743   9.034   7.927  0.8610 -0.6146 -0.5113
  453MOL0     H61108  12.878   9.112   7.859 -0.3209 -2.1652 -0.0903
  453MOL0     H61109  12.758   9.263   7.988 -0.1388  0.3750 -0.1087
  453MOL0     H61110  12.717   9.299   7.816  2.7037  1.4403  1.5894
  453MOL0     H61111  12.533   9.329   7.981  1.7967  0.7439  0.3548
  453MOL0     H61112  12.543   9.170   8.033 -2.4766  1.5316  0.6125
  453MOL0     H61113  12.464   9.067   7.823 -0.6366 -0.8246  2.7720
  453MOL0     H61114  12.481   9.219   7.741  0.7736 -2.4104 -0.6186
  453MOL0     H61115  12.194   9.359   8.038  0.1483 -0.8363 -2.0166
  453MOL0     H61116  12.057   9.258   8.220 -1.5436  0.3734 -2.4492
  453MOL0     H61117  11.789   8.664   8.254  0.6145 -2.1670  0.3179
  453MOL0     H61118  11.705   8.569   8.451  0.1106 -1.0034 -1.9824
  453MOL0     H61119  11.660   8.635   8.814 -0.0882 -1.4486  0.1681
  453MOL0     H61120  11.603   8.575   8.657 -1.0100 -0.2768  1.1967
  453MOL0     H61121  11.692   8.346   8.728  2.6370  0.4215  0.6007
  453MOL0     H61122  11.726   8.419   8.877 -0.7937 -3.2861  0.6722
  453MOL0     H61123  11.515   8.469   8.935  3.8805  1.1763 -0.6876
  453MOL0     H61124  11.439   8.414   8.776  0.6495 -0.9407 -0.9060
  453MOL0     H61125  11.595   8.261   8.974 -0.5892  5.7057  1.9901
  453MOL0     H61126  11.524   8.186   8.826 -1.4841 -1.5282  1.5805
  453MOL0     H61127  11.304   8.233   8.908  1.7529 -0.3019 -0.9808
  453MOL0     H61128  11.353   8.328   9.047 -0.0315  1.0776 -1.4920
  453MOL0     H61129  11.365   8.031   8.987  3.9371 -1.1098 -0.1531
  453MOL0     H61130  11.464   8.099   9.122  1.2625  1.8024 -0.1074
  453MOL0     H61131  11.170   8.090   9.087  1.7405  0.1213  1.5457
  453MOL0     H61132  11.228   8.196   9.216  0.7388 -0.3017  0.8998
  453MOL0     H61133  11.168   8.000   9.327 -0.1539  2.9117  1.4158
  453MOL0     H61134  11.266   7.901   9.232 -1.7841  0.1205 -2.7878
  453MOL0     H61135  12.009   8.741   8.685 -3.4109 -0.7626  1.9016
  453MOL0     H61136  12.095   8.866   8.493 -1.7790  2.3318 -0.3094
  453MOL0     H61137  12.155   8.869   8.073  0.3054 -1.0430 -1.1459
  453MOL0     H61138  12.287   8.963   7.906 -1.9642 -1.5756  0.3851
  453MOL0     H61139  11.623   8.913   7.436  0.2614  0.2133 -0.5361
  453MOL0     H61140  11.392   8.874   7.475 -0.1029 -0.0538  1.0104
  453MOL0     H61141  10.961   8.932   7.211 -1.3476  0.5224 -3.1203
  453MOL0     H61142  10.714   8.989   7.169 -0.5874  0.7756  0.1168
  453MOL0     H61143  10.505   9.127   7.161 -3.1566 -1.2079  1.1636
  453MOL0     H61144  10.606   9.277   7.206 -0.1253  1.0789  3.6758
  453MOL0     H61145  10.429   9.360   7.336  0.6508 -3.1596  4.4322
  453MOL0     H61146  10.341   9.210   7.311 -0.3929  1.1981  0.7196
  453MOL0     H61147  10.263   9.248   7.104 -0.3828  2.7902 -3.1073
  453MOL0     H61148  10.390   9.367   7.057  0.1131  0.5168 -0.8356
  453MOL0     H61149  10.157   9.379   7.266 -2.7769 -0.6585 -1.4797
  453MOL0     H61150  10.261   9.523   7.208 -1.8584  1.2618 -0.6046
  453MOL0     H61151   9.972   9.484   6.904  1.9321  0.2012 -1.1118
  453MOL0     H61152  10.728   9.242   7.501  2.2450  1.4884  1.7067
  453MOL0     H61153  11.040   9.315   7.520 -0.4655 -0.2582  0.3807
  453MOL0     H61154  10.905   9.262   7.638  0.2203 -1.6475  0.5792
  453MOL0     H61155  11.047   9.173   7.623 -1.5323 -1.7828  0.3709
  454MOL0     O61156   8.144  11.141   7.706  0.4170 -0.3106  0.6575
  454MOL0     C61157   8.161  11.023   7.685  0.2548 -0.3537 -0.4794
  454MOL0     O61158   8.251  10.966   7.609 -0.8682 -0.2521 -0.4588
  454MOL0     C61159   8.351  11.028   7.531  0.4290 -1.3933 -1.1489
  454MOL0     C61160   8.398  11.166   7.547  0.1485 -0.9026 -0.2705
  454MOL0     C61161   8.503  11.218   7.474  0.1170 -0.6289 -0.0788
  454MOL0     C61162   8.562  11.139   7.375  0.5379  0.1029 -0.8019
  454MOL0     O61163   8.652  11.175   7.279  0.5361  0.3232  0.4669
  454MOL0     C61164   8.717  11.303   7.295 -0.7033  0.0794 -0.4745
  454MOL0     C61165   8.865  11.284   7.294  0.1066 -0.1530 -0.9317
  454MOL0     C61166   8.948  11.400   7.345  0.5372 -0.6722 -0.3791
  454MOL0     C61167   8.934  11.424   7.496  0.7941 -0.6486 -0.2259
  454MOL0     C61168   9.050  11.519   7.542 -0.2242  0.5968  0.7324
  454MOL0     C61169   9.029  11.600   7.665 -0.5951 -0.5097 -0.6816
  454MOL0     C61170   9.151  11.678   7.711 -0.6697 -0.4654  0.3595
  454MOL0     C61171   9.215  11.755   7.598 -0.2240 -0.2798 -0.3099
  454MOL0     N61172   9.322  11.843   7.645 -0.1789 -0.2966  0.5131
  454MOL0     C61173   9.452  11.812   7.653 -0.4929  0.3149 -0.7070
  454MOL0     C61174   9.505  11.919   7.711  0.1025 -0.3222  0.1826
  454MOL0     C61175   9.655  11.940   7.735  0.1999  0.3736 -0.5849
  454MOL0     C61176   9.677  11.971   7.883  0.0847  0.3945  0.0952
  454MOL0     C61177   9.820  12.022   7.923  0.8438  0.1993  0.3089
  454MOL0     C61178   9.829  12.090   8.062 -0.2953 -0.9599 -0.1821
  454MOL0     O61179   9.968  12.117   8.106  0.7430 -0.5602 -0.5335
  454MOL0     C61180  10.032  12.228   8.055 -0.6362  0.3935 -0.7001
  454MOL0     C61181  10.150  12.251   8.128 -0.3704  0.0198  0.1078
  454MOL0     C61182  10.232  12.359   8.108  0.0124 -0.8187  0.2480
  454MOL0     C61183  10.202  12.456   8.005  0.6153 -0.0383 -0.5740
  454MOL0     C61184  10.294  12.567   7.976  1.0059 -0.2379  0.4690
  454MOL0     O61185  10.411  12.563   8.046 -0.5146 -0.3424  0.6591
  454MOL0     C61186  10.513  12.648   8.026  0.0874 -0.2401 -0.1465
  454MOL0     C61187  10.535  12.768   7.946 -0.4785  0.3513  0.6267
  454MOL0     C61188  10.658  12.838   7.955  1.0857 -0.5759  0.0094
  454MOL0     C61189  10.758  12.804   8.047  0.0589 -0.0717  0.0623
  454MOL0     O61190  10.874  12.872   8.080 -0.0168  0.2311  0.0439
  454MOL0     C61191  10.951  12.920   7.973 -1.1033  0.7032  0.0680
  454MOL0     C61192  11.101  12.930   8.001 -0.3245 -0.0191  0.1808
  454MOL0     C61193  11.171  12.800   8.026 -0.3563  0.2755 -0.6066
  454MOL0     C61194  11.119  12.724   8.157 -0.4894 -0.7489  0.2763
  454MOL0     C61195  11.224  12.620   8.204 -0.2098  0.6464 -0.1821
  454MOL0     C61196  11.351  12.675   8.273  0.0190  1.0721 -0.5771
  454MOL0     C61197  11.318  12.771   8.393  0.5492 -0.4390  0.8094
  454MOL0     C61198  11.243  12.719   8.519 -0.1200  0.1822 -0.3994
  454MOL0    Cl61199  11.290  12.554   8.573  0.0756 -0.4055 -0.6423
  454MOL0     C61200  10.744  12.680   8.111  0.4762 -0.0803  0.0234
  454MOL0     C61201  10.628  12.610   8.094  0.2385  0.0472 -0.4315
  454MOL0     O61202  10.269  12.652   7.893 -0.4539 -0.3959 -0.7461
  454MOL0     C61203  10.085  12.427   7.922 -0.7360 -0.8880 -0.8674
  454MOL0     C61204  10.004  12.311   7.951  0.8196  0.3380  0.7239
  454MOL0     N61205   9.408  12.018   7.713  0.0852  0.9244  0.9101
  454MOL0     N61206   9.294  11.962   7.700  0.0704 -0.6456  0.0715
  454MOL0     C61207   8.529  11.010   7.362 -0.3916  0.6405  0.0224
  454MOL0     C61208   8.430  10.957   7.442 -0.4693  0.8831  0.1491
  454MOL0     C61209   8.074  10.918   7.750 -0.5641 -0.4278  0.9326
  454MOL0     C61210   8.136  10.803   7.794 -0.1153  0.2487 -0.1914
  454MOL0     C61211   8.065  10.701   7.858  0.4271  0.4078 -0.1860
  454MOL0     C61212   7.928  10.716   7.894 -0.1702 -0.0474 -0.1690
  454MOL0     O61213   7.838  10.627   7.943  0.3645 -0.4890  0.1628
  454MOL0     C61214   7.868  10.494   7.997 -0.0404  0.1981 -0.0251
  454MOL0     C61215   7.899  10.403   7.883 -0.7330 -0.4583  0.1318
  454MOL0     C61216   7.892  10.259   7.908  0.2798  0.1860  0.2973
  454MOL0     C61217   7.938  10.178   7.775  0.4956  0.8060 -0.8307
  454MOL0     C61218   7.961  10.037   7.811  0.1143  0.0520  0.0954
  454MOL0     C61219   7.988   9.916   7.814 -0.1087  0.0579 -0.5313
  454MOL0     C61220   7.869  10.828   7.836 -0.3804 -0.2565 -0.9823
  454MOL0     C61221   7.936  10.929   7.762 -0.1990 -0.6255  0.3076
  454MOL0     C61222   7.851  11.043   7.699  0.5101 -0.0015  1.3902
  454MOL0     H61223   8.345  11.235   7.613  1.4588  1.1553 -1.2431
  454MOL0     H61224   8.521  11.325   7.481 -1.0703 -0.4114 -0.0462
  454MOL0     H61225   8.685  11.370   7.215  0.0569  0.2160 -0.6665
  454MOL0     H61226   8.681  11.363   7.379 -1.8378 -1.1181 -0.0751
  454MOL0     H61227   8.890  11.277   7.188 -0.7640  0.2266 -1.1700
  454MOL0     H61228   8.891  11.192   7.348 -1.3127 -0.4649 -0.7214
  454MOL0     H61229   8.909  11.489   7.296  0.6404 -0.6212 -0.3663
  454MOL0     H61230   9.052  11.374   7.324  0.4056 -1.8225  0.2859
  454MOL0     H61231   8.839  11.475   7.519  1.8260  1.0550  0.4371
  454MOL0     H61232   8.931  11.327   7.547 -0.4936  0.5509  2.1698
  454MOL0     H61233   9.146  11.467   7.548  1.3531  2.5656 -3.4726
  454MOL0     H61234   9.065  11.584   7.455 -0.7457  1.5662  1.3400
  454MOL0     H61235   8.955  11.678   7.644  0.4029  0.3072 -1.2759
  454MOL0     H61236   8.990  11.539   7.746  1.6274 -1.0682  0.0332
  454MOL0     H61237   9.232  11.615   7.749  1.3195  1.0826 -1.0994
  454MOL0     H61238   9.125  11.756   7.784 -3.4316 -1.9320  1.0824
  454MOL0     H61239   9.244  11.695   7.511  1.6889 -0.4818  0.4149
  454MOL0     H61240   9.134  11.818   7.559 -0.7778 -0.4489  0.5330
  454MOL0     H61241   9.501  11.719   7.626 -2.4526 -0.8957 -0.3005
  454MOL0     H61242   9.723  11.862   7.700  1.8267  0.5064  1.9771
  454MOL0     H61243   9.670  12.028   7.672 -1.1397  1.2331  0.2529
  454MOL0     H61244   9.600  12.046   7.905 -2.7008 -1.7422 -1.7489
  454MOL0     H61245   9.651  11.879   7.935  0.1116  0.0303 -0.5243
  454MOL0     H61246   9.849  12.095   7.847  1.9273  0.9794  1.4235
  454MOL0     H61247   9.879  11.930   7.929 -2.5382 -2.1013  1.4226
  454MOL0     H61248   9.795  12.018   8.136 -0.8429  0.9726  1.5619
  454MOL0     H61249   9.770  12.182   8.061  1.0704 -0.0428  0.2122
  454MOL0     H61250  10.172  12.177   8.204 -2.1857 -0.7809 -0.1007
  454MOL0     H61251  10.317  12.379   8.173  0.2888  2.8576 -1.0294
  454MOL0     H61252  10.459  12.821   7.889  0.3409 -0.5638 -1.4227
  454MOL0     H61253  10.669  12.930   7.899  2.4046 -0.9466 -0.3723
  454MOL0     H61254  10.937  12.860   7.882 -1.3276  0.6102  0.1654
  454MOL0     H61255  10.916  13.022   7.953  2.0477  1.7100 -0.9638
  454MOL0     H61256  11.147  12.968   7.909  1.4433  0.1098  1.0754
  454MOL0     H61257  11.123  12.999   8.083 -0.5069 -1.0753  1.1313
  454MOL0     H61258  11.158  12.733   7.940 -2.2754 -1.5275  0.9933
  454MOL0     H61259  11.278  12.816   8.039 -0.6673  2.3122 -0.2316
  454MOL0     H61260  11.027  12.668   8.137 -3.5453  4.3872 -2.1846
  454MOL0     H61261  11.100  12.794   8.239  1.3338 -0.8785  0.8395
  454MOL0     H61262  11.258  12.559   8.119 -1.0095  0.6160 -0.4843
  454MOL0     H61263  11.170  12.554   8.273  0.7566  1.4693  1.4144
  454MOL0     H61264  11.419  12.594   8.299  1.3589  2.4761  0.4891
  454MOL0     H61265  11.410  12.734   8.201 -1.9879  3.3480 -0.4873
  454MOL0     H61266  11.269  12.856   8.344  4.6576  0.1974 -2.8977
  454MOL0     H61267  11.414  12.816   8.421  1.0645 -1.4877  0.7596
  454MOL0     H61268  11.259  12.780   8.609 -0.5056 -1.0515  0.5261
  454MOL0     H61269  11.136  12.730   8.499 -0.7499 -0.9755  1.9389
  454MOL0     H61270  10.816  12.632   8.176  2.7832 -1.1410 -3.0563
  454MOL0     H61271  10.615  12.514   8.145 -0.2136  0.1011 -0.4406
  454MOL0     H61272  10.060  12.508   7.854 -2.0276 -0.6760 -0.1704
  454MOL0     H61273   9.915  12.285   7.895 -0.1725 -1.7184  3.1117
  454MOL0     H61274   8.587  10.951   7.291  1.2952  2.6399 -0.3359
  454MOL0     H61275   8.408  10.852   7.425  3.5719 -0.2963  1.3175
  454MOL0     H61276   8.240  10.787   7.768  0.1582 -1.7451  1.7677
  454MOL0     H61277   8.118  10.610   7.882 -1.7467 -0.1045  3.5110
  454MOL0     H61278   7.770  10.466   8.037  0.0702  0.9120  0.7724
  454MOL0     H61279   7.948  10.502   8.072  0.8344 -0.5664 -0.8559
  454MOL0     H61280   8.004  10.427   7.861 -0.9849  1.9467  1.2154
  454MOL0     H61281   7.844  10.431   7.793 -0.6484  1.0469  0.5116
  454MOL0     H61282   7.789  10.236   7.935  1.0098 -2.1824  1.3691
  454MOL0     H61283   7.963  10.245   7.990 -0.9835 -0.2117  1.3398
  454MOL0     H61284   7.867  10.194   7.694 -2.3955 -1.0440  1.1461
  454MOL0     H61285   8.029  10.220   7.732  1.9349 -0.5437  0.7175
  454MOL0     H61286   8.032   9.819   7.808  1.4467  0.6845  0.1460
  454MOL0     H61287   7.764  10.847   7.855  0.0471  0.3234  1.1396
  454MOL0     H61288   7.816  11.016   7.598  0.6914  1.8048  0.8129
  454MOL0     H61289   7.760  11.061   7.757  0.9734  0.2382  2.0551
  454MOL0     H61290   7.903  11.139   7.697 -2.7736  2.0760  4.0513
  455MOL0     O61291   5.738   1.599   4.179  0.6604  0.6259  0.1361
  455MOL0     C61292   5.682   1.569   4.285 -0.2554 -0.0316  0.4546
  455MOL0     O61293   5.742   1.483   4.380 -0.4062  0.0916 -0.0057
  455MOL0     C61294   5.851   1.405   4.333  0.1124 -0.9482 -0.1698
  455MOL0     C61295   5.849   1.324   4.215  0.1785 -0.5138  0.3129
  455MOL0     C61296   5.958   1.247   4.187 -1.0118  0.2613 -0.8290
  455MOL0     C61297   6.069   1.233   4.270 -0.0112 -0.2439 -0.7979
  455MOL0     O61298   6.173   1.156   4.237  0.0529  0.7523 -0.4458
  455MOL0     C61299   6.224   1.150   4.104  0.3779  0.6446  0.1093
  455MOL0     C61300   6.370   1.102   4.104  0.2520  0.1971  0.2845
  455MOL0     C61301   6.371   0.948   4.134 -0.4354  0.4446 -0.3227
  455MOL0     C61302   6.350   0.874   4.000 -0.0277  0.9405  0.0813
  455MOL0     C61303   6.384   0.724   4.017  0.2328  0.1777  0.4736
  455MOL0     C61304   6.531   0.677   3.986 -0.9682 -0.1143  1.0756
  455MOL0     C61305   6.564   0.529   4.016  0.1986  0.1511 -0.0783
  455MOL0     C61306   6.488   0.435   3.923 -0.8792 -0.0049  0.6866
  455MOL0     N61307   6.561   0.423   3.792 -0.2722  0.1450  0.5175
  455MOL0     C61308   6.516   0.341   3.686 -0.2883  0.0906 -0.2059
  455MOL0     C61309   6.616   0.343   3.596 -0.2053  0.4000  0.3574
  455MOL0     C61310   6.635   0.266   3.464  0.0786 -0.0278 -0.3935
  455MOL0     C61311   6.552   0.137   3.455 -0.0292  0.9005  0.6560
  455MOL0     C61312   6.413   0.168   3.410  1.0682 -0.8659  0.5169
  455MOL0     C61313   6.321   0.040   3.400 -1.0852  0.4007  0.1524
  455MOL0     O61314   6.336  -0.027   3.525  0.9670  0.1808  0.2736
  455MOL0     C61315   6.294   0.027   3.647 -0.7578  0.0031 -0.9396
  455MOL0     C61316   6.185   0.118   3.646 -0.6709 -0.7109  0.3361
  455MOL0     C61317   6.153   0.188   3.759 -0.6875  0.5008 -0.3243
  455MOL0     C61318   6.225   0.179   3.874 -1.1968  1.0963 -0.2135
  455MOL0     C61319   6.191   0.278   3.985 -0.8427 -0.2378  0.7077
  455MOL0     O61320   6.088   0.363   3.959 -0.1634 -0.5906  0.0933
  455MOL0     C61321   6.032   0.447   4.055  0.0093 -0.6452 -0.6739
  455MOL0     C61322   5.904   0.496   4.033 -0.1004 -0.3059 -0.6716
  455MOL0     C61323   5.852   0.596   4.115  0.0140  0.2427 -0.3297
  455MOL0     C61324   5.934   0.660   4.218 -0.2577  0.7317  0.8010
  455MOL0     O61325   5.884   0.751   4.306  0.2694 -0.4655 -0.2584
  455MOL0     C61326   5.946   0.878   4.334  0.2392  0.2764  0.7708
  455MOL0     C61327   5.873   0.968   4.431 -0.0492  0.2939 -0.6073
  455MOL0     C61328   5.725   0.995   4.388  0.7351  0.4529  0.1513
  455MOL0     C61329   5.655   1.081   4.493 -0.4885  0.3398 -0.0072
  455MOL0     C61330   5.502   1.077   4.486  0.0714 -1.3546 -0.2294
  455MOL0     C61331   5.457   1.159   4.362  0.0910 -0.6337 -0.7768
  455MOL0     C61332   5.304   1.192   4.355 -1.0205  0.1208  0.0327
  455MOL0     C61333   5.275   1.317   4.261 -0.0777  0.0558  0.0362
  455MOL0    Cl61334   5.105   1.344   4.279 -0.2657  0.2316  0.0852
  455MOL0     C61335   6.064   0.620   4.243  0.2377  0.7576  0.0688
  455MOL0     C61336   6.111   0.513   4.158 -0.1126 -0.1315  0.9035
  455MOL0     O61337   6.266   0.286   4.077  0.4511 -1.0162 -0.4605
  455MOL0     C61338   6.338   0.086   3.880  0.6683  0.0471  0.0440
  455MOL0     C61339   6.373   0.014   3.764 -0.7730  0.0003  0.1865
  455MOL0     N61340   6.710   0.442   3.642 -0.4342 -0.1246  0.8119
  455MOL0     N61341   6.678   0.483   3.756 -0.9376  0.4920 -0.3656
  455MOL0     C61342   6.071   1.312   4.384 -0.1005 -0.5783 -0.8205
  455MOL0     C61343   5.959   1.391   4.423 -0.6487 -0.7278  0.1121
  455MOL0     C61344   5.557   1.628   4.324  0.6382  0.9468 -0.2500
  455MOL0     C61345   5.510   1.604   4.454 -1.0174  0.8639  1.1008
  455MOL0     C61346   5.395   1.647   4.509  1.6158 -0.2442  0.2966
  455MOL0     C61347   5.312   1.725   4.423 -0.2833 -0.1417  0.2024
  455MOL0     O61348   5.180   1.766   4.451  0.0645 -0.4219 -0.5833
  455MOL0     C61349   5.121   1.735   4.581 -0.5253 -0.1604 -0.2313
  455MOL0     C61350   5.094   1.582   4.591 -0.7799 -0.5085  0.1675
  455MOL0     C61351   4.966   1.541   4.665 -0.5799 -0.0311 -0.3516
  455MOL0     C61352   4.919   1.392   4.646  0.7727  0.4085  0.6699
  455MOL0     C61353   5.029   1.301   4.670  0.5737 -0.0955  0.3369
  455MOL0     C61354   5.130   1.252   4.708 -0.2383 -0.0802 -0.3123
  455MOL0     C61355   5.344   1.736   4.292 -0.2889 -1.1372  0.1346
  455MOL0     C61356   5.463   1.686   4.237 -0.3263  0.0813 -0.5557
  455MOL0     C61357   5.487   1.706   4.088 -0.4392 -0.9045 -0.2629
  455MOL0     H61358   5.767   1.325   4.144 -0.6132 -2.6814  1.0902
  455MOL0     H61359   5.969   1.196   4.092  0.8440  1.0574 -1.0917
  455MOL0     H61360   6.167   1.090   4.032  1.1024 -0.3965  0.3921
  455MOL0     H61361   6.225   1.255   4.073  2.8680  0.6958  0.1903
  455MOL0     H61362   6.428   1.171   4.165  1.3146 -0.2959 -0.1400
  455MOL0     H61363   6.412   1.123   4.005  0.9427  0.6696  0.6706
  455MOL0     H61364   6.299   0.913   4.208  0.7227 -1.9559 -0.2132
  455MOL0     H61365   6.472   0.919   4.165 -1.2376 -2.2537  0.0626
  455MOL0     H61366   6.247   0.885   3.964 -0.2078 -0.1315  0.2107
  455MOL0     H61367   6.421   0.904   3.922 -0.4697 -0.6027 -0.9694
  455MOL0     H61368   6.365   0.690   4.120  0.0101  0.2891  0.4705
  455MOL0     H61369   6.319   0.679   3.942 -0.4821 -1.4238  1.9912
  455MOL0     H61370   6.559   0.702   3.883 -2.0005  2.1136  1.2927
  455MOL0     H61371   6.612   0.733   4.033  0.0217  1.5817 -2.2830
  455MOL0     H61372   6.528   0.504   4.116 -1.4362  0.7059 -0.5111
  455MOL0     H61373   6.673   0.517   4.009  0.3928  2.4593 -3.4971
  455MOL0     H61374   6.474   0.333   3.960 -0.3697 -0.6336 -0.7852
  455MOL0     H61375   6.387   0.472   3.904 -0.8384  1.3910  2.8187
  455MOL0     H61376   6.420   0.290   3.675  0.4374 -0.8892 -2.6175
  455MOL0     H61377   6.639   0.319   3.368  1.8605 -1.2963 -1.0723
  455MOL0     H61378   6.736   0.229   3.486 -0.1077 -1.0090 -1.1565
  455MOL0     H61379   6.601   0.067   3.386  0.7116  0.8651  1.2104
  455MOL0     H61380   6.545   0.094   3.555 -0.5313 -0.6190  0.0009
  455MOL0     H61381   6.411   0.215   3.311 -2.0610 -0.3996  0.7058
  455MOL0     H61382   6.370   0.246   3.474 -1.4394 -0.7316 -1.1650
  455MOL0     H61383   6.367  -0.022   3.322  1.4525  2.8728 -0.4820
  455MOL0     H61384   6.215   0.053   3.376 -1.4156 -1.3673  0.4912
  455MOL0     H61385   6.130   0.147   3.557  1.6299  2.9122 -0.1141
  455MOL0     H61386   6.071   0.258   3.759 -1.2495 -0.1176  1.2932
  455MOL0     H61387   5.840   0.466   3.950 -0.5288 -1.8413  0.1743
  455MOL0     H61388   5.748   0.617   4.093 -0.7649 -0.8733  1.9461
  455MOL0     H61389   6.049   0.871   4.369  0.2460  0.8292  0.8685
  455MOL0     H61390   5.949   0.940   4.243 -3.9525  2.1749  1.6649
  455MOL0     H61391   5.882   0.931   4.533  4.1645  3.4203  0.4382
  455MOL0     H61392   5.921   1.066   4.430  1.5472 -0.4406 -0.1981
  455MOL0     H61393   5.730   1.040   4.289  0.1459 -0.5902 -0.3802
  455MOL0     H61394   5.685   0.893   4.374 -0.9384  1.2544 -1.3847
  455MOL0     H61395   5.686   1.185   4.481 -0.9283  0.5512  0.6239
  455MOL0     H61396   5.688   1.050   4.592  0.2965  2.2694  0.3840
  455MOL0     H61397   5.473   1.123   4.581 -2.8814  0.0142 -1.6566
  455MOL0     H61398   5.467   0.974   4.491  2.4179 -2.3013 -1.7003
  455MOL0     H61399   5.507   1.256   4.361  1.9754 -1.5595 -1.7564
  455MOL0     H61400   5.475   1.108   4.266  0.1623  0.7094 -1.5043
  455MOL0     H61401   5.269   1.211   4.457 -1.5373 -0.8853  0.0574
  455MOL0     H61402   5.245   1.102   4.331  0.9154 -2.3186  3.5735
  455MOL0     H61403   5.331   1.403   4.299  4.3980 -1.4047 -2.5340
  455MOL0     H61404   5.286   1.303   4.153 -1.6318 -1.5094  0.0239
  455MOL0     H61405   6.130   0.666   4.316  1.2602 -1.4891  0.6502
  455MOL0     H61406   6.216   0.494   4.180 -0.6390 -1.6750  2.2724
  455MOL0     H61407   6.406   0.072   3.964  0.8611  1.0548  0.0647
  455MOL0     H61408   6.472  -0.032   3.762 -0.4363  0.6143  1.3986
  455MOL0     H61409   6.160   1.312   4.447  1.8985 -2.1089 -3.4373
  455MOL0     H61410   5.964   1.455   4.511 -1.8080  0.9202 -0.9524
  455MOL0     H61411   5.568   1.548   4.528  1.4899  0.1026 -1.2486
  455MOL0     H61412   5.361   1.621   4.609 -1.7561  1.0849 -0.3395
  455MOL0     H61413   5.028   1.784   4.610  0.0587 -0.1118  1.7089
  455MOL0     H61414   5.188   1.770   4.660 -0.6678 -0.6215  0.0976
  455MOL0     H61415   5.181   1.535   4.638  0.0722 -1.1793 -1.9177
  455MOL0     H61416   5.095   1.529   4.495 -2.0124 -2.4054  1.1504
  455MOL0     H61417   4.889   1.612   4.636  0.6534  3.0700  3.1391
  455MOL0     H61418   4.982   1.561   4.771  0.4531  0.0781 -0.5186
  455MOL0     H61419   4.831   1.374   4.708  0.2709  0.5425  0.0057
  455MOL0     H61420   4.892   1.359   4.546 -1.6259  2.3708  0.5799
  455MOL0     H61421   5.211   1.202   4.757  1.0255  1.5368 -0.6567
  455MOL0     H61422   5.264   1.782   4.235  0.2597 -0.5940 -0.2220
  455MOL0     H61423   5.397   1.750   4.044  1.5347  1.7104 -2.0385
  455MOL0     H61424   5.565   1.783   4.080  1.9347 -2.9643  1.3416
  455MOL0     H61425   5.527   1.616   4.039  0.6180 -0.7825  0.3428
  456MOL0     O61426   1.006   6.791   5.587 -0.4560  0.3854 -0.5856
  456MOL0     C61427   1.094   6.763   5.502  0.5534 -0.2156 -1.1550
  456MOL0     O61428   1.215   6.830   5.486  0.3508  0.0790  0.7136
  456MOL0     C61429   1.263   6.893   5.593 -0.1659  0.1152 -0.2001
  456MOL0     C61430   1.361   6.982   5.560  0.7563  1.0216  0.6420
  456MOL0     C61431   1.437   7.050   5.654  0.2300  0.2293 -1.3534
  456MOL0     C61432   1.412   7.028   5.788  0.7579  0.1624 -0.4190
  456MOL0     O61433   1.476   7.104   5.886  0.2655 -0.4403 -0.0732
  456MOL0     C61434   1.585   7.199   5.861 -0.5394  0.6889  0.2894
  456MOL0     C61435   1.596   7.286   5.989 -0.3599  0.3633  0.1148
  456MOL0     C61436   1.748   7.330   5.991  0.0258  0.1855  0.1800
  456MOL0     C61437   1.750   7.448   6.088 -0.0627  0.3694 -0.1527
  456MOL0     C61438   1.893   7.479   6.144 -0.4131  0.3373  0.6233
  456MOL0     C61439   1.986   7.517   6.025 -0.1107 -0.5134  0.9764
  456MOL0     C61440   2.129   7.537   6.076 -1.2472 -0.9595 -0.7367
  456MOL0     C61441   2.160   7.661   6.171 -0.4059  0.1974 -0.0850
  456MOL0     N61442   2.161   7.785   6.098 -0.5210 -0.6427  0.5593
  456MOL0     C61443   2.223   7.795   5.971  0.4501  0.8834 -0.0306
  456MOL0     C61444   2.181   7.918   5.934  0.7388  0.1352  0.3986
  456MOL0     C61445   2.200   7.998   5.805  0.3690 -0.5840  0.4116
  456MOL0     C61446   2.112   7.954   5.684 -0.3308  0.1375 -0.0097
  456MOL0     C61447   2.119   8.030   5.548  0.9524  0.4266 -0.0016
  456MOL0     C61448   2.231   7.986   5.461  0.1246  0.5992  0.3474
  456MOL0     O61449   2.353   7.967   5.535  0.0467 -0.3655  0.6286
  456MOL0     C61450   2.468   7.913   5.478 -0.3502  0.3914  0.2344
  456MOL0     C61451   2.581   7.885   5.549  0.4425  0.3748 -0.6381
  456MOL0     C61452   2.701   7.831   5.489 -0.0110  0.4475 -0.2814
  456MOL0     C61453   2.699   7.791   5.362 -0.4840 -0.1673  0.4478
  456MOL0     C61454   2.823   7.738   5.289  0.0810 -0.0768 -1.4786
  456MOL0     O61455   2.941   7.719   5.361 -0.4321 -0.4601  0.3056
  456MOL0     C61456   3.046   7.667   5.288  0.0538 -0.9267  1.4370
  456MOL0     C61457   3.082   7.528   5.290 -0.1879 -0.4784 -1.3945
  456MOL0     C61458   3.184   7.481   5.208  0.7932  0.0473 -0.1891
  456MOL0     C61459   3.264   7.568   5.134 -0.1811  0.0844 -0.5483
  456MOL0     O61460   3.368   7.509   5.068 -0.0443  0.0654  0.3135
  456MOL0     C61461   3.487   7.484   5.146  0.5596 -0.2418 -0.4680
  456MOL0     C61462   3.499   7.340   5.199  0.5503 -0.1822  0.5401
  456MOL0     C61463   3.651   7.321   5.222 -0.9518 -0.0308  0.2933
  456MOL0     C61464   3.701   7.388   5.348 -0.3267 -0.0117 -0.0760
  456MOL0     C61465   3.771   7.284   5.439  0.3084 -0.8477 -0.6730
  456MOL0     C61466   3.806   7.350   5.576  0.5666  0.2072 -0.2096
  456MOL0     C61467   3.924   7.444   5.571  0.5447 -0.7195  0.2956
  456MOL0     C61468   3.972   7.476   5.708  0.3020 -0.3511 -0.8013
  456MOL0    Cl61469   4.093   7.605   5.709  0.0724 -0.0199  0.3130
  456MOL0     C61470   3.243   7.703   5.141  0.2061 -0.9303  0.0677
  456MOL0     C61471   3.124   7.759   5.209 -0.4768  0.1421 -0.6077
  456MOL0     O61472   2.805   7.721   5.170 -0.0609 -0.2923  0.2251
  456MOL0     C61473   2.586   7.824   5.283 -0.4031  0.0873 -0.5634
  456MOL0     C61474   2.473   7.887   5.338 -0.0771  1.4253 -0.2155
  456MOL0     N61475   2.098   7.975   6.039  0.2968  0.7109  0.5112
  456MOL0     N61476   2.074   7.884   6.126 -0.0906  0.5605 -0.7797
  456MOL0     C61477   1.310   6.935   5.828  0.2537 -0.0584  0.2539
  456MOL0     C61478   1.240   6.867   5.727 -0.2090 -0.4310 -1.5594
  456MOL0     C61479   1.063   6.669   5.401 -0.3826  1.0453 -0.0887
  456MOL0     C61480   1.109   6.694   5.271 -1.4786  0.0184 -0.2045
  456MOL0     C61481   1.096   6.599   5.163  0.1395 -0.6446 -0.4477
  456MOL0     C61482   1.024   6.484   5.183  0.3345  0.5599  0.7964
  456MOL0     O61483   0.988   6.389   5.088 -1.0355 -0.6333  0.7385
  456MOL0     C61484   0.948   6.445   4.962 -0.1264 -0.0826  0.0358
  456MOL0     C61485   0.870   6.356   4.870 -0.2400 -0.1197 -0.0575
  456MOL0     C61486   0.939   6.231   4.821 -0.0449  0.7425  0.6015
  456MOL0     C61487   0.976   6.129   4.922 -0.3205 -0.1312 -0.1402
  456MOL0     C61488   0.869   6.106   5.023 -0.1022 -0.3672 -0.8498
  456MOL0     C61489   0.772   6.089   5.090 -0.0905 -0.8996 -0.6300
  456MOL0     C61490   0.989   6.454   5.314 -0.3831  0.8784 -0.7919
  456MOL0     C61491   0.989   6.550   5.412  0.4747  0.0405  0.3516
  456MOL0     C61492   0.928   6.506   5.543  0.0261  0.5934 -0.6829
  456MOL0     H61493   1.381   7.004   5.456 -3.2495 -0.0774 -0.5070
  456MOL0     H61494   1.517   7.120   5.631  1.4723 -1.4201 -2.2506
  456MOL0     H61495   1.685   7.164   5.833 -0.2511  0.7282  1.2384
  456MOL0     H61496   1.548   7.270   5.787 -1.5128 -0.1883 -0.0874
  456MOL0     H61497   1.572   7.225   6.076  2.3535 -0.9163  0.0641
  456MOL0     H61498   1.529   7.370   5.969  0.1010  0.4823 -1.0186
  456MOL0     H61499   1.777   7.360   5.890  0.9957 -0.0164  0.3864
  456MOL0     H61500   1.815   7.253   6.030  0.0780  0.0971 -0.0890
  456MOL0     H61501   1.711   7.532   6.029  0.0937 -1.6884 -3.4864
  456MOL0     H61502   1.688   7.430   6.175 -1.2111 -1.0664 -1.2242
  456MOL0     H61503   1.886   7.552   6.225 -1.3362  0.4163  0.4790
  456MOL0     H61504   1.929   7.389   6.195 -0.4404 -0.7908 -1.2702
  456MOL0     H61505   1.983   7.434   5.954  0.7432 -2.4418  3.0771
  456MOL0     H61506   1.949   7.605   5.971  1.6353  0.0135  0.5607
  456MOL0     H61507   2.200   7.539   5.993  1.9464 -1.6823  1.7587
  456MOL0     H61508   2.150   7.445   6.132 -0.9127 -1.8324 -2.2400
  456MOL0     H61509   2.105   7.657   6.265  4.3397 -3.0702  2.9746
  456MOL0     H61510   2.256   7.631   6.213 -0.5684  1.2432  1.0844
  456MOL0     H61511   2.296   7.728   5.927  1.0063  0.8335  0.9244
  456MOL0     H61512   2.168   8.094   5.846  0.1635 -0.4840  0.0217
  456MOL0     H61513   2.304   8.014   5.775  0.7918 -0.1194  2.0378
  456MOL0     H61514   2.135   7.852   5.652 -0.9797 -0.1396  0.3792
  456MOL0     H61515   2.009   7.960   5.720 -0.7707  1.3007 -1.3681
  456MOL0     H61516   2.116   8.139   5.560  0.0991  0.5233 -0.9191
  456MOL0     H61517   2.030   7.992   5.496 -1.4034  1.0215  3.3089
  456MOL0     H61518   2.250   8.068   5.392 -0.2425 -0.3673 -0.9458
  456MOL0     H61519   2.193   7.899   5.406 -1.3359 -1.1772  3.8577
  456MOL0     H61520   2.577   7.904   5.655 -1.3999  0.4554 -0.6770
  456MOL0     H61521   2.786   7.818   5.555 -0.5952 -1.0625  0.2189
  456MOL0     H61522   3.034   7.456   5.356 -0.3736  0.5311 -0.3993
  456MOL0     H61523   3.197   7.375   5.190 -1.4323 -0.2766 -0.1899
  456MOL0     H61524   3.568   7.508   5.076 -1.1160  3.4046 -1.4131
  456MOL0     H61525   3.489   7.551   5.232  1.3933  1.3307 -1.6668
  456MOL0     H61526   3.433   7.329   5.286  2.3250 -0.5584  1.8936
  456MOL0     H61527   3.456   7.278   5.119  0.3097  0.9438 -0.2304
  456MOL0     H61528   3.674   7.215   5.237  0.6513  0.2482 -0.0213
  456MOL0     H61529   3.710   7.339   5.132  0.6676  1.0501  1.5242
  456MOL0     H61530   3.618   7.425   5.408 -2.5124 -2.1109 -1.6399
  456MOL0     H61531   3.766   7.468   5.312 -0.6364 -0.1402 -0.9433
  456MOL0     H61532   3.861   7.244   5.393  1.2171  2.4456 -2.0369
  456MOL0     H61533   3.707   7.203   5.476  1.0973 -0.9840  0.4417
  456MOL0     H61534   3.715   7.395   5.618  1.8454  1.0289  1.8534
  456MOL0     H61535   3.827   7.270   5.648  3.3213  1.9562  1.0937
  456MOL0     H61536   3.903   7.541   5.525  0.8775 -0.9849 -0.4347
  456MOL0     H61537   4.000   7.388   5.515 -0.0752 -1.8225  0.5339
  456MOL0     H61538   3.888   7.494   5.775  2.9289  2.2699  2.1109
  456MOL0     H61539   4.025   7.390   5.750  0.7821  1.1812  1.9399
  456MOL0     H61540   3.310   7.763   5.080 -0.5215 -1.0045 -0.8219
  456MOL0     H61541   3.105   7.864   5.192  1.3010  0.4132 -1.1943
  456MOL0     H61542   2.592   7.819   5.174 -0.3085  1.6893 -0.6546
  456MOL0     H61543   2.388   7.914   5.276 -0.3977 -2.2016 -1.5629
  456MOL0     H61544   1.297   6.925   5.935 -2.2022 -0.2203  0.0011
  456MOL0     H61545   1.177   6.781   5.751 -1.0569  0.7574  0.7778
  456MOL0     H61546   1.153   6.792   5.251 -0.8997 -0.2634 -0.3580
  456MOL0     H61547   1.118   6.643   5.066  0.2461  1.3768  0.4471
  456MOL0     H61548   1.036   6.488   4.912 -0.4133  0.1264 -0.2936
  456MOL0     H61549   0.883   6.531   4.983 -0.8268 -0.5207 -0.3001
  456MOL0     H61550   0.837   6.420   4.788 -0.1435  0.7230  0.5438
  456MOL0     H61551   0.779   6.327   4.923 -1.1100  1.1593 -0.7833
  456MOL0     H61552   1.023   6.266   4.760 -1.0635  0.6920 -0.8593
  456MOL0     H61553   0.865   6.184   4.756  0.0303  2.0451 -0.4534
  456MOL0     H61554   0.993   6.037   4.864  1.1270 -0.7963  1.2458
  456MOL0     H61555   1.075   6.154   4.961 -0.6012 -0.0359  0.5386
  456MOL0     H61556   0.686   6.090   5.153 -1.1474  0.9205 -1.9918
  456MOL0     H61557   0.941   6.357   5.323  2.0466 -0.2191  1.5987
  456MOL0     H61558   0.858   6.585   5.572  1.1475  1.3542  0.0454
  456MOL0     H61559   0.881   6.407   5.537 -2.1266  1.1747  3.2924
  456MOL0     H61560   1.015   6.506   5.609 -0.3127 -0.8865 -0.2076
  457MOL0     O61561   9.372   6.626   1.075  0.6958  0.8456 -0.8416
  457MOL0     C61562   9.447   6.543   1.031  0.1894  0.5868  0.3542
  457MOL0     O61563   9.416   6.434   0.962 -0.1376 -0.0821  0.3913
  457MOL0     C61564   9.290   6.387   0.945  0.9777  0.1073  0.7834
  457MOL0     C61565   9.212   6.441   0.849 -0.2109 -0.0546  0.2178
  457MOL0     C61566   9.089   6.387   0.806  0.7035  0.3827 -0.3604
  457MOL0     C61567   9.034   6.281   0.877  0.1801  0.3875  0.7160
  457MOL0     O61568   8.908   6.233   0.840  0.1110  0.6865 -0.2167
  457MOL0     C61569   8.832   6.161   0.939 -0.3317  1.1108  0.0105
  457MOL0     C61570   8.694   6.122   0.888  0.3261 -0.4129  0.4799
  457MOL0     C61571   8.698   6.030   0.771  0.9253  0.3062  0.6279
  457MOL0     C61572   8.566   5.944   0.762  0.2053  0.4763 -0.2383
  457MOL0     C61573   8.437   6.025   0.740  0.2287  0.6011 -0.1844
  457MOL0     C61574   8.305   5.949   0.753 -0.3959 -0.8551  0.3066
  457MOL0     C61575   8.177   6.036   0.729 -1.8222 -0.2922  0.3946
  457MOL0     C61576   8.109   6.021   0.596  0.3903 -0.2131 -0.1316
  457MOL0     N61577   8.205   6.029   0.485  0.1950  0.1623  0.1888
  457MOL0     C61578   8.282   6.134   0.439  0.1917  0.0069  0.2204
  457MOL0     C61579   8.358   6.070   0.340 -0.6941  0.7272  0.0071
  457MOL0     C61580   8.469   6.132   0.261 -0.1742 -0.4733  0.3763
  457MOL0     C61581   8.418   6.260   0.185 -0.2674  0.4653 -0.2814
  457MOL0     C61582   8.501   6.286   0.055 -0.1744  0.0609  0.4384
  457MOL0     C61583   8.650   6.306   0.094 -0.2271 -0.2365  0.1569
  457MOL0     O61584   8.725   6.334  -0.028 -0.6914  0.1206 -0.3302
  457MOL0     C61585   8.857   6.331  -0.018 -0.4909  0.2874 -0.4761
  457MOL0     C61586   8.931   6.367  -0.129  0.2089  0.4298  0.0579
  457MOL0     C61587   9.068   6.354  -0.132 -0.2640  0.0477 -0.5248
  457MOL0     C61588   9.145   6.313  -0.021  0.3111 -0.2967 -0.1087
  457MOL0     C61589   9.294   6.331  -0.011  0.2043 -0.1876  0.3317
  457MOL0     O61590   9.352   6.311   0.108 -0.4165 -0.3591  0.0920
  457MOL0     C61591   9.489   6.315   0.108  0.5782 -0.2738 -0.2615
  457MOL0     C61592   9.559   6.201   0.082 -0.1386  0.7837 -0.2541
  457MOL0     C61593   9.702   6.211   0.089 -0.0913  0.4274 -0.0939
  457MOL0     C61594   9.772   6.325   0.127 -0.0532 -0.5880  0.3983
  457MOL0     O61595   9.900   6.345   0.163 -0.4133  0.0478  0.5625
  457MOL0     C61596   9.991   6.359   0.052  0.1402  0.4997  0.4719
  457MOL0     C61597  10.124   6.427   0.098 -0.3684 -0.4849  0.6897
  457MOL0     C61598  10.222   6.319   0.153 -0.7669 -0.0656  0.6832
  457MOL0     C61599  10.348   6.378   0.215 -0.5241 -0.3915 -0.8010
  457MOL0     C61600  10.428   6.482   0.130  0.2981  0.2335  0.3038
  457MOL0     C61601  10.552   6.515   0.213  0.4040 -0.5000  0.5673
  457MOL0     C61602  10.633   6.637   0.146  0.1958  0.3324 -0.5029
  457MOL0     C61603  10.779   6.635   0.172  0.0196 -0.2521 -0.2169
  457MOL0    Cl61604  10.859   6.489   0.104 -0.0026 -0.4679 -0.0019
  457MOL0     C61605   9.693   6.438   0.161  0.6502 -0.1838  0.6505
  457MOL0     C61606   9.561   6.437   0.135  1.1314 -0.0474  0.2830
  457MOL0     O61607   9.349   6.360  -0.110  0.1243  0.9491 -0.2319
  457MOL0     C61608   9.069   6.285   0.093 -0.0670  0.1339  0.9118
  457MOL0     C61609   8.930   6.288   0.094 -0.1221  0.1382 -0.4598
  457MOL0     N61610   8.309   5.937   0.318  0.0735 -0.8307 -0.4538
  457MOL0     N61611   8.208   5.923   0.403 -0.0460  0.1389  0.4050
  457MOL0     C61612   9.106   6.236   0.993 -0.4116  0.3910 -0.1432
  457MOL0     C61613   9.235   6.285   1.020 -0.2537 -0.0672 -0.5041
  457MOL0     C61614   9.596   6.568   1.064  0.1585 -0.7035 -0.1024
  457MOL0     C61615   9.623   6.697   1.131  0.2973  1.4012 -0.7010
  457MOL0     C61616   9.751   6.721   1.174  0.0092  0.6360 -0.2775
  457MOL0     C61617   9.854   6.631   1.164 -1.3075  1.0136  0.6939
  457MOL0     O61618   9.979   6.662   1.204  0.4047 -0.1189 -0.3358
  457MOL0     C61619  10.019   6.585   1.319  0.6265  0.1220  1.3651
  457MOL0     C61620  10.167   6.618   1.340 -0.8590 -0.2846 -0.2957
  457MOL0     C61621  10.226   6.579   1.475 -0.0104  0.0763  0.5193
  457MOL0     C61622  10.145   6.611   1.600 -0.5635  0.4258  0.9021
  457MOL0     C61623  10.226   6.623   1.722  0.7687  0.0704 -0.1251
  457MOL0     C61624  10.258   6.625   1.842 -0.7445  0.4832 -0.3230
  457MOL0     C61625   9.828   6.507   1.106 -0.2986 -0.3286 -0.9674
  457MOL0     C61626   9.705   6.472   1.057  0.1835  0.2752 -0.2134
  457MOL0     C61627   9.709   6.341   0.994  1.2491  0.2400 -0.0584
  457MOL0     H61628   9.235   6.530   0.792 -0.5595 -0.7456 -1.0259
  457MOL0     H61629   9.043   6.429   0.717  2.9815  3.6326 -0.1471
  457MOL0     H61630   8.872   6.061   0.959 -3.3197  0.1448  1.6383
  457MOL0     H61631   8.817   6.217   1.032  0.9037  0.6790  0.4907
  457MOL0     H61632   8.646   6.217   0.863  0.1289 -0.6417 -0.0212
  457MOL0     H61633   8.638   6.066   0.964  2.1512 -3.6916 -0.4037
  457MOL0     H61634   8.785   5.965   0.785  1.1765  1.1229  3.7991
  457MOL0     H61635   8.715   6.073   0.672 -1.0997  0.0552  0.1293
  457MOL0     H61636   8.566   5.875   0.678 -0.9166  0.8982 -0.6056
  457MOL0     H61637   8.545   5.887   0.853  1.3700  0.9504  0.3475
  457MOL0     H61638   8.429   6.097   0.822 -0.8741 -0.4406  0.6565
  457MOL0     H61639   8.440   6.080   0.645  2.2642 -1.1430 -1.2026
  457MOL0     H61640   8.323   5.872   0.678  3.7509 -1.3723  1.5547
  457MOL0     H61641   8.317   5.897   0.848  5.8539 -1.2295 -0.2520
  457MOL0     H61642   8.201   6.142   0.747  0.0077 -1.0636  3.1970
  457MOL0     H61643   8.113   6.009   0.814 -2.2639  0.3500  0.2795
  457MOL0     H61644   8.065   5.920   0.598 -2.0440  0.7371 -1.8619
  457MOL0     H61645   8.034   6.099   0.585  0.4522 -0.1479 -0.0915
  457MOL0     H61646   8.302   6.231   0.484  2.8394 -1.2748  2.0417
  457MOL0     H61647   8.554   6.162   0.322  0.8497 -0.8949 -0.8007
  457MOL0     H61648   8.511   6.062   0.188  0.9709 -0.3853  0.9392
  457MOL0     H61649   8.312   6.245   0.162 -0.5377  0.7832  0.7026
  457MOL0     H61650   8.426   6.350   0.247 -2.0191  0.4345  0.0362
  457MOL0     H61651   8.467   6.380   0.011 -0.8851 -0.7664 -0.8748
  457MOL0     H61652   8.486   6.200  -0.011  1.1479  0.2036 -0.1003
  457MOL0     H61653   8.677   6.206   0.128  3.1955  0.1886 -0.9515
  457MOL0     H61654   8.669   6.381   0.172  0.9074  0.4700 -0.7588
  457MOL0     H61655   8.889   6.385  -0.227  1.6002  2.6789 -0.1880
  457MOL0     H61656   9.124   6.393  -0.216  0.0058  1.6591  0.3570
  457MOL0     H61657   9.503   6.110   0.061 -1.2076  0.8143  2.1437
  457MOL0     H61658   9.753   6.126   0.045 -0.8219  0.9497 -2.0819
  457MOL0     H61659  10.005   6.259   0.011  3.2598 -0.6594  3.8024
  457MOL0     H61660   9.941   6.421  -0.023 -3.8905 -1.0321  1.6218
  457MOL0     H61661  10.172   6.479   0.015  0.8493  2.0758  2.8277
  457MOL0     H61662  10.103   6.506   0.171 -0.0178  0.6821 -0.4380
  457MOL0     H61663  10.162   6.265   0.227 -0.4918 -2.5737 -0.8164
  457MOL0     H61664  10.265   6.248   0.082  3.0403  1.6644  1.0353
  457MOL0     H61665  10.397   6.288   0.255  1.7457 -0.0645 -2.6337
  457MOL0     H61666  10.320   6.430   0.307  0.0070 -1.7456  0.1553
  457MOL0     H61667  10.367   6.569   0.106  1.4039  1.1842  0.8050
  457MOL0     H61668  10.461   6.440   0.035 -0.3806 -1.8461  0.9366
  457MOL0     H61669  10.524   6.565   0.307  2.4139  3.0052 -0.5044
  457MOL0     H61670  10.626   6.435   0.225 -0.5008 -1.3582  0.5107
  457MOL0     H61671  10.586   6.735   0.159  1.2311  0.6243  1.4103
  457MOL0     H61672  10.625   6.612   0.040  1.5510  0.0055 -0.5390
  457MOL0     H61673  10.829   6.725   0.132  1.7113 -0.1589  1.8958
  457MOL0     H61674  10.807   6.627   0.278  2.6126 -0.6916 -0.8706
  457MOL0     H61675   9.740   6.525   0.206 -0.0643  0.0757  0.9158
  457MOL0     H61676   9.498   6.525   0.146 -3.7205 -3.3569  2.1361
  457MOL0     H61677   9.104   6.252   0.190 -2.3081 -1.1856  1.3530
  457MOL0     H61678   8.880   6.276   0.190  0.4824  2.3858  0.1895
  457MOL0     H61679   9.059   6.169   1.065  1.4256 -2.6036 -1.5282
  457MOL0     H61680   9.292   6.246   1.104 -0.5536 -2.7222 -1.4373
  457MOL0     H61681   9.549   6.776   1.144 -0.2111  1.0783 -1.6068
  457MOL0     H61682   9.766   6.816   1.224  0.2418  0.4620 -0.0106
  457MOL0     H61683  10.004   6.477   1.307  1.7993  0.0085  0.7961
  457MOL0     H61684   9.961   6.622   1.404 -0.0210 -0.0546  1.0113
  457MOL0     H61685  10.172   6.727   1.337  0.3742 -0.2733  1.0257
  457MOL0     H61686  10.230   6.583   1.258 -0.3006 -1.0659  0.4437
  457MOL0     H61687  10.325   6.622   1.488  0.0019  0.1486  0.2053
  457MOL0     H61688  10.243   6.471   1.469 -2.5736 -0.4465  1.3706
  457MOL0     H61689  10.096   6.709   1.591  0.2542  0.8971  1.4744
  457MOL0     H61690  10.064   6.544   1.630 -1.2615  1.3287  1.0799
  457MOL0     H61691  10.285   6.619   1.946 -0.1943  0.1887 -0.4782
  457MOL0     H61692   9.909   6.440   1.078 -0.9674 -2.4414  1.6704
  457MOL0     H61693   9.801   6.327   0.937  1.9938 -0.7565  1.3267
  457MOL0     H61694   9.730   6.268   1.073  0.0175  0.5403  0.5814
  457MOL0     H61695   9.618   6.315   0.940 -0.8647  0.1035  3.2773
  458MOL0     O61696   7.020   0.738   9.734  0.7009  0.0815  0.6348
  458MOL0     C61697   6.993   0.823   9.644 -0.1174  0.6356 -0.0197
  458MOL0     O61698   7.084   0.865   9.547  0.4171 -0.0350 -0.1569
  458MOL0     C61699   7.216   0.868   9.588 -1.4225 -0.1701 -0.9574
  458MOL0     C61700   7.305   0.828   9.487 -0.5491  0.3634  0.0686
  458MOL0     C61701   7.441   0.827   9.518  0.2916  0.0113 -0.1993
  458MOL0     C61702   7.490   0.852   9.646  0.7206 -0.2814  0.0659
  458MOL0     O61703   7.625   0.857   9.677 -0.5787 -0.5380  0.3721
  458MOL0     C61704   7.692   0.732   9.708 -0.3518 -0.9889 -1.1463
  458MOL0     C61705   7.727   0.650   9.581  0.3019  0.6547 -0.2631
  458MOL0     C61706   7.829   0.720   9.483  0.1002 -0.2123 -0.9074
  458MOL0     C61707   7.863   0.633   9.373 -0.4090  1.0551 -0.2518
  458MOL0     C61708   7.960   0.699   9.276  0.8463 -0.6321  0.4542
  458MOL0     C61709   8.105   0.708   9.314 -0.4168  0.3210 -0.9651
  458MOL0     C61710   8.189   0.798   9.229 -0.5538 -0.4286  0.8093
  458MOL0     C61711   8.340   0.794   9.262 -0.1337 -0.7527 -0.1308
  458MOL0     N61712   8.438   0.819   9.153 -0.8157 -0.0466 -0.1399
  458MOL0     C61713   8.511   0.931   9.131 -0.3788  0.3424  0.0669
  458MOL0     C61714   8.594   0.917   9.027 -0.4034 -0.2990  0.0707
  458MOL0     C61715   8.701   1.007   8.987 -0.1013 -0.9526  0.2288
  458MOL0     C61716   8.676   1.157   9.028  0.4420 -0.6625  0.4935
  458MOL0     C61717   8.596   1.241   8.926  0.8245  0.0452  0.2028
  458MOL0     C61718   8.574   1.386   8.992  0.3392  0.7947 -0.3856
  458MOL0     O61719   8.507   1.370   9.119  0.6146  0.2623 -0.3305
  458MOL0     C61720   8.370   1.346   9.123  0.7283 -0.5014 -0.2124
  458MOL0     C61721   8.274   1.361   9.014 -0.1615 -0.1242  0.2663
  458MOL0     C61722   8.142   1.327   9.049  0.1829  0.3317  0.2942
  458MOL0     C61723   8.099   1.301   9.185 -0.2693  0.3463  1.7539
  458MOL0     C61724   7.960   1.295   9.214 -0.3106 -0.7262 -0.5336
  458MOL0     O61725   7.873   1.264   9.118 -0.1934  0.4197  0.5961
  458MOL0     C61726   7.741   1.228   9.154  0.2431 -0.1779 -0.6607
  458MOL0     C61727   7.724   1.116   9.238 -0.7426 -1.0071  0.2772
  458MOL0     C61728   7.602   1.067   9.287  0.5121 -0.9867 -0.4339
  458MOL0     C61729   7.482   1.137   9.250  0.5708  0.3645  1.0593
  458MOL0     O61730   7.366   1.073   9.298 -0.0577 -0.2651 -0.8361
  458MOL0     C61731   7.237   1.108   9.237  1.1594 -0.4030  0.3465
  458MOL0     C61732   7.170   1.233   9.286 -0.4247  0.3118 -0.2488
  458MOL0     C61733   7.020   1.210   9.303 -0.1396  0.3253 -1.0235
  458MOL0     C61734   6.950   1.335   9.316 -0.2583 -0.1288 -0.3738
  458MOL0     C61735   6.792   1.312   9.329  0.0825 -0.5333  0.6083
  458MOL0     C61736   6.713   1.253   9.208  0.0218  0.2356  0.2171
  458MOL0     C61737   6.559   1.237   9.234 -0.7015 -0.3364  0.1680
  458MOL0     C61738   6.483   1.378   9.237  0.5477 -0.8370  0.3498
  458MOL0    Cl61739   6.311   1.348   9.210  0.3012 -0.3681  0.2333
  458MOL0     C61740   7.493   1.253   9.174  0.6050 -0.1292  0.4352
  458MOL0     C61741   7.618   1.303   9.127 -0.5604 -0.7225  0.3300
  458MOL0     O61742   7.924   1.340   9.318 -0.5239 -0.7976  0.0389
  458MOL0     C61743   8.199   1.291   9.281 -0.0319  0.1143  0.2310
  458MOL0     C61744   8.327   1.319   9.250  0.7471  0.1338  0.3254
  458MOL0     N61745   8.585   0.782   8.992  0.1034 -0.0638 -0.4813
  458MOL0     N61746   8.487   0.726   9.065  0.4169 -0.4409  0.3491
  458MOL0     C61747   7.400   0.889   9.744 -0.9423 -0.8036  0.3546
  458MOL0     C61748   7.264   0.908   9.713  0.1515 -1.0915 -0.3258
  458MOL0     C61749   6.853   0.873   9.636  0.0222  0.4940 -0.8247
  458MOL0     C61750   6.793   0.912   9.760  0.2492  0.5693 -0.6328
  458MOL0     C61751   6.659   0.970   9.756  0.1542 -0.3206  0.8032
  458MOL0     C61752   6.588   0.985   9.641 -0.0769 -0.0245 -0.0789
  458MOL0     O61753   6.464   1.024   9.666 -0.4200  0.3695 -0.8225
  458MOL0     C61754   6.359   1.008   9.564 -0.7937 -0.0846 -0.7563
  458MOL0     C61755   6.322   0.858   9.543  0.5986 -0.0043 -0.5146
  458MOL0     C61756   6.248   0.816   9.415  0.6048  0.8399 -0.4651
  458MOL0     C61757   6.191   0.675   9.439  0.2641  0.6053  0.1776
  458MOL0     C61758   6.101   0.642   9.325 -0.9390  0.0830  0.3610
  458MOL0     C61759   6.015   0.624   9.247  0.4721 -0.6941  0.5101
  458MOL0     C61760   6.648   0.952   9.518 -0.0984  0.3982  0.1267
  458MOL0     C61761   6.782   0.900   9.510 -0.0874  0.0289  0.0813
  458MOL0     C61762   6.848   0.870   9.379  0.3179  0.7306  0.2314
  458MOL0     H61763   7.270   0.808   9.386  2.7854  1.4907 -1.4577
  458MOL0     H61764   7.515   0.805   9.441 -0.3697 -0.7517 -0.6303
  458MOL0     H61765   7.788   0.755   9.756  0.8311  1.3901 -4.2939
  458MOL0     H61766   7.634   0.666   9.773  1.9207  1.7990  4.4159
  458MOL0     H61767   7.635   0.618   9.532 -2.1290  2.0473  2.9892
  458MOL0     H61768   7.769   0.551   9.601  1.2210  1.3348  1.3982
  458MOL0     H61769   7.920   0.743   9.540 -0.9698  1.0420  0.3838
  458MOL0     H61770   7.791   0.820   9.461  1.4998  0.5906  0.1236
  458MOL0     H61771   7.901   0.541   9.419  0.4849  1.1126 -0.8394
  458MOL0     H61772   7.773   0.607   9.315 -0.4907  3.1718 -1.1590
  458MOL0     H61773   7.960   0.631   9.191 -1.3257  0.1781 -0.2622
  458MOL0     H61774   7.937   0.803   9.252  3.1516 -0.7844 -3.2453
  458MOL0     H61775   8.124   0.744   9.415  1.0594  1.2621 -1.5435
  458MOL0     H61776   8.143   0.606   9.309  0.9856  0.8790 -2.3866
  458MOL0     H61777   8.152   0.900   9.228  1.1788  0.5191 -4.9195
  458MOL0     H61778   8.174   0.761   9.127 -2.5570 -3.8593  2.1822
  458MOL0     H61779   8.373   0.869   9.335  2.4112 -2.7975  0.9334
  458MOL0     H61780   8.356   0.696   9.306  3.5181  0.0983  0.6952
  458MOL0     H61781   8.502   1.016   9.198  1.0335 -1.3784  2.6334
  458MOL0     H61782   8.797   0.972   9.025  1.2009  2.3317  0.2253
  458MOL0     H61783   8.722   1.002   8.879  1.3126 -1.2427  0.4985
  458MOL0     H61784   8.636   1.158   9.129  0.0415  1.8675  0.3768
  458MOL0     H61785   8.774   1.205   9.040  0.2823 -0.3769  0.6551
  458MOL0     H61786   8.498   1.198   8.904  0.3811  1.4497 -0.7219
  458MOL0     H61787   8.652   1.255   8.833 -0.3309 -0.7459 -0.6312
  458MOL0     H61788   8.517   1.450   8.923 -0.3665 -0.3190 -0.8752
  458MOL0     H61789   8.666   1.441   9.013  1.6372 -0.5347 -2.2276
  458MOL0     H61790   8.303   1.380   8.912  0.3040 -1.4783  0.1274
  458MOL0     H61791   8.067   1.337   8.971 -0.3881 -1.9682  0.4609
  458MOL0     H61792   7.816   1.070   9.271  0.3683  1.6137  1.1468
  458MOL0     H61793   7.609   0.983   9.355 -2.3093 -2.8682 -2.2098
  458MOL0     H61794   7.231   1.108   9.127  0.8946 -0.4677  0.3598
  458MOL0     H61795   7.165   1.034   9.271  1.0587  0.2651  1.6475
  458MOL0     H61796   7.198   1.243   9.391 -1.8262 -2.5724  0.5082
  458MOL0     H61797   7.193   1.316   9.218  2.9873 -0.3197 -0.0453
  458MOL0     H61798   6.980   1.151   9.220  1.6359 -1.0125 -0.9993
  458MOL0     H61799   7.013   1.150   9.395  2.2151 -0.5597 -1.3619
  458MOL0     H61800   6.963   1.406   9.234  4.2738 -0.6741 -0.3753
  458MOL0     H61801   6.988   1.385   9.406 -0.4234  5.1235 -2.8636
  458MOL0     H61802   6.759   1.409   9.366  0.4290  0.3126 -1.1991
  458MOL0     H61803   6.778   1.243   9.413  0.7006 -0.3774  0.8439
  458MOL0     H61804   6.733   1.313   9.119  1.1473 -1.2900 -0.6194
  458MOL0     H61805   6.763   1.159   9.181  0.0993 -0.3038  2.0781
  458MOL0     H61806   6.541   1.188   9.330 -0.3448 -0.5161  0.1452
  458MOL0     H61807   6.514   1.174   9.156 -3.8395 -1.2095  2.4673
  458MOL0     H61808   6.508   1.429   9.331  2.9226  1.7818 -1.5275
  458MOL0     H61809   6.525   1.432   9.152 -0.8161 -0.5995 -0.2036
  458MOL0     H61810   7.405   1.313   9.155  0.6169 -0.4607 -0.7240
  458MOL0     H61811   7.612   1.397   9.072 -0.0791 -1.3278 -0.7815
  458MOL0     H61812   8.180   1.276   9.387  0.4335  0.4262  0.3610
  458MOL0     H61813   8.416   1.295   9.307  1.4581  0.2533 -0.7147
  458MOL0     H61814   7.446   0.899   9.841 -0.1963 -1.0494  0.0280
  458MOL0     H61815   7.203   0.941   9.796  0.1075 -4.1840  1.0151
  458MOL0     H61816   6.839   0.898   9.858 -1.4838  0.1482  0.1632
  458MOL0     H61817   6.609   0.998   9.848  1.7063  1.5874  1.1148
  458MOL0     H61818   6.388   1.055   9.469 -1.3447 -2.1315 -2.0011
  458MOL0     H61819   6.273   1.058   9.607  0.0869  1.3225 -0.5616
  458MOL0     H61820   6.257   0.825   9.626  0.2305 -2.5794 -1.7360
  458MOL0     H61821   6.405   0.788   9.555  0.8577  0.4005  0.1568
  458MOL0     H61822   6.316   0.826   9.331  0.8573 -0.7821 -0.4962
  458MOL0     H61823   6.166   0.882   9.385 -2.3586 -2.5199 -0.4724
  458MOL0     H61824   6.268   0.601   9.465  0.9317  1.1690 -0.1615
  458MOL0     H61825   6.116   0.671   9.519 -0.2570  0.3728 -0.3124
  458MOL0     H61826   5.942   0.613   9.169  2.1984 -1.2764 -1.0773
  458MOL0     H61827   6.598   0.961   9.422  0.0828  3.1118  0.2069
  458MOL0     H61828   6.794   0.905   9.291 -0.2493  1.4908  0.8709
  458MOL0     H61829   6.946   0.918   9.375 -0.8258  3.3365  1.3674
  458MOL0     H61830   6.857   0.761   9.376 -4.3768  0.1780 -0.1273
  459MOL0     O61831  11.089   7.222   0.113 -0.5080  0.6064  0.8040
  459MOL0     C61832  11.073   7.212   0.232 -0.3537 -0.0274 -0.3531
  459MOL0     O61833  11.118   7.310   0.322 -0.6623 -0.3121 -0.0916
  459MOL0     C61834  11.175   7.427   0.273 -0.5652  0.3818  0.2789
  459MOL0     C61835  11.313   7.459   0.302 -0.5314  0.8157 -0.3701
  459MOL0     C61836  11.367   7.582   0.250 -0.0124  0.4145 -0.3421
  459MOL0     C61837  11.282   7.671   0.173 -0.1891 -0.1134  0.0358
  459MOL0     O61838  11.337   7.788   0.119 -0.0406  0.4050 -0.0717
  459MOL0     C61839  11.484   7.827   0.120 -0.4566  0.1717 -0.3835
  459MOL0     C61840  11.558   7.752   0.020 -0.6686  0.7272 -0.7836
  459MOL0     C61841  11.720   7.770   0.029  0.3897  0.0742 -0.5996
  459MOL0     C61842  11.776   7.713   0.163  0.0268 -0.5444  0.3508
  459MOL0     C61843  11.935   7.750   0.168  0.7048 -0.6331 -0.2857
  459MOL0     C61844  12.024   7.729   0.041  1.0683 -0.3252 -0.5953
  459MOL0     C61845  12.170   7.733   0.074 -0.3318  0.2443  0.4301
  459MOL0     C61846  12.233   7.608   0.132 -0.4786  0.6492  0.7731
  459MOL0     N61847  12.369   7.623   0.170  0.0429 -0.3721 -0.4741
  459MOL0     C61848  12.469   7.547   0.136 -0.5917  0.7656  0.7348
  459MOL0     C61849  12.579   7.604   0.196 -0.5386 -0.3431 -0.3488
  459MOL0     C61850  12.712   7.545   0.210 -0.6394  0.3594 -0.3227
  459MOL0     C61851  12.808   7.561   0.102  0.0915 -0.6107 -0.1186
  459MOL0     C61852  12.953   7.583   0.146 -0.2166  0.0476  0.6888
  459MOL0     C61853  13.004   7.474   0.246 -0.0726 -0.8652 -0.2823
  459MOL0     O61854  13.022   7.346   0.187  0.4120 -0.0407 -0.9705
  459MOL0     C61855  13.095   7.257   0.271  1.0128 -0.8308  1.6781
  459MOL0     C61856  13.114   7.123   0.230 -1.1406 -0.2985 -0.0599
  459MOL0     C61857  13.197   7.038   0.312  0.0631  0.0826  0.2694
  459MOL0     C61858  13.260   7.078   0.430  0.1428 -0.0745  0.5456
  459MOL0     C61859  13.344   6.987   0.501  0.0001  0.6143 -0.0909
  459MOL0     O61860  13.336   6.853   0.481  0.3230  0.4837  0.0762
  459MOL0     C61861  13.434   6.770   0.528  0.4882  0.0933  0.8061
  459MOL0     C61862  13.400   6.652   0.598 -0.6569  0.1356 -0.3557
  459MOL0     C61863  13.497   6.556   0.635 -0.0857  0.2250 -1.0236
  459MOL0     C61864  13.636   6.576   0.596  0.3460  0.1096  0.1491
  459MOL0     O61865  13.731   6.466   0.614  0.1352  0.5089  0.1436
  459MOL0     C61866  13.823   6.446   0.505  0.4126  0.2220 -0.1707
  459MOL0     C61867  13.912   6.329   0.511 -0.0841  0.7821  0.2701
  459MOL0     C61868  13.995   6.322   0.388 -0.0455 -0.1135  0.4073
  459MOL0     C61869  14.105   6.216   0.380 -0.3279 -0.5858  0.8798
  459MOL0     C61870  14.189   6.237   0.249  0.0031  1.4066 -1.0870
  459MOL0     C61871  14.299   6.129   0.240  0.4658  0.6307 -0.2268
  459MOL0     C61872  14.386   6.144   0.104  0.2856 -0.6890 -0.5841
  459MOL0     C61873  14.514   6.067   0.115  0.5029  0.3146  0.0375
  459MOL0    Cl61874  14.507   5.911   0.197  0.0885  0.1242 -0.0909
  459MOL0     C61875  13.662   6.699   0.524  0.9798  0.0192  1.7467
  459MOL0     C61876  13.564   6.786   0.493  0.4771 -1.0400 -0.4574
  459MOL0     O61877  13.429   7.040   0.574  1.0292 -1.0187  0.9944
  459MOL0     C61878  13.232   7.209   0.471  0.0663 -0.2910 -0.1099
  459MOL0     C61879  13.161   7.295   0.386 -0.1095  0.3497 -0.3221
  459MOL0     N61880  12.528   7.711   0.268 -0.0278 -0.0090 -0.8536
  459MOL0     N61881  12.404   7.721   0.262 -0.1724  0.1875  0.9108
  459MOL0     C61882  11.148   7.635   0.146 -1.0499  0.2312  0.7217
  459MOL0     C61883  11.101   7.515   0.195 -0.5476  0.3915 -0.0776
  459MOL0     C61884  11.021   7.083   0.291  0.0864  0.0962 -0.1074
  459MOL0     C61885  11.079   6.956   0.255 -0.5693 -1.1228 -0.6401
  459MOL0     C61886  11.031   6.832   0.308  0.0811  0.0674 -0.8215
  459MOL0     C61887  10.956   6.835   0.423 -0.6572  0.7402  0.0969
  459MOL0     O61888  10.937   6.715   0.489  0.4739  0.7179  0.0470
  459MOL0     C61889  10.851   6.725   0.602 -1.0611  0.7895  0.9112
  459MOL0     C61890  10.709   6.689   0.559  0.6865 -1.3175  0.3244
  459MOL0     C61891  10.611   6.687   0.683  0.3966  0.6660 -0.1677
  459MOL0     C61892  10.467   6.645   0.642 -0.6228  0.2215  0.0477
  459MOL0     C61893  10.393   6.625   0.761  0.1069 -0.2322  0.1333
  459MOL0     C61894  10.324   6.617   0.867  0.3729 -0.5180  0.8294
  459MOL0     C61895  10.901   6.958   0.469 -0.2825  0.1182 -0.2816
  459MOL0     C61896  10.925   7.090   0.398 -0.3391  1.4414 -0.5854
  459MOL0     C61897  10.871   7.220   0.448  0.4270  0.1030 -0.2697
  459MOL0     H61898  11.365   7.394   0.371 -1.8262 -1.3272 -1.2989
  459MOL0     H61899  11.465   7.621   0.275  0.4445  0.2599 -1.7784
  459MOL0     H61900  11.495   7.933   0.096 -1.0291 -0.5347 -4.4320
  459MOL0     H61901  11.515   7.822   0.225 -2.1216 -0.1685  0.1321
  459MOL0     H61902  11.522   7.783  -0.079  1.6629 -2.2610 -2.7712
  459MOL0     H61903  11.545   7.643   0.025  2.1450  0.1332 -3.1396
  459MOL0     H61904  11.740   7.877   0.018  2.7683 -0.5815 -4.9862
  459MOL0     H61905  11.773   7.720  -0.053 -1.0784  1.9470 -2.8099
  459MOL0     H61906  11.719   7.760   0.243 -2.7332  0.7414 -2.1641
  459MOL0     H61907  11.766   7.604   0.167  1.3752 -0.6636  0.7967
  459MOL0     H61908  11.937   7.857   0.188  1.9611 -0.1048 -2.8552
  459MOL0     H61909  11.976   7.699   0.256  0.3226 -5.2284 -2.4475
  459MOL0     H61910  12.006   7.631  -0.005 -0.1447 -0.1233 -0.5831
  459MOL0     H61911  11.998   7.808  -0.030 -0.0216 -0.0235  0.1142
  459MOL0     H61912  12.180   7.816   0.143  2.1717  0.2951  0.1022
  459MOL0     H61913  12.225   7.756  -0.017 -1.0763  2.3663  0.4687
  459MOL0     H61914  12.179   7.571   0.219 -0.6182 -0.4522  0.2398
  459MOL0     H61915  12.230   7.533   0.052  2.6029  1.5733 -0.3677
  459MOL0     H61916  12.466   7.452   0.083  2.0502  1.5836 -1.0811
  459MOL0     H61917  12.748   7.592   0.302 -0.5592  0.8669 -0.6058
  459MOL0     H61918  12.706   7.436   0.217  0.0841  0.1174 -2.5437
  459MOL0     H61919  12.819   7.476   0.034  1.0219  1.0538 -2.1885
  459MOL0     H61920  12.770   7.651   0.052 -2.5640 -1.5132  0.1645
  459MOL0     H61921  12.952   7.678   0.200  2.1315  0.6423 -0.2037
  459MOL0     H61922  13.011   7.588   0.053  0.0695 -2.6080  0.6341
  459MOL0     H61923  12.958   7.469   0.345  3.2019 -1.1960  1.3294
  459MOL0     H61924  13.104   7.515   0.255 -0.3527  0.2853 -1.9522
  459MOL0     H61925  13.080   7.081   0.136 -0.7915 -0.4031 -0.1411
  459MOL0     H61926  13.212   6.942   0.264 -3.0267 -1.4826  2.1484
  459MOL0     H61927  13.295   6.629   0.611 -0.7235 -0.8267 -2.2045
  459MOL0     H61928  13.468   6.472   0.698  0.9866  0.4730 -0.1694
  459MOL0     H61929  13.763   6.437   0.413  3.5157  0.0405 -2.3455
  459MOL0     H61930  13.886   6.536   0.502 -1.7060  1.7889 -2.6377
  459MOL0     H61931  13.985   6.345   0.591  1.2721  0.1483 -0.7921
  459MOL0     H61932  13.848   6.241   0.518  1.9578 -1.0929 -2.4751
  459MOL0     H61933  13.936   6.300   0.299  0.6130  0.5862 -0.2191
  459MOL0     H61934  14.031   6.423   0.364 -0.5727 -0.2782 -1.1712
  459MOL0     H61935  14.057   6.117   0.385 -2.8714  0.5676  1.1504
  459MOL0     H61936  14.163   6.209   0.472 -1.9653  1.2829  2.1386
  459MOL0     H61937  14.239   6.334   0.254 -0.0137  1.3581  2.0201
  459MOL0     H61938  14.121   6.233   0.164 -0.0004 -1.4504 -1.0596
  459MOL0     H61939  14.365   6.148   0.326 -0.5475  1.2230  0.4465
  459MOL0     H61940  14.260   6.027   0.251  1.1872  0.1083 -2.1462
  459MOL0     H61941  14.389   6.243   0.058 -0.7267 -1.4709 -2.4544
  459MOL0     H61942  14.321   6.082   0.041 -2.5931  0.4667  1.0578
  459MOL0     H61943  14.555   6.061   0.014 -0.5797  0.5245 -0.4314
  459MOL0     H61944  14.587   6.127   0.171 -0.0546  1.3491 -0.3098
  459MOL0     H61945  13.758   6.710   0.474  0.2667 -1.7595 -0.1504
  459MOL0     H61946  13.589   6.873   0.433  2.0810 -0.1404  1.3931
  459MOL0     H61947  13.275   7.235   0.568 -2.7708  0.3467  1.0789
  459MOL0     H61948  13.168   7.391   0.435 -0.1553  0.1606  0.0581
  459MOL0     H61949  11.082   7.700   0.089  1.5516  2.9462  0.5251
  459MOL0     H61950  10.995   7.495   0.182 -1.2115  1.5726  2.9147
  459MOL0     H61951  11.166   6.956   0.190  1.3143  1.2979  1.6758
  459MOL0     H61952  11.063   6.736   0.269  3.7813  1.1824 -0.8913
  459MOL0     H61953  10.853   6.823   0.650 -0.7888  0.4412  1.6215
  459MOL0     H61954  10.887   6.652   0.675 -0.2049 -0.3574 -0.6058
  459MOL0     H61955  10.702   6.592   0.510 -4.8079 -0.5696 -0.9845
  459MOL0     H61956  10.678   6.763   0.485  1.1878 -3.7954 -2.5688
  459MOL0     H61957  10.607   6.785   0.733 -0.9529 -0.4741  2.1548
  459MOL0     H61958  10.653   6.603   0.740 -0.2371  0.3482 -0.1564
  459MOL0     H61959  10.416   6.714   0.574 -0.7377 -0.1881 -0.2868
  459MOL0     H61960  10.464   6.549   0.590  0.8548  0.1072  0.1422
  459MOL0     H61961  10.259   6.600   0.950 -3.2133 -4.0869 -2.3020
  459MOL0     H61962  10.825   6.971   0.545  2.1842  1.5241  2.1478
  459MOL0     H61963  10.931   7.265   0.527  0.0548 -3.5777  2.3657
  459MOL0     H61964  10.855   7.286   0.363 -2.6495 -0.0601  0.0893
  459MOL0     H61965  10.767   7.207   0.478  0.4740 -0.6302 -0.3983
  460MOL0     O61966   5.683   4.998   9.265  0.1871 -0.8682 -0.2705
  460MOL0     C61967   5.736   5.086   9.335 -0.6625 -0.0359  0.3529
  460MOL0     O61968   5.843   5.063   9.419  0.4028 -0.3160  0.2942
  460MOL0     C61969   5.863   4.937   9.463 -0.4522  0.6470 -0.0472
  460MOL0     C61970   5.989   4.889   9.432 -0.2743  0.0936  1.1087
  460MOL0     C61971   6.013   4.758   9.458 -0.4336  0.0277 -0.5062
  460MOL0     C61972   5.916   4.677   9.517  0.1997 -1.2551 -1.0266
  460MOL0     O61973   5.954   4.552   9.525 -0.6915  0.6410  0.1131
  460MOL0     C61974   5.854   4.449   9.521  0.4244 -0.5295  0.1509
  460MOL0     C61975   5.911   4.324   9.457  0.0576 -0.2855  0.4209
  460MOL0     C61976   5.933   4.352   9.304  0.1179  0.2609 -0.7591
  460MOL0     C61977   5.962   4.225   9.228 -0.5564  0.5962  0.9893
  460MOL0     C61978   6.021   4.257   9.088  0.0364 -0.1364  0.1718
  460MOL0     C61979   6.053   4.138   8.991 -0.5948 -0.9975 -0.0960
  460MOL0     C61980   5.924   4.074   8.945  0.2420 -0.3317  0.4758
  460MOL0     C61981   5.942   3.935   8.885  0.3283 -1.0836  0.1840
  460MOL0     N61982   5.975   3.840   8.989 -0.6132  0.3022 -0.1970
  460MOL0     C61983   5.884   3.797   9.084  0.3374 -0.8661 -0.6902
  460MOL0     C61984   5.959   3.771   9.199  0.7117  0.1249 -0.0474
  460MOL0     C61985   5.911   3.731   9.333 -0.7561 -0.3352  1.0350
  460MOL0     C61986   5.911   3.846   9.435 -0.2062 -0.6696 -0.4210
  460MOL0     C61987   5.839   3.805   9.565  0.0449 -0.2389 -0.7635
  460MOL0     C61988   5.834   3.919   9.662  0.1102  0.8482  0.2238
  460MOL0     O61989   5.772   4.037   9.598  0.2669  1.0932 -0.0189
  460MOL0     C61990   5.643   4.034   9.570 -0.2830 -0.0062 -0.8358
  460MOL0     C61991   5.548   3.932   9.618 -0.5345 -0.1346 -0.2431
  460MOL0     C61992   5.414   3.954   9.623  0.4945  0.2476 -0.3173
  460MOL0     C61993   5.364   4.081   9.600  0.4299 -0.6051  0.3606
  460MOL0     C61994   5.223   4.096   9.601 -0.0728 -0.4351  0.1033
  460MOL0     O61995   5.182   4.218   9.552 -0.6395  0.5888 -1.0770
  460MOL0     C61996   5.050   4.246   9.557 -0.8358  0.6664 -0.0416
  460MOL0     C61997   5.001   4.298   9.447 -0.6113  0.3274  0.0804
  460MOL0     C61998   4.865   4.338   9.441  0.5956 -0.0424  0.1442
  460MOL0     C61999   4.780   4.321   9.548  0.2699 -0.0927  0.2256
  460MOL0     O62000   4.650   4.370   9.538 -0.7510 -0.6340 -0.5237
  460MOL0     C62001   4.546   4.286   9.569  0.4244  0.0511 -0.1670
  460MOL0     C62002   4.507   4.210   9.443 -0.5684 -0.3780 -0.3714
  460MOL0     C62003   4.438   4.308   9.348  0.0674 -0.1156  0.0081
  460MOL0     C62004   4.380   4.224   9.223  0.4861  0.0140 -0.7284
  460MOL0     C62005   4.360   4.320   9.108  0.1418  0.4016 -0.2548
  460MOL0     C62006   4.249   4.423   9.128  0.5095  0.0340 -0.9660
  460MOL0     C62007   4.108   4.366   9.124 -1.1300  0.2541 -0.5259
  460MOL0     C62008   4.084   4.265   9.013  0.7123  0.6256  0.6757
  460MOL0    Cl62009   4.154   4.332   8.854 -0.0528  0.4036  0.2054
  460MOL0     C62010   4.829   4.262   9.665 -0.1262  0.3612 -0.5605
  460MOL0     C62011   4.968   4.230   9.662 -0.1155 -0.0789 -0.0205
  460MOL0     O62012   5.149   4.002   9.627  0.5375 -0.7897 -0.2224
  460MOL0     C62013   5.445   4.180   9.541  0.1671 -0.3793 -0.1405
  460MOL0     C62014   5.582   4.160   9.532  0.3782  0.4577  0.0160
  460MOL0     N62015   6.090   3.773   9.157  0.0848 -0.2397 -0.0190
  460MOL0     N62016   6.099   3.831   9.041 -0.1112 -0.2735 -0.4689
  460MOL0     C62017   5.792   4.725   9.556 -0.1980  0.5256  0.6689
  460MOL0     C62018   5.763   4.861   9.525  0.4296  0.5603  0.0543
  460MOL0     C62019   5.701   5.227   9.314 -0.4780 -0.8586  1.0967
  460MOL0     C62020   5.790   5.329   9.365  0.4178 -0.2208 -0.0087
  460MOL0     C62021   5.763   5.462   9.351 -0.4386 -0.3234  0.7166
  460MOL0     C62022   5.638   5.505   9.305 -0.0439  0.0164  0.4374
  460MOL0     O62023   5.609   5.645   9.309  0.1785 -0.1111  0.3957
  460MOL0     C62024   5.671   5.728   9.410  0.4572  0.3208 -0.7117
  460MOL0     C62025   5.606   5.869   9.386  1.1870  0.6360 -0.2654
  460MOL0     C62026   5.460   5.880   9.435  0.2457 -0.4435 -0.5976
  460MOL0     C62027   5.445   5.897   9.588 -0.1314  0.8015 -0.2823
  460MOL0     C62028   5.332   5.816   9.643  0.4123  0.0027 -0.1951
  460MOL0     C62029   5.237   5.768   9.699  1.2352 -0.3967  0.8727
  460MOL0     C62030   5.547   5.410   9.254 -0.4539 -0.4187  0.3860
  460MOL0     C62031   5.577   5.273   9.261  0.3920  0.1297  0.8719
  460MOL0     C62032   5.474   5.180   9.205  0.3840 -0.2738 -0.0956
  460MOL0     H62033   6.059   4.958   9.386 -1.5921  2.0193  1.8846
  460MOL0     H62034   6.110   4.718   9.433  0.0098  0.7447  0.0006
  460MOL0     H62035   5.827   4.434   9.626  0.4777 -0.7362  0.1364
  460MOL0     H62036   5.761   4.477   9.470  1.1564 -1.9882 -2.1390
  460MOL0     H62037   5.848   4.238   9.482  0.3232 -0.6694 -0.1997
  460MOL0     H62038   6.010   4.299   9.495 -0.3254 -0.9449  1.0103
  460MOL0     H62039   6.008   4.430   9.291 -0.7378  0.9835 -1.4097
  460MOL0     H62040   5.838   4.387   9.264 -0.2664  0.6247  0.4215
  460MOL0     H62041   6.030   4.159   9.283  0.4218  0.0832 -0.7452
  460MOL0     H62042   5.869   4.169   9.210 -0.8296  1.7581 -1.6053
  460MOL0     H62043   5.953   4.325   9.037 -1.9394 -2.1790 -0.0702
  460MOL0     H62044   6.111   4.309   9.121  0.2803 -2.2120  3.1585
  460MOL0     H62045   6.116   4.159   8.905 -0.1568 -2.2199 -0.0853
  460MOL0     H62046   6.098   4.068   9.061 -0.4905 -0.9526 -0.1189
  460MOL0     H62047   5.869   4.137   8.875 -1.3024 -2.1040  0.0291
  460MOL0     H62048   5.856   4.071   9.031 -0.3439 -0.9305 -0.0083
  460MOL0     H62049   5.848   3.910   8.835  0.9903  0.2096 -1.8271
  460MOL0     H62050   6.014   3.951   8.804  1.4237  1.3490  1.5204
  460MOL0     H62051   5.776   3.809   9.082  0.2664 -1.4077 -0.2498
  460MOL0     H62052   5.810   3.690   9.319 -0.5270  0.1405 -3.5054
  460MOL0     H62053   5.965   3.645   9.372 -2.2514 -0.0264  4.0426
  460MOL0     H62054   6.011   3.882   9.461 -1.7437  1.9616  2.4718
  460MOL0     H62055   5.855   3.923   9.382 -1.6642 -1.2104  0.2765
  460MOL0     H62056   5.882   3.717   9.615  2.7136  1.6957  0.5900
  460MOL0     H62057   5.738   3.775   9.536  0.0987 -0.9285 -0.2747
  460MOL0     H62058   5.935   3.947   9.693 -0.0101  0.2517  1.1807
  460MOL0     H62059   5.784   3.889   9.754  1.8967 -1.1622  0.6243
  460MOL0     H62060   5.581   3.832   9.644  3.8154  1.9078  3.5199
  460MOL0     H62061   5.347   3.871   9.644  1.1875  0.0353  1.1155
  460MOL0     H62062   5.058   4.318   9.357 -2.3228  0.2048 -1.0704
  460MOL0     H62063   4.834   4.382   9.346 -1.9351 -2.8291 -0.4583
  460MOL0     H62064   4.569   4.209   9.643  0.3190 -1.3895 -1.5666
  460MOL0     H62065   4.457   4.342   9.598 -1.5262 -2.9388  0.1746
  460MOL0     H62066   4.597   4.171   9.394 -1.6011 -0.8273 -1.9885
  460MOL0     H62067   4.444   4.125   9.472 -1.2486 -0.2178 -1.3388
  460MOL0     H62068   4.350   4.352   9.397 -0.4828 -0.9499 -0.2002
  460MOL0     H62069   4.501   4.393   9.320  2.4882 -0.9113  2.5428
  460MOL0     H62070   4.288   4.170   9.247  0.1107 -0.1183 -2.3171
  460MOL0     H62071   4.454   4.151   9.188  1.0943 -0.4567  1.3843
  460MOL0     H62072   4.351   4.261   9.017 -1.8308  0.5222 -0.1858
  460MOL0     H62073   4.459   4.365   9.095  0.4720 -0.1562  0.3089
  460MOL0     H62074   4.266   4.492   9.211 -2.7282  1.8968 -1.6731
  460MOL0     H62075   4.249   4.498   9.048 -0.5584  1.4372  0.2996
  460MOL0     H62076   4.036   4.447   9.139 -1.7414 -0.8688  4.6369
  460MOL0     H62077   4.100   4.303   9.213 -1.0879 -0.6233 -1.1227
  460MOL0     H62078   4.118   4.162   9.027  1.2905  0.2732 -2.5151
  460MOL0     H62079   3.976   4.260   9.000  1.0069 -0.9421 -1.8812
  460MOL0     H62080   4.768   4.248   9.754 -1.1538 -1.1676 -1.4727
  460MOL0     H62081   5.010   4.207   9.759  1.1471 -1.6731 -0.9065
  460MOL0     H62082   5.413   4.279   9.512  2.2320  0.2519 -0.4795
  460MOL0     H62083   5.637   4.248   9.499  0.2820  0.0741 -1.2205
  460MOL0     H62084   5.713   4.669   9.606  1.8342 -2.2782  0.9423
  460MOL0     H62085   5.665   4.895   9.558  0.2677  1.8639 -1.6461
  460MOL0     H62086   5.884   5.296   9.408 -0.5206 -2.2931  0.6162
  460MOL0     H62087   5.847   5.522   9.384  1.4094 -1.9924 -0.7215
  460MOL0     H62088   5.779   5.722   9.390  0.8691 -2.1409  1.7403
  460MOL0     H62089   5.642   5.688   9.507 -4.8511 -0.2873 -2.2425
  460MOL0     H62090   5.614   5.877   9.277  4.5192 -0.0213 -0.1825
  460MOL0     H62091   5.665   5.949   9.431 -1.5791  2.9020 -0.4288
  460MOL0     H62092   5.400   5.792   9.412 -1.1921  0.7389 -1.5906
  460MOL0     H62093   5.417   5.961   9.375  2.5322  0.2090 -1.4416
  460MOL0     H62094   5.537   5.855   9.630 -1.6761 -0.6107  1.9280
  460MOL0     H62095   5.450   6.004   9.611 -2.1075  1.3789 -2.1496
  460MOL0     H62096   5.167   5.724   9.767  0.2302  0.5222  0.4546
  460MOL0     H62097   5.450   5.437   9.214  0.5431  1.2826 -0.9812
  460MOL0     H62098   5.525   5.119   9.130  1.7645 -1.4859  1.7336
  460MOL0     H62099   5.431   5.124   9.288 -1.0841 -2.2928 -2.0909
  460MOL0     H62100   5.385   5.229   9.164  0.3131  1.1102  1.6176
  461MOL0     O62101   3.798  10.257   7.022 -0.0138  0.1245  0.7500
  461MOL0     C62102   3.810  10.315   7.131 -0.2543  0.2187 -0.6073
  461MOL0     O62103   3.728  10.294   7.240 -0.2989  0.1676  0.0208
  461MOL0     C62104   3.613  10.213   7.222 -0.3161 -0.1809  0.1704
  461MOL0     C62105   3.614  10.078   7.247 -0.3809 -0.3823  0.8436
  461MOL0     C62106   3.496  10.001   7.247 -0.1820 -0.4848  0.9370
  461MOL0     C62107   3.375  10.066   7.204 -0.1898  0.1755 -0.2531
  461MOL0     O62108   3.262   9.991   7.186 -0.4473 -0.1733  0.1507
  461MOL0     C62109   3.147  10.035   7.262  0.4031 -0.7470 -0.2119
  461MOL0     C62110   3.051   9.912   7.290 -0.0376 -1.3038 -0.1542
  461MOL0     C62111   2.963   9.928   7.417  0.7580 -0.0808 -0.1712
  461MOL0     C62112   2.854   9.835   7.404  0.1911  0.0391  0.2622
  461MOL0     C62113   2.796   9.801   7.539 -0.5464  0.1645 -0.4021
  461MOL0     C62114   2.711   9.925   7.578 -0.3253  0.0768  0.3522
  461MOL0     C62115   2.649   9.896   7.707 -0.0843 -0.3645  0.8379
  461MOL0     C62116   2.742   9.903   7.825  0.3666 -0.1162  0.5396
  461MOL0     N62117   2.664   9.878   7.949  0.4894  0.5023 -0.0484
  461MOL0     C62118   2.626   9.755   8.007 -1.1165 -0.8178  0.2939
  461MOL0     C62119   2.566   9.785   8.127 -0.6874  0.1960 -0.4854
  461MOL0     C62120   2.543   9.686   8.242 -0.1679 -0.1839  0.2653
  461MOL0     C62121   2.664   9.651   8.329 -0.0701 -0.2299 -0.1589
  461MOL0     C62122   2.708   9.765   8.413  0.2673 -0.1876 -0.2256
  461MOL0     C62123   2.860   9.804   8.405  0.4976 -0.0553 -1.1267
  461MOL0     O62124   2.880   9.854   8.271 -0.6219 -0.2936  0.4216
  461MOL0     C62125   2.989   9.935   8.249  0.3573 -0.2461  0.1959
  461MOL0     C62126   2.985  10.026   8.147 -0.5349  0.4264 -0.0760
  461MOL0     C62127   3.092  10.113   8.119  0.3428  0.7463  0.0753
  461MOL0     C62128   3.209  10.107   8.191 -0.4845  0.2103 -0.4837
  461MOL0     C62129   3.322  10.187   8.155  0.7919 -0.5226 -0.8979
  461MOL0     O62130   3.438  10.144   8.205 -0.1184  0.0451  0.1712
  461MOL0     C62131   3.562  10.191   8.167  0.2263 -0.0378  0.2926
  461MOL0     C62132   3.665  10.107   8.143 -0.5508  1.0404 -0.2525
  461MOL0     C62133   3.794  10.138   8.109  0.1708  0.4355  0.1949
  461MOL0     C62134   3.830  10.277   8.100  0.3589  0.5028 -0.3399
  461MOL0     O62135   3.961  10.306   8.072  1.0693  0.0085  0.0931
  461MOL0     C62136   4.027  10.408   8.150  0.0299 -0.0766  0.0385
  461MOL0     C62137   4.178  10.373   8.147  0.6997 -0.0291  0.1856
  461MOL0     C62138   4.271  10.494   8.174  0.2395  0.1875 -0.2961
  461MOL0     C62139   4.412  10.446   8.159  0.1123 -0.8527  0.6690
  461MOL0     C62140   4.506  10.537   8.233 -0.3193  0.5820  0.5939
  461MOL0     C62141   4.571  10.641   8.138  0.4965 -0.0139  0.8355
  461MOL0     C62142   4.676  10.726   8.195  0.3592  0.1604 -0.0311
  461MOL0     C62143   4.692  10.849   8.113  0.0072 -0.0911  0.7102
  461MOL0    Cl62144   4.863  10.910   8.122 -0.6749 -0.2449  0.3923
  461MOL0     C62145   3.730  10.374   8.130  1.2465 -0.0778  0.1268
  461MOL0     C62146   3.594  10.329   8.147 -0.3444 -0.4431  0.0245
  461MOL0     O62147   3.311  10.284   8.084 -0.2566 -0.0493 -0.1657
  461MOL0     C62148   3.213  10.013   8.293  0.4515 -0.2456  0.6254
  461MOL0     C62149   3.105   9.930   8.328 -0.0671  0.1416 -0.0509
  461MOL0     N62150   2.535   9.917   8.130  0.2752 -0.3488 -0.0321
  461MOL0     N62151   2.598   9.975   8.029 -0.8220  0.0405  0.2392
  461MOL0     C62152   3.374  10.194   7.171  0.8918 -0.7294 -0.1622
  461MOL0     C62153   3.488  10.274   7.184  0.1868 -0.5728 -0.5032
  461MOL0     C62154   3.922  10.411   7.155 -1.0488 -0.1566  0.7621
  461MOL0     C62155   4.040  10.390   7.074 -0.0072 -0.1028 -0.2245
  461MOL0     C62156   4.150  10.466   7.094 -0.6892  0.4674  0.2096
  461MOL0     C62157   4.160  10.562   7.203  0.3914  0.2184 -0.4572
  461MOL0     O62158   4.279  10.634   7.224 -0.1641  0.9411 -0.4629
  461MOL0     C62159   4.315  10.671   7.357  0.1375 -0.2697 -0.0878
  461MOL0     C62160   4.463  10.700   7.377  0.7296 -0.1528 -0.1672
  461MOL0     C62161   4.508  10.809   7.286  0.7530 -0.6864 -0.6289
  461MOL0     C62162   4.647  10.855   7.312  0.4670 -0.2152 -1.2077
  461MOL0     C62163   4.686  10.958   7.216  0.6649 -0.8908  0.2513
  461MOL0     C62164   4.694  11.037   7.119  0.2451  0.3671 -0.1411
  461MOL0     C62165   4.042  10.587   7.280  0.4604  1.2618 -0.1192
  461MOL0     C62166   3.929  10.515   7.257 -0.4441  0.2163  0.9274
  461MOL0     C62167   3.817  10.538   7.345  0.6499 -0.0254 -0.1076
  461MOL0     H62168   3.709  10.038   7.282 -0.2210  1.9157  3.3693
  461MOL0     H62169   3.481   9.897   7.271 -1.9925 -0.8812 -1.5515
  461MOL0     H62170   3.180  10.081   7.355 -0.5628 -4.0693  1.9436
  461MOL0     H62171   3.096  10.105   7.195  2.3090 -2.2157 -3.4779
  461MOL0     H62172   3.114   9.825   7.311 -0.4356 -1.1693  1.8511
  461MOL0     H62173   2.981   9.897   7.208 -3.0002  3.4204  1.0857
  461MOL0     H62174   2.920  10.028   7.422 -0.1810 -0.5221  0.9991
  461MOL0     H62175   3.031   9.911   7.501  0.8001 -0.4673 -0.2803
  461MOL0     H62176   2.774   9.873   7.340  0.2020 -1.4780 -0.7124
  461MOL0     H62177   2.893   9.742   7.361  0.3951 -1.0011  2.5241
  461MOL0     H62178   2.737   9.711   7.519 -0.1977  0.2596 -1.9671
  461MOL0     H62179   2.871   9.779   7.615 -0.1296  2.4434 -0.0760
  461MOL0     H62180   2.769  10.017   7.591 -1.6502  0.9823  0.0035
  461MOL0     H62181   2.635   9.953   7.506  0.4589 -0.4639 -0.7118
  461MOL0     H62182   2.601   9.798   7.695 -2.8230  0.9156  0.6456
  461MOL0     H62183   2.567   9.968   7.714  0.8603  1.5580 -3.8237
  461MOL0     H62184   2.828   9.837   7.807 -2.9591 -4.6778 -0.1772
  461MOL0     H62185   2.772  10.007   7.807 -0.4375 -0.1033 -0.8203
  461MOL0     H62186   2.662   9.663   7.961 -1.8788 -1.7238  1.4481
  461MOL0     H62187   2.480   9.740   8.313 -0.6290  0.9788 -0.9827
  461MOL0     H62188   2.488   9.598   8.208  1.4481 -0.3451 -2.2294
  461MOL0     H62189   2.630   9.568   8.393 -0.9490  1.0732  1.1183
  461MOL0     H62190   2.743   9.614   8.263 -0.9804  3.3641 -3.5971
  461MOL0     H62191   2.674   9.734   8.513 -0.8945  0.6348 -0.3470
  461MOL0     H62192   2.653   9.851   8.375 -1.0020 -2.1381 -3.2033
  461MOL0     H62193   2.929   9.721   8.425  0.9327  0.3697 -0.8495
  461MOL0     H62194   2.871   9.868   8.493  0.3225  0.4062 -1.4420
  461MOL0     H62195   2.896  10.038   8.086  1.1671  1.1792 -2.5501
  461MOL0     H62196   3.087  10.179   8.033 -1.0289 -0.2517 -0.6481
  461MOL0     H62197   3.641  10.004   8.167 -1.9150  2.2092  4.7074
  461MOL0     H62198   3.871  10.067   8.082 -0.7725 -0.3119 -0.5549
  461MOL0     H62199   4.005  10.507   8.110 -0.2180  0.9491  2.5591
  461MOL0     H62200   3.982  10.409   8.250  0.4167 -1.0761  0.2369
  461MOL0     H62201   4.185  10.285   8.212 -0.3828 -1.8519 -2.0245
  461MOL0     H62202   4.197  10.335   8.047  1.1416 -4.5640  1.7412
  461MOL0     H62203   4.248  10.578   8.109  0.3369  0.1919 -0.3256
  461MOL0     H62204   4.257  10.524   8.278 -0.1593 -0.4551 -0.1585
  461MOL0     H62205   4.440  10.444   8.053  0.1387 -0.7869  0.6751
  461MOL0     H62206   4.441  10.344   8.188  4.9352  0.2262  0.5102
  461MOL0     H62207   4.578  10.470   8.281 -0.7295  1.0785  1.9557
  461MOL0     H62208   4.461  10.595   8.314  3.7689  2.2138  1.9641
  461MOL0     H62209   4.610  10.593   8.047  0.3239  2.3769 -0.5909
  461MOL0     H62210   4.490  10.702   8.097 -1.3696 -3.4350 -0.9597
  461MOL0     H62211   4.771  10.672   8.185  0.5001  0.0359  1.6131
  461MOL0     H62212   4.653  10.754   8.298 -1.4403 -2.0519  0.2457
  461MOL0     H62213   4.691  10.826   8.006 -1.9607  0.5349  0.5458
  461MOL0     H62214   4.620  10.928   8.133  1.8413  1.9736 -0.4723
  461MOL0     H62215   3.760  10.479   8.124  0.1501  0.2320 -0.1923
  461MOL0     H62216   3.510  10.399   8.150  0.4577  0.5314  2.5715
  461MOL0     H62217   3.296  10.013   8.363  1.6676 -1.3559 -0.7429
  461MOL0     H62218   3.120   9.865   8.413  0.2043  1.1892  0.7248
  461MOL0     H62219   3.280  10.238   7.140  0.9196  0.9551  1.8738
  461MOL0     H62220   3.478  10.377   7.153  0.2204 -1.0414 -2.1628
  461MOL0     H62221   4.028  10.324   6.989 -0.8762  0.2676 -0.4026
  461MOL0     H62222   4.242  10.463   7.037  0.5468 -0.5799  2.1553
  461MOL0     H62223   4.269  10.592   7.417 -0.0918 -0.9150 -1.0923
  461MOL0     H62224   4.261  10.765   7.374 -1.8836 -1.1085 -1.4950
  461MOL0     H62225   4.521  10.614   7.343  0.2419  0.0214 -1.5273
  461MOL0     H62226   4.483  10.705   7.484 -3.5800  0.3927  0.7876
  461MOL0     H62227   4.439  10.894   7.286  0.7972 -0.6123  1.3082
  461MOL0     H62228   4.500  10.767   7.185 -1.9829 -1.1091 -0.2993
  461MOL0     H62229   4.655  10.910   7.406  2.4144 -1.7219 -0.3954
  461MOL0     H62230   4.705  10.762   7.314  0.2982 -0.3257 -1.3752
  461MOL0     H62231   4.709  11.105   7.038 -1.0164 -1.3354 -1.8865
  461MOL0     H62232   4.042  10.664   7.356  1.8895 -0.4591  1.7347
  461MOL0     H62233   3.822  10.643   7.378  0.6325 -0.1342  0.2416
  461MOL0     H62234   3.726  10.534   7.286 -0.1972  1.7009  0.9968
  461MOL0     H62235   3.816  10.472   7.432  1.8626  1.4621  1.1066
  462MOL0     O62236   8.086  10.822   0.972  1.0095  0.6322 -0.1824
  462MOL0     C62237   8.074  10.706   1.019 -0.0603 -0.6579  0.1329
  462MOL0     O62238   8.157  10.608   1.006  0.2990  0.4039  0.4923
  462MOL0     C62239   8.295  10.641   0.999  0.2061  0.3735  0.2821
  462MOL0     C62240   8.378  10.573   0.906 -0.3839 -0.8789  0.3405
  462MOL0     C62241   8.507  10.606   0.896 -0.1456  0.5336  0.7442
  462MOL0     C62242   8.577  10.696   0.983 -1.1269 -0.2986 -0.0434
  462MOL0     O62243   8.705  10.734   0.955  0.1713 -0.9538  0.0940
  462MOL0     C62244   8.751  10.845   1.025  0.5032  0.1828 -0.4703
  462MOL0     C62245   8.900  10.857   0.994  0.4842 -0.0025 -0.3564
  462MOL0     C62246   8.945  11.006   1.031  0.5066  0.0461  0.6504
  462MOL0     C62247   9.091  11.034   1.017  0.6694  0.3890 -0.7166
  462MOL0     C62248   9.113  11.189   1.023 -0.7240 -0.0362 -0.0871
  462MOL0     C62249   9.239  11.240   0.954  0.5885  0.0274 -0.2299
  462MOL0     C62250   9.242  11.391   0.963  0.6818  0.1059  0.6081
  462MOL0     C62251   9.269  11.472   1.089  0.5279 -0.1083  0.2132
  462MOL0     N62252   9.401  11.425   1.139 -0.2201  0.2442 -0.1792
  462MOL0     C62253   9.525  11.440   1.070  0.0484 -0.1452 -0.9213
  462MOL0     C62254   9.620  11.386   1.151  0.7010 -0.8192  0.0887
  462MOL0     C62255   9.762  11.347   1.105 -0.1814  0.4214  0.1365
  462MOL0     C62256   9.829  11.428   1.003  0.2176  0.0610  0.3349
  462MOL0     C62257   9.985  11.432   1.019  0.2196  1.3998 -0.5039
  462MOL0     C62258  10.039  11.495   0.900 -0.0980  0.4924 -0.3295
  462MOL0     O62259  10.180  11.505   0.908 -0.0110  0.6352 -0.4384
  462MOL0     C62260  10.254  11.576   0.815  0.2757 -0.0636  0.3383
  462MOL0     C62261  10.208  11.626   0.695 -0.5279 -1.2946  0.9890
  462MOL0     C62262  10.288  11.702   0.613 -0.4142 -0.0865  0.9263
  462MOL0     C62263  10.427  11.726   0.646 -0.2522  0.8189  0.1251
  462MOL0     C62264  10.518  11.802   0.566  0.4250  0.8496  0.4012
  462MOL0     O62265  10.478  11.807   0.435 -1.0143  0.0110 -0.9825
  462MOL0     C62266  10.563  11.875   0.347 -0.5299 -0.8427 -0.2369
  462MOL0     C62267  10.513  11.977   0.260  0.3872  0.2149 -0.6267
  462MOL0     C62268  10.591  12.030   0.166 -0.8387  0.6494 -0.2908
  462MOL0     C62269  10.727  11.994   0.150  0.3937  0.2434  0.6773
  462MOL0     O62270  10.814  12.050   0.057  0.3563 -0.7549  0.6762
  462MOL0     C62271  10.807  11.993  -0.076  0.1164 -0.5264 -0.0447
  462MOL0     C62272  10.952  11.948  -0.112  0.1362 -0.1157 -0.2061
  462MOL0     C62273  11.058  12.054  -0.131 -0.3182  1.1253 -0.0336
  462MOL0     C62274  11.187  11.984  -0.175  0.5992  0.4347 -0.2296
  462MOL0     C62275  11.314  12.070  -0.144 -0.5914 -0.0280  0.8480
  462MOL0     C62276  11.311  12.203  -0.218 -0.7617 -0.3669 -0.1201
  462MOL0     C62277  11.437  12.292  -0.201  0.9148 -0.2773 -0.4806
  462MOL0     C62278  11.415  12.405  -0.309 -0.4158 -0.1770  0.2123
  462MOL0    Cl62279  11.490  12.352  -0.456  0.3978  0.1350 -0.3670
  462MOL0     C62280  10.774  11.891   0.225  0.1417  0.1835  0.5480
  462MOL0     C62281  10.693  11.828   0.321  1.5354 -0.8248  0.1906
  462MOL0     O62282  10.613  11.860   0.618 -0.1578 -0.3615  1.2615
  462MOL0     C62283  10.474  11.679   0.761  0.0292  0.0663  0.1875
  462MOL0     C62284  10.384  11.607   0.851  0.3525 -0.4327  0.0072
  462MOL0     N62285   9.562  11.347   1.265 -0.1510 -0.2232 -1.0933
  462MOL0     N62286   9.431  11.366   1.257  0.4022  0.3166  0.3767
  462MOL0     C62287   8.497  10.748   1.088  0.4501 -0.1645 -0.6437
  462MOL0     C62288   8.363  10.724   1.090 -0.3552 -0.3606 -0.5636
  462MOL0     C62289   7.947  10.683   1.072 -0.1483 -0.0508 -0.1483
  462MOL0     C62290   7.872  10.581   1.015  0.2651  1.1364  0.9242
  462MOL0     C62291   7.747  10.556   1.066 -0.7504 -0.5751  1.0040
  462MOL0     C62292   7.690  10.636   1.165  0.3722  0.4336 -0.1022
  462MOL0     O62293   7.558  10.617   1.213 -0.2887  0.3077  0.3826
  462MOL0     C62294   7.490  10.713   1.304  0.6935  1.2641 -0.0657
  462MOL0     C62295   7.458  10.851   1.245 -0.7414  1.2438 -0.4348
  462MOL0     C62296   7.333  10.841   1.158  0.1322  0.2000 -0.6695
  462MOL0     C62297   7.359  10.789   1.012 -0.1938  0.3717 -0.4798
  462MOL0     C62298   7.248  10.695   0.973 -0.6356  0.1514  0.5869
  462MOL0     C62299   7.160  10.619   0.940 -0.2455 -0.0589 -0.4957
  462MOL0     C62300   7.766  10.736   1.221 -0.5538 -0.0169  0.0787
  462MOL0     C62301   7.894  10.765   1.175 -0.4116  0.3026 -0.0600
  462MOL0     C62302   7.967  10.881   1.234  0.7104  0.2924  0.6393
  462MOL0     H62303   8.337  10.509   0.828  0.9600 -0.4223 -0.7929
  462MOL0     H62304   8.567  10.558   0.819  0.0907 -0.3413  1.4537
  462MOL0     H62305   8.700  10.936   0.991  3.7101  2.8388  1.2814
  462MOL0     H62306   8.745  10.823   1.132  2.9638  1.4243 -0.0129
  462MOL0     H62307   8.913  10.839   0.887 -0.2280 -0.7770 -0.3250
  462MOL0     H62308   8.967  10.790   1.048  2.6742  2.3846  0.1276
  462MOL0     H62309   8.919  11.040   1.132 -0.3562  0.6676  0.2341
  462MOL0     H62310   8.888  11.068   0.962 -0.8807  0.4637  2.1228
  462MOL0     H62311   9.147  10.972   1.088  0.7166  1.6795  0.4118
  462MOL0     H62312   9.132  10.991   0.925  3.4303 -3.0886  1.8609
  462MOL0     H62313   9.025  11.235   0.978 -2.9185 -4.3570 -0.7976
  462MOL0     H62314   9.122  11.220   1.128  2.7740  0.1540 -0.3153
  462MOL0     H62315   9.324  11.199   1.009  0.3098 -0.0924  0.1223
  462MOL0     H62316   9.240  11.210   0.849 -2.9647 -0.7422 -0.1634
  462MOL0     H62317   9.141  11.421   0.934  0.4483 -0.0193  1.2821
  462MOL0     H62318   9.314  11.426   0.888  0.4855  1.0777  0.8595
  462MOL0     H62319   9.280  11.579   1.070  2.5570 -0.4713 -0.9437
  462MOL0     H62320   9.188  11.471   1.163 -0.8770  2.5619 -1.1045
  462MOL0     H62321   9.552  11.478   0.972 -2.7378  2.4977 -0.8249
  462MOL0     H62322   9.811  11.348   1.203 -0.3946 -1.3297  0.2806
  462MOL0     H62323   9.757  11.247   1.062 -1.6043  0.2822  0.5673
  462MOL0     H62324   9.798  11.399   0.902  1.9431 -0.4252 -0.0779
  462MOL0     H62325   9.794  11.531   1.020  1.4201  0.7167 -1.0324
  462MOL0     H62326  10.036  11.336   1.033 -2.7925 -0.5972 -2.1048
  462MOL0     H62327  10.008  11.483   1.113 -1.8560 -0.6616  1.2492
  462MOL0     H62328  10.005  11.599   0.898  0.9504  0.9115  1.6311
  462MOL0     H62329  10.001  11.448   0.808 -0.4416 -1.5012  0.7823
  462MOL0     H62330  10.113  11.597   0.652 -0.2759  0.7164 -1.0892
  462MOL0     H62331  10.252  11.736   0.517  0.4824  0.0215  0.6159
  462MOL0     H62332  10.408  12.003   0.273  0.3976  0.1618 -0.4411
  462MOL0     H62333  10.546  12.099   0.096 -1.9753 -0.6664 -0.9129
  462MOL0     H62334  10.751  11.900  -0.089  2.0698 -1.4715 -2.2853
  462MOL0     H62335  10.770  12.066  -0.148 -1.3011 -2.4029 -1.3255
  462MOL0     H62336  10.982  11.872  -0.039  0.8379  1.6066  1.3716
  462MOL0     H62337  10.947  11.896  -0.209 -0.9962 -0.0836 -0.1781
  462MOL0     H62338  11.018  12.119  -0.209 -0.9995 -0.9626 -1.5126
  462MOL0     H62339  11.076  12.117  -0.043  0.5696  1.1116 -0.1939
  462MOL0     H62340  11.179  11.965  -0.283  0.7362 -2.1504  0.1468
  462MOL0     H62341  11.204  11.889  -0.123 -0.2992  1.5042  2.1799
  462MOL0     H62342  11.402  12.012  -0.173 -1.3246 -1.1962  0.9288
  462MOL0     H62343  11.321  12.074  -0.035  3.0321 -0.8460  0.7749
  462MOL0     H62344  11.299  12.189  -0.326  3.0654  0.3867 -0.7965
  462MOL0     H62345  11.236  12.259  -0.163  0.6830 -1.0366  2.7203
  462MOL0     H62346  11.539  12.255  -0.206  1.2740 -0.0256  2.7608
  462MOL0     H62347  11.433  12.331  -0.099 -2.3403  2.7327 -1.5648
  462MOL0     H62348  11.309  12.428  -0.326 -0.7303 -2.3235 -1.0635
  462MOL0     H62349  11.468  12.499  -0.289 -1.1282  0.1350  0.6756
  462MOL0     H62350  10.874  11.851   0.209  0.1936  0.7701 -0.7365
  462MOL0     H62351  10.727  11.746   0.382  1.9255 -0.1621  0.8840
  462MOL0     H62352  10.577  11.691   0.793  0.1632 -0.8123  0.1240
  462MOL0     H62353  10.435  11.563   0.937  1.8571 -1.0480 -1.1501
  462MOL0     H62354   8.528  10.832   1.149 -0.7622  0.4516 -0.8527
  462MOL0     H62355   8.298  10.766   1.165 -0.2513  0.7379 -1.0699
  462MOL0     H62356   7.914  10.519   0.937  1.0537 -0.1745  2.3269
  462MOL0     H62357   7.678  10.477   1.037 -0.3166  0.0210 -2.0019
  462MOL0     H62358   7.550  10.730   1.394  0.0697 -0.9011  0.8312
  462MOL0     H62359   7.399  10.659   1.331  1.5444  0.8652  2.2559
  462MOL0     H62360   7.537  10.894   1.184  0.5151 -0.6365 -0.1812
  462MOL0     H62361   7.434  10.916   1.330 -0.6920  1.4654 -0.5901
  462MOL0     H62362   7.270  10.930   1.146 -0.9963 -0.7874 -2.5481
  462MOL0     H62363   7.254  10.776   1.196 -0.8934 -0.7501 -4.0401
  462MOL0     H62364   7.368  10.871   0.941  0.4428  0.2727 -0.5168
  462MOL0     H62365   7.453  10.732   1.007 -0.3567 -0.0066  0.5164
  462MOL0     H62366   7.077  10.561   0.906 -0.5081  1.0302 -1.8078
  462MOL0     H62367   7.725  10.803   1.295  2.2568 -0.1170  1.8907
  462MOL0     H62368   8.074  10.858   1.232  0.5810 -0.3043 -0.5727
  462MOL0     H62369   7.942  10.956   1.159  2.1947  1.0181  0.8333
  462MOL0     H62370   7.925  10.895   1.334 -1.5260 -2.7205  0.2572
  463MOL0     O62371   2.604  11.025   4.441  0.7287 -0.7179  0.5006
  463MOL0     C62372   2.536  10.934   4.491  0.2961  0.3887 -0.9892
  463MOL0     O62373   2.586  10.815   4.518 -0.3052  0.3604  0.2327
  463MOL0     C62374   2.725  10.791   4.520  0.0163 -0.5884  1.1986
  463MOL0     C62375   2.822  10.864   4.582 -0.2551 -0.1257 -0.5878
  463MOL0     C62376   2.951  10.832   4.573 -1.0656  0.2670  0.2721
  463MOL0     C62377   2.997  10.720   4.506  0.4844 -1.0268  0.4981
  463MOL0     O62378   3.131  10.684   4.493 -0.6479  0.2659 -0.8448
  463MOL0     C62379   3.236  10.737   4.571  1.0305  0.1418  0.2434
  463MOL0     C62380   3.359  10.656   4.561 -0.0660  0.4500 -0.7530
  463MOL0     C62381   3.380  10.600   4.422  0.3045  0.0746  0.6245
  463MOL0     C62382   3.411  10.722   4.320 -0.8150 -0.0031 -0.7622
  463MOL0     C62383   3.564  10.768   4.343  0.6134 -0.7551  0.2950
  463MOL0     C62384   3.590  10.863   4.218 -0.2843  0.5526  0.0555
  463MOL0     C62385   3.733  10.925   4.234 -0.3914 -0.2242  0.1019
  463MOL0     C62386   3.835  10.827   4.193  0.2110 -0.1271 -0.4815
  463MOL0     N62387   3.969  10.871   4.181 -0.9183  0.6221 -0.3673
  463MOL0     C62388   4.038  10.906   4.070  0.0725  1.0658  0.2685
  463MOL0     C62389   4.152  10.964   4.115  0.1217  0.5581 -0.5874
  463MOL0     C62390   4.267  11.030   4.034  0.2651 -0.4393 -0.1455
  463MOL0     C62391   4.386  11.096   4.106  0.0390  1.1849  0.3868
  463MOL0     C62392   4.340  11.209   4.205  0.0746 -0.2687 -0.6431
  463MOL0     C62393   4.328  11.345   4.127 -0.5819  0.6403  0.2584
  463MOL0     O62394   4.349  11.442   4.226  0.2649 -0.3967 -0.5574
  463MOL0     C62395   4.445  11.537   4.202 -1.3289 -0.0014  0.2913
  463MOL0     C62396   4.424  11.639   4.103  0.3038  0.3921  0.1311
  463MOL0     C62397   4.522  11.735   4.068 -0.9073  0.1995 -0.4950
  463MOL0     C62398   4.645  11.720   4.130  0.2217 -0.0830  0.0615
  463MOL0     C62399   4.753  11.816   4.080 -0.6116  0.9024  0.3016
  463MOL0     O62400   4.731  11.888   3.973 -0.3575 -0.7108 -0.0082
  463MOL0     C62401   4.819  11.977   3.915 -0.1412 -0.0053 -0.0897
  463MOL0     C62402   4.776  12.031   3.804 -0.3930  0.7804  0.0982
  463MOL0     C62403   4.844  12.141   3.734 -0.1616  0.5541 -0.2370
  463MOL0     C62404   4.967  12.196   3.785  0.7040  1.2725  0.2348
  463MOL0     O62405   5.040  12.294   3.724 -0.5180 -0.1064 -0.0046
  463MOL0     C62406   4.984  12.357   3.612 -0.2641 -0.2320 -0.1546
  463MOL0     C62407   5.048  12.492   3.572 -0.7937  0.0580  0.2057
  463MOL0     C62408   5.002  12.550   3.436 -0.9236  0.4967  0.6754
  463MOL0     C62409   4.881  12.644   3.451 -1.0584  0.2811 -0.6378
  463MOL0     C62410   4.806  12.653   3.319 -0.3347  0.4726 -0.0155
  463MOL0     C62411   4.886  12.723   3.212  0.0978 -0.5668 -0.1120
  463MOL0     C62412   4.792  12.773   3.107  0.5988 -0.2698  0.3325
  463MOL0     C62413   4.845  12.863   3.000  0.5353  0.7954 -0.3007
  463MOL0    Cl62414   5.028  12.861   2.969 -0.1765 -0.2758  0.5780
  463MOL0     C62415   5.011  12.142   3.910  0.6101 -0.0050  0.7795
  463MOL0     C62416   4.927  12.042   3.974  0.3897 -0.3050  0.1035
  463MOL0     O62417   4.862  11.814   4.145 -1.6651 -0.3662 -0.0557
  463MOL0     C62418   4.674  11.623   4.227  1.4579  0.7544  0.7432
  463MOL0     C62419   4.568  11.535   4.273  0.4446  1.2162  0.1235
  463MOL0     N62420   4.156  10.962   4.252  0.5343  0.1969 -0.2607
  463MOL0     N62421   4.044  10.906   4.292  0.0434 -0.0174  0.6793
  463MOL0     C62422   2.901  10.643   4.440  0.3498  0.3562  0.2472
  463MOL0     C62423   2.762  10.671   4.456  0.1364 -0.0788 -0.0823
  463MOL0     C62424   2.399  10.974   4.511  0.1763  0.1310 -0.6159
  463MOL0     C62425   2.377  11.116   4.515  0.5626  0.1667  0.1113
  463MOL0     C62426   2.243  11.162   4.487 -0.1957 -0.3185 -0.2350
  463MOL0     C62427   2.139  11.074   4.471 -0.6993 -0.1496  1.1473
  463MOL0     O62428   2.027  11.118   4.419  0.4395  0.1141  0.5572
  463MOL0     C62429   1.945  11.198   4.502 -0.1030  0.2290  0.4476
  463MOL0     C62430   1.827  11.242   4.425 -0.0303 -0.1079 -0.4732
  463MOL0     C62431   1.714  11.272   4.511 -0.2222 -0.0299 -0.4735
  463MOL0     C62432   1.603  11.339   4.425 -0.7501  0.1466  0.3639
  463MOL0     C62433   1.475  11.327   4.491 -0.1196 -0.7113 -0.4429
  463MOL0     C62434   1.364  11.341   4.538 -0.2255 -0.4136  0.0519
  463MOL0     C62435   2.165  10.933   4.483 -0.3168 -0.1747  0.2302
  463MOL0     C62436   2.291  10.882   4.506 -0.3399  0.4715  0.4905
  463MOL0     C62437   2.307  10.736   4.530 -0.5286  0.9140 -0.0654
  463MOL0     H62438   2.800  10.938   4.659 -0.6267 -0.8230 -0.0115
  463MOL0     H62439   3.017  10.896   4.631 -1.9817 -0.7867  2.5973
  463MOL0     H62440   3.251  10.840   4.538 -0.7044  0.2073 -0.4480
  463MOL0     H62441   3.211  10.733   4.677 -0.2415  0.7334 -0.0239
  463MOL0     H62442   3.370  10.571   4.628  3.4643  1.6164  0.3672
  463MOL0     H62443   3.449  10.715   4.581  2.3251 -3.0963 -0.1595
  463MOL0     H62444   3.297  10.537   4.389  0.4995 -1.0576  2.2005
  463MOL0     H62445   3.464  10.531   4.424 -0.4335 -0.9108 -0.5436
  463MOL0     H62446   3.390  10.677   4.222 -0.1397 -1.4285 -0.2791
  463MOL0     H62447   3.340  10.804   4.333 -0.6745  0.7091 -3.6680
  463MOL0     H62448   3.570  10.821   4.439 -0.7122 -0.4284  0.2157
  463MOL0     H62449   3.628  10.680   4.347 -2.0795 -3.0409 -1.9965
  463MOL0     H62450   3.589  10.799   4.129  2.0671 -0.9632  1.0105
  463MOL0     H62451   3.512  10.939   4.210 -2.7909 -1.9155 -0.5252
  463MOL0     H62452   3.753  10.960   4.336 -1.4444 -2.5228  1.1961
  463MOL0     H62453   3.738  11.013   4.170 -0.4813 -1.3578 -1.5308
  463MOL0     H62454   3.829  10.733   4.249 -1.3515  1.0085  1.4063
  463MOL0     H62455   3.805  10.806   4.090 -1.2366  0.8911 -0.3025
  463MOL0     H62456   4.014  10.892   3.965 -1.0781  1.5023  0.4635
  463MOL0     H62457   4.312  10.961   3.962 -2.7907 -0.4602 -2.2348
  463MOL0     H62458   4.215  11.104   3.971  1.8887  1.9467  1.1600
  463MOL0     H62459   4.426  11.013   4.166 -1.2796 -0.7665 -1.2667
  463MOL0     H62460   4.463  11.121   4.033  0.5983 -1.6971 -0.1584
  463MOL0     H62461   4.414  11.223   4.284 -1.1631 -0.5519  0.6004
  463MOL0     H62462   4.241  11.191   4.247  0.2654 -2.3090 -0.9442
  463MOL0     H62463   4.235  11.367   4.073  1.4495  0.4038 -3.6888
  463MOL0     H62464   4.399  11.354   4.045 -2.2012  1.0481 -1.1542
  463MOL0     H62465   4.333  11.652   4.047 -0.2126  1.1776  1.1091
  463MOL0     H62466   4.509  11.810   3.991  0.4288  0.7550 -0.2068
  463MOL0     H62467   4.681  12.003   3.759 -0.0323  2.0392 -1.5417
  463MOL0     H62468   4.800  12.173   3.640  0.7937 -0.8723 -1.2147
  463MOL0     H62469   5.008  12.288   3.531  0.4994 -1.3404  0.9613
  463MOL0     H62470   4.877  12.377   3.620 -0.4445 -0.1153 -2.3226
  463MOL0     H62471   5.019  12.579   3.633  0.4135  0.0839  0.7850
  463MOL0     H62472   5.155  12.482   3.596  0.1584  1.8475 -2.7648
  463MOL0     H62473   5.090  12.601   3.395 -0.4347 -0.0070  1.0953
  463MOL0     H62474   4.970  12.462   3.379 -0.9110  0.9926 -0.1092
  463MOL0     H62475   4.906  12.742   3.493  1.5209 -0.0836 -1.1166
  463MOL0     H62476   4.805  12.612   3.523 -0.5803  1.9495  0.6806
  463MOL0     H62477   4.712  12.699   3.349 -0.0143  0.6162  0.8076
  463MOL0     H62478   4.776  12.552   3.293  0.5447 -0.1143  1.1622
  463MOL0     H62479   4.925  12.820   3.245 -0.9708  0.5610 -1.9499
  463MOL0     H62480   4.966  12.650   3.195  0.1830 -0.8127  1.2273
  463MOL0     H62481   4.707  12.822   3.154  1.6383  2.6152 -0.5503
  463MOL0     H62482   4.761  12.679   3.061  2.2316 -0.2104 -1.0276
  463MOL0     H62483   4.782  12.840   2.914  1.2507  2.3951 -1.3045
  463MOL0     H62484   4.818  12.965   3.029  0.0116 -0.5669  5.1985
  463MOL0     H62485   5.106  12.172   3.952  1.4819 -1.2275 -0.2650
  463MOL0     H62486   4.963  11.999   4.067 -2.6442  0.1126  1.5625
  463MOL0     H62487   4.775  11.621   4.268  1.6295 -2.2683  0.4274
  463MOL0     H62488   4.587  11.456   4.345 -1.4637  1.1446  0.6011
  463MOL0     H62489   2.933  10.566   4.370  0.5434 -0.8847  1.6533
  463MOL0     H62490   2.678  10.626   4.403 -1.9465  1.2693  1.8690
  463MOL0     H62491   2.447  11.197   4.497  0.1443 -0.0829 -3.2264
  463MOL0     H62492   2.232  11.267   4.462  0.0426  0.2012  1.7007
  463MOL0     H62493   1.998  11.282   4.548  0.2897 -0.7365  1.8197
  463MOL0     H62494   1.910  11.143   4.590  0.3766  2.5797  2.2251
  463MOL0     H62495   1.798  11.171   4.347 -1.4412  1.9782 -1.9615
  463MOL0     H62496   1.873  11.326   4.372  0.6414  1.0694  1.8227
  463MOL0     H62497   1.752  11.349   4.580 -1.2896  2.0064 -2.0426
  463MOL0     H62498   1.677  11.179   4.556 -1.0239 -0.0572 -1.1698
  463MOL0     H62499   1.622  11.444   4.401 -0.1863 -0.0857 -0.2438
  463MOL0     H62500   1.602  11.294   4.325  2.2155  1.1479 -0.2214
  463MOL0     H62501   1.271  11.368   4.581 -0.1139  1.1321 -0.6024
  463MOL0     H62502   2.071  10.879   4.474  0.5445 -1.5292 -0.9425
  463MOL0     H62503   2.215  10.685   4.561 -0.3882  2.2260  2.9057
  463MOL0     H62504   2.339  10.684   4.440  0.8074 -0.0561  0.9378
  463MOL0     H62505   2.375  10.729   4.615  0.2513 -1.3290 -0.7987
  464MOL0     O62506   9.496  11.407   8.502 -0.2269 -0.1560  0.2764
  464MOL0     C62507   9.401  11.332   8.515 -1.2264  0.1167  0.2700
  464MOL0     O62508   9.380  11.221   8.439  0.1074  0.0859  0.1718
  464MOL0     C62509   9.469  11.179   8.349 -0.1002  0.6849 -0.0653
  464MOL0     C62510   9.542  11.056   8.370  0.4249  0.4593 -0.6032
  464MOL0     C62511   9.632  11.018   8.266  0.5399  1.4642  0.3071
  464MOL0     C62512   9.657  11.093   8.151  0.9666 -0.6275 -0.4107
  464MOL0     O62513   9.751  11.053   8.064  0.0442 -0.1422 -0.0381
  464MOL0     C62514   9.852  11.154   8.030 -0.7078 -0.2583  0.6748
  464MOL0     C62515   9.975  11.085   7.972 -0.6223  0.1456 -1.0213
  464MOL0     C62516  10.094  11.185   7.950  0.0191  0.0486  1.0453
  464MOL0     C62517  10.231  11.114   7.924  0.0924 -0.2972  0.1647
  464MOL0     C62518  10.345  11.212   7.908  0.1050 -0.4380  0.8574
  464MOL0     C62519  10.494  11.143   7.888 -0.5548 -0.6365 -0.2400
  464MOL0     C62520  10.554  11.190   7.760 -0.2440 -0.5258  0.2278
  464MOL0     C62521  10.690  11.139   7.743 -0.1853  0.0630 -0.3152
  464MOL0     N62522  10.733  11.137   7.601  0.0756  1.3569 -0.0423
  464MOL0     C62523  10.857  11.185   7.558  0.6464  0.4469 -0.1809
  464MOL0     C62524  10.858  11.147   7.431  0.0196 -0.1209  0.6860
  464MOL0     C62525  10.966  11.177   7.337 -0.7587  1.1419 -0.5729
  464MOL0     C62526  11.006  11.333   7.344  1.1488  0.1545 -0.6351
  464MOL0     C62527  11.103  11.368   7.235  0.2677  0.6558  0.5488
  464MOL0     C62528  11.100  11.516   7.203 -0.5731  0.2407  0.1842
  464MOL0     O62529  11.181  11.586   7.307 -0.5135  0.7281 -0.3356
  464MOL0     C62530  11.317  11.585   7.284 -1.2025  0.4544  0.3451
  464MOL0     C62531  11.393  11.565   7.158  0.1304  0.7942 -0.2028
  464MOL0     C62532  11.533  11.576   7.159  0.2843 -0.0084 -0.3882
  464MOL0     C62533  11.604  11.590   7.275  0.8057  0.0056 -0.6786
  464MOL0     C62534  11.753  11.597   7.276  0.4096 -0.2587  0.4844
  464MOL0     O62535  11.819  11.599   7.396 -0.7505  0.3519 -0.2753
  464MOL0     C62536  11.951  11.601   7.419 -0.3439 -1.1113 -0.3176
  464MOL0     C62537  12.063  11.570   7.336  0.0768 -0.0909 -0.1260
  464MOL0     C62538  12.197  11.580   7.382 -0.3054  0.9172  1.0943
  464MOL0     C62539  12.224  11.614   7.517  0.8282 -0.2252  0.1068
  464MOL0     O62540  12.346  11.636   7.568  0.6871  0.4329 -0.6524
  464MOL0     C62541  12.451  11.573   7.500 -0.3757 -0.1706 -0.2444
  464MOL0     C62542  12.588  11.566   7.574  0.3627 -0.1711  0.5723
  464MOL0     C62543  12.648  11.704   7.587 -0.7985 -0.8372 -0.1587
  464MOL0     C62544  12.609  11.769   7.720 -0.3004 -0.5496  0.6170
  464MOL0     C62545  12.661  11.917   7.735  0.9395 -0.2661 -1.1617
  464MOL0     C62546  12.807  11.939   7.696 -0.0403  0.4631  0.1584
  464MOL0     C62547  12.901  11.837   7.762  0.3101  0.1368 -0.1578
  464MOL0     C62548  13.054  11.861   7.732 -0.5648  0.2116 -0.9051
  464MOL0    Cl62549  13.100  11.822   7.565  0.3423 -0.4840  0.0164
  464MOL0     C62550  12.111  11.632   7.601  0.3188  0.3703  0.2956
  464MOL0     C62551  11.980  11.619   7.559 -0.3476 -0.2999 -0.0530
  464MOL0     O62552  11.803  11.599   7.167  0.2074  0.3872 -0.1315
  464MOL0     C62553  11.534  11.606   7.392  0.3812 -0.0402 -0.2009
  464MOL0     C62554  11.392  11.602   7.395  0.7586  0.2459  0.7475
  464MOL0     N62555  10.746  11.077   7.389  0.0400 -0.6863 -0.0493
  464MOL0     N62556  10.666  11.082   7.495  0.2813  0.5981 -0.1088
  464MOL0     C62557   9.579  11.213   8.134  0.6587 -0.9181 -0.2758
  464MOL0     C62558   9.486  11.253   8.228  0.5888  0.1712 -0.0330
  464MOL0     C62559   9.304  11.358   8.620 -0.7265 -0.0786  0.8781
  464MOL0     C62560   9.186  11.290   8.601  0.4004 -0.0864 -0.3977
  464MOL0     C62561   9.084  11.316   8.692 -0.0873  0.1781  0.1775
  464MOL0     C62562   9.086  11.420   8.784  0.6397  0.0792  0.3277
  464MOL0     O62563   8.981  11.462   8.858  0.4540 -0.1534 -0.3780
  464MOL0     C62564   8.856  11.392   8.844 -0.0179 -0.3208 -0.0265
  464MOL0     C62565   8.845  11.258   8.920  0.1414 -0.0288 -0.3206
  464MOL0     C62566   8.725  11.181   8.876  0.7203  0.0819  1.0707
  464MOL0     C62567   8.595  11.254   8.871 -0.2102 -0.2842 -0.3636
  464MOL0     C62568   8.485  11.153   8.839 -1.0044  0.2950 -0.0188
  464MOL0     C62569   8.398  11.081   8.801  0.1661 -0.7888  0.1744
  464MOL0     C62570   9.211  11.485   8.801  0.5407 -1.0407  0.6532
  464MOL0     C62571   9.321  11.454   8.721 -0.7925  1.1395  0.5319
  464MOL0     C62572   9.452  11.514   8.765  0.0552  0.0317 -0.4350
  464MOL0     H62573   9.521  11.000   8.461 -1.5389 -0.6949 -1.7125
  464MOL0     H62574   9.698  10.937   8.292  0.3148  1.4399  0.8116
  464MOL0     H62575   9.815  11.221   7.952 -0.1738 -1.3300 -0.5631
  464MOL0     H62576   9.893  11.208   8.115 -2.1849 -0.0114  1.2476
  464MOL0     H62577   9.956  11.021   7.886 -0.2724 -1.3638 -0.0053
  464MOL0     H62578   9.996  11.008   8.047 -1.5447 -0.8042 -1.7134
  464MOL0     H62579  10.106  11.244   8.041  3.1649  3.2090 -1.1735
  464MOL0     H62580  10.075  11.257   7.870 -0.3628 -0.7663  0.3867
  464MOL0     H62581  10.253  11.047   8.007 -1.1856  1.1153  1.7212
  464MOL0     H62582  10.228  11.067   7.826  1.6387  0.1330 -0.1238
  464MOL0     H62583  10.314  11.281   7.829 -0.1106 -0.5712  0.8242
  464MOL0     H62584  10.344  11.271   7.999 -2.9814  3.0833 -1.1857
  464MOL0     H62585  10.555  11.178   7.973  1.3654  1.3553 -2.2887
  464MOL0     H62586  10.469  11.037   7.886  0.6078 -0.9222 -1.4258
  464MOL0     H62587  10.549  11.300   7.755  1.2316 -0.5069 -2.3805
  464MOL0     H62588  10.476  11.151   7.695 -0.4278  1.6980 -1.0083
  464MOL0     H62589  10.754  11.218   7.784 -1.1320 -0.0334  1.4573
  464MOL0     H62590  10.707  11.046   7.799 -1.3146 -0.2808 -0.5292
  464MOL0     H62591  10.939  11.235   7.609  0.2081 -0.3626  1.3873
  464MOL0     H62592  11.047  11.112   7.372 -0.3509  0.6963 -2.2206
  464MOL0     H62593  10.950  11.138   7.236  2.1431 -0.6845 -0.4779
  464MOL0     H62594  10.917  11.397   7.334  1.9394  1.2117 -1.0011
  464MOL0     H62595  11.047  11.353   7.443 -1.5602  0.2326  0.5845
  464MOL0     H62596  11.075  11.315   7.144 -0.7729 -0.3632  1.4335
  464MOL0     H62597  11.202  11.325   7.257 -0.2273 -2.8027 -2.7402
  464MOL0     H62598  10.995  11.547   7.201 -0.3847  0.9663  0.7817
  464MOL0     H62599  11.139  11.540   7.103  2.0400 -3.1324  0.2157
  464MOL0     H62600  11.334  11.551   7.068 -1.4474  1.2938  0.7058
  464MOL0     H62601  11.585  11.565   7.064 -1.1331  1.0203 -1.3110
  464MOL0     H62602  12.070  11.529   7.235 -2.2621  2.4097 -1.4368
  464MOL0     H62603  12.281  11.571   7.314 -0.3505 -1.6832  1.2699
  464MOL0     H62604  12.430  11.473   7.459 -0.0656  0.0195 -0.8810
  464MOL0     H62605  12.465  11.633   7.410  1.2326  1.1894  0.8618
  464MOL0     H62606  12.568  11.530   7.676 -2.1249 -0.4612  0.0648
  464MOL0     H62607  12.651  11.490   7.528 -0.7161 -0.5542 -0.3376
  464MOL0     H62608  12.757  11.697   7.584 -0.6026  1.1982  1.0091
  464MOL0     H62609  12.616  11.758   7.497 -0.2705 -3.0806 -1.8192
  464MOL0     H62610  12.672  11.717   7.793 -1.2188  1.4315  2.9785
  464MOL0     H62611  12.503  11.755   7.743  0.0648 -1.6068  1.7659
  464MOL0     H62612  12.646  11.936   7.842 -0.7482 -0.4182 -1.3486
  464MOL0     H62613  12.599  11.989   7.681 -0.7664  3.2654  4.6110
  464MOL0     H62614  12.824  11.917   7.590  0.4445 -2.4168  0.7656
  464MOL0     H62615  12.837  12.043   7.714 -1.0360  0.5026  1.7462
  464MOL0     H62616  12.884  11.736   7.726  0.7920 -0.6092  1.6086
  464MOL0     H62617  12.896  11.843   7.871  0.8396 -3.2246  0.1388
  464MOL0     H62618  13.069  11.964   7.764  0.1840 -0.7597  2.3279
  464MOL0     H62619  13.117  11.800   7.798 -0.7162 -0.2911 -1.2167
  464MOL0     H62620  12.125  11.660   7.705 -1.0375  0.6229  0.4290
  464MOL0     H62621  11.896  11.643   7.623  0.1296 -2.6439  1.6095
  464MOL0     H62622  11.580  11.609   7.490  2.5537  0.7956 -1.1864
  464MOL0     H62623  11.352  11.629   7.493  1.2141  2.1377  0.4593
  464MOL0     H62624   9.581  11.274   8.044  2.7562 -0.5398 -0.0173
  464MOL0     H62625   9.428  11.335   8.189  0.4321 -0.7890 -1.9144
  464MOL0     H62626   9.166  11.228   8.514 -1.1586  2.3970 -1.9111
  464MOL0     H62627   8.989  11.279   8.654  0.9809  0.7553 -3.3637
  464MOL0     H62628   8.840  11.373   8.737  4.9349 -2.3960 -0.6819
  464MOL0     H62629   8.770  11.453   8.871  0.1235 -0.0763 -0.1245
  464MOL0     H62630   8.848  11.276   9.028 -0.7876 -0.6139 -0.1811
  464MOL0     H62631   8.939  11.209   8.892 -0.6345 -0.4315 -2.4030
  464MOL0     H62632   8.723  11.088   8.933 -1.1193  0.1689  1.2010
  464MOL0     H62633   8.737  11.144   8.774  4.9291  0.0368  1.3774
  464MOL0     H62634   8.568  11.308   8.962 -2.2053  2.3535 -2.3367
  464MOL0     H62635   8.601  11.325   8.787  0.1553 -0.6198 -0.6244
  464MOL0     H62636   8.308  11.028   8.775  0.6128 -2.0667  1.1097
  464MOL0     H62637   9.229  11.564   8.873  1.7579  0.5697 -1.3080
  464MOL0     H62638   9.533  11.443   8.784 -0.4059 -0.2990  0.3687
  464MOL0     H62639   9.490  11.580   8.686 -0.5260  1.6072  0.5378
  464MOL0     H62640   9.442  11.571   8.858 -1.3342  1.4843 -1.4199
  465MOL0     O62641   3.853   1.899   4.649 -0.3064  0.2950 -0.5213
  465MOL0     C62642   3.802   1.973   4.568 -0.3643  0.9565  1.1393
  465MOL0     O62643   3.870   2.020   4.455  0.3421 -0.0027 -0.2136
  465MOL0     C62644   4.003   2.021   4.439  0.6700 -1.1138 -0.3972
  465MOL0     C62645   4.047   2.024   4.307  1.0731  0.3762 -0.9975
  465MOL0     C62646   4.186   2.040   4.287  0.0813 -0.7982 -0.4414
  465MOL0     C62647   4.274   2.062   4.397  0.8540  0.0948 -0.6715
  465MOL0     O62648   4.404   2.080   4.360  0.8780 -0.1459 -1.0721
  465MOL0     C62649   4.498   2.109   4.464 -0.7616  0.7711  0.3603
  465MOL0     C62650   4.638   2.126   4.397 -0.2728 -0.1918  0.5207
  465MOL0     C62651   4.748   2.101   4.500  0.1166 -0.3035  0.0066
  465MOL0     C62652   4.755   2.202   4.619  0.3073  0.2606 -0.2909
  465MOL0     C62653   4.882   2.180   4.701 -0.4697  0.5554  0.8416
  465MOL0     C62654   4.999   2.259   4.626  0.5907 -0.0524 -0.6405
  465MOL0     C62655   5.142   2.245   4.701  0.3314  0.5651 -0.8357
  465MOL0     C62656   5.222   2.136   4.630 -0.1163 -0.4282 -0.2750
  465MOL0     N62657   5.357   2.122   4.694  1.3192  0.3715 -0.7124
  465MOL0     C62658   5.427   2.005   4.715  0.3703 -0.1494 -0.2572
  465MOL0     C62659   5.535   2.041   4.774 -0.1016 -0.4748  0.1297
  465MOL0     C62660   5.639   1.948   4.822 -0.1134 -0.5408  0.1297
  465MOL0     C62661   5.727   1.910   4.711  0.3158  0.4379 -0.4560
  465MOL0     C62662   5.835   1.823   4.769 -0.5647  0.0728 -0.4464
  465MOL0     C62663   5.931   1.765   4.661  0.5953 -0.0615  0.3889
  465MOL0     O62664   6.033   1.692   4.725  0.1168 -0.2497  0.6798
  465MOL0     C62665   6.137   1.648   4.647  0.6036  0.4867 -0.6003
  465MOL0     C62666   6.231   1.564   4.710 -0.5621 -0.2296  0.4484
  465MOL0     C62667   6.329   1.496   4.640  0.6839 -0.0129 -0.0125
  465MOL0     C62668   6.360   1.527   4.509  0.9464  0.0025 -0.6753
  465MOL0     C62669   6.471   1.460   4.428  0.2737 -0.9480 -0.2766
  465MOL0     O62670   6.523   1.354   4.486  0.2568  0.6037  0.3033
  465MOL0     C62671   6.623   1.278   4.418 -0.7033 -0.9312  0.1566
  465MOL0     C62672   6.609   1.147   4.376 -0.1562 -0.3636 -0.1723
  465MOL0     C62673   6.704   1.089   4.288  0.7862 -0.0532 -0.1322
  465MOL0     C62674   6.816   1.161   4.253 -0.0482  0.4611  0.9038
  465MOL0     O62675   6.921   1.103   4.185 -0.6076 -0.3998 -0.0121
  465MOL0     C62676   6.885   1.074   4.047 -0.7322 -0.3841 -0.1862
  465MOL0     C62677   6.929   0.930   4.015  0.5337  0.5166  0.4907
  465MOL0     C62678   7.077   0.935   4.002 -0.3348  0.0939 -0.2926
  465MOL0     C62679   7.126   0.787   4.002 -0.3447  0.3865 -0.2145
  465MOL0     C62680   7.155   0.739   4.142  0.0133 -0.5241  0.4614
  465MOL0     C62681   7.255   0.624   4.132  0.2837  0.3292 -0.6393
  465MOL0     C62682   7.208   0.499   4.053 -0.2135 -0.8404 -0.5010
  465MOL0     C62683   7.295   0.372   4.082 -0.4513  0.1399  1.5417
  465MOL0    Cl62684   7.291   0.305   4.251 -0.2705 -0.1686  0.2387
  465MOL0     C62685   6.839   1.286   4.311  0.5238 -1.0287 -0.0862
  465MOL0     C62686   6.737   1.348   4.381  0.2394 -0.2038  0.2155
  465MOL0     O62687   6.499   1.503   4.317 -0.4678  0.6710 -0.7280
  465MOL0     C62688   6.283   1.630   4.454  0.0931 -0.4934 -1.1048
  465MOL0     C62689   6.168   1.682   4.518 -0.0089 -0.1349 -0.0276
  465MOL0     N62690   5.536   2.172   4.792 -0.0190 -0.3569 -0.7158
  465MOL0     N62691   5.427   2.223   4.755 -0.0978 -0.2767 -0.2588
  465MOL0     C62692   4.223   2.077   4.527 -0.0385 -0.2296 -0.3963
  465MOL0     C62693   4.093   2.051   4.545 -0.4869 -0.1097 -0.1530
  465MOL0     C62694   3.655   2.006   4.582  0.4735 -0.6338  0.2441
  465MOL0     C62695   3.594   1.979   4.703  0.3419  0.1121 -0.2233
  465MOL0     C62696   3.460   2.007   4.728  0.4228  0.4596  0.6757
  465MOL0     C62697   3.377   2.071   4.631 -0.2469  0.7394  0.0808
  465MOL0     O62698   3.246   2.098   4.641  0.9859  0.1710  0.7436
  465MOL0     C62699   3.181   2.095   4.766 -0.7535  0.1419 -0.1315
  465MOL0     C62700   3.049   2.180   4.771 -0.3962  0.4836  0.4365
  465MOL0     C62701   3.079   2.326   4.750  0.1944  0.0271  0.0026
  465MOL0     C62702   2.942   2.403   4.769 -0.2355  0.9073  0.8028
  465MOL0     C62703   2.888   2.391   4.905  0.8561  0.9006  1.4492
  465MOL0     C62704   2.841   2.398   5.014  0.3683 -0.0951 -0.5882
  465MOL0     C62705   3.439   2.094   4.504  0.4335 -0.2252 -0.1387
  465MOL0     C62706   3.576   2.066   4.481  0.0486  0.6665 -0.1925
  465MOL0     C62707   3.633   2.097   4.344 -0.0689 -0.9658 -0.2252
  465MOL0     H62708   3.971   2.037   4.230 -0.4973  2.0564  0.7278
  465MOL0     H62709   4.226   2.058   4.188 -2.1804 -0.4715 -1.3578
  465MOL0     H62710   4.470   2.187   4.535 -4.3851 -1.2949  1.4987
  465MOL0     H62711   4.510   2.021   4.529 -0.5608  0.9978  0.6352
  465MOL0     H62712   4.642   2.226   4.352  2.6304 -1.5306 -2.5256
  465MOL0     H62713   4.643   2.058   4.312 -4.8862  0.6610 -0.7095
  465MOL0     H62714   4.839   2.096   4.440  0.2445 -0.2904  0.1984
  465MOL0     H62715   4.745   2.005   4.553  1.7056  0.3348  1.3208
  465MOL0     H62716   4.741   2.302   4.579  1.2793  0.5352  0.0120
  465MOL0     H62717   4.676   2.182   4.692 -0.5475  1.7809 -0.7788
  465MOL0     H62718   4.870   2.216   4.804  2.1172  1.9514  0.7355
  465MOL0     H62719   4.905   2.073   4.706  1.4514  0.9235  0.5193
  465MOL0     H62720   5.005   2.242   4.518  3.0162  5.2677 -1.6905
  465MOL0     H62721   4.986   2.368   4.630  1.6146  0.0509  0.3814
  465MOL0     H62722   5.124   2.213   4.805  1.4855  2.2937 -0.0625
  465MOL0     H62723   5.196   2.340   4.700 -0.6423  1.1528 -3.3099
  465MOL0     H62724   5.170   2.039   4.627 -0.5841 -0.4621  3.4414
  465MOL0     H62725   5.244   2.169   4.529 -1.1737  3.1624  0.5429
  465MOL0     H62726   5.390   1.905   4.693 -2.5437  0.0332  2.9786
  465MOL0     H62727   5.695   2.013   4.890 -3.8804  1.7784  1.3317
  465MOL0     H62728   5.591   1.864   4.873 -1.3022 -1.0668 -1.7539
  465MOL0     H62729   5.676   1.845   4.639  0.9339 -2.7190  1.7464
  465MOL0     H62730   5.765   1.995   4.655  0.8163  1.1203  0.8838
  465MOL0     H62731   5.794   1.742   4.830  2.1348 -0.2633  1.0738
  465MOL0     H62732   5.887   1.884   4.842 -0.0030 -1.3062  0.3434
  465MOL0     H62733   5.968   1.853   4.607  1.8836 -0.4341  0.6274
  465MOL0     H62734   5.869   1.708   4.592 -3.3223  1.0934  2.6257
  465MOL0     H62735   6.225   1.536   4.815  0.3327 -0.7721  0.3627
  465MOL0     H62736   6.389   1.419   4.688  0.0177 -2.3585 -2.6584
  465MOL0     H62737   6.516   1.103   4.411 -0.7739  0.4690 -0.7389
  465MOL0     H62738   6.687   0.985   4.260  2.8992 -0.7418  0.9104
  465MOL0     H62739   6.781   1.086   4.017  0.1437  1.4400 -2.7935
  465MOL0     H62740   6.939   1.151   3.992 -1.3192 -0.3148 -0.6774
  465MOL0     H62741   6.902   0.873   4.104 -0.5048  2.4344  1.4872
  465MOL0     H62742   6.878   0.904   3.921  2.9542 -0.7912 -0.5402
  465MOL0     H62743   7.103   0.983   3.907  2.9455  2.5275  1.6175
  465MOL0     H62744   7.117   1.005   4.076 -2.3410  1.4698 -0.4404
  465MOL0     H62745   7.218   0.785   3.943 -0.2730 -1.4266 -0.0986
  465MOL0     H62746   7.052   0.723   3.953 -0.9371  0.2462  0.8324
  465MOL0     H62747   7.061   0.711   4.190  0.7094 -2.4836  0.7585
  465MOL0     H62748   7.200   0.824   4.196  0.4059 -1.1234  1.0906
  465MOL0     H62749   7.353   0.660   4.101 -0.3725  2.0321 -0.8392
  465MOL0     H62750   7.259   0.581   4.233  1.4910 -0.9509 -1.1892
  465MOL0     H62751   7.200   0.506   3.944  1.4679  0.6859 -0.5770
  465MOL0     H62752   7.108   0.476   4.090  0.1030 -0.0437  0.9102
  465MOL0     H62753   7.269   0.295   4.010 -0.5543 -1.0564  2.8165
  465MOL0     H62754   7.400   0.393   4.057 -0.7414 -1.1220 -0.9597
  465MOL0     H62755   6.935   1.332   4.288 -0.0228  0.4872  0.5119
  465MOL0     H62756   6.740   1.453   4.410 -4.2781 -0.4062  2.3223
  465MOL0     H62757   6.294   1.663   4.352 -2.0978  2.3432 -0.5420
  465MOL0     H62758   6.109   1.764   4.479  0.9305  0.0798 -1.0274
  465MOL0     H62759   4.280   2.107   4.615  0.8369  2.9752 -1.8803
  465MOL0     H62760   4.056   2.044   4.647  1.9601 -3.7190  0.6548
  465MOL0     H62761   3.645   1.933   4.786  0.0393  3.3125  1.9203
  465MOL0     H62762   3.414   1.983   4.823 -0.9852 -1.9420 -0.5255
  465MOL0     H62763   3.259   2.142   4.826 -0.3274  0.2202 -0.7368
  465MOL0     H62764   3.152   1.999   4.810 -0.0313  1.0964  2.6094
  465MOL0     H62765   3.010   2.175   4.873 -0.2965  1.4636  0.5280
  465MOL0     H62766   2.980   2.145   4.694  0.6837 -1.3618  0.2327
  465MOL0     H62767   3.122   2.335   4.649 -0.3021 -1.1980 -0.3341
  465MOL0     H62768   3.153   2.362   4.822 -1.0317 -1.3752  2.0414
  465MOL0     H62769   2.968   2.506   4.746 -1.0341  0.3895 -3.3048
  465MOL0     H62770   2.875   2.362   4.693 -3.4623  2.4809  2.5902
  465MOL0     H62771   2.801   2.399   5.114  0.6907  1.7417 -0.4451
  465MOL0     H62772   3.373   2.149   4.437 -1.6234 -0.4773  1.5980
  465MOL0     H62773   3.693   2.023   4.291 -0.2638 -0.1858 -1.5872
  465MOL0     H62774   3.551   2.129   4.278  0.0118  0.6321  0.4028
  465MOL0     H62775   3.687   2.191   4.333 -1.6675 -0.1853 -2.1279
  466MOL0     O62776   4.763   6.761   1.955 -0.2017 -0.3713  0.0412
  466MOL0     C62777   4.727   6.667   1.883  0.6549  0.6905  0.1890
  466MOL0     O62778   4.810   6.576   1.829 -0.2909 -0.1928 -0.3967
  466MOL0     C62779   4.931   6.625   1.788 -1.2337 -0.0057  0.6259
  466MOL0     C62780   5.055   6.611   1.858 -0.4897  1.5288 -0.0356
  466MOL0     C62781   5.183   6.641   1.797 -0.1237 -0.6490 -0.4498
  466MOL0     C62782   5.187   6.694   1.673  0.0678  0.5396 -0.7333
  466MOL0     O62783   5.318   6.716   1.630 -0.1896 -0.3001 -0.4895
  466MOL0     C62784   5.329   6.737   1.485 -0.1255  0.2385 -0.9788
  466MOL0     C62785   5.479   6.730   1.457  0.6905  0.3860  0.0843
  466MOL0     C62786   5.515   6.722   1.304 -1.1326 -0.9278 -0.2796
  466MOL0     C62787   5.679   6.714   1.289  0.4669  0.5744 -0.1740
  466MOL0     C62788   5.719   6.791   1.165 -0.1697 -0.0918 -0.3001
  466MOL0     C62789   5.873   6.769   1.132 -0.4063 -0.2289 -0.3433
  466MOL0     C62790   5.969   6.857   1.222  0.3114 -0.0345  1.1433
  466MOL0     C62791   6.119   6.837   1.192 -0.1854  0.1733 -0.3902
  466MOL0     N62792   6.155   6.698   1.166  0.5714  0.4717  0.7727
  466MOL0     C62793   6.236   6.619   1.250 -0.7225  0.1840 -0.1613
  466MOL0     C62794   6.297   6.531   1.165  0.5755 -0.2947 -0.9459
  466MOL0     C62795   6.411   6.434   1.198 -0.3836 -0.3498  1.0257
  466MOL0     C62796   6.545   6.501   1.226 -0.3895 -0.6833 -0.9625
  466MOL0     C62797   6.648   6.414   1.281 -0.7683  0.3468 -0.2495
  466MOL0     C62798   6.769   6.498   1.313 -0.3621  0.8397  0.5310
  466MOL0     O62799   6.855   6.545   1.202 -0.3919 -0.1478  0.0608
  466MOL0     C62800   6.972   6.604   1.242 -0.8512 -0.0507  0.3241
  466MOL0     C62801   7.037   6.609   1.366  0.5942  0.1089 -0.2481
  466MOL0     C62802   7.167   6.657   1.388  0.4953 -0.2837  0.7904
  466MOL0     C62803   7.246   6.713   1.283  1.2336 -0.8217 -0.0356
  466MOL0     C62804   7.385   6.761   1.315  1.0986 -0.1500  0.1334
  466MOL0     O62805   7.448   6.839   1.227 -1.0469 -0.1045 -0.3457
  466MOL0     C62806   7.581   6.876   1.250  0.6557 -0.6921  0.3813
  466MOL0     C62807   7.664   6.878   1.139  0.5514  0.1786  0.0418
  466MOL0     C62808   7.798   6.917   1.149 -0.4679  0.2139  0.1266
  466MOL0     C62809   7.846   6.959   1.270 -0.1983 -0.6922  0.5725
  466MOL0     O62810   7.982   6.964   1.277  0.3028 -0.1632  0.7136
  466MOL0     C62811   8.047   7.060   1.363 -0.6829 -0.1384 -1.1009
  466MOL0     C62812   8.054   7.198   1.311  0.0542 -0.1129  0.2893
  466MOL0     C62813   8.132   7.297   1.381 -0.1577 -0.3485 -0.6963
  466MOL0     C62814   8.287   7.274   1.359  0.3436 -0.2283  1.0149
  466MOL0     C62815   8.360   7.383   1.432 -0.4072  0.0996  0.9873
  466MOL0     C62816   8.509   7.347   1.426  0.5124 -0.3337 -0.2992
  466MOL0     C62817   8.591   7.468   1.482  0.4663 -0.8222  0.4067
  466MOL0     C62818   8.742   7.449   1.478  0.1098 -0.7844 -0.4664
  466MOL0    Cl62819   8.807   7.477   1.308 -0.6165 -0.1764 -0.0580
  466MOL0     C62820   7.762   6.972   1.381 -0.0866  0.0955  0.1163
  466MOL0     C62821   7.628   6.932   1.377 -0.2941 -0.7501 -0.1841
  466MOL0     O62822   7.432   6.724   1.420  0.5985 -0.7688 -0.4001
  466MOL0     C62823   7.177   6.731   1.155 -0.0506 -0.1835 -0.3313
  466MOL0     C62824   7.047   6.676   1.135  0.7378 -0.4529 -1.3082
  466MOL0     N62825   6.247   6.559   1.041 -0.0395  0.2186  0.5186
  466MOL0     N62826   6.171   6.663   1.043  0.0435  0.1775 -0.1487
  466MOL0     C62827   5.062   6.726   1.604  0.1215  0.7863  0.9601
  466MOL0     C62828   4.937   6.697   1.664  0.0204  0.3140  0.0170
  466MOL0     C62829   4.590   6.633   1.860  0.4439 -0.3100 -0.1443
  466MOL0     C62830   4.555   6.530   1.772  0.1864  0.5427  0.6603
  466MOL0     C62831   4.431   6.477   1.761 -0.5699 -0.5601  0.1729
  466MOL0     C62832   4.328   6.535   1.833 -0.2049  0.8313  0.3390
  466MOL0     O62833   4.202   6.485   1.804  0.2634  0.0730  0.9126
  466MOL0     C62834   4.150   6.545   1.698 -0.2989 -0.0378  1.1575
  466MOL0     C62835   4.026   6.470   1.659 -0.4163 -0.5129 -0.0204
  466MOL0     C62836   3.944   6.526   1.547  0.1168  0.5010  0.0318
  466MOL0     C62837   3.805   6.487   1.560 -0.2690 -0.0551  0.7686
  466MOL0     C62838   3.793   6.343   1.553  0.1943 -0.0679  0.4899
  466MOL0     C62839   3.798   6.222   1.538  0.8233  0.7388 -0.1060
  466MOL0     C62840   4.349   6.637   1.917 -0.8231 -0.4216 -0.0576
  466MOL0     C62841   4.481   6.688   1.930  0.3248  0.3762 -0.3509
  466MOL0     C62842   4.487   6.793   2.043 -1.4165 -0.2441  0.0342
  466MOL0     H62843   5.060   6.551   1.948  0.7816  2.5658  0.6090
  466MOL0     H62844   5.272   6.620   1.854  0.2761 -1.1168 -1.2355
  466MOL0     H62845   5.266   6.662   1.437 -1.6934 -1.3074  3.0664
  466MOL0     H62846   5.292   6.837   1.460  0.2956  1.3748  2.5185
  466MOL0     H62847   5.517   6.637   1.500  0.1787  0.4511  0.6973
  466MOL0     H62848   5.524   6.813   1.513  1.6892  1.3602 -2.0589
  466MOL0     H62849   5.485   6.815   1.256 -1.5673 -1.2306 -0.6028
  466MOL0     H62850   5.464   6.643   1.247 -0.4508 -1.5063 -0.1121
  466MOL0     H62851   5.711   6.761   1.382 -0.0642 -0.6274  0.6402
  466MOL0     H62852   5.701   6.607   1.290 -1.7728  0.0365  1.6400
  466MOL0     H62853   5.667   6.753   1.077 -0.3834 -1.9341  0.5702
  466MOL0     H62854   5.698   6.898   1.168 -1.2793 -0.3167  1.7389
  466MOL0     H62855   5.900   6.663   1.128  0.3930 -0.0378 -4.1352
  466MOL0     H62856   5.899   6.796   1.029  3.4205  0.9638  0.7695
  466MOL0     H62857   5.940   6.868   1.327  1.2965  1.9185  1.2544
  466MOL0     H62858   5.961   6.958   1.182  3.0850  0.1053  0.6984
  466MOL0     H62859   6.139   6.889   1.098 -0.4259  0.0107 -0.5340
  466MOL0     H62860   6.177   6.875   1.276 -1.1294  1.4010 -0.2822
  466MOL0     H62861   6.258   6.627   1.356  1.2450 -0.3598 -0.4902
  466MOL0     H62862   6.380   6.385   1.290 -0.4648  2.3535  2.5400
  466MOL0     H62863   6.415   6.361   1.116  1.0388  0.4140  0.3715
  466MOL0     H62864   6.585   6.537   1.131  1.0145  0.4863  0.0268
  466MOL0     H62865   6.526   6.586   1.292 -0.4843  0.0511 -1.9142
  466MOL0     H62866   6.665   6.334   1.209 -1.3130 -2.0540  2.1191
  466MOL0     H62867   6.620   6.371   1.377 -0.9661 -4.7900 -2.3066
  466MOL0     H62868   6.837   6.435   1.371  0.1895 -2.8191 -3.6103
  466MOL0     H62869   6.737   6.579   1.380  0.3681  4.7010 -3.2940
  466MOL0     H62870   6.993   6.561   1.453 -0.2864  0.7733 -0.3119
  466MOL0     H62871   7.211   6.629   1.483  1.6413 -0.3733  0.2484
  466MOL0     H62872   7.627   6.827   1.051  1.8147 -0.5324 -0.1071
  466MOL0     H62873   7.868   6.906   1.067 -0.1439 -2.5651  0.6851
  466MOL0     H62874   8.013   7.071   1.467  0.5874  0.5791 -0.7293
  466MOL0     H62875   8.150   7.025   1.376 -1.2761 -1.6938 -0.3821
  466MOL0     H62876   8.096   7.199   1.210  0.7617 -1.6776  0.5311
  466MOL0     H62877   7.958   7.247   1.292 -0.5740 -2.3155 -3.1859
  466MOL0     H62878   8.117   7.393   1.332  0.7836 -0.2518 -0.8058
  466MOL0     H62879   8.096   7.298   1.485 -1.0660  2.8054 -0.9308
  466MOL0     H62880   8.302   7.284   1.251 -0.3955  0.1661  0.9367
  466MOL0     H62881   8.314   7.172   1.385 -2.7979 -0.7382  2.8707
  466MOL0     H62882   8.337   7.380   1.539 -3.4675  0.5205  0.4459
  466MOL0     H62883   8.324   7.475   1.385 -0.7373  0.5394  2.0664
  466MOL0     H62884   8.525   7.266   1.497  3.5683  1.5050  1.3491
  466MOL0     H62885   8.547   7.321   1.326  2.4306  1.2365 -0.0521
  466MOL0     H62886   8.562   7.481   1.587 -3.4169  0.4023 -0.6374
  466MOL0     H62887   8.576   7.564   1.430  1.5666 -0.7942  0.1273
  466MOL0     H62888   8.790   7.509   1.555  1.9844 -1.8015 -0.7913
  466MOL0     H62889   8.766   7.347   1.511 -0.7292 -1.1068 -0.8097
  466MOL0     H62890   7.815   7.010   1.468  0.7590 -1.9149  0.5461
  466MOL0     H62891   7.554   6.943   1.456  0.8406 -0.7591  0.9186
  466MOL0     H62892   7.229   6.780   1.073  1.9776 -0.0066  0.9792
  466MOL0     H62893   6.993   6.677   1.041  1.3177 -1.7402 -1.6729
  466MOL0     H62894   5.064   6.755   1.499 -1.8339  3.5283  1.5705
  466MOL0     H62895   4.849   6.723   1.606 -0.5174  0.7395  0.9987
  466MOL0     H62896   4.634   6.485   1.713 -0.5981 -1.0898  0.7851
  466MOL0     H62897   4.411   6.404   1.682  1.0531 -0.8668  0.0153
  466MOL0     H62898   4.220   6.557   1.614  2.4851 -1.4100  3.1320
  466MOL0     H62899   4.135   6.644   1.741  0.5893 -0.0138  1.4290
  466MOL0     H62900   3.958   6.466   1.745  0.1749 -0.1252  0.4792
  466MOL0     H62901   4.058   6.367   1.641 -2.6966 -1.5344  1.2588
  466MOL0     H62902   3.981   6.498   1.448  3.9516 -0.8030  1.6231
  466MOL0     H62903   3.947   6.635   1.555  0.8032  0.4861  0.0435
  466MOL0     H62904   3.784   6.530   1.658  0.0788  0.8232  0.4743
  466MOL0     H62905   3.739   6.537   1.489 -1.9387  1.4160  3.1963
  466MOL0     H62906   3.807   6.115   1.542 -1.6576  0.1223 -4.4074
  466MOL0     H62907   4.263   6.676   1.970 -0.5760 -0.4322  0.3560
  466MOL0     H62908   4.541   6.882   2.011 -0.6065  0.2583  2.5746
  466MOL0     H62909   4.392   6.831   2.082 -0.0727  3.8549 -0.2933
  466MOL0     H62910   4.547   6.754   2.125  1.8813  2.0018 -1.1094
  467MOL0     O62911   9.577   9.733   2.285  0.6883  0.4469  0.3497
  467MOL0     C62912   9.554   9.852   2.297 -0.9505 -0.7216 -0.1184
  467MOL0     O62913   9.450   9.913   2.369 -0.7129 -0.3202 -0.2528
  467MOL0     C62914   9.353   9.845   2.434 -0.0111  0.7410 -0.1534
  467MOL0     C62915   9.317   9.704   2.415 -0.6309 -0.1393  1.7515
  467MOL0     C62916   9.225   9.642   2.492  0.0682  0.5449 -0.1670
  467MOL0     C62917   9.166   9.703   2.599 -0.5789 -0.1245 -0.0154
  467MOL0     O62918   9.088   9.631   2.690  0.3585 -0.1094 -0.9393
  467MOL0     C62919   8.974   9.569   2.628 -0.1876 -0.3572  0.6008
  467MOL0     C62920   8.895   9.663   2.535 -0.0678  0.3879 -0.5416
  467MOL0     C62921   8.757   9.620   2.495  0.5228 -0.0120  0.6589
  467MOL0     C62922   8.658   9.594   2.617 -0.3793 -0.6222  1.1055
  467MOL0     C62923   8.514   9.613   2.572 -0.0409  0.5622 -0.1286
  467MOL0     C62924   8.469   9.520   2.452 -0.2604 -1.0254  0.8046
  467MOL0     C62925   8.324   9.547   2.423  0.8664  0.0031 -0.4378
  467MOL0     C62926   8.272   9.484   2.298  0.0192 -0.0153  0.2456
  467MOL0     N62927   8.292   9.345   2.291  0.1274  0.8463 -0.3607
  467MOL0     C62928   8.264   9.257   2.392 -0.6104  0.1929  0.3027
  467MOL0     C62929   8.292   9.134   2.345 -0.0066  0.3956 -0.1401
  467MOL0     C62930   8.256   9.011   2.427 -0.5093  0.1271 -0.7967
  467MOL0     C62931   8.388   8.946   2.446  0.3289 -1.3147  0.1342
  467MOL0     C62932   8.465   9.011   2.567  0.3633  0.7946  0.8084
  467MOL0     C62933   8.599   8.936   2.594 -0.5034 -0.2308 -0.1326
  467MOL0     O62934   8.687   8.958   2.488 -0.5329 -0.0049 -0.6861
  467MOL0     C62935   8.809   8.893   2.496 -0.6063 -0.4529  0.2751
  467MOL0     C62936   8.874   8.849   2.374 -0.1658  0.0598  0.5709
  467MOL0     C62937   9.004   8.786   2.371  0.2583  0.7409  0.7137
  467MOL0     C62938   9.065   8.747   2.492 -0.2704  0.1396  1.2027
  467MOL0     C62939   9.183   8.667   2.501 -0.2951  0.5982 -0.7072
  467MOL0     O62940   9.255   8.672   2.386 -0.7588  0.1783 -0.6038
  467MOL0     C62941   9.362   8.602   2.376  0.3172  0.6820 -0.3919
  467MOL0     C62942   9.463   8.668   2.301 -0.0369  0.3805 -0.2436
  467MOL0     C62943   9.596   8.616   2.292 -0.3866 -0.6916  0.3021
  467MOL0     C62944   9.619   8.492   2.349 -0.1687  1.1425  0.2451
  467MOL0     O62945   9.748   8.452   2.333 -0.1041  0.9682  0.9809
  467MOL0     C62946   9.777   8.314   2.366 -0.1177  0.5445 -1.1950
  467MOL0     C62947   9.916   8.276   2.315  0.6218 -0.3860  0.5163
  467MOL0     C62948  10.029   8.373   2.358 -0.0970  0.3303 -0.2359
  467MOL0     C62949  10.157   8.334   2.286  0.3450  0.7283  0.4504
  467MOL0     C62950  10.273   8.426   2.340  0.4893 -0.8846 -0.1252
  467MOL0     C62951  10.414   8.391   2.299 -0.1538 -0.5876  0.0540
  467MOL0     C62952  10.460   8.254   2.340  0.6372 -0.3471 -0.2835
  467MOL0     C62953  10.549   8.189   2.230 -0.0159  0.0201 -0.2083
  467MOL0    Cl62954  10.592   8.022   2.297  0.0280  0.3099  0.5419
  467MOL0     C62955   9.520   8.428   2.415 -0.6963  0.2814  0.7049
  467MOL0     C62956   9.393   8.481   2.435  0.0429  0.7159  0.7213
  467MOL0     O62957   9.212   8.592   2.598 -0.2975  0.1400 -0.2131
  467MOL0     C62958   8.995   8.785   2.611 -0.8269 -0.5752  1.3596
  467MOL0     C62959   8.880   8.859   2.615  0.2910 -0.0081  0.3954
  467MOL0     N62960   8.340   9.147   2.223 -0.7444  0.4361  0.4039
  467MOL0     N62961   8.346   9.267   2.188 -0.5181 -0.1066 -0.2547
  467MOL0     C62962   9.202   9.832   2.631 -0.1917 -0.4620 -0.4279
  467MOL0     C62963   9.293   9.908   2.545  0.0987  0.0143 -0.4317
  467MOL0     C62964   9.644   9.949   2.234  0.1339  0.0419 -0.0474
  467MOL0     C62965   9.635   9.965   2.101  0.0284 -0.1251 -0.4942
  467MOL0     C62966   9.705  10.064   2.035 -1.3716  0.0253  0.3993
  467MOL0     C62967   9.796  10.151   2.105  0.4093  0.1508  0.7756
  467MOL0     O62968   9.867  10.244   2.023 -0.0381 -0.0060  0.5521
  467MOL0     C62969   9.991  10.304   2.071 -0.3182 -0.3908 -0.4690
  467MOL0     C62970  10.068  10.332   1.950  0.1690 -0.0048  0.6872
  467MOL0     C62971  10.206  10.390   1.991  0.3190 -0.1724  0.1379
  467MOL0     C62972  10.288  10.448   1.875  0.6643  0.1166 -0.2595
  467MOL0     C62973  10.213  10.541   1.788  0.0016 -0.4460 -0.1345
  467MOL0     C62974  10.160  10.622   1.710  0.2955  0.0652  0.2897
  467MOL0     C62975   9.814  10.126   2.242  0.8698  0.3174 -0.3607
  467MOL0     C62976   9.738  10.027   2.310 -0.6283  0.0561  0.6443
  467MOL0     C62977   9.769   9.998   2.457  0.9143  0.4645 -0.3295
  467MOL0     H62978   9.359   9.649   2.332  0.8567  3.0636  0.1918
  467MOL0     H62979   9.206   9.538   2.465 -0.2819  0.4418  0.4584
  467MOL0     H62980   8.996   9.478   2.571 -3.0842  0.3536 -1.8985
  467MOL0     H62981   8.919   9.537   2.717  1.5576  0.9192  2.2114
  467MOL0     H62982   8.941   9.688   2.440 -1.7018  2.3742 -0.8981
  467MOL0     H62983   8.872   9.751   2.596 -2.4924  0.3708 -1.3080
  467MOL0     H62984   8.763   9.529   2.434 -1.0761  1.4512 -1.8221
  467MOL0     H62985   8.720   9.702   2.433 -0.7783 -1.0959 -0.0573
  467MOL0     H62986   8.676   9.494   2.657  1.2641 -0.9674 -0.4036
  467MOL0     H62987   8.687   9.667   2.693  1.2218  1.2252 -1.1364
  467MOL0     H62988   8.452   9.600   2.660  0.4117  0.6968  0.2153
  467MOL0     H62989   8.488   9.710   2.527 -2.3404 -1.7322 -4.4371
  467MOL0     H62990   8.539   9.531   2.368 -1.3998  0.5683  0.0165
  467MOL0     H62991   8.494   9.419   2.486 -0.1507 -0.9507  0.9485
  467MOL0     H62992   8.319   9.656   2.410  2.7920  0.2961  0.9090
  467MOL0     H62993   8.262   9.518   2.508  2.2330  2.6674  1.6452
  467MOL0     H62994   8.167   9.513   2.289 -0.2255 -0.5950  1.0508
  467MOL0     H62995   8.322   9.522   2.209 -0.6168  2.0990  0.7285
  467MOL0     H62996   8.220   9.272   2.490  0.8850  1.1650  0.8647
  467MOL0     H62997   8.213   9.037   2.524 -1.6706 -2.8618 -0.4264
  467MOL0     H62998   8.187   8.938   2.385 -1.4604  0.2073  0.5679
  467MOL0     H62999   8.376   8.839   2.468  0.5711 -1.4483 -0.3739
  467MOL0     H63000   8.451   8.963   2.358 -3.1890 -0.7158 -2.4499
  467MOL0     H63001   8.397   9.005   2.653 -2.0224 -1.2265 -1.0676
  467MOL0     H63002   8.495   9.115   2.550  1.7382  0.2958 -0.0428
  467MOL0     H63003   8.592   8.828   2.611 -0.3907 -0.0624  1.1134
  467MOL0     H63004   8.638   8.978   2.687 -0.3165  1.1896 -0.8299
  467MOL0     H63005   8.821   8.867   2.281  1.9313 -0.1620 -0.7078
  467MOL0     H63006   9.024   8.742   2.274  3.7685  1.9447  0.7586
  467MOL0     H63007   9.458   8.767   2.256 -0.4697  1.1964  1.4957
  467MOL0     H63008   9.681   8.664   2.244 -0.2254  0.4422  1.6639
  467MOL0     H63009   9.777   8.306   2.475 -0.9138 -4.6593 -1.2939
  467MOL0     H63010   9.706   8.246   2.317 -3.0590  3.4502 -1.2982
  467MOL0     H63011   9.948   8.175   2.342  1.9121  0.2052  1.2806
  467MOL0     H63012   9.913   8.290   2.206  3.9076  0.6277  0.4578
  467MOL0     H63013  10.004   8.474   2.324  0.0903 -0.1479 -1.8757
  467MOL0     H63014  10.045   8.394   2.465 -2.0706  2.4347 -0.2821
  467MOL0     H63015  10.150   8.344   2.177 -4.1023 -1.8163  0.2633
  467MOL0     H63016  10.183   8.228   2.292 -0.3153  0.5008 -0.5147
  467MOL0     H63017  10.283   8.424   2.449  3.1393 -0.2921 -0.3056
  467MOL0     H63018  10.242   8.528   2.314 -0.7101 -1.7883 -2.5532
  467MOL0     H63019  10.432   8.403   2.191  0.8286  2.0259  0.4548
  467MOL0     H63020  10.485   8.465   2.337 -0.5346  1.3397 -2.7244
  467MOL0     H63021  10.368   8.201   2.364  0.2531  0.7181  0.6257
  467MOL0     H63022  10.516   8.261   2.434 -1.2095 -2.7648  1.1053
  467MOL0     H63023  10.503   8.162   2.135  0.2446 -1.9300  0.1752
  467MOL0     H63024  10.635   8.256   2.214 -0.6163  1.5654  2.4991
  467MOL0     H63025   9.548   8.330   2.452  0.1260  0.5746  0.8871
  467MOL0     H63026   9.316   8.428   2.490  0.1898  1.2356  1.4412
  467MOL0     H63027   9.047   8.761   2.703  1.2425 -2.0885 -0.1048
  467MOL0     H63028   8.835   8.901   2.704  0.2440 -0.3374  0.5321
  467MOL0     H63029   9.160   9.891   2.712 -1.8249  1.0837 -2.2526
  467MOL0     H63030   9.314  10.011   2.571 -1.6054 -0.0278  1.3254
  467MOL0     H63031   9.560   9.904   2.051 -1.4024  1.4198 -0.3087
  467MOL0     H63032   9.694  10.063   1.927  4.2250 -0.3983 -0.5099
  467MOL0     H63033  10.054  10.245   2.138 -1.0052  0.1023  0.6447
  467MOL0     H63034   9.967  10.400   2.118  2.9692 -0.4951  1.7752
  467MOL0     H63035  10.006  10.404   1.895  0.0180 -0.8478 -0.2590
  467MOL0     H63036  10.086  10.242   1.892  1.5414 -0.3898  1.6835
  467MOL0     H63037  10.262  10.319   2.053  0.9822  0.2135 -0.0159
  467MOL0     H63038  10.172  10.473   2.053  0.4398  1.0172 -1.3507
  467MOL0     H63039  10.374  10.503   1.915  1.3498  0.1459 -1.7140
  467MOL0     H63040  10.329  10.363   1.819  0.7210 -0.0964  0.0983
  467MOL0     H63041  10.109  10.692   1.647  1.8539  1.7625  0.8007
  467MOL0     H63042   9.879  10.183   2.308 -1.9319  1.1952  1.8299
  467MOL0     H63043   9.813  10.088   2.500 -1.6573  2.6370 -2.0051
  467MOL0     H63044   9.676   9.970   2.507  0.6504  0.7511 -0.6643
  467MOL0     H63045   9.843   9.917   2.461  1.4862  0.9105 -1.4627
  468MOL0     O63046   6.517   6.301   3.390 -0.0248  1.0121 -0.4169
  468MOL0     C63047   6.424   6.249   3.320  0.5585 -0.2411 -0.0939
  468MOL0     O63048   6.423   6.224   3.187 -0.0241  0.8105  0.6935
  468MOL0     C63049   6.546   6.227   3.108 -0.4780 -0.6668  0.3273
  468MOL0     C63050   6.552   6.272   2.972  0.9805  0.4014  0.4412
  468MOL0     C63051   6.660   6.256   2.881 -0.0433 -0.5257  0.1562
  468MOL0     C63052   6.776   6.198   2.924  0.2396  0.8145  0.3999
  468MOL0     O63053   6.873   6.190   2.823  0.0555  0.8770 -0.9088
  468MOL0     C63054   6.976   6.086   2.840 -0.3030 -0.5468  0.3336
  468MOL0     C63055   7.062   6.091   2.707  0.1683 -0.2169 -0.6828
  468MOL0     C63056   7.187   6.000   2.726  0.5403 -0.2609  0.0469
  468MOL0     C63057   7.239   5.959   2.589  0.4083 -0.1691 -0.0938
  468MOL0     C63058   7.358   5.871   2.591  0.2712  0.1066 -0.0284
  468MOL0     C63059   7.485   5.960   2.603 -0.7126  1.0845  0.6688
  468MOL0     C63060   7.547   5.988   2.467 -0.9070 -0.4633 -0.4956
  468MOL0     C63061   7.685   6.058   2.484 -0.7987 -0.2125 -0.0761
  468MOL0     N63062   7.771   6.029   2.366  0.3994 -0.1168 -0.2729
  468MOL0     C63063   7.816   5.905   2.337 -0.1791  0.9218  0.1398
  468MOL0     C63064   7.886   5.913   2.226 -0.5835  0.6322  0.2017
  468MOL0     C63065   7.946   5.801   2.141  0.4798  0.0386 -0.3791
  468MOL0     C63066   8.071   5.728   2.203  0.0439 -0.8114  0.4429
  468MOL0     C63067   8.086   5.588   2.143 -0.5664 -0.0628 -0.5262
  468MOL0     C63068   8.203   5.511   2.217  0.1897  0.9241 -0.2938
  468MOL0     O63069   8.257   5.392   2.148  0.5984 -0.3867 -0.1316
  468MOL0     C63070   8.389   5.362   2.147  0.0134 -0.4640 -0.2175
  468MOL0     C63071   8.442   5.299   2.032 -0.0127 -0.2534  0.2676
  468MOL0     C63072   8.573   5.257   2.036 -0.2577  0.0873 -0.3293
  468MOL0     C63073   8.663   5.288   2.140  0.4680 -0.2698  0.3526
  468MOL0     C63074   8.815   5.270   2.122  0.1998 -0.0363  0.4380
  468MOL0     O63075   8.892   5.294   2.229 -0.0124  0.0892  0.1911
  468MOL0     C63076   9.032   5.286   2.237 -1.0098 -0.2488  0.6155
  468MOL0     C63077   9.099   5.304   2.359  0.6081  0.6984 -0.6471
  468MOL0     C63078   9.229   5.287   2.379  0.8765  0.6610  0.0544
  468MOL0     C63079   9.320   5.274   2.273  0.8597 -0.4942  0.2790
  468MOL0     O63080   9.456   5.269   2.304  0.8977 -0.5148 -0.1114
  468MOL0     C63081   9.549   5.287   2.199  0.2046 -0.0602  0.0336
  468MOL0     C63082   9.689   5.276   2.253 -0.3578 -0.3475  0.7378
  468MOL0     C63083   9.797   5.287   2.138 -0.0241  0.0276 -0.3947
  468MOL0     C63084   9.942   5.287   2.198 -1.0515 -0.0557 -0.2243
  468MOL0     C63085  10.048   5.337   2.094 -0.0691 -0.6547 -0.1663
  468MOL0     C63086  10.189   5.309   2.149  0.2198 -0.8478  0.3501
  468MOL0     C63087  10.289   5.340   2.030 -1.4756  0.6521 -0.0573
  468MOL0     C63088  10.437   5.334   2.088 -0.0245  0.2809  0.4431
  468MOL0    Cl63089  10.485   5.173   2.100  0.1135  0.4533 -0.0856
  468MOL0     C63090   9.256   5.273   2.148 -0.2733  1.4320  0.1977
  468MOL0     C63091   9.116   5.266   2.131  0.4250 -0.2178  0.1003
  468MOL0     O63092   8.855   5.253   2.007  0.2183 -0.3850 -0.2734
  468MOL0     C63093   8.601   5.355   2.249  0.4779 -0.0454  0.8913
  468MOL0     C63094   8.464   5.389   2.249  0.2554 -0.3895 -0.2089
  468MOL0     N63095   7.880   6.043   2.182 -0.4737  0.2771  0.0081
  468MOL0     N63096   7.819   6.111   2.277  0.3133 -0.1020  0.1104
  468MOL0     C63097   6.780   6.152   3.054 -0.0882  0.2844  0.6356
  468MOL0     C63098   6.664   6.160   3.141  0.3849 -0.4145 -0.9019
  468MOL0     C63099   6.296   6.209   3.394  0.4759  0.4193 -0.8502
  468MOL0     C63100   6.301   6.139   3.520 -0.0274  0.2602  1.0967
  468MOL0     C63101   6.191   6.105   3.598 -0.0830 -0.5593  0.4870
  468MOL0     C63102   6.066   6.139   3.560 -0.1718 -0.2232 -0.0786
  468MOL0     O63103   5.957   6.109   3.639  0.3709  0.1547 -0.2866
  468MOL0     C63104   5.824   6.099   3.585  0.1509 -0.4919  0.4060
  468MOL0     C63105   5.813   5.971   3.492  1.0925 -0.0719  0.0731
  468MOL0     C63106   5.679   5.985   3.412  0.9925  0.3521  0.5281
  468MOL0     C63107   5.663   5.893   3.294 -0.1484  0.0498  1.3096
  468MOL0     C63108   5.669   5.761   3.346  0.3629  0.1681  0.5892
  468MOL0     C63109   5.680   5.646   3.383  0.3575  0.3231 -0.4619
  468MOL0     C63110   6.053   6.217   3.440  0.3727 -0.3455 -1.2487
  468MOL0     C63111   6.162   6.254   3.360 -0.5917  1.3986  0.7984
  468MOL0     C63112   6.133   6.340   3.240  0.3328 -0.2539 -0.0219
  468MOL0     H63113   6.465   6.329   2.941  1.8364  3.3107  2.8143
  468MOL0     H63114   6.642   6.305   2.786  0.5172  1.0198  0.8110
  468MOL0     H63115   7.040   6.103   2.927 -3.3509 -1.3722  2.9384
  468MOL0     H63116   6.937   5.984   2.840 -1.3256 -0.2873 -3.2905
  468MOL0     H63117   7.101   6.193   2.696 -0.3196 -0.0081 -0.4982
  468MOL0     H63118   7.005   6.063   2.618  1.1560 -0.3260 -1.2934
  468MOL0     H63119   7.171   5.909   2.784 -2.2643  0.3927  0.4492
  468MOL0     H63120   7.262   6.068   2.768  0.6765 -0.8531  0.7816
  468MOL0     H63121   7.157   5.912   2.534  0.3774 -2.5368  1.7853
  468MOL0     H63122   7.266   6.051   2.537  2.9760 -0.7664  0.0607
  468MOL0     H63123   7.367   5.804   2.677 -0.7334 -1.3361 -0.9945
  468MOL0     H63124   7.361   5.804   2.505  2.4993  0.1037  0.0041
  468MOL0     H63125   7.456   6.052   2.654 -3.1339  0.5461  0.3977
  468MOL0     H63126   7.551   5.900   2.667 -2.0374  0.0761  1.1520
  468MOL0     H63127   7.475   6.035   2.399 -0.8257  0.9103  0.3332
  468MOL0     H63128   7.560   5.895   2.410 -1.4233  0.0715 -1.5170
  468MOL0     H63129   7.667   6.164   2.504 -0.9278 -0.4783  1.3291
  468MOL0     H63130   7.737   6.024   2.574  0.3658  2.0939  0.2043
  468MOL0     H63131   7.802   5.810   2.387 -0.7147  0.4353 -0.9214
  468MOL0     H63132   7.875   5.721   2.120  2.6639 -2.2965  0.5715
  468MOL0     H63133   7.972   5.846   2.045 -1.4744  0.9436 -0.5333
  468MOL0     H63134   8.155   5.795   2.179 -1.2006  0.7424  0.3011
  468MOL0     H63135   8.061   5.718   2.311  1.2167  0.9383  0.7501
  468MOL0     H63136   8.109   5.610   2.038  0.2854 -0.1202 -0.3556
  468MOL0     H63137   7.995   5.530   2.159  0.0715 -1.1035 -0.6468
  468MOL0     H63138   8.158   5.486   2.313 -1.3018  2.4220 -0.5541
  468MOL0     H63139   8.286   5.579   2.236  0.4286  0.7113 -0.5612
  468MOL0     H63140   8.392   5.268   1.940  4.0688 -2.4908 -1.4245
  468MOL0     H63141   8.613   5.206   1.949  1.0248 -0.5321  0.6041
  468MOL0     H63142   9.031   5.323   2.442  3.1482  1.1628  1.4582
  468MOL0     H63143   9.248   5.306   2.484 -0.2241  0.3042  0.3367
  468MOL0     H63144   9.534   5.213   2.120 -1.6782  0.3249 -0.0108
  468MOL0     H63145   9.555   5.391   2.164 -0.4265  0.7317  2.1435
  468MOL0     H63146   9.701   5.356   2.327 -0.2607  1.5977 -1.2609
  468MOL0     H63147   9.709   5.179   2.298 -2.2838 -0.1998  2.0329
  468MOL0     H63148   9.786   5.200   2.073  1.9335  0.3340 -1.2066
  468MOL0     H63149   9.770   5.378   2.083 -1.8531  0.3855  1.0004
  468MOL0     H63150   9.955   5.180   2.220  2.0584 -0.0927 -1.6841
  468MOL0     H63151   9.948   5.349   2.288 -0.9829  1.1116 -1.0143
  468MOL0     H63152  10.036   5.446   2.091 -1.3731 -0.7790  0.1987
  468MOL0     H63153  10.037   5.284   1.999  1.4040 -3.8475  1.2925
  468MOL0     H63154  10.220   5.375   2.231  1.2067 -2.7963  1.6407
  468MOL0     H63155  10.182   5.204   2.181 -3.9067 -1.9017 -3.1439
  468MOL0     H63156  10.267   5.442   1.997 -1.6296 -0.2820 -3.0774
  468MOL0     H63157  10.273   5.270   1.948  2.0750 -0.1951 -0.2180
  468MOL0     H63158  10.500   5.381   2.012 -1.5918 -2.1208 -2.5791
  468MOL0     H63159  10.445   5.378   2.188  1.8684 -3.0207  1.9087
  468MOL0     H63160   9.326   5.290   2.067 -0.1230  1.0771  0.2510
  468MOL0     H63161   9.087   5.264   2.026 -2.7319  1.8446  0.7812
  468MOL0     H63162   8.666   5.393   2.327  1.6131  3.8564 -1.6368
  468MOL0     H63163   8.418   5.438   2.335 -1.9145 -3.2423  0.4203
  468MOL0     H63164   6.868   6.103   3.095 -0.0508  2.1220  2.9613
  468MOL0     H63165   6.675   6.118   3.240  1.4119 -0.0145 -0.8283
  468MOL0     H63166   6.401   6.111   3.551  0.7487  1.0943 -0.5456
  468MOL0     H63167   6.207   6.056   3.693  0.8025 -3.4407 -1.0357
  468MOL0     H63168   5.795   6.192   3.535 -1.1842 -0.9005  0.3917
  468MOL0     H63169   5.751   6.094   3.666  1.0538 -0.5981  1.2378
  468MOL0     H63170   5.811   5.881   3.554  1.4968  1.5522  2.6062
  468MOL0     H63171   5.895   5.974   3.419 -0.2091 -0.3349 -1.4640
  468MOL0     H63172   5.666   6.085   3.370  0.5174  0.3286  0.6160
  468MOL0     H63173   5.596   5.967   3.481 -0.1140 -0.8583 -1.0309
  468MOL0     H63174   5.568   5.899   3.239  0.5757 -2.0169 -0.2992
  468MOL0     H63175   5.745   5.914   3.224 -1.4840 -1.0046 -0.6819
  468MOL0     H63176   5.674   5.544   3.415 -1.4064 -0.1656 -2.1871
  468MOL0     H63177   5.956   6.261   3.418 -0.8489 -1.1808  1.8575
  468MOL0     H63178   6.127   6.444   3.271 -0.6043 -0.5868  0.9843
  468MOL0     H63179   6.205   6.324   3.159  1.1579  1.0021  0.4396
  468MOL0     H63180   6.034   6.315   3.201  0.3816 -1.2933  0.4930
  469MOL0     O63181   0.216   5.373   7.467 -0.0587  0.1860 -0.1177
  469MOL0     C63182   0.274   5.275   7.437 -0.3811 -0.1027 -0.6859
  469MOL0     O63183   0.412   5.277   7.430 -0.0560 -0.0609 -0.3734
  469MOL0     C63184   0.470   5.391   7.384 -0.2149  0.6491 -0.3029
  469MOL0     C63185   0.507   5.397   7.252  0.4997 -0.6594 -0.8066
  469MOL0     C63186   0.553   5.519   7.195  0.0921  0.1450  0.0220
  469MOL0     C63187   0.577   5.630   7.278  0.4886  0.2299  0.2986
  469MOL0     O63188   0.615   5.752   7.230 -0.5723 -1.1543 -0.5245
  469MOL0     C63189   0.750   5.752   7.182  0.2922 -0.7643  0.4371
  469MOL0     C63190   0.796   5.888   7.126  0.5843  0.7563 -0.1762
  469MOL0     C63191   0.805   6.005   7.226  0.6861  0.6581 -0.9939
  469MOL0     C63192   0.889   6.129   7.183  0.4441 -0.2482 -0.4173
  469MOL0     C63193   1.031   6.096   7.203 -0.0426  0.4711 -0.1803
  469MOL0     C63194   1.107   6.224   7.170  0.0867 -0.4552  0.9067
  469MOL0     C63195   1.252   6.202   7.151  0.3289  0.0307  0.0835
  469MOL0     C63196   1.325   6.314   7.094 -0.2845  0.3743 -0.4555
  469MOL0     N63197   1.469   6.273   7.050  0.8487  0.3888 -1.5076
  469MOL0     C63198   1.569   6.272   7.140 -0.5415  0.1686 -1.1644
  469MOL0     C63199   1.678   6.268   7.062 -0.2662 -0.3052  0.6165
  469MOL0     C63200   1.816   6.282   7.108 -0.0696 -1.0067 -0.6812
  469MOL0     C63201   1.848   6.417   7.174  0.2129 -0.0562  0.4775
  469MOL0     C63202   1.890   6.536   7.077 -0.5172  0.8325 -0.4057
  469MOL0     C63203   1.780   6.576   6.975 -0.8965  0.6832 -0.2610
  469MOL0     O63204   1.802   6.710   6.931 -0.2566  0.5243  0.1191
  469MOL0     C63205   1.927   6.744   6.882  0.2666  0.1531  0.3040
  469MOL0     C63206   2.008   6.661   6.799 -0.4478  0.9764  0.1348
  469MOL0     C63207   2.137   6.704   6.754 -0.0420  1.0061  0.6229
  469MOL0     C63208   2.174   6.833   6.779 -0.1389 -0.8353 -0.1154
  469MOL0     C63209   2.291   6.896   6.717 -0.1816 -0.1007  0.0222
  469MOL0     O63210   2.312   7.028   6.734  0.1400 -0.4428 -0.4709
  469MOL0     C63211   2.428   7.080   6.695  0.2435 -0.2539 -0.5555
  469MOL0     C63212   2.444   7.111   6.561  0.2955  1.1486 -0.3790
  469MOL0     C63213   2.569   7.138   6.517 -0.5260 -0.5075 -0.1834
  469MOL0     C63214   2.672   7.160   6.613  0.6861  0.3273 -0.2563
  469MOL0     O63215   2.795   7.197   6.566  0.4367  0.4078 -0.3926
  469MOL0     C63216   2.864   7.300   6.646  0.3259  0.1919  0.3090
  469MOL0     C63217   2.964   7.362   6.549  0.3441 -0.2694 -0.1411
  469MOL0     C63218   3.073   7.259   6.506 -0.3171  0.0672 -0.5554
  469MOL0     C63219   3.210   7.327   6.480 -0.3741  0.1470 -0.6913
  469MOL0     C63220   3.306   7.224   6.418  0.8838  0.1411 -0.1525
  469MOL0     C63221   3.437   7.283   6.362 -1.0264 -0.0940  0.1678
  469MOL0     C63222   3.503   7.362   6.472  0.0372 -0.5937  0.0415
  469MOL0     C63223   3.644   7.413   6.436 -0.2907 -0.1790  0.2315
  469MOL0    Cl63224   3.666   7.577   6.528 -0.5383 -0.1070 -0.1098
  469MOL0     C63225   2.651   7.135   6.752  0.5655  0.4950  0.5736
  469MOL0     C63226   2.524   7.091   6.791  0.2788 -0.0402 -0.7379
  469MOL0     O63227   2.375   6.818   6.655 -0.2501 -0.1607  0.2737
  469MOL0     C63228   2.086   6.917   6.847  0.3432 -0.9819 -1.1564
  469MOL0     C63229   1.969   6.866   6.894 -1.0152 -0.6625 -0.1593
  469MOL0     N63230   1.643   6.280   6.931 -0.1506  0.2663  0.4371
  469MOL0     N63231   1.511   6.274   6.918  0.4274  0.8224 -0.9580
  469MOL0     C63232   0.541   5.615   7.413  0.0671  0.4451  0.4793
  469MOL0     C63233   0.477   5.502   7.457  0.3279 -0.2398 -0.9079
  469MOL0     C63234   0.200   5.145   7.423 -0.1276  0.0966 -0.9835
  469MOL0     C63235   0.288   5.039   7.384 -0.1514  0.6164  0.1272
  469MOL0     C63236   0.237   4.902   7.386 -0.2649  0.4365  0.7048
  469MOL0     C63237   0.101   4.879   7.435 -0.6257  0.5068 -0.4688
  469MOL0     O63238   0.042   4.759   7.471  0.5399  0.1097  0.0741
  469MOL0     C63239   0.123   4.641   7.438  0.1752  0.3756  0.4186
  469MOL0     C63240   0.130   4.613   7.278  0.3439 -0.2342 -0.8090
  469MOL0     C63241   0.178   4.471   7.258 -1.1120 -0.0657  0.2910
  469MOL0     C63242   0.203   4.462   7.105  0.3756 -0.0290 -0.2748
  469MOL0     C63243   0.181   4.329   7.055 -0.8513 -0.0216 -0.4847
  469MOL0     C63244   0.149   4.224   7.008 -0.8241 -0.5217 -0.2355
  469MOL0     C63245   0.021   4.987   7.452  0.0651 -0.3479 -0.5856
  469MOL0     C63246   0.057   5.121   7.438 -0.2617  0.0895 -0.1896
  469MOL0     C63247  -0.042   5.231   7.458  0.6632 -0.3711 -0.1653
  469MOL0     H63248   0.477   5.317   7.186 -2.2476 -0.9919  0.6951
  469MOL0     H63249   0.569   5.531   7.089  1.9535  1.0328  0.3631
  469MOL0     H63250   0.825   5.720   7.255 -0.4117  0.1889  1.6257
  469MOL0     H63251   0.753   5.680   7.100  2.5739  1.8464 -2.0474
  469MOL0     H63252   0.714   5.911   7.057  0.2028 -0.7696 -0.2810
  469MOL0     H63253   0.891   5.881   7.072  2.8951 -1.8529  3.7216
  469MOL0     H63254   0.829   5.970   7.326  1.4152 -0.1233 -1.4358
  469MOL0     H63255   0.702   6.043   7.235  1.1224  2.2918 -2.3417
  469MOL0     H63256   0.862   6.160   7.082  0.3019 -1.2703 -0.6970
  469MOL0     H63257   0.867   6.204   7.260  1.1248 -4.4428  4.3619
  469MOL0     H63258   1.047   6.054   7.303  0.1463 -0.4268 -0.5802
  469MOL0     H63259   1.053   6.018   7.130 -3.2850 -0.4338 -0.3562
  469MOL0     H63260   1.070   6.279   7.083 -1.0622 -0.8594  1.1191
  469MOL0     H63261   1.093   6.293   7.254 -0.7641 -3.1264  3.1215
  469MOL0     H63262   1.269   6.118   7.084 -0.0346  2.0953 -2.7866
  469MOL0     H63263   1.291   6.178   7.250  0.2840  2.7029  0.8332
  469MOL0     H63264   1.281   6.338   6.997  3.3204  1.5203 -1.9528
  469MOL0     H63265   1.326   6.404   7.156 -1.6606  0.2454 -0.2146
  469MOL0     H63266   1.571   6.282   7.248  1.1830 -1.3802 -0.9938
  469MOL0     H63267   1.828   6.201   7.181 -2.8588 -0.1299  0.8770
  469MOL0     H63268   1.890   6.275   7.028  2.6093  2.7740  1.1487
  469MOL0     H63269   1.763   6.456   7.230 -0.7978  1.3275 -1.8472
  469MOL0     H63270   1.928   6.399   7.247 -2.3036 -0.2507  3.3883
  469MOL0     H63271   1.984   6.505   7.029 -0.7823 -1.1836  0.2684
  469MOL0     H63272   1.907   6.625   7.137 -0.3700  0.1186  0.6394
  469MOL0     H63273   1.678   6.578   7.013 -0.5857 -0.7328  0.7036
  469MOL0     H63274   1.794   6.512   6.887  0.6498  4.9074 -3.4508
  469MOL0     H63275   1.970   6.563   6.770 -0.7410  1.8346 -2.7271
  469MOL0     H63276   2.200   6.646   6.686 -0.5860  1.4973 -0.3219
  469MOL0     H63277   2.369   7.108   6.483  0.7187 -2.5334 -0.7903
  469MOL0     H63278   2.580   7.168   6.413 -1.3105  3.5492  0.7401
  469MOL0     H63279   2.794   7.379   6.674 -3.2429 -1.4605 -3.0161
  469MOL0     H63280   2.915   7.245   6.726  1.8375 -3.1779 -2.6693
  469MOL0     H63281   2.922   7.395   6.453 -2.4608 -1.1687  0.6689
  469MOL0     H63282   3.011   7.445   6.601 -0.7082  1.0267 -1.1861
  469MOL0     H63283   3.094   7.179   6.577  3.9622 -0.1774 -1.7884
  469MOL0     H63284   3.039   7.208   6.416  0.5133 -1.8662  0.1788
  469MOL0     H63285   3.250   7.371   6.572  0.1536 -1.5585 -0.0658
  469MOL0     H63286   3.196   7.407   6.407  2.2847 -0.4166 -1.9612
  469MOL0     H63287   3.254   7.165   6.343  0.5160 -2.7317  2.1946
  469MOL0     H63288   3.323   7.149   6.495 -2.0367 -0.0538  0.4192
  469MOL0     H63289   3.496   7.197   6.328 -1.3184 -0.9174  1.6535
  469MOL0     H63290   3.419   7.348   6.277 -0.6406  0.4060  0.4661
  469MOL0     H63291   3.516   7.291   6.555 -3.7973 -1.8323 -0.1958
  469MOL0     H63292   3.443   7.449   6.497  0.6326 -0.4315  0.9435
  469MOL0     H63293   3.712   7.346   6.489 -1.5099 -0.4954  1.4282
  469MOL0     H63294   3.665   7.421   6.329 -2.8891 -0.1522 -0.3446
  469MOL0     H63295   2.733   7.147   6.822  2.5638 -1.7603 -1.1754
  469MOL0     H63296   2.514   7.075   6.897  1.6457 -1.8481 -0.8428
  469MOL0     H63297   2.124   7.017   6.864  2.2481 -1.8324 -0.0972
  469MOL0     H63298   1.910   6.923   6.966 -0.3664 -1.1067  0.7440
  469MOL0     H63299   0.554   5.701   7.477 -1.9653 -0.0746  1.6951
  469MOL0     H63300   0.423   5.512   7.550  2.8953  0.0821  0.6632
  469MOL0     H63301   0.396   5.046   7.373 -0.1008  1.8217  1.1004
  469MOL0     H63302   0.303   4.819   7.364  1.9313  2.0793  0.8197
  469MOL0     H63303   0.063   4.564   7.488 -2.9802  0.5180 -2.7501
  469MOL0     H63304   0.221   4.645   7.487  0.8807 -0.6849 -0.8501
  469MOL0     H63305   0.186   4.688   7.224  0.2923  1.1962  1.0162
  469MOL0     H63306   0.027   4.622   7.240  0.8436  1.3538 -1.8355
  469MOL0     H63307   0.101   4.403   7.297 -0.1277 -2.9175 -2.2784
  469MOL0     H63308   0.272   4.466   7.312 -0.5578  0.8192 -0.5527
  469MOL0     H63309   0.136   4.537   7.062  1.1776  3.4998  3.8498
  469MOL0     H63310   0.305   4.487   7.075 -0.4974 -1.3105 -5.1309
  469MOL0     H63311   0.116   4.130   6.970  1.1215 -1.7026  0.8527
  469MOL0     H63312  -0.076   4.959   7.491 -0.2074  2.7822  1.3878
  469MOL0     H63313  -0.143   5.190   7.457  0.1425  0.9022 -0.8697
  469MOL0     H63314  -0.023   5.287   7.551 -0.0562 -1.1039  0.4374
  469MOL0     H63315  -0.035   5.312   7.385  1.1597 -0.3557 -0.1105
  470MOL0     O63316   2.214   0.090   4.531  0.6315 -0.3246 -0.0460
  470MOL0     C63317   2.141   0.093   4.627  0.1726 -0.3425 -0.1520
  470MOL0     O63318   2.187   0.068   4.753 -0.3552 -0.5923  0.0438
  470MOL0     C63319   2.320   0.044   4.764  0.5561  0.6447 -0.0218
  470MOL0     C63320   2.361  -0.091   4.760 -0.7447 -0.0065 -0.0844
  470MOL0     C63321   2.493  -0.135   4.773  0.2664  0.0166  0.2226
  470MOL0     C63322   2.590  -0.034   4.810 -0.4493  0.1716  0.0554
  470MOL0     O63323   2.723  -0.071   4.821  0.3116  0.5570  0.2922
  470MOL0     C63324   2.796  -0.021   4.935  0.1019  0.0620 -0.6466
  470MOL0     C63325   2.913   0.057   4.880 -0.4549 -0.2710 -0.4311
  470MOL0     C63326   3.037   0.023   4.971 -0.4679  1.1874  0.1875
  470MOL0     C63327   3.091  -0.116   4.969 -0.5274  0.2663  0.2372
  470MOL0     C63328   3.202  -0.127   5.067  1.7738  0.5624  0.2124
  470MOL0     C63329   3.270  -0.256   5.056  0.1055  1.2602  0.6847
  470MOL0     C63330   3.404  -0.246   5.134  0.4061  0.1515 -1.7958
  470MOL0     C63331   3.461  -0.393   5.154 -0.0059 -0.4775 -0.0100
  470MOL0     N63332   3.499  -0.435   5.022  0.1760  0.8350 -0.2493
  470MOL0     C63333   3.597  -0.394   4.942  0.3464 -0.0067 -0.7910
  470MOL0     C63334   3.581  -0.468   4.826 -0.5242  1.2687  0.7870
  470MOL0     C63335   3.697  -0.488   4.730  0.3373 -0.3391  0.3174
  470MOL0     C63336   3.806  -0.585   4.772  0.3406 -0.0824  0.9669
  470MOL0     C63337   3.901  -0.621   4.656  0.6095 -0.2123 -0.3055
  470MOL0     C63338   4.015  -0.724   4.695 -0.2669 -0.3298 -0.8667
  470MOL0     O63339   3.950  -0.849   4.728 -0.1722 -0.0744  0.0153
  470MOL0     C63340   4.032  -0.960   4.742 -0.1417 -0.2291 -0.5418
  470MOL0     C63341   3.972  -1.085   4.733  0.0259 -0.0867 -0.7012
  470MOL0     C63342   4.045  -1.203   4.738  0.6101 -0.8422  0.1650
  470MOL0     C63343   4.175  -1.202   4.772 -0.5306  0.1966 -0.0398
  470MOL0     C63344   4.251  -1.327   4.793 -0.5336 -0.6988 -0.3082
  470MOL0     O63345   4.382  -1.324   4.824 -0.7842 -0.2447  0.9473
  470MOL0     C63346   4.469  -1.427   4.792 -0.0902 -0.4313 -0.1919
  470MOL0     C63347   4.584  -1.429   4.869 -0.4454 -0.2077  0.1699
  470MOL0     C63348   4.687  -1.520   4.844 -1.0822 -0.9192 -0.2636
  470MOL0     C63349   4.668  -1.627   4.754  0.3444 -0.9046  0.5829
  470MOL0     O63350   4.768  -1.705   4.711 -0.3913  0.6865  0.2783
  470MOL0     C63351   4.874  -1.741   4.807  0.1683  0.7433  0.3578
  470MOL0     C63352   4.912  -1.885   4.775 -0.9245 -0.1568  0.0976
  470MOL0     C63353   5.045  -1.929   4.832 -0.0711 -0.1560  1.1430
  470MOL0     C63354   5.125  -2.030   4.740 -0.3605 -0.3335 -0.1518
  470MOL0     C63355   5.260  -2.058   4.810 -0.6117 -0.1650 -0.8372
  470MOL0     C63356   5.348  -2.158   4.729  0.0769  0.6154  0.2004
  470MOL0     C63357   5.489  -2.167   4.783  0.0421 -0.2450 -0.0897
  470MOL0     C63358   5.563  -2.034   4.808 -0.1797 -0.6197  0.1380
  470MOL0    Cl63359   5.738  -2.073   4.856 -0.4845 -0.3365 -0.3956
  470MOL0     C63360   4.552  -1.623   4.679  1.2083  0.4226 -0.4524
  470MOL0     C63361   4.451  -1.529   4.694  0.1673  0.4673 -0.3229
  470MOL0     O63362   4.188  -1.429   4.799 -0.1685 -0.1797 -0.1601
  470MOL0     C63363   4.239  -1.079   4.789  0.8822 -0.0871 -0.3918
  470MOL0     C63364   4.169  -0.958   4.776  0.3374 -0.5605  0.7954
  470MOL0     N63365   3.477  -0.559   4.853  0.8902 -0.3239 -0.8654
  470MOL0     N63366   3.421  -0.534   4.967 -0.6057  1.1225  0.1961
  470MOL0     C63367   2.555   0.098   4.828  0.4986 -0.1938  0.6183
  470MOL0     C63368   2.419   0.134   4.797 -0.1295 -0.1954  0.1255
  470MOL0     C63369   1.989   0.114   4.624 -1.1063  0.3426  1.4444
  470MOL0     C63370   1.916   0.092   4.737 -0.1526 -0.5205 -0.2093
  470MOL0     C63371   1.783   0.138   4.746 -0.5629  0.2909 -0.3142
  470MOL0     C63372   1.724   0.189   4.637  0.2246 -0.0107  0.1767
  470MOL0     O63373   1.588   0.218   4.643 -0.2579  0.3255  0.1519
  470MOL0     C63374   1.536   0.305   4.535 -0.3927  1.3599  0.6336
  470MOL0     C63375   1.411   0.371   4.560 -0.2383  0.2880  0.2209
  470MOL0     C63376   1.377   0.488   4.462 -0.5729  1.4174  0.1009
  470MOL0     C63377   1.238   0.539   4.473 -0.7692 -0.2009 -0.5392
  470MOL0     C63378   1.135   0.453   4.413 -0.0464  0.0893  0.0378
  470MOL0     C63379   1.057   0.390   4.347 -0.1844  0.3550  0.5257
  470MOL0     C63380   1.798   0.209   4.517 -0.4669 -0.4553 -0.2602
  470MOL0     C63381   1.930   0.170   4.510  0.4777 -0.4993  0.7529
  470MOL0     C63382   1.995   0.204   4.380 -0.1052  1.0194  0.7526
  470MOL0     H63383   2.289  -0.166   4.729 -1.4448  1.0926 -1.1835
  470MOL0     H63384   2.514  -0.239   4.751  0.9114  0.2270 -0.1749
  470MOL0     H63385   2.734   0.040   5.001  0.0482 -1.3428  0.6584
  470MOL0     H63386   2.820  -0.107   4.998 -1.6918  0.3956  0.5900
  470MOL0     H63387   2.891   0.164   4.883  0.7198  0.0563 -2.2373
  470MOL0     H63388   2.937   0.022   4.780  2.4128 -4.1527  1.3229
  470MOL0     H63389   3.019   0.044   5.077  2.1194 -1.0706  1.1813
  470MOL0     H63390   3.124   0.077   4.931 -0.5557  0.2809 -1.3132
  470MOL0     H63391   3.016  -0.193   4.989  1.4982 -1.8203  0.1244
  470MOL0     H63392   3.124  -0.146   4.870 -2.4516 -1.4992  0.0567
  470MOL0     H63393   3.280  -0.052   5.051  1.8934  0.8386  1.9267
  470MOL0     H63394   3.166  -0.114   5.169  1.1170  1.6033 -0.1398
  470MOL0     H63395   3.212  -0.340   5.096  1.4091  1.2201  2.6906
  470MOL0     H63396   3.303  -0.272   4.953 -1.7962  3.4057 -0.3344
  470MOL0     H63397   3.378  -0.212   5.235  1.6946 -1.8480 -0.7407
  470MOL0     H63398   3.474  -0.180   5.083  1.4878  0.3126 -0.1794
  470MOL0     H63399   3.540  -0.383   5.229 -0.7026  3.7863  0.4326
  470MOL0     H63400   3.376  -0.449   5.193 -0.9999  1.2302  0.3710
  470MOL0     H63401   3.688  -0.342   4.970 -0.5626  0.0364  2.4764
  470MOL0     H63402   3.656  -0.519   4.633 -0.1527 -0.5368  0.5800
  470MOL0     H63403   3.741  -0.391   4.707  0.8753 -0.9775 -1.5259
  470MOL0     H63404   3.871  -0.545   4.851  0.1846  1.7178  0.2379
  470MOL0     H63405   3.759  -0.680   4.798  3.3041 -1.8364  0.4454
  470MOL0     H63406   3.941  -0.526   4.618 -1.1329  1.8766  2.6189
  470MOL0     H63407   3.839  -0.657   4.574 -0.9811 -0.0080  0.7652
  470MOL0     H63408   4.074  -0.690   4.781  1.1511 -1.5502 -1.3299
  470MOL0     H63409   4.087  -0.733   4.613  1.4955  3.5705 -0.0070
  470MOL0     H63410   3.866  -1.085   4.713 -0.5338 -1.4460  1.7869
  470MOL0     H63411   3.995  -1.295   4.709  1.1212 -0.3489 -2.5417
  470MOL0     H63412   4.610  -1.345   4.932 -2.0816  2.9366 -2.9736
  470MOL0     H63413   4.788  -1.489   4.870 -1.6777 -1.3614  2.8637
  470MOL0     H63414   4.950  -1.669   4.779  2.7115 -2.0682 -0.5159
  470MOL0     H63415   4.839  -1.734   4.911  2.2636  2.9885  0.9981
  470MOL0     H63416   4.843  -1.957   4.819  1.2508 -1.8106  0.9845
  470MOL0     H63417   4.904  -1.902   4.667 -1.9154 -0.9235  0.2808
  470MOL0     H63418   5.109  -1.840   4.833  0.5939 -0.5648 -1.1407
  470MOL0     H63419   5.029  -1.968   4.933  0.2445 -1.5510  0.6652
  470MOL0     H63420   5.137  -1.990   4.639  2.2780 -2.2261 -0.7104
  470MOL0     H63421   5.068  -2.122   4.726  1.6431 -1.8760  1.3111
  470MOL0     H63422   5.239  -2.086   4.914  0.3993 -1.0394 -0.8560
  470MOL0     H63423   5.306  -1.958   4.804 -0.6814 -0.2026 -5.1684
  470MOL0     H63424   5.299  -2.257   4.732  1.6043 -0.1454  1.4509
  470MOL0     H63425   5.348  -2.120   4.627 -1.7409  0.6437  0.1817
  470MOL0     H63426   5.546  -2.220   4.707  1.7567  2.2973 -0.7127
  470MOL0     H63427   5.485  -2.227   4.874 -2.4544 -0.2061 -0.1252
  470MOL0     H63428   5.556  -1.974   4.716 -1.2582 -2.3501 -0.9843
  470MOL0     H63429   5.516  -1.972   4.884 -2.0631  0.8408 -2.0690
  470MOL0     H63430   4.542  -1.709   4.615 -2.1378 -2.5494  3.5502
  470MOL0     H63431   4.366  -1.536   4.627  0.4839  0.5545 -0.7364
  470MOL0     H63432   4.345  -1.081   4.810  0.8536  1.6426  0.0847
  470MOL0     H63433   4.213  -0.863   4.806  0.2387 -0.3753  0.3680
  470MOL0     H63434   2.629   0.176   4.845  0.0251  0.5620 -0.6252
  470MOL0     H63435   2.403   0.241   4.804  0.7039 -0.0867  0.5045
  470MOL0     H63436   1.957   0.051   4.829  1.0172 -0.6601 -0.7802
  470MOL0     H63437   1.736   0.129   4.844  0.2631 -0.4302  0.0342
  470MOL0     H63438   1.526   0.236   4.450  0.5554  0.1180  1.4871
  470MOL0     H63439   1.607   0.386   4.514 -2.2722  2.7084 -0.8082
  470MOL0     H63440   1.398   0.408   4.662 -0.7949  1.2580 -0.1875
  470MOL0     H63441   1.338   0.289   4.551  0.8779 -0.5441 -2.1697
  470MOL0     H63442   1.396   0.452   4.360 -0.9575 -1.3818  0.9279
  470MOL0     H63443   1.435   0.577   4.489  0.1040  0.3735  2.2404
  470MOL0     H63444   1.213   0.559   4.578  1.5793 -0.6729  0.1659
  470MOL0     H63445   1.240   0.631   4.414  0.0945 -0.2313 -0.5562
  470MOL0     H63446   0.988   0.346   4.277 -1.0230  0.1853  1.4234
  470MOL0     H63447   1.753   0.251   4.427 -1.9809 -3.1083 -0.8341
  470MOL0     H63448   1.924   0.236   4.303  1.5530  1.4858 -0.6452
  470MOL0     H63449   2.070   0.282   4.391 -2.1318  3.3535 -0.9742
  470MOL0     H63450   2.031   0.109   4.340 -1.4426  0.3170  1.1517
  471MOL0     O63451   3.422   4.648   6.677  0.3752 -0.4376  0.1599
  471MOL0     C63452   3.402   4.551   6.595  0.3581 -0.7218  0.7123
  471MOL0     O63453   3.494   4.457   6.560 -0.7626 -0.1985 -0.6593
  471MOL0     C63454   3.617   4.445   6.627  0.1980 -0.1044  1.1534
  471MOL0     C63455   3.697   4.354   6.567  0.0529  0.4046  0.4848
  471MOL0     C63456   3.829   4.334   6.611 -0.2679  0.2442  0.5068
  471MOL0     C63457   3.877   4.394   6.723  0.0272  0.3276 -0.6274
  471MOL0     O63458   4.010   4.375   6.762  0.0552  0.2331 -0.3104
  471MOL0     C63459   4.087   4.499   6.712 -0.4660 -0.2956 -0.9366
  471MOL0     C63460   4.090   4.603   6.834  0.1166  0.5068 -0.2740
  471MOL0     C63461   4.172   4.724   6.791  0.0554  0.6246  0.0593
  471MOL0     C63462   4.230   4.810   6.905 -0.0878  0.3794 -0.3731
  471MOL0     C63463   4.342   4.898   6.852 -1.0336  0.8060 -0.4987
  471MOL0     C63464   4.297   5.019   6.785 -0.4554 -0.3192 -0.2170
  471MOL0     C63465   4.407   5.123   6.746 -1.2964  0.5641  0.4157
  471MOL0     C63466   4.368   5.246   6.661 -0.7606  0.1074  0.1659
  471MOL0     N63467   4.297   5.222   6.541  0.1889  0.1377  0.8723
  471MOL0     C63468   4.158   5.207   6.522  0.1649 -0.0723 -0.4979
  471MOL0     C63469   4.132   5.166   6.401  0.4521  0.8382  0.5447
  471MOL0     C63470   3.999   5.132   6.341  0.2963 -0.7411 -0.3982
  471MOL0     C63471   3.907   5.243   6.325  0.3037 -0.8698 -0.0278
  471MOL0     C63472   3.962   5.354   6.226 -0.3049  0.3674 -0.8621
  471MOL0     C63473   4.037   5.470   6.304  0.1794  0.3560  0.4986
  471MOL0     O63474   3.998   5.478   6.445  0.2797 -0.3433  0.1343
  471MOL0     C63475   4.056   5.579   6.505 -1.8414 -0.3502  0.0651
  471MOL0     C63476   4.031   5.706   6.469  0.5741  0.2482  0.5969
  471MOL0     C63477   4.084   5.809   6.543  0.3717 -0.6472 -0.6666
  471MOL0     C63478   4.165   5.793   6.659  0.1888  0.4070 -0.3832
  471MOL0     C63479   4.226   5.912   6.730 -0.0990  0.4233 -0.4327
  471MOL0     O63480   4.285   5.882   6.847 -0.0100  0.1610 -0.8429
  471MOL0     C63481   4.387   5.970   6.899  0.0217  1.3743 -0.2628
  471MOL0     C63482   4.363   6.108   6.923 -0.3667  0.2096 -0.6758
  471MOL0     C63483   4.470   6.192   6.973  0.0835  0.0862 -0.3979
  471MOL0     C63484   4.595   6.140   7.011 -0.3130 -0.0543 -0.1445
  471MOL0     O63485   4.701   6.200   7.069 -0.6782  0.4670 -0.1793
  471MOL0     C63486   4.710   6.344   7.074  0.2878 -0.1830  0.5259
  471MOL0     C63487   4.829   6.383   7.163 -1.0357 -0.0473  0.6182
  471MOL0     C63488   4.964   6.352   7.093  1.0355  0.1678  0.0671
  471MOL0     C63489   4.997   6.441   6.970 -0.0756  0.7132  0.0180
  471MOL0     C63490   5.150   6.474   6.976  0.2865  1.1072 -0.6981
  471MOL0     C63491   5.193   6.591   6.886  0.0581 -0.3142 -0.0222
  471MOL0     C63492   5.222   6.558   6.736  0.2778 -0.5872 -0.1969
  471MOL0     C63493   5.329   6.453   6.696 -0.1123  0.5598  0.8908
  471MOL0    Cl63494   5.482   6.430   6.791  0.3024  0.2845 -0.1734
  471MOL0     C63495   4.614   6.000   7.000 -0.0363 -0.5509  0.3347
  471MOL0     C63496   4.514   5.913   6.947  0.4160 -0.1439 -0.5969
  471MOL0     O63497   4.225   6.025   6.674 -0.8329  0.1210  0.0029
  471MOL0     C63498   4.181   5.657   6.706  0.3611 -0.8037  0.4218
  471MOL0     C63499   4.133   5.555   6.625  0.5195  0.8165 -0.0755
  471MOL0     N63500   4.254   5.118   6.353  1.1556 -0.6044  0.0964
  471MOL0     N63501   4.348   5.157   6.433  0.1307  0.7965 -0.4261
  471MOL0     C63502   3.782   4.475   6.794  0.0651  0.2768  0.5663
  471MOL0     C63503   3.656   4.499   6.748  0.0391  0.2382 -0.4673
  471MOL0     C63504   3.265   4.548   6.536 -0.0581  0.3442 -0.8919
  471MOL0     C63505   3.250   4.503   6.403 -1.2002  1.2902  0.3006
  471MOL0     C63506   3.125   4.488   6.337  0.6592 -0.4833 -0.4416
  471MOL0     C63507   3.008   4.519   6.415  0.1053  0.2650 -0.0430
  471MOL0     O63508   2.882   4.516   6.361 -0.2816  0.0194  0.0719
  471MOL0     C63509   2.867   4.486   6.225  0.1383  0.3455 -0.2143
  471MOL0     C63510   2.889   4.608   6.139  0.4332 -0.5161  0.3105
  471MOL0     C63511   2.809   4.731   6.176  0.5808 -0.1987  0.3696
  471MOL0     C63512   2.794   4.825   6.059 -0.9202 -0.1902 -0.0610
  471MOL0     C63513   2.742   4.949   6.131  0.7741 -1.2110 -0.1028
  471MOL0     C63514   2.697   5.045   6.188 -0.3584 -0.2033 -0.2652
  471MOL0     C63515   3.027   4.559   6.557  0.2261 -0.3741  0.9130
  471MOL0     C63516   3.155   4.565   6.618  0.8204 -0.4309 -0.0920
  471MOL0     C63517   3.155   4.626   6.756  0.8044  0.8409 -0.0275
  471MOL0     H63518   3.660   4.304   6.478 -2.0402 -4.2214  3.5590
  471MOL0     H63519   3.890   4.274   6.543 -0.6423  1.6624 -1.1662
  471MOL0     H63520   4.188   4.468   6.684  0.7390  2.8477 -0.4992
  471MOL0     H63521   4.036   4.556   6.634 -2.0507 -0.5277 -0.1097
  471MOL0     H63522   4.160   4.564   6.909  1.3387  0.2655 -1.5114
  471MOL0     H63523   4.000   4.624   6.892  1.9373 -0.7377  3.3306
  471MOL0     H63524   4.105   4.793   6.737 -0.0086  0.9863  0.5915
  471MOL0     H63525   4.249   4.694   6.720  1.2296 -1.2766  2.0010
  471MOL0     H63526   4.159   4.870   6.962 -0.8468 -0.4022 -0.4730
  471MOL0     H63527   4.269   4.741   6.981  2.2914  0.8118 -1.1272
  471MOL0     H63528   4.402   4.934   6.935 -0.4817  2.0848 -1.4228
  471MOL0     H63529   4.414   4.844   6.790 -0.2168  1.3673 -0.0611
  471MOL0     H63530   4.236   5.003   6.696  1.4318  3.2749 -2.4131
  471MOL0     H63531   4.236   5.073   6.858 -0.6636 -0.9980  0.1161
  471MOL0     H63532   4.481   5.075   6.681 -0.9621  2.9164 -1.0699
  471MOL0     H63533   4.464   5.153   6.835 -0.6189 -0.2202  0.2617
  471MOL0     H63534   4.312   5.317   6.721 -1.0722  0.1522 -0.1754
  471MOL0     H63535   4.465   5.286   6.629  0.1571  0.2766  2.8794
  471MOL0     H63536   4.091   5.233   6.604 -0.9149  1.5383 -1.8292
  471MOL0     H63537   4.006   5.076   6.247 -1.5492 -0.1401 -0.9389
  471MOL0     H63538   3.963   5.057   6.413  2.7511 -0.3126  1.4384
  471MOL0     H63539   3.814   5.211   6.276 -0.5779 -0.7131  1.4738
  471MOL0     H63540   3.880   5.279   6.424  3.0772 -0.0800  0.5216
  471MOL0     H63541   3.881   5.416   6.186  1.1324  2.0816 -1.2124
  471MOL0     H63542   4.030   5.321   6.147  0.4260  1.4923 -0.7248
  471MOL0     H63543   4.024   5.559   6.242 -2.8510 -0.8345 -0.7808
  471MOL0     H63544   4.141   5.438   6.318 -0.0119 -4.2793 -4.8426
  471MOL0     H63545   3.956   5.715   6.392 -0.3605 -1.5465  1.2382
  471MOL0     H63546   4.068   5.908   6.501 -2.1513 -1.5307 -1.9452
  471MOL0     H63547   4.273   6.155   6.886 -1.1065  1.2457  2.1512
  471MOL0     H63548   4.452   6.299   6.976  0.3219  0.1816 -1.8819
  471MOL0     H63549   4.726   6.378   6.971 -3.5044  1.1901  0.2219
  471MOL0     H63550   4.617   6.393   7.108 -1.0133 -3.0700  1.4191
  471MOL0     H63551   4.829   6.492   7.175  2.2289 -0.0761  1.7790
  471MOL0     H63552   4.826   6.339   7.263  3.1323  0.5163  1.1529
  471MOL0     H63553   5.047   6.368   7.162  2.2897 -0.3169 -1.2931
  471MOL0     H63554   4.953   6.248   7.061  0.9201 -0.1072  0.9828
  471MOL0     H63555   4.949   6.538   6.986  0.9306  0.9049  2.2533
  471MOL0     H63556   4.967   6.404   6.871  0.1498 -0.2690  0.2991
  471MOL0     H63557   5.217   6.390   6.958 -1.6787 -1.3721  2.6191
  471MOL0     H63558   5.179   6.510   7.075  1.0920 -0.8597 -0.1754
  471MOL0     H63559   5.116   6.668   6.898 -0.3032 -0.9385  1.9709
  471MOL0     H63560   5.278   6.645   6.929 -2.0321  2.6365  0.7234
  471MOL0     H63561   5.237   6.652   6.682  0.9251 -1.2677 -1.2404
  471MOL0     H63562   5.126   6.541   6.686 -1.7921 -0.0214  3.2624
  471MOL0     H63563   5.285   6.353   6.688  1.6935 -0.1520 -4.7654
  471MOL0     H63564   5.363   6.472   6.593  1.7200 -0.5212  1.2559
  471MOL0     H63565   4.700   5.958   7.051  0.6412  0.1968 -0.1611
  471MOL0     H63566   4.543   5.808   6.945  0.0427 -0.2915  0.8871
  471MOL0     H63567   4.222   5.639   6.805  0.4972 -1.8529  0.1920
  471MOL0     H63568   4.139   5.452   6.657 -0.5879  0.6820 -0.2574
  471MOL0     H63569   3.807   4.516   6.892 -2.5924 -0.7960  1.7945
  471MOL0     H63570   3.599   4.569   6.808  0.4522  3.4797 -3.5411
  471MOL0     H63571   3.341   4.486   6.345 -1.5609 -3.3030  0.7698
  471MOL0     H63572   3.122   4.465   6.230 -2.5908  0.1914 -0.6023
  471MOL0     H63573   2.768   4.446   6.200  0.3369  0.7779 -1.8075
  471MOL0     H63574   2.935   4.415   6.179  0.4608  0.7276 -0.3313
  471MOL0     H63575   2.874   4.575   6.036 -2.1729  1.6928 -0.1388
  471MOL0     H63576   2.994   4.632   6.151  0.6624 -0.7225 -1.1037
  471MOL0     H63577   2.849   4.785   6.262 -0.5570  1.8926 -0.3377
  471MOL0     H63578   2.710   4.696   6.207 -0.7052  0.2713 -2.7995
  471MOL0     H63579   2.892   4.836   6.012 -0.3539 -1.7987  0.6623
  471MOL0     H63580   2.718   4.794   5.987 -2.9259 -0.7688  2.1624
  471MOL0     H63581   2.646   5.132   6.224 -0.2768 -0.4149  0.3816
  471MOL0     H63582   2.938   4.584   6.614  0.6969 -1.5761  2.2454
  471MOL0     H63583   3.049   4.628   6.782  0.6908 -2.4729  0.1488
  471MOL0     H63584   3.198   4.563   6.834 -1.3765  2.7994  2.9903
  471MOL0     H63585   3.205   4.723   6.747 -1.3055  1.9168 -1.0946
  472MOL0     O63586  10.678   7.324  10.499 -0.1795  0.1322 -0.1718
  472MOL0     C63587  10.667   7.303  10.615  0.5004 -0.0801  1.4202
  472MOL0     O63588  10.707   7.390  10.707  0.2826  0.4561 -0.0485
  472MOL0     C63589  10.805   7.473  10.665  0.0543  0.9876 -0.1399
  472MOL0     C63590  10.932   7.433  10.619 -0.4795 -0.9879 -0.0281
  472MOL0     C63591  11.024   7.522  10.564  0.0622 -1.3367  0.1502
  472MOL0     C63592  10.997   7.657  10.562 -0.1391 -0.1081 -0.3883
  472MOL0     O63593  11.072   7.758  10.513 -0.7381 -0.2905 -0.3512
  472MOL0     C63594  11.208   7.744  10.495 -1.0497 -0.2769  1.4584
  472MOL0     C63595  11.285   7.780  10.622  0.8128 -0.7960 -0.0700
  472MOL0     C63596  11.304   7.673  10.730  0.4259 -0.0988  0.3404
  472MOL0     C63597  11.387   7.721  10.855 -0.2642  0.7374  0.5172
  472MOL0     C63598  11.539   7.725  10.825 -0.7291 -0.4170  0.0459
  472MOL0     C63599  11.616   7.776  10.949  0.2856  0.4921  0.2449
  472MOL0     C63600  11.768   7.805  10.928  0.6510 -0.1369 -0.6907
  472MOL0     C63601  11.832   7.670  10.915 -0.9635  0.1283 -0.2647
  472MOL0     N63602  11.797   7.572  11.021 -0.1650  0.4819  0.1650
  472MOL0     C63603  11.724   7.460  11.001  0.7698  0.0537  0.3169
  472MOL0     C63604  11.727   7.396  11.121  0.3160  0.4933 -1.1052
  472MOL0     C63605  11.660   7.262  11.143  0.7677 -0.2016 -0.1593
  472MOL0     C63606  11.756   7.146  11.103 -0.5234  0.4110 -0.5167
  472MOL0     C63607  11.716   6.997  11.131  0.4627 -0.5321  0.1668
  472MOL0     C63608  11.602   6.953  11.041  0.3720  0.1173  0.2013
  472MOL0     O63609  11.639   6.938  10.906  0.2027 -0.4575  0.0250
  472MOL0     C63610  11.547   6.878  10.823  0.2077  0.3400 -1.2113
  472MOL0     C63611  11.418   6.822  10.841 -0.1860 -0.3047 -0.2693
  472MOL0     C63612  11.332   6.772  10.747 -0.1752  0.1335 -0.2893
  472MOL0     C63613  11.385   6.761  10.614 -1.2862  0.0892  0.5822
  472MOL0     C63614  11.309   6.690  10.507 -0.8543  0.7305  0.6891
  472MOL0     O63615  11.338   6.725  10.378  0.1235  0.7448 -0.0371
  472MOL0     C63616  11.258   6.682  10.270 -0.1931  0.4616  1.0123
  472MOL0     C63617  11.238   6.549  10.238 -0.2281 -0.0676 -0.5697
  472MOL0     C63618  11.165   6.507  10.130  0.6058  0.3670 -0.6056
  472MOL0     C63619  11.112   6.594  10.042 -0.0387 -0.2856  0.1774
  472MOL0     O63620  11.021   6.554   9.947 -0.4487 -0.6629 -0.1448
  472MOL0     C63621  10.902   6.497   9.991  0.4986 -0.4094  0.1091
  472MOL0     C63622  10.801   6.445   9.886 -0.7535 -1.1160 -0.0958
  472MOL0     C63623  10.655   6.447   9.940  0.6806  0.3460 -0.4280
  472MOL0     C63624  10.586   6.571   9.885 -0.3400 -0.7443 -0.0355
  472MOL0     C63625  10.437   6.583   9.919 -0.5467 -0.5062  0.5440
  472MOL0     C63626  10.366   6.715   9.877  0.4788  0.9236  0.4016
  472MOL0     C63627  10.225   6.718   9.927  0.1627 -0.5946 -0.0790
  472MOL0     C63628  10.115   6.624   9.871  0.1084 -0.7116 -1.3591
  472MOL0    Cl63629  10.071   6.635   9.696 -0.2920 -0.5399  0.0179
  472MOL0     C63630  11.146   6.729  10.062 -0.1103  0.0020  0.3773
  472MOL0     C63631  11.221   6.775  10.172  0.3305  0.1851 -0.4283
  472MOL0     O63632  11.217   6.629  10.543 -0.1279  0.3234 -1.2483
  472MOL0     C63633  11.519   6.805  10.590  0.2422  0.4218 -0.1335
  472MOL0     C63634  11.588   6.864  10.694 -0.6685 -0.5450  0.8664
  472MOL0     N63635  11.793   7.469  11.217  0.2877  0.4427  0.2713
  472MOL0     N63636  11.831   7.571  11.151  0.6474  0.6397  0.1339
  472MOL0     C63637  10.883   7.697  10.624 -0.0043 -0.2727 -0.1184
  472MOL0     C63638  10.785   7.608  10.681 -0.4767 -0.5430  0.0099
  472MOL0     C63639  10.580   7.187  10.660 -0.4045  0.4907  0.3277
  472MOL0     C63640  10.500   7.120  10.564 -0.2679  0.2992  0.3372
  472MOL0     C63641  10.402   7.026  10.600 -0.8595 -0.8763  0.1664
  472MOL0     C63642  10.387   6.990  10.732  0.2143  0.7032  0.0721
  472MOL0     O63643  10.298   6.891  10.756 -0.5246  0.5868  0.2771
  472MOL0     C63644  10.335   6.792  10.847 -0.3123  0.2827  0.4309
  472MOL0     C63645  10.401   6.681  10.750  0.5927  0.0157  0.0771
  472MOL0     C63646  10.462   6.558  10.813 -0.4171 -1.3333 -0.9658
  472MOL0     C63647  10.508   6.467  10.702 -0.0895  0.0836 -0.2439
  472MOL0     C63648  10.528   6.342  10.771  0.3495  0.7619  0.7424
  472MOL0     C63649  10.554   6.226  10.820  0.0030 -0.6050  0.3004
  472MOL0     C63650  10.479   7.046  10.824 -1.3800  0.5516 -0.5667
  472MOL0     C63651  10.569   7.149  10.793 -0.0338 -0.2151  0.2679
  472MOL0     C63652  10.648   7.195  10.916 -0.2255  0.7110 -0.1280
  472MOL0     H63653  10.956   7.327  10.620  2.5202 -0.4442 -1.2064
  472MOL0     H63654  11.123   7.491  10.529  0.3478 -0.2701 -0.0199
  472MOL0     H63655  11.242   7.652  10.447  1.7849 -0.1817  3.0083
  472MOL0     H63656  11.230   7.823  10.423  2.1766 -1.7854  0.5818
  472MOL0     H63657  11.241   7.866  10.673  1.6809 -1.2466  1.5050
  472MOL0     H63658  11.378   7.823  10.585  1.8796 -3.9198 -1.3644
  472MOL0     H63659  11.361   7.599  10.673 -0.4737  0.5656 -1.5009
  472MOL0     H63660  11.205   7.635  10.756  0.6876 -1.8737 -1.0815
  472MOL0     H63661  11.344   7.816  10.890 -1.1928  0.8061 -0.7250
  472MOL0     H63662  11.367   7.644  10.930  0.8866  1.7623  1.9441
  472MOL0     H63663  11.577   7.625  10.802  0.0663 -0.4691  1.4872
  472MOL0     H63664  11.556   7.799  10.746 -4.3365 -1.6061 -2.1280
  472MOL0     H63665  11.576   7.871  10.986 -2.0168 -1.1737  2.3208
  472MOL0     H63666  11.603   7.708  11.034 -2.6481  0.2175 -0.3349
  472MOL0     H63667  11.800   7.860  11.017 -1.4841 -1.5964  1.1018
  472MOL0     H63668  11.801   7.854  10.836  1.7151 -0.8250 -0.6940
  472MOL0     H63669  11.809   7.623  10.820 -1.4062 -1.5585  0.6330
  472MOL0     H63670  11.940   7.686  10.928 -1.1258 -1.0816  4.2150
  472MOL0     H63671  11.681   7.407  10.917  0.3277  0.4321  0.3025
  472MOL0     H63672  11.617   7.256  11.244 -3.8209  0.5378 -1.8460
  472MOL0     H63673  11.577   7.259  11.073  0.7247  0.3556 -0.1321
  472MOL0     H63674  11.791   7.147  11.000  0.6584 -0.5970 -0.1511
  472MOL0     H63675  11.842   7.164  11.169 -0.2845 -0.5141 -0.5580
  472MOL0     H63676  11.686   6.979  11.235 -0.1877 -2.5931 -0.3344
  472MOL0     H63677  11.803   6.931  11.125  0.8561 -0.1191  1.1335
  472MOL0     H63678  11.515   7.018  11.049 -0.5313 -1.1052  0.7427
  472MOL0     H63679  11.557   6.861  11.081 -0.7688  1.0576  1.1659
  472MOL0     H63680  11.382   6.816  10.943 -1.6375  1.0925 -0.6560
  472MOL0     H63681  11.237   6.728  10.777 -0.7330  1.4327 -0.0836
  472MOL0     H63682  11.273   6.478  10.313  0.2821 -0.5568 -1.2584
  472MOL0     H63683  11.145   6.400  10.130 -0.1664  0.4823  0.9419
  472MOL0     H63684  10.933   6.410  10.051  0.6484  0.9867  2.1442
  472MOL0     H63685  10.854   6.570  10.057 -1.7095 -1.3672 -0.3374
  472MOL0     H63686  10.813   6.498   9.791 -0.2602 -0.0123  0.5709
  472MOL0     H63687  10.825   6.343   9.857 -0.7441 -0.1856 -3.9130
  472MOL0     H63688  10.599   6.358   9.910  1.2241 -0.7956  1.7080
  472MOL0     H63689  10.648   6.438  10.049 -3.5733 -2.2527 -0.6762
  472MOL0     H63690  10.600   6.571   9.776 -2.0030 -3.7343 -0.3551
  472MOL0     H63691  10.631   6.657   9.936  0.0002 -1.3228  0.6481
  472MOL0     H63692  10.435   6.572  10.027  1.8339  2.4130  0.9944
  472MOL0     H63693  10.387   6.501   9.866  0.9975 -1.6335  0.7714
  472MOL0     H63694  10.422   6.796   9.924 -0.3949  1.3395  0.7343
  472MOL0     H63695  10.375   6.719   9.768  0.6308 -4.3194 -0.0389
  472MOL0     H63696  10.183   6.819   9.919 -1.1081 -1.1151 -0.3333
  472MOL0     H63697  10.221   6.699  10.034 -0.4562  2.7971  0.5956
  472MOL0     H63698  10.141   6.521   9.900  0.6512 -0.4564 -0.9184
  472MOL0     H63699  10.024   6.653   9.925  1.3816  0.3294  0.3311
  472MOL0     H63700  11.118   6.798   9.982  1.1380  0.6654  0.4903
  472MOL0     H63701  11.226   6.881  10.192 -1.4483  0.5127 -1.4975
  472MOL0     H63702  11.566   6.793  10.493 -0.4835  1.0818 -0.5787
  472MOL0     H63703  11.692   6.883  10.669 -1.0684 -0.9129 -1.3393
  472MOL0     H63704  10.877   7.804  10.640 -1.4841 -0.4501  0.7038
  472MOL0     H63705  10.701   7.653  10.733 -1.0609  0.3432 -1.6207
  472MOL0     H63706  10.506   7.139  10.458 -3.6302  2.0204  0.2987
  472MOL0     H63707  10.338   6.981  10.526  2.2117 -2.5159 -1.7166
  472MOL0     H63708  10.246   6.742  10.887  0.1207 -1.1448 -0.2882
  472MOL0     H63709  10.402   6.830  10.925  0.0107  2.1222 -0.6951
  472MOL0     H63710  10.486   6.733  10.705  0.3648 -0.4272 -0.8860
  472MOL0     H63711  10.328   6.665  10.670 -0.7333  2.0585  0.7942
  472MOL0     H63712  10.374   6.509  10.856 -1.2990 -0.9217 -2.2301
  472MOL0     H63713  10.538   6.586  10.886  0.6091  2.0242 -3.0548
  472MOL0     H63714  10.431   6.465  10.624 -0.0687 -1.8418 -0.2748
  472MOL0     H63715  10.604   6.509  10.674  0.4151  0.7556  2.2422
  472MOL0     H63716  10.585   6.133  10.862  2.9580  0.3418  0.4451
  472MOL0     H63717  10.470   7.015  10.928 -1.9730 -2.2513 -1.3486
  472MOL0     H63718  10.626   7.294  10.957  2.2987 -0.0673  3.6124
  472MOL0     H63719  10.647   7.124  11.000  1.8125 -0.1218 -0.7314
  472MOL0     H63720  10.755   7.201  10.892  0.0404 -3.6906 -0.9113
  473MOL0     O63721   8.907   9.440   4.444  0.2914  0.0531 -0.4071
  473MOL0     C63722   8.906   9.391   4.555  0.1756  0.3180  0.6272
  473MOL0     O63723   9.004   9.402   4.645 -0.5192 -0.1196 -0.7232
  473MOL0     C63724   9.116   9.490   4.648  0.2970  0.2943 -0.2892
  473MOL0     C63725   9.191   9.525   4.543 -0.7301  0.2612  0.8108
  473MOL0     C63726   9.305   9.603   4.560  0.5861  1.0138 -0.8716
  473MOL0     C63727   9.345   9.644   4.684 -0.1329 -1.1916  0.0212
  473MOL0     O63728   9.448   9.739   4.701  0.0524 -0.2301 -0.8877
  473MOL0     C63729   9.530   9.775   4.593 -0.2023 -0.2471  0.3557
  473MOL0     C63730   9.451   9.889   4.525 -0.8369  0.6240  0.3029
  473MOL0     C63731   9.487  10.021   4.599  0.1283  0.1131 -0.0308
  473MOL0     C63732   9.441  10.142   4.526  0.3857  0.9817 -0.1273
  473MOL0     C63733   9.476  10.257   4.615  0.0184  0.5609 -0.3076
  473MOL0     C63734   9.433  10.385   4.550  0.2765 -0.0083 -0.2961
  473MOL0     C63735   9.478  10.514   4.621 -0.4579  0.3775 -0.3477
  473MOL0     C63736   9.452  10.534   4.767 -0.2808  0.2553 -0.5823
  473MOL0     N63737   9.564  10.491   4.853 -0.5708 -0.3617 -0.7371
  473MOL0     C63738   9.563  10.395   4.950 -0.3057  0.0967  0.5430
  473MOL0     C63739   9.683  10.417   5.019 -0.7112 -0.2361 -0.1596
  473MOL0     C63740   9.741  10.337   5.131  0.3857  0.1349 -0.6592
  473MOL0     C63741   9.726  10.404   5.264  0.3329  0.5082  0.8308
  473MOL0     C63742   9.813  10.342   5.375  0.4991  0.3442 -0.2988
  473MOL0     C63743   9.780  10.411   5.495 -0.6013 -0.3478  0.6133
  473MOL0     O63744   9.819  10.550   5.487  0.0389 -0.6550 -0.5200
  473MOL0     C63745   9.957  10.577   5.475  0.5051  0.8227 -0.1459
  473MOL0     C63746   9.999  10.713   5.469  0.0903 -0.3804 -0.4979
  473MOL0     C63747  10.138  10.747   5.491 -0.0324 -0.8055  0.2095
  473MOL0     C63748  10.236  10.653   5.510 -0.6614  0.2529  0.9886
  473MOL0     C63749  10.379  10.683   5.543 -0.0519 -0.1245 -0.5941
  473MOL0     O63750  10.422  10.811   5.576 -0.3375 -0.6284  0.3738
  473MOL0     C63751  10.553  10.828   5.626 -0.2703 -0.9821 -0.1520
  473MOL0     C63752  10.673  10.793   5.560  0.3329 -0.2326 -0.3178
  473MOL0     C63753  10.791  10.816   5.632 -0.7796 -0.3454 -1.3338
  473MOL0     C63754  10.792  10.879   5.757 -1.1976  0.3232  0.1622
  473MOL0     O63755  10.916  10.921   5.812  0.8288 -0.2238 -0.5712
  473MOL0     C63756  10.925  11.057   5.825 -0.4625  0.5343 -0.1708
  473MOL0     C63757  11.047  11.099   5.910  0.9247 -0.6994  0.1899
  473MOL0     C63758  11.175  11.048   5.828  0.0725 -1.2998  0.0373
  473MOL0     C63759  11.302  11.112   5.882 -0.7982  0.2389 -0.3466
  473MOL0     C63760  11.340  11.045   6.010  0.0319 -0.3901 -0.1883
  473MOL0     C63761  11.425  11.144   6.093  0.0633  0.2564 -0.1420
  473MOL0     C63762  11.463  11.070   6.217  0.0102  0.0943 -0.3997
  473MOL0     C63763  11.583  11.127   6.297  0.2229 -0.2425  0.9809
  473MOL0    Cl63764  11.614  11.061   6.463 -0.1221 -0.1901 -0.3432
  473MOL0     C63765  10.675  10.907   5.819 -0.3595 -0.7577 -0.4036
  473MOL0     C63766  10.555  10.879   5.753  0.0383 -1.1194  1.0699
  473MOL0     O63767  10.454  10.582   5.558 -0.2371  0.1341  0.1714
  473MOL0     C63768  10.195  10.518   5.503  0.5924  0.4076 -0.0166
  473MOL0     C63769  10.061  10.482   5.485 -0.2313 -0.3902 -0.9097
  473MOL0     N63770   9.753  10.532   4.959 -0.1818  0.1845  1.0114
  473MOL0     N63771   9.683  10.566   4.858 -0.0125  0.6605  1.1549
  473MOL0     C63772   9.270   9.602   4.793  0.3732  0.1440  0.6519
  473MOL0     C63773   9.149   9.542   4.777 -0.3045 -0.3138 -0.6662
  473MOL0     C63774   8.792   9.314   4.606 -0.3780  0.1567  0.2093
  473MOL0     C63775   8.769   9.288   4.744 -0.3034  0.3471  0.2358
  473MOL0     C63776   8.674   9.200   4.797 -0.4137 -0.6846 -0.0198
  473MOL0     C63777   8.575   9.146   4.710  0.2862 -0.5380 -0.3532
  473MOL0     O63778   8.468   9.067   4.746  0.2815  0.1086 -0.6790
  473MOL0     C63779   8.344   9.129   4.732  0.7132  0.4376 -0.0632
  473MOL0     C63780   8.235   9.064   4.818  0.3955 -0.1650  0.5140
  473MOL0     C63781   8.104   9.154   4.807 -0.5740  0.1510 -0.0799
  473MOL0     C63782   8.017   9.115   4.687 -0.0177  0.4019 -0.6457
  473MOL0     C63783   7.881   9.166   4.693 -0.6130  0.0168  0.1844
  473MOL0     C63784   7.773   9.210   4.682 -0.0558 -0.4976  0.0418
  473MOL0     C63785   8.598   9.169   4.579  0.1734  0.1907  0.2427
  473MOL0     C63786   8.704   9.251   4.521  0.4957  0.6724  0.0839
  473MOL0     C63787   8.704   9.235   4.365 -1.3679 -0.7076 -0.2768
  473MOL0     H63788   9.153   9.489   4.448  1.8830 -2.1373  0.5304
  473MOL0     H63789   9.351   9.639   4.468  2.9678 -1.8397 -0.9123
  473MOL0     H63790   9.625   9.817   4.626  0.2416 -1.3151  0.4754
  473MOL0     H63791   9.558   9.690   4.530  1.6362  0.9072 -0.4924
  473MOL0     H63792   9.344   9.870   4.539 -0.7601 -1.7814 -1.7322
  473MOL0     H63793   9.474   9.896   4.418 -1.0532 -3.4962 -0.1769
  473MOL0     H63794   9.595  10.037   4.606 -0.1115  3.0825 -1.7276
  473MOL0     H63795   9.434  10.015   4.695  1.2276 -0.4559  0.5559
  473MOL0     H63796   9.494  10.154   4.431 -0.2456  1.4550 -0.4277
  473MOL0     H63797   9.333  10.135   4.506  0.2392  1.6334  0.4024
  473MOL0     H63798   9.415  10.238   4.704  2.5089 -2.5883  0.9401
  473MOL0     H63799   9.579  10.246   4.650 -0.4551 -2.6255  0.4422
  473MOL0     H63800   9.472  10.383   4.448  0.3444 -1.4679 -0.2672
  473MOL0     H63801   9.325  10.380   4.533  0.2021 -0.0863  0.2022
  473MOL0     H63802   9.423  10.584   4.557 -1.9969 -1.6323 -1.3462
  473MOL0     H63803   9.587  10.516   4.610 -0.2011 -0.2463  1.7608
  473MOL0     H63804   9.440  10.643   4.770  1.0367  0.6098 -3.6120
  473MOL0     H63805   9.356  10.485   4.783  0.6086 -2.0256 -1.7516
  473MOL0     H63806   9.494  10.316   4.976  1.2618 -1.2815  0.6464
  473MOL0     H63807   9.687  10.242   5.127 -1.7012  1.3046 -3.6331
  473MOL0     H63808   9.848  10.317   5.117 -0.0346 -0.8637 -2.8344
  473MOL0     H63809   9.750  10.511   5.254  2.8266 -0.0965 -0.4991
  473MOL0     H63810   9.619  10.414   5.284  0.1649  0.1508  0.1192
  473MOL0     H63811   9.919  10.340   5.349  1.0363 -0.7750  1.8319
  473MOL0     H63812   9.782  10.238   5.391  0.1595  0.6581  1.2451
  473MOL0     H63813   9.820  10.363   5.585 -2.1510  1.2671  2.2684
  473MOL0     H63814   9.672  10.404   5.507 -1.0627 -0.4838 -2.8427
  473MOL0     H63815   9.923  10.785   5.440 -0.3788 -0.7474 -0.1923
  473MOL0     H63816  10.167  10.851   5.475  1.8594 -1.2841  0.2409
  473MOL0     H63817  10.682  10.752   5.460  0.8342  3.0585 -1.7442
  473MOL0     H63818  10.884  10.809   5.578 -0.4726 -1.6660 -0.6630
  473MOL0     H63819  10.933  11.100   5.724  3.5689  0.0499 -0.2546
  473MOL0     H63820  10.842  11.098   5.883  1.2582 -0.7022  3.4625
  473MOL0     H63821  11.031  11.206   5.922 -1.6542 -1.1141  1.0477
  473MOL0     H63822  11.043  11.054   6.010  1.0363  0.3100  0.6585
  473MOL0     H63823  11.186  10.939   5.830 -0.1809 -1.3397 -0.6025
  473MOL0     H63824  11.167  11.071   5.722 -0.2954  1.5465  0.6180
  473MOL0     H63825  11.285  11.218   5.903  0.7859  0.2896  0.9325
  473MOL0     H63826  11.390  11.093   5.820 -0.9435 -1.0678 -0.1737
  473MOL0     H63827  11.389  10.950   5.988  0.4385  0.3376 -2.7374
  473MOL0     H63828  11.252  11.027   6.072 -0.0679  4.0340  1.2755
  473MOL0     H63829  11.520  11.172   6.047 -0.3525 -0.3920 -1.4511
  473MOL0     H63830  11.353  11.221   6.119 -1.2976 -1.3118  0.9719
  473MOL0     H63831  11.472  10.964   6.191 -0.1164  0.4908 -2.1893
  473MOL0     H63832  11.380  11.086   6.287  0.7685  0.4088  0.4435
  473MOL0     H63833  11.675  11.115   6.240 -0.6860  1.4775 -0.9666
  473MOL0     H63834  11.574  11.235   6.312  0.8858 -0.4277  3.0950
  473MOL0     H63835  10.675  10.956   5.916  4.2863  2.0123 -1.4845
  473MOL0     H63836  10.457  10.878   5.799 -1.9555 -0.1443 -2.7147
  473MOL0     H63837  10.266  10.437   5.515  2.2312  1.5492 -1.5022
  473MOL0     H63838  10.049  10.375   5.486 -2.0796 -0.2085  0.0294
  473MOL0     H63839   9.295   9.623   4.897 -0.7068 -0.5976  1.0827
  473MOL0     H63840   9.086   9.516   4.861 -1.9042 -0.7782 -1.9468
  473MOL0     H63841   8.837   9.322   4.821 -1.2630  0.8609  0.8639
  473MOL0     H63842   8.667   9.182   4.904 -1.6573  0.3823  0.1049
  473MOL0     H63843   8.323   9.122   4.625  3.1269 -2.2200 -0.4880
  473MOL0     H63844   8.360   9.235   4.756  2.2197  0.2658 -0.2246
  473MOL0     H63845   8.269   9.071   4.921  4.3231  4.4246 -0.7412
  473MOL0     H63846   8.224   8.961   4.782 -1.6970 -0.6507  2.3298
  473MOL0     H63847   8.133   9.259   4.801 -0.3278  0.2598  2.0560
  473MOL0     H63848   8.046   9.134   4.897  1.2167 -0.0014  1.0869
  473MOL0     H63849   8.072   9.143   4.597 -0.2938  0.8413 -0.6788
  473MOL0     H63850   8.008   9.006   4.683 -0.8940  0.5058 -2.4695
  473MOL0     H63851   7.673   9.250   4.681  1.1677  2.9424  0.9935
  473MOL0     H63852   8.535   9.111   4.512 -0.2127  1.7366 -0.7703
  473MOL0     H63853   8.630   9.307   4.328  3.2529  3.4598 -2.5712
  473MOL0     H63854   8.803   9.256   4.324 -0.6344  0.2276  1.8268
  473MOL0     H63855   8.681   9.132   4.334  0.5833 -1.2792  0.0361
  474MOL0     O63856   3.669   0.784   0.240 -0.3622 -0.0242  0.0314
  474MOL0     C63857   3.641   0.822   0.126 -0.4885  0.1340  0.6409
  474MOL0     O63858   3.524   0.789   0.058  0.3409 -0.5397  0.9456
  474MOL0     C63859   3.415   0.743   0.123  0.8110 -0.3760 -0.1297
  474MOL0     C63860   3.328   0.832   0.192 -0.0548 -0.3695 -0.0474
  474MOL0     C63861   3.200   0.788   0.239  0.2573  0.1475 -0.9970
  474MOL0     C63862   3.167   0.654   0.232 -0.1486  0.2488 -0.8996
  474MOL0     O63863   3.050   0.608   0.289  0.1290 -0.0149 -0.9420
  474MOL0     C63864   3.055   0.474   0.358  0.6868 -0.4524  0.2947
  474MOL0     C63865   2.920   0.435   0.419 -0.1332 -0.3506 -0.4027
  474MOL0     C63866   2.930   0.305   0.489 -0.6947 -0.7426 -0.1068
  474MOL0     C63867   3.037   0.295   0.602  0.5185 -0.2945  0.4727
  474MOL0     C63868   3.003   0.184   0.706 -0.1691 -0.1355  0.0329
  474MOL0     C63869   3.032   0.043   0.649 -0.1097  0.3569 -0.0899
  474MOL0     C63870   3.056  -0.064   0.755 -0.0554 -0.5179  0.4165
  474MOL0     C63871   3.201  -0.061   0.791 -0.3616 -0.5039 -0.4258
  474MOL0     N63872   3.229  -0.193   0.863 -0.1765 -1.1213  0.1025
  474MOL0     C63873   3.178  -0.239   0.978 -0.1983  0.1869 -0.0631
  474MOL0     C63874   3.240  -0.366   0.992 -0.2770 -0.9332 -0.1880
  474MOL0     C63875   3.210  -0.456   1.100  0.8090  0.3811 -0.0943
  474MOL0     C63876   3.291  -0.405   1.224  0.2055 -0.1522 -0.3404
  474MOL0     C63877   3.281  -0.518   1.327  0.2749 -0.4908 -0.0008
  474MOL0     C63878   3.327  -0.477   1.463  0.3456 -0.5583 -0.5316
  474MOL0     O63879   3.337  -0.599   1.543  0.3309  0.0339 -0.5011
  474MOL0     C63880   3.440  -0.679   1.557 -0.2455 -0.4039 -0.1378
  474MOL0     C63881   3.570  -0.631   1.559 -0.5327 -0.5612  0.3358
  474MOL0     C63882   3.677  -0.723   1.596 -0.0731 -0.1994  1.1398
  474MOL0     C63883   3.649  -0.855   1.619 -0.0311 -0.1938 -0.0311
  474MOL0     C63884   3.760  -0.954   1.649 -1.1548  0.2325 -0.1976
  474MOL0     O63885   3.885  -0.894   1.661 -0.0197  0.5993  0.4053
  474MOL0     C63886   4.003  -0.958   1.672 -0.4287  0.2730  0.5609
  474MOL0     C63887   4.102  -0.867   1.718 -0.2121  0.8163  0.4601
  474MOL0     C63888   4.230  -0.928   1.742 -0.3435 -0.6496 -0.0209
  474MOL0     C63889   4.253  -1.064   1.723 -0.2559  0.1069  0.3083
  474MOL0     O63890   4.379  -1.108   1.742  0.6245 -0.7667 -0.6393
  474MOL0     C63891   4.385  -1.239   1.811 -0.5539 -0.6575  0.6692
  474MOL0     C63892   4.513  -1.244   1.895  0.1264 -0.6744 -0.3404
  474MOL0     C63893   4.538  -1.385   1.931 -0.0689  0.6079 -0.4726
  474MOL0     C63894   4.447  -1.420   2.050 -0.3414  0.4925 -0.7319
  474MOL0     C63895   4.460  -1.568   2.087 -0.1668  0.0854 -0.5352
  474MOL0     C63896   4.444  -1.665   1.976 -0.5554 -0.8477  0.0901
  474MOL0     C63897   4.423  -1.805   2.036 -0.8516  0.3087  1.0410
  474MOL0     C63898   4.470  -1.912   1.938 -0.3219 -0.1037  1.0013
  474MOL0    Cl63899   4.467  -2.063   2.022  0.1547  0.0232 -0.2262
  474MOL0     C63900   4.150  -1.147   1.663 -0.7457 -0.4946  0.3865
  474MOL0     C63901   4.028  -1.094   1.647  0.7832  0.5265 -0.1774
  474MOL0     O63902   3.737  -1.074   1.643  0.3208 -0.1804  0.5279
  474MOL0     C63903   3.512  -0.901   1.622 -0.1250 -0.0409 -1.1618
  474MOL0     C63904   3.411  -0.811   1.605  0.0228 -0.9316  0.0301
  474MOL0     N63905   3.328  -0.377   0.891  0.0665 -1.0341  0.3097
  474MOL0     N63906   3.330  -0.270   0.821  0.4551 -1.3831 -0.0814
  474MOL0     C63907   3.252   0.565   0.162 -1.1533 -0.5086 -0.8660
  474MOL0     C63908   3.366   0.613   0.103 -0.2507  0.0919 -0.9265
  474MOL0     C63909   3.748   0.882   0.042 -0.2268  0.1783  0.6439
  474MOL0     C63910   3.696   0.963  -0.060  0.1754  0.1053  0.0181
  474MOL0     C63911   3.774   1.025  -0.157  0.3692  0.1314 -0.5686
  474MOL0     C63912   3.908   1.017  -0.146  0.3793 -1.2415 -0.6893
  474MOL0     O63913   3.983   1.100  -0.221 -1.4713 -0.5284  0.3159
  474MOL0     C63914   4.043   1.025  -0.328 -0.6376  0.3840 -0.5335
  474MOL0     C63915   4.182   0.967  -0.288 -0.3613 -0.1633 -0.0807
  474MOL0     C63916   4.259   0.927  -0.408  0.3707  0.2356  0.6725
  474MOL0     C63917   4.213   0.805  -0.486  0.6253  0.6417  0.0679
  474MOL0     C63918   4.139   0.833  -0.609 -0.6270 -0.1949 -0.0173
  474MOL0     C63919   4.071   0.842  -0.713  0.3445  0.4946  0.7079
  474MOL0     C63920   3.965   0.951  -0.035  0.3578 -0.1493  0.0350
  474MOL0     C63921   3.887   0.873   0.053 -0.2302  0.1694  0.2404
  474MOL0     C63922   3.962   0.801   0.175  0.4580 -0.2350 -0.3147
  474MOL0     H63923   3.354   0.933   0.220 -1.8159  0.5151 -1.4294
  474MOL0     H63924   3.126   0.851   0.286 -0.7259 -2.3847  1.0834
  474MOL0     H63925   3.073   0.398   0.282  3.1541  0.5424 -0.2176
  474MOL0     H63926   3.134   0.475   0.434 -0.1444  5.0427  1.5419
  474MOL0     H63927   2.847   0.435   0.338  2.9326  3.9495 -3.5463
  474MOL0     H63928   2.894   0.511   0.493 -3.3401  0.3968 -2.1114
  474MOL0     H63929   2.947   0.224   0.417  2.2895 -2.4083  2.2461
  474MOL0     H63930   2.833   0.291   0.538 -1.3180 -0.5833 -1.2538
  474MOL0     H63931   3.130   0.263   0.555  1.5725 -0.3384  2.4696
  474MOL0     H63932   3.040   0.393   0.650  1.0107 -0.8503  1.6331
  474MOL0     H63933   3.064   0.193   0.796 -1.6116 -0.1191  1.0524
  474MOL0     H63934   2.899   0.196   0.739  0.0877  0.6330  0.5997
  474MOL0     H63935   2.947   0.014   0.587 -2.6262  1.1637  2.6978
  474MOL0     H63936   3.126   0.041   0.594 -0.0004  0.0840  0.1069
  474MOL0     H63937   3.032  -0.160   0.708  3.5863 -2.9384  2.9464
  474MOL0     H63938   2.987  -0.052   0.839 -1.7629  0.5167 -1.0555
  474MOL0     H63939   3.258  -0.068   0.697 -2.2996 -0.6515 -1.6522
  474MOL0     H63940   3.225   0.019   0.862 -1.0826 -0.6158 -0.0478
  474MOL0     H63941   3.110  -0.188   1.045  2.3268  0.6781  2.2950
  474MOL0     H63942   3.104  -0.459   1.126  1.0474  1.5866  1.1239
  474MOL0     H63943   3.234  -0.561   1.077 -0.6189  0.5292 -2.6430
  474MOL0     H63944   3.394  -0.379   1.196  0.5873 -0.4254  0.7389
  474MOL0     H63945   3.244  -0.319   1.272 -0.2662 -0.1075 -0.8836
  474MOL0     H63946   3.337  -0.600   1.283 -1.2069 -0.9737 -1.0599
  474MOL0     H63947   3.177  -0.550   1.339 -0.0357  0.8583  1.2925
  474MOL0     H63948   3.249  -0.418   1.512 -0.5612 -2.4448  0.3741
  474MOL0     H63949   3.422  -0.422   1.455  0.8842 -1.6124 -1.7511
  474MOL0     H63950   3.591  -0.529   1.527 -2.0853 -0.3011  0.0567
  474MOL0     H63951   3.777  -0.681   1.597 -0.9785  2.0758  1.4513
  474MOL0     H63952   4.082  -0.761   1.734 -2.0518  0.6986 -0.6960
  474MOL0     H63953   4.320  -0.874   1.769 -0.9551  1.4532 -1.8601
  474MOL0     H63954   4.296  -1.248   1.875 -0.7567  1.4861  0.7472
  474MOL0     H63955   4.383  -1.315   1.732  1.8344  0.4684 -0.5937
  474MOL0     H63956   4.594  -1.209   1.832 -0.5281 -1.6503 -1.7854
  474MOL0     H63957   4.498  -1.173   1.977  0.4076 -3.2711  2.1214
  474MOL0     H63958   4.522  -1.450   1.844  1.4887 -1.2972  0.5874
  474MOL0     H63959   4.642  -1.399   1.962 -0.8539 -4.2139  0.7505
  474MOL0     H63960   4.345  -1.386   2.028 -0.4090  1.1089  0.4492
  474MOL0     H63961   4.480  -1.364   2.138 -0.6862  1.0835 -0.9753
  474MOL0     H63962   4.389  -1.592   2.167 -1.4408  2.5940 -0.8089
  474MOL0     H63963   4.562  -1.576   2.124  0.9022  0.8394 -3.1176
  474MOL0     H63964   4.362  -1.650   1.905 -1.7414 -2.2844  1.0850
  474MOL0     H63965   4.531  -1.663   1.910 -2.1640  0.1151 -2.0932
  474MOL0     H63966   4.325  -1.836   2.074 -0.5350  0.8095  2.2934
  474MOL0     H63967   4.482  -1.803   2.128  0.8375  0.0617  0.0167
  474MOL0     H63968   4.408  -1.906   1.848  2.5117 -2.6741 -1.3625
  474MOL0     H63969   4.574  -1.886   1.914  0.4582 -0.4981  3.5591
  474MOL0     H63970   4.176  -1.252   1.648  1.6476 -0.0082  0.7167
  474MOL0     H63971   3.948  -1.159   1.614 -0.1146  2.2005 -1.4883
  474MOL0     H63972   3.493  -1.003   1.654 -1.6162  0.0724 -1.6199
  474MOL0     H63973   3.306  -0.830   1.620 -0.3793  0.2926 -1.0178
  474MOL0     H63974   3.215   0.464   0.158 -2.8268 -0.1249  2.0040
  474MOL0     H63975   3.436   0.555   0.044  0.7227  2.7155 -2.5257
  474MOL0     H63976   3.589   0.979  -0.050  0.1617 -0.9062  2.0107
  474MOL0     H63977   3.727   1.071  -0.243 -2.1941 -2.5794 -0.7533
  474MOL0     H63978   4.050   1.092  -0.414  1.4411  0.6257 -0.2348
  474MOL0     H63979   3.980   0.943  -0.362 -2.0120  0.9459  0.5417
  474MOL0     H63980   4.168   0.878  -0.226  2.6754 -0.9859 -0.4207
  474MOL0     H63981   4.241   1.045  -0.238 -0.0051 -0.2878 -0.3080
  474MOL0     H63982   4.361   0.912  -0.371  0.3726 -0.4515  0.3904
  474MOL0     H63983   4.270   1.010  -0.478  0.0265  1.9450  2.5401
  474MOL0     H63984   4.309   0.759  -0.514  0.2272  0.1744 -0.5678
  474MOL0     H63985   4.148   0.737  -0.430 -1.1428  2.9027  0.9095
  474MOL0     H63986   4.020   0.869  -0.803  2.4348 -0.8250 -0.9601
  474MOL0     H63987   4.072   0.942  -0.017 -0.0813 -0.8875  2.6982
  474MOL0     H63988   4.069   0.789   0.153  0.1691 -1.7528 -0.9733
  474MOL0     H63989   3.936   0.860   0.263 -2.3924  0.5314 -1.5601
  474MOL0     H63990   3.928   0.699   0.192  1.7253 -0.3720  1.7819
  475MOL0     O63991   0.014   2.569   3.945 -0.1974 -0.0089  0.3295
  475MOL0     C63992  -0.000   2.464   3.889 -0.2114  0.9917 -0.3324
  475MOL0     O63993   0.091   2.400   3.805 -0.3328 -0.0914  0.1696
  475MOL0     C63994   0.208   2.458   3.794  0.2749 -0.6674 -0.7720
  475MOL0     C63995   0.241   2.510   3.669  0.6920  0.9842  0.4165
  475MOL0     C63996   0.369   2.563   3.660  1.3470 -0.7376 -0.0124
  475MOL0     C63997   0.458   2.564   3.767  0.2163 -0.0667  1.0629
  475MOL0     O63998   0.588   2.608   3.757 -0.1284 -0.5921 -0.5182
  475MOL0     C63999   0.606   2.743   3.711 -0.2177 -0.8019  0.2107
  475MOL0     C64000   0.715   2.805   3.799 -0.2730 -0.2084 -1.0779
  475MOL0     C64001   0.852   2.744   3.788 -0.0293  0.7011  0.0702
  475MOL0     C64002   0.894   2.694   3.921  0.8480 -0.3319 -0.4578
  475MOL0     C64003   1.019   2.604   3.920  1.2477 -0.3160 -0.5826
  475MOL0     C64004   1.144   2.678   3.886 -0.6939 -0.6802  0.0446
  475MOL0     C64005   1.262   2.574   3.891 -0.1864 -0.9867  0.3803
  475MOL0     C64006   1.369   2.608   3.787 -0.1815  0.3610 -0.6811
  475MOL0     N64007   1.408   2.741   3.796 -0.7135  0.0893  0.2908
  475MOL0     C64008   1.482   2.808   3.900  1.4077  0.6629  1.0430
  475MOL0     C64009   1.489   2.938   3.858 -0.5223  0.2531  0.2587
  475MOL0     C64010   1.551   3.062   3.934 -0.1097  0.4458 -0.4418
  475MOL0     C64011   1.700   3.075   3.900 -0.6367 -0.3743  0.7191
  475MOL0     C64012   1.779   2.938   3.917  0.5280  0.2424  0.6773
  475MOL0     C64013   1.924   2.953   3.858  0.0139 -0.3972  0.2897
  475MOL0     O64014   2.001   3.024   3.954 -0.3197 -0.1875 -0.0445
  475MOL0     C64015   2.138   3.022   3.936 -0.3392  0.0182  0.1645
  475MOL0     C64016   2.199   3.056   3.812  0.3218  0.0993 -0.2742
  475MOL0     C64017   2.343   3.073   3.788  0.0195 -0.1490  0.8157
  475MOL0     C64018   2.423   3.048   3.903 -0.7239  0.4848  0.2114
  475MOL0     C64019   2.570   3.086   3.900 -0.5999  0.3083 -0.3153
  475MOL0     O64020   2.626   3.154   3.788 -0.4250 -0.1996  0.0287
  475MOL0     C64021   2.751   3.216   3.806  0.2257 -0.2776  0.0765
  475MOL0     C64022   2.864   3.157   3.751  0.2327 -0.1210 -0.1801
  475MOL0     C64023   2.989   3.221   3.763 -0.4390 -0.1115  0.8372
  475MOL0     C64024   3.002   3.348   3.829  0.9165  0.0012 -0.5761
  475MOL0     O64025   3.126   3.404   3.844  0.5068  0.1862  0.2651
  475MOL0     C64026   3.129   3.519   3.930 -0.2392 -0.5465  0.4189
  475MOL0     C64027   3.275   3.577   3.912 -0.3235 -0.0407  0.0236
  475MOL0     C64028   3.305   3.677   4.028 -1.4718  0.9985 -0.2371
  475MOL0     C64029   3.230   3.805   4.025 -0.5781  0.2060 -0.1766
  475MOL0     C64030   3.286   3.896   4.138 -0.7780  0.8429 -0.0907
  475MOL0     C64031   3.180   3.997   4.170  0.8201  0.2889 -0.4968
  475MOL0     C64032   3.233   4.110   4.263  0.5393 -1.4914 -0.5139
  475MOL0     C64033   3.170   4.248   4.237 -0.2143  0.2081 -0.3030
  475MOL0    Cl64034   3.229   4.322   4.092 -0.1798 -0.0997  0.2428
  475MOL0     C64035   2.880   3.410   3.870 -0.7928  0.3808  0.3305
  475MOL0     C64036   2.761   3.342   3.864 -0.7872 -0.3071 -0.9881
  475MOL0     O64037   2.630   3.054   4.001  0.0084  0.2339 -0.7307
  475MOL0     C64038   2.365   3.013   4.028 -0.7829  0.6728  0.9782
  475MOL0     C64039   2.228   3.001   4.046  0.2481 -1.0254  0.6426
  475MOL0     N64040   1.452   2.952   3.727  0.4501  0.1876 -0.6297
  475MOL0     N64041   1.388   2.841   3.701 -0.7829 -0.3320  0.0931
  475MOL0     C64042   0.413   2.518   3.894 -0.7119  0.2280 -0.4133
  475MOL0     C64043   0.286   2.457   3.907 -0.0892  0.1973  0.5793
  475MOL0     C64044  -0.120   2.381   3.921  0.6626 -0.6768 -0.0349
  475MOL0     C64045  -0.197   2.326   3.824  0.6307  0.1103  0.2959
  475MOL0     C64046  -0.305   2.252   3.850  0.1769  0.2817 -0.5254
  475MOL0     C64047  -0.351   2.231   3.982 -0.3301 -0.3231  0.6340
  475MOL0     O64048  -0.472   2.174   4.014 -0.6598 -0.1502 -0.5258
  475MOL0     C64049  -0.545   2.101   3.918  0.3129 -0.8577  0.5983
  475MOL0     C64050  -0.532   1.949   3.942  0.2788 -0.5016  0.0803
  475MOL0     C64051  -0.605   1.852   3.860  1.0438 -0.4388 -0.8915
  475MOL0     C64052  -0.756   1.875   3.885 -0.0015 -0.1721  0.8942
  475MOL0     C64053  -0.834   1.763   3.843  0.1080 -0.1976  0.5548
  475MOL0     C64054  -0.898   1.671   3.798 -0.6664  0.0364 -0.1225
  475MOL0     C64055  -0.290   2.300   4.077 -0.0341 -0.6416 -0.4286
  475MOL0     C64056  -0.163   2.362   4.059  0.6650 -0.4907 -0.2571
  475MOL0     C64057  -0.107   2.439   4.174  0.6471  0.7572  0.1395
  475MOL0     H64058   0.174   2.476   3.591  3.6827  0.4348 -2.1246
  475MOL0     H64059   0.391   2.592   3.557 -0.1312 -0.2013 -0.2032
  475MOL0     H64060   0.659   2.724   3.617 -0.0804 -0.2673  0.1750
  475MOL0     H64061   0.516   2.804   3.705 -1.8084 -2.8659  1.7617
  475MOL0     H64062   0.669   2.814   3.898 -0.0282  7.0260 -1.0995
  475MOL0     H64063   0.738   2.910   3.777 -0.9733 -0.6993 -4.7766
  475MOL0     H64064   0.932   2.805   3.746 -0.2551 -1.3412 -3.7280
  475MOL0     H64065   0.844   2.663   3.715  0.3448 -1.5561  2.4030
  475MOL0     H64066   0.906   2.779   3.988  1.5659 -0.6745 -0.1445
  475MOL0     H64067   0.812   2.627   3.949  0.7787 -0.8262 -1.7687
  475MOL0     H64068   1.033   2.558   4.019  2.1681  0.0164 -0.5430
  475MOL0     H64069   1.009   2.530   3.841 -0.8226 -2.1977  1.3096
  475MOL0     H64070   1.136   2.728   3.789 -0.4334  1.3749  1.0413
  475MOL0     H64071   1.167   2.759   3.955 -4.4776  1.3164 -0.7797
  475MOL0     H64072   1.215   2.477   3.877  2.3138 -2.4805  1.6640
  475MOL0     H64073   1.311   2.585   3.988  2.8825 -0.1371 -1.1513
  475MOL0     H64074   1.456   2.547   3.815  0.2426  1.8850  1.5426
  475MOL0     H64075   1.352   2.574   3.685  2.6601  0.5502 -1.3069
  475MOL0     H64076   1.514   2.762   3.992  0.7216 -1.6784  0.1961
  475MOL0     H64077   1.493   3.144   3.891  1.0275 -0.5655 -4.3767
  475MOL0     H64078   1.533   3.048   4.041 -0.6777  0.2290 -0.5613
  475MOL0     H64079   1.707   3.111   3.798 -1.5628 -0.2962  0.6699
  475MOL0     H64080   1.749   3.144   3.969  0.6906  0.1684 -0.7089
  475MOL0     H64081   1.735   2.859   3.856 -1.3135  3.6132 -2.8367
  475MOL0     H64082   1.781   2.909   4.022  0.9545  0.5959  0.7704
  475MOL0     H64083   1.923   2.996   3.758  1.0375 -0.6396  0.1607
  475MOL0     H64084   1.968   2.853   3.853  1.7709  0.4144 -2.1010
  475MOL0     H64085   2.141   3.077   3.723 -1.6870 -5.1184 -0.5656
  475MOL0     H64086   2.380   3.097   3.689  1.7629 -0.1525  1.4321
  475MOL0     H64087   2.860   3.055   3.714  0.8923 -0.9338  1.8206
  475MOL0     H64088   3.083   3.175   3.732  0.4156  0.5243  2.3579
  475MOL0     H64089   3.069   3.608   3.909  1.8461  0.5822 -1.1863
  475MOL0     H64090   3.113   3.503   4.037  1.4096 -0.1040  0.7549
  475MOL0     H64091   3.353   3.501   3.917 -0.7020 -0.4250  0.0948
  475MOL0     H64092   3.279   3.636   3.820 -1.9155 -1.3582 -0.9344
  475MOL0     H64093   3.305   3.626   4.124  0.4493  0.4054 -0.5126
  475MOL0     H64094   3.412   3.693   4.011 -0.8663 -0.7758  1.6116
  475MOL0     H64095   3.123   3.791   4.043 -1.4019  3.5640 -1.6228
  475MOL0     H64096   3.237   3.856   3.928 -3.4837 -2.3875 -1.9232
  475MOL0     H64097   3.370   3.951   4.093 -0.5639  0.7595  0.2022
  475MOL0     H64098   3.315   3.835   4.224 -0.7885  0.8873 -0.0553
  475MOL0     H64099   3.139   4.041   4.079  0.9730 -2.3713 -1.9216
  475MOL0     H64100   3.109   3.945   4.235 -0.2628  0.6729 -1.3504
  475MOL0     H64101   3.341   4.122   4.253  0.4833 -0.8551 -0.4188
  475MOL0     H64102   3.207   4.090   4.368 -0.2851  1.0831 -0.1418
  475MOL0     H64103   3.061   4.246   4.242 -0.1889 -0.9653  0.1049
  475MOL0     H64104   3.180   4.323   4.316  0.9339 -0.2446  0.0045
  475MOL0     H64105   2.876   3.502   3.927 -2.4179 -0.0443  0.9668
  475MOL0     H64106   2.668   3.385   3.901  0.3649  1.6696 -0.2316
  475MOL0     H64107   2.440   3.010   4.106  0.2458 -2.9197  0.0249
  475MOL0     H64108   2.185   2.995   4.145  0.3261 -0.3806  0.7247
  475MOL0     H64109   0.472   2.534   3.984 -2.1232 -0.4665  0.6720
  475MOL0     H64110   0.241   2.416   3.997 -1.8906  3.8214  1.5444
  475MOL0     H64111  -0.160   2.337   3.723 -0.5352  1.5382 -0.0171
  475MOL0     H64112  -0.350   2.224   3.755  1.0983 -2.5287 -0.2400
  475MOL0     H64113  -0.529   2.134   3.815  2.4495  3.0197  1.9671
  475MOL0     H64114  -0.652   2.123   3.926  0.3400 -0.3716 -0.2447
  475MOL0     H64115  -0.566   1.939   4.045 -0.7546  0.4641 -0.1346
  475MOL0     H64116  -0.424   1.931   3.942  0.4856  0.5606 -1.3381
  475MOL0     H64117  -0.584   1.750   3.895 -2.7694 -0.3626  2.4293
  475MOL0     H64118  -0.583   1.865   3.754 -1.2294  0.6310 -1.2887
  475MOL0     H64119  -0.781   1.894   3.990  1.3664 -0.0494  1.2177
  475MOL0     H64120  -0.786   1.969   3.838 -0.2185 -1.5083 -1.8335
  475MOL0     H64121  -0.948   1.577   3.785 -0.0316 -0.4665  0.9311
  475MOL0     H64122  -0.333   2.292   4.176  1.1312 -0.4235  0.1171
  475MOL0     H64123  -0.131   2.383   4.264 -1.9858  2.7339  0.7986
  475MOL0     H64124   0.001   2.456   4.162  1.1517 -3.0809 -2.7241
  475MOL0     H64125  -0.159   2.535   4.175 -0.5938  0.1846 -2.1129
  476MOL0     O64126   9.384   1.846   6.878 -0.2470 -0.3924  0.1299
  476MOL0     C64127   9.317   1.912   6.800  1.1927 -0.0769 -0.1212
  476MOL0     O64128   9.328   2.050   6.775  0.3695  1.2550  0.1766
  476MOL0     C64129   9.443   2.121   6.794 -0.9310  0.6301 -0.8203
  476MOL0     C64130   9.430   2.245   6.856  0.5390  0.9077  0.3327
  476MOL0     C64131   9.546   2.318   6.891 -0.4871 -0.3642  0.0792
  476MOL0     C64132   9.675   2.284   6.854  0.1947  0.5987 -0.4819
  476MOL0     O64133   9.781   2.378   6.865  0.3979 -0.6367  0.1487
  476MOL0     C64134   9.909   2.331   6.814  0.1372 -0.1331 -0.5700
  476MOL0     C64135  10.016   2.441   6.829  0.3666  0.5355 -0.0054
  476MOL0     C64136  10.150   2.384   6.804  0.2409  1.0317  0.1152
  476MOL0     C64137  10.257   2.496   6.846  0.4198 -0.0319  0.0945
  476MOL0     C64138  10.411   2.452   6.809 -0.3921 -0.6561 -0.0647
  476MOL0     C64139  10.498   2.572   6.808 -0.2053 -0.8257 -0.0898
  476MOL0     C64140  10.647   2.552   6.851 -0.3718 -0.0507 -0.5484
  476MOL0     C64141  10.734   2.670   6.810 -0.5856  0.3034 -0.0133
  476MOL0     N64142  10.847   2.636   6.733 -0.7267 -0.0238  1.0710
  476MOL0     C64143  10.966   2.590   6.785  0.7990  0.1772  0.4033
  476MOL0     C64144  11.059   2.580   6.683  0.6680  0.3683 -0.1626
  476MOL0     C64145  11.204   2.538   6.685  0.4211 -0.3996  0.1513
  476MOL0     C64146  11.218   2.397   6.743  0.6586  0.7890  0.3496
  476MOL0     C64147  11.360   2.358   6.802 -0.5782  0.7015 -0.6336
  476MOL0     C64148  11.397   2.424   6.940  0.1529 -0.2250  0.4234
  476MOL0     O64149  11.410   2.564   6.938 -0.5878 -0.1981  1.1455
  476MOL0     C64150  11.530   2.625   6.921  0.2657 -0.5431  1.2985
  476MOL0     C64151  11.535   2.755   6.969 -0.9651  0.0197 -0.5374
  476MOL0     C64152  11.657   2.827   6.941  1.0565  0.2684 -0.7885
  476MOL0     C64153  11.762   2.781   6.867  0.0980 -0.8482  1.8266
  476MOL0     C64154  11.875   2.858   6.844  0.1098  0.2791 -0.2442
  476MOL0     O64155  11.909   2.951   6.941 -0.1596 -0.4133 -0.9948
  476MOL0     C64156  11.990   3.054   6.917 -0.3981  0.0599  0.0624
  476MOL0     C64157  12.092   3.101   7.002 -0.6745  0.8810  0.3348
  476MOL0     C64158  12.163   3.217   6.963  0.1247 -1.2503 -0.4177
  476MOL0     C64159  12.127   3.286   6.851 -0.1961  0.1330  0.0774
  476MOL0     O64160  12.198   3.391   6.803  0.7422  0.0517 -0.2628
  476MOL0     C64161  12.339   3.391   6.810  0.0475  0.3672 -0.3939
  476MOL0     C64162  12.388   3.507   6.722  0.8680  0.1627  0.2258
  476MOL0     C64163  12.527   3.498   6.666  0.9978 -0.2773  0.3035
  476MOL0     C64164  12.622   3.509   6.786  0.1397  0.5475 -0.7463
  476MOL0     C64165  12.747   3.586   6.744  0.6215 -0.8102 -0.2279
  476MOL0     C64166  12.727   3.737   6.773 -0.5966  0.1194  0.2490
  476MOL0     C64167  12.860   3.790   6.791 -0.9811  0.2014  0.5818
  476MOL0     C64168  12.873   3.927   6.752  0.1561  0.9384 -0.4100
  476MOL0    Cl64169  12.779   4.024   6.876 -0.0161  0.4876 -0.3922
  476MOL0     C64170  12.021   3.241   6.771  0.5071  0.3483 -0.0199
  476MOL0     C64171  11.951   3.127   6.802 -0.4764 -0.0991  0.7481
  476MOL0     O64172  11.943   2.827   6.743  0.5939 -0.8910  0.1733
  476MOL0     C64173  11.746   2.649   6.821 -0.8182  0.1733 -0.2975
  476MOL0     C64174  11.637   2.573   6.846  0.2955  0.2639 -0.3705
  476MOL0     N64175  10.982   2.604   6.566 -0.0100 -0.6726 -0.2022
  476MOL0     N64176  10.861   2.643   6.600 -0.2501 -0.4912  0.3628
  476MOL0     C64177   9.687   2.156   6.793  0.4564 -0.4713  0.1290
  476MOL0     C64178   9.571   2.074   6.766  0.5236  0.2643 -1.5468
  476MOL0     C64179   9.197   1.852   6.739 -0.5306  0.8139 -0.3112
  476MOL0     C64180   9.098   1.804   6.823 -0.1909 -0.6604  0.0183
  476MOL0     C64181   8.983   1.742   6.763  0.4398 -0.5957  0.8302
  476MOL0     C64182   8.965   1.733   6.627  0.1727  0.7022 -1.0486
  476MOL0     O64183   8.851   1.669   6.587  0.0480  0.1977  0.2620
  476MOL0     C64184   8.823   1.628   6.455 -0.0235 -0.2654 -0.0596
  476MOL0     C64185   8.737   1.738   6.397 -0.1446 -0.5267  0.2914
  476MOL0     C64186   8.595   1.735   6.455 -0.4087 -0.1040 -0.8127
  476MOL0     C64187   8.493   1.829   6.390  0.1669  0.3794 -0.1167
  476MOL0     C64188   8.360   1.825   6.448 -0.2997 -0.5101  0.2069
  476MOL0     C64189   8.251   1.832   6.497  0.5217 -0.2874  1.3140
  476MOL0     C64190   9.065   1.784   6.545  0.0763 -0.3404 -0.3521
  476MOL0     C64191   9.176   1.854   6.596  0.2205 -0.8103 -0.1798
  476MOL0     C64192   9.277   1.909   6.499 -0.3116  0.1521  0.4192
  476MOL0     H64193   9.336   2.296   6.872  0.2399 -0.1991  2.4260
  476MOL0     H64194   9.541   2.413   6.943  1.1320  0.4854 -1.2063
  476MOL0     H64195   9.931   2.238   6.868  2.5003  1.8039  2.0678
  476MOL0     H64196   9.904   2.300   6.709 -0.5856 -0.2201 -0.5169
  476MOL0     H64197  10.010   2.485   6.929  3.4347 -2.9106  1.9001
  476MOL0     H64198   9.994   2.517   6.754 -0.7121 -0.6375 -0.9394
  476MOL0     H64199  10.153   2.353   6.699 -0.6266  2.6015 -0.4019
  476MOL0     H64200  10.161   2.295   6.867 -0.3433  0.6755 -0.2788
  476MOL0     H64201  10.224   2.580   6.785 -0.1409 -1.4241 -1.5950
  476MOL0     H64202  10.255   2.530   6.950  2.6218  0.1550  0.1041
  476MOL0     H64203  10.435   2.383   6.891 -1.4890  0.7778  1.5359
  476MOL0     H64204  10.416   2.402   6.712 -0.7251 -0.4027 -0.2127
  476MOL0     H64205  10.488   2.627   6.714 -1.3387  1.0243  1.0430
  476MOL0     H64206  10.467   2.629   6.897  1.4059  0.6449 -0.4223
  476MOL0     H64207  10.677   2.464   6.793 -1.8924 -2.0967  1.5853
  476MOL0     H64208  10.665   2.534   6.957  3.3686  0.7353 -0.8918
  476MOL0     H64209  10.677   2.754   6.769  1.4699  1.6095 -0.2987
  476MOL0     H64210  10.779   2.709   6.902 -0.0647  2.2545 -1.0284
  476MOL0     H64211  10.980   2.582   6.892 -3.0369  0.8828  1.1069
  476MOL0     H64212  11.222   2.525   6.577 -0.5926 -0.5936 -0.0041
  476MOL0     H64213  11.277   2.604   6.733  0.8264 -0.9023  0.2350
  476MOL0     H64214  11.142   2.372   6.818  0.1195  1.8414  0.1870
  476MOL0     H64215  11.203   2.321   6.666  1.1483  0.5919  0.4501
  476MOL0     H64216  11.445   2.385   6.738  1.2038 -2.4599  0.1926
  476MOL0     H64217  11.367   2.251   6.821 -0.4412  0.7565 -0.3715
  476MOL0     H64218  11.488   2.375   6.976  0.3671 -1.4343 -1.5843
  476MOL0     H64219  11.316   2.413   7.012 -1.4191  1.3299 -0.9787
  476MOL0     H64220  11.447   2.796   7.019  1.0408  4.0680  0.0834
  476MOL0     H64221  11.657   2.930   6.976 -3.3099  0.5678 -1.0502
  476MOL0     H64222  12.111   3.050   7.096 -3.1573  1.5653  1.2798
  476MOL0     H64223  12.239   3.248   7.034 -2.3619 -2.8418  3.3073
  476MOL0     H64224  12.377   3.400   6.912 -0.5826  0.7996 -0.1928
  476MOL0     H64225  12.380   3.299   6.768 -0.2353  0.4617 -0.8927
  476MOL0     H64226  12.312   3.529   6.647 -1.6031  2.6963  3.2265
  476MOL0     H64227  12.372   3.599   6.778 -2.5835  0.4144 -0.9635
  476MOL0     H64228  12.533   3.406   6.608 -2.2746  0.1103 -0.8145
  476MOL0     H64229  12.527   3.594   6.612 -3.1762  0.5584  1.4308
  476MOL0     H64230  12.647   3.409   6.821 -0.0954  1.6474  2.9522
  476MOL0     H64231  12.570   3.548   6.874 -0.5054  0.4782 -1.0905
  476MOL0     H64232  12.783   3.565   6.643  0.6683  0.6949 -0.5598
  476MOL0     H64233  12.824   3.544   6.810 -0.2519  1.9907  2.8879
  476MOL0     H64234  12.673   3.786   6.691 -1.5122 -2.1693 -0.6008
  476MOL0     H64235  12.672   3.755   6.866 -1.1739 -1.1278  0.1631
  476MOL0     H64236  12.923   3.737   6.720 -3.2406 -0.1126 -1.2992
  476MOL0     H64237  12.892   3.774   6.895 -2.4816 -1.0393  0.8941
  476MOL0     H64238  12.979   3.956   6.756  0.1707  0.8418  2.8872
  476MOL0     H64239  12.823   3.949   6.657 -0.0484 -4.2891 -1.8348
  476MOL0     H64240  11.989   3.281   6.675  0.4934  0.0843 -0.1243
  476MOL0     H64241  11.877   3.095   6.729 -0.8108 -0.4588  1.2372
  476MOL0     H64242  11.835   2.601   6.782 -0.8278  0.0207 -0.1301
  476MOL0     H64243  11.636   2.471   6.807  3.4045  0.7597 -2.1083
  476MOL0     H64244   9.781   2.111   6.764 -1.0299 -2.4243 -1.9644
  476MOL0     H64245   9.585   1.978   6.718  0.5684 -0.4856 -0.1104
  476MOL0     H64246   9.108   1.792   6.930 -2.5554  1.2894  0.5651
  476MOL0     H64247   8.912   1.680   6.817  0.7106  0.5872  2.6328
  476MOL0     H64248   8.771   1.532   6.457  0.7177 -0.6749  1.8709
  476MOL0     H64249   8.913   1.619   6.395  1.1546 -0.6342  1.6719
  476MOL0     H64250   8.725   1.729   6.289  0.7699  2.3024 -0.1348
  476MOL0     H64251   8.786   1.830   6.431 -0.3939  0.8087 -2.6330
  476MOL0     H64252   8.608   1.773   6.557 -3.4320 -0.7907 -0.0707
  476MOL0     H64253   8.554   1.633   6.449 -0.4222 -0.0260 -2.5189
  476MOL0     H64254   8.519   1.934   6.405 -0.9498  0.4075  1.9455
  476MOL0     H64255   8.482   1.803   6.284 -0.9843 -1.8979  0.4954
  476MOL0     H64256   8.156   1.812   6.543 -1.0524  0.0679 -1.5643
  476MOL0     H64257   9.068   1.776   6.437  0.5517  2.0853 -0.5847
  476MOL0     H64258   9.355   1.832   6.499 -1.1343 -0.7025  0.4070
  476MOL0     H64259   9.242   1.914   6.395  0.1756  2.1316  0.3169
  476MOL0     H64260   9.311   2.011   6.513 -2.0638  0.5775  1.9042
  477MOL0     O64261  10.069   6.571   9.180 -0.3882 -0.0405 -0.0377
  477MOL0     C64262  10.090   6.482   9.103  0.2302 -0.2103 -0.0523
  477MOL0     O64263  10.121   6.502   8.970  0.6196  0.2013  0.2682
  477MOL0     C64264  10.144   6.627   8.934  0.0975 -0.5260  0.0760
  477MOL0     C64265  10.048   6.692   8.856  0.4455 -0.5851 -0.2339
  477MOL0     C64266  10.068   6.820   8.798  0.3303 -0.2355 -0.1970
  477MOL0     C64267  10.184   6.895   8.818 -0.2960  0.3031 -1.4463
  477MOL0     O64268  10.201   7.018   8.763  0.7061 -0.3838 -0.4808
  477MOL0     C64269  10.293   7.113   8.820 -0.4171  0.4116 -0.4289
  477MOL0     C64270  10.268   7.243   8.762  1.9433  0.3435  0.1610
  477MOL0     C64271  10.383   7.340   8.791  0.0780 -0.8120  0.7644
  477MOL0     C64272  10.520   7.289   8.727  0.6900 -0.0241 -0.3875
  477MOL0     C64273  10.632   7.403   8.714 -1.1692  0.5565  0.4223
  477MOL0     C64274  10.614   7.499   8.591 -0.0679  0.0741  0.2906
  477MOL0     C64275  10.745   7.561   8.541 -0.5415 -0.2264 -0.3895
  477MOL0     C64276  10.819   7.654   8.640 -0.1325  0.1439  0.7740
  477MOL0     N64277  10.714   7.735   8.708  0.1680 -0.7271 -0.5997
  477MOL0     C64278  10.653   7.725   8.833 -0.6249  0.6364 -0.2025
  477MOL0     C64279  10.548   7.808   8.825 -0.1973  0.6943  0.3292
  477MOL0     C64280  10.435   7.797   8.917  0.3861  0.8853  0.3562
  477MOL0     C64281  10.338   7.916   8.916 -0.4372 -0.3952 -0.2441
  477MOL0     C64282  10.409   8.048   8.964  0.3082  0.0701 -0.3107
  477MOL0     C64283  10.321   8.176   8.953 -0.3694 -0.3038  0.4216
  477MOL0     O64284  10.402   8.292   8.911 -0.2356  0.9387  0.1790
  477MOL0     C64285  10.513   8.329   8.993  0.3119  1.4535 -0.2194
  477MOL0     C64286  10.532   8.309   9.135  0.7520 -0.3843  1.2630
  477MOL0     C64287  10.635   8.362   9.201 -0.5916 -0.9272 -0.4518
  477MOL0     C64288  10.733   8.438   9.131  0.0588 -0.7276  0.2162
  477MOL0     C64289  10.842   8.500   9.199  0.0586  1.0190 -0.1404
  477MOL0     O64290  10.930   8.558   9.114  0.0226  0.5961 -0.2298
  477MOL0     C64291  11.050   8.598   9.161  0.5439 -0.3397  0.3705
  477MOL0     C64292  11.091   8.732   9.180  0.8109  0.3391  0.3665
  477MOL0     C64293  11.217   8.766   9.219 -0.0260 -0.7296 -0.1734
  477MOL0     C64294  11.314   8.658   9.244  0.3142  0.2970  1.1429
  477MOL0     O64295  11.437   8.675   9.293  0.0339 -0.2497 -0.5337
  477MOL0     C64296  11.487   8.806   9.277 -0.3721 -0.2406 -0.4657
  477MOL0     C64297  11.636   8.820   9.312 -0.8216 -0.8189 -0.6576
  477MOL0     C64298  11.699   8.785   9.177  0.2945 -1.0311  0.3380
  477MOL0     C64299  11.851   8.795   9.171 -0.7049  0.4169 -0.3581
  477MOL0     C64300  11.908   8.746   9.040 -0.5887 -0.3421 -0.2990
  477MOL0     C64301  12.061   8.744   9.029  0.6443 -0.1912 -0.0669
  477MOL0     C64302  12.112   8.872   8.984  0.8141  0.0403  0.2464
  477MOL0     C64303  12.261   8.886   8.983  0.2283 -0.7285 -0.1650
  477MOL0    Cl64304  12.322   8.763   8.857 -0.1875 -0.0709 -0.3503
  477MOL0     C64305  11.273   8.528   9.224  0.5148  0.0782 -0.1506
  477MOL0     C64306  11.138   8.497   9.188  0.9277 -0.4990 -0.7312
  477MOL0     O64307  10.852   8.491   9.323 -0.0342  0.3929  0.9030
  477MOL0     C64308  10.723   8.437   8.989  0.3271  0.1440 -0.4915
  477MOL0     C64309  10.616   8.392   8.925  0.5388  0.5006  0.3770
  477MOL0     N64310  10.543   7.860   8.699  0.5086 -0.9288  0.0513
  477MOL0     N64311  10.642   7.827   8.635 -0.2113  0.6132 -0.5340
  477MOL0     C64312  10.280   6.826   8.897  0.4499 -0.1179 -0.4848
  477MOL0     C64313  10.267   6.693   8.945 -0.1439 -0.4840 -0.4402
  477MOL0     C64314  10.098   6.353   9.147  0.1643  0.6384  0.4259
  477MOL0     C64315  10.175   6.261   9.066  0.5749  0.0879 -0.9241
  477MOL0     C64316  10.191   6.125   9.103 -0.4023 -0.4755  0.3223
  477MOL0     C64317  10.145   6.086   9.226  0.4594  0.9207  0.6884
  477MOL0     O64318  10.155   5.949   9.254  0.5081 -0.0796 -0.1684
  477MOL0     C64319  10.273   5.912   9.325  0.1633  1.2543  0.0806
  477MOL0     C64320  10.264   5.767   9.363 -0.1638  0.8601 -0.4158
  477MOL0     C64321  10.166   5.744   9.478  0.3185  0.0427  0.6835
  477MOL0     C64322  10.222   5.786   9.615 -0.9096  0.3654  0.5068
  477MOL0     C64323  10.326   5.701   9.655 -0.1692  0.0164 -0.6812
  477MOL0     C64324  10.398   5.615   9.709  1.1413 -0.1929 -0.3285
  477MOL0     C64325  10.079   6.171   9.309 -0.5970  1.2316 -0.7051
  477MOL0     C64326  10.056   6.303   9.273  0.6043  0.8125  0.4834
  477MOL0     C64327   9.975   6.375   9.382  0.7803  0.6250  0.6707
  477MOL0     H64328   9.950   6.650   8.833 -0.5548  0.0975  2.3923
  477MOL0     H64329   9.983   6.871   8.753  1.1224  0.6213 -0.7511
  477MOL0     H64330  10.286   7.125   8.929 -1.3471 -0.8697 -0.3263
  477MOL0     H64331  10.393   7.073   8.801 -0.9693  0.1090 -3.0070
  477MOL0     H64332  10.178   7.288   8.805  3.4682  2.4853  1.2398
  477MOL0     H64333  10.250   7.225   8.655 -2.0206  0.6765  0.6207
  477MOL0     H64334  10.393   7.366   8.897  2.4001 -1.7446  0.8488
  477MOL0     H64335  10.350   7.426   8.732  1.4824  0.0245  1.1352
  477MOL0     H64336  10.550   7.214   8.801 -0.0611 -0.7406 -0.7977
  477MOL0     H64337  10.505   7.254   8.624  0.8013  0.8054 -0.6994
  477MOL0     H64338  10.638   7.460   8.807 -3.0042  1.6318 -0.0829
  477MOL0     H64339  10.729   7.353   8.706 -0.7051  1.5306 -0.1792
  477MOL0     H64340  10.580   7.441   8.505  2.8421  0.6279 -1.3511
  477MOL0     H64341  10.537   7.571   8.620  1.1925  1.9076 -0.7524
  477MOL0     H64342  10.734   7.606   8.442  1.7176 -1.2056 -1.1493
  477MOL0     H64343  10.821   7.486   8.516  0.0902 -0.7775  2.7551
  477MOL0     H64344  10.872   7.607   8.723 -1.9690 -1.9065  0.8881
  477MOL0     H64345  10.885   7.717   8.579 -1.2023 -0.1418 -0.7316
  477MOL0     H64346  10.681   7.668   8.921  1.4212  0.8662 -0.6594
  477MOL0     H64347  10.376   7.707   8.899 -0.8807  1.6822  0.3957
  477MOL0     H64348  10.475   7.802   9.019  0.9704  0.7484  0.1328
  477MOL0     H64349  10.300   7.934   8.815 -2.6893 -3.7597 -0.1863
  477MOL0     H64350  10.254   7.903   8.985  0.5258  1.7735  1.4463
  477MOL0     H64351  10.503   8.071   8.912  0.2926 -0.5995 -0.6460
  477MOL0     H64352  10.432   8.030   9.069 -3.4400 -0.7315  0.5294
  477MOL0     H64353  10.261   8.196   9.043  0.5066  0.4868  0.8507
  477MOL0     H64354  10.247   8.162   8.874 -2.0358 -0.3971  1.9238
  477MOL0     H64355  10.458   8.250   9.189  0.0676 -0.1628  0.5782
  477MOL0     H64356  10.648   8.367   9.308 -0.7507  3.5621 -0.4409
  477MOL0     H64357  11.029   8.819   9.160  0.0046 -0.0240  1.2062
  477MOL0     H64358  11.254   8.866   9.235  0.1825 -0.8977  0.4135
  477MOL0     H64359  11.470   8.840   9.174  0.4222  0.0106 -0.5218
  477MOL0     H64360  11.441   8.876   9.347  1.5546  1.3963 -0.7327
  477MOL0     H64361  11.651   8.926   9.335  3.2210 -1.4399  0.3309
  477MOL0     H64362  11.666   8.751   9.392 -0.0147  0.5753  0.2864
  477MOL0     H64363  11.676   8.683   9.145  0.2387 -0.7994 -0.3957
  477MOL0     H64364  11.674   8.859   9.100 -2.0300  1.6919  3.4308
  477MOL0     H64365  11.884   8.731   9.253 -0.8796  1.5721  0.6512
  477MOL0     H64366  11.889   8.894   9.200 -1.5252 -0.0608  2.7253
  477MOL0     H64367  11.870   8.810   8.960  3.1870  2.6573  0.0161
  477MOL0     H64368  11.879   8.641   9.035 -1.1099 -0.1527 -1.9747
  477MOL0     H64369  12.115   8.716   9.121  0.3838  0.6165  0.3393
  477MOL0     H64370  12.081   8.666   8.954  4.1303 -1.0609  1.5500
  477MOL0     H64371  12.067   8.945   9.052 -2.1239 -1.5078  0.1207
  477MOL0     H64372  12.081   8.897   8.883 -0.8580  0.8661  0.9251
  477MOL0     H64373  12.292   8.989   8.961  0.2526 -0.9273 -1.1194
  477MOL0     H64374  12.293   8.866   9.086 -0.1701 -0.5270 -0.0021
  477MOL0     H64375  11.339   8.443   9.241  1.0546  0.6654  0.7560
  477MOL0     H64376  11.087   8.402   9.176  1.4712 -0.8915 -0.0170
  477MOL0     H64377  10.800   8.488   8.932 -0.1782 -1.3171 -2.5683
  477MOL0     H64378  10.611   8.402   8.817 -0.1115  0.6586  0.4194
  477MOL0     H64379  10.376   6.874   8.909  0.1350  0.8217 -1.5730
  477MOL0     H64380  10.341   6.641   9.005 -0.7936 -0.5967  0.2782
  477MOL0     H64381  10.221   6.295   8.973 -0.9432  2.0321 -1.0121
  477MOL0     H64382  10.247   6.052   9.045  3.5488  1.8592  0.8125
  477MOL0     H64383  10.302   5.975   9.410  1.9822 -0.1073  0.5080
  477MOL0     H64384  10.356   5.909   9.255  0.1551 -0.8013  0.1214
  477MOL0     H64385  10.361   5.726   9.393 -1.1809 -1.4664 -0.0941
  477MOL0     H64386  10.244   5.702   9.278 -0.1523  2.2497 -1.5228
  477MOL0     H64387  10.129   5.643   9.492 -0.5413  0.3436  0.6178
  477MOL0     H64388  10.076   5.803   9.456 -0.3381 -0.8291  0.9993
  477MOL0     H64389  10.266   5.886   9.604  2.6161 -1.2120 -1.5155
  477MOL0     H64390  10.143   5.801   9.688 -1.3729  0.4804 -0.0085
  477MOL0     H64391  10.467   5.552   9.761 -2.8074 -2.7408  2.3939
  477MOL0     H64392  10.048   6.131   9.405  0.4525  0.1750 -0.7802
  477MOL0     H64393  10.044   6.407   9.461  1.2030 -0.5123  0.7924
  477MOL0     H64394   9.934   6.470   9.347 -0.7892  1.0545  3.4117
  477MOL0     H64395   9.891   6.314   9.414 -0.9320  1.9199 -1.1194
  478MOL0     O64396   5.526   8.058   4.259 -0.8457  0.2746  1.8537
  478MOL0     C64397   5.517   7.936   4.223 -0.5766  0.0066 -0.0002
  478MOL0     O64398   5.621   7.850   4.207  0.3062 -0.1232  0.7455
  478MOL0     C64399   5.749   7.896   4.234  0.5048  0.1015 -0.0331
  478MOL0     C64400   5.840   7.917   4.131 -0.8084 -1.2111 -0.4707
  478MOL0     C64401   5.976   7.959   4.149  0.1542 -0.0950 -0.1997
  478MOL0     C64402   6.020   7.978   4.277 -0.4643  0.8335  0.1027
  478MOL0     O64403   6.136   8.044   4.309 -0.6060 -0.5373 -0.2936
  478MOL0     C64404   6.239   8.054   4.210 -0.2633 -0.8645  0.1378
  478MOL0     C64405   6.373   8.104   4.256 -0.5946 -0.5701 -0.1796
  478MOL0     C64406   6.480   8.096   4.144 -0.1494 -0.7132  0.0343
  478MOL0     C64407   6.593   8.193   4.177  0.3458  0.8174  1.0224
  478MOL0     C64408   6.712   8.168   4.081 -0.1482 -0.3084 -0.2470
  478MOL0     C64409   6.839   8.249   4.116  0.7340  0.9987  0.4086
  478MOL0     C64410   6.959   8.225   4.023  0.5905  0.0191 -0.0850
  478MOL0     C64411   6.958   8.320   3.909  0.4682 -1.2170  0.1921
  478MOL0     N64412   7.078   8.333   3.835 -0.6353  1.1279  0.3146
  478MOL0     C64413   7.157   8.225   3.784 -0.7323 -0.5222 -0.9976
  478MOL0     C64414   7.268   8.282   3.734  0.4242  0.1779  0.7818
  478MOL0     C64415   7.376   8.200   3.666  1.0683 -0.4383 -0.5740
  478MOL0     C64416   7.468   8.125   3.764  0.4201 -0.5346  0.6916
  478MOL0     C64417   7.559   8.028   3.690  0.3652 -1.0235  0.4853
  478MOL0     C64418   7.677   7.962   3.761  0.2002  0.6120 -0.2283
  478MOL0     O64419   7.781   8.057   3.757  0.2541  0.0817  0.3862
  478MOL0     C64420   7.913   8.016   3.758  0.3751  0.1526  0.5549
  478MOL0     C64421   8.016   8.113   3.756 -0.8608  0.6062  0.5341
  478MOL0     C64422   8.153   8.072   3.754  0.4181 -0.0913  0.0547
  478MOL0     C64423   8.188   7.943   3.744 -0.2324 -0.3509 -0.2012
  478MOL0     C64424   8.324   7.897   3.750 -0.3232  0.9114  0.3172
  478MOL0     O64425   8.402   7.976   3.833 -0.0910  0.8678  0.3238
  478MOL0     C64426   8.524   7.918   3.858  0.0324 -0.2178  1.4416
  478MOL0     C64427   8.615   7.914   3.757 -0.0199 -0.6869 -0.2723
  478MOL0     C64428   8.743   7.870   3.786 -1.0019  0.2989  0.2753
  478MOL0     C64429   8.785   7.828   3.915  0.2328 -0.6417  0.2017
  478MOL0     O64430   8.914   7.797   3.957 -0.0916  0.5935 -0.5102
  478MOL0     C64431   9.022   7.856   3.883 -0.3553 -0.1745  0.5614
  478MOL0     C64432   9.147   7.869   3.972 -1.0325 -0.4426 -0.8631
  478MOL0     C64433   9.194   7.719   3.996  0.5751  1.2786  0.0856
  478MOL0     C64434   9.336   7.710   4.049 -0.2633 -0.2990 -0.8056
  478MOL0     C64435   9.364   7.561   4.033  0.2853 -0.1560  0.2222
  478MOL0     C64436   9.486   7.511   4.112 -0.7175 -0.4651 -0.3534
  478MOL0     C64437   9.520   7.366   4.083  0.0857 -0.7757  1.0319
  478MOL0     C64438   9.627   7.311   4.173 -0.4348 -0.4019 -0.0812
  478MOL0    Cl64439   9.561   7.276   4.341  0.1407  0.3977  0.5540
  478MOL0     C64440   8.690   7.830   4.018  0.4452  0.1762  0.0023
  478MOL0     C64441   8.563   7.871   3.983  0.1624  0.2461 -0.6855
  478MOL0     O64442   8.357   7.785   3.704  0.4131 -0.7361  0.2616
  478MOL0     C64443   8.089   7.845   3.761 -0.0323 -0.0121  0.0802
  478MOL0     C64444   7.953   7.878   3.772  0.0254  0.1580 -0.5294
  478MOL0     N64445   7.277   8.415   3.774 -0.3990 -0.3956  0.3222
  478MOL0     N64446   7.160   8.445   3.823  0.4758 -0.5545 -0.0001
  478MOL0     C64447   5.934   7.959   4.383 -0.1631 -0.8872 -0.6305
  478MOL0     C64448   5.799   7.910   4.361 -0.3876 -0.4526  0.0216
  478MOL0     C64449   5.380   7.872   4.209  0.0859  0.2258  0.5594
  478MOL0     C64450   5.377   7.736   4.145  0.4620  0.1412  0.7772
  478MOL0     C64451   5.254   7.678   4.123 -0.3134  0.8727  0.2193
  478MOL0     C64452   5.131   7.736   4.162 -0.4414  0.0377  1.1378
  478MOL0     O64453   5.018   7.682   4.136  0.4144  0.7748 -0.1488
  478MOL0     C64454   4.924   7.669   4.246 -0.1435  0.5616 -0.7784
  478MOL0     C64455   4.780   7.628   4.193 -0.1982  0.4951  0.7734
  478MOL0     C64456   4.724   7.709   4.072 -0.5998  1.5312 -0.3464
  478MOL0     C64457   4.615   7.627   3.997 -0.8847  0.0366 -0.4126
  478MOL0     C64458   4.570   7.696   3.880 -0.7330  0.3509  0.4975
  478MOL0     C64459   4.521   7.736   3.775 -0.4115  0.1752  0.3815
  478MOL0     C64460   5.137   7.875   4.209  0.0212  0.2065  0.1134
  478MOL0     C64461   5.259   7.937   4.245  0.1704  0.3182  0.9090
  478MOL0     C64462   5.253   8.074   4.307  0.1645  0.5367  0.5586
  478MOL0     H64463   5.814   7.885   4.031  0.9480  0.1825 -1.4439
  478MOL0     H64464   6.041   7.969   4.063 -0.8876  0.7698 -0.9002
  478MOL0     H64465   6.258   7.954   4.171 -0.1806 -1.0877  0.7359
  478MOL0     H64466   6.198   8.126   4.139 -0.3771  0.3563  1.3963
  478MOL0     H64467   6.401   8.046   4.345  1.5575  3.5787  2.1671
  478MOL0     H64468   6.356   8.211   4.269 -2.0671 -0.3603 -3.0774
  478MOL0     H64469   6.448   8.137   4.048 -1.8200  0.2850  0.9799
  478MOL0     H64470   6.517   7.994   4.134  1.0068 -0.2571 -0.5735
  478MOL0     H64471   6.546   8.287   4.149 -1.4665 -0.6094 -1.0769
  478MOL0     H64472   6.622   8.191   4.283  1.2700 -0.9825  0.7805
  478MOL0     H64473   6.739   8.062   4.088 -0.8557 -0.4915 -0.2300
  478MOL0     H64474   6.679   8.190   3.980 -3.3646  1.1207  0.9910
  478MOL0     H64475   6.814   8.355   4.124 -2.7284  0.3676 -0.4730
  478MOL0     H64476   6.882   8.224   4.213  2.5260  0.0602 -0.5714
  478MOL0     H64477   6.953   8.125   3.980 -3.0014  0.2866 -0.5254
  478MOL0     H64478   7.047   8.235   4.087 -0.6044  1.4116  1.4227
  478MOL0     H64479   6.883   8.294   3.834  4.4257 -1.2257 -4.1676
  478MOL0     H64480   6.933   8.423   3.935  2.4457  0.1342 -2.7879
  478MOL0     H64481   7.135   8.119   3.795  0.8200 -0.8235 -0.4636
  478MOL0     H64482   7.318   8.141   3.594 -1.0588 -1.9379  2.1763
  478MOL0     H64483   7.443   8.270   3.616  1.8364 -0.4913  0.3475
  478MOL0     H64484   7.525   8.198   3.822 -1.1886  2.2361 -0.9855
  478MOL0     H64485   7.406   8.067   3.833  1.8200  1.0014  3.3732
  478MOL0     H64486   7.594   8.080   3.600 -4.5359 -0.1623 -1.2123
  478MOL0     H64487   7.494   7.953   3.645 -1.0609  1.3040 -1.6315
  478MOL0     H64488   7.707   7.885   3.688  2.1163  1.5057 -0.4250
  478MOL0     H64489   7.640   7.934   3.860 -4.2819  3.2637 -0.8771
  478MOL0     H64490   7.996   8.220   3.752 -2.6885  0.2897  0.2181
  478MOL0     H64491   8.233   8.145   3.752  0.6030 -0.3016 -0.8205
  478MOL0     H64492   8.589   7.955   3.660  0.3420 -0.9467 -0.4796
  478MOL0     H64493   8.819   7.882   3.709 -1.4257  0.5259 -0.1162
  478MOL0     H64494   9.055   7.795   3.798 -1.8667  2.4547 -2.0795
  478MOL0     H64495   8.986   7.953   3.849 -1.8133 -0.5708  0.8671
  478MOL0     H64496   9.220   7.930   3.919  1.2330 -1.5118  0.8709
  478MOL0     H64497   9.110   7.924   4.058 -0.0366  2.6963 -2.2993
  478MOL0     H64498   9.128   7.658   4.058  1.9548  0.0729  0.4224
  478MOL0     H64499   9.202   7.660   3.904  1.0190  0.3553  0.7100
  478MOL0     H64500   9.337   7.747   4.152  0.3408 -1.1935 -0.4808
  478MOL0     H64501   9.395   7.776   3.986 -0.3609  2.0234  1.3604
  478MOL0     H64502   9.369   7.528   3.928 -1.9019 -0.9606  0.3225
  478MOL0     H64503   9.283   7.502   4.075  0.3680  1.4378  2.7970
  478MOL0     H64504   9.570   7.575   4.085 -1.5881  0.7506 -0.2792
  478MOL0     H64505   9.457   7.529   4.216  2.8562  1.8393  0.4028
  478MOL0     H64506   9.555   7.357   3.979 -0.4850  2.4330  0.4321
  478MOL0     H64507   9.427   7.311   4.098  0.4345 -1.9777 -0.8212
  478MOL0     H64508   9.647   7.214   4.128  1.0930 -1.2455  2.2236
  478MOL0     H64509   9.708   7.383   4.163 -0.2020 -0.8277 -1.4154
  478MOL0     H64510   8.719   7.803   4.119  0.3715 -1.7872 -0.4476
  478MOL0     H64511   8.483   7.870   4.056 -1.0533 -0.4241 -1.9641
  478MOL0     H64512   8.113   7.740   3.756  0.1632  0.0546 -0.4943
  478MOL0     H64513   7.891   7.792   3.795  0.7764 -0.6713 -1.5285
  478MOL0     H64514   5.966   7.987   4.483  0.5075  2.2710 -1.6472
  478MOL0     H64515   5.741   7.897   4.451 -0.5768 -0.4323 -0.0979
  478MOL0     H64516   5.473   7.688   4.129  0.9637  0.7633  1.7284
  478MOL0     H64517   5.245   7.576   4.086 -0.3942 -0.0282  2.5742
  478MOL0     H64518   4.907   7.760   4.304 -1.9511  0.1050 -0.5341
  478MOL0     H64519   4.970   7.593   4.311  0.7136  0.6618 -1.2538
  478MOL0     H64520   4.712   7.624   4.278 -0.5953 -3.3748  0.4423
  478MOL0     H64521   4.785   7.522   4.168  1.0240  0.2749  1.8861
  478MOL0     H64522   4.810   7.724   4.007  0.7157 -1.3629  0.5668
  478MOL0     H64523   4.683   7.805   4.104  1.2536  2.2138  0.1208
  478MOL0     H64524   4.642   7.526   3.966  0.5801 -0.1872  1.4379
  478MOL0     H64525   4.528   7.613   4.062 -0.9473  0.9111 -0.2870
  478MOL0     H64526   4.456   7.764   3.695 -0.8944  0.6494  0.9263
  478MOL0     H64527   5.046   7.932   4.227 -0.1881 -0.2037  0.3774
  478MOL0     H64528   5.153   8.094   4.345 -0.3492  1.0262 -0.9677
  478MOL0     H64529   5.318   8.083   4.394 -3.0712  2.4774  2.9707
  478MOL0     H64530   5.287   8.152   4.239  3.7065 -0.8407  0.4924
  479MOL0     O64531   7.003   9.073   9.365  0.1347  0.0646  0.5171
  479MOL0     C64532   7.044   9.183   9.318 -0.2298  0.8252  0.8235
  479MOL0     O64533   7.140   9.255   9.380 -0.0663  0.2029  0.9835
  479MOL0     C64534   7.218   9.193   9.478 -0.8971 -0.1427 -0.6448
  479MOL0     C64535   7.299   9.077   9.464 -0.6139 -0.0406 -0.2236
  479MOL0     C64536   7.350   9.005   9.572  0.9584  0.1474  1.0133
  479MOL0     C64537   7.335   9.052   9.699  0.2190 -0.9967 -0.1636
  479MOL0     O64538   7.383   8.986   9.814 -0.0504 -0.3984 -0.1472
  479MOL0     C64539   7.295   8.893   9.865  0.8473 -0.6059 -0.6537
  479MOL0     C64540   7.363   8.793   9.945  0.5842  0.5579 -0.5922
  479MOL0     C64541   7.460   8.717   9.859 -0.3229  0.7188  0.1158
  479MOL0     C64542   7.404   8.647   9.740  0.9597 -0.3007  0.1228
  479MOL0     C64543   7.507   8.554   9.665  0.1806  0.2349 -0.3504
  479MOL0     C64544   7.624   8.628   9.607 -0.5166  0.7032 -0.6040
  479MOL0     C64545   7.727   8.527   9.547  0.7139 -0.8964 -0.3171
  479MOL0     C64546   7.774   8.418   9.640  0.1595 -0.1500 -1.0768
  479MOL0     N64547   7.913   8.385   9.599 -0.0112  0.2307 -0.0897
  479MOL0     C64548   8.034   8.435   9.646  0.4103 -0.0641 -0.6132
  479MOL0     C64549   8.119   8.360   9.578  0.1971 -0.7976  0.6721
  479MOL0     C64550   8.268   8.390   9.572  0.5741  0.5782  0.0991
  479MOL0     C64551   8.332   8.362   9.709 -0.2019 -0.3885  0.6722
  479MOL0     C64552   8.340   8.210   9.740 -0.0836  1.2396 -0.0290
  479MOL0     C64553   8.387   8.179   9.884 -0.1163  0.1276 -0.0575
  479MOL0     O64554   8.511   8.108   9.878 -0.2844  0.0985 -0.1030
  479MOL0     C64555   8.620   8.188   9.892 -0.3947 -1.3022 -0.1920
  479MOL0     C64556   8.685   8.192  10.014 -0.0647 -0.2685  0.4816
  479MOL0     C64557   8.804   8.265  10.033  0.2168  0.4557 -0.0452
  479MOL0     C64558   8.868   8.329   9.930  0.4703 -0.2887  0.4756
  479MOL0     C64559   9.003   8.387   9.948 -0.1324  0.3719  0.3810
  479MOL0     O64560   9.067   8.440   9.831  0.5413  0.1997 -0.1311
  479MOL0     C64561   9.199   8.480   9.837 -0.0165  0.0709  0.6885
  479MOL0     C64562   9.230   8.614   9.827  0.6271 -0.7772 -0.2018
  479MOL0     C64563   9.360   8.650   9.817 -0.3045  0.5117  0.0847
  479MOL0     C64564   9.466   8.556   9.802 -0.1374  0.2467 -0.1597
  479MOL0     O64565   9.597   8.586   9.795 -0.1804 -1.4867 -0.5718
  479MOL0     C64566   9.640   8.726   9.810  0.0350  0.7148  0.1176
  479MOL0     C64567   9.795   8.727   9.823 -0.2400 -0.1504  0.0739
  479MOL0     C64568   9.855   8.869   9.845 -0.0516 -0.1796  0.1302
  479MOL0     C64569  10.004   8.863   9.874 -0.0859 -0.2208 -0.1087
  479MOL0     C64570  10.046   9.011   9.899 -0.1039  0.8641 -0.1617
  479MOL0     C64571  10.196   9.026   9.922  0.8689  0.4892  0.4918
  479MOL0     C64572  10.221   9.177   9.930 -0.0002 -0.3816 -0.9067
  479MOL0     C64573  10.167   9.245  10.048  0.0639  0.2946 -0.6519
  479MOL0    Cl64574  10.220   9.414  10.041  0.2780 -0.2328  0.1296
  479MOL0     C64575   9.434   8.419   9.823 -0.1094 -0.2748  0.3544
  479MOL0     C64576   9.300   8.379   9.838 -0.2839 -0.1824 -0.1275
  479MOL0     O64577   9.050   8.392  10.063  0.1631  0.4931 -0.0453
  479MOL0     C64578   8.804   8.329   9.804 -0.1552  0.5007  0.7200
  479MOL0     C64579   8.678   8.263   9.792 -0.3472 -0.1637  0.4199
  479MOL0     N64580   8.054   8.269   9.499  0.0997 -0.1864  0.0367
  479MOL0     N64581   7.934   8.287   9.512  1.0090  0.5018  0.7906
  479MOL0     C64582   7.266   9.175   9.714  0.4974 -0.3767 -0.1935
  479MOL0     C64583   7.208   9.240   9.600  0.9412 -0.1640 -0.1341
  479MOL0     C64584   6.978   9.241   9.195 -0.3480 -0.1126 -0.1627
  479MOL0     C64585   7.053   9.337   9.126 -0.2168  0.2811 -0.1702
  479MOL0     C64586   7.004   9.399   9.011  0.0078 -0.8198 -0.0730
  479MOL0     C64587   6.890   9.349   8.957 -0.5867  0.4064  0.2996
  479MOL0     O64588   6.842   9.396   8.836 -0.1469 -0.1105 -0.0769
  479MOL0     C64589   6.932   9.431   8.727 -0.5603 -0.5284  0.2546
  479MOL0     C64590   6.835   9.505   8.641 -0.6488 -0.0863  0.4758
  479MOL0     C64591   6.810   9.649   8.683  1.1250 -0.1928  0.1025
  479MOL0     C64592   6.813   9.753   8.573  0.0759  0.4762  0.1524
  479MOL0     C64593   6.751   9.877   8.626 -0.1941  0.4314 -0.0041
  479MOL0     C64594   6.681   9.974   8.672  0.2804  0.3565  0.2138
  479MOL0     C64595   6.816   9.254   9.019  0.0996 -0.2624 -1.0630
  479MOL0     C64596   6.852   9.207   9.141  0.5075  0.9393  0.1810
  479MOL0     C64597   6.756   9.097   9.203 -0.2018  0.8991 -0.0066
  479MOL0     H64598   7.325   9.053   9.361 -1.0266  1.7847 -0.7849
  479MOL0     H64599   7.395   8.908   9.551 -0.2057 -0.4784  1.3109
  479MOL0     H64600   7.226   8.938   9.936 -1.4346 -4.7849  0.0906
  479MOL0     H64601   7.236   8.844   9.786  0.7568  0.0345 -0.9865
  479MOL0     H64602   7.284   8.729   9.987  2.2022 -0.2503  1.3351
  479MOL0     H64603   7.411   8.830  10.035 -0.1928 -1.4568  0.7260
  479MOL0     H64604   7.511   8.648   9.926  1.3514  1.7250 -0.0630
  479MOL0     H64605   7.534   8.791   9.826 -0.8238  1.4331  0.5593
  479MOL0     H64606   7.317   8.583   9.757  2.1677 -2.0516 -0.0517
  479MOL0     H64607   7.362   8.711   9.661 -1.9182 -1.5175  0.5594
  479MOL0     H64608   7.537   8.472   9.730  1.1871  2.0889  1.6608
  479MOL0     H64609   7.461   8.512   9.575 -0.4739  1.5473 -0.6570
  479MOL0     H64610   7.582   8.703   9.540  1.2767  1.7671 -0.5823
  479MOL0     H64611   7.673   8.682   9.688  1.0462  0.0105 -1.0487
  479MOL0     H64612   7.817   8.575   9.508  1.2042 -0.9045  0.7459
  479MOL0     H64613   7.674   8.486   9.461 -0.5110 -2.7534  1.2231
  479MOL0     H64614   7.769   8.457   9.743 -0.1771  1.0637 -1.5290
  479MOL0     H64615   7.720   8.323   9.639  0.9526 -0.6414  0.2163
  479MOL0     H64616   8.053   8.516   9.715 -1.7423  0.0630 -0.0976
  479MOL0     H64617   8.310   8.325   9.494 -0.1896  0.6808 -0.4108
  479MOL0     H64618   8.287   8.493   9.540  0.9246  0.1671 -1.0737
  479MOL0     H64619   8.436   8.395   9.701 -0.7139  0.8733 -1.5673
  479MOL0     H64620   8.280   8.419   9.786  1.1475  1.0373  0.5541
  479MOL0     H64621   8.396   8.148   9.670 -2.1078 -1.9847  1.0368
  479MOL0     H64622   8.234   8.184   9.732  0.2041 -0.6770  1.6665
  479MOL0     H64623   8.311   8.127   9.943 -3.3243  2.4320 -1.8561
  479MOL0     H64624   8.401   8.275   9.934  0.7487  0.0384 -0.1085
  479MOL0     H64625   8.626   8.165  10.102  0.4031  0.3847  1.0052
  479MOL0     H64626   8.844   8.275  10.133 -0.0001 -1.8566  0.3322
  479MOL0     H64627   9.158   8.694   9.830  1.8448  0.4810 -2.3033
  479MOL0     H64628   9.384   8.755   9.826  1.1655  0.0842  1.5896
  479MOL0     H64629   9.621   8.769   9.711 -0.6020 -5.3560 -2.8176
  479MOL0     H64630   9.588   8.771   9.895 -0.1635 -1.6880  1.3352
  479MOL0     H64631   9.826   8.674   9.913  0.5738  1.0077  0.4966
  479MOL0     H64632   9.839   8.682   9.733  1.8234  2.2083 -0.1954
  479MOL0     H64633   9.833   8.938   9.763  1.0032  1.9986  1.5585
  479MOL0     H64634   9.799   8.910   9.930 -0.9856  0.4188 -0.7416
  479MOL0     H64635  10.047   8.827   9.780 -0.7304  1.8489 -1.2465
  479MOL0     H64636  10.029   8.790   9.951 -0.5185 -1.3747 -1.0203
  479MOL0     H64637   9.994   9.045   9.989 -0.1462  1.7654 -0.5160
  479MOL0     H64638  10.019   9.072   9.812  1.6933 -0.2803 -1.5987
  479MOL0     H64639  10.224   8.979  10.017 -0.8933 -0.9875  0.3320
  479MOL0     H64640  10.249   8.976   9.840 -4.0160 -2.5190 -1.2778
  479MOL0     H64641  10.181   9.220   9.837 -2.3247 -0.8854 -0.2040
  479MOL0     H64642  10.327   9.200   9.925 -0.0953  0.4611  0.5347
  479MOL0     H64643  10.057   9.240  10.042  0.0824 -2.4708 -0.2930
  479MOL0     H64644  10.202   9.196  10.140 -1.8241  1.5498  0.8258
  479MOL0     H64645   9.507   8.339   9.810 -0.0465 -0.5489  2.1587
  479MOL0     H64646   9.268   8.276   9.840 -3.5754  0.7023 -0.3535
  479MOL0     H64647   8.850   8.380   9.720 -1.2121 -0.1048 -0.2529
  479MOL0     H64648   8.622   8.281   9.701  0.8392  1.8170  0.0223
  479MOL0     H64649   7.258   9.220   9.812 -0.0731 -2.2363  0.6564
  479MOL0     H64650   7.147   9.326   9.627  2.0337 -0.4145  3.8685
  479MOL0     H64651   7.146   9.374   9.169 -1.1171  0.8743  1.3538
  479MOL0     H64652   7.072   9.463   8.956  0.3034 -0.4289  0.7234
  479MOL0     H64653   6.974   9.342   8.679 -1.1707  1.0877 -3.6735
  479MOL0     H64654   7.009   9.502   8.760  0.3468  0.5614 -3.6548
  479MOL0     H64655   6.737   9.458   8.630 -1.0059  1.0903 -2.2195
  479MOL0     H64656   6.872   9.500   8.538 -2.3619 -0.4277 -0.1707
  479MOL0     H64657   6.868   9.675   8.772  1.5952 -1.6128  0.2331
  479MOL0     H64658   6.706   9.654   8.717  0.1403  0.4138 -2.6835
  479MOL0     H64659   6.915   9.770   8.536  0.9099 -1.2268  1.5497
  479MOL0     H64660   6.748   9.712   8.495 -0.9703 -2.1954  2.3053
  479MOL0     H64661   6.619  10.040   8.730  1.1895 -0.6246  2.4488
  479MOL0     H64662   6.722   9.227   8.973 -0.7601 -0.9994  0.9996
  479MOL0     H64663   6.680   9.065   9.131  2.2408 -2.7358 -1.2759
  479MOL0     H64664   6.809   9.002   9.209  1.8113  1.9102 -0.6460
  479MOL0     H64665   6.724   9.133   9.301  3.7904  4.3268  0.3408
  480MOL0     O64666   8.417   7.577   1.095  0.0161  0.9336 -0.0620
  480MOL0     C64667   8.357   7.483   1.038  1.0588 -0.2107 -0.8351
  480MOL0     O64668   8.422   7.398   0.954 -0.1962  0.5146  0.1161
  480MOL0     C64669   8.552   7.426   0.915  0.9670 -0.3792 -0.2201
  480MOL0     C64670   8.657   7.421   1.006  0.9819 -0.3226  0.1416
  480MOL0     C64671   8.783   7.444   0.957 -0.4397  0.3310 -0.1607
  480MOL0     C64672   8.811   7.482   0.826  1.0568  0.2364 -0.3439
  480MOL0     O64673   8.938   7.512   0.799 -0.4120 -0.0844 -0.0245
  480MOL0     C64674   8.973   7.601   0.700  0.5272  0.1692  0.5004
  480MOL0     C64675   9.115   7.641   0.709 -1.2340 -0.6081  0.1020
  480MOL0     C64676   9.180   7.698   0.580 -1.4078  0.9776 -0.4191
  480MOL0     C64677   9.186   7.590   0.472  0.3462 -0.0907 -0.5192
  480MOL0     C64678   9.258   7.633   0.343  0.2770  0.3508 -0.5276
  480MOL0     C64679   9.311   7.513   0.262 -0.8606  0.7893  0.0157
  480MOL0     C64680   9.359   7.554   0.118 -0.0118  0.1719 -0.3210
  480MOL0     C64681   9.366   7.436   0.021 -0.0527 -0.7291  0.6321
  480MOL0     N64682   9.462   7.329   0.060 -0.3293 -1.0542  0.8245
  480MOL0     C64683   9.587   7.314   0.001 -0.1730  0.6636  0.2665
  480MOL0     C64684   9.642   7.207   0.068 -0.4863  0.1900  0.1647
  480MOL0     C64685   9.779   7.146   0.060  0.0881 -0.3781 -0.2495
  480MOL0     C64686   9.899   7.244   0.076 -0.1754 -0.3947  0.4065
  480MOL0     C64687  10.031   7.180   0.050  0.1181 -0.1782 -0.0705
  480MOL0     C64688  10.142   7.295   0.073 -0.3978  1.1925 -0.6111
  480MOL0     O64689  10.145   7.375  -0.050 -0.6084  0.1173 -0.1737
  480MOL0     C64690  10.262   7.413  -0.109  0.1806 -0.1214 -0.4921
  480MOL0     C64691  10.242   7.524  -0.193  0.2782  0.3141 -0.2665
  480MOL0     C64692  10.355   7.573  -0.266  0.1756  0.4676 -0.7295
  480MOL0     C64693  10.479   7.511  -0.256 -0.1587 -0.2108 -0.9769
  480MOL0     C64694  10.591   7.544  -0.341  0.0153  0.7444 -0.2553
  480MOL0     O64695  10.710   7.501  -0.291  0.5292 -0.5446  0.2360
  480MOL0     C64696  10.825   7.574  -0.290 -0.1742 -0.9015 -0.2738
  480MOL0     C64697  10.856   7.666  -0.190 -0.2963  0.7765 -0.2289
  480MOL0     C64698  10.969   7.741  -0.199 -1.4169  0.2613  0.0689
  480MOL0     C64699  11.056   7.726  -0.309  0.3118 -0.2460 -1.1677
  480MOL0     O64700  11.162   7.813  -0.327  0.5785  0.0711 -0.2126
  480MOL0     C64701  11.208   7.893  -0.220 -0.0632  0.0987 -0.4939
  480MOL0     C64702  11.353   7.946  -0.256  0.5219 -0.0665  0.1834
  480MOL0     C64703  11.415   8.059  -0.172 -0.8351  0.8113  0.9057
  480MOL0     C64704  11.563   8.073  -0.223 -0.3478  0.1946  0.7269
  480MOL0     C64705  11.633   8.193  -0.170  0.3083 -1.1842 -0.2000
  480MOL0     C64706  11.779   8.194  -0.193 -0.1598 -0.5977  0.2158
  480MOL0     C64707  11.858   8.311  -0.131 -0.1121 -0.0481  0.0787
  480MOL0     C64708  12.010   8.290  -0.122 -0.0543 -0.1102 -0.0612
  480MOL0    Cl64709  12.053   8.182   0.004  0.2108  0.2315 -0.0337
  480MOL0     C64710  11.033   7.632  -0.404 -0.1150 -0.2595 -0.3927
  480MOL0     C64711  10.915   7.556  -0.392 -0.4577  0.4581  0.8338
  480MOL0     O64712  10.577   7.622  -0.431  0.2153 -0.0093  0.2520
  480MOL0     C64713  10.491   7.396  -0.170 -0.5406 -0.4842  0.0804
  480MOL0     C64714  10.391   7.351  -0.094  0.0679  1.1846  0.1072
  480MOL0     N64715   9.547   7.166   0.159  0.3632 -0.1854 -0.0004
  480MOL0     N64716   9.437   7.237   0.157  0.9060  0.0485 -0.3669
  480MOL0     C64717   8.705   7.474   0.734  0.6319 -0.5649  0.0758
  480MOL0     C64718   8.576   7.461   0.786  1.0313  0.0336  0.2676
  480MOL0     C64719   8.211   7.463   1.055  1.4383  0.7295 -1.4356
  480MOL0     C64720   8.155   7.354   0.990 -0.7631  0.7991  0.7815
  480MOL0     C64721   8.021   7.328   0.980 -0.1405  0.3161  0.5631
  480MOL0     C64722   7.934   7.412   1.046 -0.4666 -0.4021  0.6024
  480MOL0     O64723   7.793   7.402   1.054 -0.0948  0.5047  0.3427
  480MOL0     C64724   7.737   7.282   1.007  0.1737  0.1147  0.0369
  480MOL0     C64725   7.598   7.273   1.051  0.7044 -1.0520  0.5401
  480MOL0     C64726   7.500   7.379   0.996  1.0254 -0.4802 -1.1939
  480MOL0     C64727   7.480   7.367   0.843  0.6548 -0.5034  0.6083
  480MOL0     C64728   7.349   7.313   0.794 -0.1797  0.2433 -0.1394
  480MOL0     C64729   7.240   7.268   0.775 -0.1295  0.6411  0.2292
  480MOL0     C64730   7.981   7.526   1.113  0.0347 -0.3953  0.0180
  480MOL0     C64731   8.121   7.554   1.116  0.2006  0.8261  0.5831
  480MOL0     C64732   8.178   7.675   1.179  0.8346 -0.0014 -0.0704
  480MOL0     H64733   8.628   7.382   1.104 -0.9632 -5.4648 -2.1066
  480MOL0     H64734   8.872   7.427   1.017 -0.2562  0.4408 -0.3950
  480MOL0     H64735   8.962   7.554   0.601 -1.1651  0.9504  0.2841
  480MOL0     H64736   8.903   7.685   0.702  0.4989  0.2504 -1.4200
  480MOL0     H64737   9.166   7.547   0.734 -2.2642 -1.0140  0.7204
  480MOL0     H64738   9.121   7.715   0.790 -0.3325  1.1296 -1.4749
  480MOL0     H64739   9.280   7.736   0.604 -1.9053  2.7493 -1.0003
  480MOL0     H64740   9.119   7.785   0.553 -0.3170  1.2717 -2.0964
  480MOL0     H64741   9.227   7.498   0.513 -2.1745 -1.2990 -0.5036
  480MOL0     H64742   9.084   7.561   0.444  1.5829 -3.2447 -2.2499
  480MOL0     H64743   9.188   7.694   0.285 -3.2496  0.8111  3.6411
  480MOL0     H64744   9.341   7.698   0.371  2.1324 -2.7760  1.9718
  480MOL0     H64745   9.395   7.460   0.308 -0.7738 -1.8166 -2.8389
  480MOL0     H64746   9.225   7.446   0.262  0.4253 -0.9171  0.5308
  480MOL0     H64747   9.458   7.600   0.129  1.5949 -2.9472 -0.6555
  480MOL0     H64748   9.291   7.628   0.075  0.5568  1.4687  0.9213
  480MOL0     H64749   9.270   7.385   0.020  0.5268 -1.8911 -1.3646
  480MOL0     H64750   9.399   7.479  -0.074  1.0528 -1.9436  0.4400
  480MOL0     H64751   9.626   7.375  -0.079 -1.4621 -0.2084 -1.0768
  480MOL0     H64752   9.772   7.081   0.148  0.5049 -1.1193 -0.7545
  480MOL0     H64753   9.781   7.097  -0.037 -1.0243 -0.2068 -0.3656
  480MOL0     H64754   9.884   7.333   0.015 -1.4794 -0.0969  1.1423
  480MOL0     H64755   9.901   7.286   0.177 -1.0868 -0.1003  0.3113
  480MOL0     H64756  10.039   7.137  -0.050  0.1649 -0.2891 -0.0190
  480MOL0     H64757  10.042   7.099   0.122 -4.0181  0.0292  1.0435
  480MOL0     H64758  10.239   7.246   0.079 -1.1243 -0.1556  0.9500
  480MOL0     H64759  10.109   7.361   0.154 -2.2177  2.3019 -2.1462
  480MOL0     H64760  10.138   7.555  -0.196 -0.1460 -0.2862  3.7051
  480MOL0     H64761  10.353   7.655  -0.337  1.8185  1.0220 -0.1807
  480MOL0     H64762  10.798   7.679  -0.099  0.5364  1.6591  0.1982
  480MOL0     H64763  10.985   7.824  -0.130  1.0924  0.0892 -0.1881
  480MOL0     H64764  11.141   7.978  -0.205 -3.1806 -1.8314 -2.4777
  480MOL0     H64765  11.221   7.841  -0.124 -1.7353 -0.0857 -0.3383
  480MOL0     H64766  11.425   7.866  -0.273  0.9372  0.0003  1.5471
  480MOL0     H64767  11.349   7.995  -0.354  3.4138  1.9892  0.9649
  480MOL0     H64768  11.364   8.155  -0.179 -0.6905  0.7605 -2.1554
  480MOL0     H64769  11.407   8.027  -0.067  0.0411  2.3753  1.4884
  480MOL0     H64770  11.572   8.073  -0.332  2.5249 -0.0654  0.8857
  480MOL0     H64771  11.613   7.987  -0.178 -2.3950 -1.2442  0.3607
  480MOL0     H64772  11.615   8.201  -0.062  0.9693 -1.7588 -0.0433
  480MOL0     H64773  11.593   8.285  -0.214  1.0035 -0.6537  0.2407
  480MOL0     H64774  11.816   8.104  -0.143 -2.5351 -0.8611  1.6193
  480MOL0     H64775  11.806   8.174  -0.298  0.8578 -0.3224  0.4144
  480MOL0     H64776  11.828   8.317  -0.026 -1.8404 -0.3580 -0.3680
  480MOL0     H64777  11.831   8.396  -0.194  2.6142  1.7868  1.2074
  480MOL0     H64778  12.051   8.242  -0.212 -0.8898  0.3386 -0.6964
  480MOL0     H64779  12.058   8.387  -0.108  0.0379 -0.4517  2.2859
  480MOL0     H64780  11.100   7.610  -0.487  0.8571  3.1533 -0.6892
  480MOL0     H64781  10.891   7.479  -0.466  1.0035  2.0582 -1.4309
  480MOL0     H64782  10.588   7.346  -0.164 -1.8580 -3.0807  1.4279
  480MOL0     H64783  10.411   7.267  -0.029 -1.3583  0.0568 -0.8469
  480MOL0     H64784   8.723   7.484   0.628  1.3500  0.3222  0.2785
  480MOL0     H64785   8.489   7.449   0.722  0.1077  1.6265  1.1789
  480MOL0     H64786   8.224   7.287   0.939 -2.7869 -1.0970  0.4047
  480MOL0     H64787   7.988   7.245   0.918  1.7095 -0.8696  1.0879
  480MOL0     H64788   7.791   7.200   1.054  1.4157 -0.2138 -1.8324
  480MOL0     H64789   7.744   7.268   0.899 -2.0756 -0.9961 -0.0352
  480MOL0     H64790   7.580   7.286   1.158 -0.5802  0.4489  0.1745
  480MOL0     H64791   7.564   7.176   1.013  1.8642 -2.3204  2.5457
  480MOL0     H64792   7.527   7.481   1.022 -1.1475 -0.4253  1.3689
  480MOL0     H64793   7.408   7.347   1.046  1.9954 -1.1500  0.2298
  480MOL0     H64794   7.488   7.466   0.798  2.2582 -1.1135 -0.5678
  480MOL0     H64795   7.562   7.304   0.808  0.2901 -0.4350 -0.3843
  480MOL0     H64796   7.143   7.226   0.761 -0.4175  0.5820  2.1453
  480MOL0     H64797   7.913   7.599   1.157 -0.3364  1.8034 -3.7820
  480MOL0     H64798   8.089   7.732   1.210  1.4194  1.0580 -0.2947
  480MOL0     H64799   8.229   7.661   1.275 -0.4317  1.0347  0.7985
  480MOL0     H64800   8.240   7.729   1.107 -0.2968 -0.9706 -1.8472
  481MOL0     O64801   8.789   2.931  10.759 -0.2505  1.0278  0.1519
  481MOL0     C64802   8.742   3.041  10.793 -0.0662 -0.4168  0.2191
  481MOL0     O64803   8.793   3.123  10.886 -0.0545 -0.4914  0.1418
  481MOL0     C64804   8.928   3.110  10.898  0.1248 -0.8833  0.2665
  481MOL0     C64805   9.010   3.143  10.785  0.6175  0.7127  0.6648
  481MOL0     C64806   9.149   3.112  10.795  0.2647 -1.1575  0.1194
  481MOL0     C64807   9.213   3.060  10.910  0.1186 -0.6884 -0.4475
  481MOL0     O64808   9.349   3.058  10.912 -0.3700 -0.0733  0.0349
  481MOL0     C64809   9.411   2.981  11.013 -0.3357  0.6515 -0.7822
  481MOL0     C64810   9.552   2.946  10.979 -0.2037 -0.9133  0.3433
  481MOL0     C64811   9.581   2.831  10.889 -0.3468  0.2159  1.3923
  481MOL0     C64812   9.505   2.823  10.758  0.1661 -0.5131 -0.0905
  481MOL0     C64813   9.531   2.703  10.680 -0.3541  0.8906  0.6823
  481MOL0     C64814   9.616   2.738  10.558 -0.6413 -0.4637  1.4411
  481MOL0     C64815   9.639   2.604  10.488 -0.4213  0.5632  0.1482
  481MOL0     C64816   9.514   2.554  10.397  0.2746  0.3596 -0.6824
  481MOL0     N64817   9.533   2.440  10.305 -0.9079  0.2319 -0.4160
  481MOL0     C64818   9.547   2.310  10.343 -0.2209 -0.8790  0.3772
  481MOL0     C64819   9.577   2.236  10.231  0.3950 -0.4115 -0.9386
  481MOL0     C64820   9.607   2.086  10.228  0.3974  0.6480 -0.3291
  481MOL0     C64821   9.561   2.005  10.104 -0.3793 -0.2872 -0.0745
  481MOL0     C64822   9.586   1.855  10.119  0.1404 -0.6103  0.3264
  481MOL0     C64823   9.722   1.817  10.071  0.1484  0.2411 -0.4296
  481MOL0     O64824   9.817   1.822  10.183 -0.1851 -0.1577  0.0535
  481MOL0     C64825   9.953   1.798  10.157  0.4368 -0.3230  0.2297
  481MOL0     C64826  10.016   1.779  10.041 -0.3267  0.7081  0.1448
  481MOL0     C64827  10.155   1.759  10.034  0.6075  0.0138 -0.4647
  481MOL0     C64828  10.230   1.743  10.150  0.5602 -0.3789  0.0625
  481MOL0     C64829  10.375   1.723  10.127  1.3285 -0.2519 -0.2317
  481MOL0     O64830  10.443   1.729  10.246  0.5313  0.5487 -0.5110
  481MOL0     C64831  10.577   1.760  10.226  0.5749 -0.2888 -0.3846
  481MOL0     C64832  10.618   1.874  10.158  0.4855 -0.1883  0.3839
  481MOL0     C64833  10.743   1.926  10.176  0.3560  0.3941 -0.0440
  481MOL0     C64834  10.839   1.852  10.243 -0.7832  0.0648 -0.7762
  481MOL0     O64835  10.967   1.901  10.244 -0.2488 -0.3637  0.8193
  481MOL0     C64836  11.045   1.885  10.359 -0.2516 -0.4455 -0.4768
  481MOL0     C64837  11.144   1.997  10.384 -0.6073 -0.3903 -0.9340
  481MOL0     C64838  11.087   2.134  10.418 -0.3966 -0.6263  0.5319
  481MOL0     C64839  11.183   2.244  10.444 -0.3696  0.2265 -0.2137
  481MOL0     C64840  11.118   2.378  10.429  0.4548  0.0761 -0.5703
  481MOL0     C64841  11.214   2.491  10.466  0.2593  0.2043  0.5527
  481MOL0     C64842  11.148   2.619  10.435 -0.6193 -0.0420  0.6994
  481MOL0     C64843  11.245   2.728  10.470  0.7473  0.1487  0.6473
  481MOL0    Cl64844  11.380   2.737  10.370  0.1056 -0.1514 -0.2031
  481MOL0     C64845  10.807   1.733  10.309  0.6827 -0.3245  0.9221
  481MOL0     C64846  10.676   1.693  10.303  1.1483  0.6312  0.2892
  481MOL0     O64847  10.427   1.695  10.021 -0.1074 -0.2370  0.6222
  481MOL0     C64848  10.169   1.762  10.276 -0.5772  0.4013  0.4542
  481MOL0     C64849  10.028   1.784  10.278 -0.1503  0.2544  0.1185
  481MOL0     N64850   9.593   2.319  10.125  0.7716  1.0088  0.1533
  481MOL0     N64851   9.555   2.439  10.171  0.0711  0.2599 -0.1327
  481MOL0     C64852   9.127   3.023  11.013 -0.8781  0.3841  0.2857
  481MOL0     C64853   8.987   3.057  11.005 -0.0568  0.6198 -0.3867
  481MOL0     C64854   8.614   3.093  10.734  0.4102  0.6165 -0.9646
  481MOL0     C64855   8.587   3.233  10.723  0.0303 -0.1486 -0.5854
  481MOL0     C64856   8.480   3.291  10.657  0.5006  0.6752  0.3428
  481MOL0     C64857   8.378   3.203  10.621  0.7098 -0.1918  0.5206
  481MOL0     O64858   8.275   3.267  10.557  0.2415  0.1261 -0.1860
  481MOL0     C64859   8.158   3.186  10.518 -0.8715 -0.5088  0.2340
  481MOL0     C64860   8.163   3.198  10.363 -0.2885 -0.0818 -0.1592
  481MOL0     C64861   8.069   3.093  10.307  0.9910  0.1167  0.3284
  481MOL0     C64862   8.119   3.003  10.188 -0.5936 -0.5084 -0.9562
  481MOL0     C64863   8.231   2.919  10.231  0.7364  0.0803  0.2760
  481MOL0     C64864   8.328   2.857  10.274  0.4480 -0.4860 -0.3775
  481MOL0     C64865   8.398   3.061  10.640  0.3632 -0.3841 -0.2680
  481MOL0     C64866   8.514   3.006  10.689 -0.3568  0.5650  0.3559
  481MOL0     C64867   8.515   2.853  10.700 -0.5423 -0.3864 -0.7450
  481MOL0     H64868   8.964   3.194  10.701  1.0098 -0.7093 -0.4557
  481MOL0     H64869   9.219   3.140  10.717  1.5813  1.1727  1.9962
  481MOL0     H64870   9.421   3.037  11.107  0.2964 -0.1893 -0.3221
  481MOL0     H64871   9.352   2.897  11.051  0.4486 -0.2721 -1.5312
  481MOL0     H64872   9.598   2.930  11.077  0.5550  1.0184  0.3473
  481MOL0     H64873   9.599   3.036  10.940 -1.6057 -0.3747 -0.1737
  481MOL0     H64874   9.557   2.742  10.949  2.3690  1.5992  4.8626
  481MOL0     H64875   9.686   2.830  10.860 -0.1505 -3.4670  1.6818
  481MOL0     H64876   9.397   2.835  10.773  0.0212 -1.9193  0.1520
  481MOL0     H64877   9.543   2.911  10.706  2.7345  0.7234  3.5059
  481MOL0     H64878   9.573   2.621  10.739 -0.4435  2.2810  2.7774
  481MOL0     H64879   9.436   2.676  10.633 -0.6135 -0.9119  2.1178
  481MOL0     H64880   9.566   2.811  10.495  1.4727 -0.2773 -0.1203
  481MOL0     H64881   9.712   2.770  10.600 -1.0462 -0.3147  2.2836
  481MOL0     H64882   9.678   2.533  10.560  2.0327 -0.1956 -1.7735
  481MOL0     H64883   9.716   2.628  10.414 -0.4010  0.5444  0.1635
  481MOL0     H64884   9.431   2.528  10.464 -1.9052  1.9139 -2.5972
  481MOL0     H64885   9.488   2.646  10.344  0.1298  1.8781  1.8490
  481MOL0     H64886   9.536   2.271  10.444 -0.8807  0.1078  0.6957
  481MOL0     H64887   9.715   2.070  10.223  0.3648  0.6414 -1.1391
  481MOL0     H64888   9.570   2.040  10.320  0.8379  1.1522  0.1074
  481MOL0     H64889   9.453   2.012  10.088 -0.2388 -0.1121 -0.9903
  481MOL0     H64890   9.623   2.039  10.020 -0.1040  2.0073  0.9779
  481MOL0     H64891   9.517   1.798  10.056  0.5560 -1.9220  1.0201
  481MOL0     H64892   9.569   1.816  10.220 -0.5746  0.3208  0.5733
  481MOL0     H64893   9.747   1.880   9.986 -0.5881  2.6467  1.0304
  481MOL0     H64894   9.717   1.711  10.044 -0.0977  0.7414 -2.5328
  481MOL0     H64895   9.951   1.787   9.954  0.1827  4.7481 -0.0366
  481MOL0     H64896  10.204   1.758   9.937 -0.6663 -0.0947 -1.1274
  481MOL0     H64897  10.546   1.942  10.112  2.7179 -0.0247 -3.2946
  481MOL0     H64898  10.763   2.020  10.126 -2.2473 -0.8927 -3.8752
  481MOL0     H64899  10.979   1.873  10.445 -1.9255 -2.0069 -1.8631
  481MOL0     H64900  11.101   1.792  10.341 -0.4286 -0.1367 -2.9576
  481MOL0     H64901  11.191   1.969  10.479 -0.9003  2.2760  0.0741
  481MOL0     H64902  11.224   2.006  10.310 -0.7232 -1.6720 -1.2425
  481MOL0     H64903  11.047   2.151  10.318  0.5427  1.6056  0.4786
  481MOL0     H64904  11.011   2.118  10.496 -1.1617  1.0721  0.1805
  481MOL0     H64905  11.264   2.245  10.370 -0.9726  3.8540 -1.0172
  481MOL0     H64906  11.227   2.230  10.543  0.0645 -0.6005 -0.5108
  481MOL0     H64907  11.035   2.384  10.499  0.4142 -1.5328 -0.4445
  481MOL0     H64908  11.072   2.393  10.331 -2.3098  0.3815  0.6856
  481MOL0     H64909  11.230   2.475  10.573 -1.4046  0.3756  0.8616
  481MOL0     H64910  11.301   2.485  10.401  1.5495 -0.9148  2.2714
  481MOL0     H64911  11.046   2.629  10.472 -1.5026 -3.0909 -0.6287
  481MOL0     H64912  11.128   2.637  10.330 -1.3371 -2.8039  0.2896
  481MOL0     H64913  11.199   2.827  10.473  0.7380  0.1937 -0.4289
  481MOL0     H64914  11.281   2.714  10.572 -0.1776 -0.5539  0.8890
  481MOL0     H64915  10.883   1.680  10.365  2.0430 -0.3693 -0.8786
  481MOL0     H64916  10.641   1.606  10.357 -0.8240  0.4841 -1.1327
  481MOL0     H64917  10.225   1.753  10.369  0.4884 -0.6682 -0.2784
  481MOL0     H64918   9.972   1.798  10.370 -0.7609  0.3962 -0.2673
  481MOL0     H64919   9.165   2.985  11.107  0.4376 -0.9611 -0.7308
  481MOL0     H64920   8.925   3.042  11.093  0.4433  1.0268  0.0378
  481MOL0     H64921   8.673   3.295  10.748  0.6672 -1.6823  1.2785
  481MOL0     H64922   8.466   3.396  10.635  0.7564  0.7908  0.7187
  481MOL0     H64923   8.065   3.234  10.550  0.3272  1.0935  1.4185
  481MOL0     H64924   8.167   3.081  10.547  0.8958 -0.1703  1.0210
  481MOL0     H64925   8.267   3.194  10.328 -0.0120 -1.5482  0.7627
  481MOL0     H64926   8.132   3.299  10.334 -1.8214 -0.1443  1.1364
  481MOL0     H64927   7.990   3.149  10.256  2.3879  3.0520  1.1409
  481MOL0     H64928   8.028   3.019  10.376  2.3320 -1.8161 -0.8683
  481MOL0     H64929   8.038   2.937  10.157 -0.4408 -0.9191 -0.5049
  481MOL0     H64930   8.147   3.058  10.098  0.1535 -0.3950 -0.6659
  481MOL0     H64931   8.407   2.792  10.306 -0.8011 -0.9111  2.0901
  481MOL0     H64932   8.320   2.987  10.623 -1.0461  1.8728 -6.5857
  481MOL0     H64933   8.421   2.802  10.723  0.9867 -1.7809  3.2589
  481MOL0     H64934   8.557   2.817  10.606 -0.2845  0.2026 -0.8617
  481MOL0     H64935   8.583   2.823  10.781  4.1590  1.0910 -3.7374
  482MOL0     O64936   2.482   2.502   1.422 -0.4774  0.5084 -0.4733
  482MOL0     C64937   2.475   2.396   1.357  0.4603 -0.3750 -1.1252
  482MOL0     O64938   2.560   2.346   1.260 -0.3291  0.2985  0.0724
  482MOL0     C64939   2.662   2.436   1.216  1.3160 -0.8282  1.4971
  482MOL0     C64940   2.630   2.557   1.158 -0.1419 -1.1019 -0.7890
  482MOL0     C64941   2.726   2.641   1.103  0.1408  0.0664  0.2967
  482MOL0     C64942   2.859   2.608   1.095  0.6008  0.4927  0.8420
  482MOL0     O64943   2.938   2.700   1.037  0.1247 -0.6314 -0.2028
  482MOL0     C64944   3.047   2.651   0.967 -0.5247  0.5236 -0.7699
  482MOL0     C64945   3.066   2.746   0.861  0.3881 -0.3275  1.0298
  482MOL0     C64946   3.206   2.724   0.793 -0.0535 -0.1065  0.5258
  482MOL0     C64947   3.265   2.855   0.739  0.2237  0.5469  0.1150
  482MOL0     C64948   3.400   2.830   0.668 -0.0458  0.2505  0.2790
  482MOL0     C64949   3.469   2.965   0.651 -0.3637 -0.5490  0.2638
  482MOL0     C64950   3.607   2.968   0.585 -0.2159 -0.1409 -0.3061
  482MOL0     C64951   3.602   2.951   0.431  0.3534  0.3494 -0.0054
  482MOL0     N64952   3.739   2.941   0.373  0.1810 -0.5652  0.4008
  482MOL0     C64953   3.804   3.050   0.331  0.4043  0.8835  0.1747
  482MOL0     C64954   3.925   3.015   0.284 -0.2797 -0.1261 -0.1332
  482MOL0     C64955   4.024   3.106   0.224 -0.9915 -0.6906  0.6143
  482MOL0     C64956   4.160   3.089   0.293  0.4385  0.2178 -0.5557
  482MOL0     C64957   4.265   3.177   0.236  0.5402 -0.1969  0.6557
  482MOL0     C64958   4.407   3.130   0.284  0.5165 -0.5061 -0.1630
  482MOL0     O64959   4.507   3.197   0.209 -0.1881 -0.0556  0.1856
  482MOL0     C64960   4.642   3.183   0.217  0.5654  0.0292  0.0195
  482MOL0     C64961   4.699   3.088   0.301 -0.0795 -0.1439  0.2864
  482MOL0     C64962   4.845   3.079   0.294  0.5318 -0.1128 -0.3777
  482MOL0     C64963   4.930   3.158   0.213 -0.2176 -0.1978 -0.2774
  482MOL0     C64964   5.081   3.155   0.189 -0.7102 -0.0183 -0.3710
  482MOL0     O64965   5.125   3.185   0.067  0.2669 -0.4518  0.2509
  482MOL0     C64966   5.242   3.140   0.019  0.1496  1.1362  0.5814
  482MOL0     C64967   5.350   3.091   0.085  0.6965  0.4976 -0.5881
  482MOL0     C64968   5.469   3.058   0.020 -0.1626  0.5215  0.0951
  482MOL0     C64969   5.474   3.086  -0.118 -0.6643 -0.0638  0.3493
  482MOL0     O64970   5.597   3.037  -0.164 -0.2927  0.2117  0.7702
  482MOL0     C64971   5.629   3.089  -0.293  0.3216  0.2346 -0.1409
  482MOL0     C64972   5.776   3.037  -0.330 -0.1370 -0.2257 -0.2564
  482MOL0     C64973   5.882   3.102  -0.239  0.5044  0.3632  0.1542
  482MOL0     C64974   6.030   3.059  -0.294 -0.4189  0.4416 -0.6763
  482MOL0     C64975   6.139   3.150  -0.239 -0.0676  0.3941 -0.0365
  482MOL0     C64976   6.177   3.264  -0.338 -0.4099  0.2899  0.7413
  482MOL0     C64977   6.282   3.357  -0.266  0.5944  0.2409  0.4321
  482MOL0     C64978   6.427   3.309  -0.244  0.2930 -0.4915 -0.0539
  482MOL0    Cl64979   6.519   3.450  -0.182  0.0298 -0.3505  0.0135
  482MOL0     C64980   5.371   3.153  -0.187 -1.1993  0.2027 -0.2785
  482MOL0     C64981   5.255   3.184  -0.121 -0.0315 -0.0648  0.0775
  482MOL0     O64982   5.149   3.121   0.286  0.3281  1.1170 -0.9501
  482MOL0     C64983   4.867   3.252   0.128 -0.9309  0.2915  0.3767
  482MOL0     C64984   4.722   3.266   0.141  0.3759  0.6176  0.3400
  482MOL0     N64985   3.922   2.882   0.289  0.2510 -0.1606  0.3159
  482MOL0     N64986   3.812   2.827   0.354 -0.2844 -1.1547 -0.8116
  482MOL0     C64987   2.882   2.474   1.132  0.4769 -0.7640  0.1763
  482MOL0     C64988   2.786   2.396   1.197 -0.1942  0.0350  0.7175
  482MOL0     C64989   2.356   2.318   1.392  0.0393 -0.1099 -0.4923
  482MOL0     C64990   2.302   2.318   1.526  0.7757 -0.2520 -0.9923
  482MOL0     C64991   2.192   2.234   1.561  0.5142  0.7806  1.3619
  482MOL0     C64992   2.130   2.161   1.455 -0.7012 -0.3483 -0.2816
  482MOL0     O64993   2.039   2.071   1.488  0.1488  0.1594 -0.5753
  482MOL0     C64994   2.008   1.967   1.397 -0.2438  0.8705 -0.2462
  482MOL0     C64995   2.115   1.860   1.380 -0.5514 -0.0902  0.4157
  482MOL0     C64996   2.109   1.764   1.492 -0.9207  0.2208 -0.2413
  482MOL0     C64997   2.219   1.660   1.463 -0.0509 -0.2966 -0.9327
  482MOL0     C64998   2.172   1.563   1.360  0.2589  0.6110  0.1166
  482MOL0     C64999   2.141   1.483   1.276 -0.1326 -0.0439  1.2237
  482MOL0     C65000   2.174   2.185   1.328 -0.4185  0.4899 -0.1467
  482MOL0     C65001   2.291   2.253   1.289  0.6988 -0.7362  0.1416
  482MOL0     C65002   2.321   2.269   1.144  0.1695 -0.4898 -0.4734
  482MOL0     H65003   2.524   2.581   1.157  0.0993  0.1043  0.1003
  482MOL0     H65004   2.674   2.726   1.061 -1.5410 -0.4391  1.2638
  482MOL0     H65005   3.130   2.642   1.038 -3.7858 -0.7652  3.2343
  482MOL0     H65006   3.018   2.554   0.925 -3.5741  1.1249 -0.2733
  482MOL0     H65007   3.055   2.848   0.900  1.0873 -0.5332  1.7998
  482MOL0     H65008   2.991   2.742   0.782 -1.0336  1.0986  2.2285
  482MOL0     H65009   3.188   2.654   0.711  0.3571  0.7713 -0.3269
  482MOL0     H65010   3.269   2.683   0.873  0.4352 -2.9302 -1.1486
  482MOL0     H65011   3.207   2.906   0.662  1.4260  0.3998 -0.9256
  482MOL0     H65012   3.288   2.909   0.831  1.8055 -2.8996  1.9349
  482MOL0     H65013   3.465   2.760   0.722  1.3670  0.3259 -1.2376
  482MOL0     H65014   3.373   2.792   0.569  0.8293 -0.8040  0.4266
  482MOL0     H65015   3.402   3.032   0.597  0.4624 -0.5477 -0.7985
  482MOL0     H65016   3.482   3.015   0.748 -1.5281 -2.3060  1.3979
  482MOL0     H65017   3.677   2.895   0.627  0.6961  1.3516  0.8578
  482MOL0     H65018   3.639   3.069   0.612 -1.8125  0.8414 -1.8733
  482MOL0     H65019   3.557   2.855   0.406 -0.2593  0.8361 -0.8215
  482MOL0     H65020   3.554   3.038   0.387 -0.8446 -0.8903 -1.2260
  482MOL0     H65021   3.768   3.151   0.344  2.8247  1.8439 -0.0583
  482MOL0     H65022   4.035   3.065   0.124  0.5329 -1.3241  1.0130
  482MOL0     H65023   3.999   3.212   0.228  4.2500  0.7871  1.1580
  482MOL0     H65024   4.155   3.107   0.401 -2.3273 -0.2930 -0.5154
  482MOL0     H65025   4.185   2.988   0.260 -2.4123 -0.7964  0.1454
  482MOL0     H65026   4.242   3.281   0.260  0.9472  0.0030  0.1892
  482MOL0     H65027   4.264   3.170   0.127 -2.2633  0.3805  0.5702
  482MOL0     H65028   4.412   3.024   0.259 -3.9618 -0.7691 -0.7889
  482MOL0     H65029   4.433   3.145   0.389 -0.1091 -2.8370  0.3846
  482MOL0     H65030   4.641   3.023   0.365 -1.0061 -0.2911 -0.6724
  482MOL0     H65031   4.897   3.008   0.357  0.9088  0.9956  0.6089
  482MOL0     H65032   5.344   3.084   0.193 -1.0783  1.3496 -0.5887
  482MOL0     H65033   5.553   3.021   0.078 -0.6634  0.6770  0.9438
  482MOL0     H65034   5.556   3.052  -0.365  1.0655  0.2397 -0.9203
  482MOL0     H65035   5.635   3.197  -0.282 -2.7271  0.9691 -3.8924
  482MOL0     H65036   5.787   2.928  -0.326 -0.7897 -0.2731  0.3669
  482MOL0     H65037   5.797   3.073  -0.431  0.5381 -2.0656 -0.8077
  482MOL0     H65038   5.868   3.211  -0.243 -0.5330  0.2203 -0.5504
  482MOL0     H65039   5.869   3.064  -0.138 -0.4691  1.2098  0.3662
  482MOL0     H65040   6.029   3.068  -0.403 -1.7380 -1.6373 -0.9045
  482MOL0     H65041   6.065   2.962  -0.259 -1.7340 -1.0201 -3.0746
  482MOL0     H65042   6.230   3.104  -0.200 -0.2394  0.4009  0.3765
  482MOL0     H65043   6.095   3.202  -0.154  0.3301 -0.2650  0.5791
  482MOL0     H65044   6.211   3.221  -0.432  0.0327  0.8288  0.6525
  482MOL0     H65045   6.092   3.332  -0.349 -1.1364  0.1158  4.1514
  482MOL0     H65046   6.236   3.383  -0.170  0.2179 -2.0519  0.9273
  482MOL0     H65047   6.292   3.439  -0.337 -3.0265 -0.6162 -1.2887
  482MOL0     H65048   6.426   3.222  -0.178  1.5149 -1.5596 -1.3710
  482MOL0     H65049   6.469   3.278  -0.340 -1.2647 -0.1904 -0.8623
  482MOL0     H65050   5.376   3.167  -0.294  0.3208 -0.6404 -0.3494
  482MOL0     H65051   5.168   3.220  -0.175 -0.1934  2.1832  1.7357
  482MOL0     H65052   4.918   3.329   0.071 -0.4919 -0.0637  0.2889
  482MOL0     H65053   4.668   3.345   0.089  2.5079  1.1446 -1.2077
  482MOL0     H65054   2.983   2.433   1.134  0.2645 -1.5181  3.8481
  482MOL0     H65055   2.816   2.301   1.241  1.4561  1.1417  2.1373
  482MOL0     H65056   2.349   2.370   1.609 -1.6952  1.5431 -0.5966
  482MOL0     H65057   2.159   2.230   1.665 -1.3685 -0.1944  0.7743
  482MOL0     H65058   1.980   2.003   1.298  0.9277  1.0450 -0.5307
  482MOL0     H65059   1.919   1.914   1.433 -0.4936  1.8941  0.6848
  482MOL0     H65060   2.213   1.910   1.380 -1.5258  1.9434  1.0459
  482MOL0     H65061   2.106   1.816   1.281 -0.8395  2.4502 -0.7788
  482MOL0     H65062   2.015   1.707   1.499 -0.6804 -0.6420 -2.9422
  482MOL0     H65063   2.118   1.829   1.579  0.2140  1.7609 -1.4717
  482MOL0     H65064   2.309   1.717   1.438 -0.7550  0.7245 -1.2073
  482MOL0     H65065   2.223   1.609   1.559 -4.4179  3.7856  1.8319
  482MOL0     H65066   2.116   1.416   1.196  3.1709 -0.3372  0.2711
  482MOL0     H65067   2.114   2.140   1.249 -0.8679  1.9241 -0.6501
  482MOL0     H65068   2.321   2.373   1.110 -0.2044 -0.4550 -0.3730
  482MOL0     H65069   2.418   2.223   1.125  1.2463  1.3333  0.3860
  482MOL0     H65070   2.238   2.229   1.085  0.7546 -0.0537 -1.6268
  483MOL0     O65071   2.627   0.221   3.276 -0.6705  0.9352 -0.3203
  483MOL0     C65072   2.612   0.322   3.343 -0.0160  0.9380  0.1109
  483MOL0     O65073   2.578   0.318   3.473 -1.0142 -0.5317 -0.8395
  483MOL0     C65074   2.536   0.191   3.518  0.0796 -0.4877  0.5105
  483MOL0     C65075   2.606   0.132   3.636  1.0280 -0.2128 -0.0149
  483MOL0     C65076   2.567   0.009   3.690 -0.5103 -0.3488 -0.3771
  483MOL0     C65077   2.459  -0.054   3.642  0.3249 -0.4847 -0.0441
  483MOL0     O65078   2.453  -0.175   3.686  1.0070  0.0362  0.2583
  483MOL0     C65079   2.326  -0.240   3.645 -0.8988 -0.2292  0.4910
  483MOL0     C65080   2.344  -0.387   3.672 -0.3791 -0.7379 -0.5560
  483MOL0     C65081   2.445  -0.458   3.574 -0.1788  0.8376  0.1618
  483MOL0     C65082   2.506  -0.579   3.623  0.0366  0.6548  0.0906
  483MOL0     C65083   2.620  -0.632   3.542  0.1758 -0.2304  0.2001
  483MOL0     C65084   2.683  -0.755   3.610 -0.7184 -0.0799 -0.2977
  483MOL0     C65085   2.802  -0.832   3.536  0.3918 -0.1673  0.2622
  483MOL0     C65086   2.848  -0.950   3.620 -0.7149  0.9145 -0.8204
  483MOL0     N65087   2.910  -1.064   3.545 -0.9754 -0.3360  0.6931
  483MOL0     C65088   2.836  -1.134   3.447 -0.3633 -0.0141  0.4553
  483MOL0     C65089   2.929  -1.192   3.366 -0.9634 -0.8354 -0.3033
  483MOL0     C65090   2.911  -1.313   3.273 -0.3258 -0.4629  0.1628
  483MOL0     C65091   2.945  -1.273   3.126 -0.0161 -0.7613  0.0698
  483MOL0     C65092   3.075  -1.341   3.073  0.6373 -0.2279 -0.0118
  483MOL0     C65093   3.194  -1.306   3.164 -0.0232 -0.7544 -0.5948
  483MOL0     O65094   3.301  -1.385   3.124  0.0203 -0.2520 -0.4065
  483MOL0     C65095   3.422  -1.379   3.192  0.5580  0.1550  0.0032
  483MOL0     C65096   3.450  -1.290   3.298 -0.1849  0.4396 -0.3539
  483MOL0     C65097   3.580  -1.262   3.336  0.2534  0.0853 -0.0176
  483MOL0     C65098   3.684  -1.338   3.278  0.2066  0.1435 -0.1258
  483MOL0     C65099   3.828  -1.305   3.302 -0.4519 -0.4903  0.1662
  483MOL0     O65100   3.858  -1.191   3.376 -0.1848 -0.2624  0.2023
  483MOL0     C65101   3.982  -1.172   3.420 -0.2196  0.3846 -0.0448
  483MOL0     C65102   4.100  -1.202   3.344  0.3785  0.0241  0.0767
  483MOL0     C65103   4.230  -1.181   3.401  0.4188 -0.1224 -0.1428
  483MOL0     C65104   4.241  -1.134   3.530 -0.0822  0.2608 -0.8146
  483MOL0     O65105   4.365  -1.104   3.569 -0.3849 -0.7042  0.7512
  483MOL0     C65106   4.385  -1.040   3.694 -0.4286  1.1218 -0.4409
  483MOL0     C65107   4.540  -1.021   3.711 -0.2508  0.6086  0.2022
  483MOL0     C65108   4.621  -1.157   3.728 -0.6217 -0.0729  0.0443
  483MOL0     C65109   4.590  -1.233   3.853  0.5823  0.0893 -0.5002
  483MOL0     C65110   4.669  -1.364   3.849 -0.1567  0.3473  0.0926
  483MOL0     C65111   4.655  -1.443   3.981 -0.4816 -0.2409  0.0386
  483MOL0     C65112   4.534  -1.520   3.976 -0.1619  0.5408 -0.0804
  483MOL0     C65113   4.507  -1.599   4.107  0.7135 -0.0247  0.1569
  483MOL0    Cl65114   4.646  -1.692   4.164  0.2665 -0.5501  0.3335
  483MOL0     C65115   4.119  -1.092   3.598 -0.0082  0.2579 -0.3676
  483MOL0     C65116   3.993  -1.105   3.537 -0.0468 -0.3289  0.2807
  483MOL0     O65117   3.902  -1.394   3.271 -0.6437 -0.4430 -0.8889
  483MOL0     C65118   3.651  -1.435   3.185 -0.1662  0.1238 -0.0627
  483MOL0     C65119   3.519  -1.457   3.141 -0.5227 -0.9204  0.6718
  483MOL0     N65120   3.054  -1.142   3.401 -0.1479  0.7491 -0.5038
  483MOL0     N65121   3.040  -1.069   3.512  0.7995 -0.9280 -0.0227
  483MOL0     C65122   2.380   0.013   3.545 -0.7949 -0.2627  0.0318
  483MOL0     C65123   2.411   0.132   3.480 -0.4242  0.4849 -0.2092
  483MOL0     C65124   2.624   0.447   3.256 -0.3904  0.2730  0.1180
  483MOL0     C65125   2.560   0.558   3.302 -0.4275 -0.4626  0.0559
  483MOL0     C65126   2.548   0.680   3.226  0.1342  0.2171 -0.3660
  483MOL0     C65127   2.610   0.692   3.109  0.6819  0.3939  0.6915
  483MOL0     O65128   2.598   0.811   3.028  0.0602  0.4297 -0.6641
  483MOL0     C65129   2.494   0.788   2.934  0.5656  0.2228 -0.0612
  483MOL0     C65130   2.509   0.894   2.833 -0.0624 -0.6240 -0.1500
  483MOL0     C65131   2.376   0.921   2.763 -0.2293 -0.5413 -0.5735
  483MOL0     C65132   2.308   0.797   2.703  0.2167 -0.1252  0.4225
  483MOL0     C65133   2.193   0.816   2.617  0.3836 -0.1699 -0.1441
  483MOL0     C65134   2.101   0.831   2.545 -0.7864  0.5948  0.3795
  483MOL0     C65135   2.697   0.584   3.063  0.2725 -0.2528  0.1556
  483MOL0     C65136   2.700   0.461   3.135 -0.2724  0.3292 -0.7853
  483MOL0     C65137   2.785   0.352   3.085  1.0657  0.5348  0.3179
  483MOL0     H65138   2.689   0.182   3.686  1.4983 -0.1588 -0.8290
  483MOL0     H65139   2.621  -0.040   3.771 -1.8107 -0.2204  0.5848
  483MOL0     H65140   2.243  -0.198   3.703  1.9084  2.2095  3.0921
  483MOL0     H65141   2.311  -0.242   3.537  1.3119 -1.2987  0.1594
  483MOL0     H65142   2.250  -0.437   3.650  0.2833 -1.4403 -1.9480
  483MOL0     H65143   2.371  -0.404   3.777 -0.1986 -3.8182 -1.0099
  483MOL0     H65144   2.531  -0.393   3.557  0.1040 -0.1394 -2.7014
  483MOL0     H65145   2.403  -0.477   3.475 -1.5024 -2.5691  1.2563
  483MOL0     H65146   2.541  -0.564   3.725  2.6778 -1.0604 -0.4594
  483MOL0     H65147   2.435  -0.662   3.632  0.6165  0.0188 -0.9793
  483MOL0     H65148   2.588  -0.649   3.439 -0.4467 -0.4901  0.4349
  483MOL0     H65149   2.704  -0.562   3.537  0.6024 -0.3633  3.6099
  483MOL0     H65150   2.739  -0.726   3.699  2.4265  1.2386 -2.5385
  483MOL0     H65151   2.605  -0.829   3.633 -0.4763  0.3655  2.2124
  483MOL0     H65152   2.889  -0.766   3.525 -0.6314  1.2564  0.4517
  483MOL0     H65153   2.764  -0.867   3.439  0.7690 -1.0982  0.4397
  483MOL0     H65154   2.925  -0.909   3.686 -3.2595  1.1632  2.2188
  483MOL0     H65155   2.766  -0.992   3.679 -0.2829  0.3219 -0.6359
  483MOL0     H65156   2.728  -1.148   3.446 -0.5297  0.9939  1.5009
  483MOL0     H65157   2.966  -1.399   3.311  2.8272  2.4217  2.7295
  483MOL0     H65158   2.804  -1.338   3.271 -0.9378  1.8732  0.8818
  483MOL0     H65159   2.863  -1.307   3.061  0.4600 -2.6393  0.3831
  483MOL0     H65160   2.957  -1.165   3.112  2.7637 -0.8667  0.9789
  483MOL0     H65161   3.090  -1.319   2.967  0.2272 -0.1997 -0.0662
  483MOL0     H65162   3.046  -1.446   3.077 -2.1441  0.1363 -4.1717
  483MOL0     H65163   3.169  -1.328   3.268  1.4347  2.5511  0.5874
  483MOL0     H65164   3.224  -1.201   3.160  0.8130 -0.9857 -4.3597
  483MOL0     H65165   3.378  -1.232   3.355 -1.5395 -2.1342  0.7276
  483MOL0     H65166   3.597  -1.181   3.406  1.7250 -0.9008  0.8268
  483MOL0     H65167   4.103  -1.218   3.237  0.4036  1.1823 -0.1024
  483MOL0     H65168   4.318  -1.196   3.340  0.2914  3.9008 -1.5803
  483MOL0     H65169   4.343  -0.939   3.688  2.2762  2.5535  2.2630
  483MOL0     H65170   4.354  -1.094   3.784  0.0249 -0.5226 -1.2183
  483MOL0     H65171   4.571  -0.958   3.626 -5.0967  1.9986 -0.8162
  483MOL0     H65172   4.549  -0.953   3.796 -0.1247 -0.5351  1.1309
  483MOL0     H65173   4.592  -1.222   3.645  0.7094 -1.3234  0.5226
  483MOL0     H65174   4.726  -1.134   3.707 -0.4142 -0.9245  0.1220
  483MOL0     H65175   4.480  -1.235   3.858  0.4930  2.6715 -0.3093
  483MOL0     H65176   4.620  -1.190   3.948  0.7051  1.0358 -0.9584
  483MOL0     H65177   4.774  -1.340   3.833  0.7523 -2.0710  1.8095
  483MOL0     H65178   4.642  -1.431   3.767 -0.4347 -2.5631  2.4017
  483MOL0     H65179   4.734  -1.517   3.995 -2.5705 -3.0269 -1.6847
  483MOL0     H65180   4.658  -1.372   4.064  2.3086  1.6762 -1.5485
  483MOL0     H65181   4.516  -1.587   3.891 -2.0909 -0.8875  1.3540
  483MOL0     H65182   4.453  -1.447   3.963 -0.8034  0.5544  3.0510
  483MOL0     H65183   4.483  -1.539   4.195  3.3898  1.9660 -0.3111
  483MOL0     H65184   4.431  -1.673   4.081  1.4463 -0.2487 -1.5324
  483MOL0     H65185   4.120  -1.061   3.702  0.8148 -0.1714 -0.2448
  483MOL0     H65186   3.902  -1.080   3.592 -0.4476 -3.4082  1.2038
  483MOL0     H65187   3.722  -1.495   3.128 -1.4502 -0.2028 -1.3846
  483MOL0     H65188   3.497  -1.527   3.060 -0.0302 -0.4976  0.1646
  483MOL0     H65189   2.285  -0.031   3.517  0.2687 -0.2063 -4.3409
  483MOL0     H65190   2.352   0.173   3.398  0.7323  0.1087 -1.2571
  483MOL0     H65191   2.503   0.556   3.394  1.4295  2.9589  1.4669
  483MOL0     H65192   2.487   0.753   3.278 -0.8906 -1.2064  0.4923
  483MOL0     H65193   2.393   0.787   2.975  0.6002 -2.6994  0.1424
  483MOL0     H65194   2.493   0.688   2.889 -0.6627 -0.4608  1.4165
  483MOL0     H65195   2.580   0.869   2.754  0.9459  2.3016 -0.2994
  483MOL0     H65196   2.537   0.988   2.882 -2.6785 -0.0103  0.2925
  483MOL0     H65197   2.379   0.984   2.674 -1.2082  1.0174  0.4646
  483MOL0     H65198   2.306   0.965   2.834  0.0921 -1.0118  0.0462
  483MOL0     H65199   2.383   0.749   2.640  1.4070 -0.6270  2.1604
  483MOL0     H65200   2.271   0.724   2.776  1.2544  0.8157  1.9654
  483MOL0     H65201   2.023   0.825   2.471 -0.5172 -2.0122  0.2121
  483MOL0     H65202   2.746   0.597   2.966 -0.7323  0.5151 -0.2699
  483MOL0     H65203   2.845   0.382   2.999  4.7975 -1.4923  1.9812
  483MOL0     H65204   2.858   0.318   3.158  1.7521  2.7410  0.7110
  483MOL0     H65205   2.731   0.259   3.062  2.1291  0.4264 -1.9985
  484MOL0     O65206  10.745  10.197   1.318  0.3140  0.0461 -0.2052
  484MOL0     C65207  10.671  10.115   1.370  1.1159 -0.2027 -0.2844
  484MOL0     O65208  10.598  10.132   1.487 -0.6806  0.5410  0.0264
  484MOL0     C65209  10.584  10.261   1.547 -0.0330 -0.8195  0.6554
  484MOL0     C65210  10.479  10.340   1.502  0.0074 -1.2407 -0.3996
  484MOL0     C65211  10.454  10.468   1.551  0.1564 -0.6367  0.3893
  484MOL0     C65212  10.530  10.513   1.659 -0.3079  0.4670  0.1834
  484MOL0     O65213  10.488  10.628   1.711 -0.0696 -0.3890  0.5726
  484MOL0     C65214  10.580  10.712   1.777  0.0199  0.8913 -0.5837
  484MOL0     C65215  10.680  10.785   1.686  0.3903  0.1560  0.2832
  484MOL0     C65216  10.777  10.874   1.771  0.1530 -0.0299  1.4907
  484MOL0     C65217  10.890  10.914   1.677  0.1623 -0.6182  0.0907
  484MOL0     C65218  10.983  11.017   1.751 -0.2044  0.5212  0.0113
  484MOL0     C65219  10.943  11.161   1.768 -0.0612 -0.1931  0.0979
  484MOL0     C65220  10.963  11.236   1.644  0.0433 -0.7333  1.6535
  484MOL0     C65221  10.919  11.377   1.649  0.6914  0.2405 -0.1316
  484MOL0     N65222  10.950  11.450   1.523  0.0279 -0.4664  0.6895
  484MOL0     C65223  11.036  11.556   1.520  1.2264  0.6427 -0.7175
  484MOL0     C65224  11.010  11.613   1.403  1.1201 -0.5915  0.3226
  484MOL0     C65225  11.070  11.732   1.347 -1.0028 -0.0854 -0.2753
  484MOL0     C65226  11.215  11.702   1.289  0.0368 -0.9486  0.3205
  484MOL0     C65227  11.235  11.766   1.149 -0.0584 -0.1088 -0.5509
  484MOL0     C65228  11.229  11.918   1.148  1.0763  0.1070 -0.6381
  484MOL0     O65229  11.280  11.970   1.021  0.3185 -0.2767 -0.0955
  484MOL0     C65230  11.411  11.946   0.987  0.1878 -0.9010 -0.1764
  484MOL0     C65231  11.515  11.921   1.076  0.1875 -0.8153 -0.3507
  484MOL0     C65232  11.652  11.925   1.041  0.3244 -0.3618  0.1774
  484MOL0     C65233  11.685  11.946   0.908 -0.0800 -1.5666  0.5976
  484MOL0     C65234  11.822  11.916   0.863  0.4013  0.0122  0.4431
  484MOL0     O65235  11.930  11.903   0.940  0.1178  0.1348 -0.2452
  484MOL0     C65236  12.058  11.877   0.893  0.1244 -1.1872  0.5995
  484MOL0     C65237  12.126  11.970   0.817  0.7054 -0.1748  0.6267
  484MOL0     C65238  12.251  11.950   0.772  0.1940  0.5648  0.2341
  484MOL0     C65239  12.321  11.826   0.799  0.5427  0.4566 -0.3025
  484MOL0     O65240  12.445  11.781   0.769  0.0498  0.2734  0.7957
  484MOL0     C65241  12.522  11.869   0.681 -0.4146 -0.3828  0.0023
  484MOL0     C65242  12.651  11.802   0.625  1.0982  0.2781  0.9325
  484MOL0     C65243  12.743  11.882   0.541  0.8054  0.0122  0.3888
  484MOL0     C65244  12.856  11.793   0.493  0.1317 -0.0741 -1.3591
  484MOL0     C65245  12.970  11.879   0.445 -0.8833  0.1878  0.4371
  484MOL0     C65246  13.072  11.787   0.398 -0.3102 -0.8959  0.0919
  484MOL0     C65247  13.186  11.858   0.317 -0.5420  0.5219  1.1291
  484MOL0     C65248  13.270  11.959   0.396 -0.0839 -0.0619  0.2150
  484MOL0    Cl65249  13.406  12.043   0.299  0.6391 -0.0237 -0.4084
  484MOL0     C65250  12.245  11.727   0.872 -0.1396  0.2632  0.5718
  484MOL0     C65251  12.116  11.752   0.919 -0.7347 -0.3236 -0.1501
  484MOL0     O65252  11.825  11.917   0.741  0.4240  0.2571 -0.1468
  484MOL0     C65253  11.585  11.986   0.816  0.1960  0.4924  0.3579
  484MOL0     C65254  11.448  11.987   0.855 -0.8797 -0.1581  0.1866
  484MOL0     N65255  10.911  11.548   1.336  0.5361  0.6135 -0.1276
  484MOL0     N65256  10.868  11.444   1.413 -0.0696  0.9601  0.8636
  484MOL0     C65257  10.623  10.427   1.721  0.1584  1.0783  0.6263
  484MOL0     C65258  10.656  10.302   1.660 -0.2645  0.2519 -0.8052
  484MOL0     C65259  10.684   9.974   1.326 -0.9407 -0.4100  0.0591
  484MOL0     C65260  10.564   9.898   1.323  0.4246 -0.6635 -0.3077
  484MOL0     C65261  10.555   9.773   1.267 -0.2499  0.1848 -0.3006
  484MOL0     C65262  10.668   9.719   1.204 -1.3268  0.1015  0.3642
  484MOL0     O65263  10.682   9.592   1.147  0.1886  0.5639  0.2334
  484MOL0     C65264  10.566   9.509   1.130 -0.1899 -0.1685 -0.2607
  484MOL0     C65265  10.611   9.387   1.049  0.8868  0.5023  0.8074
  484MOL0     C65266  10.514   9.270   1.041  0.4357 -0.4054 -0.0377
  484MOL0     C65267  10.492   9.208   0.897 -0.2383 -0.5332  0.3652
  484MOL0     C65268  10.472   9.302   0.789 -0.1037 -0.0363  0.2633
  484MOL0     C65269  10.456   9.370   0.689 -0.4899  0.0161  0.3196
  484MOL0     C65270  10.787   9.782   1.221 -0.1842  0.1722 -0.5999
  484MOL0     C65271  10.798   9.914   1.271 -0.0135 -0.1405 -0.2501
  484MOL0     C65272  10.930   9.978   1.275  0.3479  0.5801  0.7775
  484MOL0     H65273  10.420  10.300   1.421  0.6895 -0.8440 -1.1057
  484MOL0     H65274  10.376  10.531   1.510  0.5324 -0.6607 -0.3743
  484MOL0     H65275  10.519  10.788   1.826 -2.5663 -0.8447 -0.9026
  484MOL0     H65276  10.636  10.671   1.862 -0.4790  2.7093  0.6998
  484MOL0     H65277  10.628  10.853   1.618 -0.8726  0.7890  1.8153
  484MOL0     H65278  10.730  10.704   1.633  0.5850  2.0232 -2.5889
  484MOL0     H65279  10.818  10.804   1.844  2.8610 -1.6734 -1.3236
  484MOL0     H65280  10.733  10.959   1.824  0.7782 -0.5405  2.8535
  484MOL0     H65281  10.943  10.822   1.650 -0.3155 -1.3207  1.4922
  484MOL0     H65282  10.851  10.953   1.582  1.4545 -1.3630 -0.7804
  484MOL0     H65283  10.996  10.976   1.852 -0.7107  2.0076  0.6994
  484MOL0     H65284  11.082  11.017   1.704  0.0493  1.5423  0.5271
  484MOL0     H65285  10.840  11.164   1.805 -0.2471 -2.2185 -0.1588
  484MOL0     H65286  11.007  11.210   1.842 -1.9756  1.9750  0.4411
  484MOL0     H65287  10.911  11.185   1.562 -0.1432 -1.3477  2.1520
  484MOL0     H65288  11.067  11.229   1.612 -0.0914 -2.5382  1.5120
  484MOL0     H65289  10.812  11.396   1.661  1.0229  1.9327  0.4370
  484MOL0     H65290  10.974  11.428   1.728  0.5168  1.6899 -0.9237
  484MOL0     H65291  11.102  11.593   1.599  1.5389  2.1940 -1.6699
  484MOL0     H65292  11.019  11.749   1.252 -0.2953 -0.1875 -0.6804
  484MOL0     H65293  11.049  11.826   1.398 -2.2588  0.0034 -0.9236
  484MOL0     H65294  11.291  11.740   1.358  0.1117  1.4187 -0.9590
  484MOL0     H65295  11.223  11.594   1.271 -0.4065 -0.6510 -1.9359
  484MOL0     H65296  11.167  11.720   1.077  0.3111  0.9879 -1.6321
  484MOL0     H65297  11.340  11.744   1.125  1.7036  1.3461  4.5124
  484MOL0     H65298  11.294  11.941   1.233 -1.5742  0.6331  1.3491
  484MOL0     H65299  11.132  11.959   1.177  1.6966 -0.6344  2.9052
  484MOL0     H65300  11.501  11.902   1.182  4.0614 -1.0643  0.2768
  484MOL0     H65301  11.721  11.892   1.118 -0.8372 -2.0903  0.5384
  484MOL0     H65302  12.079  12.067   0.805 -0.4029 -0.4073  2.6205
  484MOL0     H65303  12.305  12.018   0.707  0.7974  0.3703  0.5226
  484MOL0     H65304  12.460  11.899   0.595 -0.1435 -1.0277 -0.4274
  484MOL0     H65305  12.551  11.962   0.730  1.5268 -1.0357  0.1596
  484MOL0     H65306  12.714  11.757   0.702  1.5650  2.1643  1.6943
  484MOL0     H65307  12.611  11.720   0.563  0.9721  0.0833  1.2682
  484MOL0     H65308  12.689  11.921   0.454 -0.7558 -1.5264  0.5986
  484MOL0     H65309  12.787  11.963   0.601  0.6493  0.2288  0.2149
  484MOL0     H65310  12.800  11.725   0.427 -2.8740 -2.1125  2.8304
  484MOL0     H65311  12.887  11.724   0.572  1.3356  0.8163 -1.0291
  484MOL0     H65312  13.002  11.950   0.522 -0.7716 -0.7423  1.2776
  484MOL0     H65313  12.936  11.945   0.365 -2.3166  1.2429  1.8488
  484MOL0     H65314  13.110  11.717   0.473  1.7569 -0.6916 -0.6816
  484MOL0     H65315  13.029  11.711   0.332  2.3078 -2.7028  0.2938
  484MOL0     H65316  13.141  11.892   0.223  0.6916  0.5126  0.5169
  484MOL0     H65317  13.254  11.778   0.288  1.9292  1.3749  4.1113
  484MOL0     H65318  13.211  12.049   0.416  2.1725  1.6061 -0.2365
  484MOL0     H65319  13.301  11.913   0.491  1.0728 -1.0826 -0.6280
  484MOL0     H65320  12.281  11.627   0.891 -0.8322 -0.3536 -1.1220
  484MOL0     H65321  12.079  11.677   0.987  1.1306 -1.0927  0.0738
  484MOL0     H65322  11.598  12.013   0.712  2.8119  2.0516  0.9870
  484MOL0     H65323  11.379  12.030   0.782  0.7743 -0.1263 -1.4207
  484MOL0     H65324  10.678  10.449   1.812 -1.2534  0.7932  1.5771
  484MOL0     H65325  10.729  10.236   1.706  1.7246  3.2069  0.5981
  484MOL0     H65326  10.473   9.950   1.353  0.9605 -0.6473  1.4299
  484MOL0     H65327  10.473   9.703   1.257 -1.3816  1.4378 -0.0440
  484MOL0     H65328  10.485   9.554   1.072  1.3261  0.0973 -2.2775
  484MOL0     H65329  10.531   9.472   1.227  1.7736 -2.4659 -0.3435
  484MOL0     H65330  10.703   9.344   1.091  0.0146 -0.8003  1.4377
  484MOL0     H65331  10.631   9.427   0.949 -2.6440  0.8640  0.1219
  484MOL0     H65332  10.416   9.309   1.072  1.1836 -1.2434  3.8801
  484MOL0     H65333  10.547   9.192   1.110  4.0683  1.2517  0.3371
  484MOL0     H65334  10.566   9.139   0.856  1.1838  2.1922 -2.0621
  484MOL0     H65335  10.408   9.138   0.905  1.7518 -3.2057 -0.5940
  484MOL0     H65336  10.430   9.434   0.607 -1.1359  3.1985  2.8289
  484MOL0     H65337  10.873   9.725   1.189  1.7192  1.5251  1.8076
  484MOL0     H65338  11.021   9.920   1.255  0.1634  0.2358  0.9290
  484MOL0     H65339  10.924  10.048   1.190  2.1795  0.3019  0.3702
  484MOL0     H65340  10.944  10.014   1.377  1.8914  1.6597  0.2260
  485MOL0     O65341   7.241   6.294   2.980  0.2599 -0.1322 -0.1932
  485MOL0     C65342   7.280   6.324   3.091  0.3860 -0.5220  0.2244
  485MOL0     O65343   7.412   6.365   3.124  0.1049  0.1926 -0.7333
  485MOL0     C65344   7.517   6.362   3.038 -0.6421 -0.2187  0.2846
  485MOL0     C65345   7.515   6.282   2.919 -0.7294  0.7131 -0.1885
  485MOL0     C65346   7.619   6.295   2.822 -0.4283  0.2669 -0.7327
  485MOL0     C65347   7.737   6.362   2.842 -0.0594 -0.4245  0.3210
  485MOL0     O65348   7.831   6.355   2.750  0.2444  0.6150  1.0515
  485MOL0     C65349   7.960   6.407   2.760 -0.7778  0.4645 -0.2854
  485MOL0     C65350   8.075   6.324   2.700  1.0938 -0.2715 -1.0929
  485MOL0     C65351   8.040   6.275   2.559 -0.1087  0.0919  0.6078
  485MOL0     C65352   8.172   6.246   2.486  0.3530  0.6673  0.2458
  485MOL0     C65353   8.151   6.199   2.342  0.2872 -0.7659 -0.2940
  485MOL0     C65354   8.267   6.148   2.253  0.1141 -0.0275 -0.1071
  485MOL0     C65355   8.217   6.122   2.115  0.9411 -0.1218  0.0991
  485MOL0     C65356   8.337   6.083   2.031 -0.6042  0.3241 -0.3856
  485MOL0     N65357   8.303   6.076   1.890  0.3684 -0.0340  0.2093
  485MOL0     C65358   8.407   6.100   1.802  0.5924 -0.3116  0.3203
  485MOL0     C65359   8.343   6.106   1.683 -0.9424  0.8639  0.3004
  485MOL0     C65360   8.398   6.132   1.545 -0.6169 -0.4333 -0.2980
  485MOL0     C65361   8.525   6.212   1.555 -0.0618  0.1477 -0.1470
  485MOL0     C65362   8.557   6.253   1.411 -0.8165 -0.2099 -0.8277
  485MOL0     C65363   8.695   6.324   1.399 -0.2010  0.0702 -0.5335
  485MOL0     O65364   8.806   6.237   1.447  1.1744  0.6583 -0.1774
  485MOL0     C65365   8.935   6.248   1.422  0.3503 -0.4440 -0.7101
  485MOL0     C65366   8.999   6.330   1.339  0.6406  0.1739  0.3793
  485MOL0     C65367   9.139   6.332   1.327  0.0963  0.2232 -0.9628
  485MOL0     C65368   9.221   6.252   1.408  0.5260  0.9834 -0.3692
  485MOL0     C65369   9.370   6.259   1.392 -0.2743  0.5076  0.0343
  485MOL0     O65370   9.434   6.155   1.458 -0.4089 -0.2856 -0.9942
  485MOL0     C65371   9.571   6.154   1.498  0.2480 -0.3429  0.0104
  485MOL0     C65372   9.624   6.038   1.563 -0.4908  0.2298  0.9222
  485MOL0     C65373   9.762   6.032   1.599  0.2996 -0.2468  0.1661
  485MOL0     C65374   9.838   6.148   1.579 -0.1528 -0.6929 -0.0819
  485MOL0     O65375   9.966   6.160   1.612  0.2561 -0.8625  0.4472
  485MOL0     C65376  10.048   6.043   1.621 -0.3615 -0.7461  0.5735
  485MOL0     C65377  10.175   6.070   1.690  0.3477 -1.3311  0.0934
  485MOL0     C65378  10.282   6.155   1.613  0.7704 -0.1051  0.3132
  485MOL0     C65379  10.387   6.218   1.696  0.0066 -0.7625  0.4645
  485MOL0     C65380  10.496   6.288   1.607  0.0069 -0.2715 -0.6358
  485MOL0     C65381  10.600   6.372   1.684  0.2078 -0.2388 -0.1166
  485MOL0     C65382  10.714   6.413   1.577  0.3288 -0.0505  0.2314
  485MOL0     C65383  10.751   6.561   1.582 -0.6777  0.3633  0.6305
  485MOL0    Cl65384  10.613   6.672   1.535 -0.4506 -0.1625  0.0205
  485MOL0     C65385   9.786   6.262   1.508 -0.5472  0.5626 -1.3157
  485MOL0     C65386   9.650   6.262   1.486 -0.0291 -0.9237  0.1389
  485MOL0     O65387   9.419   6.353   1.326  0.3375  0.1025  0.4439
  485MOL0     C65388   9.149   6.173   1.499 -0.0755  0.2820  0.2209
  485MOL0     C65389   9.013   6.171   1.508  0.4031  0.6252  0.2473
  485MOL0     N65390   8.203   6.088   1.708  0.1016  0.2143  0.7487
  485MOL0     N65391   8.177   6.087   1.836 -0.8365  0.2466  0.3286
  485MOL0     C65392   7.747   6.431   2.960 -0.1708  0.3087  0.6461
  485MOL0     C65393   7.636   6.440   3.051  0.4983  0.0337  1.0821
  485MOL0     C65394   7.180   6.318   3.190  0.2700 -0.1989  0.1892
  485MOL0     C65395   7.048   6.364   3.162  0.6815  0.0735 -0.6180
  485MOL0     C65396   6.956   6.395   3.260 -0.1578  0.0995  0.4720
  485MOL0     C65397   6.997   6.374   3.389  0.5767 -0.1088  0.1761
  485MOL0     O65398   6.910   6.381   3.496 -0.5728  0.8429 -0.7200
  485MOL0     C65399   6.794   6.471   3.487 -0.0194 -1.0907  0.5794
  485MOL0     C65400   6.727   6.473   3.620 -0.0797 -0.5678 -0.1050
  485MOL0     C65401   6.589   6.545   3.605 -0.4753  0.7759  0.8261
  485MOL0     C65402   6.598   6.697   3.622  0.8956  0.0394 -0.2229
  485MOL0     C65403   6.470   6.766   3.577  0.6863 -0.3042  0.1857
  485MOL0     C65404   6.361   6.829   3.554  0.1458  0.4317  0.3921
  485MOL0     C65405   7.116   6.318   3.423 -0.4743  0.1023 -0.3464
  485MOL0     C65406   7.213   6.287   3.323  0.3382 -0.7169 -0.1670
  485MOL0     C65407   7.343   6.218   3.367 -0.0714 -0.7304 -0.5567
  485MOL0     H65408   7.431   6.228   2.877 -1.4634  2.9637 -1.7638
  485MOL0     H65409   7.616   6.243   2.727  0.9782 -0.7920 -0.2241
  485MOL0     H65410   7.973   6.497   2.700  2.3756  1.6893  1.9588
  485MOL0     H65411   7.988   6.420   2.865 -1.7358  1.5653 -0.1389
  485MOL0     H65412   8.088   6.242   2.772 -1.5510  0.9527  0.9542
  485MOL0     H65413   8.164   6.386   2.688 -0.6195  2.9824  1.2791
  485MOL0     H65414   8.001   6.359   2.502  1.2540  0.8764  0.7949
  485MOL0     H65415   7.973   6.188   2.562  0.7310 -0.6554 -1.1351
  485MOL0     H65416   8.233   6.338   2.480  3.2114 -1.1733 -1.7267
  485MOL0     H65417   8.221   6.162   2.535 -0.6147  1.3983  2.5767
  485MOL0     H65418   8.076   6.120   2.352 -1.0266  0.4600 -0.0257
  485MOL0     H65419   8.103   6.283   2.291  1.5410 -0.6698 -1.3658
  485MOL0     H65420   8.346   6.223   2.245 -0.7916  1.2241  1.9171
  485MOL0     H65421   8.311   6.059   2.299 -1.2642 -1.9849 -2.3680
  485MOL0     H65422   8.171   6.212   2.072  3.9187  0.8076 -1.4062
  485MOL0     H65423   8.138   6.046   2.116  0.4861  0.3165 -0.8520
  485MOL0     H65424   8.419   6.154   2.045  3.2418 -3.9439  1.8166
  485MOL0     H65425   8.385   5.990   2.063 -2.6452  0.0744  2.3009
  485MOL0     H65426   8.508   6.127   1.833  0.1020 -1.5531  3.2766
  485MOL0     H65427   8.426   6.036   1.503  2.6102 -1.0044  2.6793
  485MOL0     H65428   8.334   6.191   1.478  1.0607  1.7196 -0.1185
  485MOL0     H65429   8.520   6.301   1.619  1.0838  0.7836 -0.9036
  485MOL0     H65430   8.600   6.150   1.605 -1.3117 -3.1795 -2.0586
  485MOL0     H65431   8.483   6.319   1.364  1.1765  2.6834 -0.1722
  485MOL0     H65432   8.571   6.163   1.350 -0.2444 -1.5501  1.1922
  485MOL0     H65433   8.675   6.412   1.460 -1.3075  0.2582 -1.1506
  485MOL0     H65434   8.712   6.357   1.297  1.0566 -0.5290 -0.5462
  485MOL0     H65435   8.933   6.388   1.276  2.0999 -0.0375 -1.4143
  485MOL0     H65436   9.162   6.401   1.247 -3.4431  0.6265 -1.7806
  485MOL0     H65437   9.573   5.943   1.578 -1.1307  0.7519  2.2365
  485MOL0     H65438   9.802   5.941   1.641 -1.6218 -0.6420  1.2874
  485MOL0     H65439  10.016   5.959   1.682  2.8826 -1.6857  1.1646
  485MOL0     H65440  10.073   6.006   1.521 -2.1394  1.1082 -0.6499
  485MOL0     H65441  10.162   6.116   1.788 -0.2819 -0.8276 -0.2218
  485MOL0     H65442  10.228   5.974   1.694  4.5969  0.7493 -0.7360
  485MOL0     H65443  10.334   6.093   1.539 -3.0389 -0.0650 -2.7280
  485MOL0     H65444  10.225   6.229   1.555 -1.7922 -1.2271  1.2675
  485MOL0     H65445  10.432   6.143   1.761 -1.3977 -2.1372 -0.1009
  485MOL0     H65446  10.335   6.290   1.759 -0.2777  0.5236 -1.1667
  485MOL0     H65447  10.450   6.361   1.539 -0.5091  1.1373  1.1468
  485MOL0     H65448  10.549   6.214   1.545  1.8015  1.9677 -1.9270
  485MOL0     H65449  10.558   6.463   1.728  0.9961 -0.1623  0.4916
  485MOL0     H65450  10.645   6.324   1.771 -0.5487  2.8335  2.1361
  485MOL0     H65451  10.680   6.391   1.476 -1.9162  2.3977  0.3335
  485MOL0     H65452  10.791   6.338   1.595 -0.6743 -0.7873  1.6330
  485MOL0     H65453  10.780   6.590   1.683 -0.2763  2.3721 -0.0123
  485MOL0     H65454  10.840   6.582   1.521 -0.5270 -1.3231  0.2045
  485MOL0     H65455   9.847   6.351   1.518 -0.5580  0.4815 -0.4578
  485MOL0     H65456   9.606   6.352   1.443 -0.6756 -0.2141  2.1720
  485MOL0     H65457   9.199   6.104   1.566 -0.4819 -0.1525  0.0852
  485MOL0     H65458   8.960   6.104   1.574  1.0579  0.3553  0.5007
  485MOL0     H65459   7.829   6.494   2.994 -0.6996  2.0203 -1.0809
  485MOL0     H65460   7.635   6.496   3.144 -0.5386 -2.1940  2.5247
  485MOL0     H65461   7.021   6.368   3.057  0.4942 -0.4274 -0.5903
  485MOL0     H65462   6.854   6.429   3.241 -1.0559 -3.1563 -1.1167
  485MOL0     H65463   6.719   6.429   3.420 -0.4177 -0.4249  0.6076
  485MOL0     H65464   6.827   6.573   3.469 -1.9412 -0.9115 -2.4462
  485MOL0     H65465   6.794   6.513   3.697 -0.7056 -0.5114  0.4227
  485MOL0     H65466   6.701   6.368   3.637  1.1467 -1.5012 -3.3071
  485MOL0     H65467   6.527   6.509   3.688 -2.4230  1.7191 -0.1712
  485MOL0     H65468   6.537   6.510   3.516 -1.2390  4.0460 -0.1320
  485MOL0     H65469   6.606   6.713   3.730  3.8288 -2.2373  0.0205
  485MOL0     H65470   6.675   6.749   3.563 -0.3275 -0.0676 -1.9931
  485MOL0     H65471   6.270   6.886   3.548 -1.1895 -0.7689  5.0425
  485MOL0     H65472   7.138   6.304   3.528  2.4823  1.8678 -0.6245
  485MOL0     H65473   7.372   6.137   3.300  1.2355 -0.3767 -0.4538
  485MOL0     H65474   7.423   6.292   3.381 -2.1368  1.3237  1.2351
  485MOL0     H65475   7.337   6.156   3.458 -0.4599 -2.3758 -1.6642
  486MOL0     O65476   5.947   8.812   2.991 -1.3447 -0.0976  0.8958
  486MOL0     C65477   5.882   8.762   3.088 -0.9374 -0.3247 -1.1401
  486MOL0     O65478   5.938   8.728   3.205  0.3400  0.2657 -0.1085
  486MOL0     C65479   6.078   8.737   3.210 -0.1570  0.2529  0.5303
  486MOL0     C65480   6.132   8.857   3.240  0.8117  0.0306 -0.4529
  486MOL0     C65481   6.271   8.877   3.232 -0.3385  0.2255  0.2060
  486MOL0     C65482   6.355   8.780   3.196 -0.4826 -0.4073  0.3026
  486MOL0     O65483   6.491   8.814   3.197 -0.3308  0.1731 -0.7802
  486MOL0     C65484   6.593   8.723   3.157 -1.2619  0.3983  0.2590
  486MOL0     C65485   6.720   8.781   3.191  1.3077 -0.4422  0.4085
  486MOL0     C65486   6.745   8.922   3.119 -0.2297  0.2820  0.0007
  486MOL0     C65487   6.874   8.988   3.162  1.0058  0.1849  0.3524
  486MOL0     C65488   6.998   8.902   3.145 -0.6725  0.1275  0.3632
  486MOL0     C65489   7.112   8.989   3.191 -0.0598  0.4344 -0.5346
  486MOL0     C65490   7.233   8.911   3.240 -0.0203  0.6268  0.7165
  486MOL0     C65491   7.353   9.012   3.276 -0.3849 -0.5563  0.2579
  486MOL0     N65492   7.474   8.931   3.306 -0.0261 -0.8845  0.2129
  486MOL0     C65493   7.530   8.895   3.430  0.4765 -0.7977 -0.3668
  486MOL0     C65494   7.652   8.839   3.401 -0.7899 -0.9788  0.4401
  486MOL0     C65495   7.749   8.781   3.494  0.0644  0.2488  0.0307
  486MOL0     C65496   7.722   8.840   3.618 -0.5404 -0.7656 -0.3754
  486MOL0     C65497   7.818   8.791   3.725 -1.2984 -0.2114  0.0873
  486MOL0     C65498   7.810   8.633   3.758  0.0774 -0.1742  0.2824
  486MOL0     O65499   7.873   8.559   3.649 -0.4794 -0.4238 -0.3674
  486MOL0     C65500   8.005   8.522   3.654 -0.8427  0.4821  0.7486
  486MOL0     C65501   8.056   8.461   3.538 -0.2385 -0.5737 -0.3353
  486MOL0     C65502   8.188   8.413   3.529 -0.0621 -0.2685  0.1847
  486MOL0     C65503   8.263   8.409   3.646 -0.9749  0.5974  0.5731
  486MOL0     C65504   8.397   8.350   3.645 -0.0170 -0.1218 -0.1198
  486MOL0     O65505   8.450   8.319   3.522 -0.4675  1.0434  0.4881
  486MOL0     C65506   8.568   8.253   3.527  0.4463  0.0659  0.9210
  486MOL0     C65507   8.689   8.318   3.569  0.0203  0.2394 -0.4079
  486MOL0     C65508   8.814   8.258   3.565 -0.2369  0.2332  0.3738
  486MOL0     C65509   8.825   8.134   3.497 -0.1793 -0.4566  0.7250
  486MOL0     O65510   8.944   8.057   3.484  0.0287  0.3964  0.5563
  486MOL0     C65511   9.067   8.124   3.503  0.0147  0.5572  0.5452
  486MOL0     C65512   9.178   8.034   3.447  0.6386 -0.5459 -0.0486
  486MOL0     C65513   9.305   8.046   3.533  1.0643 -0.7368 -1.2409
  486MOL0     C65514   9.406   7.948   3.503 -0.2712  0.6799 -0.1070
  486MOL0     C65515   9.533   7.936   3.596 -0.7546  0.4336  0.4944
  486MOL0     C65516   9.610   7.801   3.569 -0.6470 -0.0016 -0.3823
  486MOL0     C65517   9.740   7.774   3.641 -0.9496  0.7397 -0.3696
  486MOL0     C65518   9.766   7.649   3.727  0.9806  0.0943 -0.5310
  486MOL0    Cl65519   9.625   7.631   3.846  0.1258  0.0486  0.1900
  486MOL0     C65520   8.709   8.068   3.441  0.5125  0.3482 -0.3973
  486MOL0     C65521   8.584   8.135   3.462 -0.1017 -0.4526  0.0882
  486MOL0     O65522   8.448   8.314   3.750 -0.5542 -0.0121 -0.5856
  486MOL0     C65523   8.201   8.455   3.769 -0.2803  0.0036 -0.9764
  486MOL0     C65524   8.086   8.518   3.775  1.3587  0.6253  0.2643
  486MOL0     N65525   7.669   8.832   3.260 -0.1751  0.3865  0.6696
  486MOL0     N65526   7.563   8.887   3.209 -0.0306  0.0189 -0.5142
  486MOL0     C65527   6.301   8.657   3.158 -0.2443 -0.3955  0.2352
  486MOL0     C65528   6.162   8.630   3.167  0.3129  0.4238  0.7139
  486MOL0     C65529   5.732   8.766   3.091 -0.5534  0.0785  0.4540
  486MOL0     C65530   5.669   8.673   3.168  1.0833 -0.8247 -0.4696
  486MOL0     C65531   5.532   8.664   3.179  0.4092 -0.2432  0.2353
  486MOL0     C65532   5.440   8.740   3.100 -0.5227  0.2994 -0.0653
  486MOL0     O65533   5.299   8.723   3.112  0.0598 -0.1207 -0.4841
  486MOL0     C65534   5.243   8.589   3.117  0.3284 -0.9350  0.8383
  486MOL0     C65535   5.274   8.510   2.983 -0.2192 -0.1198  0.5334
  486MOL0     C65536   5.168   8.540   2.867  0.5615  0.8166  0.2355
  486MOL0     C65537   5.169   8.446   2.739 -0.5354 -0.7221  1.0025
  486MOL0     C65538   5.288   8.489   2.664  0.2935  0.1007  0.1867
  486MOL0     C65539   5.400   8.522   2.628  0.2288 -0.6732 -0.0265
  486MOL0     C65540   5.505   8.833   3.015 -0.3292  0.0103 -0.1074
  486MOL0     C65541   5.647   8.844   3.009  0.6072 -0.1655  0.3787
  486MOL0     C65542   5.688   8.963   2.928 -0.5407  0.7665 -0.4522
  486MOL0     H65543   6.074   8.946   3.261  1.7428  0.2003  1.6316
  486MOL0     H65544   6.308   8.978   3.245 -0.1618  0.5148 -2.0700
  486MOL0     H65545   6.581   8.619   3.190 -1.0070  1.2545  3.3590
  486MOL0     H65546   6.598   8.710   3.048  1.1389  1.2726  0.2062
  486MOL0     H65547   6.789   8.704   3.158 -1.4617 -3.9154  2.0267
  486MOL0     H65548   6.727   8.791   3.300 -0.3955  1.1591  0.4321
  486MOL0     H65549   6.661   8.989   3.139 -1.1855  0.1365 -2.9831
  486MOL0     H65550   6.741   8.892   3.014 -2.7154 -1.7036  0.5525
  486MOL0     H65551   6.889   9.084   3.111  2.1729  0.9532  2.0314
  486MOL0     H65552   6.864   9.015   3.268 -0.7284 -2.2771  0.8961
  486MOL0     H65553   6.988   8.806   3.196 -4.2875 -0.0513 -0.3806
  486MOL0     H65554   7.014   8.876   3.039  0.3215 -0.2612  0.6011
  486MOL0     H65555   7.145   9.055   3.111 -0.0715 -1.4595 -2.1675
  486MOL0     H65556   7.078   9.059   3.269 -2.0655 -1.2629  0.1996
  486MOL0     H65557   7.263   8.832   3.171 -2.1184  0.7148 -0.3590
  486MOL0     H65558   7.209   8.846   3.325 -2.5571 -0.3956 -0.6981
  486MOL0     H65559   7.369   9.071   3.185 -1.7573  2.4919  1.8307
  486MOL0     H65560   7.314   9.074   3.357  0.1417  0.1669 -0.0338
  486MOL0     H65561   7.485   8.905   3.528 -0.5226 -1.0981 -0.7827
  486MOL0     H65562   7.734   8.673   3.491  2.6279 -0.1775 -0.3087
  486MOL0     H65563   7.850   8.795   3.453 -0.2761 -1.6286 -1.6007
  486MOL0     H65564   7.725   8.949   3.612  2.8255 -0.7632 -0.6735
  486MOL0     H65565   7.622   8.824   3.659 -1.3780 -0.6312 -2.2714
  486MOL0     H65566   7.797   8.846   3.817 -0.0447  1.6394 -0.6549
  486MOL0     H65567   7.921   8.819   3.701 -0.4534 -0.1116  3.3598
  486MOL0     H65568   7.707   8.596   3.755 -0.0886  0.3422 -0.7417
  486MOL0     H65569   7.852   8.618   3.858  0.4934 -0.1697  0.1114
  486MOL0     H65570   8.000   8.453   3.445 -1.2325 -0.9457  0.2860
  486MOL0     H65571   8.209   8.372   3.431  0.2265 -1.3323  0.6780
  486MOL0     H65572   8.680   8.417   3.613  0.6887 -0.4428  1.3575
  486MOL0     H65573   8.896   8.323   3.591 -2.0717  3.1205 -0.5644
  486MOL0     H65574   9.080   8.224   3.461 -1.1773 -0.0605 -1.4424
  486MOL0     H65575   9.085   8.137   3.610  1.1498  2.7968  0.1276
  486MOL0     H65576   9.141   7.931   3.439 -0.8322 -0.1192  0.8590
  486MOL0     H65577   9.204   8.063   3.345  0.5351 -3.8231 -1.1129
  486MOL0     H65578   9.327   8.154   3.536  1.0052 -0.7457  0.0069
  486MOL0     H65579   9.267   8.020   3.632  1.7719 -0.6568 -0.9386
  486MOL0     H65580   9.446   7.958   3.402  2.3980  0.7297  0.8566
  486MOL0     H65581   9.352   7.853   3.510  0.4615  0.1405 -1.4474
  486MOL0     H65582   9.500   7.934   3.700  2.7659 -0.0375  1.7519
  486MOL0     H65583   9.606   8.016   3.583  0.7377 -0.5862  2.1348
  486MOL0     H65584   9.552   7.715   3.602 -0.9437  0.6693  0.9127
  486MOL0     H65585   9.634   7.787   3.463  0.0226  2.1508 -0.5636
  486MOL0     H65586   9.755   7.871   3.690  1.6564 -0.2701  1.0365
  486MOL0     H65587   9.818   7.773   3.564  0.6916  0.5024  1.2289
  486MOL0     H65588   9.775   7.555   3.671  2.2683 -0.0633 -0.0887
  486MOL0     H65589   9.861   7.677   3.772  0.8883 -1.3865  0.6644
  486MOL0     H65590   8.722   7.975   3.387 -2.6653  0.5210 -1.6722
  486MOL0     H65591   8.490   8.105   3.415 -0.6246 -1.1465  1.5346
  486MOL0     H65592   8.255   8.459   3.863 -1.3172 -2.0069 -0.2477
  486MOL0     H65593   8.042   8.550   3.869  1.4781  0.2451  0.4509
  486MOL0     H65594   6.365   8.575   3.125  0.0392 -0.4505  0.9064
  486MOL0     H65595   6.131   8.538   3.117  0.0337  0.9864 -0.1702
  486MOL0     H65596   5.735   8.608   3.225 -0.0136 -1.7840 -0.2546
  486MOL0     H65597   5.484   8.597   3.249 -1.4377 -1.2335 -1.8349
  486MOL0     H65598   5.137   8.593   3.143  0.6134 -1.0384  2.0899
  486MOL0     H65599   5.299   8.541   3.198  3.8648  1.8706  0.3564
  486MOL0     H65600   5.270   8.403   3.009  4.3559 -0.5118  0.4386
  486MOL0     H65601   5.379   8.515   2.951  0.1189 -3.1629  0.8106
  486MOL0     H65602   5.167   8.645   2.837 -1.2681  0.6862 -0.2700
  486MOL0     H65603   5.069   8.526   2.912 -0.8215  1.7843 -2.3430
  486MOL0     H65604   5.162   8.339   2.762 -0.5129 -1.2854 -1.4268
  486MOL0     H65605   5.080   8.480   2.685  1.0306  2.0712 -0.0380
  486MOL0     H65606   5.499   8.552   2.601 -0.5055  0.9504 -1.0296
  486MOL0     H65607   5.450   8.899   2.948  2.2760 -0.3008 -2.7611
  486MOL0     H65608   5.624   9.052   2.929 -1.1686  0.3362  1.1499
  486MOL0     H65609   5.786   9.004   2.954 -1.5760  3.3789 -0.3394
  486MOL0     H65610   5.684   8.940   2.821 -1.0787 -1.7052  0.0412
  487MOL0     O65611   6.483   1.182  11.331  0.1171 -0.0021 -0.5759
  487MOL0     C65612   6.535   1.074  11.295  0.0223 -0.6459 -0.1427
  487MOL0     O65613   6.477   0.955  11.324 -0.2596 -0.1744  0.3583
  487MOL0     C65614   6.350   0.963  11.384 -0.1295 -1.6288 -0.2336
  487MOL0     C65615   6.338   0.921  11.516  0.5798  0.3367  0.5735
  487MOL0     C65616   6.213   0.934  11.585 -0.1642 -0.3544  0.6247
  487MOL0     C65617   6.104   1.000  11.528  0.1759 -0.4046 -0.2285
  487MOL0     O65618   6.004   1.020  11.608 -0.5086  0.9706 -0.3692
  487MOL0     C65619   5.906   1.119  11.577  0.6216  0.0366  0.2552
  487MOL0     C65620   5.834   1.167  11.705  0.0626  0.1888 -0.1865
  487MOL0     C65621   5.738   1.277  11.671 -0.1344 -0.4907  0.6782
  487MOL0     C65622   5.604   1.210  11.656 -0.2206  1.1920  0.7428
  487MOL0     C65623   5.501   1.290  11.558 -0.7515  0.4223 -0.4268
  487MOL0     C65624   5.358   1.277  11.602 -0.0754  0.2363 -0.0182
  487MOL0     C65625   5.290   1.416  11.603  0.2078  0.2318 -0.5136
  487MOL0     C65626   5.270   1.473  11.461 -0.3628 -0.5932  0.3659
  487MOL0     N65627   5.199   1.393  11.373  0.0164  0.0635  0.4116
  487MOL0     C65628   5.061   1.361  11.382  0.0485 -0.2834  0.1399
  487MOL0     C65629   5.051   1.278  11.271 -0.8499 -0.6142 -0.1844
  487MOL0     C65630   4.941   1.193  11.223 -0.0596  1.2812  0.2076
  487MOL0     C65631   4.858   1.128  11.344 -0.6858  0.1090 -0.3532
  487MOL0     C65632   4.919   1.021  11.446  0.0024 -0.4800  0.8401
  487MOL0     C65633   4.830   1.027  11.569  0.2048  0.3880  0.5468
  487MOL0     O65634   4.900   0.945  11.665 -0.5149 -0.7987  0.1359
  487MOL0     C65635   5.013   0.997  11.722 -1.1544 -0.7241  0.0686
  487MOL0     C65636   5.142   0.945  11.701 -0.9742  0.0739 -0.2546
  487MOL0     C65637   5.252   0.968  11.777 -0.4790 -0.4319  0.0707
  487MOL0     C65638   5.244   1.067  11.874 -0.0364  0.4252  0.5475
  487MOL0     C65639   5.358   1.098  11.959  0.1273  0.3621  0.3482
  487MOL0     O65640   5.327   1.201  12.044  0.4853  0.2293  0.7069
  487MOL0     C65641   5.424   1.266  12.113 -0.3342  0.1452  0.0828
  487MOL0     C65642   5.392   1.392  12.161  0.1941 -0.4853 -0.3372
  487MOL0     C65643   5.484   1.472  12.238  0.5704  0.5839  1.0195
  487MOL0     C65644   5.601   1.419  12.271 -0.8256 -0.3809 -0.3462
  487MOL0     O65645   5.681   1.508  12.341 -0.1506 -0.8816 -0.9566
  487MOL0     C65646   5.809   1.472  12.409  0.5513 -0.2545 -0.1672
  487MOL0     C65647   5.920   1.476  12.309 -0.0211  0.7669  0.5907
  487MOL0     C65648   6.060   1.414  12.339 -0.1664 -0.7533 -0.3685
  487MOL0     C65649   6.131   1.361  12.216 -0.1346  0.0831  0.1904
  487MOL0     C65650   6.277   1.316  12.255  0.4985 -0.3875 -1.0330
  487MOL0     C65651   6.359   1.274  12.133  0.3361  0.0041  0.8684
  487MOL0     C65652   6.491   1.195  12.160  0.3361 -0.2928  0.9584
  487MOL0     C65653   6.569   1.267  12.265 -0.1377  0.4555 -0.6322
  487MOL0    Cl65654   6.604   1.437  12.226 -0.1341 -0.4917 -0.0334
  487MOL0     C65655   5.642   1.289  12.232 -0.4626 -0.0328  0.7060
  487MOL0     C65656   5.550   1.213  12.153  0.9582  0.3438  0.6499
  487MOL0     O65657   5.461   1.027  11.964 -0.1740 -0.6518  1.2209
  487MOL0     C65658   5.123   1.133  11.885  0.0683  0.7590  0.1199
  487MOL0     C65659   5.012   1.096  11.816  0.6051  0.0500 -0.5072
  487MOL0     N65660   5.166   1.276  11.195 -0.2233 -0.1418 -0.2744
  487MOL0     N65661   5.246   1.355  11.255 -0.0612  0.1180  0.2870
  487MOL0     C65662   6.113   1.034  11.390 -0.1332 -0.4233 -0.1635
  487MOL0     C65663   6.234   1.020  11.330  1.1929  0.3329  0.3101
  487MOL0     C65664   6.671   1.067  11.232  0.2247 -0.0576 -0.1328
  487MOL0     C65665   6.759   1.179  11.262  0.2454 -0.6328  0.0622
  487MOL0     C65666   6.887   1.185  11.207 -0.2741 -0.1914  0.8558
  487MOL0     C65667   6.931   1.084  11.129  0.1442  0.2636 -0.2325
  487MOL0     O65668   7.056   1.095  11.075 -0.0592  0.4348 -0.0799
  487MOL0     C65669   7.158   1.010  11.134  1.1132  0.6949 -1.3414
  487MOL0     C65670   7.289   1.002  11.064 -0.5275 -0.6043  0.6093
  487MOL0     C65671   7.289   0.989  10.909  0.1626 -0.5297  0.3300
  487MOL0     C65672   7.236   0.859  10.859 -0.1309 -0.0138  1.2815
  487MOL0     C65673   7.234   0.831  10.709 -0.2556  0.4310 -0.1207
  487MOL0     C65674   7.222   0.812  10.593  0.3811  0.3346 -0.3662
  487MOL0     C65675   6.852   0.966  11.098 -0.6770  0.1623  0.0836
  487MOL0     C65676   6.723   0.961  11.154  0.4187 -0.0283 -0.0059
  487MOL0     C65677   6.642   0.850  11.110  0.5303  0.1985  0.6325
  487MOL0     H65678   6.420   0.870  11.566  1.1451 -1.7397 -2.2616
  487MOL0     H65679   6.201   0.902  11.688 -2.7735 -0.7532  0.2538
  487MOL0     H65680   5.960   1.204  11.535 -1.9257  1.2064 -0.8949
  487MOL0     H65681   5.830   1.076  11.511  1.1643  0.4893 -0.6808
  487MOL0     H65682   5.896   1.198  11.789 -1.8779  2.5001  0.5085
  487MOL0     H65683   5.782   1.077  11.740  0.2920  0.5958  1.2847
  487MOL0     H65684   5.772   1.333  11.584  2.5555 -2.5052  0.3239
  487MOL0     H65685   5.736   1.350  11.753 -0.2865 -1.6695  1.7484
  487MOL0     H65686   5.614   1.107  11.621  1.6738  0.2514  3.6671
  487MOL0     H65687   5.574   1.199  11.761 -1.1739  3.2603  0.7416
  487MOL0     H65688   5.520   1.397  11.575 -4.5769  1.3661 -0.9796
  487MOL0     H65689   5.516   1.265  11.453  1.6566  1.8063 -0.4855
  487MOL0     H65690   5.299   1.203  11.547 -3.7715  2.1691  1.0284
  487MOL0     H65691   5.355   1.249  11.708 -2.0644  0.9908  0.1628
  487MOL0     H65692   5.359   1.477  11.662  0.8461 -1.0287  0.0800
  487MOL0     H65693   5.191   1.397  11.643 -0.9558 -0.7530 -3.5373
  487MOL0     H65694   5.218   1.569  11.454  0.0376 -0.4220 -0.2505
  487MOL0     H65695   5.369   1.498  11.422 -1.3875  0.7998 -1.5428
  487MOL0     H65696   4.984   1.390  11.452  0.3378 -0.8619  0.7125
  487MOL0     H65697   4.870   1.245  11.159  1.0423  2.3623 -0.1709
  487MOL0     H65698   4.985   1.111  11.165 -2.5515 -0.0066  0.0008
  487MOL0     H65699   4.829   1.215  11.404  1.6338  0.3816  0.4731
  487MOL0     H65700   4.768   1.073  11.315  1.0326 -3.3563  0.3345
  487MOL0     H65701   5.018   1.065  11.464  0.4810 -0.8196 -0.8115
  487MOL0     H65702   4.929   0.916  11.418 -2.8742 -0.2104 -1.6836
  487MOL0     H65703   4.730   0.986  11.550  0.2161 -0.0181  1.3222
  487MOL0     H65704   4.825   1.131  11.601 -0.8163  1.4150 -2.5675
  487MOL0     H65705   5.148   0.869  11.624  1.4247 -2.0602  1.8405
  487MOL0     H65706   5.332   0.898  11.754 -1.7051 -1.1428 -2.5142
  487MOL0     H65707   5.293   1.434  12.150  0.8292  1.4778  0.9065
  487MOL0     H65708   5.452   1.571  12.268  1.4148  2.0939 -2.5314
  487MOL0     H65709   5.835   1.532  12.496  1.3770 -1.7310  0.6521
  487MOL0     H65710   5.799   1.370  12.446 -1.2257 -0.4622 -1.1314
  487MOL0     H65711   5.887   1.421  12.220  3.6638 -1.9520  0.6988
  487MOL0     H65712   5.939   1.579  12.277 -1.5933  0.9428  0.1197
  487MOL0     H65713   6.124   1.489  12.386  2.1331 -2.5242 -0.5230
  487MOL0     H65714   6.050   1.328  12.405 -0.1107 -0.8657 -0.5073
  487MOL0     H65715   6.133   1.440  12.140 -1.6917  1.0727  1.1234
  487MOL0     H65716   6.081   1.285  12.156  0.3292  0.5407 -0.8059
  487MOL0     H65717   6.263   1.234  12.325 -0.6218  2.8157  2.8806
  487MOL0     H65718   6.327   1.395  12.312 -3.2769 -1.2315  4.0671
  487MOL0     H65719   6.291   1.203  12.085  2.7496 -1.8851 -0.0082
  487MOL0     H65720   6.376   1.357  12.065 -0.2533  0.9474  1.8451
  487MOL0     H65721   6.544   1.185  12.065  0.9738  0.0415  1.2751
  487MOL0     H65722   6.468   1.096  12.201  1.1756  0.2308  2.7647
  487MOL0     H65723   6.512   1.261  12.359 -1.2394  0.4869 -1.2806
  487MOL0     H65724   6.657   1.203  12.276 -3.4891 -5.0129 -1.2910
  487MOL0     H65725   5.735   1.242  12.263 -0.4405 -1.4474 -1.3091
  487MOL0     H65726   5.574   1.108  12.144  0.4556  0.3873 -1.8845
  487MOL0     H65727   5.101   1.199  11.968 -0.5111  0.5826  0.1074
  487MOL0     H65728   4.917   1.146  11.831 -0.4042 -2.0294  0.3633
  487MOL0     H65729   6.037   1.080  11.327 -1.4269 -0.4136  1.3376
  487MOL0     H65730   6.236   1.040  11.223 -2.6971  2.9815  0.5543
  487MOL0     H65731   6.726   1.259  11.327 -1.5420 -1.9873  0.9079
  487MOL0     H65732   6.956   1.266  11.231 -0.4192  0.2253 -0.0561
  487MOL0     H65733   7.116   0.909  11.141  1.6179  0.5738  3.4545
  487MOL0     H65734   7.180   1.039  11.237 -0.1783 -1.9673 -0.2239
  487MOL0     H65735   7.344   0.914  11.097  0.4673 -0.2348 -0.0164
  487MOL0     H65736   7.356   1.087  11.081 -3.2293  1.9659 -0.6988
  487MOL0     H65737   7.390   0.994  10.867  0.6700  1.0905  1.6713
  487MOL0     H65738   7.225   1.069  10.872 -0.7034 -0.5290  1.7613
  487MOL0     H65739   7.282   0.771  10.905 -2.3634 -1.4535  0.9155
  487MOL0     H65740   7.134   0.861  10.898 -0.4053  3.4781  0.7004
  487MOL0     H65741   7.214   0.795  10.488 -1.5110  1.1339 -0.3992
  487MOL0     H65742   6.899   0.887  11.040  4.4982  1.7718  1.5332
  487MOL0     H65743   6.547   0.888  11.071  0.8738  0.4493  0.0216
  487MOL0     H65744   6.690   0.783  11.038 -0.8467 -0.9110  0.6932
  487MOL0     H65745   6.617   0.781  11.191  1.6132 -1.9560 -0.7818
  488MOL0     O65746   6.335   6.494  10.266 -0.1266  0.2310  0.0690
  488MOL0     C65747   6.273   6.451  10.357  0.0110 -0.0991 -0.4526
  488MOL0     O65748   6.205   6.329  10.363 -1.0482 -0.9436 -0.0572
  488MOL0     C65749   6.219   6.239  10.256 -0.8799  0.3945 -0.2382
  488MOL0     C65750   6.118   6.146  10.243  0.2569  0.3996 -0.3529
  488MOL0     C65751   6.114   6.048  10.138  0.2021  0.2500 -0.4542
  488MOL0     C65752   6.218   6.040  10.046  0.2680 -0.1585 -0.7539
  488MOL0     O65753   6.218   5.941   9.944  0.3582  0.0579 -0.9399
  488MOL0     C65754   6.287   5.965   9.827 -0.1008  0.2127 -0.3959
  488MOL0     C65755   6.284   5.858   9.725  1.2434  0.8562  0.5012
  488MOL0     C65756   6.378   5.874   9.599 -0.3545 -0.3593 -0.6027
  488MOL0     C65757   6.423   6.020   9.568 -0.0117  1.2001 -0.2039
  488MOL0     C65758   6.474   6.042   9.421 -0.2353 -0.5740  0.5482
  488MOL0     C65759   6.583   5.945   9.396 -0.3613  0.3839 -0.5881
  488MOL0     C65760   6.651   5.967   9.265 -0.9670  0.3998  0.4890
  488MOL0     C65761   6.767   5.865   9.238 -0.3006 -0.1627 -1.6906
  488MOL0     N65762   6.874   5.865   9.340  0.4367 -0.0383 -0.4585
  488MOL0     C65763   6.930   5.981   9.381  0.6204 -0.3259  0.2487
  488MOL0     C65764   7.059   5.951   9.398 -0.1588 -0.0392  1.0722
  488MOL0     C65765   7.153   6.050   9.458  1.0089 -0.1978 -0.7907
  488MOL0     C65766   7.303   6.004   9.448 -0.1810 -0.0728  0.3276
  488MOL0     C65767   7.396   6.129   9.471  0.7528  0.5869 -0.1171
  488MOL0     C65768   7.540   6.075   9.486  0.9359  1.0107 -1.0330
  488MOL0     O65769   7.597   6.052   9.353 -0.2896  0.1812  0.6917
  488MOL0     C65770   7.719   5.985   9.362  0.1048  0.0392  0.5018
  488MOL0     C65771   7.825   5.984   9.458  0.7236  0.3413  0.0244
  488MOL0     C65772   7.942   5.920   9.433  0.2182 -0.0426 -0.3034
  488MOL0     C65773   7.949   5.822   9.331 -0.9179  0.4108  0.3901
  488MOL0     C65774   8.073   5.733   9.318  0.6876 -0.3068 -0.0919
  488MOL0     O65775   8.077   5.655   9.202 -0.0807 -0.4802  0.0945
  488MOL0     C65776   8.164   5.553   9.183  0.4732 -0.4390 -0.5081
  488MOL0     C65777   8.298   5.578   9.155 -0.4389  0.1034  0.3946
  488MOL0     C65778   8.373   5.478   9.098 -0.5433 -0.6879  0.0131
  488MOL0     C65779   8.321   5.343   9.092 -0.9303  0.5678 -0.4257
  488MOL0     O65780   8.417   5.251   9.037  0.2680  0.1728  0.1267
  488MOL0     C65781   8.363   5.166   8.932  1.0678  0.3902  0.2536
  488MOL0     C65782   8.296   5.238   8.814 -0.4844  0.7200 -0.1101
  488MOL0     C65783   8.411   5.281   8.713 -0.0103 -0.1395  0.0132
  488MOL0     C65784   8.359   5.354   8.596  0.0265 -0.3589  0.4043
  488MOL0     C65785   8.426   5.483   8.578 -0.4348  0.0854 -0.5136
  488MOL0     C65786   8.583   5.469   8.569  0.7216  0.2651  0.1321
  488MOL0     C65787   8.637   5.592   8.496 -0.9473  1.1258  0.1399
  488MOL0     C65788   8.786   5.582   8.464 -0.3190 -0.1447  0.0048
  488MOL0    Cl65789   8.881   5.629   8.610 -0.3454  0.0716 -0.0889
  488MOL0     C65790   8.198   5.312   9.145 -0.2300  0.0673 -0.5128
  488MOL0     C65791   8.113   5.418   9.185 -0.6481  0.2438  0.4519
  488MOL0     O65792   8.169   5.742   9.393 -0.3420 -0.1720  0.3768
  488MOL0     C65793   7.843   5.815   9.244 -0.5441  0.4692  0.2808
  488MOL0     C65794   7.734   5.899   9.254  0.3120  0.8126 -0.2395
  488MOL0     N65795   7.084   5.818   9.369  1.3241 -0.1815  0.0188
  488MOL0     N65796   6.970   5.767   9.348  1.0613  0.4042 -0.3404
  488MOL0     C65797   6.315   6.139  10.056  0.0612 -0.3800 -0.2010
  488MOL0     C65798   6.318   6.228  10.161  0.4359 -0.1552 -0.1507
  488MOL0     C65799   6.253   6.525  10.482 -0.0710 -0.7636 -0.2632
  488MOL0     C65800   6.135   6.505  10.563  0.1465 -0.0975  0.5637
  488MOL0     C65801   6.117   6.582  10.682  0.2561  0.9732 -0.2799
  488MOL0     C65802   6.207   6.684  10.717 -0.2662 -0.1865  0.1716
  488MOL0     O65803   6.209   6.753  10.839  0.1531 -0.0288 -0.3873
  488MOL0     C65804   6.079   6.798  10.873 -0.4228  0.0541 -0.0202
  488MOL0     C65805   6.071   6.937  10.936 -1.3641 -0.5996  0.2558
  488MOL0     C65806   6.188   6.947  11.044  0.5795 -0.1986  0.4359
  488MOL0     C65807   6.166   6.879  11.174  0.4908 -0.2438 -0.3119
  488MOL0     C65808   6.026   6.916  11.220 -0.5594 -0.2089  0.0576
  488MOL0     C65809   5.915   6.946  11.258 -0.0483 -0.4525 -0.1704
  488MOL0     C65810   6.313   6.712  10.634 -0.0238  0.4480 -0.1926
  488MOL0     C65811   6.342   6.631  10.514  0.7122  0.3443  0.4373
  488MOL0     C65812   6.458   6.680  10.439  0.3997 -0.6398 -0.3169
  488MOL0     H65813   6.027   6.155  10.301 -0.2365 -1.9550 -0.6345
  488MOL0     H65814   6.026   5.984  10.140  0.0560  0.4549  0.9619
  488MOL0     H65815   6.244   6.055   9.783 -0.0276  0.6556  0.4208
  488MOL0     H65816   6.393   5.977   9.853 -0.3894 -0.1678  1.0808
  488MOL0     H65817   6.185   5.846   9.681  2.2623 -2.9515 -1.1877
  488MOL0     H65818   6.296   5.761   9.774 -2.8162  0.2506  0.6493
  488MOL0     H65819   6.327   5.851   9.505  0.3940  1.7507 -1.5911
  488MOL0     H65820   6.464   5.808   9.610 -0.8652 -0.7979  1.1975
  488MOL0     H65821   6.336   6.085   9.580  0.0296  1.1905  0.1622
  488MOL0     H65822   6.496   6.047   9.644 -1.2588  2.0019  0.7613
  488MOL0     H65823   6.393   6.017   9.351  1.7780 -2.1328 -1.3588
  488MOL0     H65824   6.505   6.145   9.401  0.6094 -0.5370  1.9568
  488MOL0     H65825   6.655   5.970   9.474 -1.3801  2.3033 -0.1746
  488MOL0     H65826   6.557   5.839   9.397 -0.1692  0.3415  0.2272
  488MOL0     H65827   6.682   6.072   9.266 -2.6481  1.0219 -2.0654
  488MOL0     H65828   6.579   5.961   9.183  0.5675 -2.7858 -0.7831
  488MOL0     H65829   6.709   5.772   9.237  0.1233 -0.4563 -0.1867
  488MOL0     H65830   6.801   5.881   9.135 -3.4600  1.5510 -2.6053
  488MOL0     H65831   6.890   6.081   9.394  0.0175 -0.3733 -1.1267
  488MOL0     H65832   7.144   6.147   9.408  0.4669 -0.3676 -1.0298
  488MOL0     H65833   7.115   6.058   9.560  0.0114  2.5760 -1.3044
  488MOL0     H65834   7.326   5.931   9.526 -0.0684  0.3966  0.7327
  488MOL0     H65835   7.319   5.960   9.349  5.9854  1.7469  0.0923
  488MOL0     H65836   7.372   6.194   9.555  2.5282  3.5121 -1.6801
  488MOL0     H65837   7.382   6.193   9.382 -0.5816 -0.1587 -0.4707
  488MOL0     H65838   7.545   5.978   9.537 -0.1631  2.1891  1.4291
  488MOL0     H65839   7.601   6.153   9.531  1.3819  0.9629 -1.5427
  488MOL0     H65840   7.823   6.050   9.544 -4.0103 -0.2469  0.6742
  488MOL0     H65841   8.028   5.935   9.498 -0.2716 -0.6148  0.5002
  488MOL0     H65842   8.340   5.678   9.161  0.0207  0.0611 -1.4995
  488MOL0     H65843   8.474   5.486   9.061  1.0442 -4.6342  2.7649
  488MOL0     H65844   8.425   5.082   8.899  2.8113  1.0334  1.7397
  488MOL0     H65845   8.287   5.112   8.988  1.2428  0.0226  0.1405
  488MOL0     H65846   8.214   5.181   8.769 -0.7288  0.8897  0.1154
  488MOL0     H65847   8.261   5.336   8.851  1.1694  0.4588  2.3297
  488MOL0     H65848   8.480   5.337   8.776  2.0117 -1.2670 -1.0605
  488MOL0     H65849   8.473   5.193   8.693  0.6741 -0.1510  1.9679
  488MOL0     H65850   8.250   5.365   8.598  0.2154  4.2600 -1.0321
  488MOL0     H65851   8.378   5.294   8.507 -0.3126  2.1761 -1.5205
  488MOL0     H65852   8.389   5.541   8.663 -4.5336 -0.3319 -1.7965
  488MOL0     H65853   8.385   5.535   8.491  2.9640  3.4518 -0.3741
  488MOL0     H65854   8.622   5.468   8.671  2.2864 -0.5226 -0.4516
  488MOL0     H65855   8.611   5.372   8.528 -0.7039 -1.2901  2.5292
  488MOL0     H65856   8.612   5.677   8.560 -1.1259 -1.0606  3.1701
  488MOL0     H65857   8.586   5.589   8.399  0.0006 -0.6228 -0.3603
  488MOL0     H65858   8.798   5.476   8.441 -1.2867 -0.7523  2.0820
  488MOL0     H65859   8.819   5.642   8.379 -0.1975  0.0360  0.1783
  488MOL0     H65860   8.174   5.207   9.162  0.7500 -0.0873  0.0070
  488MOL0     H65861   8.011   5.394   9.213 -1.4018 -1.6777 -3.3106
  488MOL0     H65862   7.838   5.739   9.167 -1.1100 -1.3381  2.0408
  488MOL0     H65863   7.655   5.878   9.183 -0.2626  1.5974  0.1431
  488MOL0     H65864   6.400   6.149   9.989  0.3922  3.4431  0.5733
  488MOL0     H65865   6.414   6.278  10.164  1.1476 -1.5109  0.5004
  488MOL0     H65866   6.072   6.418  10.548  2.8129 -1.7988 -1.7283
  488MOL0     H65867   6.044   6.540  10.750  2.7650 -4.8127 -0.5315
  488MOL0     H65868   6.036   6.729  10.947 -1.3616 -0.6974 -1.2211
  488MOL0     H65869   6.003   6.783  10.795  1.2477  1.1980 -1.9488
  488MOL0     H65870   5.970   6.958  10.972 -1.6917 -1.6084 -0.0430
  488MOL0     H65871   6.101   7.009  10.859  1.9358 -0.2945  1.6303
  488MOL0     H65872   6.209   7.054  11.053  0.1113 -0.1987  1.6363
  488MOL0     H65873   6.280   6.908  11.001  0.2515  1.7536 -2.2716
  488MOL0     H65874   6.172   6.772  11.151 -2.0527 -0.5452  0.1161
  488MOL0     H65875   6.227   6.911  11.259  0.4296  0.8929 -0.6907
  488MOL0     H65876   5.821   6.982  11.295  1.7352  0.4244  4.1386
  488MOL0     H65877   6.376   6.797  10.661  1.4712 -1.3793  2.5322
  488MOL0     H65878   6.527   6.595  10.429  0.8783 -0.6088  2.1259
  488MOL0     H65879   6.436   6.719  10.339  1.7830  0.2966 -0.2780
  488MOL0     H65880   6.519   6.751  10.495  1.6018 -1.3079 -0.7345
  489MOL0     O65881   7.531   5.346   5.639 -0.1965  0.8353 -0.7447
  489MOL0     C65882   7.490   5.290   5.538  0.0802  0.4005 -0.2082
  489MOL0     O65883   7.507   5.330   5.409  0.2395 -0.1661  0.4245
  489MOL0     C65884   7.561   5.454   5.382  0.3109 -0.1912 -0.2291
  489MOL0     C65885   7.704   5.473   5.363 -0.0874 -0.5810  0.2607
  489MOL0     C65886   7.756   5.601   5.350 -0.2611  0.5051  0.1570
  489MOL0     C65887   7.677   5.709   5.345 -0.5397  0.1555  0.7807
  489MOL0     O65888   7.718   5.839   5.336  0.2588 -0.0294  0.1387
  489MOL0     C65889   7.859   5.879   5.338 -0.0464 -0.4557 -0.1619
  489MOL0     C65890   7.877   6.018   5.389 -0.6467 -0.4307  0.0151
  489MOL0     C65891   8.009   6.091   5.341  0.8930 -1.1750 -0.0736
  489MOL0     C65892   8.018   6.129   5.188  0.4331 -0.6476 -0.4577
  489MOL0     C65893   7.955   6.264   5.155  0.1176 -0.3803  0.1085
  489MOL0     C65894   7.916   6.286   5.007 -0.2954  0.2539  0.0207
  489MOL0     C65895   7.987   6.410   4.955  0.1176 -0.0557  1.1349
  489MOL0     C65896   7.976   6.427   4.801  0.3180  0.2803 -0.2185
  489MOL0     N65897   7.841   6.401   4.754 -0.1831  0.0321  0.0826
  489MOL0     C65898   7.736   6.489   4.748 -0.5452  0.8597 -0.1899
  489MOL0     C65899   7.643   6.411   4.694  0.6068 -0.3207  1.0198
  489MOL0     C65900   7.493   6.430   4.657  0.4315  0.3856 -1.5302
  489MOL0     C65901   7.396   6.341   4.759  0.5757 -0.2922  0.5359
  489MOL0     C65902   7.250   6.394   4.770 -0.0133  0.5981  0.2697
  489MOL0     C65903   7.176   6.365   4.906  0.0721 -0.3171 -0.1524
  489MOL0     O65904   7.044   6.307   4.891  0.7132 -0.9902 -0.1963
  489MOL0     C65905   6.981   6.240   4.989  0.7537  0.4472  0.2328
  489MOL0     C65906   6.859   6.176   4.943 -0.4283 -0.3201 -0.1508
  489MOL0     C65907   6.765   6.130   5.036 -0.2415  0.2259  0.0951
  489MOL0     C65908   6.799   6.122   5.178  1.1566  0.7864 -0.9184
  489MOL0     C65909   6.715   6.027   5.265 -0.2768  0.8503  0.0122
  489MOL0     O65910   6.632   5.947   5.200  0.1895 -0.1707  0.7567
  489MOL0     C65911   6.566   5.838   5.249 -0.3370 -1.6323 -0.4959
  489MOL0     C65912   6.641   5.740   5.310  1.1895  1.1059 -0.3981
  489MOL0     C65913   6.579   5.626   5.365  0.6026 -0.2761  0.2083
  489MOL0     C65914   6.442   5.607   5.347 -0.9406 -0.5300  0.0764
  489MOL0     O65915   6.395   5.490   5.406 -0.3735  0.0109 -0.1136
  489MOL0     C65916   6.268   5.488   5.473 -0.5512 -0.1191 -0.5509
  489MOL0     C65917   6.253   5.575   5.597  0.1975 -0.5469  0.1536
  489MOL0     C65918   6.343   5.513   5.710  0.2529  0.6442  0.5405
  489MOL0     C65919   6.302   5.572   5.845  0.6598  0.4385  0.5800
  489MOL0     C65920   6.389   5.527   5.968 -0.1738  0.2273  0.1748
  489MOL0     C65921   6.525   5.563   5.945  0.0343 -0.3806 -0.5992
  489MOL0     C65922   6.563   5.708   5.913  0.4206 -0.1255 -0.9645
  489MOL0     C65923   6.711   5.727   5.930  0.2611  0.3702 -0.0705
  489MOL0    Cl65924   6.739   5.905   5.933  0.1081 -0.2168  0.1859
  489MOL0     C65925   6.365   5.701   5.278 -0.6455 -0.2356  0.1728
  489MOL0     C65926   6.435   5.814   5.222  0.5908 -0.6268 -0.8655
  489MOL0     O65927   6.747   6.013   5.383  0.0091 -0.2296  0.1610
  489MOL0     C65928   6.927   6.167   5.218  0.3528 -0.7811  0.7264
  489MOL0     C65929   7.016   6.223   5.123 -0.7840  0.7673  0.2750
  489MOL0     N65930   7.685   6.280   4.678 -0.4427 -0.3815  0.9198
  489MOL0     N65931   7.800   6.270   4.718 -0.6282 -0.6143  0.2882
  489MOL0     C65932   7.545   5.692   5.366  1.1095  0.1046  0.5657
  489MOL0     C65933   7.481   5.569   5.383  0.0478 -1.0166 -0.0713
  489MOL0     C65934   7.407   5.168   5.558 -0.1052  0.4088 -0.1290
  489MOL0     C65935   7.393   5.078   5.450 -0.1945 -0.2055 -0.0398
  489MOL0     C65936   7.305   4.977   5.436  0.2280 -0.0346 -0.2233
  489MOL0     C65937   7.210   4.966   5.537 -0.5888  0.0635  0.0873
  489MOL0     O65938   7.108   4.882   5.514  0.0625 -0.0220 -0.8513
  489MOL0     C65939   7.023   4.846   5.622 -0.2611 -0.1859 -0.3227
  489MOL0     C65940   6.928   4.730   5.580 -0.3923  0.8763  1.2763
  489MOL0     C65941   7.026   4.612   5.566  0.1169 -0.5993 -0.3858
  489MOL0     C65942   6.960   4.498   5.504  0.3204 -0.1281  0.6732
  489MOL0     C65943   7.028   4.376   5.534 -0.0055  0.2916  0.4694
  489MOL0     C65944   7.094   4.278   5.564 -0.2819  0.1574  0.3019
  489MOL0     C65945   7.213   5.055   5.646  0.4791 -0.0454 -0.9847
  489MOL0     C65946   7.305   5.152   5.660  0.0155  0.2191  0.3452
  489MOL0     C65947   7.282   5.265   5.762  0.7952  0.2917  0.6699
  489MOL0     H65948   7.773   5.389   5.360  0.2229 -0.3602  0.9495
  489MOL0     H65949   7.863   5.612   5.336  0.0091 -1.8364 -0.0031
  489MOL0     H65950   7.919   5.795   5.375 -2.0675 -3.5084 -3.1175
  489MOL0     H65951   7.893   5.886   5.234  1.8706  1.1319  0.5222
  489MOL0     H65952   7.883   6.012   5.498  1.9522  0.4700 -0.0048
  489MOL0     H65953   7.793   6.085   5.367 -1.4031 -0.0404  3.5633
  489MOL0     H65954   8.096   6.026   5.356  1.2336 -0.4948  1.0019
  489MOL0     H65955   8.024   6.177   5.407  1.5475 -1.4953  0.2085
  489MOL0     H65956   8.125   6.148   5.176  1.7531  2.9515  8.8579
  489MOL0     H65957   7.990   6.046   5.122 -0.3566 -1.2533  0.6017
  489MOL0     H65958   7.864   6.257   5.216  0.5104 -1.5863  0.5835
  489MOL0     H65959   8.023   6.343   5.189 -0.8335 -0.1827  1.7029
  489MOL0     H65960   7.928   6.194   4.949  3.6436  1.4555 -1.3961
  489MOL0     H65961   7.808   6.299   4.995 -0.6339 -2.3946 -0.4579
  489MOL0     H65962   8.093   6.409   4.983  0.1962  1.1132  0.9535
  489MOL0     H65963   7.936   6.495   5.003 -1.2280 -1.1495  1.6901
  489MOL0     H65964   8.001   6.530   4.775  0.0916  0.4472  0.2094
  489MOL0     H65965   8.038   6.356   4.747  0.2855  0.6670 -0.7734
  489MOL0     H65966   7.725   6.594   4.772 -0.6606  1.2424 -1.7812
  489MOL0     H65967   7.492   6.538   4.672 -1.2365  0.8459 -4.3344
  489MOL0     H65968   7.468   6.421   4.551  1.0273  1.5813 -1.7802
  489MOL0     H65969   7.381   6.235   4.740 -0.6982 -0.3082  1.5131
  489MOL0     H65970   7.442   6.337   4.858  0.4696 -2.0199  0.5436
  489MOL0     H65971   7.203   6.331   4.694  1.3757 -2.1025  1.5131
  489MOL0     H65972   7.242   6.500   4.745  2.7213  0.8349  0.0386
  489MOL0     H65973   7.168   6.456   4.966  0.8466 -0.0582 -0.4347
  489MOL0     H65974   7.233   6.296   4.970  3.7750  1.4527 -1.2640
  489MOL0     H65975   6.832   6.198   4.840 -0.3188  0.8051  0.0408
  489MOL0     H65976   6.674   6.081   5.002  0.3092 -1.7256  1.2660
  489MOL0     H65977   6.750   5.745   5.314  1.3237 -0.4597 -1.2941
  489MOL0     H65978   6.628   5.541   5.412 -2.9355 -2.7615 -0.2115
  489MOL0     H65979   6.200   5.526   5.397  2.3941 -1.0318 -3.9308
  489MOL0     H65980   6.242   5.384   5.496  1.4413 -0.1943  1.7242
  489MOL0     H65981   6.270   5.681   5.574  0.6882 -1.1589 -2.7765
  489MOL0     H65982   6.148   5.583   5.626  0.6016  0.8675  1.3504
  489MOL0     H65983   6.324   5.406   5.718 -0.3406  0.7645  0.7689
  489MOL0     H65984   6.446   5.533   5.679  0.0612 -3.4077 -3.7990
  489MOL0     H65985   6.201   5.533   5.860  1.0688 -2.0876 -2.3745
  489MOL0     H65986   6.295   5.680   5.831 -1.5508  0.0542 -2.1772
  489MOL0     H65987   6.392   5.420   5.989 -0.6211  0.7048  3.1480
  489MOL0     H65988   6.358   5.574   6.061  3.1921  3.0832  0.0481
  489MOL0     H65989   6.576   5.528   6.035  1.3166 -1.1123 -1.5773
  489MOL0     H65990   6.577   5.506   5.868  0.2249 -0.3734 -0.4757
  489MOL0     H65991   6.506   5.777   5.976 -1.9170 -3.4713  0.9392
  489MOL0     H65992   6.534   5.738   5.812 -0.7154  1.5795 -0.1845
  489MOL0     H65993   6.746   5.689   6.026  2.2390  5.9488  1.8217
  489MOL0     H65994   6.763   5.679   5.847  0.8637  1.6883 -0.4676
  489MOL0     H65995   6.261   5.703   5.248 -1.2484  3.3414  1.9548
  489MOL0     H65996   6.377   5.886   5.165 -3.7543 -2.9426  0.1347
  489MOL0     H65997   6.964   6.139   5.316  0.8974 -2.9486 -0.0500
  489MOL0     H65998   7.116   6.247   5.155 -1.1293  2.4737  0.1897
  489MOL0     H65999   7.487   5.783   5.373  0.4627 -0.3066  0.6804
  489MOL0     H66000   7.374   5.565   5.400 -0.3118 -0.6687 -1.9885
  489MOL0     H66001   7.471   5.078   5.375 -1.0118  1.1868 -0.9277
  489MOL0     H66002   7.307   4.915   5.347  1.8640 -2.5079  1.4281
  489MOL0     H66003   6.959   4.933   5.639 -2.6845 -2.3466  2.7332
  489MOL0     H66004   7.073   4.823   5.716 -0.7505 -2.6948 -0.6051
  489MOL0     H66005   6.876   4.737   5.485  1.8600 -2.0752 -0.3767
  489MOL0     H66006   6.850   4.718   5.655 -1.1129 -1.8580  0.2308
  489MOL0     H66007   7.056   4.592   5.669 -3.9431 -2.2058  0.6585
  489MOL0     H66008   7.114   4.631   5.503 -0.6455  2.4197 -0.6696
  489MOL0     H66009   6.863   4.486   5.552  0.3623 -1.5662  0.4453
  489MOL0     H66010   6.946   4.510   5.396  0.3746 -0.6872  0.5982
  489MOL0     H66011   7.138   4.184   5.590 -2.0891 -1.1626 -1.0622
  489MOL0     H66012   7.138   5.057   5.725 -0.9816 -1.5887 -2.2437
  489MOL0     H66013   7.211   5.226   5.835 -1.3740  3.3579  0.3913
  489MOL0     H66014   7.369   5.301   5.817 -0.9686  1.6775  2.7197
  489MOL0     H66015   7.241   5.357   5.719 -2.7876 -0.3621  2.3622
  490MOL0     O66016   7.505   2.763   2.691 -0.0355 -1.0644  0.1141
  490MOL0     C66017   7.497   2.768   2.808  0.4495  0.0650 -0.9438
  490MOL0     O66018   7.595   2.806   2.893 -0.0961  0.5750  0.3918
  490MOL0     C66019   7.732   2.802   2.852 -0.1754 -0.1752 -0.8392
  490MOL0     C66020   7.814   2.890   2.920 -0.2765  0.4619 -0.0993
  490MOL0     C66021   7.958   2.894   2.889 -0.4932 -0.2128  0.5268
  490MOL0     C66022   8.016   2.808   2.782  0.1490 -0.6968 -0.5993
  490MOL0     O66023   8.157   2.809   2.759  1.3388  0.3995  0.0387
  490MOL0     C66024   8.230   2.933   2.785 -0.0995 -0.0125  0.0565
  490MOL0     C66025   8.363   2.935   2.717  0.4170 -0.4272  0.3876
  490MOL0     C66026   8.447   3.045   2.783  0.1636 -0.0571  0.4536
  490MOL0     C66027   8.576   3.066   2.710 -0.2381  0.4072 -0.4458
  490MOL0     C66028   8.651   3.183   2.764 -0.6429  1.2906 -0.1226
  490MOL0     C66029   8.789   3.193   2.698  0.1055 -0.0750  0.1147
  490MOL0     C66030   8.845   3.340   2.689  0.7610  0.1884  0.9356
  490MOL0     C66031   8.996   3.350   2.733 -0.8735 -0.1361  0.3438
  490MOL0     N66032   9.068   3.479   2.728  0.5437  0.0445 -0.4966
  490MOL0     C66033   9.048   3.569   2.631 -0.9578 -0.9955  0.6295
  490MOL0     C66034   9.119   3.684   2.664  0.1518 -0.0669 -0.3093
  490MOL0     C66035   9.120   3.812   2.582  0.5084 -0.1101 -0.5962
  490MOL0     C66036   8.977   3.872   2.571  0.0673 -0.4259 -0.6634
  490MOL0     C66037   8.969   3.999   2.495 -0.1315 -0.4299 -0.5697
  490MOL0     C66038   8.905   3.996   2.357  0.3224  0.0217 -0.1756
  490MOL0     O66039   8.973   3.889   2.279 -0.2775  0.0350  0.7390
  490MOL0     C66040   9.100   3.905   2.219  0.7033 -0.0792 -0.0336
  490MOL0     C66041   9.168   3.795   2.167  0.3891  0.7090 -0.9358
  490MOL0     C66042   9.300   3.803   2.135  0.2333  0.5031  1.0809
  490MOL0     C66043   9.366   3.923   2.123 -0.6076  0.0412 -0.4907
  490MOL0     C66044   9.509   3.935   2.090 -0.2213 -0.8358  0.4110
  490MOL0     O66045   9.564   3.818   2.055 -0.3459 -0.3188  0.1250
  490MOL0     C66046   9.699   3.835   2.015 -0.2237  0.1605 -0.3246
  490MOL0     C66047   9.738   3.795   1.891 -1.0483 -0.2321 -0.6842
  490MOL0     C66048   9.867   3.818   1.849 -0.5211  0.9161 -0.0684
  490MOL0     C66049   9.963   3.865   1.945 -0.1374  0.1764  0.6996
  490MOL0     O66050  10.097   3.881   1.899  0.4396  1.0106  0.2871
  490MOL0     C66051  10.190   3.973   1.961 -0.5448  0.2212 -0.9343
  490MOL0     C66052  10.147   4.121   1.954  0.5331 -0.1408 -0.1744
  490MOL0     C66053  10.233   4.207   1.876 -0.7348  0.4025 -0.5388
  490MOL0     C66054  10.272   4.156   1.743 -0.9259 -0.1069  0.2536
  490MOL0     C66055  10.336   4.268   1.649  0.1149 -0.1266 -0.6154
  490MOL0     C66056  10.381   4.211   1.511 -0.2648 -0.6845  0.6008
  490MOL0     C66057  10.506   4.108   1.505  0.0445  0.4682 -0.0276
  490MOL0     C66058  10.524   4.068   1.363 -0.2673  0.4698  0.0688
  490MOL0    Cl66059  10.688   4.011   1.353 -0.2161  0.2797 -0.7047
  490MOL0     C66060   9.923   3.901   2.074 -0.0341  0.3876  0.3795
  490MOL0     C66061   9.793   3.879   2.110  0.4202 -0.1846  0.5633
  490MOL0     O66062   9.559   4.044   2.082 -0.0296 -0.2350  0.8655
  490MOL0     C66063   9.302   4.038   2.180 -0.2060 -0.7215  0.6475
  490MOL0     C66064   9.174   4.031   2.220 -0.1401  0.3903  0.1432
  490MOL0     N66065   9.163   3.655   2.795  0.2573 -0.4628  0.8140
  490MOL0     N66066   9.127   3.538   2.834 -1.1301 -1.2509  0.5738
  490MOL0     C66067   7.922   2.732   2.711 -0.0739  0.7113 -0.4949
  490MOL0     C66068   7.789   2.727   2.755  1.0101  0.1269 -0.4843
  490MOL0     C66069   7.367   2.750   2.873 -0.1155  0.8969  0.5760
  490MOL0     C66070   7.371   2.690   3.001 -0.3034 -0.4089  0.1329
  490MOL0     C66071   7.256   2.680   3.077 -0.2733  0.2525  0.2380
  490MOL0     C66072   7.136   2.716   3.025  0.7626  0.5588 -0.5130
  490MOL0     O66073   7.025   2.700   3.112 -0.4280 -0.4082  0.5867
  490MOL0     C66074   6.885   2.716   3.077 -0.8446 -0.9968 -0.3026
  490MOL0     C66075   6.808   2.654   3.187 -0.7701 -0.1767  0.0812
  490MOL0     C66076   6.655   2.682   3.196 -0.0579 -0.2170 -0.1275
  490MOL0     C66077   6.565   2.607   3.099  0.2564 -0.4061  0.6203
  490MOL0     C66078   6.559   2.675   2.970 -0.7186  0.6557  0.4559
  490MOL0     C66079   6.591   2.752   2.875 -0.7139 -0.0791 -0.0569
  490MOL0     C66080   7.133   2.785   2.903 -0.3167 -0.4106 -0.6194
  490MOL0     C66081   7.242   2.800   2.823 -0.0606  0.0918 -0.2196
  490MOL0     C66082   7.231   2.900   2.705 -0.0278  0.2973 -0.2019
  490MOL0     H66083   7.778   2.950   3.003 -1.3831 -0.4850  0.1327
  490MOL0     H66084   8.015   2.973   2.937 -0.8044  0.5458 -0.3353
  490MOL0     H66085   8.172   3.023   2.762 -0.1077  0.3880  1.5604
  490MOL0     H66086   8.254   2.927   2.891  2.6550 -0.6859 -0.5257
  490MOL0     H66087   8.330   2.959   2.616 -0.5307 -1.8280  0.3292
  490MOL0     H66088   8.419   2.841   2.715  1.3156  0.0726 -2.8352
  490MOL0     H66089   8.465   3.015   2.887 -0.9263  0.7279  0.8937
  490MOL0     H66090   8.387   3.136   2.782  0.9128  0.4588  1.0816
  490MOL0     H66091   8.639   2.977   2.721 -1.0008 -0.2183 -1.0113
  490MOL0     H66092   8.556   3.082   2.604 -0.7462  2.0457 -0.1288
  490MOL0     H66093   8.604   3.280   2.746 -0.7475  1.6822  2.0076
  490MOL0     H66094   8.644   3.164   2.872 -2.0553  0.3970 -0.3472
  490MOL0     H66095   8.849   3.117   2.750 -1.3979 -1.6919 -0.4134
  490MOL0     H66096   8.781   3.158   2.595 -4.3692 -3.8495  1.4037
  490MOL0     H66097   8.782   3.402   2.753  1.0234  0.2966  1.0916
  490MOL0     H66098   8.821   3.378   2.589  0.0118  0.4616  1.2159
  490MOL0     H66099   9.017   3.305   2.830 -3.1581 -0.6753  0.6288
  490MOL0     H66100   9.043   3.282   2.660 -2.1742  0.0808 -0.7315
  490MOL0     H66101   8.999   3.553   2.536  3.0492 -0.3982 -1.7623
  490MOL0     H66102   9.186   3.884   2.632 -2.3376  0.7914  2.2239
  490MOL0     H66103   9.156   3.799   2.480 -0.8027  0.9640 -1.2228
  490MOL0     H66104   8.904   3.801   2.531 -2.2896  0.8507  1.1019
  490MOL0     H66105   8.951   3.883   2.677 -0.9514 -1.7968 -0.7387
  490MOL0     H66106   9.065   4.052   2.494 -0.6791  0.5982 -1.3548
  490MOL0     H66107   8.907   4.069   2.552  1.2669 -0.0901  0.5903
  490MOL0     H66108   8.918   4.094   2.312 -2.2505  1.4900  2.0014
  490MOL0     H66109   8.800   3.964   2.359 -0.0841  1.1075 -2.0735
  490MOL0     H66110   9.110   3.703   2.159  0.2889  0.6705  0.0300
  490MOL0     H66111   9.340   3.705   2.109 -0.2820 -0.2150  2.8432
  490MOL0     H66112   9.666   3.765   1.815  0.7111 -0.7217 -2.2475
  490MOL0     H66113   9.911   3.786   1.755  0.8477 -3.7922  1.8736
  490MOL0     H66114  10.202   3.946   2.066 -2.9211  2.4320  0.0297
  490MOL0     H66115  10.289   3.966   1.914 -0.6897  0.6612 -1.3165
  490MOL0     H66116  10.043   4.122   1.920 -0.2061 -3.0753  1.6054
  490MOL0     H66117  10.160   4.170   2.051  1.4463  3.0120 -1.7670
  490MOL0     H66118  10.185   4.304   1.858 -1.3380  0.0233 -1.0086
  490MOL0     H66119  10.317   4.252   1.929 -0.5343 -1.4813  0.8370
  490MOL0     H66120  10.190   4.110   1.688  0.3155 -0.1912 -1.6595
  490MOL0     H66121  10.351   4.081   1.753  1.0693  1.4264 -2.5481
  490MOL0     H66122  10.417   4.309   1.710 -2.5459  2.2789  1.5972
  490MOL0     H66123  10.261   4.344   1.625 -0.1367  0.3406  1.4514
  490MOL0     H66124  10.293   4.154   1.480 -0.9331 -0.5654  2.1892
  490MOL0     H66125  10.405   4.297   1.448  0.4678  0.7327  2.7194
  490MOL0     H66126  10.490   4.027   1.576 -0.2574  2.2622  2.0630
  490MOL0     H66127  10.588   4.170   1.541 -0.0958  1.7912 -1.8440
  490MOL0     H66128  10.444   3.998   1.339 -0.3605  0.9958 -1.2126
  490MOL0     H66129  10.517   4.153   1.294 -2.9910  0.6884  0.4961
  490MOL0     H66130   9.988   3.946   2.149 -0.3248 -1.0377  1.5102
  490MOL0     H66131   9.760   3.887   2.213  2.6468 -0.3309  1.3468
  490MOL0     H66132   9.339   4.140   2.180  0.2955 -0.8973  0.0218
  490MOL0     H66133   9.130   4.123   2.259  0.7658  0.7841  0.2441
  490MOL0     H66134   7.959   2.673   2.627 -0.3752  0.4373 -0.4384
  490MOL0     H66135   7.742   2.646   2.699  0.0714 -1.8797  2.9291
  490MOL0     H66136   7.469   2.661   3.039  0.4446 -1.9945 -2.7181
  490MOL0     H66137   7.250   2.645   3.179 -1.9636  2.3504  0.9376
  490MOL0     H66138   6.856   2.667   2.984  0.8481 -2.1167 -0.2760
  490MOL0     H66139   6.866   2.824   3.077 -1.2709 -1.0640  0.2905
  490MOL0     H66140   6.852   2.697   3.277  0.5788 -0.6156 -0.3337
  490MOL0     H66141   6.838   2.549   3.197  1.1938  0.3656  0.3801
  490MOL0     H66142   6.642   2.790   3.188 -1.1806 -0.2724  0.6428
  490MOL0     H66143   6.605   2.651   3.289  0.8575  1.9216  1.1524
  490MOL0     H66144   6.590   2.502   3.082 -1.1136 -0.3763 -2.3254
  490MOL0     H66145   6.461   2.612   3.134  0.0950  0.5737  0.0427
  490MOL0     H66146   6.605   2.820   2.794  0.7238 -1.1991 -0.7957
  490MOL0     H66147   7.041   2.823   2.859  0.2361  0.4326 -1.0859
  490MOL0     H66148   7.293   2.990   2.712 -1.4154  1.3223 -0.5207
  490MOL0     H66149   7.256   2.849   2.612  0.2288  1.2459 -0.6620
  490MOL0     H66150   7.128   2.937   2.696 -0.6284 -0.7008  1.8940
  491MOL0     O66151   5.966   7.116   6.200  0.8706 -0.9198 -0.4520
  491MOL0     C66152   5.913   7.116   6.313 -0.4755 -0.0179  0.7642
  491MOL0     O66153   5.957   7.186   6.410  0.3432 -0.2496 -0.0510
  491MOL0     C66154   6.046   7.285   6.385  0.5568 -0.4336 -0.3027
  491MOL0     C66155   6.013   7.415   6.323  0.8813  1.0919  0.0061
  491MOL0     C66156   6.112   7.511   6.309 -0.1308  1.3040 -0.1222
  491MOL0     C66157   6.239   7.504   6.368  0.4371  1.5459  0.9173
  491MOL0     O66158   6.337   7.591   6.341 -0.9859 -0.3375 -0.1276
  491MOL0     C66159   6.393   7.585   6.209  0.5343 -0.6260 -0.3433
  491MOL0     C66160   6.516   7.483   6.203 -0.7998 -0.3451 -0.3006
  491MOL0     C66161   6.595   7.491   6.074  0.6227  0.3233  0.0348
  491MOL0     C66162   6.734   7.428   6.097  0.5870  0.6001  0.7027
  491MOL0     C66163   6.749   7.274   6.072 -0.1333 -0.0989 -1.1476
  491MOL0     C66164   6.733   7.227   5.926  0.2317 -0.1252 -0.4513
  491MOL0     C66165   6.819   7.103   5.885  0.6242  0.1766 -0.2579
  491MOL0     C66166   6.744   7.030   5.771 -0.5692  0.1745 -0.3629
  491MOL0     N66167   6.811   6.904   5.750 -0.9887 -0.6045 -0.3923
  491MOL0     C66168   6.904   6.891   5.656  0.3576  0.0298 -0.1894
  491MOL0     C66169   6.967   6.778   5.681  0.6043  0.4605 -0.2896
  491MOL0     C66170   7.082   6.738   5.603  0.1399  0.9320  0.6810
  491MOL0     C66171   7.202   6.712   5.696  0.1949 -0.2974  0.0789
  491MOL0     C66172   7.322   6.648   5.624  0.3260  0.2183  0.4493
  491MOL0     C66173   7.459   6.695   5.679 -0.4191  0.0820  0.1366
  491MOL0     O66174   7.482   6.657   5.814  0.4443  0.4011  0.5514
  491MOL0     C66175   7.604   6.668   5.875 -0.4373 -0.8929  1.5418
  491MOL0     C66176   7.727   6.684   5.801 -0.1064 -0.9423 -0.3409
  491MOL0     C66177   7.852   6.699   5.873 -0.0193 -0.8916  0.4672
  491MOL0     C66178   7.848   6.691   6.006  0.4434  0.1852  0.4947
  491MOL0     C66179   7.975   6.710   6.072 -0.3184 -0.4312 -0.2921
  491MOL0     O66180   7.980   6.679   6.205 -0.7811  0.6042 -0.5534
  491MOL0     C66181   8.078   6.727   6.298  0.9844  0.8386 -0.4660
  491MOL0     C66182   8.197   6.667   6.333 -0.4353 -0.4784  0.1893
  491MOL0     C66183   8.281   6.714   6.436 -0.6207  0.3216  0.0945
  491MOL0     C66184   8.239   6.819   6.511  0.8588  0.2604 -0.3610
  491MOL0     O66185   8.306   6.843   6.626  0.4487 -0.6227  0.2302
  491MOL0     C66186   8.304   6.976   6.680  0.5113 -0.3272  0.0372
  491MOL0     C66187   8.399   6.967   6.802 -0.2093  0.1743  1.4472
  491MOL0     C66188   8.506   7.077   6.805 -0.7401  0.7343 -0.2021
  491MOL0     C66189   8.449   7.222   6.791 -0.2386  0.4405  0.6510
  491MOL0     C66190   8.550   7.338   6.800  0.7414  0.0059 -0.2922
  491MOL0     C66191   8.667   7.318   6.905  0.7376 -0.3610 -0.0522
  491MOL0     C66192   8.723   7.460   6.924 -0.8796  0.3004  0.1398
  491MOL0     C66193   8.811   7.484   7.053 -0.6591 -0.5372  0.8416
  491MOL0    Cl66194   8.961   7.390   7.058  0.1760  0.1450 -0.0102
  491MOL0     C66195   8.114   6.880   6.483 -0.7747  0.4676  0.4008
  491MOL0     C66196   8.039   6.839   6.372 -0.2729  0.2238 -0.9322
  491MOL0     O66197   8.070   6.737   6.005  0.2059 -0.3677  0.6305
  491MOL0     C66198   7.726   6.670   6.080  0.1408 -0.3642 -0.2739
  491MOL0     C66199   7.608   6.666   6.016  1.0700  0.3337 -0.0674
  491MOL0     N66200   6.914   6.726   5.800  0.3394  0.8630 -0.2910
  491MOL0     N66201   6.819   6.806   5.841  0.6667  0.7605 -0.8891
  491MOL0     C66202   6.269   7.380   6.430 -1.0078  0.0011 -0.2511
  491MOL0     C66203   6.176   7.278   6.439  0.1094 -0.1814  0.2401
  491MOL0     C66204   5.801   7.025   6.328 -0.1043  0.8426 -0.0804
  491MOL0     C66205   5.687   7.083   6.358  0.3187  0.0853 -0.2374
  491MOL0     C66206   5.569   7.018   6.344 -0.3946  0.0392 -0.2474
  491MOL0     C66207   5.557   6.886   6.309  0.0756  0.2325 -0.4966
  491MOL0     O66208   5.428   6.831   6.299 -0.1366  0.7995  1.2486
  491MOL0     C66209   5.424   6.688   6.299  0.3219  0.3911 -0.0974
  491MOL0     C66210   5.276   6.637   6.290 -0.7417 -0.8155 -0.2902
  491MOL0     C66211   5.166   6.714   6.375 -0.1750 -0.3884 -0.2925
  491MOL0     C66212   5.014   6.653   6.369 -0.8155 -0.7122 -0.6319
  491MOL0     C66213   5.004   6.504   6.380  0.5248 -0.3007  0.9895
  491MOL0     C66214   4.997   6.381   6.379 -0.0652 -0.4914 -0.5499
  491MOL0     C66215   5.676   6.819   6.283 -0.1426 -0.9354 -0.5328
  491MOL0     C66216   5.798   6.880   6.300 -0.2094 -0.4029 -0.1076
  491MOL0     C66217   5.935   6.803   6.278  0.0954 -0.8733 -0.2306
  491MOL0     H66218   5.917   7.413   6.273 -0.1933 -1.7452  1.9545
  491MOL0     H66219   6.095   7.597   6.245  1.8700  1.8694  0.0157
  491MOL0     H66220   6.308   7.577   6.140 -0.4870  0.5318  0.7245
  491MOL0     H66221   6.436   7.684   6.188  2.0345 -1.2396 -0.2776
  491MOL0     H66222   6.498   7.376   6.215  1.3572 -0.5640  1.7026
  491MOL0     H66223   6.575   7.506   6.292 -0.8588  0.5812 -0.4886
  491MOL0     H66224   6.613   7.593   6.037  0.5161 -0.1135 -1.2890
  491MOL0     H66225   6.545   7.425   6.002  0.2708 -2.1099  2.3693
  491MOL0     H66226   6.794   7.493   6.033 -1.0776  1.4283 -0.0859
  491MOL0     H66227   6.769   7.450   6.198  1.3490  2.7065  0.0374
  491MOL0     H66228   6.849   7.240   6.103  1.3841  2.9674 -2.2481
  491MOL0     H66229   6.684   7.219   6.140  0.6345 -0.5692 -0.7748
  491MOL0     H66230   6.631   7.194   5.908  0.1645  0.1313 -0.5383
  491MOL0     H66231   6.766   7.312   5.865 -1.3988  3.2239  2.9773
  491MOL0     H66232   6.828   7.038   5.972 -1.1610  1.8261  1.2581
  491MOL0     H66233   6.917   7.134   5.848  0.4301  1.9869  0.6329
  491MOL0     H66234   6.637   7.025   5.792 -1.0943  0.4340 -2.7874
  491MOL0     H66235   6.753   7.089   5.680  1.2247  0.7465  0.1412
  491MOL0     H66236   6.932   6.965   5.583  0.2801  0.7169  0.4648
  491MOL0     H66237   7.056   6.643   5.556 -1.0832  0.9018  1.3824
  491MOL0     H66238   7.106   6.814   5.528  1.1281  2.8823  2.8382
  491MOL0     H66239   7.222   6.811   5.738 -1.4360  1.1174 -2.2019
  491MOL0     H66240   7.169   6.649   5.779  1.3473  0.1407  0.8971
  491MOL0     H66241   7.325   6.660   5.516 -1.3290 -3.3526 -0.1428
  491MOL0     H66242   7.320   6.540   5.641 -0.5176  0.1326 -0.1213
  491MOL0     H66243   7.477   6.803   5.673  1.9267 -0.1608  1.4553
  491MOL0     H66244   7.543   6.656   5.620 -0.9808 -0.4940 -0.2957
  491MOL0     H66245   7.730   6.685   5.693  0.8598  0.5618 -0.3287
  491MOL0     H66246   7.940   6.701   5.809 -0.3953 -1.8280 -0.0947
  491MOL0     H66247   8.233   6.578   6.282 -2.3214 -0.3850 -1.4716
  491MOL0     H66248   8.366   6.653   6.465 -0.8039 -0.5323 -1.0982
  491MOL0     H66249   8.328   7.046   6.600 -1.4484 -1.1264 -1.3306
  491MOL0     H66250   8.211   7.008   6.728  0.2594 -1.7671  0.5631
  491MOL0     H66251   8.346   6.981   6.897  0.8185 -1.0010  2.2355
  491MOL0     H66252   8.452   6.871   6.798  0.6069  0.6373 -2.4792
  491MOL0     H66253   8.541   7.051   6.905 -0.0176  0.1382 -0.5891
  491MOL0     H66254   8.585   7.049   6.734  0.9529  0.0892  1.8335
  491MOL0     H66255   8.379   7.226   6.875 -1.6961  0.2952 -0.5132
  491MOL0     H66256   8.400   7.235   6.694  1.1530  1.0251 -0.0126
  491MOL0     H66257   8.486   7.425   6.821  1.4053  0.9072 -1.8022
  491MOL0     H66258   8.602   7.352   6.705  3.6767  4.7987  1.5802
  491MOL0     H66259   8.612   7.279   6.991 -0.6215 -0.2801 -0.8470
  491MOL0     H66260   8.744   7.243   6.886  2.4439  0.7896  1.7945
  491MOL0     H66261   8.640   7.530   6.924 -1.0552  0.0942  0.5221
  491MOL0     H66262   8.786   7.485   6.838 -0.9936 -4.0596 -1.4481
  491MOL0     H66263   8.842   7.588   7.065  1.5576 -0.6901 -2.4544
  491MOL0     H66264   8.742   7.462   7.136 -3.8511 -0.8623 -1.7061
  491MOL0     H66265   8.088   6.961   6.550 -1.2408  0.5404  0.1381
  491MOL0     H66266   7.946   6.889   6.346 -1.8307 -2.4613 -0.7974
  491MOL0     H66267   7.724   6.650   6.186 -2.1108 -3.5307 -0.7931
  491MOL0     H66268   7.525   6.644   6.083  0.5934  1.9392 -0.0905
  491MOL0     H66269   6.365   7.370   6.481 -1.6703 -0.2328  0.9948
  491MOL0     H66270   6.198   7.184   6.488  4.5869  0.6312  0.1233
  491MOL0     H66271   5.678   7.184   6.395  0.8391  0.6018 -1.4520
  491MOL0     H66272   5.479   7.074   6.369  0.8252  1.8580  0.2147
  491MOL0     H66273   5.475   6.664   6.393 -1.9630  3.1251  2.0079
  491MOL0     H66274   5.484   6.634   6.225  0.1790 -0.4944  0.4195
  491MOL0     H66275   5.267   6.529   6.306  1.0879 -0.8104  1.0088
  491MOL0     H66276   5.252   6.650   6.184  1.4898 -2.1620 -1.0175
  491MOL0     H66277   5.169   6.822   6.358 -0.1607 -0.1962  0.8946
  491MOL0     H66278   5.189   6.699   6.481 -2.7936  1.0021  0.5667
  491MOL0     H66279   4.955   6.700   6.448 -0.1388  0.2796 -0.6861
  491MOL0     H66280   4.964   6.689   6.279 -0.0198 -0.0219 -0.8183
  491MOL0     H66281   4.983   6.275   6.365  1.6437 -0.7319 -0.6602
  491MOL0     H66282   5.673   6.713   6.261 -0.9540 -1.7332  2.8919
  491MOL0     H66283   5.916   6.695   6.272 -0.9945 -0.9138  2.5930
  491MOL0     H66284   5.976   6.843   6.184 -1.2014  1.1370  0.0070
  491MOL0     H66285   6.002   6.827   6.360  1.5098  0.4238 -1.6841
  492MOL0     O66286   6.409   0.312   1.773  0.7278  0.0382  0.2627
  492MOL0     C66287   6.425   0.265   1.888 -0.4559  0.2549 -0.1369
  492MOL0     O66288   6.545   0.225   1.943 -0.4070 -0.2394 -0.1846
  492MOL0     C66289   6.643   0.224   1.858  0.3946 -1.0101  0.4880
  492MOL0     C66290   6.666   0.104   1.787 -0.0172 -0.4402  0.1224
  492MOL0     C66291   6.779   0.105   1.704 -0.5053  0.6819 -0.6715
  492MOL0     C66292   6.874   0.207   1.702  0.5646 -0.1448  0.4083
  492MOL0     O66293   6.986   0.184   1.626 -0.3451 -0.4936 -0.7658
  492MOL0     C66294   7.122   0.217   1.666 -0.0757  0.3484 -0.3574
  492MOL0     C66295   7.160   0.112   1.771 -1.0379  0.4391  0.5794
  492MOL0     C66296   7.316   0.127   1.783 -0.4544 -0.2809 -0.6849
  492MOL0     C66297   7.366   0.042   1.902  0.4582 -0.3021 -0.3870
  492MOL0     C66298   7.508   0.075   1.937  0.3878  0.2017 -1.0807
  492MOL0     C66299   7.538   0.012   2.076  0.9586  0.2332 -0.3373
  492MOL0     C66300   7.674   0.048   2.122 -0.9556 -0.3131 -0.0714
  492MOL0     C66301   7.718  -0.069   2.215  0.2115 -0.5648 -0.1956
  492MOL0     N66302   7.823  -0.032   2.308 -0.7848  0.4663 -0.5419
  492MOL0     C66303   7.826   0.058   2.413 -0.0054  1.0470  0.0768
  492MOL0     C66304   7.949   0.045   2.464 -0.1438 -0.2155  0.0056
  492MOL0     C66305   8.007   0.118   2.575  0.9278 -0.2867 -0.1787
  492MOL0     C66306   7.954   0.074   2.711 -0.1731  0.7024  0.5415
  492MOL0     C66307   7.978  -0.081   2.740  0.2115  0.1515  0.1219
  492MOL0     C66308   8.130  -0.120   2.746 -1.0779 -0.2353 -0.1891
  492MOL0     O66309   8.208  -0.016   2.804  0.6530  0.2505 -0.2114
  492MOL0     C66310   8.342  -0.036   2.816  0.0840  0.0094  0.5199
  492MOL0     C66311   8.411   0.082   2.837  0.5130 -0.1271 -0.5318
  492MOL0     C66312   8.552   0.088   2.835 -0.0866  0.9786  0.2321
  492MOL0     C66313   8.623  -0.025   2.796  0.0106  0.2354 -0.3284
  492MOL0     C66314   8.764  -0.030   2.773 -1.1534  0.4248 -0.1382
  492MOL0     O66315   8.833   0.096   2.760 -1.4665 -0.5125  0.0251
  492MOL0     C66316   8.968   0.092   2.734  0.1735 -0.0977 -0.3968
  492MOL0     C66317   9.051   0.054   2.829 -0.2316 -0.1253 -0.0129
  492MOL0     C66318   9.189   0.059   2.801  0.9886  0.1459 -0.5854
  492MOL0     C66319   9.237   0.098   2.675  0.6333 -0.2090  0.4625
  492MOL0     O66320   9.368   0.110   2.651  0.1128  0.6495 -0.1958
  492MOL0     C66321   9.426   0.084   2.520 -0.5156  0.1228  0.9739
  492MOL0     C66322   9.578   0.054   2.551  0.5612 -0.6341  0.4879
  492MOL0     C66323   9.660   0.063   2.419  0.0364  0.0788 -0.9087
  492MOL0     C66324   9.804   0.074   2.450 -0.1033  0.1117  0.1985
  492MOL0     C66325   9.863  -0.046   2.521 -0.3580 -0.8973  0.8388
  492MOL0     C66326  10.013  -0.060   2.506 -0.4189  0.1659  0.3233
  492MOL0     C66327  10.084  -0.149   2.617  0.7332 -0.3288 -0.2010
  492MOL0     C66328  10.057  -0.296   2.584  0.1799  0.6967  0.5985
  492MOL0    Cl66329  10.155  -0.384   2.712  0.3469 -0.4880  0.0680
  492MOL0     C66330   9.148   0.140   2.577 -0.2923 -0.1692  0.0349
  492MOL0     C66331   9.011   0.126   2.613 -1.0180 -0.9114  0.3058
  492MOL0     O66332   8.818  -0.138   2.748 -0.7085 -0.1813  1.0676
  492MOL0     C66333   8.550  -0.143   2.781  0.5679  0.1107  0.7755
  492MOL0     C66334   8.415  -0.152   2.796  1.0415  0.7803  0.1422
  492MOL0     N66335   8.019  -0.044   2.392 -0.5196  0.3421  0.0544
  492MOL0     N66336   7.949  -0.090   2.298 -0.0139 -0.0109  0.1678
  492MOL0     C66337   6.853   0.317   1.785  0.2826 -0.1466 -0.8828
  492MOL0     C66338   6.735   0.330   1.854 -0.6757  0.0532 -0.8201
  492MOL0     C66339   6.300   0.243   1.962  0.4864 -0.5240 -0.0290
  492MOL0     C66340   6.290   0.146   2.063  0.3024 -0.1483  0.5655
  492MOL0     C66341   6.171   0.115   2.125 -0.1444  0.6962 -0.5401
  492MOL0     C66342   6.055   0.184   2.105  1.1853 -0.4752  0.2140
  492MOL0     O66343   5.948   0.143   2.183 -0.1626 -0.0903 -0.4849
  492MOL0     C66344   5.815   0.165   2.123  0.4571 -0.1834 -1.5411
  492MOL0     C66345   5.699   0.176   2.224 -0.8310 -0.8975  0.0595
  492MOL0     C66346   5.697   0.295   2.315 -0.6058 -0.0960  1.1387
  492MOL0     C66347   5.566   0.323   2.393  0.1771  0.5831 -0.0401
  492MOL0     C66348   5.449   0.348   2.309 -0.0296 -0.2291  0.7413
  492MOL0     C66349   5.345   0.361   2.243  0.0361  0.5939  0.0191
  492MOL0     C66350   6.057   0.284   2.007  0.6659 -0.8197 -0.3143
  492MOL0     C66351   6.183   0.321   1.945 -0.0838 -0.5289 -0.3443
  492MOL0     C66352   6.166   0.430   1.835 -0.2090  0.3819  0.7992
  492MOL0     H66353   6.587   0.031   1.789 -1.3575  0.9529 -0.0811
  492MOL0     H66354   6.805   0.024   1.636  4.4822  0.3823  1.1476
  492MOL0     H66355   7.178   0.202   1.573  0.8049  0.5204  0.1297
  492MOL0     H66356   7.126   0.324   1.691 -5.4286  1.0995 -1.4659
  492MOL0     H66357   7.133   0.009   1.745 -0.8010  0.7412 -0.9664
  492MOL0     H66358   7.113   0.138   1.867 -0.5939  3.2722  0.1213
  492MOL0     H66359   7.343   0.233   1.791 -1.8963  0.1172 -0.6868
  492MOL0     H66360   7.370   0.082   1.700  2.7162  1.2761  0.3867
  492MOL0     H66361   7.303   0.061   1.990 -0.9720 -0.7616 -1.2821
  492MOL0     H66362   7.346  -0.059   1.866  0.0058 -0.2075 -0.4072
  492MOL0     H66363   7.573   0.038   1.858  0.6572 -1.8054  0.0040
  492MOL0     H66364   7.532   0.179   1.957  0.2152  0.0549 -0.0399
  492MOL0     H66365   7.468   0.045   2.155 -1.4778 -2.6758 -1.0922
  492MOL0     H66366   7.519  -0.095   2.065  0.4889 -0.0060  2.1097
  492MOL0     H66367   7.679   0.144   2.176  0.9067  0.9845 -2.3327
  492MOL0     H66368   7.747   0.056   2.041 -0.6750 -0.7342  0.1380
  492MOL0     H66369   7.631  -0.099   2.274 -0.8312  2.1304 -0.2288
  492MOL0     H66370   7.751  -0.157   2.159 -1.0962 -1.1834 -0.0192
  492MOL0     H66371   7.751   0.129   2.446 -2.4618 -1.8446  1.2204
  492MOL0     H66372   8.111   0.085   2.565  0.5294 -0.8607 -3.9944
  492MOL0     H66373   7.976   0.221   2.557 -3.6186 -1.1175  1.4755
  492MOL0     H66374   8.000   0.136   2.789  1.9350 -1.6375  1.2961
  492MOL0     H66375   7.846   0.095   2.713 -0.1360  1.6349 -2.2686
  492MOL0     H66376   7.919  -0.137   2.667  0.3597 -2.6725  1.9931
  492MOL0     H66377   7.936  -0.112   2.836  1.2408 -0.6959  0.3143
  492MOL0     H66378   8.172  -0.151   2.650  2.5716 -0.1083  1.1954
  492MOL0     H66379   8.141  -0.208   2.809 -1.5106 -0.7506 -0.8222
  492MOL0     H66380   8.356   0.171   2.868  0.1882 -1.1751  2.1359
  492MOL0     H66381   8.599   0.184   2.852 -0.7567  1.9523 -2.8124
  492MOL0     H66382   9.023   0.021   2.928  2.1836 -3.3588 -0.2407
  492MOL0     H66383   9.264   0.028   2.873 -0.5889  1.4098  1.7331
  492MOL0     H66384   9.382  -0.003   2.470 -1.6136  1.9040 -1.3515
  492MOL0     H66385   9.415   0.174   2.458 -3.1538 -0.8990 -0.2314
  492MOL0     H66386   9.608   0.134   2.620  2.0456 -0.3104 -0.4757
  492MOL0     H66387   9.594  -0.044   2.596 -1.8852 -2.2816 -1.8997
  492MOL0     H66388   9.641  -0.031   2.367 -3.4813  1.1994 -1.8958
  492MOL0     H66389   9.622   0.146   2.359 -1.6876 -1.3063 -1.8195
  492MOL0     H66390   9.832   0.161   2.510  0.4514 -2.1622  3.5363
  492MOL0     H66391   9.852   0.093   2.354  0.3159  2.2548  0.7867
  492MOL0     H66392   9.809  -0.136   2.488  0.5370 -0.5188 -1.8586
  492MOL0     H66393   9.851  -0.031   2.629  3.3904 -0.5168  1.3239
  492MOL0     H66394  10.028  -0.111   2.411 -0.1169 -1.0203  0.9792
  492MOL0     H66395  10.075   0.030   2.507 -0.7633  0.4276 -1.0193
  492MOL0     H66396  10.037  -0.152   2.716 -3.4246 -1.6991 -1.9687
  492MOL0     H66397  10.191  -0.129   2.627  1.1657 -1.1027 -2.6272
  492MOL0     H66398   9.949  -0.312   2.580  0.6545 -3.1524 -0.9611
  492MOL0     H66399  10.102  -0.317   2.487  0.5790 -0.3595  0.9998
  492MOL0     H66400   9.183   0.178   2.481 -0.9888  1.3233  0.3463
  492MOL0     H66401   8.931   0.146   2.543  0.4834 -3.3826 -2.3241
  492MOL0     H66402   8.589  -0.239   2.749  0.6168 -0.1603  1.6197
  492MOL0     H66403   8.366  -0.246   2.774  0.3998  0.9259  0.9028
  492MOL0     H66404   6.931   0.392   1.792  0.1237 -0.1381  2.2960
  492MOL0     H66405   6.715   0.422   1.908  0.5207  0.6579 -1.3745
  492MOL0     H66406   6.378   0.084   2.076  2.3155  1.2036 -4.3445
  492MOL0     H66407   6.158   0.025   2.184  4.1904 -0.2152 -0.6469
  492MOL0     H66408   5.800   0.082   2.053 -0.2221  1.5575 -3.6033
  492MOL0     H66409   5.805   0.250   2.055 -1.2679 -1.3227 -2.7860
  492MOL0     H66410   5.713   0.090   2.290 -2.1644 -1.7755 -0.7598
  492MOL0     H66411   5.607   0.177   2.166 -1.5242 -0.4279  1.1262
  492MOL0     H66412   5.707   0.381   2.248  3.5803 -1.6740 -0.6163
  492MOL0     H66413   5.789   0.291   2.375  0.6377  0.9947 -0.5989
  492MOL0     H66414   5.551   0.243   2.466  0.0865  2.6130  2.2884
  492MOL0     H66415   5.582   0.419   2.442 -1.2541  1.2395 -0.7945
  492MOL0     H66416   5.245   0.365   2.206 -0.0949 -1.0918  0.1114
  492MOL0     H66417   5.968   0.338   1.975 -1.5973 -2.9940  1.8747
  492MOL0     H66418   6.183   0.376   1.741  5.9043 -0.6614  2.0289
  492MOL0     H66419   6.064   0.467   1.829 -1.2722 -2.3427  0.8554
  492MOL0     H66420   6.233   0.515   1.849 -0.3795  1.1493 -2.2187
  493MOL0     O66421   2.419   9.819   6.736  0.5474 -0.0380 -0.0757
  493MOL0     C66422   2.516   9.757   6.692 -0.4269  0.0819  0.9641
  493MOL0     O66423   2.540   9.622   6.709  0.1069  0.4675  0.0629
  493MOL0     C66424   2.445   9.545   6.767  0.2338 -0.2444 -0.3535
  493MOL0     C66425   2.370   9.585   6.887  0.1608 -0.2514  0.7054
  493MOL0     C66426   2.282   9.493   6.952  0.0172  0.7058 -0.3445
  493MOL0     C66427   2.273   9.366   6.897 -1.3498  0.1481 -0.3548
  493MOL0     O66428   2.186   9.271   6.957 -0.1386  0.0045 -0.5675
  493MOL0     C66429   2.068   9.248   6.879 -1.0713 -0.9153  1.0099
  493MOL0     C66430   1.983   9.145   6.966  0.5364  0.3498  0.4281
  493MOL0     C66431   2.053   9.007   6.969  0.9487  0.0945  0.5233
  493MOL0     C66432   1.986   8.886   7.043  0.0185 -0.8184  0.2053
  493MOL0     C66433   1.849   8.860   7.003 -0.1357 -0.0681  0.1262
  493MOL0     C66434   1.839   8.753   6.894 -1.1193 -0.8343 -0.8031
  493MOL0     C66435   1.693   8.698   6.892  0.3876  0.4144  0.5449
  493MOL0     C66436   1.602   8.807   6.830  1.1708 -1.0491  0.6894
  493MOL0     N66437   1.483   8.731   6.779 -0.2926  0.4838  0.2018
  493MOL0     C66438   1.421   8.629   6.852 -0.4708 -0.7636  0.5681
  493MOL0     C66439   1.320   8.585   6.772 -0.7424  0.0334 -0.0940
  493MOL0     C66440   1.230   8.475   6.811  0.0217  0.6251 -0.6753
  493MOL0     C66441   1.284   8.334   6.780  1.0007 -0.8347  0.5506
  493MOL0     C66442   1.240   8.288   6.631  0.2211  0.6635 -0.8077
  493MOL0     C66443   1.340   8.352   6.525 -0.1734  0.0885  0.5581
  493MOL0     O66444   1.473   8.292   6.545  1.0479 -0.4235  0.9609
  493MOL0     C66445   1.589   8.369   6.544 -0.4371 -0.1534  0.1610
  493MOL0     C66446   1.702   8.312   6.620  0.3249  0.2015  1.1383
  493MOL0     C66447   1.823   8.383   6.630  0.5121  0.5369 -0.1325
  493MOL0     C66448   1.841   8.509   6.576  0.0874 -0.2634  0.0750
  493MOL0     C66449   1.963   8.590   6.600  0.4703 -0.9247 -0.1654
  493MOL0     O66450   1.978   8.702   6.526  0.2457  0.0868 -0.7353
  493MOL0     C66451   2.099   8.764   6.529  0.3660 -0.2617 -0.8861
  493MOL0     C66452   2.159   8.808   6.646 -0.0251  0.1146  0.3696
  493MOL0     C66453   2.277   8.877   6.635 -0.1927  0.1457 -0.0991
  493MOL0     C66454   2.327   8.922   6.510  0.4402  0.5372 -0.4064
  493MOL0     O66455   2.434   9.011   6.488  0.4900  0.0197 -0.2050
  493MOL0     C66456   2.528   9.031   6.597 -0.0075 -0.2561  0.6337
  493MOL0     C66457   2.637   9.114   6.548  0.4234  0.1445 -0.3683
  493MOL0     C66458   2.743   9.154   6.663  0.4695  0.0929 -0.0143
  493MOL0     C66459   2.830   9.271   6.611 -0.6235  0.0490 -0.1345
  493MOL0     C66460   2.959   9.279   6.692 -0.6340  0.0744 -0.2481
  493MOL0     C66461   3.060   9.381   6.644  0.2035 -1.1773 -0.5472
  493MOL0     C66462   3.178   9.421   6.733 -0.1141  0.2825  0.2831
  493MOL0     C66463   3.246   9.545   6.673  0.1735  0.7091 -0.4934
  493MOL0    Cl66464   3.127   9.682   6.673  0.1412  0.4255  0.1951
  493MOL0     C66465   2.267   8.879   6.399 -0.3364 -0.3301 -0.5019
  493MOL0     C66466   2.151   8.799   6.401 -0.6183  0.6382  0.0467
  493MOL0     O66467   2.051   8.541   6.671  0.0113  0.7764 -0.6851
  493MOL0     C66468   1.729   8.561   6.508 -0.2498 -0.4396 -0.5587
  493MOL0     C66469   1.613   8.492   6.482 -0.4352  0.3056 -0.5808
  493MOL0     N66470   1.315   8.674   6.658  0.5130  0.0324 -0.8255
  493MOL0     N66471   1.414   8.742   6.658  0.0344 -0.7452 -0.3804
  493MOL0     C66472   2.327   9.338   6.774  0.4507 -0.3810 -0.5868
  493MOL0     C66473   2.416   9.421   6.708 -0.4285 -0.8479 -0.4693
  493MOL0     C66474   2.625   9.830   6.618  0.2409  0.2610 -0.3816
  493MOL0     C66475   2.746   9.765   6.594 -1.6131 -0.6466 -0.1464
  493MOL0     C66476   2.854   9.830   6.529 -0.1972  0.0953 -1.3248
  493MOL0     C66477   2.846   9.962   6.492  0.1979 -1.4910  0.8335
  493MOL0     O66478   2.945  10.043   6.444 -1.2861  0.0683  0.0716
  493MOL0     C66479   2.984  10.028   6.305 -0.2979 -0.4250 -0.1655
  493MOL0     C66480   3.097  10.130   6.292  0.0540  0.2860  0.7398
  493MOL0     C66481   3.189  10.088   6.185 -0.5284  0.0441  0.5191
  493MOL0     C66482   3.271   9.957   6.217  0.9061 -0.0521  0.0082
  493MOL0     C66483   3.415   9.981   6.211 -1.3869  0.2120  1.4203
  493MOL0     C66484   3.534   9.990   6.186  0.1158  0.0881 -0.3772
  493MOL0     C66485   2.729  10.024   6.504  0.7011  0.4103  0.2440
  493MOL0     C66486   2.621   9.965   6.568  0.2003  0.1538 -1.0673
  493MOL0     C66487   2.508  10.054   6.602 -0.4779 -0.6065 -0.2761
  493MOL0     H66488   2.391   9.679   6.937  2.5862 -0.7630  0.8081
  493MOL0     H66489   2.225   9.522   7.039 -2.9961  0.0552 -1.9459
  493MOL0     H66490   2.014   9.342   6.865 -1.8326 -1.5843 -1.0582
  493MOL0     H66491   2.088   9.199   6.783 -2.8616 -1.4410  0.8676
  493MOL0     H66492   1.883   9.131   6.926  0.4709 -2.3000  1.3195
  493MOL0     H66493   1.984   9.183   7.068  3.8346  0.8314  0.3397
  493MOL0     H66494   2.153   9.029   7.009  0.0845  1.0325  2.3017
  493MOL0     H66495   2.058   8.977   6.864 -2.4441  0.2182  0.2262
  493MOL0     H66496   2.048   8.797   7.031 -0.9500 -1.5992  0.8530
  493MOL0     H66497   2.000   8.905   7.150  0.9318 -2.8937  0.4912
  493MOL0     H66498   1.809   8.823   7.097  1.7396  1.3409  1.5574
  493MOL0     H66499   1.796   8.947   6.964 -2.5306 -3.8323 -6.8281
  493MOL0     H66500   1.877   8.796   6.801 -1.1686  2.1845  0.4396
  493MOL0     H66501   1.901   8.667   6.918 -1.5307 -1.1428 -0.8308
  493MOL0     H66502   1.664   8.671   6.994  0.1930 -2.3578 -0.1608
  493MOL0     H66503   1.702   8.611   6.826  1.7490  0.8164  0.1691
  493MOL0     H66504   1.571   8.879   6.906  1.2285  1.3617 -1.4491
  493MOL0     H66505   1.641   8.862   6.744 -1.8059  0.2038  0.0195
  493MOL0     H66506   1.448   8.590   6.950 -1.0199  0.3282  1.1698
  493MOL0     H66507   1.229   8.479   6.920  0.6693 -0.5424 -0.6172
  493MOL0     H66508   1.133   8.495   6.765  0.6157  0.9159 -1.8271
  493MOL0     H66509   1.393   8.330   6.789  1.4892  2.2481 -2.0237
  493MOL0     H66510   1.231   8.268   6.850 -0.6832 -0.5725 -0.4203
  493MOL0     H66511   1.135   8.317   6.627  0.0595  1.1763  3.0231
  493MOL0     H66512   1.263   8.182   6.622  1.3676  0.9986 -2.2826
  493MOL0     H66513   1.355   8.460   6.533  1.2742 -0.1668  1.8476
  493MOL0     H66514   1.312   8.326   6.423  0.8566  0.0566  0.2659
  493MOL0     H66515   1.685   8.214   6.663  3.4749 -0.2485  1.5830
  493MOL0     H66516   1.900   8.331   6.686 -1.5475 -2.9879 -0.3308
  493MOL0     H66517   2.126   8.781   6.746  2.6781 -1.9582  0.8101
  493MOL0     H66518   2.326   8.913   6.725  0.0016  0.1841 -0.2190
  493MOL0     H66519   2.481   9.072   6.687 -2.5747  0.0635 -0.7618
  493MOL0     H66520   2.571   8.938   6.638 -0.3465 -0.4891  0.4648
  493MOL0     H66521   2.688   9.061   6.468  1.1868 -0.6304  0.6051
  493MOL0     H66522   2.582   9.199   6.506 -1.1925 -0.8958 -0.4404
  493MOL0     H66523   2.687   9.181   6.753  3.3072 -0.1679  1.9661
  493MOL0     H66524   2.793   9.061   6.689  0.1141  0.1776  0.9982
  493MOL0     H66525   2.768   9.361   6.611  0.2654  0.7073  1.8515
  493MOL0     H66526   2.871   9.250   6.512  1.8560  0.2078  0.8056
  493MOL0     H66527   3.004   9.180   6.680  1.1239  0.2855  3.3193
  493MOL0     H66528   2.930   9.296   6.796  2.4727 -3.7259  1.4917
  493MOL0     H66529   3.110   9.348   6.553  1.2179 -0.9847 -0.0662
  493MOL0     H66530   3.003   9.472   6.620  1.0095 -0.8280 -1.1603
  493MOL0     H66531   3.249   9.338   6.726  2.6715  2.5111  0.2649
  493MOL0     H66532   3.159   9.431   6.840  0.6046  0.6064  0.3854
  493MOL0     H66533   3.330   9.573   6.739 -1.6549  2.5998  1.2112
  493MOL0     H66534   3.280   9.519   6.573 -2.4117 -1.9145 -0.7853
  493MOL0     H66535   2.293   8.910   6.299 -1.1877  1.8973 -0.0863
  493MOL0     H66536   2.096   8.770   6.312 -0.0436  1.1170 -0.4727
  493MOL0     H66537   1.731   8.665   6.475 -0.2938 -0.5348 -0.8629
  493MOL0     H66538   1.539   8.535   6.415 -0.5707 -2.4400 -2.3680
  493MOL0     H66539   2.302   9.249   6.717 -0.7826  1.7868 -3.6619
  493MOL0     H66540   2.466   9.402   6.613 -1.5291 -1.5853 -0.9248
  493MOL0     H66541   2.773   9.666   6.626 -5.1178 -0.9765  2.4239
  493MOL0     H66542   2.956   9.799   6.511 -0.2605 -0.0606 -1.4207
  493MOL0     H66543   2.903  10.054   6.236  0.1203 -0.4852 -0.6859
  493MOL0     H66544   3.018   9.925   6.289  1.6133  0.6245 -3.9096
  493MOL0     H66545   3.154  10.140   6.385 -0.5106  1.2257  1.0043
  493MOL0     H66546   3.059  10.228   6.260 -1.8676 -0.3346  0.9925
  493MOL0     H66547   3.260  10.169   6.169 -1.1167  0.7045  1.2027
  493MOL0     H66548   3.148  10.072   6.085 -0.1557  0.7557  0.2479
  493MOL0     H66549   3.251   9.923   6.319 -0.4592 -2.9835 -1.1446
  493MOL0     H66550   3.232   9.884   6.145  1.1450  2.1283 -2.4966
  493MOL0     H66551   3.636   9.985   6.152  0.1294  0.3632 -0.3813
  493MOL0     H66552   2.723  10.131   6.483  1.6168  0.7895  1.7073
  493MOL0     H66553   2.528  10.159   6.581 -2.4710 -0.5228 -2.0923
  493MOL0     H66554   2.429  10.023   6.532  0.8488 -2.3530 -1.0819
  493MOL0     H66555   2.478  10.047   6.707 -0.8214  1.4965 -0.1997
  494MOL0     O66556   4.206   2.865   2.659 -0.0286  0.2910 -0.1438
  494MOL0     C66557   4.242   2.752   2.636  0.4218  0.5661  0.6700
  494MOL0     O66558   4.171   2.662   2.561  0.1197 -0.0497 -0.7453
  494MOL0     C66559   4.060   2.710   2.492  0.5703 -0.3095  0.3274
  494MOL0     C66560   3.965   2.792   2.542  0.6153 -0.3981 -0.3621
  494MOL0     C66561   3.861   2.833   2.464  0.6276  0.8455  0.0777
  494MOL0     C66562   3.855   2.799   2.328  0.4631 -0.0988  0.7790
  494MOL0     O66563   3.757   2.852   2.244  0.9254 -0.6643  0.4360
  494MOL0     C66564   3.776   2.989   2.205 -0.1099 -0.0631 -1.3522
  494MOL0     C66565   3.658   3.042   2.120  0.2289 -0.2746  0.0677
  494MOL0     C66566   3.650   2.969   1.980 -0.4574  0.2218 -0.6203
  494MOL0     C66567   3.514   2.992   1.918 -1.1644  0.1400 -0.5914
  494MOL0     C66568   3.463   2.897   1.807 -0.6025 -0.5514  2.0072
  494MOL0     C66569   3.431   2.758   1.872 -0.0236 -0.2671  1.1237
  494MOL0     C66570   3.322   2.692   1.783 -0.0300 -0.2364 -0.4487
  494MOL0     C66571   3.312   2.545   1.812  0.9281 -0.3985 -0.2710
  494MOL0     N66572   3.247   2.482   1.700 -1.0171 -0.1745 -0.0615
  494MOL0     C66573   3.113   2.487   1.670 -0.2879  0.2708 -0.0976
  494MOL0     C66574   3.100   2.389   1.573  1.5639 -0.7833  0.4063
  494MOL0     C66575   2.975   2.341   1.502 -0.8506  0.2723 -0.3028
  494MOL0     C66576   2.850   2.363   1.584 -0.1288  1.0057 -0.5469
  494MOL0     C66577   2.849   2.314   1.724  0.4335 -0.2057 -0.0333
  494MOL0     C66578   2.750   2.388   1.813  0.2230 -0.0415  0.0081
  494MOL0     O66579   2.794   2.518   1.869 -0.6022  0.0872  0.2924
  494MOL0     C66580   2.896   2.528   1.961  0.3655  0.0700  0.4681
  494MOL0     C66581   2.949   2.416   2.033  0.0526 -0.0995 -0.8833
  494MOL0     C66582   3.055   2.438   2.124  0.7021 -0.7557 -0.4138
  494MOL0     C66583   3.106   2.573   2.141 -0.0236 -0.0316  0.3003
  494MOL0     C66584   3.220   2.599   2.239  0.3086  0.3731 -0.7731
  494MOL0     O66585   3.303   2.499   2.295  0.3973 -0.1901 -0.1659
  494MOL0     C66586   3.394   2.543   2.389  0.3872 -0.5553 -0.6223
  494MOL0     C66587   3.365   2.618   2.509  0.2805  0.0834  1.0999
  494MOL0     C66588   3.468   2.658   2.595  0.1850 -0.0549  0.6763
  494MOL0     C66589   3.599   2.602   2.581  0.9777  0.1492  1.0182
  494MOL0     O66590   3.692   2.624   2.679 -0.5224 -0.5481  0.1292
  494MOL0     C66591   3.804   2.529   2.684 -0.7033  0.4880  0.1913
  494MOL0     C66592   3.883   2.558   2.812 -0.7106 -0.5452  0.0479
  494MOL0     C66593   4.004   2.465   2.817  0.4251 -1.0045 -0.4776
  494MOL0     C66594   4.099   2.477   2.939  0.2231 -0.8970  0.8095
  494MOL0     C66595   4.134   2.620   2.991 -0.4944  0.9154 -0.3592
  494MOL0     C66596   4.248   2.600   3.102  0.3313 -0.1255  0.4331
  494MOL0     C66597   4.254   2.724   3.218  0.1964  1.0032 -0.2340
  494MOL0     C66598   4.365   2.706   3.315  0.3208  0.2252 -0.4530
  494MOL0    Cl66599   4.333   2.817   3.456  0.2895  0.2290 -0.0344
  494MOL0     C66600   3.629   2.541   2.460  0.3649 -0.6850  0.5000
  494MOL0     C66601   3.527   2.512   2.371 -0.1319 -0.4066  0.1670
  494MOL0     O66602   3.235   2.721   2.255 -0.0238 -0.5398 -0.0565
  494MOL0     C66603   3.041   2.683   2.077 -0.3644  0.1607  0.0154
  494MOL0     C66604   2.934   2.652   1.985 -0.1761 -0.7944 -0.6442
  494MOL0     N66605   3.223   2.337   1.548 -0.1636  0.0099 -0.3929
  494MOL0     N66606   3.313   2.402   1.616  0.4493  0.5256  0.7265
  494MOL0     C66607   3.946   2.718   2.274 -0.5100 -0.3572 -0.6053
  494MOL0     C66608   4.045   2.664   2.357  0.8045  0.1261  0.3184
  494MOL0     C66609   4.364   2.705   2.706 -0.8146 -1.5402 -0.0248
  494MOL0     C66610   4.364   2.570   2.744  0.3523  1.0631  0.1638
  494MOL0     C66611   4.461   2.516   2.828 -0.4919  0.5085 -0.7212
  494MOL0     C66612   4.560   2.601   2.878 -0.3098  0.9723  0.0475
  494MOL0     O66613   4.670   2.563   2.953 -0.0105 -0.3975  0.0693
  494MOL0     C66614   4.736   2.444   2.922 -0.6735 -0.2533  0.7121
  494MOL0     C66615   4.826   2.397   3.031  0.3014  0.4467  0.1521
  494MOL0     C66616   4.761   2.278   3.103  0.5316  0.4203 -0.1070
  494MOL0     C66617   4.689   2.311   3.237  0.0429 -0.0573  0.3355
  494MOL0     C66618   4.609   2.207   3.305 -0.4925 -0.5705  0.3714
  494MOL0     C66619   4.557   2.115   3.361 -0.5058  0.3646 -0.3715
  494MOL0     C66620   4.563   2.734   2.830 -0.5826  1.0293 -0.4832
  494MOL0     C66621   4.468   2.793   2.753 -0.2297 -0.2334  0.0664
  494MOL0     C66622   4.481   2.939   2.740 -0.5246  0.2632 -1.0232
  494MOL0     H66623   3.967   2.814   2.648 -2.1437  1.9739 -0.6806
  494MOL0     H66624   3.785   2.903   2.497 -0.3865  0.7330 -1.8624
  494MOL0     H66625   3.797   3.057   2.288  1.5423  1.2506 -2.7727
  494MOL0     H66626   3.867   2.995   2.144  1.5477  2.9762  1.0841
  494MOL0     H66627   3.668   3.149   2.103  1.7492 -0.7130 -2.1074
  494MOL0     H66628   3.569   3.018   2.179 -0.6871 -0.0070 -1.1613
  494MOL0     H66629   3.675   2.863   1.991  0.8591  0.5866  0.0928
  494MOL0     H66630   3.726   3.016   1.917  1.5168 -0.2788  1.2766
  494MOL0     H66631   3.434   2.988   1.992 -1.1766 -0.6929 -0.6469
  494MOL0     H66632   3.524   3.096   1.884  0.7308  0.7258  1.4571
  494MOL0     H66633   3.377   2.950   1.765 -0.4612 -0.3664  1.9516
  494MOL0     H66634   3.542   2.889   1.731 -1.7816  3.1839  0.1421
  494MOL0     H66635   3.521   2.697   1.864  0.0192 -0.2368  1.3613
  494MOL0     H66636   3.393   2.759   1.975 -1.6897 -1.6202  0.5692
  494MOL0     H66637   3.358   2.702   1.680 -2.8133  2.7865 -1.3371
  494MOL0     H66638   3.227   2.743   1.805  0.0631 -0.7087  1.1399
  494MOL0     H66639   3.408   2.492   1.806  2.4179  2.0885 -6.9284
  494MOL0     H66640   3.250   2.529   1.901  0.4329 -0.7440 -0.6727
  494MOL0     H66641   3.035   2.547   1.717  1.6954  3.1422 -0.1715
  494MOL0     H66642   2.972   2.404   1.413  0.4891  1.6753  0.5750
  494MOL0     H66643   2.986   2.238   1.467 -0.4650  0.5187 -0.9060
  494MOL0     H66644   2.832   2.470   1.584 -2.7941  0.6356 -1.1708
  494MOL0     H66645   2.773   2.306   1.530  1.1530  1.4402 -3.0224
  494MOL0     H66646   2.944   2.323   1.776 -0.6802 -2.2537  2.5881
  494MOL0     H66647   2.820   2.208   1.724  3.1933 -1.1170  2.7792
  494MOL0     H66648   2.721   2.325   1.897 -2.2053  4.2014  2.7316
  494MOL0     H66649   2.656   2.403   1.759 -1.3159 -3.7102  1.3241
  494MOL0     H66650   2.934   2.309   2.017  0.1380 -0.2935  0.2520
  494MOL0     H66651   3.092   2.359   2.188  3.2444  0.0389 -0.8101
  494MOL0     H66652   3.261   2.637   2.535  0.3423 -0.8276  2.0450
  494MOL0     H66653   3.439   2.704   2.689 -0.2495  0.6302  0.2171
  494MOL0     H66654   3.782   2.424   2.662 -1.3757  0.1049  2.3688
  494MOL0     H66655   3.876   2.556   2.607 -0.2634  1.3445  0.8869
  494MOL0     H66656   3.920   2.661   2.812 -1.8408 -0.0783  2.2606
  494MOL0     H66657   3.823   2.554   2.904 -0.5946 -0.4864  0.1267
  494MOL0     H66658   3.960   2.365   2.814 -2.3790  0.1726 -2.4710
  494MOL0     H66659   4.061   2.483   2.725 -0.2458 -3.0257 -1.3448
  494MOL0     H66660   4.190   2.417   2.929 -0.8654 -2.6409  1.0040
  494MOL0     H66661   4.046   2.430   3.022 -3.9999  1.8096 -0.0159
  494MOL0     H66662   4.055   2.678   3.040 -2.3521 -1.4713 -0.3463
  494MOL0     H66663   4.174   2.669   2.902 -3.2048  1.2291 -1.4997
  494MOL0     H66664   4.235   2.507   3.158 -1.5599  0.9235  1.8696
  494MOL0     H66665   4.339   2.594   3.042  0.1550  0.5300  0.0844
  494MOL0     H66666   4.157   2.730   3.269 -0.4899  0.7966 -1.4874
  494MOL0     H66667   4.270   2.810   3.152  1.7327  0.7540 -0.2195
  494MOL0     H66668   4.379   2.606   3.356 -0.5093  0.7145  1.0934
  494MOL0     H66669   4.458   2.740   3.268 -1.0635  2.2743 -1.8728
  494MOL0     H66670   3.733   2.512   2.442  0.5095  1.0141 -1.7841
  494MOL0     H66671   3.550   2.468   2.275  0.1075  0.2171 -0.0671
  494MOL0     H66672   3.072   2.787   2.074  0.3728 -0.0768 -1.5001
  494MOL0     H66673   2.884   2.733   1.934 -0.5257  0.0824  1.0167
  494MOL0     H66674   3.932   2.692   2.169 -0.5232 -1.0650 -0.4323
  494MOL0     H66675   4.129   2.603   2.325  2.4987  1.0477  2.7020
  494MOL0     H66676   4.292   2.499   2.705  2.1368 -0.7758  0.0507
  494MOL0     H66677   4.450   2.414   2.863  1.1228  0.7926  0.7583
  494MOL0     H66678   4.797   2.454   2.832  1.7107  2.4567  2.4492
  494MOL0     H66679   4.665   2.366   2.890  1.1214 -1.4185 -0.5861
  494MOL0     H66680   4.859   2.479   3.094  0.0657 -0.0921  0.9917
  494MOL0     H66681   4.916   2.363   2.979 -0.4073 -0.6870 -0.3976
  494MOL0     H66682   4.838   2.203   3.124 -0.4426 -0.6823 -0.3744
  494MOL0     H66683   4.688   2.228   3.038  1.0850  1.3391 -1.4794
  494MOL0     H66684   4.765   2.351   3.305  0.1371  1.7114 -0.7312
  494MOL0     H66685   4.610   2.386   3.226 -1.3481 -1.6579 -1.0290
  494MOL0     H66686   4.506   2.028   3.398 -1.5458  0.3166 -1.8165
  494MOL0     H66687   4.649   2.786   2.870  0.4839 -1.7475  1.0968
  494MOL0     H66688   4.532   2.975   2.830 -1.3774  2.1371 -1.2255
  494MOL0     H66689   4.532   2.964   2.647 -0.5830  1.0052 -0.8679
  494MOL0     H66690   4.387   2.996   2.749 -0.1221  0.6825  1.5525
  495MOL0     O66691   6.899   5.105   2.458 -0.0443  0.7777  0.4356
  495MOL0     C66692   6.905   5.125   2.580  0.5618  0.4339  0.5621
  495MOL0     O66693   6.983   5.061   2.672 -0.8919  0.0163 -0.0359
  495MOL0     C66694   7.047   4.946   2.625 -0.3678 -0.0838  1.4370
  495MOL0     C66695   7.177   4.926   2.654 -1.0953  0.7572  0.2986
  495MOL0     C66696   7.244   4.809   2.619 -0.2766 -0.4452 -0.0510
  495MOL0     C66697   7.185   4.712   2.545  0.5091  0.2001 -0.2034
  495MOL0     O66698   7.234   4.589   2.495 -0.3677 -0.3589 -0.1856
  495MOL0     C66699   7.371   4.561   2.493 -0.1163  0.4793 -0.0833
  495MOL0     C66700   7.390   4.415   2.452  0.4816  0.3757 -0.9321
  495MOL0     C66701   7.537   4.363   2.432 -0.1144  0.4838 -0.2642
  495MOL0     C66702   7.615   4.385   2.552 -0.5879 -0.1426 -1.0800
  495MOL0     C66703   7.772   4.373   2.540 -0.2696  0.3112  0.0194
  495MOL0     C66704   7.842   4.381   2.678 -0.3587  0.2252  0.2269
  495MOL0     C66705   7.994   4.341   2.657  0.3175  1.0499  0.7438
  495MOL0     C66706   8.061   4.294   2.789 -0.2169  0.3442 -1.4075
  495MOL0     N66707   8.200   4.243   2.772  0.3414 -0.7400  0.5486
  495MOL0     C66708   8.232   4.138   2.689 -0.0446 -0.3971  0.0349
  495MOL0     C66709   8.365   4.118   2.701  0.6011  0.8184  1.5584
  495MOL0     C66710   8.443   4.003   2.624 -0.4156 -0.0228 -0.8016
  495MOL0     C66711   8.432   3.866   2.702  0.6092  0.0117 -0.4627
  495MOL0     C66712   8.439   3.873   2.856  0.7036  0.0499  0.1642
  495MOL0     C66713   8.580   3.873   2.917  0.8072 -1.1127  0.2171
  495MOL0     O66714   8.626   4.013   2.896 -0.1318 -0.9044 -0.3324
  495MOL0     C66715   8.755   4.033   2.928 -0.2446  0.8187  0.4184
  495MOL0     C66716   8.836   3.944   3.009 -0.2442 -0.5079 -0.2796
  495MOL0     C66717   8.978   3.959   3.018  0.2062 -0.0976 -0.1647
  495MOL0     C66718   9.043   4.062   2.944 -0.0149  0.2790  0.5166
  495MOL0     C66719   9.194   4.082   2.931  0.7278 -1.2232  0.0945
  495MOL0     O66720   9.249   4.150   2.821 -0.2365 -0.0053 -0.2192
  495MOL0     C66721   9.385   4.153   2.817 -0.0004  0.2647 -0.1588
  495MOL0     C66722   9.476   4.173   2.918  0.0978 -0.4553  0.0050
  495MOL0     C66723   9.612   4.167   2.902 -0.1973  0.2502  0.1928
  495MOL0     C66724   9.662   4.142   2.777 -0.5709  0.7482 -0.1939
  495MOL0     O66725   9.795   4.139   2.772  0.2819 -0.8265  0.0961
  495MOL0     C66726   9.852   4.067   2.665 -0.2776  1.0129  0.0464
  495MOL0     C66727   9.820   3.921   2.690 -0.3668 -1.3772  0.3812
  495MOL0     C66728   9.852   3.830   2.576 -0.5918 -0.0832  0.0449
  495MOL0     C66729  10.012   3.827   2.539 -0.3610  0.7930 -0.2608
  495MOL0     C66730  10.037   3.735   2.424 -0.1867  0.0658  0.4508
  495MOL0     C66731  10.192   3.710   2.399  1.1141  0.3876  0.1277
  495MOL0     C66732  10.287   3.830   2.370  0.3435 -0.0655  1.0453
  495MOL0     C66733  10.430   3.777   2.383 -0.0405  0.5029  0.2413
  495MOL0    Cl66734  10.481   3.777   2.559 -0.2079 -0.2570 -0.1949
  495MOL0     C66735   9.575   4.124   2.664  0.1229 -1.0444 -0.7463
  495MOL0     C66736   9.435   4.132   2.687  0.2246  0.8996  0.2892
  495MOL0     O66737   9.254   4.062   3.033 -0.5451  0.0250 -0.1440
  495MOL0     C66738   8.964   4.164   2.881 -0.1823  0.3698 -0.3966
  495MOL0     C66739   8.818   4.142   2.879 -0.8561  0.1237  0.4343
  495MOL0     N66740   8.416   4.204   2.804  0.5852  0.4237  0.1185
  495MOL0     N66741   8.318   4.286   2.838  0.5806  0.6741  0.2976
  495MOL0     C66742   7.049   4.727   2.509  0.0245 -0.3863  0.0095
  495MOL0     C66743   6.979   4.849   2.547 -0.0724  0.7851 -0.0119
  495MOL0     C66744   6.799   5.215   2.627  0.2403  1.6103 -0.1776
  495MOL0     C66745   6.709   5.271   2.527 -1.0940  0.7270 -0.1399
  495MOL0     C66746   6.584   5.326   2.551  0.4898 -0.1079  0.0979
  495MOL0     C66747   6.545   5.328   2.683  0.1792  0.3098 -1.0437
  495MOL0     O66748   6.423   5.386   2.699  0.3744 -0.0570 -0.0617
  495MOL0     C66749   6.335   5.300   2.780 -0.2088  0.0745  0.1502
  495MOL0     C66750   6.199   5.366   2.803  0.2648  0.1797 -0.1087
  495MOL0     C66751   6.118   5.396   2.672  0.2589  0.3844  0.3458
  495MOL0     C66752   6.141   5.548   2.621  0.1989 -0.0114  0.3044
  495MOL0     C66753   6.029   5.584   2.537  0.4352 -0.1195  0.6219
  495MOL0     C66754   5.939   5.628   2.465  0.2828 -0.7732 -0.0766
  495MOL0     C66755   6.634   5.279   2.791  0.3793 -0.0304  0.8057
  495MOL0     C66756   6.759   5.217   2.759  0.9631 -0.2742 -0.2399
  495MOL0     C66757   6.837   5.176   2.879 -0.4335  0.6922 -0.5099
  495MOL0     H66758   7.231   5.003   2.709 -0.5094  0.1731  0.5486
  495MOL0     H66759   7.343   4.787   2.658 -0.3709  1.5403  1.4947
  495MOL0     H66760   7.420   4.619   2.414 -2.4475 -0.8130 -2.6382
  495MOL0     H66761   7.421   4.575   2.589 -0.3711  0.2262  0.0879
  495MOL0     H66762   7.333   4.387   2.363 -2.9092 -1.6385  1.6345
  495MOL0     H66763   7.338   4.364   2.534 -0.7672  0.8380 -1.4063
  495MOL0     H66764   7.585   4.412   2.347 -0.0134  0.6746 -0.0982
  495MOL0     H66765   7.523   4.257   2.411 -1.5361  0.2666  1.5460
  495MOL0     H66766   7.603   4.484   2.597 -3.1004 -0.4219 -0.9745
  495MOL0     H66767   7.575   4.316   2.626 -0.4290  1.8535  0.9957
  495MOL0     H66768   7.795   4.279   2.490  1.1511  1.1304 -0.9409
  495MOL0     H66769   7.820   4.450   2.478  1.1480 -0.3099  0.3120
  495MOL0     H66770   7.838   4.481   2.721  1.0870 -1.3756  4.6063
  495MOL0     H66771   7.793   4.317   2.751  0.5043 -1.0281 -0.2427
  495MOL0     H66772   8.043   4.431   2.620 -0.4350  0.0036 -3.2591
  495MOL0     H66773   8.008   4.261   2.584  2.2378  3.1863 -1.4116
  495MOL0     H66774   8.065   4.370   2.866  1.7898  0.0139 -1.1445
  495MOL0     H66775   8.005   4.204   2.816  1.7239 -0.2810  0.8184
  495MOL0     H66776   8.161   4.082   2.630 -1.1804 -0.2208  1.1833
  495MOL0     H66777   8.406   3.996   2.522 -0.1981 -0.4059 -0.8553
  495MOL0     H66778   8.546   4.035   2.608 -0.4503  1.3077  1.2366
  495MOL0     H66779   8.336   3.823   2.673  1.3139 -1.7788 -0.2792
  495MOL0     H66780   8.507   3.798   2.662  0.4201 -0.5862  0.1901
  495MOL0     H66781   8.391   3.782   2.894 -1.2763  0.7417 -0.5439
  495MOL0     H66782   8.382   3.962   2.885  2.7478  2.2666 -2.2295
  495MOL0     H66783   8.647   3.798   2.874  0.2303 -1.2260 -0.5169
  495MOL0     H66784   8.570   3.846   3.023  2.8189 -0.5486  0.5944
  495MOL0     H66785   8.794   3.875   3.081  2.2490  0.1653  1.9855
  495MOL0     H66786   9.038   3.889   3.075  1.3232 -1.0427 -2.4028
  495MOL0     H66787   9.433   4.212   3.009  1.2018 -0.2764  0.4683
  495MOL0     H66788   9.675   4.185   2.988  2.2872 -0.9435 -1.2514
  495MOL0     H66789   9.822   4.092   2.563  4.3548  0.3582 -1.7327
  495MOL0     H66790   9.960   4.087   2.674 -0.3026  0.5248  1.8025
  495MOL0     H66791   9.873   3.885   2.779  1.9531 -1.3653 -0.9104
  495MOL0     H66792   9.712   3.906   2.700 -1.7592  4.8217 -1.1143
  495MOL0     H66793   9.829   3.728   2.611 -0.8479 -0.2798 -0.6793
  495MOL0     H66794   9.789   3.861   2.493  1.2761  2.0141 -0.6793
  495MOL0     H66795  10.067   3.802   2.630 -0.6879  2.4834  0.4497
  495MOL0     H66796  10.048   3.928   2.518  1.1955 -0.0323 -1.8416
  495MOL0     H66797   9.987   3.780   2.338 -2.6447  0.8624  2.1877
  495MOL0     H66798   9.995   3.639   2.457  0.5954  0.1321  1.6970
  495MOL0     H66799  10.231   3.660   2.489 -1.9191  1.0010  1.9221
  495MOL0     H66800  10.207   3.648   2.310 -1.5414 -0.5210  0.2331
  495MOL0     H66801  10.274   3.915   2.438 -0.3063  1.5050 -0.9482
  495MOL0     H66802  10.267   3.868   2.270  1.4488 -0.1666  0.7812
  495MOL0     H66803  10.427   3.675   2.344  3.6445  1.0001 -1.8759
  495MOL0     H66804  10.500   3.833   2.319 -0.1928 -0.4358 -0.7724
  495MOL0     H66805   9.602   4.111   2.560 -1.7886 -2.0297 -1.1575
  495MOL0     H66806   9.367   4.119   2.604  1.8250  0.5724 -1.0230
  495MOL0     H66807   9.024   4.249   2.849  0.0922  1.6007  2.9573
  495MOL0     H66808   8.745   4.214   2.842 -0.9116  1.2001  2.5054
  495MOL0     H66809   6.994   4.658   2.444 -1.3231  1.8875 -1.4064
  495MOL0     H66810   6.877   4.841   2.509  0.3005 -0.9204 -0.7561
  495MOL0     H66811   6.737   5.280   2.422  2.0488 -1.6467  0.3436
  495MOL0     H66812   6.526   5.355   2.464  2.2983 -1.2142 -1.5621
  495MOL0     H66813   6.372   5.285   2.882 -1.6894  1.7959  0.9934
  495MOL0     H66814   6.327   5.205   2.726  0.8333  0.5894 -0.9573
  495MOL0     H66815   6.204   5.459   2.860 -0.5897 -0.3290  0.8354
  495MOL0     H66816   6.139   5.298   2.865 -1.6752 -0.1510 -2.2159
  495MOL0     H66817   6.014   5.365   2.687  0.1472  0.7646  0.3693
  495MOL0     H66818   6.149   5.333   2.587 -3.8754  0.2040 -1.2636
  495MOL0     H66819   6.152   5.623   2.700  1.1749  0.1432  0.0308
  495MOL0     H66820   6.230   5.557   2.558  0.4606 -0.0242  0.6689
  495MOL0     H66821   5.846   5.649   2.416 -0.1524 -1.9870  0.1816
  495MOL0     H66822   6.608   5.267   2.896  1.5385 -2.6949  0.8721
  495MOL0     H66823   6.874   5.073   2.875 -1.6499  0.2807 -1.6932
  495MOL0     H66824   6.930   5.234   2.884  0.7728 -1.1160 -1.0893
  495MOL0     H66825   6.778   5.182   2.971 -2.5992 -1.9962 -1.5751
  496MOL0     O66826   0.784   9.751   7.914 -0.3176  0.0083  0.6221
  496MOL0     C66827   0.868   9.668   7.879 -0.3307 -0.3543 -0.8492
  496MOL0     O66828   0.957   9.609   7.970  0.2978  0.3760  0.2175
  496MOL0     C66829   0.937   9.579   8.104  0.0980  0.4053 -0.7376
  496MOL0     C66830   1.052   9.573   8.190  0.1742 -1.1299  0.3158
  496MOL0     C66831   1.043   9.554   8.335  0.5674  1.0995  0.3590
  496MOL0     C66832   0.910   9.524   8.381 -0.4620  0.5982  0.1815
  496MOL0     O66833   0.900   9.478   8.509  0.0148  0.3510  0.7472
  496MOL0     C66834   0.795   9.552   8.587 -0.4215  0.2054 -0.1130
  496MOL0     C66835   0.862   9.620   8.706  0.4980  0.1930 -0.1187
  496MOL0     C66836   0.946   9.745   8.666 -0.1100 -0.4814 -0.0741
  496MOL0     C66837   0.993   9.820   8.788  0.4385 -0.0793  0.4680
  496MOL0     C66838   1.087   9.932   8.744 -0.2208  0.3727 -1.1994
  496MOL0     C66839   1.168   9.981   8.866 -0.4964 -1.3405 -0.1691
  496MOL0     C66840   1.074  10.032   8.980  0.0671 -0.0967  1.4036
  496MOL0     C66841   1.149  10.067   9.104  0.4492  0.3001  0.4395
  496MOL0     N66842   1.159   9.946   9.191  0.1261 -0.2059  0.4485
  496MOL0     C66843   1.143   9.931   9.327 -1.0517 -0.1199 -0.0832
  496MOL0     C66844   1.213   9.824   9.361 -0.2804 -0.4665 -0.3472
  496MOL0     C66845   1.220   9.779   9.503 -0.0447 -0.5100 -1.2928
  496MOL0     C66846   1.155   9.649   9.535  0.6097  0.2594 -0.5623
  496MOL0     C66847   1.219   9.529   9.471 -0.4120  0.4596  0.6139
  496MOL0     C66848   1.144   9.391   9.480 -0.0926  0.6877 -0.1485
  496MOL0     O66849   1.186   9.295   9.382 -0.5674  0.8184  0.2337
  496MOL0     C66850   1.307   9.229   9.401  0.3710  0.2117  0.3887
  496MOL0     C66851   1.374   9.210   9.521 -0.6080  0.6037 -0.1748
  496MOL0     C66852   1.500   9.151   9.535  0.3130  0.0170  0.1629
  496MOL0     C66853   1.562   9.104   9.423  0.5481  0.7851  0.2812
  496MOL0     C66854   1.704   9.036   9.437  0.9759  0.0235 -0.3489
  496MOL0     O66855   1.741   8.999   9.560  0.6446 -0.2191 -0.3043
  496MOL0     C66856   1.860   8.937   9.569  0.8382 -0.4250  0.1899
  496MOL0     C66857   1.968   9.015   9.616  0.3825 -0.0320 -0.3610
  496MOL0     C66858   2.097   8.962   9.642 -0.5365  0.3687  0.6555
  496MOL0     C66859   2.119   8.820   9.619  0.3845 -0.7735  0.3011
  496MOL0     O66860   2.239   8.759   9.639  0.0253  0.0216  0.3500
  496MOL0     C66861   2.324   8.829   9.724  0.3209 -0.2907 -0.4756
  496MOL0     C66862   2.434   8.737   9.793  0.3941 -0.5507 -0.1319
  496MOL0     C66863   2.544   8.813   9.869  1.7180 -0.2075 -0.3473
  496MOL0     C66864   2.673   8.733   9.894 -0.8009  0.0258  0.0356
  496MOL0     C66865   2.778   8.830   9.934 -0.5247 -0.1493 -0.2156
  496MOL0     C66866   2.916   8.757   9.959  0.5576 -0.4218  0.1130
  496MOL0     C66867   3.023   8.834  10.033  0.4197  0.8564  0.3133
  496MOL0     C66868   3.005   8.821  10.187  0.3392  0.2372  0.1909
  496MOL0    Cl66869   3.137   8.903  10.281  0.4401 -0.0359 -0.2262
  496MOL0     C66870   2.004   8.746   9.582 -0.9729  0.7922 -0.9472
  496MOL0     C66871   1.881   8.801   9.550 -0.6298  0.1277 -0.7123
  496MOL0     O66872   1.760   8.994   9.337  0.1138  0.2834 -0.6553
  496MOL0     C66873   1.493   9.113   9.297  0.5092  0.9331  0.3906
  496MOL0     C66874   1.369   9.180   9.293  0.0753  0.6156  0.0907
  496MOL0     N66875   1.286   9.785   9.254  0.0809 -0.1880 -0.2138
  496MOL0     N66876   1.262   9.864   9.156 -0.1669  0.1997 -0.5466
  496MOL0     C66877   0.803   9.524   8.294  0.0846 -0.0508  0.7668
  496MOL0     C66878   0.809   9.569   8.165  0.5134  0.1919  0.1089
  496MOL0     C66879   0.914   9.648   7.734  1.2263 -0.0405 -0.3603
  496MOL0     C66880   0.944   9.520   7.697  0.2855  0.0586  0.3949
  496MOL0     C66881   0.992   9.495   7.567  0.0439 -0.0658 -0.8111
  496MOL0     C66882   0.995   9.587   7.472  0.2778 -0.1931 -0.2398
  496MOL0     O66883   1.054   9.565   7.353  0.3053 -0.0289  0.6105
  496MOL0     C66884   1.190   9.519   7.349 -0.7216 -0.0200  0.1694
  496MOL0     C66885   1.194   9.396   7.253  0.3190 -0.0291 -0.0660
  496MOL0     C66886   1.178   9.433   7.105  0.4671 -0.0267  0.3928
  496MOL0     C66887   1.024   9.460   7.066 -0.1971  0.3949 -0.3912
  496MOL0     C66888   1.015   9.491   6.922  0.2801 -0.5775 -0.2408
  496MOL0     C66889   1.017   9.516   6.806  0.1471 -0.4275 -0.1476
  496MOL0     C66890   0.947   9.718   7.497 -0.4392 -0.8451 -0.9160
  496MOL0     C66891   0.901   9.740   7.633  0.5061  0.2638  0.2439
  496MOL0     C66892   0.845   9.880   7.651 -0.3398 -0.2196  0.9165
  496MOL0     H66893   1.149   9.595   8.146 -0.7229  1.9372 -0.4146
  496MOL0     H66894   1.133   9.540   8.394 -0.0176 -0.8789  0.8590
  496MOL0     H66895   0.732   9.625   8.535 -1.0462  2.1412  3.0883
  496MOL0     H66896   0.714   9.488   8.625 -0.9004  1.2250  0.6369
  496MOL0     H66897   0.933   9.553   8.755  1.3023  0.3992 -0.9866
  496MOL0     H66898   0.787   9.646   8.781  3.0714  1.5897  2.1614
  496MOL0     H66899   0.885   9.812   8.605 -0.7845 -2.3661 -1.5508
  496MOL0     H66900   1.027   9.699   8.609  1.1852  0.5643  0.8327
  496MOL0     H66901   0.912   9.851   8.855  0.3915 -1.7363  1.2266
  496MOL0     H66902   1.055   9.759   8.855 -0.1712 -0.6442  0.5223
  496MOL0     H66903   1.149   9.900   8.659  2.0380  0.4989  0.3328
  496MOL0     H66904   1.022  10.016   8.718  0.4561  0.6161 -2.1855
  496MOL0     H66905   1.240   9.911   8.909  1.9262  0.9786 -0.1861
  496MOL0     H66906   1.230  10.065   8.834 -2.0586 -0.3019 -0.6008
  496MOL0     H66907   0.999   9.959   9.011 -1.3700  1.6013  2.1034
  496MOL0     H66908   1.019  10.121   8.948  0.4322  0.2061  1.6051
  496MOL0     H66909   1.247  10.103   9.070  0.7606  1.3904  2.3521
  496MOL0     H66910   1.096  10.145   9.160 -1.1526  0.0597 -0.6639
  496MOL0     H66911   1.086  10.003   9.385 -1.5720  2.3356 -3.3623
  496MOL0     H66912   1.326   9.766   9.527 -0.3755 -0.8805  0.0578
  496MOL0     H66913   1.176   9.850   9.574  0.4275  0.1851 -1.6800
  496MOL0     H66914   1.181   9.637   9.640  0.9602 -2.4040 -0.8739
  496MOL0     H66915   1.047   9.665   9.537  0.4740 -0.5200  2.4938
  496MOL0     H66916   1.317   9.513   9.518 -1.0144 -0.1811  1.6989
  496MOL0     H66917   1.220   9.547   9.363  2.2465 -2.7415 -0.0710
  496MOL0     H66918   1.038   9.411   9.466 -0.4977 -1.9023 -1.3207
  496MOL0     H66919   1.137   9.357   9.584 -1.4006  3.0467  0.6242
  496MOL0     H66920   1.329   9.244   9.614 -1.7434 -0.1893 -0.4031
  496MOL0     H66921   1.553   9.140   9.629  0.8488 -1.9653 -0.3337
  496MOL0     H66922   1.955   9.116   9.654  0.8895  0.0460 -0.3889
  496MOL0     H66923   2.174   9.030   9.677  0.2458 -0.0352 -0.2218
  496MOL0     H66924   2.374   8.903   9.661 -1.1116  0.3422 -0.9300
  496MOL0     H66925   2.274   8.877   9.809  2.4628 -1.1517  1.3799
  496MOL0     H66926   2.388   8.679   9.873  1.2837  1.6846  2.1388
  496MOL0     H66927   2.474   8.675   9.712  2.5430 -1.1547  1.3344
  496MOL0     H66928   2.563   8.904   9.811  0.2904  1.0514  1.0443
  496MOL0     H66929   2.517   8.848   9.969  4.6186  1.5414 -0.0744
  496MOL0     H66930   2.707   8.670   9.811 -0.7790 -1.4426  1.1157
  496MOL0     H66931   2.642   8.668   9.976 -0.9329 -2.1582 -1.6509
  496MOL0     H66932   2.743   8.878  10.026  0.4182 -0.6707  0.4348
  496MOL0     H66933   2.796   8.916   9.868  4.5434 -0.3421  0.4619
  496MOL0     H66934   2.912   8.665  10.018  0.5315 -0.5886 -0.1483
  496MOL0     H66935   2.962   8.728   9.864 -2.1668  2.0161 -2.1668
  496MOL0     H66936   3.024   8.941  10.010 -4.3340  0.7524 -1.3651
  496MOL0     H66937   3.124   8.794  10.016  0.1680  0.4484 -0.2494
  496MOL0     H66938   2.903   8.851  10.214  0.2138 -0.8300  0.9425
  496MOL0     H66939   3.022   8.721  10.228  1.0040  0.8158  1.3744
  496MOL0     H66940   2.012   8.639   9.562 -3.2817  0.0651  1.4556
  496MOL0     H66941   1.801   8.735   9.517 -0.7284 -0.6989  1.0286
  496MOL0     H66942   1.536   9.057   9.215  0.6323 -0.5196  1.4163
  496MOL0     H66943   1.302   9.177   9.207 -1.6246 -0.2199  1.3767
  496MOL0     H66944   0.707   9.491   8.332  0.0675 -0.4314  0.3974
  496MOL0     H66945   0.717   9.585   8.109 -0.1633  0.4163  1.2436
  496MOL0     H66946   0.951   9.444   7.774 -0.5307  0.3023  0.7141
  496MOL0     H66947   1.023   9.394   7.544 -1.4949  0.0775 -4.0880
  496MOL0     H66948   1.232   9.493   7.447 -0.8935 -2.5578 -0.3481
  496MOL0     H66949   1.257   9.596   7.311 -1.7645  1.6452  1.5475
  496MOL0     H66950   1.127   9.320   7.293 -1.4922  1.5705  0.0745
  496MOL0     H66951   1.296   9.355   7.255  0.1511 -0.4259  1.0552
  496MOL0     H66952   1.212   9.350   7.043 -1.9083  0.1711 -1.3292
  496MOL0     H66953   1.242   9.520   7.087  0.0260  0.1876 -0.1904
  496MOL0     H66954   0.971   9.370   7.099  2.8000 -0.2221  3.5348
  496MOL0     H66955   0.995   9.544   7.129  2.1749 -0.2925  1.8136
  496MOL0     H66956   1.014   9.537   6.701 -1.5562 -0.4295 -0.1270
  496MOL0     H66957   0.953   9.793   7.418  0.1602  2.2391  1.8362
  496MOL0     H66958   0.905   9.942   7.719 -1.9298  2.9891 -0.4158
  496MOL0     H66959   0.841   9.932   7.555  1.8519 -0.0294  0.8804
  496MOL0     H66960   0.741   9.884   7.685 -0.7144 -3.3972  0.4338
  497MOL0     O66961   5.834   9.788   0.800 -0.1914 -0.7026 -0.0250
  497MOL0     C66962   5.810   9.861   0.898  0.4858 -0.2706  0.2298
  497MOL0     O66963   5.707   9.952   0.905  0.5020 -0.6279 -0.0108
  497MOL0     C66964   5.638   9.988   0.790 -0.0670  0.3679  0.4443
  497MOL0     C66965   5.590   9.897   0.691  0.4654  0.2378  1.0599
  497MOL0     C66966   5.519   9.948   0.584  0.2100 -0.1242  0.2732
  497MOL0     C66967   5.507  10.080   0.562 -0.3905 -0.3270  0.2260
  497MOL0     O66968   5.429  10.132   0.458 -0.2135 -0.4573  0.3477
  497MOL0     C66969   5.379  10.260   0.464  0.5164 -1.3615 -0.5881
  497MOL0     C66970   5.299  10.298   0.341 -0.6330 -0.4061 -0.2729
  497MOL0     C66971   5.220  10.427   0.362 -0.1231  0.7522 -0.0515
  497MOL0     C66972   5.131  10.452   0.237 -0.4893  0.9041 -0.1323
  497MOL0     C66973   5.014  10.546   0.277  0.3990  0.0715 -0.0934
  497MOL0     C66974   4.912  10.566   0.154 -0.1314  0.2734 -1.3824
  497MOL0     C66975   4.779  10.590   0.212  0.2953 -0.4351 -0.1394
  497MOL0     C66976   4.673  10.654   0.117  0.3577  0.1654 -0.5625
  497MOL0     N66977   4.635  10.554   0.020 -0.2439  0.5860 -0.3775
  497MOL0     C66978   4.691  10.538  -0.110 -0.2309 -0.2624  0.5239
  497MOL0     C66979   4.645  10.428  -0.167  0.0962 -0.1504 -0.0476
  497MOL0     C66980   4.663  10.394  -0.311 -0.5117  0.9791  0.4614
  497MOL0     C66981   4.800  10.339  -0.344 -0.0047  0.6261  0.8921
  497MOL0     C66982   4.819  10.298  -0.488  0.4749  0.2312 -0.2061
  497MOL0     C66983   4.950  10.232  -0.531  0.3654 -0.3037  0.1478
  497MOL0     O66984   5.059  10.337  -0.500 -0.5090  0.1346  0.0246
  497MOL0     C66985   5.172  10.321  -0.566  0.7865  0.3525 -0.4288
  497MOL0     C66986   5.200  10.420  -0.673  0.6789  0.9231 -0.1592
  497MOL0     C66987   5.325  10.410  -0.723 -0.5212  0.2350  0.5496
  497MOL0     C66988   5.423  10.317  -0.682 -0.3191 -1.0265  0.8462
  497MOL0     C66989   5.559  10.321  -0.746  0.3915 -0.0540  0.6534
  497MOL0     O66990   5.648  10.254  -0.678 -0.1528 -0.2655  0.8361
  497MOL0     C66991   5.775  10.253  -0.732  0.4296 -0.6530 -1.1800
  497MOL0     C66992   5.879  10.264  -0.646 -0.2207 -0.4956 -0.1504
  497MOL0     C66993   6.011  10.265  -0.691 -0.1673  0.3208  0.7386
  497MOL0     C66994   6.042  10.213  -0.823 -0.8154 -0.2215  0.3729
  497MOL0     O66995   6.169  10.187  -0.871 -0.1028 -0.0301 -0.3583
  497MOL0     C66996   6.230  10.098  -0.786 -0.5690  0.4853 -0.4808
  497MOL0     C66997   6.363  10.047  -0.853 -0.0690  0.3892 -0.7266
  497MOL0     C66998   6.462  10.158  -0.854  0.9253  0.6024 -0.6603
  497MOL0     C66999   6.578  10.133  -0.953  1.2990 -0.3290  0.2825
  497MOL0     C67000   6.698  10.231  -0.940  0.4072  0.6530  0.3939
  497MOL0     C67001   6.815  10.198  -1.033 -0.3498  0.2502 -0.2992
  497MOL0     C67002   6.842  10.050  -1.055  0.4545  0.7829  0.0837
  497MOL0     C67003   6.972  10.026  -1.116  0.1539 -0.1492 -1.0717
  497MOL0    Cl67004   6.993   9.843  -1.110 -0.2079 -0.3111  0.5404
  497MOL0     C67005   5.930  10.195  -0.913 -0.1002 -0.3506  0.4493
  497MOL0     C67006   5.803  10.233  -0.869 -0.2674 -0.4012 -0.3151
  497MOL0     O67007   5.576  10.404  -0.837 -0.0682  0.1319 -0.0200
  497MOL0     C67008   5.392  10.230  -0.583  0.0288  0.2691 -0.6926
  497MOL0     C67009   5.269  10.228  -0.521 -0.4464 -0.1117  0.0458
  497MOL0     N67010   4.570  10.365  -0.067 -0.3059  0.1402  0.0357
  497MOL0     N67011   4.576  10.437   0.044  0.7238 -0.1985 -0.1939
  497MOL0     C67012   5.555  10.172   0.658 -0.7690 -0.0181  0.3043
  497MOL0     C67013   5.615  10.125   0.775 -0.4630 -0.0676  0.2153
  497MOL0     C67014   5.901   9.850   1.008 -0.0818 -1.0445  0.1787
  497MOL0     C67015   5.847   9.906   1.129 -0.5950 -0.0711  0.0244
  497MOL0     C67016   5.924   9.913   1.242 -0.1709 -0.4882  0.2507
  497MOL0     C67017   6.053   9.876   1.244 -0.8056 -0.2443 -0.6538
  497MOL0     O67018   6.129   9.902   1.362  0.2399 -0.5228 -0.7211
  497MOL0     C67019   6.234   9.809   1.387 -0.4966 -0.3472 -0.0135
  497MOL0     C67020   6.308   9.846   1.512 -0.3365  0.5021  0.0843
  497MOL0     C67021   6.387   9.738   1.580 -0.5206  0.4185 -0.8435
  497MOL0     C67022   6.539   9.725   1.541 -0.8443 -0.0500 -0.2111
  497MOL0     C67023   6.550   9.667   1.411  0.5820 -0.0562  1.2701
  497MOL0     C67024   6.539   9.608   1.305 -0.3744 -0.2174 -0.3503
  497MOL0     C67025   6.110   9.817   1.125  0.1221  0.4585 -0.4790
  497MOL0     C67026   6.035   9.810   1.008 -0.6797  0.3915  0.5585
  497MOL0     C67027   6.104   9.767   0.881  0.0583 -0.5977  0.0986
  497MOL0     H67028   5.620   9.793   0.691 -3.2115 -1.1178 -2.9507
  497MOL0     H67029   5.486   9.885   0.502  2.4301  2.4302 -2.8279
  497MOL0     H67030   5.325  10.275   0.558  2.6831 -3.4538  1.1018
  497MOL0     H67031   5.456  10.337   0.471 -2.4761  1.9266 -0.4457
  497MOL0     H67032   5.232  10.212   0.325 -1.8910  0.2725  1.0715
  497MOL0     H67033   5.368  10.316   0.259 -1.0428  0.5950 -0.4090
  497MOL0     H67034   5.294  10.507   0.358 -1.3558  1.8880 -2.1442
  497MOL0     H67035   5.159  10.423   0.453  1.5995 -0.2879  1.1037
  497MOL0     H67036   5.190  10.504   0.160 -0.1727  0.9088  0.1131
  497MOL0     H67037   5.105  10.356   0.190  3.6600  1.3044 -3.9844
  497MOL0     H67038   4.954  10.502   0.357 -1.3042  1.1249 -0.7293
  497MOL0     H67039   5.068  10.635   0.311  1.5074 -0.5633 -0.1513
  497MOL0     H67040   4.943  10.646   0.087 -0.3223 -0.2406 -2.0929
  497MOL0     H67041   4.908  10.473   0.097  0.8840 -0.3003 -0.5475
  497MOL0     H67042   4.793  10.652   0.301  0.8418 -1.4515  0.5024
  497MOL0     H67043   4.741  10.491   0.240  1.1058 -0.2235  1.8277
  497MOL0     H67044   4.585  10.681   0.176  1.4578  1.2516  0.6593
  497MOL0     H67045   4.703  10.745   0.064 -0.0722  1.6773  1.6809
  497MOL0     H67046   4.754  10.600  -0.172 -1.3392 -1.1231 -1.5650
  497MOL0     H67047   4.596  10.311  -0.336  0.5401 -0.2234  1.4795
  497MOL0     H67048   4.649  10.487  -0.365  0.9566  1.6587  1.1905
  497MOL0     H67049   4.870  10.419  -0.320 -0.0765  0.5850  1.2620
  497MOL0     H67050   4.821  10.253  -0.279 -1.1277 -0.3800 -0.0258
  497MOL0     H67051   4.797  10.387  -0.547 -0.6583  0.2899  0.2734
  497MOL0     H67052   4.749  10.219  -0.519  1.3828 -0.6159 -0.1725
  497MOL0     H67053   4.964  10.223  -0.639  1.7280  1.2409  0.1461
  497MOL0     H67054   4.959  10.138  -0.476  2.0775  1.2556  2.7804
  497MOL0     H67055   5.124  10.489  -0.705 -2.3112 -1.9392  0.1919
  497MOL0     H67056   5.353  10.485  -0.796  0.9853 -1.0212 -0.2275
  497MOL0     H67057   5.857  10.289  -0.543  1.6791 -0.2026  0.2296
  497MOL0     H67058   6.090  10.285  -0.619 -1.1234  0.2373  1.8492
  497MOL0     H67059   6.248  10.146  -0.689  1.1293 -1.2556  0.1312
  497MOL0     H67060   6.159  10.017  -0.767  0.4860 -0.8895 -2.0668
  497MOL0     H67061   6.411   9.968  -0.796 -0.7735  0.0216 -0.6355
  497MOL0     H67062   6.330  10.012  -0.951 -2.3198  1.2203 -0.3247
  497MOL0     H67063   6.421  10.258  -0.870 -0.6956  0.5342  2.2881
  497MOL0     H67064   6.510  10.172  -0.756  0.5699 -0.4277 -0.3334
  497MOL0     H67065   6.533  10.139  -1.052  2.0289 -1.2377 -0.1177
  497MOL0     H67066   6.619  10.032  -0.942 -0.0327 -1.4331 -3.4871
  497MOL0     H67067   6.730  10.220  -0.837  0.5263  0.9481  0.3892
  497MOL0     H67068   6.664  10.334  -0.952  2.1752  1.8953  4.3742
  497MOL0     H67069   6.793  10.257  -1.123 -1.8593 -0.3579 -0.3635
  497MOL0     H67070   6.908  10.240  -0.992 -1.1032  0.2731  1.4583
  497MOL0     H67071   6.764  10.008  -1.118  0.1824 -0.0711  0.9665
  497MOL0     H67072   6.833   9.996  -0.960  1.8630 -0.7276 -0.6088
  497MOL0     H67073   6.986  10.064  -1.218 -1.3321  1.5309 -0.6985
  497MOL0     H67074   7.039  10.091  -1.059 -3.1495  3.5157 -0.9191
  497MOL0     H67075   5.952  10.167  -1.016  1.9449 -1.1682  1.0468
  497MOL0     H67076   5.720  10.225  -0.939  0.9485  1.3410 -2.0375
  497MOL0     H67077   5.456  10.152  -0.541 -1.7276 -0.9133 -0.0761
  497MOL0     H67078   5.245  10.150  -0.448 -2.0320  0.5655  0.2799
  497MOL0     H67079   5.547  10.280   0.648 -2.6267 -0.1683 -0.1491
  497MOL0     H67080   5.641  10.186   0.860 -1.7497 -0.6212  1.0302
  497MOL0     H67081   5.745   9.941   1.140 -0.8426 -0.6094 -0.4940
  497MOL0     H67082   5.900   9.973   1.329  1.9248  0.3162  0.3409
  497MOL0     H67083   6.316   9.812   1.314  3.6535  1.2152  4.2382
  497MOL0     H67084   6.190   9.711   1.403  1.2429 -1.8737 -3.4060
  497MOL0     H67085   6.235   9.879   1.587  1.5096 -0.5520  2.4930
  497MOL0     H67086   6.360   9.939   1.488 -3.1929  2.1381 -0.3583
  497MOL0     H67087   6.337   9.640   1.574 -1.2748  0.7543 -0.2187
  497MOL0     H67088   6.383   9.766   1.686  0.1063 -1.1797 -0.3626
  497MOL0     H67089   6.595   9.819   1.539  0.6135 -0.8419  1.1366
  497MOL0     H67090   6.588   9.658   1.612 -1.2320  1.7455  1.8573
  497MOL0     H67091   6.528   9.556   1.211  1.0218  0.8913 -1.1753
  497MOL0     H67092   6.217   9.794   1.122 -0.2720 -1.5173 -1.7324
  497MOL0     H67093   6.058   9.672   0.852  2.0676 -1.6906  0.2977
  497MOL0     H67094   6.079   9.840   0.804  1.3523  0.0966  0.3142
  497MOL0     H67095   6.211   9.749   0.868 -0.4487 -2.0565 -3.0554
  498MOL0     O67096   7.307   5.517   7.596 -0.7367  0.3445  0.4258
  498MOL0     C67097   7.240   5.503   7.698  0.3419 -0.1860  0.3212
  498MOL0     O67098   7.297   5.492   7.816  0.0544  0.1725 -0.3304
  498MOL0     C67099   7.433   5.463   7.814  0.4375  0.2857  0.5901
  498MOL0     C67100   7.526   5.565   7.800 -0.2962  0.6063  0.6281
  498MOL0     C67101   7.658   5.526   7.803  0.0975 -0.4789  0.4373
  498MOL0     C67102   7.712   5.397   7.822  0.1970 -0.1942  0.4032
  498MOL0     O67103   7.844   5.364   7.824 -0.2857  0.7785  0.3483
  498MOL0     C67104   7.938   5.452   7.895 -0.7333 -0.0464 -0.6959
  498MOL0     C67105   8.071   5.459   7.826  0.1605  0.3662 -0.4664
  498MOL0     C67106   8.085   5.596   7.754  0.3020 -0.3041  0.2894
  498MOL0     C67107   8.218   5.623   7.699  0.0847  1.3569  0.4080
  498MOL0     C67108   8.236   5.772   7.650  0.0726  0.9059 -0.2286
  498MOL0     C67109   8.132   5.809   7.541 -0.0144 -0.1276 -0.4753
  498MOL0     C67110   8.167   5.935   7.461  0.1204 -0.6633 -0.0340
  498MOL0     C67111   8.185   5.930   7.306 -0.2839  0.1588 -0.1885
  498MOL0     N67112   8.282   5.821   7.262  0.6549  1.0750 -0.8048
  498MOL0     C67113   8.408   5.811   7.305 -0.7950  0.8217 -0.6779
  498MOL0     C67114   8.463   5.704   7.233  0.2677  0.3605  0.0762
  498MOL0     C67115   8.595   5.642   7.259  0.7442 -0.1687  0.9347
  498MOL0     C67116   8.636   5.564   7.139 -0.1390  1.1787 -0.4953
  498MOL0     C67117   8.770   5.497   7.167 -0.1706  0.0425 -0.4201
  498MOL0     C67118   8.813   5.412   7.045  0.1371 -0.5737  0.8203
  498MOL0     O67119   8.957   5.412   7.028 -0.6076 -0.3403 -0.1779
  498MOL0     C67120   9.013   5.312   6.953  0.4198  0.1606  0.4090
  498MOL0     C67121   9.117   5.346   6.868 -0.2932 -0.4805  0.4059
  498MOL0     C67122   9.178   5.253   6.791 -0.6532  0.5054 -0.0981
  498MOL0     C67123   9.139   5.116   6.792 -0.4143  0.2464  0.4432
  498MOL0     C67124   9.200   5.017   6.693 -1.1381  0.0544 -1.2782
  498MOL0     O67125   9.193   4.886   6.727 -0.5166 -0.2314 -0.3590
  498MOL0     C67126   9.244   4.786   6.649  0.6430 -0.6618  0.0274
  498MOL0     C67127   9.197   4.767   6.529  0.5128 -0.2685 -0.0046
  498MOL0     C67128   9.256   4.676   6.441 -0.6215 -0.6942  0.0287
  498MOL0     C67129   9.366   4.601   6.494 -0.2369  0.7913  1.7018
  498MOL0     O67130   9.433   4.507   6.424 -0.4251 -0.2510  0.4723
  498MOL0     C67131   9.455   4.517   6.283  0.1853  0.3627  0.7239
  498MOL0     C67132   9.593   4.473   6.238 -0.5906  1.0688  1.1537
  498MOL0     C67133   9.651   4.343   6.280  0.8910 -0.3914  0.1687
  498MOL0     C67134   9.783   4.320   6.214  0.5471  0.9830  0.2409
  498MOL0     C67135   9.845   4.199   6.275 -0.1771 -0.2304  0.4121
  498MOL0     C67136   9.982   4.174   6.212 -0.6502  0.5150 -0.5759
  498MOL0     C67137   9.973   4.144   6.059  0.0602 -0.0303  0.1531
  498MOL0     C67138  10.078   4.053   6.000 -0.3231 -0.3565 -0.6589
  498MOL0    Cl67139  10.065   4.060   5.826  0.1332 -0.3123  0.3715
  498MOL0     C67140   9.394   4.607   6.623 -0.7356  0.1419  1.0978
  498MOL0     C67141   9.334   4.696   6.706 -0.0021  0.3943 -0.5734
  498MOL0     O67142   9.271   5.063   6.607 -0.0818 -0.4899  0.0527
  498MOL0     C67143   9.049   5.077   6.895 -0.0494  0.7295  0.2081
  498MOL0     C67144   8.978   5.176   6.964 -0.4852  0.1553 -0.1667
  498MOL0     N67145   8.364   5.669   7.137  0.1526 -0.1315  0.3181
  498MOL0     N67146   8.258   5.737   7.159  0.0054 -0.2092 -1.3689
  498MOL0     C67147   7.609   5.294   7.851 -0.7195  0.0073 -0.4054
  498MOL0     C67148   7.472   5.331   7.840  0.5360  0.4927  0.3327
  498MOL0     C67149   7.094   5.521   7.698 -0.0168  0.7115 -0.5183
  498MOL0     C67150   7.029   5.609   7.606  0.6137  1.1073 -0.7532
  498MOL0     C67151   6.894   5.642   7.627 -0.9602  0.6375  0.8332
  498MOL0     C67152   6.817   5.575   7.721 -0.2021  0.2201 -0.4853
  498MOL0     O67153   6.677   5.584   7.746 -0.4326  0.4041 -0.1624
  498MOL0     C67154   6.605   5.674   7.655 -1.0395  0.2241 -0.3420
  498MOL0     C67155   6.628   5.821   7.692  0.1764  0.3016  0.2853
  498MOL0     C67156   6.553   5.913   7.595  0.3931 -0.1483 -0.1347
  498MOL0     C67157   6.626   5.983   7.476 -0.5935 -0.6951  0.4164
  498MOL0     C67158   6.682   5.887   7.378 -0.8093  0.0717  0.7309
  498MOL0     C67159   6.722   5.814   7.287 -0.7979  0.6631 -0.0146
  498MOL0     C67160   6.872   5.471   7.792 -0.1790 -0.0030 -0.7270
  498MOL0     C67161   7.010   5.441   7.780  0.4374  0.0325 -0.5969
  498MOL0     C67162   7.052   5.326   7.873  0.6344  0.1675  0.5137
  498MOL0     H67163   7.511   5.673   7.798  1.8774  0.9777 -2.0814
  498MOL0     H67164   7.729   5.604   7.776 -2.7136  2.1142 -0.1257
  498MOL0     H67165   7.895   5.550   7.915 -3.1673 -1.2389  0.3550
  498MOL0     H67166   7.959   5.417   7.996  1.8256  1.8546 -0.4863
  498MOL0     H67167   8.080   5.380   7.751  0.6891 -0.4011  0.3848
  498MOL0     H67168   8.155   5.448   7.895 -1.5564  1.8703  2.0301
  498MOL0     H67169   8.065   5.678   7.824 -1.9638 -1.2477  0.8267
  498MOL0     H67170   8.009   5.591   7.675  1.7171 -0.5227 -1.1056
  498MOL0     H67171   8.284   5.608   7.785  0.0018  1.0346  0.4191
  498MOL0     H67172   8.234   5.553   7.616  1.0202  3.0286 -0.8708
  498MOL0     H67173   8.219   5.846   7.729 -1.6980  0.7007 -0.3672
  498MOL0     H67174   8.340   5.774   7.617 -0.6991 -2.5612 -3.5469
  498MOL0     H67175   8.153   5.729   7.469  1.3893  1.8821 -2.4385
  498MOL0     H67176   8.029   5.808   7.578 -0.3213  1.1593 -1.2619
  498MOL0     H67177   8.257   5.970   7.512 -1.3658  0.1769  2.1396
  498MOL0     H67178   8.093   6.013   7.483 -0.1999 -0.6942 -0.9548
  498MOL0     H67179   8.092   5.913   7.252 -0.2055  2.0059 -0.9893
  498MOL0     H67180   8.213   6.033   7.281 -1.1813  0.2535 -0.8626
  498MOL0     H67181   8.461   5.875   7.376 -0.2111 -2.7738  2.4776
  498MOL0     H67182   8.663   5.727   7.270  0.5761  0.3177 -1.3805
  498MOL0     H67183   8.600   5.567   7.340  0.6363 -1.7166 -0.4340
  498MOL0     H67184   8.550   5.497   7.129 -3.8413  5.2677  0.6833
  498MOL0     H67185   8.633   5.632   7.052 -2.8028  2.4227  0.4486
  498MOL0     H67186   8.768   5.426   7.250 -1.1703 -1.7382 -1.8809
  498MOL0     H67187   8.843   5.574   7.193 -0.3033  0.8461 -2.2716
  498MOL0     H67188   8.765   5.463   6.961  1.6290 -1.1107 -0.4287
  498MOL0     H67189   8.765   5.314   7.045 -1.2270  0.0466 -0.6154
  498MOL0     H67190   9.151   5.449   6.866  2.0213 -1.1800 -1.8953
  498MOL0     H67191   9.253   5.295   6.725  0.1125 -0.0773  0.3785
  498MOL0     H67192   9.120   4.832   6.489  2.0206  2.2161  0.8932
  498MOL0     H67193   9.233   4.686   6.335  0.9181 -2.0900 -0.4752
  498MOL0     H67194   9.381   4.455   6.232 -2.1360  2.7816  0.8924
  498MOL0     H67195   9.453   4.623   6.255 -0.4426  0.0962 -0.2990
  498MOL0     H67196   9.590   4.469   6.129 -1.0975 -1.4505  1.2048
  498MOL0     H67197   9.662   4.550   6.275 -0.0734  0.8649  0.6245
  498MOL0     H67198   9.671   4.349   6.387  4.7443  0.0505 -0.4317
  498MOL0     H67199   9.588   4.255   6.269  0.0499  0.0564  1.2265
  498MOL0     H67200   9.847   4.403   6.246  0.6978  1.2459 -0.7078
  498MOL0     H67201   9.778   4.314   6.105  0.9662  1.2282  0.2065
  498MOL0     H67202   9.783   4.113   6.247  2.0043 -0.8566 -3.1226
  498MOL0     H67203   9.846   4.196   6.384  2.3892 -0.6719  0.4302
  498MOL0     H67204  10.043   4.262   6.234 -2.2934  0.9750  2.9651
  498MOL0     H67205  10.020   4.089   6.269  1.2332  1.9466  0.3916
  498MOL0     H67206   9.969   4.240   6.006  0.2738  1.0868  2.0934
  498MOL0     H67207   9.885   4.090   6.022  1.2228 -1.9797  0.0518
  498MOL0     H67208  10.172   4.103   6.023 -0.2808  0.0983 -1.7275
  498MOL0     H67209  10.059   3.954   6.040  1.0937 -0.4791 -0.2608
  498MOL0     H67210   9.458   4.534   6.672 -0.1089 -0.0311  0.0656
  498MOL0     H67211   9.352   4.693   6.813 -3.0825  0.4458  0.0573
  498MOL0     H67212   9.017   4.973   6.898 -0.3583  0.8035 -0.3375
  498MOL0     H67213   8.895   5.150   7.029  0.8034 -2.2599  0.6428
  498MOL0     H67214   7.643   5.198   7.888  2.9452  1.2274 -0.2225
  498MOL0     H67215   7.392   5.257   7.847 -0.5112  0.9043 -4.1576
  498MOL0     H67216   7.090   5.660   7.533  1.8308  1.0420  0.1826
  498MOL0     H67217   6.854   5.718   7.561 -0.9692 -1.2012 -1.3867
  498MOL0     H67218   6.500   5.642   7.661 -1.1721  0.7220  4.2000
  498MOL0     H67219   6.631   5.645   7.553 -0.1413 -0.1486 -0.0232
  498MOL0     H67220   6.735   5.841   7.682  0.6085 -0.8781  2.1227
  498MOL0     H67221   6.596   5.840   7.795  0.4424 -1.0631  0.6348
  498MOL0     H67222   6.511   5.995   7.654  1.4744 -1.1244  2.0912
  498MOL0     H67223   6.472   5.857   7.547  0.3397 -1.3258  1.2711
  498MOL0     H67224   6.558   6.054   7.429  1.1015  1.6262  1.2673
  498MOL0     H67225   6.718   6.033   7.508 -0.3061 -1.6186  1.0866
  498MOL0     H67226   6.743   5.745   7.208 -2.0543  1.0798 -0.7368
  498MOL0     H67227   6.816   5.417   7.868  0.1605 -0.7077 -0.9640
  498MOL0     H67228   7.154   5.291   7.852  0.2272 -1.3406  0.9312
  498MOL0     H67229   7.034   5.356   7.977 -0.8765  0.9095  0.0584
  498MOL0     H67230   6.995   5.238   7.843  2.5794 -0.4958 -1.5397
  499MOL0     O67231   7.960   7.719  11.054  0.3206  0.2636 -0.0047
  499MOL0     C67232   7.891   7.744  10.951 -0.1197 -0.1547  1.1962
  499MOL0     O67233   7.946   7.781  10.830  0.0873  0.3731 -0.1405
  499MOL0     C67234   8.079   7.800  10.816 -0.6374 -0.0097 -0.1131
  499MOL0     C67235   8.152   7.905  10.883  0.4330 -0.1024 -0.0445
  499MOL0     C67236   8.286   7.922  10.864 -0.0188  0.0015  0.2017
  499MOL0     C67237   8.350   7.847  10.765 -0.4114  0.9236 -0.3080
  499MOL0     O67238   8.483   7.854  10.738  0.1394 -0.9513 -0.0626
  499MOL0     C67239   8.559   7.977  10.755 -0.0974 -0.8806  0.5250
  499MOL0     C67240   8.709   7.970  10.709  0.3436  0.1463  0.3433
  499MOL0     C67241   8.717   7.960  10.560  0.2938  0.0781 -0.5725
  499MOL0     C67242   8.860   7.969  10.510  0.0270 -0.5429  0.2515
  499MOL0     C67243   8.856   7.981  10.358 -0.2190  0.4895 -0.1601
  499MOL0     C67244   8.998   7.953  10.292 -0.5688  0.0097 -0.7106
  499MOL0     C67245   9.010   8.001  10.143 -0.0349  0.0864 -0.7444
  499MOL0     C67246   9.109   7.912  10.070 -0.7286  0.6026 -0.1077
  499MOL0     N67247   9.167   7.952   9.936 -0.4773  0.4553 -0.0838
  499MOL0     C67248   9.267   7.882   9.875  0.8431  0.3205 -0.3118
  499MOL0     C67249   9.274   7.942   9.747  0.1415 -0.8825 -1.0144
  499MOL0     C67250   9.336   7.892   9.619 -0.3822  0.1772 -0.0303
  499MOL0     C67251   9.468   7.956   9.594  0.3144 -1.5193  0.3440
  499MOL0     C67252   9.454   8.097   9.550  0.2878 -0.4273  0.6071
  499MOL0     C67253   9.586   8.153   9.513 -0.1421 -0.6789  0.5661
  499MOL0     O67254   9.626   8.100   9.387  0.0381 -0.3821 -0.4929
  499MOL0     C67255   9.756   8.061   9.356 -0.5906 -1.2269  0.0556
  499MOL0     C67256   9.785   7.931   9.345  0.0013  0.2904 -0.1259
  499MOL0     C67257   9.918   7.891   9.342 -0.4505 -0.4817  0.1448
  499MOL0     C67258  10.019   7.989   9.332  0.2298  0.5102  0.5820
  499MOL0     C67259  10.157   7.944   9.305 -0.5507  0.0039 -0.0100
  499MOL0     O67260  10.169   7.806   9.282 -0.0109 -0.1658  0.2947
  499MOL0     C67261  10.284   7.741   9.256 -0.1728 -0.9429 -0.4747
  499MOL0     C67262  10.408   7.781   9.306 -0.3451  0.6521 -1.3127
  499MOL0     C67263  10.521   7.701   9.280 -0.2024  0.1462  0.3536
  499MOL0     C67264  10.506   7.578   9.210 -1.1007  0.5224 -0.1020
  499MOL0     O67265  10.616   7.506   9.178 -0.4221  0.3604  0.0532
  499MOL0     C67266  10.605   7.368   9.145  0.3226  0.0013 -0.0004
  499MOL0     C67267  10.748   7.314   9.174 -0.1088 -0.5921  0.8683
  499MOL0     C67268  10.773   7.298   9.323 -0.2958 -0.6085 -0.2984
  499MOL0     C67269  10.924   7.251   9.342  0.3439 -0.0197  0.1808
  499MOL0     C67270  10.957   7.236   9.497 -0.9475 -0.3004 -0.2319
  499MOL0     C67271  11.110   7.231   9.515 -0.3007  1.5924  0.0868
  499MOL0     C67272  11.153   7.259   9.654  0.5019 -0.6799 -0.3652
  499MOL0     C67273  11.146   7.145   9.767  0.2434 -0.1235 -0.2459
  499MOL0    Cl67274  11.249   7.207   9.897  0.2860  0.3457  0.0349
  499MOL0     C67275  10.382   7.532   9.173 -0.6176 -0.0365  0.0291
  499MOL0     C67276  10.270   7.618   9.191 -0.4638  0.8237  0.7438
  499MOL0     O67277  10.252   8.026   9.316 -0.4111  0.7627 -0.3302
  499MOL0     C67278   9.983   8.125   9.329  0.5194 -0.3889  0.7446
  499MOL0     C67279   9.853   8.159   9.344  0.2356 -0.8925 -0.8226
  499MOL0     N67280   9.195   8.059   9.759 -0.4130  0.1988 -0.5799
  499MOL0     N67281   9.117   8.050   9.858 -0.5694 -0.5866  0.9904
  499MOL0     C67282   8.277   7.754  10.689  0.0994  0.5912 -0.8117
  499MOL0     C67283   8.146   7.726  10.721 -0.6984  0.4171  0.0295
  499MOL0     C67284   7.747   7.731  10.972 -0.4900 -0.2358  0.4005
  499MOL0     C67285   7.708   7.751  11.108  0.4532  0.5708  0.5014
  499MOL0     C67286   7.572   7.768  11.141 -0.1178  0.0634 -0.2774
  499MOL0     C67287   7.474   7.773  11.047  0.2614  0.7900 -0.2248
  499MOL0     O67288   7.352   7.810  11.082  0.9631 -0.0021 -0.3610
  499MOL0     C67289   7.249   7.814  10.978 -0.1878 -0.0878 -0.8297
  499MOL0     C67290   7.191   7.679  10.938 -0.0613  0.1550 -0.1036
  499MOL0     C67291   7.140   7.603  11.051 -0.1833 -0.4843 -0.3160
  499MOL0     C67292   6.996   7.634  11.096  0.5398 -0.0931 -1.1171
  499MOL0     C67293   6.899   7.563  11.019 -0.0265 -1.0600 -0.1411
  499MOL0     C67294   6.815   7.498  10.961 -0.6325  0.5893 -1.3681
  499MOL0     C67295   7.519   7.738  10.918  0.9786 -0.9347  0.4894
  499MOL0     C67296   7.647   7.725  10.868 -0.9290  0.0282 -0.0410
  499MOL0     C67297   7.672   7.698  10.726 -0.7132  0.0597  0.4881
  499MOL0     H67298   8.093   7.974  10.943  0.8125 -0.8501  1.2297
  499MOL0     H67299   8.342   7.993  10.924 -0.9876  2.2233 -1.3634
  499MOL0     H67300   8.497   8.041  10.691 -0.4011  0.5214  2.1397
  499MOL0     H67301   8.559   8.023  10.855  0.1733 -2.5865  1.3401
  499MOL0     H67302   8.748   7.876  10.750 -0.7894 -0.5860 -0.1926
  499MOL0     H67303   8.766   8.055  10.747 -0.0265  0.0644  1.1051
  499MOL0     H67304   8.652   8.037  10.518  0.5201  1.0060  0.7172
  499MOL0     H67305   8.676   7.866  10.523  2.5125 -0.8699 -0.7657
  499MOL0     H67306   8.902   8.057  10.560 -1.9425  1.3846 -1.2431
  499MOL0     H67307   8.922   7.883  10.533  1.7680  0.3198 -0.9308
  499MOL0     H67308   8.789   7.907  10.312 -1.3673  1.9248 -0.8849
  499MOL0     H67309   8.820   8.081  10.334  1.8346  1.3775  0.2573
  499MOL0     H67310   9.078   8.006  10.343 -1.8781  3.4161 -1.8999
  499MOL0     H67311   9.017   7.845  10.298 -1.6334 -0.0925  2.8332
  499MOL0     H67312   9.041   8.106  10.143  1.1724 -0.2454  0.0310
  499MOL0     H67313   8.916   8.000  10.087  1.6841 -1.0062 -3.8667
  499MOL0     H67314   9.193   7.900  10.139  1.3058  0.9914 -2.3693
  499MOL0     H67315   9.068   7.811  10.061  2.1965 -0.7914  0.8963
  499MOL0     H67316   9.312   7.790   9.911 -1.3509 -0.4298  0.7072
  499MOL0     H67317   9.351   7.784   9.613 -3.3306 -0.2415 -1.7127
  499MOL0     H67318   9.264   7.917   9.541 -0.3868 -1.8938 -0.7425
  499MOL0     H67319   9.530   7.963   9.684  0.6783 -1.0339  0.0589
  499MOL0     H67320   9.528   7.913   9.513 -0.2976  0.8341 -1.4887
  499MOL0     H67321   9.416   8.151   9.638 -0.2519  0.1450  0.0304
  499MOL0     H67322   9.399   8.098   9.455  0.3160  3.0839  0.4802
  499MOL0     H67323   9.649   8.133   9.600 -1.0010 -3.3356  0.6795
  499MOL0     H67324   9.579   8.262   9.509 -1.5352 -0.7561  0.4089
  499MOL0     H67325   9.705   7.858   9.349 -1.3488  1.7650  2.5308
  499MOL0     H67326   9.955   7.790   9.339  1.7077  0.2691 -2.1206
  499MOL0     H67327  10.428   7.870   9.365  2.0490 -1.8344  2.0343
  499MOL0     H67328  10.620   7.740   9.300  0.7567 -1.6668 -0.6552
  499MOL0     H67329  10.523   7.317   9.197 -0.6371  0.5254 -0.9567
  499MOL0     H67330  10.569   7.359   9.043 -2.4243  1.7944  0.6892
  499MOL0     H67331  10.762   7.219   9.123  1.4115  2.4940 -5.4033
  499MOL0     H67332  10.816   7.384   9.124 -0.8908 -1.5035 -1.6198
  499MOL0     H67333  10.750   7.393   9.372 -0.5563 -0.6852 -0.2709
  499MOL0     H67334  10.706   7.222   9.364 -0.4298 -0.4358 -0.1961
  499MOL0     H67335  10.988   7.327   9.298 -3.5271  3.9203  0.6508
  499MOL0     H67336  10.946   7.161   9.283  2.7620  1.2868 -1.0654
  499MOL0     H67337  10.898   7.162   9.551  2.8973 -1.6666  2.5469
  499MOL0     H67338  10.924   7.335   9.529  1.5492  1.1092 -1.6607
  499MOL0     H67339  11.140   7.128   9.491  0.3096  1.8020 -0.0683
  499MOL0     H67340  11.157   7.305   9.449  2.3879 -1.3964 -1.6508
  499MOL0     H67341  11.088   7.345   9.677 -0.9078 -1.7030 -0.3623
  499MOL0     H67342  11.255   7.296   9.661 -1.2829  5.0879  3.9684
  499MOL0     H67343  11.043   7.131   9.800 -0.2447 -0.3390 -1.7774
  499MOL0     H67344  11.188   7.049   9.734 -1.3670 -1.1391  0.5880
  499MOL0     H67345  10.349   7.442   9.122 -4.0172  2.0303 -1.8096
  499MOL0     H67346  10.169   7.589   9.164 -0.8964 -1.0029  3.8691
  499MOL0     H67347  10.064   8.195   9.312  1.2937 -1.4208  0.0827
  499MOL0     H67348   9.820   8.262   9.355  2.0116 -0.4433  0.7669
  499MOL0     H67349   8.319   7.694  10.609  1.1289 -0.0528  0.1783
  499MOL0     H67350   8.090   7.652  10.665  0.1754 -0.7354  0.6157
  499MOL0     H67351   7.783   7.741  11.185  0.2842 -3.7003  0.3683
  499MOL0     H67352   7.533   7.803  11.236  1.1598  0.3434  0.1626
  499MOL0     H67353   7.270   7.864  10.883  1.6084  0.8693  0.0361
  499MOL0     H67354   7.159   7.861  11.020  1.1119  0.6767  1.2131
  499MOL0     H67355   7.263   7.624  10.876 -3.2272 -3.0779 -1.1955
  499MOL0     H67356   7.104   7.701  10.876  0.1386  3.1018  0.4966
  499MOL0     H67357   7.205   7.623  11.137 -1.8809 -0.0641  0.9135
  499MOL0     H67358   7.153   7.499  11.019 -2.2931 -0.8663 -0.0358
  499MOL0     H67359   6.982   7.587  11.194  1.1824 -0.0052 -0.9797
  499MOL0     H67360   6.971   7.740  11.104 -0.7551 -0.5075  1.1245
  499MOL0     H67361   6.745   7.428  10.919  0.6510 -1.9342  0.3930
  499MOL0     H67362   7.440   7.759  10.846  1.7082  0.9544  0.2020
  499MOL0     H67363   7.767   7.643  10.719  0.6921  2.3662  0.2807
  499MOL0     H67364   7.597   7.631  10.682 -0.9789  0.1033  0.8755
  499MOL0     H67365   7.684   7.784  10.659 -1.5805  0.6403  1.0603
  500MOL0     O67366   2.006   3.561   3.773 -0.9172  0.8120  0.1329
  500MOL0     C67367   1.930   3.496   3.702  0.0214 -0.1526 -0.2889
  500MOL0     O67368   1.951   3.461   3.567 -0.0666 -0.6513  0.0279
  500MOL0     C67369   2.084   3.467   3.517 -0.6740  0.3471  0.0667
  500MOL0     C67370   2.117   3.543   3.414 -0.1887  0.2235  0.9105
  500MOL0     C67371   2.246   3.557   3.366 -0.4129  0.0144  0.4401
  500MOL0     C67372   2.348   3.494   3.423 -0.4127  0.4493  0.0322
  500MOL0     O67373   2.479   3.517   3.375 -0.3681 -0.1141 -0.0271
  500MOL0     C67374   2.586   3.503   3.474  0.7935  0.1477 -0.0891
  500MOL0     C67375   2.708   3.576   3.408  0.4258  0.5418 -1.1869
  500MOL0     C67376   2.823   3.574   3.519 -1.2394 -0.1183 -0.3232
  500MOL0     C67377   2.818   3.676   3.630  0.9324 -0.5583  0.2860
  500MOL0     C67378   2.909   3.792   3.585  0.3237  0.3683 -0.2969
  500MOL0     C67379   3.051   3.765   3.529  0.5733  0.2838 -0.4292
  500MOL0     C67380   3.139   3.887   3.548 -0.3918  0.6394 -0.0616
  500MOL0     C67381   3.283   3.852   3.504 -0.1604 -0.1419  1.0309
  500MOL0     N67382   3.375   3.970   3.525  0.0428  0.1045  0.7245
  500MOL0     C67383   3.405   4.068   3.437  0.5980  0.3421 -0.5010
  500MOL0     C67384   3.502   4.141   3.482  0.3323  0.7787  0.4544
  500MOL0     C67385   3.551   4.269   3.419 -0.2724 -0.2408  0.7223
  500MOL0     C67386   3.673   4.256   3.324  0.4630  0.0455  0.9793
  500MOL0     C67387   3.744   4.396   3.315 -0.3280 -0.0627  0.9402
  500MOL0     C67388   3.854   4.410   3.206  0.1368 -0.3281 -0.8499
  500MOL0     O67389   3.930   4.536   3.222  0.4806  0.1146  0.9485
  500MOL0     C67390   4.053   4.532   3.277  0.7353 -0.1262 -0.9184
  500MOL0     C67391   4.068   4.586   3.406 -0.1706 -0.7475  0.5406
  500MOL0     C67392   4.194   4.588   3.463  0.4084 -0.8128 -0.2617
  500MOL0     C67393   4.304   4.537   3.396 -0.0220  0.2539 -0.2198
  500MOL0     C67394   4.438   4.522   3.466 -1.1060  0.9471  0.8950
  500MOL0     O67395   4.543   4.454   3.400  0.9531 -0.1821 -0.4642
  500MOL0     C67396   4.664   4.433   3.462  0.2167 -0.4275 -0.1615
  500MOL0     C67397   4.780   4.459   3.391 -0.1597  0.6945  0.3796
  500MOL0     C67398   4.900   4.447   3.452 -0.0995  0.9648 -0.3588
  500MOL0     C67399   4.915   4.388   3.572  0.3835 -0.0952  0.2201
  500MOL0     O67400   5.044   4.369   3.611  0.5312  0.0432 -0.1688
  500MOL0     C67401   5.079   4.468   3.716  0.0087 -0.5237 -0.2292
  500MOL0     C67402   5.224   4.462   3.769 -0.0657  0.1371 -0.2734
  500MOL0     C67403   5.257   4.322   3.833 -0.7085 -1.1804  0.2863
  500MOL0     C67404   5.402   4.309   3.863  0.1616 -1.2706  0.4217
  500MOL0     C67405   5.425   4.174   3.933 -0.2140 -0.0005 -0.5237
  500MOL0     C67406   5.569   4.156   3.980 -0.6682  0.4674  0.2054
  500MOL0     C67407   5.675   4.184   3.871  0.1578  0.9217  0.0841
  500MOL0     C67408   5.806   4.145   3.928 -0.6519  0.5870  0.3414
  500MOL0    Cl67409   5.940   4.179   3.811  0.1028 -0.0345  0.3853
  500MOL0     C67410   4.804   4.354   3.644 -0.3947  0.3561  1.1995
  500MOL0     C67411   4.679   4.384   3.593  0.0119  0.2535 -0.0468
  500MOL0     O67412   4.452   4.570   3.575 -0.5970  0.1906 -0.1280
  500MOL0     C67413   4.283   4.497   3.262 -0.2157  1.0454  0.8140
  500MOL0     C67414   4.159   4.484   3.201  0.1874 -1.2027 -0.2766
  500MOL0     N67415   3.530   4.083   3.604 -0.2412 -0.4788 -0.2463
  500MOL0     N67416   3.446   3.986   3.631 -0.0594 -0.3001 -0.0671
  500MOL0     C67417   2.323   3.405   3.527  1.4691 -1.2121 -0.2040
  500MOL0     C67418   2.190   3.387   3.570  0.7665 -0.3107  0.1918
  500MOL0     C67419   1.789   3.463   3.755  0.7793  1.3076 -0.2487
  500MOL0     C67420   1.685   3.428   3.662 -0.0012  0.5319  0.3280
  500MOL0     C67421   1.556   3.395   3.709 -0.4251  0.4427 -0.7644
  500MOL0     C67422   1.522   3.396   3.848  0.4835  0.0188  0.8224
  500MOL0     O67423   1.401   3.373   3.899 -0.0687  0.4558 -0.2813
  500MOL0     C67424   1.298   3.333   3.806  1.1418 -0.5595  0.3156
  500MOL0     C67425   1.165   3.306   3.880 -0.9442  0.6401 -0.4244
  500MOL0     C67426   1.156   3.159   3.925  0.1236 -0.9752  0.3923
  500MOL0     C67427   1.148   3.056   3.813 -1.0374 -1.2512  0.2731
  500MOL0     C67428   1.026   3.074   3.736  0.5156 -1.4158  0.1076
  500MOL0     C67429   0.930   3.101   3.666  0.0823 -0.0297  0.6780
  500MOL0     C67430   1.629   3.428   3.934  0.8214 -0.4170  0.1829
  500MOL0     C67431   1.759   3.450   3.896 -0.5402 -0.0582 -0.5426
  500MOL0     C67432   1.862   3.462   4.004 -0.2488  0.5820 -0.4143
  500MOL0     H67433   2.038   3.600   3.367  0.4619 -1.3698 -2.3923
  500MOL0     H67434   2.278   3.620   3.283 -1.7503 -0.8872 -0.8140
  500MOL0     H67435   2.551   3.547   3.568  1.1952  1.4336 -0.5217
  500MOL0     H67436   2.600   3.395   3.491 -1.8388 -0.1942  0.2733
  500MOL0     H67437   2.677   3.676   3.375  2.1241  0.3986 -3.4955
  500MOL0     H67438   2.742   3.529   3.315  2.0166 -0.5490 -0.0912
  500MOL0     H67439   2.912   3.587   3.457 -1.8881 -2.7134 -1.9573
  500MOL0     H67440   2.833   3.480   3.572 -1.7768 -1.7185 -2.8743
  500MOL0     H67441   2.719   3.722   3.626  1.5281  0.7947  0.3654
  500MOL0     H67442   2.847   3.643   3.730 -0.5694 -0.7382  0.6929
  500MOL0     H67443   2.854   3.855   3.515  3.0091  0.5036 -2.4538
  500MOL0     H67444   2.921   3.856   3.674 -3.2107 -1.4073  1.6987
  500MOL0     H67445   3.087   3.676   3.582 -0.0232  0.4172  0.2083
  500MOL0     H67446   3.044   3.738   3.423 -1.5170 -0.7105 -0.0849
  500MOL0     H67447   3.136   3.914   3.654 -0.9211  1.6260 -0.3284
  500MOL0     H67448   3.105   3.976   3.495  1.9879  0.1138 -2.7365
  500MOL0     H67449   3.322   3.759   3.546 -2.0535 -2.0298 -1.2122
  500MOL0     H67450   3.279   3.838   3.396  1.1928 -2.7639  1.2364
  500MOL0     H67451   3.342   4.071   3.349 -0.6826  1.8269  0.4083
  500MOL0     H67452   3.475   4.330   3.369 -1.1549 -0.6612  1.5129
  500MOL0     H67453   3.595   4.323   3.503  2.1586  0.6963 -1.0523
  500MOL0     H67454   3.733   4.175   3.365  1.1663  0.9771  1.8549
  500MOL0     H67455   3.629   4.222   3.230  0.2236  3.9739 -0.5158
  500MOL0     H67456   3.789   4.436   3.406  2.1946 -0.0668 -0.2190
  500MOL0     H67457   3.665   4.463   3.281  0.5455 -0.5190 -2.4216
  500MOL0     H67458   3.806   4.421   3.109 -0.5428  1.0419 -0.3827
  500MOL0     H67459   3.923   4.325   3.209 -1.5137 -1.7286 -0.5493
  500MOL0     H67460   3.989   4.633   3.465  0.8171  1.1991  0.4053
  500MOL0     H67461   4.202   4.628   3.563 -1.8298  2.7284 -1.3383
  500MOL0     H67462   4.775   4.489   3.287  3.6839 -1.6853 -0.6990
  500MOL0     H67463   4.991   4.481   3.403  0.3323  0.6201  0.1971
  500MOL0     H67464   5.060   4.568   3.675 -1.3757 -0.4766  0.4551
  500MOL0     H67465   5.007   4.451   3.796 -2.4540 -0.6402 -2.3436
  500MOL0     H67466   5.291   4.478   3.685  1.7283 -0.2312  1.0220
  500MOL0     H67467   5.252   4.538   3.842  0.0178  1.5186 -1.6960
  500MOL0     H67468   5.212   4.321   3.933  0.9226  0.0054  1.0734
  500MOL0     H67469   5.225   4.239   3.770  2.1878 -2.4727  0.3822
  500MOL0     H67470   5.431   4.389   3.932 -1.3938  0.5760 -0.9957
  500MOL0     H67471   5.458   4.323   3.771 -0.1988 -1.9360  0.0977
  500MOL0     H67472   5.412   4.095   3.859 -0.1860  0.7092 -1.3090
  500MOL0     H67473   5.349   4.156   4.010 -1.9164 -3.0793 -2.6979
  500MOL0     H67474   5.588   4.226   4.063  1.1074  0.7311 -0.3922
  500MOL0     H67475   5.581   4.055   4.021 -1.1276  0.5594  0.5881
  500MOL0     H67476   5.669   4.289   3.841  2.4051  0.7994 -0.9953
  500MOL0     H67477   5.640   4.123   3.787 -4.6574 -0.4427  2.6905
  500MOL0     H67478   5.830   4.206   4.015  2.5343 -0.2489  0.1733
  500MOL0     H67479   5.814   4.042   3.963  1.6441  1.3837  2.4334
  500MOL0     H67480   4.823   4.314   3.743  1.0564  1.0585  1.2319
  500MOL0     H67481   4.590   4.356   3.648 -0.3682  2.2066  0.4164
  500MOL0     H67482   4.361   4.446   3.207  0.5318  1.5639  1.3604
  500MOL0     H67483   4.141   4.453   3.098  2.8477 -3.5317 -0.1697
  500MOL0     H67484   2.403   3.348   3.575 -0.1618  0.3849  5.1047
  500MOL0     H67485   2.164   3.325   3.655 -3.4195 -0.3348 -0.8935
  500MOL0     H67486   1.709   3.436   3.556  0.7735 -2.4382  0.1822
  500MOL0     H67487   1.482   3.381   3.631  1.4959  0.0813 -2.6258
  500MOL0     H67488   1.331   3.254   3.739 -1.6064 -3.0719  1.6730
  500MOL0     H67489   1.283   3.426   3.749  2.5874  0.9126  2.1734
  500MOL0     H67490   1.080   3.341   3.821 -0.1573 -0.3243 -2.1993
  500MOL0     H67491   1.169   3.365   3.972  0.2799 -0.9405  0.6030
  500MOL0     H67492   1.064   3.152   3.985 -2.1635 -0.2956 -2.8030
  500MOL0     H67493   1.245   3.145   3.987  0.4748  3.7099  1.3407
  500MOL0     H67494   1.229   3.071   3.741  0.5060 -0.5341  2.0728
  500MOL0     H67495   1.161   2.956   3.854 -0.3233 -1.7471 -1.1119
  500MOL0     H67496   0.852   3.134   3.601  2.0021  5.1247  0.5264
  500MOL0     H67497   1.604   3.430   4.039  0.6359  0.8194  0.1309
  500MOL0     H67498   1.956   3.412   3.979 -0.5857 -1.5812  2.2001
  500MOL0     H67499   1.887   3.568   4.011  1.3077  0.1765  0.9391
  500MOL0     H67500   1.830   3.413   4.096 -0.4705 -0.0412 -0.8177
  501MOL0     O67501   9.283   8.113   6.381  0.2619  0.5638 -0.6648
  501MOL0     C67502   9.251   7.990   6.367  0.5043 -0.6329  0.5138
  501MOL0     O67503   9.338   7.888   6.349 -0.1566  0.2073 -0.2091
  501MOL0     C67504   9.470   7.918   6.345  0.1786  0.8377 -0.1143
  501MOL0     C67505   9.556   7.908   6.230  0.2163  0.0352  0.0366
  501MOL0     C67506   9.702   7.912   6.236  0.3752 -0.6205 -0.8286
  501MOL0     C67507   9.756   7.925   6.363  0.4012  0.0738 -0.4835
  501MOL0     O67508   9.895   7.920   6.370  0.4644  0.5119 -0.6467
  501MOL0     C67509   9.952   8.058   6.363 -0.7172 -0.0672 -0.2686
  501MOL0     C67510  10.100   8.057   6.330  0.1504 -0.4363  1.3637
  501MOL0     C67511  10.149   8.182   6.261  0.1813 -0.6712 -0.0410
  501MOL0     C67512  10.285   8.158   6.181  1.0893 -0.7839  0.2547
  501MOL0     C67513  10.370   8.282   6.177  0.1710 -0.0304  0.8007
  501MOL0     C67514  10.492   8.244   6.087 -1.0535  0.8663  0.4559
  501MOL0     C67515  10.595   8.357   6.050 -0.1746 -0.1629 -0.4051
  501MOL0     C67516  10.538   8.453   5.943 -0.4863  0.1949  0.5247
  501MOL0     N67517  10.603   8.583   5.927 -0.0955  0.1720 -0.7766
  501MOL0     C67518  10.591   8.688   6.019  0.0547 -0.0842 -0.0366
  501MOL0     C67519  10.673   8.776   5.962 -0.6181  0.1420  0.2525
  501MOL0     C67520  10.710   8.907   6.023  0.2748  0.4077 -0.4891
  501MOL0     C67521  10.625   9.020   5.976  0.0281  0.4982  1.1277
  501MOL0     C67522  10.710   9.147   5.985 -1.5334  1.6570 -0.8335
  501MOL0     C67523  10.620   9.273   5.981 -0.7585  0.6519  0.3734
  501MOL0     O67524  10.700   9.393   6.015  0.9649  0.0752 -0.4946
  501MOL0     C67525  10.818   9.399   5.945  0.9831  0.0643  0.0143
  501MOL0     C67526  10.832   9.391   5.801  0.3673 -0.2270  0.8054
  501MOL0     C67527  10.952   9.410   5.737 -0.0290 -1.2588 -1.0653
  501MOL0     C67528  11.069   9.436   5.813  0.4710  0.0628 -0.1106
  501MOL0     C67529  11.206   9.448   5.742  0.3442 -0.1731  1.0288
  501MOL0     O67530  11.214   9.417   5.605 -0.8268 -0.2697  0.9661
  501MOL0     C67531  11.323   9.446   5.532 -0.8086 -0.1362  0.3222
  501MOL0     C67532  11.318   9.565   5.459 -0.2922  0.0271  0.0007
  501MOL0     C67533  11.429   9.610   5.389  0.6337  0.4231  0.1099
  501MOL0     C67534  11.545   9.527   5.379 -0.3495 -1.0401 -0.2091
  501MOL0     O67535  11.655   9.575   5.311  0.2728 -1.0808  0.6081
  501MOL0     C67536  11.666   9.517   5.178  0.2201  0.3894  0.6092
  501MOL0     C67537  11.768   9.577   5.085 -0.6103  0.7222 -0.2241
  501MOL0     C67538  11.914   9.534   5.125 -0.2838  0.1994 -0.4661
  501MOL0     C67539  12.005   9.612   5.031  0.0643 -0.2916  0.4711
  501MOL0     C67540  12.150   9.611   5.078  0.0385 -0.9598 -0.0986
  501MOL0     C67541  12.273   9.660   4.996  0.0925 -0.6419 -0.0985
  501MOL0     C67542  12.407   9.646   5.061  0.1452 -0.0427 -0.1205
  501MOL0     C67543  12.520   9.622   4.971  0.4248  0.6028 -0.0965
  501MOL0    Cl67544  12.547   9.752   4.848 -0.6002  0.2548 -0.5315
  501MOL0     C67545  11.542   9.399   5.445 -0.1561  0.5892  0.2939
  501MOL0     C67546  11.438   9.363   5.530 -0.0453  0.1406  0.9162
  501MOL0     O67547  11.292   9.491   5.816  0.0802 -0.4120  0.1938
  501MOL0     C67548  11.055   9.445   5.944 -0.0168 -0.1708 -0.7620
  501MOL0     C67549  10.934   9.426   6.014  0.0642 -0.4731  0.3734
  501MOL0     N67550  10.738   8.728   5.851 -0.6563  0.5371  0.5149
  501MOL0     N67551  10.689   8.613   5.823 -0.7557  0.2326 -0.3749
  501MOL0     C67552   9.675   7.937   6.474  0.3945  0.0810 -0.6203
  501MOL0     C67553   9.541   7.935   6.465 -0.5838 -0.4729 -1.0991
  501MOL0     C67554   9.106   7.951   6.411  0.3243 -0.0990  0.1075
  501MOL0     C67555   9.078   7.831   6.480  0.2385 -0.1191  0.1076
  501MOL0     C67556   8.954   7.806   6.537  0.0605  0.0452 -0.3028
  501MOL0     C67557   8.846   7.887   6.523  0.9519  0.0139  0.9561
  501MOL0     O67558   8.716   7.878   6.567  0.4305  0.0966 -0.2595
  501MOL0     C67559   8.684   7.758   6.636 -0.1776 -0.3946  0.1115
  501MOL0     C67560   8.547   7.776   6.700 -0.5126 -0.3653  0.0912
  501MOL0     C67561   8.432   7.796   6.596 -0.8280 -0.0271 -0.8552
  501MOL0     C67562   8.299   7.812   6.663  0.1433  0.0991  0.5793
  501MOL0     C67563   8.236   7.678   6.676  0.7951  0.1430  0.5363
  501MOL0     C67564   8.196   7.569   6.696 -0.0861  0.1968  0.7860
  501MOL0     C67565   8.863   7.998   6.437 -0.6869  0.5353 -0.0917
  501MOL0     C67566   8.991   8.034   6.391 -0.8166 -0.2684  0.4309
  501MOL0     C67567   9.003   8.151   6.283  0.0282 -0.3444  0.1777
  501MOL0     H67568   9.508   7.898   6.133 -1.1734  1.1527  0.5620
  501MOL0     H67569   9.768   7.910   6.149  1.6648  0.5664  0.0875
  501MOL0     H67570   9.900   8.111   6.283  0.9923  2.4107  0.1497
  501MOL0     H67571   9.937   8.111   6.458  0.3047 -0.9135  0.3856
  501MOL0     H67572  10.119   7.975   6.260  0.8388 -2.2697  3.5680
  501MOL0     H67573  10.163   8.038   6.418  2.0300 -1.4714 -0.1338
  501MOL0     H67574  10.142   8.266   6.329 -2.3335 -0.0004 -1.0082
  501MOL0     H67575  10.070   8.186   6.185  0.0394  0.2454  0.1546
  501MOL0     H67576  10.338   8.074   6.228 -3.1598 -4.4317 -0.7455
  501MOL0     H67577  10.262   8.131   6.078  1.1208 -0.1178  0.0747
  501MOL0     H67578  10.314   8.368   6.138  1.3355  0.7796  0.8762
  501MOL0     H67579  10.408   8.302   6.277  2.0582 -1.4238  0.4110
  501MOL0     H67580  10.545   8.158   6.130 -0.8047  0.4519 -0.6605
  501MOL0     H67581  10.457   8.203   5.993 -0.6161 -2.6279  1.6881
  501MOL0     H67582  10.693   8.319   6.019  1.0466  0.8409  1.9764
  501MOL0     H67583  10.633   8.412   6.137  1.1154 -0.8482 -0.5064
  501MOL0     H67584  10.537   8.405   5.845  1.1101 -0.6554  0.8848
  501MOL0     H67585  10.437   8.477   5.978 -0.1026 -0.0335  1.8374
  501MOL0     H67586  10.537   8.684   6.113  1.6444 -3.5185  0.8810
  501MOL0     H67587  10.682   8.890   6.128 -2.0214  2.2063 -0.7313
  501MOL0     H67588  10.815   8.929   6.006  0.0010  3.9183  1.4460
  501MOL0     H67589  10.608   9.011   5.868  0.4508 -1.2767  1.1848
  501MOL0     H67590  10.529   9.023   6.027  0.4346 -1.0428  2.0376
  501MOL0     H67591  10.775   9.136   5.898 -1.9488  0.0207 -0.9586
  501MOL0     H67592  10.767   9.148   6.078 -0.9226  0.7313 -1.1895
  501MOL0     H67593  10.530   9.264   6.042 -0.3009  0.4349  1.0392
  501MOL0     H67594  10.594   9.287   5.876 -0.1047  0.6147  0.1996
  501MOL0     H67595  10.749   9.376   5.733  0.5587 -2.0314  0.9425
  501MOL0     H67596  10.963   9.390   5.631 -1.5297 -0.4139 -1.4055
  501MOL0     H67597  11.221   9.614   5.464 -0.7265 -0.7728 -0.2857
  501MOL0     H67598  11.426   9.710   5.347  0.1297  0.1876 -0.4392
  501MOL0     H67599  11.701   9.414   5.190  0.6601  0.6959  2.2686
  501MOL0     H67600  11.568   9.523   5.130 -1.0928  1.7623  3.2161
  501MOL0     H67601  11.738   9.546   4.984 -3.0012  2.6471 -0.2190
  501MOL0     H67602  11.766   9.686   5.095  1.4134  0.5786  2.8625
  501MOL0     H67603  11.931   9.570   5.227 -0.0579 -2.7730  0.6421
  501MOL0     H67604  11.923   9.425   5.118 -0.3162  0.2205 -0.8486
  501MOL0     H67605  11.967   9.714   5.023  2.3695  0.5477 -0.8736
  501MOL0     H67606  11.990   9.566   4.933 -0.3306  3.2372 -1.2833
  501MOL0     H67607  12.171   9.508   5.108 -0.8306 -1.1152  0.0082
  501MOL0     H67608  12.147   9.673   5.168 -1.4102  1.0975 -1.4633
  501MOL0     H67609  12.277   9.607   4.900  1.0816  0.6458 -0.7974
  501MOL0     H67610  12.259   9.765   4.967 -1.0410 -0.6065  0.5576
  501MOL0     H67611  12.406   9.559   5.129 -1.3664  0.1407  0.1170
  501MOL0     H67612  12.418   9.735   5.123 -2.0989  0.0104  0.2741
  501MOL0     H67613  12.608   9.630   5.036  1.1081  1.3891 -1.0900
  501MOL0     H67614  12.523   9.519   4.935  0.6396 -0.6555  3.1185
  501MOL0     H67615  11.632   9.339   5.438  0.3411  1.2422  0.9127
  501MOL0     H67616  11.447   9.283   5.602  0.7198  0.1366  0.8232
  501MOL0     H67617  11.143   9.481   5.996 -1.4475  0.4408  1.3790
  501MOL0     H67618  10.941   9.438   6.122  4.1593 -2.8239  0.5659
  501MOL0     H67619   9.724   7.931   6.571  0.1556 -1.9601 -0.5846
  501MOL0     H67620   9.484   7.932   6.558  0.4402 -0.1476 -0.4518
  501MOL0     H67621   9.162   7.769   6.510  1.2066  1.4396  0.7756
  501MOL0     H67622   8.950   7.724   6.608 -1.0547  0.9152  0.6674
  501MOL0     H67623   8.756   7.747   6.718  0.0936 -0.8146 -0.1817
  501MOL0     H67624   8.681   7.671   6.570  1.6549  0.1908 -0.8161
  501MOL0     H67625   8.542   7.865   6.765  0.6255  0.1952 -0.5563
  501MOL0     H67626   8.534   7.692   6.768 -3.7327  0.9386  1.2826
  501MOL0     H67627   8.438   7.712   6.526  1.6111 -0.7213  0.0691
  501MOL0     H67628   8.452   7.883   6.533 -1.3979 -0.5263 -1.7475
  501MOL0     H67629   8.318   7.857   6.761  3.5653  0.2024 -0.0097
  501MOL0     H67630   8.238   7.880   6.604 -0.8999 -2.2942 -1.2883
  501MOL0     H67631   8.164   7.468   6.711  0.8423 -0.8573 -3.1898
  501MOL0     H67632   8.783   8.058   6.397 -0.2185  1.4455  0.3133
  501MOL0     H67633   9.077   8.226   6.314 -0.5810 -0.3497  1.7611
  501MOL0     H67634   9.025   8.108   6.185 -1.6065 -0.1881 -0.2849
  501MOL0     H67635   8.909   8.207   6.274  0.8238  1.0165  0.1311
  502MOL0     O67636   8.669   4.401   7.346 -0.1998  0.6060  0.2832
  502MOL0     C67637   8.709   4.442   7.455  0.0590 -0.0531  0.7490
  502MOL0     O67638   8.844   4.475   7.464  0.9947  0.3888 -0.3098
  502MOL0     C67639   8.935   4.428   7.373 -0.3558 -0.6446  0.5488
  502MOL0     C67640   9.043   4.518   7.351  0.7841 -0.2234 -0.4204
  502MOL0     C67641   9.166   4.476   7.300  0.2480  0.7593 -0.0937
  502MOL0     C67642   9.176   4.352   7.238  0.5581  0.3904  0.7613
  502MOL0     O67643   9.295   4.312   7.174 -0.0124  0.0014 -0.7765
  502MOL0     C67644   9.361   4.208   7.244  0.3726  0.6706 -0.0509
  502MOL0     C67645   9.511   4.178   7.207 -0.1462  0.5890  0.5315
  502MOL0     C67646   9.571   4.312   7.150 -0.2502  0.6809 -0.5225
  502MOL0     C67647   9.720   4.305   7.146  0.0814  0.4509  0.0015
  502MOL0     C67648   9.776   4.416   7.062  0.0996  0.7488 -0.4519
  502MOL0     C67649   9.785   4.375   6.921 -0.0263 -0.4260 -0.0948
  502MOL0     C67650   9.777   4.490   6.811 -0.1137  0.0459 -0.4575
  502MOL0     C67651   9.806   4.433   6.675 -0.1469 -1.0146  0.6973
  502MOL0     N67652   9.947   4.388   6.659 -0.8356  0.2888 -0.8125
  502MOL0     C67653  10.060   4.472   6.640 -0.7700  0.4815 -0.1442
  502MOL0     C67654  10.169   4.393   6.631 -0.1062  0.4628 -0.1628
  502MOL0     C67655  10.311   4.442   6.610  1.0910 -0.4525 -0.0551
  502MOL0     C67656  10.352   4.383   6.477  0.2596 -0.0328 -0.9856
  502MOL0     C67657  10.287   4.467   6.354 -0.7097 -0.1853 -0.0274
  502MOL0     C67658  10.362   4.602   6.326 -0.6031  0.3686  0.1551
  502MOL0     O67659  10.490   4.560   6.286 -0.3315 -0.6530  0.2069
  502MOL0     C67660  10.505   4.568   6.153  0.0625  0.5700  0.9532
  502MOL0     C67661  10.539   4.446   6.093  0.5958  0.5371  0.1501
  502MOL0     C67662  10.549   4.448   5.953  0.0649 -0.2958 -0.6767
  502MOL0     C67663  10.543   4.569   5.886 -0.4051 -0.1413 -0.1694
  502MOL0     C67664  10.569   4.567   5.739 -0.2637 -0.5860 -1.2643
  502MOL0     O67665  10.537   4.458   5.664 -0.0530  0.4817 -0.4555
  502MOL0     C67666  10.580   4.455   5.535  0.1553  0.2435  0.3066
  502MOL0     C67667  10.491   4.510   5.438  0.7664 -0.0365  0.2172
  502MOL0     C67668  10.531   4.497   5.304 -0.7176  0.6768 -0.3529
  502MOL0     C67669  10.650   4.427   5.268  0.1230  0.2722  0.3813
  502MOL0     O67670  10.676   4.418   5.134 -0.1913  0.2953 -0.6378
  502MOL0     C67671  10.797   4.488   5.090  0.0900  0.0651 -0.4788
  502MOL0     C67672  10.824   4.431   4.950  0.0933 -0.2751 -0.1835
  502MOL0     C67673  10.952   4.480   4.890 -0.7684  1.2922 -0.2923
  502MOL0     C67674  11.072   4.390   4.936  0.2065 -0.2393  1.3853
  502MOL0     C67675  11.144   4.475   5.049 -0.1327  0.9109  0.0582
  502MOL0     C67676  11.246   4.569   4.994  0.3877 -1.1680  0.3023
  502MOL0     C67677  11.337   4.616   5.110 -0.1120  0.1299 -0.2528
  502MOL0     C67678  11.447   4.708   5.070 -0.4148 -1.2921 -0.9963
  502MOL0    Cl67679  11.538   4.625   4.947  0.3785  0.4447  0.0612
  502MOL0     C67680  10.739   4.379   5.366  0.6456  0.5788  0.6969
  502MOL0     C67681  10.704   4.391   5.494 -0.0999 -0.2544 -0.9811
  502MOL0     O67682  10.640   4.660   5.700 -0.1520 -0.4911 -0.5482
  502MOL0     C67683  10.518   4.697   5.950  0.7304  0.6121  0.5742
  502MOL0     C67684  10.487   4.693   6.086  0.3835 -0.0337  0.2533
  502MOL0     N67685  10.126   4.271   6.653 -0.5619  0.5505  0.2319
  502MOL0     N67686   9.996   4.259   6.669  0.3342  0.5486 -0.2210
  502MOL0     C67687   9.066   4.263   7.252 -0.5552 -0.0639  1.1672
  502MOL0     C67688   8.950   4.301   7.323 -0.1082  0.0237  0.6227
  502MOL0     C67689   8.620   4.473   7.567 -0.9476  0.2445 -0.5658
  502MOL0     C67690   8.489   4.514   7.543 -0.1937  0.0555  0.1659
  502MOL0     C67691   8.403   4.558   7.645  0.8058  0.1374 -0.5251
  502MOL0     C67692   8.454   4.572   7.776  0.1553  0.1096 -0.4958
  502MOL0     O67693   8.387   4.634   7.872 -0.5351  0.0811  0.3058
  502MOL0     C67694   8.242   4.649   7.871  0.0446 -0.1751  0.5648
  502MOL0     C67695   8.205   4.715   8.005  0.4114  0.3804 -0.2553
  502MOL0     C67696   8.261   4.856   8.035  0.0098 -0.5421  0.9322
  502MOL0     C67697   8.209   4.959   7.938 -0.4501 -0.3077  0.4270
  502MOL0     C67698   8.064   4.973   7.956  0.5196  0.5285  0.1566
  502MOL0     C67699   7.946   4.969   7.982  0.1805  0.3228  0.5011
  502MOL0     C67700   8.586   4.525   7.802  0.5884  0.9667  0.3540
  502MOL0     C67701   8.666   4.472   7.703  0.6878  0.9827  0.4256
  502MOL0     C67702   8.798   4.414   7.742 -0.0213 -0.7777  0.7682
  502MOL0     H67703   9.033   4.614   7.401  0.1135 -0.6802  0.3376
  502MOL0     H67704   9.247   4.547   7.306  1.5285 -0.7803  3.2709
  502MOL0     H67705   9.366   4.234   7.350  1.7464  2.5419 -0.5258
  502MOL0     H67706   9.302   4.116   7.235  1.3502 -0.2314  2.0571
  502MOL0     H67707   9.503   4.107   7.123 -2.7458  1.0720  0.2879
  502MOL0     H67708   9.580   4.136   7.280  1.4634 -1.4777 -1.9788
  502MOL0     H67709   9.550   4.404   7.206  0.7838  1.1451 -0.8853
  502MOL0     H67710   9.524   4.315   7.051 -2.0893  0.6668  0.3057
  502MOL0     H67711   9.751   4.317   7.250 -1.3713 -1.0480  0.6614
  502MOL0     H67712   9.754   4.205   7.115  1.2031 -0.3051  3.1831
  502MOL0     H67713   9.712   4.504   7.072 -2.1645 -0.7937 -0.5831
  502MOL0     H67714   9.875   4.439   7.104 -0.0956 -0.7873  0.9688
  502MOL0     H67715   9.882   4.325   6.917 -0.4777 -1.2956 -0.5521
  502MOL0     H67716   9.708   4.300   6.900 -0.3229 -0.0629 -0.3282
  502MOL0     H67717   9.853   4.566   6.830  0.0063  1.0016 -3.9765
  502MOL0     H67718   9.676   4.532   6.813  0.0236  0.3471  0.9389
  502MOL0     H67719   9.740   4.345   6.671  0.0645 -1.1847  0.9680
  502MOL0     H67720   9.779   4.512   6.604  1.0675  0.6716  2.0274
  502MOL0     H67721  10.079   4.578   6.630  0.3391  0.2943 -0.1924
  502MOL0     H67722  10.316   4.550   6.620  2.5189 -0.6836  3.3345
  502MOL0     H67723  10.378   4.394   6.682  0.1562 -1.8489 -0.0740
  502MOL0     H67724  10.461   4.385   6.470  0.6107 -3.0301  1.6233
  502MOL0     H67725  10.319   4.279   6.472  1.9492 -0.7705  1.3062
  502MOL0     H67726  10.182   4.486   6.377 -0.6647  1.4996 -1.0496
  502MOL0     H67727  10.285   4.416   6.257 -0.7027  1.0381 -0.6876
  502MOL0     H67728  10.367   4.656   6.421 -0.8492  0.0028  0.3792
  502MOL0     H67729  10.309   4.658   6.248 -2.2101 -1.0952  0.1283
  502MOL0     H67730  10.559   4.349   6.137 -0.6059 -0.4350 -1.3380
  502MOL0     H67731  10.557   4.359   5.892 -1.3990 -1.4748  0.7368
  502MOL0     H67732  10.398   4.562   5.457  0.3419  0.1988 -2.1420
  502MOL0     H67733  10.480   4.533   5.215 -1.7040 -1.2249 -0.6017
  502MOL0     H67734  10.784   4.597   5.087  4.4168  0.7629 -1.3862
  502MOL0     H67735  10.874   4.464   5.164 -1.1197  1.3521  1.2791
  502MOL0     H67736  10.801   4.325   4.939 -2.6221  0.3293 -1.0990
  502MOL0     H67737  10.744   4.468   4.886 -0.4252 -0.4665  0.3469
  502MOL0     H67738  10.943   4.471   4.781 -2.3975  1.5324 -0.2145
  502MOL0     H67739  10.966   4.586   4.911 -0.5586  1.0011  1.1110
  502MOL0     H67740  11.145   4.380   4.855 -0.0411 -0.1875  1.1549
  502MOL0     H67741  11.042   4.291   4.971  0.9815 -1.4259 -1.0837
  502MOL0     H67742  11.191   4.394   5.106  0.8774  0.5762 -1.2108
  502MOL0     H67743  11.074   4.526   5.116 -0.2875  0.4492  0.2559
  502MOL0     H67744  11.312   4.514   4.927 -0.4967 -0.7893 -0.8979
  502MOL0     H67745  11.210   4.649   4.929 -0.7293 -0.3833  1.8134
  502MOL0     H67746  11.382   4.530   5.159  3.3682 -0.5818 -4.1670
  502MOL0     H67747  11.274   4.665   5.186  0.3410 -2.4970  1.9587
  502MOL0     H67748  11.405   4.806   5.044  0.2424 -0.8295 -0.3552
  502MOL0     H67749  11.510   4.711   5.159 -2.5102 -3.7141  0.7045
  502MOL0     H67750  10.830   4.324   5.344 -1.1565 -1.6764 -1.8400
  502MOL0     H67751  10.773   4.355   5.569 -0.1060  2.2329  0.3401
  502MOL0     H67752  10.516   4.782   5.882 -3.2558  0.7478  0.6400
  502MOL0     H67753  10.472   4.787   6.139 -1.6400  1.5581 -2.8047
  502MOL0     H67754   9.063   4.173   7.192 -2.4170  1.2172 -0.8173
  502MOL0     H67755   8.859   4.243   7.316 -0.8143  1.1271  0.4137
  502MOL0     H67756   8.447   4.510   7.443  0.2479  0.0294 -0.0249
  502MOL0     H67757   8.303   4.593   7.618  1.1791  2.2406  0.5505
  502MOL0     H67758   8.202   4.548   7.866 -1.6601  0.4801  0.4726
  502MOL0     H67759   8.217   4.695   7.775  2.9216 -5.1284 -3.0110
  502MOL0     H67760   8.222   4.644   8.086  0.8888  1.0446  0.2315
  502MOL0     H67761   8.097   4.721   8.026  1.0221  0.0887  3.6856
  502MOL0     H67762   8.367   4.842   8.013 -0.4876 -1.2370 -1.2645
  502MOL0     H67763   8.250   4.891   8.138  3.4012  1.8888  0.6457
  502MOL0     H67764   8.244   5.059   7.967 -0.4991 -0.6897  1.8778
  502MOL0     H67765   8.247   4.942   7.837  1.0183 -1.6278  1.1470
  502MOL0     H67766   7.839   4.964   7.988  0.1183  2.2928  1.7824
  502MOL0     H67767   8.646   4.542   7.891  3.0253 -1.0647 -0.7606
  502MOL0     H67768   8.800   4.315   7.695  2.6579 -0.2191 -0.4855
  502MOL0     H67769   8.878   4.469   7.691 -1.3108 -0.1571 -0.6747
  502MOL0     H67770   8.817   4.413   7.850 -0.1394 -2.5020  0.8024
  503MOL0     O67771   1.779   4.181   1.647 -1.0650 -0.0493 -0.0586
  503MOL0     C67772   1.782   4.132   1.535 -0.5076 -0.3061 -0.2073
  503MOL0     O67773   1.838   4.191   1.421  0.1942  0.1723 -0.6114
  503MOL0     C67774   1.944   4.280   1.441  0.2498  1.0689 -0.6189
  503MOL0     C67775   2.071   4.235   1.475 -0.2165  0.2661 -0.0314
  503MOL0     C67776   2.188   4.321   1.470 -0.2581 -0.2260  0.6294
  503MOL0     C67777   2.182   4.452   1.424  0.4899  0.3269  0.7335
  503MOL0     O67778   2.296   4.523   1.401  0.6345 -0.5460 -0.4785
  503MOL0     C67779   2.288   4.663   1.426  0.3207  0.4402  0.2080
  503MOL0     C67780   2.421   4.712   1.476  0.1648  0.4882  0.3450
  503MOL0     C67781   2.409   4.860   1.504 -0.0300 -0.0605  0.7487
  503MOL0     C67782   2.541   4.910   1.557  0.4067 -0.1543  0.0836
  503MOL0     C67783   2.648   4.905   1.444 -0.2067  0.0082 -0.0020
  503MOL0     C67784   2.782   4.976   1.471 -0.9088 -0.1337 -0.0047
  503MOL0     C67785   2.862   5.008   1.340 -0.7201  0.1113  0.4536
  503MOL0     C67786   2.902   4.878   1.269  0.1111 -0.1987  0.2414
  503MOL0     N67787   2.997   4.893   1.158  0.4086 -0.3929  0.5352
  503MOL0     C67788   2.965   4.925   1.024  0.2634  0.5514  0.8094
  503MOL0     C67789   3.087   4.911   0.962  1.0064  0.6783 -0.0469
  503MOL0     C67790   3.105   4.941   0.820  0.1665  0.6953 -0.5460
  503MOL0     C67791   3.084   5.090   0.777  0.8571 -0.6067  0.6310
  503MOL0     C67792   3.172   5.122   0.655 -0.8398  0.2127 -0.0733
  503MOL0     C67793   3.291   5.201   0.691  1.9003 -0.9819  0.5033
  503MOL0     O67794   3.363   5.114   0.767 -0.5554 -0.2769  0.4443
  503MOL0     C67795   3.477   5.163   0.826 -0.0949 -0.8148  0.8402
  503MOL0     C67796   3.515   5.086   0.928 -0.1713 -0.1977  0.0838
  503MOL0     C67797   3.623   5.108   1.015 -0.0262 -0.5275  0.0060
  503MOL0     C67798   3.711   5.212   0.981 -0.3462  0.4724 -0.2522
  503MOL0     C67799   3.848   5.245   1.049 -0.4221 -0.6566  0.6522
  503MOL0     O67800   3.899   5.358   1.012 -0.1030 -0.7523  0.2512
  503MOL0     C67801   4.009   5.409   1.085  1.0208  0.2084  0.7171
  503MOL0     C67802   4.127   5.403   1.022 -0.3481  0.0599  1.2114
  503MOL0     C67803   4.240   5.446   1.085 -0.1717 -0.2024  0.0361
  503MOL0     C67804   4.232   5.487   1.218 -0.8575 -1.1159  0.3386
  503MOL0     O67805   4.341   5.545   1.282 -1.0939 -0.6474  0.0902
  503MOL0     C67806   4.308   5.687   1.305  0.3681  0.5783 -0.4777
  503MOL0     C67807   4.441   5.765   1.318  0.1396 -0.6613 -0.0519
  503MOL0     C67808   4.551   5.707   1.405 -0.9430 -0.4369  0.7361
  503MOL0     C67809   4.510   5.682   1.553  1.0302 -0.8994 -0.3592
  503MOL0     C67810   4.614   5.606   1.638 -1.3399 -0.4882  0.1595
  503MOL0     C67811   4.735   5.705   1.664  0.2930 -0.7257  0.1344
  503MOL0     C67812   4.844   5.620   1.726  0.5039 -0.4785  1.1228
  503MOL0     C67813   4.873   5.640   1.868  0.4414  0.3055 -0.4476
  503MOL0    Cl67814   4.730   5.639   1.978  0.1302  0.2275 -0.2843
  503MOL0     C67815   4.109   5.495   1.277  0.7993  0.9392  0.2464
  503MOL0     C67816   3.996   5.456   1.207 -0.0097  0.4732 -0.3622
  503MOL0     O67817   3.892   5.172   1.129 -0.3637  0.7843  0.2709
  503MOL0     C67818   3.661   5.305   0.877  0.0827  0.4366 -0.1995
  503MOL0     C67819   3.549   5.280   0.806 -0.2494  0.0874  0.3825
  503MOL0     N67820   3.184   4.888   1.054  0.0755 -1.0147 -0.4792
  503MOL0     N67821   3.130   4.876   1.167  0.2285 -0.4057  0.2874
  503MOL0     C67822   2.056   4.494   1.371  1.2107 -1.1818 -0.4833
  503MOL0     C67823   1.944   4.409   1.381  0.0504 -0.0322 -0.1506
  503MOL0     C67824   1.706   4.008   1.511  0.1647  0.0072  0.0677
  503MOL0     C67825   1.634   3.963   1.620  0.4520  0.6156  1.1137
  503MOL0     C67826   1.559   3.844   1.618 -0.1305 -0.6295 -1.1712
  503MOL0     C67827   1.548   3.768   1.503  0.2318  1.2663 -0.2837
  503MOL0     O67828   1.473   3.649   1.497  0.3089  0.4954 -0.0593
  503MOL0     C67829   1.501   3.536   1.580 -0.1804  0.4289 -0.3473
  503MOL0     C67830   1.646   3.499   1.595 -0.2564  0.2332 -0.2614
  503MOL0     C67831   1.724   3.437   1.471  0.3008 -0.4556 -1.0290
  503MOL0     C67832   1.881   3.432   1.492  1.2230  0.5690 -0.4092
  503MOL0     C67833   1.937   3.569   1.476  0.3233  0.5701 -0.0206
  503MOL0     C67834   1.997   3.676   1.464 -0.3252  0.1172 -0.1585
  503MOL0     C67835   1.636   3.806   1.397  0.2249  0.3602  0.6195
  503MOL0     C67836   1.713   3.920   1.397  0.3387 -0.2140 -0.3289
  503MOL0     C67837   1.797   3.952   1.274  0.8090 -0.6282  0.5460
  503MOL0     H67838   2.092   4.138   1.519  0.6491  0.6454  0.4324
  503MOL0     H67839   2.292   4.293   1.483  0.2373  1.8259  1.5088
  503MOL0     H67840   2.261   4.717   1.335 -1.4079 -0.2612  0.2710
  503MOL0     H67841   2.222   4.691   1.510 -0.0309 -4.6722  1.9770
  503MOL0     H67842   2.493   4.695   1.396 -0.4415 -1.4328  0.1583
  503MOL0     H67843   2.461   4.660   1.563  1.4039  1.6551  0.5162
  503MOL0     H67844   2.324   4.870   1.572 -0.2728  2.2961  0.1806
  503MOL0     H67845   2.384   4.905   1.407  0.3744  1.4568  1.3163
  503MOL0     H67846   2.513   5.009   1.593 -1.5003 -0.8248  0.5896
  503MOL0     H67847   2.588   4.856   1.639  3.3087 -1.1408 -2.0520
  503MOL0     H67848   2.668   4.801   1.419 -0.4462  0.2211 -1.1192
  503MOL0     H67849   2.600   4.946   1.355 -1.5426 -1.2855  0.0813
  503MOL0     H67850   2.762   5.075   1.513 -1.2536 -0.0234 -0.4265
  503MOL0     H67851   2.850   4.930   1.543 -0.6435 -0.2109 -0.3022
  503MOL0     H67852   2.954   5.063   1.364 -0.8355  0.0904  0.9588
  503MOL0     H67853   2.800   5.068   1.274 -2.4555 -0.1848  1.7415
  503MOL0     H67854   2.935   4.808   1.346 -3.3414 -2.4760 -0.1356
  503MOL0     H67855   2.808   4.831   1.239 -0.7764  1.7063 -0.1389
  503MOL0     H67856   2.874   4.943   0.967  0.5185 -1.3634 -0.3163
  503MOL0     H67857   3.204   4.915   0.782 -0.2506  0.1852 -1.3256
  503MOL0     H67858   3.033   4.872   0.776 -0.5316 -0.0587  1.6417
  503MOL0     H67859   2.979   5.100   0.751  0.3058  0.7806  3.0656
  503MOL0     H67860   3.092   5.155   0.865 -3.8829 -0.4207  1.1794
  503MOL0     H67861   3.115   5.184   0.585  1.0222  1.4939 -0.5480
  503MOL0     H67862   3.198   5.029   0.604 -4.1935 -1.4211  0.8918
  503MOL0     H67863   3.269   5.293   0.746  0.6112 -0.4143 -0.8721
  503MOL0     H67864   3.344   5.233   0.600  1.3562  1.9731  1.1356
  503MOL0     H67865   3.461   4.994   0.951  0.8077 -1.0106 -0.7637
  503MOL0     H67866   3.652   5.038   1.092  1.1704  1.8555  1.8585
  503MOL0     H67867   4.131   5.370   0.919  0.4123 -1.7689  1.7858
  503MOL0     H67868   4.334   5.435   1.032 -0.3545  0.4362 -0.4340
  503MOL0     H67869   4.259   5.714   1.211 -0.9852 -1.0898 -0.2931
  503MOL0     H67870   4.235   5.691   1.386  1.5540 -4.1446  1.1658
  503MOL0     H67871   4.473   5.773   1.214  0.4176  2.4501  0.1848
  503MOL0     H67872   4.428   5.868   1.352  1.0459 -0.4529 -0.3264
  503MOL0     H67873   4.585   5.614   1.357 -3.8803 -0.9079 -0.6740
  503MOL0     H67874   4.639   5.771   1.399 -0.5344 -0.9922  0.6690
  503MOL0     H67875   4.412   5.634   1.560  0.4178  0.3183 -0.3314
  503MOL0     H67876   4.488   5.781   1.596 -1.9794 -1.7678  0.3381
  503MOL0     H67877   4.641   5.509   1.594  0.6626 -1.1240  2.5919
  503MOL0     H67878   4.559   5.593   1.731  1.0128  1.1647  1.8842
  503MOL0     H67879   4.774   5.769   1.584 -3.9372 -0.7917 -2.2699
  503MOL0     H67880   4.697   5.769   1.745 -0.7303 -0.4605 -0.5321
  503MOL0     H67881   4.936   5.633   1.669  0.5905 -1.2706  1.0693
  503MOL0     H67882   4.816   5.516   1.706  0.4531 -0.1998 -0.3873
  503MOL0     H67883   4.941   5.567   1.913 -1.8622  0.8165  4.5802
  503MOL0     H67884   4.913   5.741   1.885 -2.4849  1.2262  1.8625
  503MOL0     H67885   4.092   5.518   1.381  2.6307  0.1534  0.7466
  503MOL0     H67886   3.893   5.454   1.244  0.9683 -2.7979  2.7956
  503MOL0     H67887   3.723   5.392   0.855 -2.2766  3.3101  3.2255
  503MOL0     H67888   3.522   5.351   0.729  0.6061 -1.7670 -1.7616
  503MOL0     H67889   2.041   4.592   1.327 -4.0165 -0.2103  2.5865
  503MOL0     H67890   1.855   4.445   1.329  1.5495  1.4751 -1.8287
  503MOL0     H67891   1.637   4.010   1.717  2.1825 -0.8469  1.8276
  503MOL0     H67892   1.512   3.818   1.712  2.7151  1.9117  1.1590
  503MOL0     H67893   1.443   3.453   1.538  1.5967  1.1698 -4.8361
  503MOL0     H67894   1.453   3.549   1.677 -3.7519 -0.5723 -1.7992
  503MOL0     H67895   1.637   3.421   1.671 -1.1566 -0.8482 -1.4290
  503MOL0     H67896   1.694   3.588   1.637  0.7621  0.5085 -1.9211
  503MOL0     H67897   1.712   3.496   1.380 -2.0631  1.1146  0.2082
  503MOL0     H67898   1.687   3.335   1.460  1.5203 -1.0277 -0.0615
  503MOL0     H67899   1.896   3.382   1.588 -1.9563 -1.8561 -1.0125
  503MOL0     H67900   1.917   3.360   1.417 -0.2065 -0.7795  0.1446
  503MOL0     H67901   2.063   3.758   1.444 -0.3876  0.3239  0.4576
  503MOL0     H67902   1.639   3.747   1.307  2.0416  1.9893 -0.4671
  503MOL0     H67903   1.803   3.872   1.200 -0.3351  0.8021 -1.1883
  503MOL0     H67904   1.731   4.019   1.218 -0.9866 -1.1996  1.8608
  503MOL0     H67905   1.897   3.995   1.284  0.5890  0.6853 -2.1136
  504MOL0     O67906   1.665   4.071   7.531  0.1776  0.1365 -0.4813
  504MOL0     C67907   1.638   4.154   7.620 -0.7186 -0.4048 -0.1991
  504MOL0     O67908   1.703   4.273   7.646 -0.1315  0.4563  1.1461
  504MOL0     C67909   1.818   4.289   7.573  0.9842 -0.2890  0.3912
  504MOL0     C67910   1.930   4.322   7.649  0.7997 -0.1004 -1.1799
  504MOL0     C67911   2.055   4.341   7.594  0.1666  0.3838  0.7540
  504MOL0     C67912   2.077   4.318   7.460 -0.4659  0.2189  0.2086
  504MOL0     O67913   2.185   4.369   7.391 -0.5368 -0.0140  0.2359
  504MOL0     C67914   2.250   4.282   7.298  0.1060 -0.9211 -0.2205
  504MOL0     C67915   2.369   4.349   7.244 -0.7158  0.5689 -0.4020
  504MOL0     C67916   2.483   4.358   7.350  0.1412 -0.7225  0.7893
  504MOL0     C67917   2.582   4.247   7.319  0.4615 -0.2536  1.4754
  504MOL0     C67918   2.681   4.259   7.433  0.5805  0.5293 -0.2401
  504MOL0     C67919   2.801   4.169   7.402 -0.2366 -0.8060 -0.1642
  504MOL0     C67920   2.920   4.210   7.490 -0.3129  0.2126 -0.0755
  504MOL0     C67921   3.036   4.103   7.489 -0.3033 -0.0011 -0.4711
  504MOL0     N67922   3.166   4.150   7.548  0.2671 -0.0119  0.0070
  504MOL0     C67923   3.228   4.262   7.498  0.3696 -0.1956  0.1570
  504MOL0     C67924   3.322   4.306   7.595 -0.1709 -0.3139 -0.0147
  504MOL0     C67925   3.399   4.424   7.593  0.6090 -0.3373 -0.2275
  504MOL0     C67926   3.560   4.396   7.602 -0.7347  0.5699 -0.5347
  504MOL0     C67927   3.644   4.509   7.546 -0.0733 -0.8409  1.3525
  504MOL0     C67928   3.791   4.493   7.559  0.6386 -0.2247  0.0379
  504MOL0     O67929   3.823   4.547   7.691 -0.1680 -0.3406  0.4381
  504MOL0     C67930   3.951   4.539   7.724  0.6198 -0.3458  0.3352
  504MOL0     C67931   4.049   4.486   7.634  0.0883 -0.7714  0.4438
  504MOL0     C67932   4.188   4.498   7.663  0.2879 -0.4594 -0.4599
  504MOL0     C67933   4.230   4.554   7.785  0.5925 -0.0069  0.7190
  504MOL0     C67934   4.370   4.576   7.821  0.0308 -0.2651  0.5808
  504MOL0     O67935   4.479   4.535   7.732  1.1759  0.4182 -0.7246
  504MOL0     C67936   4.609   4.544   7.788  0.1034  0.2748 -1.3894
  504MOL0     C67937   4.706   4.562   7.688 -0.3135  0.2049  0.5684
  504MOL0     C67938   4.837   4.552   7.720 -0.3961  0.6383 -0.8724
  504MOL0     C67939   4.878   4.537   7.858 -0.2058 -0.1157  0.2046
  504MOL0     O67940   5.011   4.513   7.887  0.1198 -0.4634 -0.3066
  504MOL0     C67941   5.071   4.603   7.986 -0.6011  0.0139 -0.0765
  504MOL0     C67942   5.106   4.750   7.933 -0.4891  0.7462  0.0796
  504MOL0     C67943   5.191   4.734   7.812  0.1104 -0.6311  0.3574
  504MOL0     C67944   5.263   4.864   7.772 -0.5796  0.7331  0.2738
  504MOL0     C67945   5.365   4.842   7.669 -0.1679  0.1425  0.1832
  504MOL0     C67946   5.435   4.977   7.641  0.3554  0.3613  0.8343
  504MOL0     C67947   5.543   4.961   7.536  0.3317 -0.6277  0.1517
  504MOL0     C67948   5.635   5.087   7.532  1.5004 -0.1427  0.2535
  504MOL0    Cl67949   5.531   5.228   7.501 -0.6518 -0.1569 -0.1148
  504MOL0     C67950   4.775   4.533   7.950  0.2482 -0.1500 -0.1511
  504MOL0     C67951   4.642   4.533   7.923 -0.2483 -1.0172  0.1328
  504MOL0     O67952   4.385   4.642   7.923 -0.6322 -0.3134 -0.3629
  504MOL0     C67953   4.125   4.591   7.880  0.2887 -0.0640  0.7703
  504MOL0     C67954   3.991   4.585   7.845 -0.7151  0.3143  0.7021
  504MOL0     N67955   3.317   4.212   7.692 -0.2690 -0.4439  0.3242
  504MOL0     N67956   3.229   4.121   7.669  0.1646 -0.2586  0.0541
  504MOL0     C67957   1.961   4.285   7.382 -0.9734 -0.1467  0.2443
  504MOL0     C67958   1.829   4.273   7.433  0.4289  0.2119 -0.5845
  504MOL0     C67959   1.531   4.119   7.712 -0.5610  0.9904  0.3976
  504MOL0     C67960   1.546   4.138   7.860 -0.3739  0.1443  1.0588
  504MOL0     C67961   1.445   4.142   7.952  1.2051 -0.1775  0.2123
  504MOL0     C67962   1.316   4.098   7.903 -0.8813  0.0521 -0.8619
  504MOL0     O67963   1.215   4.089   7.996  0.6607  0.1598  0.0037
  504MOL0     C67964   1.121   4.196   7.982 -0.7410  0.6818  0.7381
  504MOL0     C67965   1.044   4.230   8.111  1.1027  0.1862  0.0028
  504MOL0     C67966   0.946   4.123   8.155 -0.4232 -0.7387 -0.1634
  504MOL0     C67967   0.819   4.108   8.073 -0.6278  0.6375  0.3543
  504MOL0     C67968   0.747   4.236   8.071  0.3735  0.1486 -0.1665
  504MOL0     C67969   0.686   4.339   8.068  0.0013  0.2004 -0.7434
  504MOL0     C67970   1.301   4.063   7.768  0.4150  0.5280  0.0630
  504MOL0     C67971   1.401   4.072   7.671  0.0497  0.5194 -0.1776
  504MOL0     C67972   1.368   4.036   7.527 -0.0119 -0.7222  0.3188
  504MOL0     H67973   1.923   4.338   7.757  0.6551 -1.8752 -0.9080
  504MOL0     H67974   2.148   4.370   7.642 -1.0174  1.0343  2.7896
  504MOL0     H67975   2.281   4.187   7.344 -2.9843 -0.6691  2.7831
  504MOL0     H67976   2.186   4.259   7.212  0.9952  1.4486 -1.5948
  504MOL0     H67977   2.351   4.452   7.213  1.6009  1.0426 -0.3400
  504MOL0     H67978   2.395   4.286   7.158 -3.8421 -0.5342 -0.6441
  504MOL0     H67979   2.453   4.358   7.455  0.9806 -1.2838  1.0462
  504MOL0     H67980   2.531   4.455   7.334 -2.1551  0.6463  1.7775
  504MOL0     H67981   2.534   4.148   7.319 -1.7492  0.6988 -0.5801
  504MOL0     H67982   2.627   4.278   7.224 -2.7958 -1.1653 -0.5642
  504MOL0     H67983   2.703   4.366   7.444 -0.3602  0.8033 -0.8865
  504MOL0     H67984   2.637   4.222   7.527  2.1876  0.7917  0.6631
  504MOL0     H67985   2.764   4.067   7.419 -4.2712  0.1349 -1.9980
  504MOL0     H67986   2.834   4.181   7.299 -0.4909  0.3434 -0.1197
  504MOL0     H67987   2.878   4.209   7.591 -0.8618 -0.1928 -0.2992
  504MOL0     H67988   2.951   4.308   7.452 -2.9907  0.9261 -0.6479
  504MOL0     H67989   3.008   4.010   7.540 -0.4177 -0.1172 -0.7466
  504MOL0     H67990   3.062   4.091   7.383  0.6305 -1.1099 -0.1454
  504MOL0     H67991   3.202   4.326   7.414  2.4791  0.4894 -0.0251
  504MOL0     H67992   3.377   4.483   7.503 -1.1269 -0.0109  0.3771
  504MOL0     H67993   3.350   4.479   7.673  0.3746 -1.8497  0.7072
  504MOL0     H67994   3.594   4.383   7.705 -0.3753  1.8555 -0.4766
  504MOL0     H67995   3.584   4.310   7.538  3.3692  1.5840 -0.6512
  504MOL0     H67996   3.609   4.605   7.586 -0.8327  0.2559 -1.6622
  504MOL0     H67997   3.623   4.502   7.438 -1.6622 -0.0658  1.5668
  504MOL0     H67998   3.825   4.553   7.474 -3.1769  0.9534 -0.8305
  504MOL0     H67999   3.820   4.388   7.553 -0.6939 -0.8292  2.6434
  504MOL0     H68000   4.032   4.445   7.535 -2.4647  1.4998 -0.1709
  504MOL0     H68001   4.263   4.469   7.591 -0.6478 -2.0592 -0.8483
  504MOL0     H68002   4.674   4.571   7.584 -0.8647 -4.9341  0.0289
  504MOL0     H68003   4.917   4.567   7.648  1.1260 -1.5958  0.2438
  504MOL0     H68004   5.001   4.620   8.069 -2.2455  1.4762 -1.6714
  504MOL0     H68005   5.161   4.554   8.024 -0.2050 -0.8582 -2.0426
  504MOL0     H68006   5.013   4.791   7.893 -1.7127 -1.9219  0.0347
  504MOL0     H68007   5.139   4.809   8.019 -2.4500  1.7541  0.1981
  504MOL0     H68008   5.253   4.646   7.832 -1.4496 -1.6331  1.0451
  504MOL0     H68009   5.141   4.694   7.723  0.7677  1.9821 -1.2871
  504MOL0     H68010   5.310   4.907   7.861  5.9979 -0.0350 -2.2419
  504MOL0     H68011   5.201   4.945   7.732  0.3740  0.6473 -1.4637
  504MOL0     H68012   5.309   4.797   7.586 -1.4071  0.7590  0.6526
  504MOL0     H68013   5.431   4.764   7.709 -0.8504  1.1249  3.5001
  504MOL0     H68014   5.363   5.054   7.612 -0.8837 -0.6539  1.1629
  504MOL0     H68015   5.491   5.004   7.732  0.5292 -0.6222  1.0250
  504MOL0     H68016   5.489   4.941   7.444  0.5235  0.8175 -0.2916
  504MOL0     H68017   5.606   4.877   7.568  0.5647 -0.5898 -0.2010
  504MOL0     H68018   5.686   5.104   7.627  0.0849  4.8768  0.3933
  504MOL0     H68019   5.706   5.075   7.450  2.2216 -0.1250  0.8621
  504MOL0     H68020   4.811   4.498   8.046  0.4634  3.5427  1.2583
  504MOL0     H68021   4.569   4.509   8.000 -0.8609  1.2568  0.3237
  504MOL0     H68022   4.137   4.626   7.982  0.2047  1.3697  0.3126
  504MOL0     H68023   3.912   4.608   7.915 -3.3590 -2.7606 -0.9947
  504MOL0     H68024   1.967   4.287   7.274 -0.3551  6.7510 -0.0124
  504MOL0     H68025   1.749   4.265   7.361 -1.6170  3.1456  1.1522
  504MOL0     H68026   1.644   4.153   7.903  0.4206 -1.5910 -0.0619
  504MOL0     H68027   1.451   4.153   8.060 -0.3216 -0.8273  0.3851
  504MOL0     H68028   1.054   4.179   7.897 -1.5787  2.5198  0.9709
  504MOL0     H68029   1.175   4.286   7.950 -0.0452  0.6525  1.7919
  504MOL0     H68030   0.986   4.323   8.105 -2.8825 -1.7383  3.1930
  504MOL0     H68031   1.109   4.239   8.198 -1.4464 -3.1461  2.5322
  504MOL0     H68032   0.909   4.130   8.258 -2.8496 -0.3874 -0.9835
  504MOL0     H68033   1.023   4.047   8.143  3.0372  2.5598 -0.5670
  504MOL0     H68034   0.834   4.080   7.968 -3.7831 -2.0469  0.4474
  504MOL0     H68035   0.756   4.033   8.122  1.5969  0.7826  3.7466
  504MOL0     H68036   0.626   4.425   8.050 -0.5655 -0.3188 -1.4111
  504MOL0     H68037   1.201   4.031   7.742  0.7331 -1.6802  1.3176
  504MOL0     H68038   1.382   4.128   7.471  0.5193  0.9080  2.9511
  504MOL0     H68039   1.418   3.948   7.483 -2.0572 -1.2563 -1.0479
  504MOL0     H68040   1.264   4.004   7.527 -0.4830  0.5349 -2.5936
  505MOL0     O68041   4.886   2.804   2.700  0.4266 -0.2739 -0.0354
  505MOL0     C68042   4.976   2.720   2.689 -0.1272 -0.1486  0.4208
  505MOL0     O68043   4.972   2.606   2.622  1.1223  0.6018 -0.0604
  505MOL0     C68044   4.858   2.565   2.550 -0.1744  0.2032  0.5636
  505MOL0     C68045   4.885   2.441   2.499 -0.5926  0.3791  0.5334
  505MOL0     C68046   4.799   2.377   2.405  0.0512 -1.1715 -0.4162
  505MOL0     C68047   4.674   2.433   2.374 -0.8115  0.2392  0.3068
  505MOL0     O68048   4.583   2.369   2.294 -0.4254  0.1832  0.6578
  505MOL0     C68049   4.620   2.261   2.210 -0.9531  0.0089  0.3369
  505MOL0     C68050   4.483   2.214   2.149  0.2443  0.6445  0.5485
  505MOL0     C68051   4.432   2.077   2.194 -0.4739  0.7067 -1.0475
  505MOL0     C68052   4.532   1.959   2.165 -0.4164 -0.1062 -0.0473
  505MOL0     C68053   4.534   1.845   2.271  0.5516  0.6992  0.2870
  505MOL0     C68054   4.625   1.738   2.237  0.0899 -0.2895  0.4503
  505MOL0     C68055   4.589   1.611   2.307 -0.7882  0.9020 -0.2768
  505MOL0     C68056   4.611   1.613   2.463 -0.3617 -0.9739 -0.2082
  505MOL0     N68057   4.623   1.485   2.527  0.7907  0.0046  0.3685
  505MOL0     C68058   4.517   1.393   2.526  0.0786  0.2538 -0.1230
  505MOL0     C68059   4.548   1.299   2.621 -0.2930  0.5701 -0.4186
  505MOL0     C68060   4.475   1.187   2.686 -0.3469  0.1175  0.3877
  505MOL0     C68061   4.320   1.210   2.704  0.9180 -0.2709 -0.3851
  505MOL0     C68062   4.263   1.316   2.812  1.0869  0.5456  1.2587
  505MOL0     C68063   4.116   1.288   2.852 -0.2503 -0.6220  0.5511
  505MOL0     O68064   4.045   1.242   2.725  0.1390 -0.8698 -0.3502
  505MOL0     C68065   3.979   1.321   2.631  0.8133 -0.8609 -0.2462
  505MOL0     C68066   4.007   1.458   2.639  0.4004  0.6096 -0.6653
  505MOL0     C68067   3.922   1.545   2.559  0.0432  0.0364 -0.2623
  505MOL0     C68068   3.833   1.492   2.462 -0.3985 -0.8026 -0.1971
  505MOL0     C68069   3.747   1.569   2.377  0.4082 -0.0700  0.2337
  505MOL0     O68070   3.663   1.502   2.302  0.1217  0.0193 -0.8246
  505MOL0     C68071   3.555   1.562   2.247  1.2933 -0.8900  0.3887
  505MOL0     C68072   3.429   1.503   2.252 -0.3645 -0.6458 -0.5986
  505MOL0     C68073   3.315   1.560   2.186  0.1166  0.4721 -0.8799
  505MOL0     C68074   3.333   1.676   2.114  0.8643  0.4364 -0.0532
  505MOL0     O68075   3.227   1.738   2.059 -0.3800 -0.7885  0.2806
  505MOL0     C68076   3.129   1.667   1.982 -0.3505  0.2007 -0.5047
  505MOL0     C68077   2.992   1.677   2.052 -0.1653 -0.1875  0.4722
  505MOL0     C68078   2.893   1.585   1.973  0.1586 -0.3581 -0.1347
  505MOL0     C68079   2.756   1.604   2.048  0.3367  1.2255 -0.0850
  505MOL0     C68080   2.644   1.516   1.979  0.7237 -0.0424 -0.2199
  505MOL0     C68081   2.646   1.518   1.823 -0.3439 -0.4606  1.1367
  505MOL0     C68082   2.513   1.454   1.779 -0.0660 -0.0140 -0.2289
  505MOL0     C68083   2.506   1.441   1.623 -1.3942 -0.4172  0.4074
  505MOL0    Cl68084   2.547   1.609   1.544  0.5773  0.3820 -0.0331
  505MOL0     C68085   3.460   1.735   2.108 -0.2797 -0.0276  0.2511
  505MOL0     C68086   3.570   1.670   2.159  0.0105 -0.3377 -0.1084
  505MOL0     O68087   3.741   1.693   2.401 -0.2404  0.7415  0.0872
  505MOL0     C68088   3.821   1.353   2.464 -0.4096  0.1216 -0.3504
  505MOL0     C68089   3.886   1.265   2.551  0.0771  1.1907  0.1919
  505MOL0     N68090   4.672   1.334   2.668  0.4938 -0.0538  0.7827
  505MOL0     N68091   4.722   1.437   2.608  0.2820  0.0492  0.0002
  505MOL0     C68092   4.644   2.563   2.424 -0.3155  0.4600 -0.4012
  505MOL0     C68093   4.729   2.633   2.511 -1.1479  0.2964  0.0513
  505MOL0     C68094   5.108   2.753   2.732  0.2777 -1.0368  0.0608
  505MOL0     C68095   5.115   2.836   2.845  0.1858  0.0179  0.3415
  505MOL0     C68096   5.238   2.873   2.900  0.5481 -0.2039 -0.2711
  505MOL0     C68097   5.357   2.836   2.831  0.2047  0.5660 -0.0656
  505MOL0     O68098   5.480   2.867   2.884 -0.0812 -0.5004  0.5401
  505MOL0     C68099   5.512   2.912   3.013  0.3813  0.3014  0.9250
  505MOL0     C68100   5.665   2.912   3.008 -0.8698  0.1073 -0.0939
  505MOL0     C68101   5.728   2.957   3.140 -0.6412  0.2382 -0.2645
  505MOL0     C68102   5.868   3.024   3.114 -0.2727  0.9537 -0.3142
  505MOL0     C68103   5.973   2.920   3.085  0.4921 -0.0705  0.9331
  505MOL0     C68104   6.042   2.816   3.086  0.0741 -0.1410  0.0161
  505MOL0     C68105   5.351   2.751   2.726  0.3160  0.6284 -0.4011
  505MOL0     C68106   5.231   2.709   2.677  0.3800  0.8407  0.0396
  505MOL0     C68107   5.246   2.633   2.548  0.5706  1.0172 -0.3369
  505MOL0     H68108   4.968   2.386   2.543  0.4185  0.7771 -0.8083
  505MOL0     H68109   4.826   2.280   2.365 -0.2991 -0.1276 -3.4489
  505MOL0     H68110   4.694   2.305   2.142  0.6616  0.8456  2.5187
  505MOL0     H68111   4.669   2.180   2.266  0.5421  0.6769  0.0550
  505MOL0     H68112   4.498   2.220   2.041  1.9534  1.1121  0.7863
  505MOL0     H68113   4.404   2.285   2.174 -0.9740 -1.0374  1.6852
  505MOL0     H68114   4.333   2.058   2.151 -1.4740  0.7427  1.0971
  505MOL0     H68115   4.414   2.087   2.302  0.2717  2.5393 -1.0518
  505MOL0     H68116   4.506   1.910   2.071  1.0991 -1.7649  0.3426
  505MOL0     H68117   4.634   1.999   2.168 -0.4747  0.0055  2.2491
  505MOL0     H68118   4.577   1.885   2.364  3.8181  0.1696 -0.8632
  505MOL0     H68119   4.429   1.819   2.283  1.1750 -2.1192  0.3546
  505MOL0     H68120   4.604   1.724   2.131 -0.6169  0.8485  0.4178
  505MOL0     H68121   4.726   1.772   2.265  0.0239  0.4075 -0.1268
  505MOL0     H68122   4.658   1.537   2.266 -1.7493 -0.3553  0.2995
  505MOL0     H68123   4.493   1.567   2.280  1.4573 -3.7472 -1.6789
  505MOL0     H68124   4.709   1.655   2.486 -0.6179 -1.1691  1.3894
  505MOL0     H68125   4.531   1.670   2.513 -0.9317 -0.1344 -1.9996
  505MOL0     H68126   4.419   1.402   2.481  0.1519 -2.0062 -0.8615
  505MOL0     H68127   4.496   1.090   2.640  0.7636  0.1681  0.7556
  505MOL0     H68128   4.507   1.174   2.790 -2.5248  1.2001  1.2435
  505MOL0     H68129   4.278   1.226   2.604  0.3190 -0.2597 -0.1373
  505MOL0     H68130   4.272   1.114   2.725 -0.6701  0.8103  1.1783
  505MOL0     H68131   4.263   1.422   2.785 -1.6045  0.5069  0.7812
  505MOL0     H68132   4.322   1.315   2.904  0.9681  0.8912  1.3414
  505MOL0     H68133   4.074   1.380   2.893  4.5393  2.0162  0.2598
  505MOL0     H68134   4.109   1.213   2.931  0.6314 -0.0813  1.1503
  505MOL0     H68135   4.074   1.509   2.706  0.7048 -0.5628 -0.0524
  505MOL0     H68136   3.946   1.651   2.563  3.2869 -0.5934  2.5020
  505MOL0     H68137   3.410   1.417   2.315  0.6599 -3.0685 -3.3727
  505MOL0     H68138   3.223   1.506   2.210  0.6892 -0.0872  0.1474
  505MOL0     H68139   3.123   1.708   1.881  3.2494  0.9811 -0.5054
  505MOL0     H68140   3.154   1.561   1.987 -0.4177  0.0379 -2.6369
  505MOL0     H68141   3.001   1.629   2.150  0.9076 -2.8920 -0.8264
  505MOL0     H68142   2.955   1.779   2.062 -1.3210 -0.6226  0.8582
  505MOL0     H68143   2.886   1.627   1.872  2.1972  1.7224  0.4988
  505MOL0     H68144   2.943   1.488   1.970  4.7735  1.7436 -0.1145
  505MOL0     H68145   2.710   1.701   2.029 -2.8707 -0.0613  0.4800
  505MOL0     H68146   2.752   1.593   2.156 -1.0401 -1.6041 -0.3267
  505MOL0     H68147   2.544   1.543   2.014 -0.5918 -5.0163  0.6839
  505MOL0     H68148   2.669   1.416   2.015 -2.0478 -0.6940  0.0497
  505MOL0     H68149   2.670   1.620   1.791 -0.9695  0.1155  2.4552
  505MOL0     H68150   2.719   1.443   1.790 -1.8677 -1.1705 -0.8685
  505MOL0     H68151   2.437   1.527   1.806 -1.1080 -1.4405  0.8340
  505MOL0     H68152   2.498   1.356   1.826 -0.2913 -0.7337 -1.7592
  505MOL0     H68153   2.581   1.372   1.583  0.6602  0.9197  1.7406
  505MOL0     H68154   2.402   1.418   1.598 -1.4092 -0.6523  0.6768
  505MOL0     H68155   3.453   1.825   2.048 -0.5495 -0.4571 -0.3694
  505MOL0     H68156   3.660   1.731   2.161  1.3852 -2.3105  0.8802
  505MOL0     H68157   3.743   1.304   2.406  1.4961 -0.4198 -2.5931
  505MOL0     H68158   3.877   1.156   2.554 -0.3056  1.1392 -1.5379
  505MOL0     H68159   4.549   2.613   2.406  0.7632  2.1759 -1.5824
  505MOL0     H68160   4.694   2.728   2.551  0.6660  1.3156 -0.6863
  505MOL0     H68161   5.021   2.863   2.893 -1.3440 -1.6063 -1.5573
  505MOL0     H68162   5.237   2.921   2.998 -1.6480  0.7545 -0.7088
  505MOL0     H68163   5.472   2.849   3.093  0.2076 -2.3246 -1.1174
  505MOL0     H68164   5.464   3.008   3.039  0.3986 -0.2172  3.0690
  505MOL0     H68165   5.697   2.977   2.927  2.5216 -1.9111 -0.5809
  505MOL0     H68166   5.704   2.814   2.979  2.0837  1.4646 -1.0218
  505MOL0     H68167   5.723   2.875   3.212 -2.1602  1.8727  1.6056
  505MOL0     H68168   5.672   3.033   3.195  1.6393  1.0037  1.1176
  505MOL0     H68169   5.869   3.097   3.033  0.6865 -2.0978 -3.2710
  505MOL0     H68170   5.890   3.072   3.210 -3.5142 -0.1877  1.1390
  505MOL0     H68171   6.108   2.732   3.088 -0.1379 -0.3558  3.7102
  505MOL0     H68172   5.447   2.714   2.690  0.5918 -0.3914  1.2689
  505MOL0     H68173   5.219   2.528   2.561 -3.5337  1.8313 -0.7967
  505MOL0     H68174   5.169   2.672   2.481 -0.1877 -0.1388 -0.1568
  505MOL0     H68175   5.344   2.633   2.500  0.6850  3.5176 -0.2654
  506MOL0     O68176   8.025   6.224   8.229 -0.5903 -0.8664 -0.0464
  506MOL0     C68177   7.999   6.164   8.332  0.7809 -0.2517  0.3635
  506MOL0     O68178   8.084   6.080   8.405 -0.2355 -0.1461 -0.7344
  506MOL0     C68179   8.216   6.063   8.362  0.8128  0.1086 -0.9434
  506MOL0     C68180   8.289   6.166   8.318 -0.1237 -1.2545  0.6544
  506MOL0     C68181   8.411   6.145   8.283  0.5080 -0.0104 -0.7129
  506MOL0     C68182   8.480   6.022   8.289 -0.3277  0.3692  0.9691
  506MOL0     O68183   8.613   5.999   8.253 -0.1283  0.1033  0.2884
  506MOL0     C68184   8.641   5.885   8.173  0.9730  0.6771  0.7037
  506MOL0     C68185   8.724   5.928   8.047  0.3517 -0.0552 -0.4136
  506MOL0     C68186   8.837   6.012   8.101  0.6471  0.3158 -0.9773
  506MOL0     C68187   8.941   6.046   7.995 -0.3639 -0.2335 -0.6011
  506MOL0     C68188   9.084   6.080   8.051 -0.0257  0.0177  0.2320
  506MOL0     C68189   9.173   6.116   7.925 -0.2187  0.0815 -0.3420
  506MOL0     C68190   9.328   6.127   7.955 -0.1641  0.3646  0.0810
  506MOL0     C68191   9.404   6.011   7.901  0.0568  0.3407 -0.9699
  506MOL0     N68192   9.537   5.997   7.960 -0.2019 -0.0241 -0.7142
  506MOL0     C68193   9.639   6.085   7.956 -0.5521 -1.3455 -0.3883
  506MOL0     C68194   9.738   6.021   8.024  0.5121  0.5178 -0.3019
  506MOL0     C68195   9.881   6.045   8.031  0.0170 -0.8377  0.3784
  506MOL0     C68196   9.956   6.013   7.899 -0.2214 -0.3525  0.3593
  506MOL0     C68197  10.104   5.989   7.935  0.3199 -0.1327  0.6224
  506MOL0     C68198  10.199   5.974   7.820 -0.1831  0.2683 -0.3157
  506MOL0     O68199  10.315   6.035   7.867 -0.0297 -0.0699  0.8203
  506MOL0     C68200  10.434   6.000   7.798 -0.9452 -0.1603 -0.9286
  506MOL0     C68201  10.437   5.911   7.688 -0.2371 -0.2888  0.1352
  506MOL0     C68202  10.559   5.885   7.621  0.4809  1.1319 -0.0858
  506MOL0     C68203  10.677   5.954   7.649  0.3474 -0.7060  0.7505
  506MOL0     C68204  10.797   5.940   7.570  0.3550  0.7979 -0.1738
  506MOL0     O68205  10.906   5.933   7.646  0.4882  0.5495  0.0914
  506MOL0     C68206  11.031   5.962   7.598  0.2245  0.1831 -0.0746
  506MOL0     C68207  11.070   6.034   7.481  0.4800 -0.0107  0.5215
  506MOL0     C68208  11.200   6.025   7.431 -1.0827  0.4531 -0.6659
  506MOL0     C68209  11.301   5.975   7.512 -0.6695  0.0171 -0.7448
  506MOL0     O68210  11.436   5.997   7.481 -1.2250  0.1027 -0.0215
  506MOL0     C68211  11.470   6.064   7.359  0.5944  0.4401 -0.4478
  506MOL0     C68212  11.620   6.072   7.347  0.4609 -0.6356 -0.3151
  506MOL0     C68213  11.653   6.128   7.215  0.0071  0.1191  0.3455
  506MOL0     C68214  11.805   6.117   7.194 -0.5341 -0.7858  0.3761
  506MOL0     C68215  11.850   6.192   7.070 -0.2828  0.0031 -0.3015
  506MOL0     C68216  11.803   6.340   7.043  0.1846  0.4313 -0.4547
  506MOL0     C68217  11.851   6.437   7.156 -0.6092 -0.0176  0.3511
  506MOL0     C68218  11.987   6.501   7.116  0.3378  0.9678 -0.6068
  506MOL0    Cl68219  11.967   6.624   6.986 -0.0826  0.0204  0.2255
  506MOL0     C68220  11.272   5.916   7.629  0.1881  0.2827  0.4762
  506MOL0     C68221  11.134   5.903   7.670  0.0091 -0.4217 -0.9932
  506MOL0     O68222  10.798   5.903   7.454 -0.4349  0.4447 -0.0502
  506MOL0     C68223  10.673   6.044   7.762  0.4801  0.0651 -0.4436
  506MOL0     C68224  10.554   6.060   7.840 -0.5872 -0.4929  0.7855
  506MOL0     N68225   9.692   5.896   8.054  0.2153  1.0650 -0.0276
  506MOL0     N68226   9.566   5.876   8.021  0.2034 -0.1655 -1.2639
  506MOL0     C68227   8.406   5.915   8.334 -1.0967 -0.2295  0.0106
  506MOL0     C68228   8.270   5.933   8.370 -0.4302 -0.5605  0.3573
  506MOL0     C68229   7.872   6.200   8.401  0.1314  0.0929 -0.3767
  506MOL0     C68230   7.869   6.198   8.539  0.0560  0.6449 -0.0795
  506MOL0     C68231   7.754   6.215   8.607  0.7928 -0.3900  0.7466
  506MOL0     C68232   7.632   6.239   8.544  0.2180 -0.4186 -0.2230
  506MOL0     O68233   7.520   6.260   8.615 -1.2001  0.8850 -0.1836
  506MOL0     C68234   7.409   6.342   8.567 -0.6063 -0.4282  0.0555
  506MOL0     C68235   7.294   6.328   8.668 -1.0926  0.1055  0.4355
  506MOL0     C68236   7.161   6.385   8.610  0.7635  0.6215 -0.4527
  506MOL0     C68237   7.039   6.329   8.694 -0.1387 -0.5948 -0.0665
  506MOL0     C68238   6.970   6.422   8.782  0.1250 -0.4154  0.0865
  506MOL0     C68239   6.895   6.491   8.851  0.2413 -0.6332  0.1233
  506MOL0     C68240   7.631   6.239   8.413  0.7235  0.1997  0.7549
  506MOL0     C68241   7.745   6.221   8.339 -0.4534 -0.8855  0.1829
  506MOL0     C68242   7.739   6.243   8.193  0.5420 -0.6226 -0.9699
  506MOL0     H68243   8.248   6.265   8.301 -1.4787 -1.5553  1.9354
  506MOL0     H68244   8.462   6.230   8.241 -0.7390  1.6077  0.8797
  506MOL0     H68245   8.708   5.827   8.238  2.0016  0.5168 -0.4582
  506MOL0     H68246   8.556   5.823   8.144 -0.5992  3.0161  0.0178
  506MOL0     H68247   8.675   5.983   7.966 -0.0288 -1.4953 -1.1947
  506MOL0     H68248   8.764   5.840   7.997 -0.7489 -0.1982 -1.0506
  506MOL0     H68249   8.883   5.957   8.183 -0.1167 -1.3893 -1.6418
  506MOL0     H68250   8.797   6.109   8.131 -0.2804  0.9739 -3.9464
  506MOL0     H68251   8.938   5.965   7.921 -1.3152 -1.1873  0.4360
  506MOL0     H68252   8.907   6.137   7.944 -0.6149  0.2188  0.3509
  506MOL0     H68253   9.087   6.167   8.119 -0.4592 -0.6606  1.1417
  506MOL0     H68254   9.130   5.996   8.104  1.6816 -1.2275 -2.9714
  506MOL0     H68255   9.155   6.059   7.834  0.8992  2.0301 -1.8603
  506MOL0     H68256   9.139   6.210   7.879  2.2639 -0.2692 -3.1960
  506MOL0     H68257   9.346   6.137   8.062 -0.9231  4.7969  0.0022
  506MOL0     H68258   9.360   6.222   7.911 -0.8967 -0.0048 -1.3273
  506MOL0     H68259   9.353   5.914   7.901  0.8008 -0.0552 -0.9603
  506MOL0     H68260   9.422   6.027   7.794 -1.2878  1.0929 -1.1073
  506MOL0     H68261   9.654   6.180   7.904 -1.3180 -2.1304 -2.1236
  506MOL0     H68262   9.895   6.149   8.059  1.4121  0.3045 -3.8847
  506MOL0     H68263   9.924   5.973   8.102  1.7018 -1.7215 -1.4394
  506MOL0     H68264   9.916   5.919   7.859 -2.1429 -1.0871  3.5985
  506MOL0     H68265   9.945   6.091   7.822 -1.0985 -0.1909  0.6297
  506MOL0     H68266  10.114   5.904   8.004  1.5789  1.4441  2.4933
  506MOL0     H68267  10.135   6.074   7.997 -0.9392  1.2024 -0.5133
  506MOL0     H68268  10.177   6.035   7.732  1.3652  2.9998  1.0566
  506MOL0     H68269  10.212   5.866   7.807  0.4753  0.2345  0.5827
  506MOL0     H68270  10.344   5.881   7.641  0.0842  1.6655 -1.9340
  506MOL0     H68271  10.555   5.817   7.537  0.2862  0.1296  0.7181
  506MOL0     H68272  10.990   6.089   7.430 -1.9634 -1.7961  2.1968
  506MOL0     H68273  11.222   6.068   7.333  0.2561  3.3060  0.7589
  506MOL0     H68274  11.428   6.004   7.277 -3.1944 -1.8916  2.8250
  506MOL0     H68275  11.431   6.165   7.344  0.0133  0.4758  1.0817
  506MOL0     H68276  11.661   6.138   7.425  0.5926  1.0806 -1.7635
  506MOL0     H68277  11.663   5.972   7.357 -1.4485 -1.3326  1.7336
  506MOL0     H68278  11.610   6.073   7.130 -1.0310  0.0698  0.8874
  506MOL0     H68279  11.620   6.233   7.214  0.2913  0.2291  1.7939
  506MOL0     H68280  11.831   6.010   7.195  1.7953 -0.2823  0.3982
  506MOL0     H68281  11.854   6.159   7.282 -1.0819  0.2589  0.2018
  506MOL0     H68282  11.820   6.131   6.984  0.7992  0.1687 -0.8194
  506MOL0     H68283  11.959   6.193   7.079 -0.3333  1.9772  0.7632
  506MOL0     H68284  11.841   6.376   6.947 -1.8743  1.0812 -1.0812
  506MOL0     H68285  11.695   6.339   7.030  0.1587 -4.5416 -1.9362
  506MOL0     H68286  11.853   6.383   7.251 -0.0216  0.1094  0.4125
  506MOL0     H68287  11.775   6.515   7.169 -2.1973 -1.2528 -1.0274
  506MOL0     H68288  12.036   6.558   7.195  1.7896  0.7667 -1.3392
  506MOL0     H68289  12.047   6.411   7.104 -2.1698 -1.2692  2.1192
  506MOL0     H68290  11.354   5.867   7.681  0.1462 -0.3574 -0.0512
  506MOL0     H68291  11.122   5.842   7.759 -0.6337  0.4542 -0.4587
  506MOL0     H68292  10.771   6.083   7.787 -0.5945  2.0993  0.9355
  506MOL0     H68293  10.553   6.120   7.931 -1.7832  1.4266 -0.4149
  506MOL0     H68294   8.453   5.817   8.332  1.4800  0.7767  3.3403
  506MOL0     H68295   8.209   5.849   8.401  0.1461 -1.6759 -1.4074
  506MOL0     H68296   7.961   6.178   8.593 -0.1431  0.6802  0.2717
  506MOL0     H68297   7.755   6.227   8.715  0.3340  0.0103  0.7090
  506MOL0     H68298   7.385   6.314   8.464 -0.7902  0.5590 -0.1742
  506MOL0     H68299   7.443   6.445   8.568 -0.6012 -0.4339  0.8161
  506MOL0     H68300   7.323   6.381   8.760 -4.6783  0.6531  1.4129
  506MOL0     H68301   7.281   6.220   8.675  0.1099 -0.3296 -2.6520
  506MOL0     H68302   7.140   6.332   8.516 -1.0302 -0.9231  0.7350
  506MOL0     H68303   7.160   6.494   8.610  1.2028  0.6550 -2.1173
  506MOL0     H68304   6.967   6.273   8.634 -0.4564 -2.9581  2.3157
  506MOL0     H68305   7.069   6.252   8.766 -1.4266 -1.1410 -0.0949
  506MOL0     H68306   6.830   6.561   8.899  0.2110 -0.3696 -0.2962
  506MOL0     H68307   7.543   6.262   8.353  1.0130 -1.4085 -0.3388
  506MOL0     H68308   7.634   6.263   8.171  0.4027  0.3296  0.4372
  506MOL0     H68309   7.795   6.333   8.167  1.8401 -0.6860  1.3126
  506MOL0     H68310   7.773   6.158   8.133  1.1107 -2.6533  2.0081
  507MOL0     O68311   2.995   4.173   6.253 -0.4638 -0.1360  0.4395
  507MOL0     C68312   3.026   4.074   6.177  0.2759 -0.0444 -0.6949
  507MOL0     O68313   2.941   4.016   6.090  0.2045 -0.9922 -0.2702
  507MOL0     C68314   2.819   4.075   6.081  0.6699 -0.4051 -0.9211
  507MOL0     C68315   2.789   4.183   5.994  0.6461  0.1857 -0.5789
  507MOL0     C68316   2.664   4.248   6.003 -0.9443  0.4075 -0.0258
  507MOL0     C68317   2.562   4.196   6.084  0.0281 -0.0952 -0.4191
  507MOL0     O68318   2.437   4.241   6.083  0.3901 -0.8117  0.3122
  507MOL0     C68319   2.419   4.388   6.103  0.5876  0.7065  0.0985
  507MOL0     C68320   2.266   4.428   6.092 -0.4336  0.9801  0.0449
  507MOL0     C68321   2.199   4.336   6.193 -0.8584 -0.1241 -0.1534
  507MOL0     C68322   2.050   4.346   6.188 -0.5170  0.3275 -0.6216
  507MOL0     C68323   1.993   4.473   6.262 -0.8137 -0.0482  0.1369
  507MOL0     C68324   1.952   4.584   6.160 -0.9698 -0.1188  0.2544
  507MOL0     C68325   1.825   4.545   6.074  0.4981 -0.5200  0.1558
  507MOL0     C68326   1.850   4.597   5.923 -0.0880  0.1720 -0.2095
  507MOL0     N68327   1.951   4.522   5.844  0.1883 -0.3010  0.1758
  507MOL0     C68328   1.950   4.384   5.811 -1.2720 -0.4005 -0.0776
  507MOL0     C68329   2.052   4.360   5.722 -0.2754 -0.2852  0.1287
  507MOL0     C68330   2.072   4.243   5.630  0.8534 -0.8418  0.4995
  507MOL0     C68331   2.221   4.201   5.631 -0.3181 -0.3815 -0.2558
  507MOL0     C68332   2.240   4.129   5.760 -1.4461 -0.0374 -1.2913
  507MOL0     C68333   2.378   4.053   5.789  0.4635  0.0621  0.0123
  507MOL0     O68334   2.395   3.952   5.693 -0.4726  0.2414  0.6383
  507MOL0     C68335   2.520   3.887   5.694 -0.3078 -0.2064  0.2487
  507MOL0     C68336   2.539   3.782   5.606  1.4583 -0.5052 -0.0543
  507MOL0     C68337   2.653   3.712   5.594  0.3024  0.2595 -1.2371
  507MOL0     C68338   2.756   3.740   5.683 -0.0036  0.1381 -0.4703
  507MOL0     C68339   2.886   3.669   5.655 -0.5980  0.6373 -0.1413
  507MOL0     O68340   3.006   3.724   5.708  0.7089  0.2604  1.2343
  507MOL0     C68341   3.127   3.656   5.686  0.7019  0.3089 -1.4563
  507MOL0     C68342   3.169   3.592   5.574 -0.1320  0.5113  0.4551
  507MOL0     C68343   3.296   3.541   5.564 -0.3801 -0.7942  0.7068
  507MOL0     C68344   3.391   3.560   5.660 -0.5908 -0.1470 -0.3060
  507MOL0     O68345   3.515   3.511   5.616  0.0269 -0.6796 -0.1988
  507MOL0     C68346   3.626   3.521   5.707 -0.1191  0.6142 -0.7562
  507MOL0     C68347   3.745   3.432   5.655 -0.4129 -0.5447 -0.2584
  507MOL0     C68348   3.842   3.526   5.576 -0.3874 -0.1222 -1.2022
  507MOL0     C68349   3.975   3.461   5.533 -0.2566  0.1634 -0.4633
  507MOL0     C68350   4.078   3.481   5.643 -0.1384  0.1120  0.5643
  507MOL0     C68351   4.185   3.366   5.630 -0.3776 -1.4488 -0.1040
  507MOL0     C68352   4.304   3.390   5.732 -0.0816  0.2785 -0.6606
  507MOL0     C68353   4.425   3.298   5.708  0.2678 -0.5023 -0.1277
  507MOL0    Cl68354   4.568   3.339   5.821 -0.0798 -0.4849  0.6878
  507MOL0     C68355   3.359   3.636   5.777 -0.8204  0.3679  0.0110
  507MOL0     C68356   3.227   3.688   5.784 -0.3349  0.8523  0.1346
  507MOL0     O68357   2.878   3.568   5.588  0.6890 -0.2277  0.0013
  507MOL0     C68358   2.741   3.835   5.785  0.2091 -1.1963 -0.3191
  507MOL0     C68359   2.619   3.901   5.799 -0.4520  0.1380 -0.8357
  507MOL0     N68360   2.125   4.485   5.722  0.7412  1.3290 -0.3302
  507MOL0     N68361   2.056   4.579   5.786  0.5616  0.0433 -0.1809
  507MOL0     C68362   2.591   4.085   6.165 -0.3045  0.3325  0.0694
  507MOL0     C68363   2.717   4.029   6.166  0.1112  0.4517  0.5357
  507MOL0     C68364   3.150   4.000   6.195 -0.1848 -0.4757  0.4917
  507MOL0     C68365   3.162   3.872   6.143 -0.5432  1.0478  0.4298
  507MOL0     C68366   3.283   3.792   6.167  0.0843  0.3187 -0.0560
  507MOL0     C68367   3.391   3.851   6.248 -0.0707  0.2420 -0.7576
  507MOL0     O68368   3.482   3.762   6.286  0.0678  0.0956  0.1654
  507MOL0     C68369   3.584   3.792   6.378 -0.0274 -1.5884 -0.1544
  507MOL0     C68370   3.675   3.678   6.407 -0.4021  0.5523 -0.2439
  507MOL0     C68371   3.598   3.558   6.450  0.0170 -0.1195 -1.1161
  507MOL0     C68372   3.683   3.464   6.522  0.7967 -0.1017 -0.4365
  507MOL0     C68373   3.604   3.348   6.565  0.2050 -0.0998  0.7978
  507MOL0     C68374   3.536   3.247   6.584 -0.7662  0.4530 -0.4975
  507MOL0     C68375   3.380   3.973   6.297 -0.3082  0.4634 -0.0095
  507MOL0     C68376   3.267   4.051   6.257  0.4742 -0.1150  0.9998
  507MOL0     C68377   3.274   4.194   6.295  0.9935 -0.1665 -0.2884
  507MOL0     H68378   2.872   4.220   5.934  2.2182 -1.5279  0.4191
  507MOL0     H68379   2.649   4.342   5.951  0.6137  0.1149 -1.0563
  507MOL0     H68380   2.459   4.422   6.199  1.0967  1.2471 -0.2903
  507MOL0     H68381   2.478   4.448   6.032  1.1016 -1.9530 -1.8537
  507MOL0     H68382   2.232   4.406   5.990 -0.9019  0.0048  0.3972
  507MOL0     H68383   2.260   4.536   6.106  0.6285  1.4701 -2.5908
  507MOL0     H68384   2.241   4.370   6.288  2.0552 -0.4808 -1.2057
  507MOL0     H68385   2.225   4.229   6.191  0.2811  0.1036  1.1694
  507MOL0     H68386   2.017   4.346   6.084 -0.6581 -1.0952 -0.5912
  507MOL0     H68387   2.009   4.275   6.260  4.2161 -0.5880  1.5056
  507MOL0     H68388   1.907   4.437   6.319 -1.0561  0.5624  0.1669
  507MOL0     H68389   2.063   4.515   6.335 -1.9848  2.9389 -0.2834
  507MOL0     H68390   1.937   4.675   6.219 -0.2425  0.5697 -0.6154
  507MOL0     H68391   2.034   4.605   6.091 -0.1880  1.3246  1.5538
  507MOL0     H68392   1.731   4.593   6.106  1.1590  0.5920  0.4895
  507MOL0     H68393   1.805   4.438   6.076 -1.0642 -0.3424 -1.9825
  507MOL0     H68394   1.754   4.587   5.873 -0.3366 -0.6988  0.4227
  507MOL0     H68395   1.885   4.701   5.927  2.1589 -0.4827 -1.4138
  507MOL0     H68396   1.879   4.313   5.852 -0.6967  0.6304  2.9715
  507MOL0     H68397   2.005   4.162   5.659  0.3397 -0.5196  0.2216
  507MOL0     H68398   2.038   4.285   5.535  1.1062  1.1239  1.2414
  507MOL0     H68399   2.240   4.139   5.543  2.5558  3.1633 -2.3897
  507MOL0     H68400   2.281   4.292   5.622 -1.0357 -0.0228 -1.7330
  507MOL0     H68401   2.169   4.045   5.762 -1.8671  0.2606  1.8702
  507MOL0     H68402   2.219   4.184   5.853 -4.8080  0.9104 -2.4712
  507MOL0     H68403   2.379   4.012   5.891  2.4699  1.2933  0.5331
  507MOL0     H68404   2.456   4.129   5.787  1.6270 -1.0855  0.4042
  507MOL0     H68405   2.457   3.742   5.546  0.2077  0.7875  0.7366
  507MOL0     H68406   2.649   3.637   5.516 -0.4489 -0.7211 -0.2858
  507MOL0     H68407   3.103   3.562   5.493 -1.5973  0.0089  1.7710
  507MOL0     H68408   3.319   3.475   5.480 -4.2502 -2.0511  0.4393
  507MOL0     H68409   3.658   3.624   5.723  1.8196 -0.0145 -0.2816
  507MOL0     H68410   3.593   3.471   5.798 -0.7650  0.4349 -1.0832
  507MOL0     H68411   3.792   3.393   5.747  0.1855  1.5657  0.3779
  507MOL0     H68412   3.709   3.341   5.607 -0.5141 -0.0364 -1.1529
  507MOL0     H68413   3.792   3.557   5.484 -1.2463  0.1486 -0.6486
  507MOL0     H68414   3.864   3.621   5.625  0.4032 -0.5808 -0.6499
  507MOL0     H68415   4.024   3.502   5.444  1.7125 -2.7311 -0.8372
  507MOL0     H68416   3.953   3.355   5.522  1.1114 -0.2232  0.4273
  507MOL0     H68417   4.035   3.478   5.744 -0.6540 -1.2205  0.3145
  507MOL0     H68418   4.126   3.579   5.634 -0.0816  0.1907  1.6072
  507MOL0     H68419   4.131   3.277   5.664 -0.3501 -1.7480 -0.8327
  507MOL0     H68420   4.225   3.350   5.529 -0.3897  0.9796 -0.5509
  507MOL0     H68421   4.265   3.379   5.834 -2.5530 -1.8220 -1.7066
  507MOL0     H68422   4.335   3.493   5.712 -3.0442  0.9047 -2.7538
  507MOL0     H68423   4.405   3.193   5.734 -0.8800 -0.1630  0.4476
  507MOL0     H68424   4.444   3.303   5.601  2.7624  2.2863  0.3203
  507MOL0     H68425   3.440   3.663   5.844  0.2777  0.2670 -1.2311
  507MOL0     H68426   3.192   3.743   5.871 -0.7102 -2.7938  2.4865
  507MOL0     H68427   2.826   3.845   5.852  1.8006 -2.3864 -2.0613
  507MOL0     H68428   2.604   3.957   5.891 -3.0646 -1.5689 -0.1289
  507MOL0     H68429   2.511   4.045   6.227 -1.8606  0.9468 -1.4645
  507MOL0     H68430   2.732   3.948   6.236 -0.4870 -1.4233 -1.4196
  507MOL0     H68431   3.081   3.836   6.081 -0.4233  3.3402 -1.1690
  507MOL0     H68432   3.291   3.693   6.123  0.7381 -0.6363  2.0764
  507MOL0     H68433   3.552   3.823   6.478  1.6316 -1.9849  0.5248
  507MOL0     H68434   3.650   3.872   6.342 -1.8138  2.2719  4.0158
  507MOL0     H68435   3.738   3.715   6.488 -0.4772  2.3755 -0.9615
  507MOL0     H68436   3.743   3.654   6.325 -0.0243  0.7204  0.0212
  507MOL0     H68437   3.550   3.503   6.369 -0.3839  0.0844 -1.0158
  507MOL0     H68438   3.527   3.589   6.527  1.9989 -2.1091  1.7135
  507MOL0     H68439   3.758   3.432   6.449  0.7763  0.0008 -0.5015
  507MOL0     H68440   3.736   3.508   6.607  0.6861  0.2470 -0.5471
  507MOL0     H68441   3.474   3.160   6.596  2.6238 -2.4400 -2.1207
  507MOL0     H68442   3.458   4.015   6.360  0.3847 -1.9601  0.8352
  507MOL0     H68443   3.208   4.209   6.381 -1.3946 -0.6565 -1.9586
  507MOL0     H68444   3.374   4.235   6.311  1.1134 -0.1328 -1.0793
  507MOL0     H68445   3.244   4.259   6.212  2.4539 -1.2215 -1.7077
  508MOL0     O68446   2.204   2.780   6.022 -0.0809 -0.0578  0.0986
  508MOL0     C68447   2.252   2.692   6.085 -0.4535  0.6532  0.9720
  508MOL0     O68448   2.176   2.613   6.163  0.1358 -0.1011  0.3739
  508MOL0     C68449   2.046   2.653   6.195 -0.3204 -0.1502  0.1177
  508MOL0     C68450   2.022   2.742   6.295 -1.1188  1.1033  0.5073
  508MOL0     C68451   1.897   2.767   6.349 -0.1121 -0.0119 -0.3810
  508MOL0     C68452   1.794   2.698   6.298  0.2296 -0.2124 -0.2641
  508MOL0     O68453   1.676   2.712   6.369 -0.3919  0.1191 -0.5863
  508MOL0     C68454   1.542   2.664   6.330  0.1846 -0.7524  0.2373
  508MOL0     C68455   1.448   2.729   6.426  0.4108  0.2102 -0.0586
  508MOL0     C68456   1.297   2.705   6.388 -0.6693  0.4223 -0.8603
  508MOL0     C68457   1.261   2.771   6.263 -0.2105 -0.4204  0.3785
  508MOL0     C68458   1.122   2.738   6.227  0.3800  0.2908 -0.3417
  508MOL0     C68459   1.060   2.825   6.105 -0.2688 -0.9174 -1.6467
  508MOL0     C68460   0.917   2.769   6.074  0.1060  0.7544 -0.0372
  508MOL0     C68461   0.832   2.880   6.007 -0.2381 -0.3120 -1.2464
  508MOL0     N68462   0.721   2.821   5.935 -0.1360  0.6877 -0.0632
  508MOL0     C68463   0.592   2.797   5.976 -0.5993  0.9889 -0.2885
  508MOL0     C68464   0.518   2.777   5.867 -0.2624 -0.1111  0.0354
  508MOL0     C68465   0.383   2.728   5.856 -0.8989 -0.7441  0.1366
  508MOL0     C68466   0.290   2.811   5.938  0.8778 -0.2485 -0.1944
  508MOL0     C68467   0.145   2.757   5.928  0.4323 -0.7607 -0.8823
  508MOL0     C68468   0.023   2.843   5.987  0.6690 -0.0826  0.3478
  508MOL0     O68469   0.067   2.896   6.111  0.1466  0.6298  0.1874
  508MOL0     C68470  -0.016   2.976   6.182  0.5716 -0.4667  0.2291
  508MOL0     C68471   0.041   3.054   6.282  0.2110 -0.0381 -0.4600
  508MOL0     C68472  -0.040   3.137   6.356  0.3295 -0.9423 -0.1233
  508MOL0     C68473  -0.180   3.137   6.340  0.3653 -0.6152  0.0396
  508MOL0     C68474  -0.273   3.234   6.396  0.5760  0.2166  0.0835
  508MOL0     O68475  -0.221   3.313   6.489 -0.4732  0.8416  0.3649
  508MOL0     C68476  -0.294   3.387   6.578 -0.4933  0.2583  0.3628
  508MOL0     C68477  -0.433   3.383   6.599 -0.1926  0.0457  0.2608
  508MOL0     C68478  -0.493   3.478   6.679 -0.3757  0.0131  0.1746
  508MOL0     C68479  -0.422   3.580   6.739 -0.2282 -0.0416 -0.3295
  508MOL0     O68480  -0.481   3.690   6.800 -0.0989  0.0391 -0.6785
  508MOL0     C68481  -0.613   3.679   6.845 -0.1224  0.4892 -0.1300
  508MOL0     C68482  -0.642   3.773   6.963 -0.4269  0.6691  0.0405
  508MOL0     C68483  -0.756   3.725   7.044  0.0374  0.0490  0.7084
  508MOL0     C68484  -0.790   3.825   7.164 -0.3256  0.1587 -0.0524
  508MOL0     C68485  -0.935   3.810   7.203  0.1272  0.0578 -1.0714
  508MOL0     C68486  -0.961   3.842   7.355  0.3249  0.2956  0.4072
  508MOL0     C68487  -1.100   3.788   7.410 -1.2798  0.5669  0.5382
  508MOL0     C68488  -1.110   3.645   7.474  0.3858 -0.3447  1.0847
  508MOL0    Cl68489  -1.233   3.551   7.370 -0.2060  0.1197  0.5735
  508MOL0     C68490  -0.283   3.577   6.714 -0.6132  0.5530  0.4867
  508MOL0     C68491  -0.220   3.486   6.630  0.5010 -0.2401  0.5265
  508MOL0     O68492  -0.387   3.242   6.350  0.6795  0.2648 -0.0410
  508MOL0     C68493  -0.235   3.058   6.240  0.4181  0.3352  0.0657
  508MOL0     C68494  -0.156   2.977   6.159  0.8990  1.5468 -0.3897
  508MOL0     N68495   0.600   2.783   5.757 -1.0051  0.2728  0.2176
  508MOL0     N68496   0.718   2.804   5.803 -0.1230  0.5834 -1.0370
  508MOL0     C68497   1.804   2.601   6.203 -0.0101  0.8756  1.0954
  508MOL0     C68498   1.928   2.583   6.143 -0.9347  0.8078  0.3639
  508MOL0     C68499   2.394   2.658   6.063  0.0648  0.1542  1.0735
  508MOL0     C68500   2.446   2.559   6.155 -0.2615 -0.1751  0.8212
  508MOL0     C68501   2.573   2.506   6.129  0.1228  1.1064 -0.3284
  508MOL0     C68502   2.655   2.547   6.028  0.1311 -0.7272  0.0949
  508MOL0     O68503   2.792   2.506   6.018 -0.3679  0.2211 -0.6893
  508MOL0     C68504   2.884   2.563   5.933  0.0742  0.3854 -1.1962
  508MOL0     C68505   2.961   2.680   6.001 -0.4231  0.2080 -0.5450
  508MOL0     C68506   3.037   2.775   5.907 -0.8206 -0.7006  0.2152
  508MOL0     C68507   3.160   2.702   5.844 -0.0759  0.2740 -0.9273
  508MOL0     C68508   3.196   2.774   5.714  1.9329  1.0270  0.3341
  508MOL0     C68509   3.199   2.837   5.612 -0.0507  0.5960  0.5979
  508MOL0     C68510   2.602   2.651   5.945  0.9851  0.3212 -0.0388
  508MOL0     C68511   2.471   2.715   5.958 -0.3657  0.5889  0.3778
  508MOL0     C68512   2.445   2.827   5.856 -0.1460  0.9757 -0.7178
  508MOL0     H68513   2.112   2.789   6.332 -0.5760  0.1588  0.4191
  508MOL0     H68514   1.899   2.841   6.428  0.4501 -2.3633  1.9477
  508MOL0     H68515   1.525   2.706   6.230  1.5349  0.5248  0.5183
  508MOL0     H68516   1.542   2.555   6.323 -0.0403 -0.7367 -0.0469
  508MOL0     H68517   1.467   2.836   6.410 -1.5146  0.6429  0.3153
  508MOL0     H68518   1.470   2.700   6.529 -0.3914 -0.3256 -0.0369
  508MOL0     H68519   1.239   2.739   6.474 -0.1645 -2.7199  0.8941
  508MOL0     H68520   1.260   2.602   6.377 -0.7562  0.5066 -1.3939
  508MOL0     H68521   1.276   2.879   6.273 -0.4428 -0.3326 -0.2180
  508MOL0     H68522   1.322   2.732   6.181 -2.7886 -0.5263 -1.6257
  508MOL0     H68523   1.115   2.629   6.221  1.9629  0.1596 -0.1156
  508MOL0     H68524   1.055   2.760   6.310  1.1972  0.1050  0.3857
  508MOL0     H68525   1.049   2.928   6.140 -0.4070 -1.1789 -0.9200
  508MOL0     H68526   1.111   2.832   6.008  0.8617  0.6868 -0.9808
  508MOL0     H68527   0.879   2.737   6.172  0.8889 -0.7136 -0.1945
  508MOL0     H68528   0.937   2.682   6.011  3.5370 -0.9173  2.9930
  508MOL0     H68529   0.788   2.942   6.085 -1.8183 -1.3694 -1.2423
  508MOL0     H68530   0.895   2.938   5.939  0.0432  0.8926 -0.0052
  508MOL0     H68531   0.549   2.817   6.073 -0.4033 -2.7185  0.7213
  508MOL0     H68532   0.358   2.752   5.752  2.1473  5.4807  0.3382
  508MOL0     H68533   0.374   2.623   5.884 -0.8712 -0.6200  0.6220
  508MOL0     H68534   0.317   2.813   6.043  0.0736 -0.2834  0.0216
  508MOL0     H68535   0.287   2.912   5.898  2.1760 -0.1522 -0.0811
  508MOL0     H68536   0.138   2.658   5.974 -2.7384 -1.2945 -2.3078
  508MOL0     H68537   0.128   2.732   5.823 -1.1876 -1.2608 -0.5196
  508MOL0     H68538  -0.057   2.770   6.002  0.4430  0.1981  0.5018
  508MOL0     H68539   0.000   2.917   5.910  0.2847  3.0445  3.2337
  508MOL0     H68540   0.149   3.049   6.290  0.1552  0.6103  1.0930
  508MOL0     H68541   0.000   3.209   6.426  0.2192 -1.2857  0.2965
  508MOL0     H68542  -0.500   3.316   6.547  0.6792  1.6195 -3.1917
  508MOL0     H68543  -0.599   3.458   6.692 -0.7840 -1.0612 -3.5514
  508MOL0     H68544  -0.678   3.690   6.758 -0.6334 -2.8933 -0.3096
  508MOL0     H68545  -0.629   3.578   6.885 -3.3145  0.7841 -0.4403
  508MOL0     H68546  -0.557   3.768   7.032 -0.7799  1.7475  0.5813
  508MOL0     H68547  -0.659   3.879   6.941 -2.3907  1.1627  3.2097
  508MOL0     H68548  -0.849   3.719   6.986  0.6025  0.0893 -0.2181
  508MOL0     H68549  -0.728   3.627   7.085 -1.0599 -1.1834 -1.2966
  508MOL0     H68550  -0.762   3.927   7.136  1.6668  0.2662  2.0667
  508MOL0     H68551  -0.721   3.798   7.244  0.4305 -0.3958 -0.8626
  508MOL0     H68552  -0.966   3.707   7.183 -1.6907  0.4261 -0.3194
  508MOL0     H68553  -1.008   3.875   7.154 -1.7020 -1.1959 -0.0854
  508MOL0     H68554  -0.882   3.789   7.409  1.1262  0.2020 -0.8036
  508MOL0     H68555  -0.965   3.949   7.377 -1.6080 -0.0032  1.7389
  508MOL0     H68556  -1.175   3.791   7.331  1.4598  0.2281 -2.2272
  508MOL0     H68557  -1.121   3.861   7.489  0.6612  0.4613  1.2143
  508MOL0     H68558  -1.016   3.591   7.486 -1.5093 -3.7473  2.0085
  508MOL0     H68559  -1.163   3.656   7.569 -1.6149  0.1719 -0.0237
  508MOL0     H68560  -0.218   3.647   6.766 -1.2637 -0.2198  2.4555
  508MOL0     H68561  -0.112   3.480   6.614  0.1117 -0.6472 -2.4056
  508MOL0     H68562  -0.340   3.069   6.219  0.7222  0.3303 -1.5896
  508MOL0     H68563  -0.205   2.904   6.095  1.1415 -1.5361  2.6350
  508MOL0     H68564   1.717   2.557   6.154  0.1801  0.2342  1.3200
  508MOL0     H68565   1.936   2.512   6.061  0.3265  2.4280 -0.9869
  508MOL0     H68566   2.374   2.519   6.225 -0.1342  1.6835  2.0684
  508MOL0     H68567   2.619   2.422   6.179 -1.2620 -0.0405 -0.8902
  508MOL0     H68568   2.849   2.587   5.833  2.5417  0.2185 -2.1707
  508MOL0     H68569   2.961   2.485   5.929 -0.2859 -0.2240  1.5225
  508MOL0     H68570   3.028   2.648   6.082  0.1751  1.3357 -0.5702
  508MOL0     H68571   2.871   2.735   6.030 -1.3859 -0.3769 -2.3118
  508MOL0     H68572   3.075   2.870   5.946  0.4921 -0.5728 -1.2535
  508MOL0     H68573   2.969   2.798   5.824  0.4907 -0.1794 -0.7300
  508MOL0     H68574   3.241   2.722   5.914  0.0519 -1.7486 -0.4350
  508MOL0     H68575   3.156   2.596   5.816 -0.3806  0.3981 -1.3614
  508MOL0     H68576   3.230   2.886   5.522  0.4563 -0.5230  0.1410
  508MOL0     H68577   2.669   2.695   5.871  2.0868 -0.4614  0.4849
  508MOL0     H68578   2.476   2.922   5.899  1.7732 -0.5717  1.6122
  508MOL0     H68579   2.508   2.804   5.769 -0.3264 -0.3736 -0.5226
  508MOL0     H68580   2.340   2.828   5.824 -1.2054 -1.7349  2.1466
  509MOL0     O68581   1.716  10.028   1.006  0.1517  0.8271  0.2191
  509MOL0     C68582   1.783  10.032   0.898  0.2726  0.0752 -1.1613
  509MOL0     O68583   1.915  10.063   0.898 -0.1450  0.0069 -0.5867
  509MOL0     C68584   1.997  10.050   1.009  0.1089  0.9882  0.1201
  509MOL0     C68585   1.973   9.963   1.119  0.3463  0.2839  0.3432
  509MOL0     C68586   2.067   9.976   1.226 -0.3048  0.1783 -0.2994
  509MOL0     C68587   2.176  10.063   1.226 -0.1078  0.6143  0.5167
  509MOL0     O68588   2.268  10.079   1.325 -0.3392  0.2274  0.3020
  509MOL0     C68589   2.264  10.003   1.440 -0.5640  0.5663 -0.7059
  509MOL0     C68590   2.388  10.042   1.526 -0.1581  0.7296  0.8636
  509MOL0     C68591   2.380   9.974   1.672  0.2848 -0.4219 -0.1235
  509MOL0     C68592   2.443  10.069   1.766 -0.2823 -0.1996  0.3833
  509MOL0     C68593   2.335  10.180   1.793  0.1421 -0.4617 -0.8301
  509MOL0     C68594   2.381  10.292   1.877 -0.3626  0.1818  0.0143
  509MOL0     C68595   2.256  10.382   1.915 -0.5240  0.3925 -0.1161
  509MOL0     C68596   2.331  10.493   1.992  0.1342  0.1127 -0.1282
  509MOL0     N68597   2.394  10.606   1.915  0.2423  0.1476  0.8297
  509MOL0     C68598   2.320  10.691   1.824 -1.3266  0.2876  1.1150
  509MOL0     C68599   2.406  10.792   1.800  0.7963 -0.7032 -0.2761
  509MOL0     C68600   2.368  10.896   1.710  0.4746 -0.7262  0.1288
  509MOL0     C68601   2.481  10.967   1.637  0.4143 -0.6648 -0.4834
  509MOL0     C68602   2.424  11.077   1.541  0.4055  0.7701  0.2463
  509MOL0     C68603   2.517  11.193   1.526 -0.7054  0.2728  0.3640
  509MOL0     O68604   2.448  11.300   1.447 -0.5895 -0.9384 -0.6166
  509MOL0     C68605   2.348  11.369   1.507 -0.1214 -0.0588 -0.1554
  509MOL0     C68606   2.295  11.474   1.430 -0.0250  0.1742  0.7963
  509MOL0     C68607   2.206  11.553   1.497  0.4106 -0.8909  0.0538
  509MOL0     C68608   2.144  11.532   1.624  0.5338  0.2222  0.4781
  509MOL0     C68609   2.045  11.622   1.676 -0.4002  0.7269  0.6779
  509MOL0     O68610   1.947  11.673   1.589  0.1824  0.4015  0.3676
  509MOL0     C68611   1.847  11.754   1.626 -0.4156 -0.3111 -0.6537
  509MOL0     C68612   1.740  11.755   1.546  0.5656 -0.8293  0.2562
  509MOL0     C68613   1.634  11.846   1.576  1.3076 -0.3649 -1.3627
  509MOL0     C68614   1.645  11.947   1.678 -0.5039  0.0692 -0.5888
  509MOL0     O68615   1.555  12.046   1.700  0.5096  0.5196  0.0052
  509MOL0     C68616   1.408  12.017   1.706 -0.3031 -0.3728 -0.6541
  509MOL0     C68617   1.334  12.146   1.742 -0.1224  0.8496 -0.2669
  509MOL0     C68618   1.176  12.137   1.721 -0.3573 -0.0904  0.9811
  509MOL0     C68619   1.108  12.268   1.776  0.6095 -0.0167 -0.7815
  509MOL0     C68620   0.954  12.256   1.778  1.2552  0.4047 -0.8017
  509MOL0     C68621   0.886  12.388   1.811  0.3351 -0.1532 -0.4154
  509MOL0     C68622   0.728  12.366   1.834 -0.5488 -0.0474 -0.1000
  509MOL0     C68623   0.663  12.315   1.708 -1.1377 -0.1463  0.5847
  509MOL0    Cl68624   0.493  12.361   1.709  0.2796  0.5567 -0.1206
  509MOL0     C68625   1.754  11.946   1.752  0.8968 -0.4368 -0.0073
  509MOL0     C68626   1.851  11.842   1.734  0.5973  0.1047  0.2854
  509MOL0     O68627   2.043  11.630   1.797  0.1822  0.0639  0.2351
  509MOL0     C68628   2.204  11.432   1.697 -0.2583  0.8303 -0.2422
  509MOL0     C68629   2.308  11.347   1.639  1.3477  0.0662  0.1573
  509MOL0     N68630   2.519  10.779   1.877  0.6736 -0.1261 -0.6722
  509MOL0     N68631   2.518  10.662   1.940  0.3372 -0.1671 -0.4897
  509MOL0     C68632   2.197  10.137   1.116 -0.3750 -0.2516  0.3751
  509MOL0     C68633   2.113  10.128   1.008  0.3930 -0.8691  0.0108
  509MOL0     C68634   1.716  10.005   0.766 -0.0773 -0.7927  0.2934
  509MOL0     C68635   1.774  10.068   0.655 -0.3853 -0.7858 -0.3207
  509MOL0     C68636   1.725  10.055   0.527  0.8694  0.7125 -0.0173
  509MOL0     C68637   1.622   9.960   0.513  0.8215  0.4936 -0.0317
  509MOL0     O68638   1.572   9.936   0.390 -0.7788  0.2048  0.1660
  509MOL0     C68639   1.673   9.868   0.314  0.2110 -0.5511 -0.0958
  509MOL0     C68640   1.602   9.820   0.194  0.0247  0.3776 -0.0826
  509MOL0     C68641   1.496   9.713   0.227 -0.2671  0.8154  1.2746
  509MOL0     C68642   1.386   9.708   0.121  0.0024  0.7787 -0.0064
  509MOL0     C68643   1.294   9.595   0.137  0.0708 -0.0071  0.8461
  509MOL0     C68644   1.213   9.506   0.137  0.6335  0.6476 -0.4879
  509MOL0     C68645   1.574   9.888   0.612  0.3061  0.0634 -0.1255
  509MOL0     C68646   1.613   9.913   0.744 -0.5161 -0.2366  0.0725
  509MOL0     C68647   1.548   9.834   0.849  0.2779  0.0688 -0.4189
  509MOL0     H68648   1.884   9.901   1.123 -0.0127  0.8196  0.8570
  509MOL0     H68649   2.040   9.915   1.312 -0.4977  1.2581  0.4250
  509MOL0     H68650   2.167  10.019   1.487 -1.4695  0.6921 -2.5293
  509MOL0     H68651   2.280   9.898   1.413  1.6348  0.4436  0.7901
  509MOL0     H68652   2.386  10.151   1.518  2.2162  0.7874  0.3473
  509MOL0     H68653   2.486  10.014   1.487 -1.7473 -0.4593 -2.8008
  509MOL0     H68654   2.433   9.878   1.675  0.9861 -0.1640 -2.1804
  509MOL0     H68655   2.275   9.958   1.698  0.1395  1.1458  0.3294
  509MOL0     H68656   2.486  10.025   1.857 -0.2592 -2.2800 -0.5820
  509MOL0     H68657   2.527  10.117   1.715 -0.9902  0.7720  0.0985
  509MOL0     H68658   2.283  10.218   1.705 -1.9835  0.0019  0.5527
  509MOL0     H68659   2.256  10.130   1.849  0.7472 -2.2444 -1.5088
  509MOL0     H68660   2.424  10.251   1.968  0.9679  1.0594 -0.2002
  509MOL0     H68661   2.458  10.354   1.831 -1.3204  1.0795 -0.4325
  509MOL0     H68662   2.193  10.321   1.980 -0.2478 -0.8967 -1.0064
  509MOL0     H68663   2.195  10.421   1.833 -2.9631  1.6999  2.1585
  509MOL0     H68664   2.249  10.531   2.054 -1.0724 -0.4148 -1.3375
  509MOL0     H68665   2.411  10.456   2.056  0.6124  1.4623  0.0924
  509MOL0     H68666   2.223  10.664   1.784 -1.2460  0.4522  0.8068
  509MOL0     H68667   2.282  10.871   1.647 -1.7583  0.3237  2.5482
  509MOL0     H68668   2.330  10.979   1.771  1.2309  0.6038 -1.1578
  509MOL0     H68669   2.545  11.011   1.714  0.5186 -3.1024  0.9278
  509MOL0     H68670   2.538  10.901   1.571  3.2073  0.4259  0.6952
  509MOL0     H68671   2.326  11.118   1.564  1.7576  5.1118 -0.8448
  509MOL0     H68672   2.419  11.023   1.446  1.3833  0.1107  0.5496
  509MOL0     H68673   2.604  11.175   1.462 -1.8916  2.7680 -2.1702
  509MOL0     H68674   2.555  11.233   1.620  2.3405 -2.3786  0.4260
  509MOL0     H68675   2.315  11.494   1.325 -1.4609 -0.9789  0.2769
  509MOL0     H68676   2.164  11.641   1.449 -0.0360 -2.0976 -1.8786
  509MOL0     H68677   1.725  11.687   1.463 -0.8731  0.0709 -0.2489
  509MOL0     H68678   1.548  11.837   1.510  0.8969 -0.7160 -0.8034
  509MOL0     H68679   1.373  11.993   1.606  1.4226  3.7620 -2.4853
  509MOL0     H68680   1.393  11.935   1.777  1.9361 -0.0161  0.3369
  509MOL0     H68681   1.357  12.164   1.848  1.0868  0.6068 -0.4718
  509MOL0     H68682   1.378  12.216   1.671 -0.2707 -0.9775 -2.2594
  509MOL0     H68683   1.153  12.115   1.616  2.5148  0.2341  0.1896
  509MOL0     H68684   1.138  12.049   1.774 -1.8337 -0.3388 -0.4229
  509MOL0     H68685   1.120  12.346   1.701  1.2474  0.4195 -0.2404
  509MOL0     H68686   1.155  12.296   1.871 -1.2904  1.7661 -0.3014
  509MOL0     H68687   0.923  12.176   1.846  1.4821  0.5908 -0.4712
  509MOL0     H68688   0.928  12.236   1.674  0.1106 -0.2726 -0.4031
  509MOL0     H68689   0.928  12.425   1.905  1.7812 -1.2486 -0.5916
  509MOL0     H68690   0.907  12.461   1.733 -2.8892  1.5349  0.0883
  509MOL0     H68691   0.680  12.461   1.856 -1.4152 -0.8694  1.7947
  509MOL0     H68692   0.698  12.305   1.920  0.9937  0.7642  1.0803
  509MOL0     H68693   0.711  12.352   1.617 -0.0442  0.4649  1.3757
  509MOL0     H68694   0.674  12.206   1.701  2.7554  0.1543 -0.3752
  509MOL0     H68695   1.763  12.029   1.822  0.2956 -0.6091  0.2768
  509MOL0     H68696   1.935  11.833   1.802 -0.8493  0.7252  2.2594
  509MOL0     H68697   2.166  11.417   1.797  2.8253 -3.0567  0.6161
  509MOL0     H68698   2.349  11.261   1.691  3.4776 -1.1991 -3.2950
  509MOL0     H68699   2.279  10.209   1.115 -1.1210  0.6208 -1.1346
  509MOL0     H68700   2.136  10.194   0.925  0.7269 -0.3463  0.5126
  509MOL0     H68701   1.855  10.139   0.672 -1.9889  0.9079  0.6644
  509MOL0     H68702   1.761  10.111   0.440  2.6178 -0.4690 -0.1176
  509MOL0     H68703   1.713   9.785   0.373  1.3963  0.9845  1.3850
  509MOL0     H68704   1.746   9.943   0.282 -1.0293  1.6450  1.8518
  509MOL0     H68705   1.666   9.774   0.118 -0.2530  0.9705 -0.6875
  509MOL0     H68706   1.550   9.905   0.150 -0.5098 -0.2808 -0.7397
  509MOL0     H68707   1.446   9.733   0.322 -2.0451  1.4276  0.2441
  509MOL0     H68708   1.549   9.618   0.228 -1.4035  0.1758  1.8629
  509MOL0     H68709   1.323   9.797   0.115  0.6981  1.1771 -2.0805
  509MOL0     H68710   1.421   9.697   0.018 -0.9631  0.6399 -0.3353
  509MOL0     H68711   1.145   9.424   0.134 -0.1014  1.2065  0.4153
  509MOL0     H68712   1.499   9.817   0.580 -2.7403  2.6658  0.7052
  509MOL0     H68713   1.480   9.906   0.895  1.8565  2.4629 -1.6104
  509MOL0     H68714   1.482   9.761   0.801 -0.1483  0.4512 -0.4187
  509MOL0     H68715   1.618   9.776   0.910  0.7256 -0.4694 -1.4169
  510MOL0     O68716   2.920  10.519   7.056  0.2712 -0.1299 -0.4430
  510MOL0     C68717   2.959  10.448   7.153  0.1195 -0.0758  0.3019
  510MOL0     O68718   3.085  10.450   7.202  0.3744  0.2185 -0.7860
  510MOL0     C68719   3.185  10.516   7.139 -0.9830 -0.1949  0.5433
  510MOL0     C68720   3.282  10.589   7.215 -0.3994 -0.7527 -0.5220
  510MOL0     C68721   3.395  10.632   7.153  0.5281  0.2883  0.2564
  510MOL0     C68722   3.423  10.606   7.023  0.1073 -0.5336 -0.4705
  510MOL0     O68723   3.550  10.645   6.987  0.6439 -0.1195 -0.1318
  510MOL0     C68724   3.620  10.580   6.884 -0.5828 -0.0821 -0.1597
  510MOL0     C68725   3.769  10.634   6.875  0.5793 -0.2116  0.5161
  510MOL0     C68726   3.847  10.564   6.762  1.0053 -0.5643  0.0206
  510MOL0     C68727   3.987  10.624   6.755 -0.4339  0.7703 -0.4024
  510MOL0     C68728   4.080  10.521   6.674  0.0784  0.6770  0.2326
  510MOL0     C68729   4.204  10.593   6.602 -0.3212 -0.7201 -0.7110
  510MOL0     C68730   4.300  10.490   6.545 -0.3355  0.5556  0.2587
  510MOL0     C68731   4.416  10.432   6.637 -0.4441  0.8997  0.7077
  510MOL0     N68732   4.365  10.338   6.741 -0.1087 -0.1146 -0.8580
  510MOL0     C68733   4.289  10.226   6.718 -0.2189  0.1421  0.3268
  510MOL0     C68734   4.281  10.160   6.838  0.2627  0.5966 -0.1626
  510MOL0     C68735   4.212  10.025   6.852 -0.3188 -0.5374 -0.3285
  510MOL0     C68736   4.321   9.928   6.864 -0.6198  0.6722  0.3319
  510MOL0     C68737   4.274   9.780   6.866 -0.0192 -0.3841 -0.6071
  510MOL0     C68738   4.197   9.739   6.985  0.0564  0.7308  0.6918
  510MOL0     O68739   4.292   9.716   7.095  0.6017  0.6031 -0.2829
  510MOL0     C68740   4.364   9.596   7.104 -0.1514 -0.6996 -0.7210
  510MOL0     C68741   4.373   9.507   7.003  0.1251 -0.0194  0.3344
  510MOL0     C68742   4.452   9.392   7.020 -0.4188  0.2830  0.0330
  510MOL0     C68743   4.512   9.363   7.148  0.0915  0.0786 -0.6405
  510MOL0     C68744   4.572   9.235   7.171 -0.4168  0.8696 -0.2548
  510MOL0     O68745   4.601   9.194   7.300  0.0138  0.7599 -0.0045
  510MOL0     C68746   4.669   9.074   7.313  0.2513  0.2307 -0.7549
  510MOL0     C68747   4.809   9.067   7.311 -0.7314  0.2733 -0.0384
  510MOL0     C68748   4.862   8.936   7.344  0.8179 -0.8697  0.0017
  510MOL0     C68749   4.778   8.824   7.366  0.2389 -0.2934 -0.4200
  510MOL0     O68750   4.843   8.704   7.384  0.3871  0.2714  0.7125
  510MOL0     C68751   4.804   8.601   7.296  0.0154  0.2066 -0.2485
  510MOL0     C68752   4.902   8.502   7.244  0.0604 -0.2146  0.1524
  510MOL0     C68753   4.993   8.574   7.143 -0.1091 -1.0874  0.5385
  510MOL0     C68754   5.133   8.520   7.173 -0.3483  0.0392 -0.3849
  510MOL0     C68755   5.232   8.579   7.084 -0.5563 -0.2792  0.4188
  510MOL0     C68756   5.378   8.534   7.126  0.5322 -0.1279  0.5603
  510MOL0     C68757   5.413   8.384   7.111  0.3871  0.8492  1.3723
  510MOL0     C68758   5.437   8.354   6.954 -0.5011 -1.1156 -0.4217
  510MOL0    Cl68759   5.561   8.466   6.871  0.2191 -0.2804 -0.0544
  510MOL0     C68760   4.637   8.843   7.358 -0.4961 -0.4076  0.1480
  510MOL0     C68761   4.585   8.967   7.339 -0.3467 -0.0485  0.1121
  510MOL0     O68762   4.595   9.168   7.071 -0.7891  0.0003 -0.6415
  510MOL0     C68763   4.511   9.469   7.248  0.9274  0.4645 -0.4389
  510MOL0     C68764   4.425   9.580   7.225  0.6553  0.2855 -0.0195
  510MOL0     N68765   4.355  10.230   6.933  0.8949  0.0202  0.4471
  510MOL0     N68766   4.398  10.343   6.876 -0.0083  0.3854  0.5379
  510MOL0     C68767   3.326  10.525   6.946  0.3197 -0.1347 -0.5067
  510MOL0     C68768   3.205  10.489   7.001  0.2364  0.3615 -0.3487
  510MOL0     C68769   2.859  10.370   7.236  0.7057 -0.0518  0.4368
  510MOL0     C68770   2.896  10.329   7.363 -0.0375 -0.1171  0.3828
  510MOL0     C68771   2.805  10.283   7.460  0.2908 -0.0071 -0.6657
  510MOL0     C68772   2.675  10.266   7.420  0.4179 -0.0545 -0.1924
  510MOL0     O68773   2.589  10.205   7.504  0.3401 -0.0039 -0.3419
  510MOL0     C68774   2.503  10.290   7.563  0.1756 -0.5124  0.2433
  510MOL0     C68775   2.388  10.202   7.634  0.7930  0.2408  0.1802
  510MOL0     C68776   2.279  10.163   7.517 -0.6546  0.3672 -0.4456
  510MOL0     C68777   2.164  10.078   7.569 -0.4470  0.0920  0.2407
  510MOL0     C68778   2.211   9.950   7.631 -0.1714 -0.6003  0.2611
  510MOL0     C68779   2.256   9.848   7.688  0.1075 -0.2137 -0.2193
  510MOL0     C68780   2.640  10.297   7.288  0.5895 -0.1162  0.5070
  510MOL0     C68781   2.722  10.358   7.194  0.5084 -0.3761 -0.7436
  510MOL0     C68782   2.659  10.394   7.062 -0.7652  1.0069  0.4850
  510MOL0     H68783   3.255  10.615   7.317 -0.6028 -1.2999 -0.4321
  510MOL0     H68784   3.465  10.678   7.222 -0.3155 -1.3942  2.3340
  510MOL0     H68785   3.622  10.472   6.903 -0.4159  0.4163  3.2359
  510MOL0     H68786   3.571  10.604   6.789 -1.9861 -1.7657  0.0774
  510MOL0     H68787   3.822  10.619   6.969 -0.9638 -3.7948  0.9770
  510MOL0     H68788   3.765  10.741   6.854 -0.5496 -0.5478 -1.1819
  510MOL0     H68789   3.802  10.587   6.664  0.5625  0.2304  0.3935
  510MOL0     H68790   3.840  10.457   6.779  0.4818 -1.0434 -2.7164
  510MOL0     H68791   3.984  10.721   6.706 -1.5126  1.1744  0.4323
  510MOL0     H68792   4.029  10.639   6.855 -0.7885 -2.1099  0.2819
  510MOL0     H68793   4.115  10.441   6.739  0.2511  1.9548  1.7847
  510MOL0     H68794   4.018  10.475   6.597  0.1879  2.1365 -0.7768
  510MOL0     H68795   4.163  10.657   6.523 -1.5519 -2.6171 -1.6717
  510MOL0     H68796   4.269  10.652   6.668  0.7748 -0.4374 -1.9849
  510MOL0     H68797   4.343  10.535   6.456 -1.1884  2.6567  0.8526
  510MOL0     H68798   4.230  10.413   6.511 -0.4297  1.1152 -0.8400
  510MOL0     H68799   4.481  10.377   6.568 -1.9996 -0.4621  0.2680
  510MOL0     H68800   4.469  10.513   6.688 -0.0303  2.2135 -1.6446
  510MOL0     H68801   4.251  10.198   6.620 -0.5607  0.8401  0.2535
  510MOL0     H68802   4.149  10.022   6.941  0.9091 -2.3313  0.5286
  510MOL0     H68803   4.135  10.009   6.776 -2.5331 -0.1847  1.7182
  510MOL0     H68804   4.394   9.940   6.783 -0.7469  0.5535  0.1984
  510MOL0     H68805   4.375   9.945   6.958  3.1538  0.5113 -1.6179
  510MOL0     H68806   4.367   9.722   6.854 -0.4915 -1.0771 -0.9859
  510MOL0     H68807   4.205   9.769   6.782  1.4857 -2.3616 -1.6844
  510MOL0     H68808   4.135   9.651   6.972 -1.1321  1.5839  0.4015
  510MOL0     H68809   4.122   9.815   7.012 -2.7390 -2.5562  2.9859
  510MOL0     H68810   4.319   9.526   6.911 -1.1415  2.0544  1.4426
  510MOL0     H68811   4.438   9.310   6.951 -5.9790 -0.7517  1.8565
  510MOL0     H68812   4.875   9.153   7.306 -2.8296  1.9334 -0.6703
  510MOL0     H68813   4.967   8.913   7.356  1.4803  1.8252 -0.1830
  510MOL0     H68814   4.724   8.538   7.336  1.2721 -2.1730 -1.2747
  510MOL0     H68815   4.754   8.646   7.210  0.6189  0.0628 -0.6814
  510MOL0     H68816   4.953   8.461   7.331  2.3762  0.1022 -0.9904
  510MOL0     H68817   4.845   8.420   7.198  0.8336  1.1603 -3.6175
  510MOL0     H68818   4.961   8.553   7.041  0.3388  2.5405 -0.4933
  510MOL0     H68819   5.002   8.683   7.149  1.2679 -1.2322  1.8047
  510MOL0     H68820   5.131   8.412   7.161 -0.2284 -0.1342  0.9794
  510MOL0     H68821   5.155   8.550   7.276  1.0217  0.4722 -0.7847
  510MOL0     H68822   5.213   8.686   7.100 -1.4224 -0.7818  3.1707
  510MOL0     H68823   5.227   8.548   6.979  1.1107 -0.8957  0.4921
  510MOL0     H68824   5.456   8.587   7.071  0.8308  0.7700  1.8065
  510MOL0     H68825   5.399   8.564   7.229  2.3758  0.7557 -0.0167
  510MOL0     H68826   5.332   8.324   7.153  1.3619 -1.5676 -0.0211
  510MOL0     H68827   5.503   8.356   7.167  1.8706 -0.4675 -1.4807
  510MOL0     H68828   5.482   8.254   6.949  2.0590 -0.2408  2.6358
  510MOL0     H68829   5.347   8.347   6.891 -0.1577 -3.7459 -0.7502
  510MOL0     H68830   4.568   8.761   7.379  0.8286 -1.1560  1.8646
  510MOL0     H68831   4.480   8.994   7.335 -0.2534  0.1235 -2.0142
  510MOL0     H68832   4.564   9.484   7.341  2.5045 -0.0713 -1.2133
  510MOL0     H68833   4.418   9.664   7.295 -0.9009  0.1850 -0.0127
  510MOL0     H68834   3.348  10.496   6.844  2.9439  1.7385 -0.5861
  510MOL0     H68835   3.131  10.437   6.941 -3.6246  3.2382  1.4099
  510MOL0     H68836   2.999  10.342   7.393 -0.4855  1.2680  1.4325
  510MOL0     H68837   2.829  10.257   7.562 -2.2317 -3.1614 -0.7436
  510MOL0     H68838   2.461  10.361   7.491  2.1278 -0.9335 -1.3855
  510MOL0     H68839   2.559  10.348   7.637  1.8066 -2.4070  0.5559
  510MOL0     H68840   2.333  10.262   7.707 -0.7686  1.6009 -2.0031
  510MOL0     H68841   2.422  10.105   7.671 -1.5897 -1.5572 -1.9899
  510MOL0     H68842   2.324  10.100   7.439  0.1804  0.8141 -0.3403
  510MOL0     H68843   2.246  10.252   7.463  1.0218  0.1625 -1.8946
  510MOL0     H68844   2.099  10.137   7.633 -0.1637  0.8543 -0.1614
  510MOL0     H68845   2.103  10.058   7.480 -0.3750  1.4721 -0.1345
  510MOL0     H68846   2.311   9.763   7.724  0.7325  0.5761  0.7443
  510MOL0     H68847   2.535  10.280   7.265  0.8175  0.6398 -1.2023
  510MOL0     H68848   2.563  10.343   7.047  0.6244 -0.8780 -3.2923
  510MOL0     H68849   2.644  10.502   7.056 -1.3799  0.9112  0.2684
  510MOL0     H68850   2.728  10.364   6.983 -1.1894  0.4786  0.3075
  511MOL0     O68851   6.856   8.324   8.582 -0.4043  0.3459 -0.4482
  511MOL0     C68852   6.909   8.211   8.582 -0.9680  0.5118  0.5904
  511MOL0     O68853   6.846   8.098   8.608 -0.1440  0.7135  0.7338
  511MOL0     C68854   6.713   8.099   8.635  0.4344 -1.2575  0.3404
  511MOL0     C68855   6.680   8.060   8.764 -0.4607 -0.1997 -0.0661
  511MOL0     C68856   6.547   8.075   8.809 -0.3056  0.1476 -0.0296
  511MOL0     C68857   6.449   8.121   8.714  0.0165  0.9031 -0.1010
  511MOL0     O68858   6.315   8.138   8.748 -0.0879 -0.1533  0.5340
  511MOL0     C68859   6.290   8.171   8.887 -0.6285 -0.2622  0.2802
  511MOL0     C68860   6.155   8.246   8.919  0.0800 -0.4855  0.3553
  511MOL0     C68861   6.179   8.382   8.843  0.2982  0.5921  0.1165
  511MOL0     C68862   6.052   8.462   8.845  0.1817  0.0243  0.5046
  511MOL0     C68863   6.046   8.543   8.985 -0.3818 -0.1432  0.0828
  511MOL0     C68864   6.117   8.673   8.981  0.0952  0.4414 -0.1903
  511MOL0     C68865   6.105   8.727   9.119 -0.0427 -0.9777 -0.2493
  511MOL0     C68866   6.104   8.882   9.114 -0.0974  0.3634 -0.2260
  511MOL0     N68867   6.080   8.944   9.241 -0.1142  0.2038 -0.1531
  511MOL0     C68868   5.971   8.925   9.320 -0.0730  0.1243 -0.1206
  511MOL0     C68869   5.975   9.018   9.415  0.5669  0.2670 -0.4417
  511MOL0     C68870   5.885   9.062   9.533  0.6084  0.1491  0.3712
  511MOL0     C68871   5.735   9.076   9.497 -0.6995  0.1277 -0.1079
  511MOL0     C68872   5.718   9.204   9.401  0.3151 -0.2720 -0.9426
  511MOL0     C68873   5.575   9.244   9.371  0.2291 -0.5387  0.3116
  511MOL0     O68874   5.571   9.380   9.331 -0.2351  0.2181 -0.8489
  511MOL0     C68875   5.459   9.437   9.282 -0.2176 -1.1885  0.0036
  511MOL0     C68876   5.337   9.372   9.275 -0.1419  0.0621  0.0447
  511MOL0     C68877   5.218   9.427   9.226  1.0027  0.9885 -0.2186
  511MOL0     C68878   5.222   9.556   9.193 -0.3989 -0.6196 -0.2461
  511MOL0     C68879   5.099   9.629   9.168  0.0551  0.0915 -1.0097
  511MOL0     O68880   4.982   9.561   9.194  0.0788  0.3454  0.1521
  511MOL0     C68881   4.865   9.613   9.150 -0.4699 -1.0710 -0.0826
  511MOL0     C68882   4.769   9.636   9.244  0.3006  0.2969 -0.4457
  511MOL0     C68883   4.644   9.679   9.212 -0.4799 -0.9996  0.3553
  511MOL0     C68884   4.607   9.695   9.081 -0.5754 -0.8518 -0.6747
  511MOL0     O68885   4.482   9.742   9.060 -0.6509  0.0264  0.7335
  511MOL0     C68886   4.414   9.718   8.934 -0.2924 -0.7564 -0.9871
  511MOL0     C68887   4.268   9.748   8.936  0.0224 -0.1849 -0.3319
  511MOL0     C68888   4.198   9.631   9.012  0.5919 -0.7662 -0.7621
  511MOL0     C68889   4.052   9.671   9.040 -0.3386 -0.2189 -0.0727
  511MOL0     C68890   3.970   9.566   9.115  0.4834  0.1691 -0.7336
  511MOL0     C68891   3.821   9.627   9.126  0.0697 -0.6817 -0.6559
  511MOL0     C68892   3.713   9.541   9.189 -0.6429  0.5201  0.3304
  511MOL0     C68893   3.576   9.605   9.210  0.5285 -0.2154 -0.0339
  511MOL0    Cl68894   3.584   9.765   9.296  0.5994  0.1888  0.1991
  511MOL0     C68895   4.701   9.663   8.979  0.3222  0.2144 -0.0373
  511MOL0     C68896   4.837   9.623   9.015 -0.3062  0.3796  0.1144
  511MOL0     O68897   5.103   9.744   9.118  0.6046 -0.5068  0.5378
  511MOL0     C68898   5.348   9.631   9.196 -0.7109 -0.5792 -0.0782
  511MOL0     C68899   5.468   9.572   9.236 -0.4005  0.2315  0.8412
  511MOL0     N68900   6.097   9.087   9.406  0.2663  0.0850  0.9087
  511MOL0     N68901   6.154   9.043   9.300  1.3638  0.4654  0.1701
  511MOL0     C68902   6.484   8.147   8.581  0.6828 -0.2921 -0.2388
  511MOL0     C68903   6.613   8.138   8.544 -0.0195 -0.4007 -0.2960
  511MOL0     C68904   7.053   8.209   8.537 -0.1400 -0.7002 -0.8382
  511MOL0     C68905   7.112   8.087   8.553 -0.0563 -0.1804 -0.0238
  511MOL0     C68906   7.255   8.067   8.551  0.7117  0.2125  0.5355
  511MOL0     C68907   7.333   8.170   8.503 -0.6394  0.5588 -1.0832
  511MOL0     O68908   7.467   8.184   8.509  0.3629  0.2224  0.2860
  511MOL0     C68909   7.542   8.069   8.460 -0.4468  0.2816  0.1489
  511MOL0     C68910   7.610   8.112   8.327 -0.2054 -0.7648  0.1164
  511MOL0     C68911   7.503   8.164   8.224 -0.8135 -0.1640 -0.5063
  511MOL0     C68912   7.565   8.205   8.086  0.3842 -0.0797  0.4550
  511MOL0     C68913   7.634   8.335   8.114 -0.2210 -0.2774  0.9424
  511MOL0     C68914   7.696   8.441   8.125  1.2631 -0.3438  0.4058
  511MOL0     C68915   7.272   8.287   8.462 -0.3439  0.9935 -0.1455
  511MOL0     C68916   7.137   8.314   8.475 -0.3137  1.1776 -0.9369
  511MOL0     C68917   7.085   8.450   8.440  0.3600 -0.5124 -1.2256
  511MOL0     H68918   6.751   8.019   8.834 -1.8477 -0.6827  1.1064
  511MOL0     H68919   6.515   8.057   8.911  1.1570  0.9994  0.6074
  511MOL0     H68920   6.287   8.079   8.946  2.6823  0.2779  1.5266
  511MOL0     H68921   6.372   8.219   8.942 -0.4346 -0.6154  0.3004
  511MOL0     H68922   6.151   8.262   9.027  0.5519 -2.7500  0.7528
  511MOL0     H68923   6.062   8.199   8.884 -0.5409  1.4196 -0.7014
  511MOL0     H68924   6.205   8.348   8.742  2.4269 -0.3499  0.9239
  511MOL0     H68925   6.256   8.444   8.889 -1.4168  3.2845 -0.3655
  511MOL0     H68926   6.070   8.538   8.769  1.4060 -0.8929 -0.1469
  511MOL0     H68927   5.964   8.404   8.818  0.7357 -0.6854  0.2040
  511MOL0     H68928   5.941   8.559   9.009 -1.2071 -1.9150 -2.0485
  511MOL0     H68929   6.084   8.472   9.059 -0.9037 -1.9927 -1.3536
  511MOL0     H68930   6.222   8.657   8.954  0.5561  1.6314  0.8180
  511MOL0     H68931   6.067   8.735   8.906 -1.3791 -1.8449 -1.2040
  511MOL0     H68932   6.187   8.688   9.179  0.0617 -0.3390  0.0376
  511MOL0     H68933   6.014   8.705   9.175  0.9220  1.2475  2.4457
  511MOL0     H68934   6.197   8.922   9.074  1.7144  0.2275  3.4216
  511MOL0     H68935   6.020   8.918   9.054  0.7603  2.9786  0.0128
  511MOL0     H68936   5.887   8.859   9.304  0.5999 -0.1500 -3.2396
  511MOL0     H68937   5.886   8.995   9.619  2.7018 -0.0477  0.2483
  511MOL0     H68938   5.922   9.155   9.578  0.5105 -0.3545  1.5377
  511MOL0     H68939   5.704   8.981   9.451 -0.4148  0.7582 -1.6470
  511MOL0     H68940   5.680   9.093   9.590 -0.8643  0.9771 -0.3501
  511MOL0     H68941   5.766   9.190   9.303  2.3156  2.9973 -0.5883
  511MOL0     H68942   5.759   9.286   9.461  0.5854 -3.3027  3.4923
  511MOL0     H68943   5.515   9.250   9.462 -0.4371  1.5499 -0.2097
  511MOL0     H68944   5.551   9.183   9.283 -0.6226  1.1272 -0.6634
  511MOL0     H68945   5.326   9.267   9.303 -4.0774  0.5541  0.8182
  511MOL0     H68946   5.129   9.364   9.220  0.9038  1.0517  0.4999
  511MOL0     H68947   4.788   9.625   9.351  1.1516 -0.2409 -0.6407
  511MOL0     H68948   4.571   9.685   9.293  1.4666  1.3572  2.0846
  511MOL0     H68949   4.468   9.769   8.853 -0.1090  0.0287 -0.3873
  511MOL0     H68950   4.433   9.611   8.920 -0.3005 -1.0826  1.1586
  511MOL0     H68951   4.246   9.830   9.005 -0.3293  0.9838 -1.7783
  511MOL0     H68952   4.215   9.757   8.841 -1.1486  1.6761  0.4197
  511MOL0     H68953   4.205   9.540   8.951 -0.1208 -0.9160 -0.6236
  511MOL0     H68954   4.241   9.613   9.111 -3.0497 -0.2007  1.0734
  511MOL0     H68955   4.001   9.693   8.945  1.9703  1.3199 -1.0307
  511MOL0     H68956   4.047   9.758   9.106 -3.0410  0.3798 -0.9117
  511MOL0     H68957   4.022   9.559   9.210  0.5366  0.3753 -0.7476
  511MOL0     H68958   3.967   9.474   9.055 -2.0541  0.3262 -0.9856
  511MOL0     H68959   3.831   9.716   9.190  1.2692 -1.1877 -0.1104
  511MOL0     H68960   3.784   9.660   9.029 -3.7955 -1.0403  0.5269
  511MOL0     H68961   3.745   9.500   9.286 -3.7886  0.0300  1.3036
  511MOL0     H68962   3.689   9.454   9.127 -1.9845 -1.8770  3.8377
  511MOL0     H68963   3.533   9.619   9.110 -2.2946 -0.2619  1.1050
  511MOL0     H68964   3.514   9.539   9.271  0.3610  2.5676  3.0989
  511MOL0     H68965   4.680   9.661   8.873  0.0436 -1.1317  0.0275
  511MOL0     H68966   4.908   9.590   8.941 -0.9249  0.0646 -0.3502
  511MOL0     H68967   5.363   9.736   9.174 -1.1006  0.1941  2.9038
  511MOL0     H68968   5.572   9.600   9.244 -0.7146  1.5849  0.4299
  511MOL0     H68969   6.402   8.185   8.521  0.8005  0.0823 -0.1616
  511MOL0     H68970   6.637   8.177   8.446 -0.2093 -0.4866 -0.3751
  511MOL0     H68971   7.043   8.010   8.587 -2.0814  1.6186  0.1658
  511MOL0     H68972   7.302   7.974   8.580 -1.1772 -1.9108 -2.5913
  511MOL0     H68973   7.476   7.985   8.439 -0.7519  0.2120  1.3166
  511MOL0     H68974   7.617   8.059   8.539  1.4239  4.0473 -0.8915
  511MOL0     H68975   7.654   8.023   8.283  1.5811  0.3267 -0.4082
  511MOL0     H68976   7.683   8.194   8.339 -1.4850  0.9093 -2.5006
  511MOL0     H68977   7.446   8.247   8.266  0.6919  0.9203 -0.5261
  511MOL0     H68978   7.441   8.077   8.202 -0.8384  0.0847 -1.4474
  511MOL0     H68979   7.638   8.132   8.052  0.3279 -1.0538  2.3047
  511MOL0     H68980   7.489   8.221   8.008 -0.1886 -0.6584  0.8841
  511MOL0     H68981   7.768   8.519   8.138  3.2010 -1.5604 -1.9606
  511MOL0     H68982   7.343   8.360   8.427 -0.5555  0.0377 -2.7683
  511MOL0     H68983   7.032   8.490   8.527 -0.0622 -0.0578 -1.6813
  511MOL0     H68984   7.165   8.519   8.411  1.1899 -0.4079  1.1402
  511MOL0     H68985   7.011   8.436   8.360 -1.1492 -0.7933  0.1653
  512MOL0     O68986   5.672   3.292  10.203 -0.0957 -0.4573 -0.8238
  512MOL0     C68987   5.638   3.175  10.217  0.3466 -0.4123 -0.2063
  512MOL0     O68988   5.710   3.078  10.281  0.3542 -0.6029  0.7306
  512MOL0     C68989   5.831   3.088  10.339  0.1530  0.1671 -0.0205
  512MOL0     C68990   5.954   3.111  10.278  0.3016  0.3344 -0.2699
  512MOL0     C68991   6.074   3.118  10.346 -0.1841  0.0934  0.0479
  512MOL0     C68992   6.078   3.101  10.479  0.6711  0.8696 -0.1940
  512MOL0     O68993   6.187   3.121  10.563 -0.2036  0.2687 -0.3751
  512MOL0     C68994   6.296   3.177  10.491  0.4135  0.3283 -0.1960
  512MOL0     C68995   6.407   3.194  10.594  0.4498  0.4390  0.1530
  512MOL0     C68996   6.513   3.279  10.521 -0.3591 -0.1341 -0.0007
  512MOL0     C68997   6.645   3.298  10.601 -1.3336 -0.4449 -0.5514
  512MOL0     C68998   6.772   3.321  10.521 -0.8276 -0.1723  0.2864
  512MOL0     C68999   6.761   3.460  10.456  0.1696 -0.1169  0.1273
  512MOL0     C69000   6.902   3.522  10.422 -0.5960 -1.0330  0.2960
  512MOL0     C69001   6.951   3.476  10.291 -0.8770 -0.2384  0.4251
  512MOL0     N69002   7.079   3.545  10.249  0.3396 -0.4394 -1.1340
  512MOL0     C69003   7.171   3.599  10.337  0.5945  0.1082  0.3115
  512MOL0     C69004   7.279   3.620  10.268 -0.4155  0.6035 -0.3908
  512MOL0     C69005   7.408   3.671  10.328 -0.2653 -0.1803 -0.1933
  512MOL0     C69006   7.409   3.827  10.368 -0.2557 -0.1882 -0.5001
  512MOL0     C69007   7.337   3.924  10.271  0.1927  0.1086  1.0811
  512MOL0     C69008   7.410   3.936  10.135 -0.3230  0.1017  1.1124
  512MOL0     O69009   7.549   3.971  10.141  0.5317  0.7786 -0.5614
  512MOL0     C69010   7.577   4.086  10.207  0.1577 -0.7603  0.1074
  512MOL0     C69011   7.710   4.097  10.246 -0.3420 -0.3581  0.1787
  512MOL0     C69012   7.754   4.209  10.314  1.0737  0.0399 -0.2037
  512MOL0     C69013   7.674   4.321  10.334 -0.2044 -0.7719  0.1134
  512MOL0     C69014   7.725   4.445  10.402  0.4611 -0.7263 -0.3251
  512MOL0     O69015   7.846   4.454  10.443  0.3985 -0.5852  0.4091
  512MOL0     C69016   7.881   4.559  10.525 -1.0212 -0.1575 -0.1320
  512MOL0     C69017   7.838   4.567  10.656 -0.5054  0.7764 -0.0714
  512MOL0     C69018   7.900   4.658  10.752  0.2091  0.1067  0.9478
  512MOL0     C69019   8.018   4.721  10.710 -0.9585  0.0805 -0.3826
  512MOL0     O69020   8.095   4.798  10.793  0.6008  0.2219 -0.1971
  512MOL0     C69021   8.039   4.838  10.916  0.3485  0.2206 -0.3630
  512MOL0     C69022   8.146   4.921  10.996  1.6067  0.3153 -0.6486
  512MOL0     C69023   8.199   5.039  10.907 -0.3475 -0.4079 -0.0888
  512MOL0     C69024   8.269   5.151  11.004  0.1579 -0.5403 -0.1181
  512MOL0     C69025   8.323   5.266  10.928  0.3994  0.7658  0.9682
  512MOL0     C69026   8.462   5.236  10.860 -0.3371  0.4614  1.1794
  512MOL0     C69027   8.520   5.341  10.760 -0.0204 -0.6172 -0.1212
  512MOL0     C69028   8.528   5.304  10.608  0.4456 -0.1751 -0.6925
  512MOL0    Cl69029   8.625   5.161  10.584  0.0669  0.6335 -0.2792
  512MOL0     C69030   8.067   4.702  10.582 -0.2443  0.1261  0.6303
  512MOL0     C69031   8.001   4.628  10.487 -0.0619 -0.2776  0.2639
  512MOL0     O69032   7.638   4.527  10.428  0.0269  0.9853  0.4197
  512MOL0     C69033   7.537   4.304  10.302 -0.7836  0.3207 -0.4790
  512MOL0     C69034   7.485   4.193  10.231 -0.1529 -0.2402 -0.5808
  512MOL0     N69035   7.252   3.578  10.144  0.2172  0.1453  0.0318
  512MOL0     N69036   7.131   3.546  10.126 -0.1164  0.7072 -0.6293
  512MOL0     C69037   5.957   3.080  10.548  0.2241  0.0335 -0.3908
  512MOL0     C69038   5.837   3.072  10.479 -0.4054 -0.1216  0.2305
  512MOL0     C69039   5.494   3.158  10.186  0.3723 -0.3972  0.7691
  512MOL0     C69040   5.434   3.243  10.090 -0.0832  0.7530  0.2808
  512MOL0     C69041   5.291   3.236  10.067 -0.1954 -0.5292  0.0004
  512MOL0     C69042   5.214   3.132  10.125 -0.5350  0.7102  0.7177
  512MOL0     O69043   5.084   3.126  10.084  0.7275  0.2926  0.4958
  512MOL0     C69044   4.990   3.048  10.169  0.6579 -0.0607 -0.6831
  512MOL0     C69045   4.838   3.057  10.119 -1.1066  0.3898 -0.4573
  512MOL0     C69046   4.816   3.059   9.967  0.0149  0.0470  0.7576
  512MOL0     C69047   4.674   3.084   9.931 -0.6340  0.7223  0.2044
  512MOL0     C69048   4.662   3.113   9.790 -0.6748 -0.6620 -0.1560
  512MOL0     C69049   4.650   3.141   9.671 -0.3310  0.2414 -0.2573
  512MOL0     C69050   5.272   3.060  10.223 -0.9791 -0.5711 -0.1681
  512MOL0     C69051   5.412   3.060  10.255 -0.6334  0.2316  0.1474
  512MOL0     C69052   5.450   2.953  10.353  0.3736  0.1706 -0.9834
  512MOL0     H69053   5.953   3.132  10.172 -1.0415  1.3341 -0.1020
  512MOL0     H69054   6.159   3.134  10.280  0.7613 -0.0812  1.1905
  512MOL0     H69055   6.330   3.106  10.415 -0.6411 -0.3609 -0.0340
  512MOL0     H69056   6.273   3.270  10.438 -0.5974 -0.5613 -1.3767
  512MOL0     H69057   6.441   3.096  10.630 -1.4163  0.4411  2.1379
  512MOL0     H69058   6.371   3.252  10.680  2.7257  2.2755 -0.0154
  512MOL0     H69059   6.463   3.374  10.499 -2.1965 -0.9354  0.5374
  512MOL0     H69060   6.538   3.225  10.430  0.2787 -1.4904  0.9424
  512MOL0     H69061   6.624   3.381  10.668  2.4242  2.0671 -2.2045
  512MOL0     H69062   6.663   3.205  10.656  0.0057  1.7551  3.0718
  512MOL0     H69063   6.862   3.315  10.582 -0.5889 -1.8238 -0.1811
  512MOL0     H69064   6.786   3.244  10.444  2.3254 -0.9025  1.4736
  512MOL0     H69065   6.684   3.449  10.380 -3.9773  4.2573  3.0932
  512MOL0     H69066   6.714   3.531  10.525  0.0893 -0.7469  0.7349
  512MOL0     H69067   6.966   3.495  10.507 -1.1951 -1.1089  0.7363
  512MOL0     H69068   6.883   3.629  10.419 -0.0788 -0.8785  1.6616
  512MOL0     H69069   6.966   3.368  10.291  1.9735 -0.0832 -3.7846
  512MOL0     H69070   6.882   3.503  10.211 -2.5659 -0.8042  1.6515
  512MOL0     H69071   7.158   3.626  10.442 -3.3859  0.7848 -0.2127
  512MOL0     H69072   7.435   3.615  10.418  0.1397 -2.9301 -1.9022
  512MOL0     H69073   7.486   3.645  10.256 -0.8685 -0.2662 -0.8314
  512MOL0     H69074   7.358   3.840  10.464 -0.3242  4.3209 -0.9042
  512MOL0     H69075   7.509   3.870  10.381 -0.8770  0.7427  1.5465
  512MOL0     H69076   7.326   4.022  10.320  1.5389  0.2816  1.0669
  512MOL0     H69077   7.241   3.879  10.244 -1.5328  2.8208  2.1749
  512MOL0     H69078   7.353   4.005  10.073  1.2268 -1.0433 -1.8050
  512MOL0     H69079   7.406   3.841  10.081 -0.5225  1.1105 -0.7306
  512MOL0     H69080   7.785   4.018  10.239 -0.4473 -1.1623  4.7429
  512MOL0     H69081   7.856   4.202  10.349  2.0339 -1.8941 -3.0520
  512MOL0     H69082   7.762   4.493  10.680  0.3990 -1.0428 -2.3342
  512MOL0     H69083   7.881   4.673  10.858  2.5631  1.7526  1.2045
  512MOL0     H69084   7.957   4.908  10.900  2.5991  3.4170  1.0793
  512MOL0     H69085   8.005   4.757  10.982 -1.0032  1.2306  0.2288
  512MOL0     H69086   8.109   4.955  11.093  1.5176  2.7107 -1.4637
  512MOL0     H69087   8.228   4.853  11.018 -0.6555 -2.1899  0.6634
  512MOL0     H69088   8.282   5.006  10.845 -0.9817  0.1911 -1.2985
  512MOL0     H69089   8.126   5.097  10.849 -0.2236  3.6590  3.3696
  512MOL0     H69090   8.360   5.103  11.041 -0.5009 -1.7392  0.0137
  512MOL0     H69091   8.204   5.197  11.079 -0.3018  4.3838 -3.1277
  512MOL0     H69092   8.334   5.349  10.998  1.5764 -2.1889  4.6134
  512MOL0     H69093   8.251   5.294  10.850  1.3432 -3.1030 -1.5608
  512MOL0     H69094   8.536   5.224  10.939 -1.4307 -1.2770  1.9980
  512MOL0     H69095   8.450   5.137  10.814  0.0099  1.0392 -0.2187
  512MOL0     H69096   8.616   5.372  10.802  0.2366 -0.8619 -0.5232
  512MOL0     H69097   8.459   5.432  10.765  1.2548  0.2377  0.2659
  512MOL0     H69098   8.428   5.276  10.573  0.3929 -0.5246 -0.2741
  512MOL0     H69099   8.569   5.383  10.545  1.1158 -0.5002 -0.6694
  512MOL0     H69100   8.160   4.751  10.555  0.4487 -1.1937  0.5387
  512MOL0     H69101   8.030   4.612  10.384 -2.7014  1.5696 -0.8783
  512MOL0     H69102   7.459   4.379  10.313 -0.7359  0.1548  1.1378
  512MOL0     H69103   7.382   4.201  10.198 -0.2958  1.1626  0.1597
  512MOL0     H69104   5.957   3.051  10.652 -2.1153 -4.5870 -1.4224
  512MOL0     H69105   5.747   3.058  10.538 -0.7332  2.5385  0.4630
  512MOL0     H69106   5.495   3.319  10.042 -1.8905  1.9685 -0.1998
  512MOL0     H69107   5.232   3.307  10.010  0.2293 -0.6644 -0.6204
  512MOL0     H69108   5.002   3.084  10.272 -2.1304  3.4530 -1.4028
  512MOL0     H69109   5.018   2.942  10.173  0.5927 -0.0516  1.8815
  512MOL0     H69110   4.791   3.140  10.173 -2.3421 -0.1232 -0.7122
  512MOL0     H69111   4.790   2.964  10.150 -0.4127 -0.5564 -2.0723
  512MOL0     H69112   4.842   2.958   9.933  2.4135  0.4934  1.0724
  512MOL0     H69113   4.879   3.127   9.907  0.3109 -2.2702 -1.7566
  512MOL0     H69114   4.619   2.989   9.943 -0.4260  0.4299 -1.0519
  512MOL0     H69115   4.622   3.153   9.998  0.7113  0.4414  1.5818
  512MOL0     H69116   4.660   3.168   9.568 -3.2416  2.3400 -0.0826
  512MOL0     H69117   5.218   3.000  10.296  0.8013  0.2669  1.9634
  512MOL0     H69118   5.545   2.906  10.326  2.5389  2.0700  2.6594
  512MOL0     H69119   5.470   2.990  10.454  0.1006 -1.1650 -0.4154
  512MOL0     H69120   5.369   2.879  10.359 -0.3488  0.9503 -0.9863
  513MOL0     O69121   9.434   3.356   8.050  0.1139 -0.3695 -0.0194
  513MOL0     C69122   9.451   3.237   8.088 -0.4909 -0.1413 -0.1555
  513MOL0     O69123   9.556   3.194   8.173 -0.3896  0.5042 -0.1527
  513MOL0     C69124   9.674   3.254   8.191  0.5370 -0.6979  0.0342
  513MOL0     C69125   9.730   3.348   8.100 -0.0278 -0.1397 -0.5435
  513MOL0     C69126   9.849   3.410   8.131 -0.1515  0.6865 -0.2195
  513MOL0     C69127   9.920   3.370   8.246  0.1829  0.1059  0.1214
  513MOL0     O69128  10.040   3.435   8.261  0.2587  1.1452  0.0114
  513MOL0     C69129  10.128   3.402   8.368  0.5711  0.3344  0.2440
  513MOL0     C69130  10.215   3.280   8.353  0.9653  0.3299  0.0065
  513MOL0     C69131  10.315   3.284   8.232  0.5008  0.3631 -0.3873
  513MOL0     C69132  10.411   3.403   8.242  0.2274 -0.5240  0.7943
  513MOL0     C69133  10.514   3.389   8.134 -0.0501  0.0569 -0.3574
  513MOL0     C69134  10.632   3.318   8.189  0.1120  0.3154 -0.2784
  513MOL0     C69135  10.729   3.309   8.073 -0.5676 -0.5149  0.1805
  513MOL0     C69136  10.871   3.265   8.124  0.0236 -0.1628 -0.2187
  513MOL0     N69137  10.959   3.225   8.017 -0.2506  0.3743 -0.5695
  513MOL0     C69138  10.983   3.307   7.911 -0.7090  0.7146 -0.6918
  513MOL0     C69139  11.010   3.222   7.806  0.3994 -1.1886 -0.4265
  513MOL0     C69140  11.024   3.273   7.672  1.1353  0.2329 -0.0008
  513MOL0     C69141  10.900   3.236   7.588  0.4923 -0.3014 -0.3672
  513MOL0     C69142  10.891   3.093   7.542 -0.2794 -0.5027  0.3414
  513MOL0     C69143  11.005   3.048   7.456  0.1273  0.3510 -0.1721
  513MOL0     O69144  11.001   3.140   7.342  1.1625  0.7690  0.1365
  513MOL0     C69145  11.095   3.143   7.242  0.2374  0.3504 -0.0196
  513MOL0     C69146  11.205   3.056   7.242  0.0211 -0.0390 -0.0785
  513MOL0     C69147  11.291   3.051   7.132 -0.1368  0.4763  0.2100
  513MOL0     C69148  11.285   3.163   7.041 -0.3468 -0.4468 -0.3178
  513MOL0     C69149  11.392   3.182   6.940  0.0384  0.4222 -0.0650
  513MOL0     O69150  11.372   3.259   6.829  0.7645 -0.9926  0.2592
  513MOL0     C69151  11.471   3.284   6.734  0.3000 -0.4030 -0.8023
  513MOL0     C69152  11.533   3.177   6.661  0.4339  0.7544 -1.1173
  513MOL0     C69153  11.640   3.193   6.577 -0.0193  0.3064  1.0518
  513MOL0     C69154  11.691   3.319   6.546  0.5214 -0.1488 -1.0177
  513MOL0     O69155  11.805   3.325   6.461 -0.0141  0.5265  0.1028
  513MOL0     C69156  11.845   3.453   6.419  0.3042  0.1336  0.4423
  513MOL0     C69157  11.955   3.452   6.313  0.0216  0.5032 -0.1676
  513MOL0     C69158  12.085   3.372   6.376 -0.1140 -0.9462  0.8469
  513MOL0     C69159  12.208   3.396   6.290  1.0988  0.2447 -0.8380
  513MOL0     C69160  12.320   3.324   6.358  0.4832 -0.0380  0.2395
  513MOL0     C69161  12.443   3.317   6.265 -0.5546  0.2198 -0.9109
  513MOL0     C69162  12.554   3.234   6.325 -0.1308 -0.0622 -0.0811
  513MOL0     C69163  12.674   3.246   6.239 -0.4273 -0.2466 -1.4400
  513MOL0    Cl69164  12.820   3.161   6.315  0.0619 -0.1147 -0.1692
  513MOL0     C69165  11.635   3.430   6.627 -0.1264  0.1705 -0.1053
  513MOL0     C69166  11.533   3.405   6.713  0.5146  0.2433  0.3619
  513MOL0     O69167  11.492   3.117   6.956 -0.1333 -0.6384  0.7077
  513MOL0     C69168  11.178   3.261   7.046 -0.0414 -0.1489 -0.1044
  513MOL0     C69169  11.077   3.246   7.145 -0.3839  0.4162  0.2133
  513MOL0     N69170  11.014   3.092   7.843  0.1682 -0.4988 -0.2591
  513MOL0     N69171  10.983   3.096   7.970 -0.1206  0.0410  0.0179
  513MOL0     C69172   9.860   3.280   8.333 -0.3540  0.0110  0.9043
  513MOL0     C69173   9.745   3.213   8.307  0.2966 -0.6670 -0.2042
  513MOL0     C69174   9.342   3.139   8.063  0.1019  0.0386 -0.4749
  513MOL0     C69175   9.373   2.999   8.055 -0.5056 -0.3998 -0.5836
  513MOL0     C69176   9.290   2.906   8.004  0.4429  0.1243 -0.1248
  513MOL0     C69177   9.160   2.942   7.960 -0.2617  0.4560  0.3956
  513MOL0     O69178   9.060   2.867   7.896  0.0954  0.5739  0.0785
  513MOL0     C69179   9.076   2.718   7.896  0.0147 -1.1001 -0.2928
  513MOL0     C69180   9.024   2.672   8.032  0.1781 -0.0594  0.9988
  513MOL0     C69181   8.870   2.637   8.018  0.2996 -0.8099  0.3595
  513MOL0     C69182   8.789   2.757   7.991 -0.7085 -0.2341 -0.2441
  513MOL0     C69183   8.658   2.750   8.045  0.4037 -0.6694  0.2001
  513MOL0     C69184   8.544   2.730   8.078  0.4852  0.2475 -0.1767
  513MOL0     C69185   9.121   3.070   7.979  0.0917 -0.3679 -0.6535
  513MOL0     C69186   9.207   3.166   8.026  0.2536  0.2221  0.2347
  513MOL0     C69187   9.156   3.309   8.033 -0.0390 -0.4768  0.2846
  513MOL0     H69188   9.682   3.368   8.005  0.0191 -1.2655 -0.8204
  513MOL0     H69189   9.905   3.474   8.064 -3.1451  2.2723 -1.3896
  513MOL0     H69190  10.185   3.496   8.371  2.8495 -0.8954 -1.1912
  513MOL0     H69191  10.076   3.399   8.464 -0.2139 -0.1927 -0.1866
  513MOL0     H69192  10.159   3.186   8.351  0.6822  0.4619  1.3077
  513MOL0     H69193  10.276   3.273   8.442  0.5413 -2.8181  0.1432
  513MOL0     H69194  10.259   3.289   8.138  2.1490  1.1466 -1.3625
  513MOL0     H69195  10.368   3.188   8.224 -1.8838 -0.8817 -4.3119
  513MOL0     H69196  10.350   3.493   8.242 -0.3513 -0.9037  1.6136
  513MOL0     H69197  10.456   3.392   8.341 -1.4146  1.2987  1.7966
  513MOL0     H69198  10.473   3.328   8.053 -0.0093 -0.0149 -0.3238
  513MOL0     H69199  10.545   3.488   8.099  0.2869 -0.5362 -1.8024
  513MOL0     H69200  10.681   3.363   8.276  2.4842  1.8034 -2.2280
  513MOL0     H69201  10.592   3.219   8.214  1.7390 -0.7794 -1.7594
  513MOL0     H69202  10.747   3.409   8.033 -0.0131 -1.2786 -1.5743
  513MOL0     H69203  10.700   3.248   7.987 -0.2790  1.2303 -1.1916
  513MOL0     H69204  10.924   3.344   8.176 -0.8930  0.5863 -0.3982
  513MOL0     H69205  10.857   3.175   8.185  2.9030  0.9699  2.3376
  513MOL0     H69206  10.980   3.415   7.916 -0.1492  0.7023 -0.0416
  513MOL0     H69207  11.028   3.381   7.687 -2.4462  0.2059  2.3383
  513MOL0     H69208  11.118   3.230   7.636  1.5820  0.4910  0.8367
  513MOL0     H69209  10.811   3.248   7.650 -0.8881  0.4180 -2.3798
  513MOL0     H69210  10.897   3.299   7.498  1.6107  1.1345  0.5752
  513MOL0     H69211  10.796   3.078   7.489  0.5108 -3.4882 -0.4319
  513MOL0     H69212  10.895   3.021   7.624  2.7885 -3.1471 -1.8544
  513MOL0     H69213  10.985   2.946   7.421  0.7340  0.5394 -1.0958
  513MOL0     H69214  11.096   3.059   7.516  0.5033  1.6539 -0.9466
  513MOL0     H69215  11.214   2.977   7.315 -1.5029 -1.2090 -1.0913
  513MOL0     H69216  11.380   2.990   7.142  1.0646  1.1229 -4.3873
  513MOL0     H69217  11.487   3.079   6.669  1.7950 -0.2998 -4.5592
  513MOL0     H69218  11.682   3.100   6.540  0.8597  0.2845  2.0283
  513MOL0     H69219  11.764   3.505   6.367  2.7984  3.3865 -0.5060
  513MOL0     H69220  11.878   3.516   6.502  0.5761  0.4717  0.0817
  513MOL0     H69221  11.919   3.409   6.219 -1.6940  2.5722 -0.5358
  513MOL0     H69222  11.985   3.554   6.288 -2.3494  1.7464  1.7038
  513MOL0     H69223  12.105   3.407   6.477  3.2331 -1.4633  0.4942
  513MOL0     H69224  12.063   3.266   6.392 -3.0818 -0.7128 -1.0608
  513MOL0     H69225  12.216   3.503   6.269  0.0262  0.6576  0.7365
  513MOL0     H69226  12.192   3.352   6.191 -0.2570  3.4665 -2.2127
  513MOL0     H69227  12.292   3.226   6.398 -0.5314  0.7436  1.5278
  513MOL0     H69228  12.345   3.389   6.442  1.8285 -0.6732  0.3644
  513MOL0     H69229  12.419   3.280   6.165  1.3663  1.9764 -2.1010
  513MOL0     H69230  12.488   3.414   6.242  1.2866 -0.9117 -2.3156
  513MOL0     H69231  12.531   3.127   6.333 -2.3592  0.5018  2.0344
  513MOL0     H69232  12.565   3.271   6.427 -5.1960  1.1773  0.2757
  513MOL0     H69233  12.650   3.200   6.143 -0.3675 -0.1051 -1.5225
  513MOL0     H69234  12.703   3.351   6.226  1.1322 -0.4760 -0.0281
  513MOL0     H69235  11.667   3.533   6.626  1.4345 -0.2730  0.9431
  513MOL0     H69236  11.487   3.483   6.774 -1.2291 -0.6312  0.2188
  513MOL0     H69237  11.178   3.341   6.972  1.5500 -0.3749 -0.3824
  513MOL0     H69238  11.002   3.324   7.151  3.1427  4.0631  2.0841
  513MOL0     H69239   9.914   3.243   8.420  1.2205  0.6687  0.2516
  513MOL0     H69240   9.686   3.144   8.367 -0.5736  1.1620  1.1410
  513MOL0     H69241   9.467   2.964   8.096 -0.6822 -0.2742 -0.0703
  513MOL0     H69242   9.321   2.802   7.996 -1.5851 -0.9974  3.9516
  513MOL0     H69243   9.182   2.698   7.880  0.9706  3.2155 -0.6092
  513MOL0     H69244   9.012   2.678   7.817 -1.0652  1.7257 -0.9554
  513MOL0     H69245   9.045   2.739   8.115  0.9105  2.0538 -0.7795
  513MOL0     H69246   9.079   2.579   8.049 -0.2006 -1.1597 -2.8460
  513MOL0     H69247   8.841   2.600   8.117 -2.1294  1.5453  0.6650
  513MOL0     H69248   8.851   2.565   7.938  3.1581  1.3639 -2.5119
  513MOL0     H69249   8.835   2.839   8.046 -0.0989 -0.9145  0.2660
  513MOL0     H69250   8.790   2.765   7.882 -2.1232 -3.7963 -0.6387
  513MOL0     H69251   8.443   2.716   8.109  0.2395 -0.2148 -1.1556
  513MOL0     H69252   9.018   3.085   7.948  0.0216  0.7419  0.0844
  513MOL0     H69253   9.207   3.377   7.964 -3.0047  0.4408 -1.1694
  513MOL0     H69254   9.054   3.320   7.995 -0.5632  0.5936  1.8669
  513MOL0     H69255   9.163   3.350   8.135  1.3064  0.9344 -0.3266
  514MOL0     O69256   1.951   6.805   0.109 -0.0070 -0.4183 -0.7257
  514MOL0     C69257   2.011   6.700   0.131  0.2269 -0.4508  0.6405
  514MOL0     O69258   1.947   6.580   0.152  0.1667 -0.5343  0.4242
  514MOL0     C69259   1.815   6.559   0.176 -0.1223 -0.0461  0.0558
  514MOL0     C69260   1.745   6.646   0.258 -0.2254  0.3065 -0.0452
  514MOL0     C69261   1.605   6.615   0.278 -0.6618  0.0645  0.1982
  514MOL0     C69262   1.545   6.495   0.234  0.4698 -0.1364  0.0527
  514MOL0     O69263   1.410   6.473   0.251  0.7717  0.0001  0.1292
  514MOL0     C69264   1.332   6.560   0.340 -0.7415  0.8122 -0.1077
  514MOL0     C69265   1.364   6.548   0.496 -0.3233  0.3521 -0.6160
  514MOL0     C69266   1.279   6.423   0.553 -0.3962  0.2369 -0.1322
  514MOL0     C69267   1.137   6.467   0.592 -0.1149  0.0373  0.0976
  514MOL0     C69268   1.037   6.354   0.555 -0.4725 -0.8555 -0.1464
  514MOL0     C69269   0.898   6.404   0.598  1.0154  0.2551  0.2224
  514MOL0     C69270   0.792   6.295   0.581 -1.3346 -0.1048  0.4728
  514MOL0     C69271   0.672   6.347   0.644  0.1773  0.2147 -0.7072
  514MOL0     N69272   0.575   6.243   0.674  0.5198  0.0179 -0.1025
  514MOL0     C69273   0.507   6.172   0.583  0.0895  0.2741 -0.1105
  514MOL0     C69274   0.430   6.089   0.652  0.6862  1.1291 -0.2195
  514MOL0     C69275   0.340   5.985   0.588  0.0616  0.1415 -0.0384
  514MOL0     C69276   0.262   5.897   0.679 -0.3203  0.4593  0.2874
  514MOL0     C69277   0.308   5.753   0.677  0.5093  0.4223  0.0486
  514MOL0     C69278   0.187   5.665   0.717  0.5391  0.4356  1.1991
  514MOL0     O69279   0.127   5.734   0.829 -1.1106  0.2108  0.1156
  514MOL0     C69280   0.004   5.708   0.868  0.0701 -0.6492 -0.0216
  514MOL0     C69281  -0.066   5.592   0.830 -0.6257 -0.0590 -0.0564
  514MOL0     C69282  -0.196   5.572   0.882  0.3338  1.0783  0.1352
  514MOL0     C69283  -0.261   5.673   0.960 -0.2102  0.1935  0.0226
  514MOL0     C69284  -0.405   5.660   0.991 -0.6074 -1.2006 -0.5005
  514MOL0     O69285  -0.460   5.731   1.087 -0.0472 -0.7657  0.0384
  514MOL0     C69286  -0.594   5.727   1.119 -0.3266 -0.9141  0.5350
  514MOL0     C69287  -0.697   5.707   1.023 -1.0367 -0.0734  0.2504
  514MOL0     C69288  -0.826   5.675   1.068  0.4366  0.0896  0.2015
  514MOL0     C69289  -0.857   5.672   1.202 -0.3258  0.6254  0.6284
  514MOL0     O69290  -0.988   5.650   1.247 -0.3023 -0.4081 -0.2421
  514MOL0     C69291  -1.084   5.717   1.168 -0.1435  0.8357 -0.2362
  514MOL0     C69292  -1.212   5.748   1.255  0.5412 -0.2778  0.4979
  514MOL0     C69293  -1.311   5.636   1.271 -1.4553  0.2563 -0.2042
  514MOL0     C69294  -1.436   5.675   1.343 -0.2098 -0.3458 -0.1270
  514MOL0     C69295  -1.518   5.554   1.381 -0.2987  1.0502  0.3506
  514MOL0     C69296  -1.634   5.613   1.468  1.0138 -0.4542  1.0593
  514MOL0     C69297  -1.724   5.503   1.529  0.3426 -0.2222 -0.2456
  514MOL0     C69298  -1.836   5.572   1.614 -0.4078  0.2869 -0.3660
  514MOL0    Cl69299  -1.949   5.667   1.509 -0.0117 -0.2485  0.2043
  514MOL0     C69300  -0.766   5.704   1.301 -0.6725  0.4711  0.3935
  514MOL0     C69301  -0.635   5.729   1.255 -0.0508  0.1462  0.4024
  514MOL0     O69302  -0.474   5.577   0.928 -0.3592 -0.0545 -0.1740
  514MOL0     C69303  -0.183   5.780   1.004  0.2506  0.0168 -0.0482
  514MOL0     C69304  -0.049   5.795   0.960 -0.4779 -0.3669 -0.2558
  514MOL0     N69305   0.450   6.113   0.789 -0.0714 -0.3158 -0.4202
  514MOL0     N69306   0.539   6.206   0.794 -0.2218  0.0399 -0.2067
  514MOL0     C69307   1.619   6.413   0.156  0.2834  0.2030 -0.3061
  514MOL0     C69308   1.758   6.442   0.131 -0.2515  0.1834 -0.1673
  514MOL0     C69309   2.153   6.706   0.133 -0.6895 -0.4141 -0.3734
  514MOL0     C69310   2.223   6.830   0.145 -0.4714 -0.0019 -0.2491
  514MOL0     C69311   2.360   6.837   0.139  0.5061  0.2040  0.0163
  514MOL0     C69312   2.437   6.721   0.130  0.6983 -0.2520 -0.5312
  514MOL0     O69313   2.564   6.738   0.090 -1.1219  0.9199 -0.3435
  514MOL0     C69314   2.596   6.660  -0.030  0.0588  0.9250 -0.9216
  514MOL0     C69315   2.754   6.642  -0.032  0.9074  0.2718  0.2977
  514MOL0     C69316   2.846   6.762  -0.041  0.0168  0.3853 -0.0070
  514MOL0     C69317   2.861   6.834   0.092  0.2769  0.6235  0.1102
  514MOL0     C69318   2.913   6.756   0.206  0.1963 -0.0090 -0.2409
  514MOL0     C69319   2.934   6.698   0.309 -0.7136  0.4827 -0.8965
  514MOL0     C69320   2.373   6.597   0.149  0.2944  0.2056 -0.0778
  514MOL0     C69321   2.230   6.588   0.140 -0.4972 -0.0251  0.3436
  514MOL0     C69322   2.185   6.448   0.146  0.2488 -0.2267  0.0803
  514MOL0     H69323   1.796   6.735   0.292  0.0638  0.0140  0.2951
  514MOL0     H69324   1.544   6.684   0.335 -0.1251 -1.0763  2.2657
  514MOL0     H69325   1.347   6.663   0.308  0.6086 -0.3136 -3.5926
  514MOL0     H69326   1.227   6.529   0.328  0.6978 -4.0936 -2.8261
  514MOL0     H69327   1.335   6.638   0.550 -1.0925  0.1645 -0.7087
  514MOL0     H69328   1.469   6.537   0.525  0.3655  3.0851 -1.8114
  514MOL0     H69329   1.340   6.396   0.639  0.0140 -1.3325 -0.8816
  514MOL0     H69330   1.276   6.336   0.487 -0.1551 -1.8767  2.5078
  514MOL0     H69331   1.143   6.482   0.700  0.8275 -0.5173  0.1310
  514MOL0     H69332   1.113   6.560   0.540 -1.3721  0.3065  1.1005
  514MOL0     H69333   1.043   6.332   0.448  2.8977  2.1852 -0.7767
  514MOL0     H69334   1.071   6.272   0.618  0.0064 -0.2099  0.4449
  514MOL0     H69335   0.904   6.443   0.700  1.1008  2.6297 -0.6280
  514MOL0     H69336   0.867   6.491   0.539  2.3596  0.8651  0.3782
  514MOL0     H69337   0.823   6.215   0.648 -0.6518  0.0352  0.3271
  514MOL0     H69338   0.781   6.253   0.481 -0.3608 -1.2680  0.8304
  514MOL0     H69339   0.698   6.398   0.738 -4.2183 -0.3603  1.0795
  514MOL0     H69340   0.614   6.424   0.591 -1.7247 -0.5292  0.1722
  514MOL0     H69341   0.506   6.169   0.475  1.8414 -2.7237 -0.1434
  514MOL0     H69342   0.279   6.034   0.512 -0.9270  1.8182  1.7644
  514MOL0     H69343   0.417   5.925   0.538  1.4564  0.0321  2.1134
  514MOL0     H69344   0.279   5.936   0.780  2.8246  3.5810 -1.2196
  514MOL0     H69345   0.158   5.902   0.646 -1.0188 -1.9264  1.8770
  514MOL0     H69346   0.394   5.746   0.744 -0.1974  0.9034  1.0420
  514MOL0     H69347   0.345   5.711   0.583  1.7009  0.2028  0.5951
  514MOL0     H69348   0.204   5.560   0.743  1.3744 -0.5456 -2.6444
  514MOL0     H69349   0.114   5.659   0.636  3.3511 -3.2696 -1.4606
  514MOL0     H69350  -0.008   5.512   0.785  0.6251  0.5876  0.3481
  514MOL0     H69351  -0.255   5.482   0.870  0.8787  0.4965  1.5899
  514MOL0     H69352  -0.684   5.703   0.915 -1.0901 -0.9691  0.2710
  514MOL0     H69353  -0.906   5.644   1.002  1.5244 -1.4473 -0.4590
  514MOL0     H69354  -1.050   5.818   1.145 -1.1442  1.1733 -0.3073
  514MOL0     H69355  -1.119   5.664   1.079 -1.7694  1.5485 -0.0750
  514MOL0     H69356  -1.179   5.781   1.354  0.9045  2.9467 -0.5823
  514MOL0     H69357  -1.269   5.826   1.204  2.0641  1.8012  1.8170
  514MOL0     H69358  -1.351   5.615   1.172 -3.0042  0.4393  0.3594
  514MOL0     H69359  -1.266   5.539   1.296 -2.6096 -0.2520 -0.0513
  514MOL0     H69360  -1.485   5.746   1.276  2.7322  0.5216 -1.5511
  514MOL0     H69361  -1.402   5.719   1.438  3.7201  0.6084 -1.7470
  514MOL0     H69362  -1.445   5.497   1.439  1.4861  4.0592  1.3515
  514MOL0     H69363  -1.559   5.498   1.297 -2.0772 -0.9599  2.4433
  514MOL0     H69364  -1.601   5.679   1.549 -1.9207  0.8630  1.3107
  514MOL0     H69365  -1.692   5.677   1.400  0.9779 -0.0893  1.4241
  514MOL0     H69366  -1.674   5.441   1.605  0.5444  0.6687  0.3634
  514MOL0     H69367  -1.764   5.436   1.452 -1.2272 -0.0978  0.4093
  514MOL0     H69368  -1.894   5.507   1.681  0.3531  1.8432  1.9160
  514MOL0     H69369  -1.792   5.653   1.672 -0.2019  1.6368 -2.3216
  514MOL0     H69370  -0.799   5.688   1.404  1.1714 -1.1739  0.7901
  514MOL0     H69371  -0.583   5.740   1.349  0.3052 -0.9369  0.3484
  514MOL0     H69372  -0.226   5.866   1.053 -0.0773  0.7450 -1.5545
  514MOL0     H69373   0.017   5.867   1.009  0.3963 -1.4848  0.2391
  514MOL0     H69374   1.573   6.325   0.112 -1.2832  0.0910  1.4465
  514MOL0     H69375   1.818   6.373   0.073 -0.2875 -0.1895  0.2326
  514MOL0     H69376   2.160   6.917   0.158  0.0144  0.2100  0.7603
  514MOL0     H69377   2.401   6.938   0.136 -2.6729  1.6646  1.4089
  514MOL0     H69378   2.560   6.717  -0.116 -2.6037 -1.9589 -1.9124
  514MOL0     H69379   2.549   6.561  -0.029  1.8929 -0.0321 -2.6971
  514MOL0     H69380   2.778   6.579  -0.118 -2.5182  0.3518 -0.9030
  514MOL0     H69381   2.761   6.572   0.052 -1.7354 -0.0605  0.3264
  514MOL0     H69382   2.816   6.836  -0.116  0.9179 -0.2503 -1.0307
  514MOL0     H69383   2.941   6.719  -0.075 -0.9804 -0.4698 -1.8760
  514MOL0     H69384   2.925   6.922   0.077 -0.2393  0.5888 -2.8086
  514MOL0     H69385   2.767   6.874   0.131 -0.1275 -0.9441  0.8301
  514MOL0     H69386   2.956   6.651   0.403  1.9961  0.5057 -1.4312
  514MOL0     H69387   2.438   6.512   0.165  1.0154  1.2795  3.5520
  514MOL0     H69388   2.142   6.436   0.246 -0.6598  2.5964  0.1241
  514MOL0     H69389   2.108   6.436   0.069 -0.8848  1.5462  0.8549
  514MOL0     H69390   2.261   6.371   0.135 -0.8956 -1.2511 -1.0404
  515MOL0     O69391   2.517   9.744   5.671 -0.2156 -0.1026 -0.3411
  515MOL0     C69392   2.467   9.730   5.561 -0.3453 -0.1018  0.5078
  515MOL0     O69393   2.530   9.691   5.448 -0.7362 -0.1213 -0.9373
  515MOL0     C69394   2.671   9.699   5.447 -0.0866 -0.8827  0.8231
  515MOL0     C69395   2.736   9.747   5.336 -0.3748  0.6045  1.2116
  515MOL0     C69396   2.872   9.749   5.320 -1.2508 -0.5109 -0.6466
  515MOL0     C69397   2.960   9.695   5.408 -0.8939  0.5770  1.5846
  515MOL0     O69398   3.096   9.700   5.374 -0.5281  0.3492 -0.2053
  515MOL0     C69399   3.197   9.678   5.473 -0.9688  0.1980 -0.1563
  515MOL0     C69400   3.330   9.729   5.418 -0.6583  1.3724 -0.1671
  515MOL0     C69401   3.442   9.677   5.492 -0.0178 -0.1950  0.1789
  515MOL0     C69402   3.575   9.717   5.432  0.7718 -0.2330  0.0679
  515MOL0     C69403   3.680   9.660   5.514 -0.2792 -0.8037  0.1534
  515MOL0     C69404   3.820   9.710   5.492  1.1700 -0.3201 -0.8561
  515MOL0     C69405   3.873   9.685   5.351 -0.1665  0.6498  1.0334
  515MOL0     C69406   3.904   9.536   5.322  1.5920  0.8455  0.8207
  515MOL0     N69407   3.782   9.471   5.259 -0.9024 -0.0884  0.2187
  515MOL0     C69408   3.695   9.381   5.323  0.6897 -0.1778 -0.0611
  515MOL0     C69409   3.632   9.325   5.217 -0.3526  0.0836 -0.1027
  515MOL0     C69410   3.532   9.217   5.201  0.3995  0.4635  0.0630
  515MOL0     C69411   3.393   9.260   5.141 -0.2559  0.4735 -0.5844
  515MOL0     C69412   3.308   9.327   5.254  1.0567 -0.5215  0.4743
  515MOL0     C69413   3.175   9.376   5.188  0.2378 -0.9337 -0.2388
  515MOL0     O69414   3.099   9.268   5.139  0.1247  0.3579  0.7598
  515MOL0     C69415   2.960   9.278   5.130  0.4061  0.3376  0.0299
  515MOL0     C69416   2.882   9.382   5.189  0.2865  0.0503 -0.0062
  515MOL0     C69417   2.742   9.390   5.172  0.8536 -0.9572  0.2448
  515MOL0     C69418   2.680   9.296   5.092  0.5786  0.0588 -1.0119
  515MOL0     C69419   2.527   9.291   5.087 -0.5583  0.9431 -0.0597
  515MOL0     O69420   2.468   9.389   5.155 -0.3969 -0.5870  0.0837
  515MOL0     C69421   2.331   9.409   5.129 -0.4026 -0.4133 -0.2026
  515MOL0     C69422   2.278   9.535   5.089 -0.0657  0.3595 -0.8417
  515MOL0     C69423   2.153   9.555   5.054 -0.0229 -0.2143 -0.2245
  515MOL0     C69424   2.056   9.453   5.078 -0.2629  1.3787  0.1026
  515MOL0     O69425   1.930   9.490   5.054  0.3032 -0.0329 -0.9165
  515MOL0     C69426   1.856   9.384   4.993  0.4031 -0.1591 -0.4612
  515MOL0     C69427   1.777   9.442   4.871  0.3207  0.4354 -0.1260
  515MOL0     C69428   1.644   9.359   4.848  0.2360  0.8524 -0.1789
  515MOL0     C69429   1.543   9.425   4.749 -0.4219  0.0202 -0.1515
  515MOL0     C69430   1.432   9.313   4.739 -0.4007  0.4245 -0.5561
  515MOL0     C69431   1.318   9.368   4.656  0.3609  0.7299  0.6577
  515MOL0     C69432   1.228   9.260   4.607 -0.5824 -0.0642  1.5615
  515MOL0     C69433   1.097   9.242   4.677 -0.4762  0.5058  0.3502
  515MOL0    Cl69434   1.141   9.212   4.853 -0.3327 -0.1547  0.4851
  515MOL0     C69435   2.103   9.326   5.126 -0.2745 -0.2179 -0.1324
  515MOL0     C69436   2.238   9.309   5.143 -0.2077  0.5308 -0.3217
  515MOL0     O69437   2.475   9.206   5.017  0.0582 -0.2470 -0.4295
  515MOL0     C69438   2.756   9.188   5.035 -0.9333  0.0469 -0.9319
  515MOL0     C69439   2.897   9.174   5.060  0.2399 -0.0497 -0.2150
  515MOL0     N69440   3.669   9.387   5.102  0.2663  0.2078  1.1167
  515MOL0     N69441   3.754   9.474   5.126 -0.0465  0.0994 -0.4453
  515MOL0     C69442   2.900   9.629   5.514  0.0224  0.3477 -0.2507
  515MOL0     C69443   2.761   9.631   5.538  0.3370 -0.1863  0.3701
  515MOL0     C69444   2.320   9.723   5.555 -0.6748  0.2438  0.7091
  515MOL0     C69445   2.267   9.628   5.466  0.2858 -0.3658 -0.4774
  515MOL0     C69446   2.125   9.631   5.439  0.2615 -0.0378  0.1911
  515MOL0     C69447   2.043   9.717   5.503  0.5073 -0.4579 -0.1047
  515MOL0     O69448   1.907   9.719   5.497 -0.3109  0.1783  0.0374
  515MOL0     C69449   1.841   9.641   5.392  0.0712  0.4368 -0.2763
  515MOL0     C69450   1.693   9.650   5.390 -0.4201 -0.3983 -0.2828
  515MOL0     C69451   1.631   9.568   5.280 -0.2962  0.6961  0.8731
  515MOL0     C69452   1.485   9.608   5.266  0.3997 -0.0111  0.7389
  515MOL0     C69453   1.413   9.506   5.177 -0.0652 -0.2133 -0.3300
  515MOL0     C69454   1.392   9.413   5.107 -0.2272  0.0930  0.1565
  515MOL0     C69455   2.103   9.805   5.591  0.6294 -0.3134 -0.8036
  515MOL0     C69456   2.235   9.809   5.623 -0.7219 -0.1279 -0.3421
  515MOL0     C69457   2.281   9.926   5.713  0.4596 -0.8942  0.5733
  515MOL0     H69458   2.688   9.797   5.252  2.0961  1.2332  0.0978
  515MOL0     H69459   2.916   9.807   5.239 -1.7482  2.2129  0.9061
  515MOL0     H69460   3.173   9.744   5.557  2.1176  0.2398  0.8229
  515MOL0     H69461   3.191   9.574   5.506 -1.7637 -0.0378 -1.0097
  515MOL0     H69462   3.342   9.838   5.414  1.6435  1.1583 -0.3053
  515MOL0     H69463   3.332   9.698   5.313  0.1990 -0.8640  0.4629
  515MOL0     H69464   3.424   9.569   5.501  0.7069 -0.4659 -1.2477
  515MOL0     H69465   3.449   9.727   5.589 -1.2749 -0.1489  0.2656
  515MOL0     H69466   3.566   9.686   5.327 -1.8586  2.6797 -0.7432
  515MOL0     H69467   3.585   9.826   5.438 -0.7600  0.0860 -1.9067
  515MOL0     H69468   3.669   9.689   5.619  0.9347  0.1469  0.0372
  515MOL0     H69469   3.657   9.553   5.514 -1.9594 -0.4738 -0.4699
  515MOL0     H69470   3.817   9.817   5.515 -0.6945  0.2237 -3.1497
  515MOL0     H69471   3.887   9.677   5.572  0.6337  1.5563  0.4259
  515MOL0     H69472   3.973   9.729   5.348  1.7659 -3.3027 -0.9814
  515MOL0     H69473   3.811   9.734   5.276  2.9232  0.3829 -1.9289
  515MOL0     H69474   4.000   9.507   5.279  3.1386  1.5882  3.5516
  515MOL0     H69475   3.916   9.488   5.420 -1.3767 -1.9174  0.0012
  515MOL0     H69476   3.677   9.354   5.426  0.9603 -0.3330 -0.0550
  515MOL0     H69477   3.569   9.131   5.144  0.9518  1.4984 -1.1997
  515MOL0     H69478   3.506   9.166   5.294  1.6048 -1.5030 -0.6020
  515MOL0     H69479   3.417   9.332   5.062  0.0769  2.6238  1.3425
  515MOL0     H69480   3.344   9.173   5.096 -0.1728  0.8188 -1.3564
  515MOL0     H69481   3.361   9.414   5.293  1.3847 -0.7419  0.5252
  515MOL0     H69482   3.290   9.251   5.330 -0.2261  0.3609  1.0914
  515MOL0     H69483   3.196   9.446   5.107  3.1818 -0.0945  1.0900
  515MOL0     H69484   3.121   9.434   5.263  0.0063 -1.7757  0.2525
  515MOL0     H69485   2.934   9.452   5.253  2.1602 -2.4770  1.3903
  515MOL0     H69486   2.689   9.470   5.224 -0.2766  1.1725 -3.7546
  515MOL0     H69487   2.357   9.606   5.069  0.4503  0.5432  1.4949
  515MOL0     H69488   2.110   9.649   5.019 -1.2584 -1.2059 -1.4411
  515MOL0     H69489   1.908   9.292   4.967 -0.8738 -1.4385  1.2817
  515MOL0     H69490   1.778   9.352   5.063 -0.0721  1.0483 -0.4134
  515MOL0     H69491   1.749   9.546   4.887  1.3699  0.9505 -1.4595
  515MOL0     H69492   1.845   9.440   4.785  0.0776 -1.0967 -0.3153
  515MOL0     H69493   1.680   9.260   4.820  3.0688  2.3112 -2.2015
  515MOL0     H69494   1.600   9.351   4.948  1.6809  0.0254  0.4077
  515MOL0     H69495   1.596   9.424   4.654  0.4675 -7.2084 -0.1625
  515MOL0     H69496   1.515   9.522   4.790  0.0363  0.6549 -1.3242
  515MOL0     H69497   1.397   9.277   4.836  0.4028  3.0924  0.8330
  515MOL0     H69498   1.480   9.227   4.692 -3.0588 -0.0973 -2.5318
  515MOL0     H69499   1.272   9.441   4.723  0.0845  0.5742  0.6389
  515MOL0     H69500   1.363   9.423   4.573  0.7890  1.1806  1.1788
  515MOL0     H69501   1.282   9.167   4.589  1.6767  1.6440 -1.7694
  515MOL0     H69502   1.208   9.284   4.502 -0.9537  0.3082  1.7136
  515MOL0     H69503   1.029   9.327   4.666 -0.8606 -0.0132 -1.7250
  515MOL0     H69504   1.054   9.145   4.648 -0.3845  0.1778  1.2649
  515MOL0     H69505   2.037   9.242   5.144 -1.3504  0.5673 -0.2993
  515MOL0     H69506   2.271   9.210   5.172 -1.5780 -0.2266 -1.2381
  515MOL0     H69507   2.710   9.097   4.998 -0.6352  0.3756 -2.1498
  515MOL0     H69508   2.955   9.085   5.038 -2.4960 -1.8537 -0.5195
  515MOL0     H69509   2.958   9.577   5.590  0.5463  2.3171  0.7719
  515MOL0     H69510   2.712   9.569   5.612  0.6416  0.4871  1.1403
  515MOL0     H69511   2.331   9.565   5.405 -2.7270 -3.2400 -0.9751
  515MOL0     H69512   2.093   9.556   5.367 -2.5299 -0.0020  1.3034
  515MOL0     H69513   1.848   9.533   5.405 -1.1364  0.0381 -2.4366
  515MOL0     H69514   1.882   9.648   5.291 -1.3107 -1.4427 -1.0135
  515MOL0     H69515   1.672   9.755   5.364  0.9891  0.0057  0.0824
  515MOL0     H69516   1.650   9.622   5.486 -0.4492  0.8936  0.1096
  515MOL0     H69517   1.634   9.467   5.321  0.9694  0.9699  1.5241
  515MOL0     H69518   1.689   9.579   5.187 -1.2408 -0.6946  0.0915
  515MOL0     H69519   1.427   9.595   5.358 -4.0886 -1.7620 -1.9762
  515MOL0     H69520   1.478   9.711   5.229  1.7477 -0.1435  0.0684
  515MOL0     H69521   1.360   9.345   5.031 -2.7173  0.6488  0.6144
  515MOL0     H69522   2.043   9.885   5.634  0.4307 -1.0257  0.3073
  515MOL0     H69523   2.208   9.942   5.793  1.6680  1.4754  1.3081
  515MOL0     H69524   2.375   9.912   5.767  0.8222  1.5703  0.7146
  515MOL0     H69525   2.279  10.016   5.650  0.8312 -2.7794 -2.3438
  516MOL0     O69526   0.091   8.167   4.182 -0.1146  0.1321 -0.0184
  516MOL0     C69527   0.008   8.097   4.126  0.0006  0.1684  0.1477
  516MOL0     O69528   0.017   8.050   4.002  0.1917  1.0553  0.0746
  516MOL0     C69529   0.134   8.063   3.933  0.7041 -1.0784  0.1480
  516MOL0     C69530   0.255   8.019   3.984  0.1204 -0.5538  1.0582
  516MOL0     C69531   0.376   8.037   3.909  0.0236 -0.0280 -0.6042
  516MOL0     C69532   0.376   8.121   3.798  0.0619  0.9808  1.2100
  516MOL0     O69533   0.489   8.143   3.724 -0.4458  0.5633 -0.0826
  516MOL0     C69534   0.627   8.100   3.783  0.1655 -0.5270  0.8233
  516MOL0     C69535   0.725   8.145   3.681  0.2028 -0.4344 -0.7391
  516MOL0     C69536   0.868   8.098   3.719  0.2615 -0.3166  0.4679
  516MOL0     C69537   0.969   8.162   3.619 -0.0752 -0.1654 -0.3618
  516MOL0     C69538   1.105   8.156   3.690 -1.1234 -0.5277  0.2781
  516MOL0     C69539   1.220   8.184   3.597 -0.2743 -0.3613 -0.8461
  516MOL0     C69540   1.354   8.188   3.676  0.2433 -0.4554  0.0621
  516MOL0     C69541   1.449   8.288   3.622  0.2027 -0.6255 -0.6636
  516MOL0     N69542   1.582   8.289   3.694 -0.2269  0.2416 -0.1956
  516MOL0     C69543   1.694   8.242   3.633 -0.3131 -0.3016  1.0887
  516MOL0     C69544   1.796   8.278   3.718 -0.5241 -0.3182 -0.1029
  516MOL0     C69545   1.938   8.217   3.688 -0.2278 -0.0496 -0.6376
  516MOL0     C69546   2.042   8.293   3.767  0.3123 -1.6333 -1.0525
  516MOL0     C69547   2.075   8.427   3.695 -0.4683 -0.0961  0.2754
  516MOL0     C69548   2.190   8.486   3.772  0.3339  0.2535  1.3048
  516MOL0     O69549   2.304   8.401   3.777  0.7103 -0.2692  0.0786
  516MOL0     C69550   2.407   8.450   3.855 -0.6760 -0.6201  0.0492
  516MOL0     C69551   2.401   8.564   3.942 -0.5761  0.9581  0.6616
  516MOL0     C69552   2.513   8.602   4.019  0.1204  0.5634 -0.0050
  516MOL0     C69553   2.635   8.534   4.010  0.1613  0.6323  0.3966
  516MOL0     C69554   2.747   8.569   4.095  0.3130  0.0912  1.1205
  516MOL0     O69555   2.723   8.669   4.181 -0.0886  0.4408 -0.1234
  516MOL0     C69556   2.816   8.703   4.273 -0.0620 -0.2505  0.3352
  516MOL0     C69557   2.784   8.653   4.396  0.8680  0.3393  0.2518
  516MOL0     C69558   2.864   8.683   4.506 -0.2643 -0.0141  0.6943
  516MOL0     C69559   2.984   8.753   4.492  0.3974 -0.4008  0.4336
  516MOL0     O69560   3.075   8.779   4.592 -0.5362 -0.2729  0.8630
  516MOL0     C69561   3.063   8.712   4.721  0.1366  0.2197 -0.1825
  516MOL0     C69562   3.103   8.563   4.716 -0.6619 -0.2628 -0.2865
  516MOL0     C69563   3.154   8.508   4.840 -0.5200 -0.3581 -0.1697
  516MOL0     C69564   3.301   8.535   4.862  0.2906 -0.6233  0.0854
  516MOL0     C69565   3.345   8.491   4.999 -0.1009 -0.5690 -0.1076
  516MOL0     C69566   3.491   8.540   5.026  0.1060  0.5952 -1.0467
  516MOL0     C69567   3.549   8.471   5.153  0.3080 -0.6538  0.0972
  516MOL0     C69568   3.698   8.493   5.173 -0.6162  0.2950 -0.2406
  516MOL0    Cl69569   3.791   8.430   5.027 -0.5228 -0.2151  0.0573
  516MOL0     C69570   3.018   8.808   4.364  0.3557 -1.0675 -0.2538
  516MOL0     C69571   2.933   8.779   4.253  0.7425  0.2865  0.0613
  516MOL0     O69572   2.854   8.503   4.080 -0.7144 -0.6205 -0.5730
  516MOL0     C69573   2.640   8.425   3.926  0.8865 -0.2811 -0.1849
  516MOL0     C69574   2.528   8.380   3.850 -0.4596 -0.0612  0.0669
  516MOL0     N69575   1.733   8.346   3.824 -0.5437  0.1016  0.2579
  516MOL0     N69576   1.609   8.336   3.817  0.3058  0.7807  0.9036
  516MOL0     C69577   0.253   8.165   3.746  0.0003 -0.2437  0.5297
  516MOL0     C69578   0.138   8.145   3.812  0.3902  0.9142 -0.0407
  516MOL0     C69579  -0.116   8.059   4.200  0.1039  0.6122 -0.6527
  516MOL0     C69580  -0.235   8.015   4.131  0.2371  1.1171  0.8613
  516MOL0     C69581  -0.348   7.965   4.184 -0.0580 -0.0390  0.1829
  516MOL0     C69582  -0.358   7.974   4.319 -1.0223  0.2834  0.2818
  516MOL0     O69583  -0.470   7.938   4.393 -0.0899  0.0054  0.4360
  516MOL0     C69584  -0.592   7.906   4.329 -0.7439  0.0968  0.3285
  516MOL0     C69585  -0.705   7.863   4.424 -0.6317  0.0316 -0.1371
  516MOL0     C69586  -0.710   7.940   4.548 -0.3140  0.3889 -0.3595
  516MOL0     C69587  -0.821   7.906   4.650 -0.3344 -0.0739 -0.7675
  516MOL0     C69588  -0.811   7.760   4.685  0.1307 -0.6770 -0.6760
  516MOL0     C69589  -0.786   7.642   4.715 -0.1594 -0.9881 -0.0704
  516MOL0     C69590  -0.254   8.012   4.395 -0.0750 -0.6796  0.2033
  516MOL0     C69591  -0.133   8.052   4.340 -0.4705 -0.8356  0.5767
  516MOL0     C69592  -0.023   8.078   4.440 -0.7139 -0.8204  0.5350
  516MOL0     H69593   0.260   7.954   4.071  1.8497 -0.0873  1.3557
  516MOL0     H69594   0.467   8.008   3.960 -1.3015 -2.3322  0.6682
  516MOL0     H69595   0.652   8.165   3.868  1.1988  1.5559 -0.9870
  516MOL0     H69596   0.626   7.992   3.801 -0.6058 -0.5366  0.7711
  516MOL0     H69597   0.718   8.253   3.671  0.0314 -0.3862 -0.1313
  516MOL0     H69598   0.710   8.096   3.584  2.7570 -0.0645 -1.3904
  516MOL0     H69599   0.874   7.989   3.715  0.3770 -0.3807  2.0002
  516MOL0     H69600   0.892   8.139   3.817  2.4444  5.0562 -1.8945
  516MOL0     H69601   0.970   8.112   3.522 -1.3120  1.5016 -1.3001
  516MOL0     H69602   0.940   8.266   3.600  0.8887  0.5929  1.9854
  516MOL0     H69603   1.107   8.226   3.775  1.6549 -1.3896  1.0110
  516MOL0     H69604   1.108   8.061   3.743 -0.0027 -0.5134  0.2600
  516MOL0     H69605   1.239   8.110   3.518 -2.0015  0.2780 -1.9120
  516MOL0     H69606   1.203   8.279   3.546 -1.6431 -0.2104 -0.1517
  516MOL0     H69607   1.387   8.084   3.685 -1.4469 -1.1123 -0.9434
  516MOL0     H69608   1.331   8.225   3.777 -0.9050  0.4482 -0.5160
  516MOL0     H69609   1.445   8.277   3.513 -1.1938 -2.3319 -0.4804
  516MOL0     H69610   1.406   8.386   3.642 -0.8975 -1.6288  2.4598
  516MOL0     H69611   1.706   8.191   3.538  0.2980  1.7979 -0.0086
  516MOL0     H69612   1.929   8.108   3.697 -0.9902 -0.2270 -2.9762
  516MOL0     H69613   1.946   8.236   3.581 -3.6286 -2.8397 -1.5510
  516MOL0     H69614   2.001   8.319   3.865 -0.4328 -1.9639 -1.2704
  516MOL0     H69615   2.128   8.226   3.777  2.0941  0.7288  0.7718
  516MOL0     H69616   1.991   8.498   3.693 -0.9154 -0.6198  0.2343
  516MOL0     H69617   2.106   8.413   3.591  0.1713 -1.8118  0.6761
  516MOL0     H69618   2.143   8.522   3.864  0.5264  4.2026  0.0637
  516MOL0     H69619   2.226   8.578   3.724  0.7083  0.6081  2.2434
  516MOL0     H69620   2.311   8.622   3.961  0.0386  3.0646 -2.1233
  516MOL0     H69621   2.506   8.688   4.085  2.7443  0.2309  0.8292
  516MOL0     H69622   2.691   8.599   4.415  2.0380 -1.4639  1.0814
  516MOL0     H69623   2.827   8.644   4.600  1.0490 -0.8257  0.9006
  516MOL0     H69624   3.133   8.773   4.779  0.0764 -1.7114  2.0871
  516MOL0     H69625   2.959   8.724   4.752  0.5045  0.3929  1.0437
  516MOL0     H69626   3.022   8.499   4.679 -0.8442 -0.6932  0.8019
  516MOL0     H69627   3.178   8.567   4.637 -1.0974  2.7833 -0.6412
  516MOL0     H69628   3.096   8.551   4.922 -1.8258 -0.8789 -0.7892
  516MOL0     H69629   3.138   8.400   4.841  0.7196 -0.5627 -0.0994
  516MOL0     H69630   3.322   8.642   4.855  4.3186 -1.3276 -1.4062
  516MOL0     H69631   3.372   8.490   4.792  3.5582  0.2937  2.5567
  516MOL0     H69632   3.346   8.382   5.004 -2.5805 -0.6853 -0.9350
  516MOL0     H69633   3.276   8.520   5.079 -0.3240 -1.2654 -0.0441
  516MOL0     H69634   3.547   8.510   4.938  1.7284  0.7477 -0.1051
  516MOL0     H69635   3.483   8.649   5.036  0.1340  0.4767  0.6626
  516MOL0     H69636   3.520   8.366   5.145 -0.7545 -0.2666 -1.5553
  516MOL0     H69637   3.501   8.499   5.248 -0.3037 -0.3755 -0.2898
  516MOL0     H69638   3.711   8.601   5.168 -0.4979  0.2133 -2.1992
  516MOL0     H69639   3.725   8.446   5.268 -5.0220  1.3117  1.7956
  516MOL0     H69640   3.100   8.877   4.350 -1.1987  1.2751  1.4540
  516MOL0     H69641   2.943   8.820   4.153 -0.2198 -0.1928 -0.2457
  516MOL0     H69642   2.727   8.361   3.909 -0.0427 -1.5146 -0.4985
  516MOL0     H69643   2.537   8.285   3.799 -0.9018 -0.0755  0.0097
  516MOL0     H69644   0.261   8.203   3.644 -1.6328 -0.4383  0.2970
  516MOL0     H69645   0.042   8.187   3.786 -1.1485 -2.2504  0.0905
  516MOL0     H69646  -0.234   8.034   4.024  0.8292 -0.6275  0.5189
  516MOL0     H69647  -0.430   7.944   4.117  1.0987  2.1374 -2.0584
  516MOL0     H69648  -0.575   7.829   4.254 -3.0503 -2.1485  1.9446
  516MOL0     H69649  -0.628   7.991   4.269  2.0986  0.2913 -1.2654
  516MOL0     H69650  -0.705   7.755   4.443 -1.4563  0.0392 -0.0529
  516MOL0     H69651  -0.796   7.880   4.365 -0.5147  4.3115  0.5944
  516MOL0     H69652  -0.740   8.043   4.525 -1.3367 -0.0193 -0.9180
  516MOL0     H69653  -0.611   7.937   4.594 -0.9028 -0.1450  0.9454
  516MOL0     H69654  -0.817   7.961   4.744  3.7894  0.3944 -1.0368
  516MOL0     H69655  -0.918   7.924   4.603 -0.4161  1.2348 -0.1501
  516MOL0     H69656  -0.761   7.544   4.748  0.1957 -0.5262  1.1005
  516MOL0     H69657  -0.268   8.020   4.502  2.8158  0.2216  0.6035
  516MOL0     H69658   0.063   8.019   4.407  1.1317  1.5564  0.8185
  516MOL0     H69659   0.010   8.182   4.433 -1.6673 -0.5302  0.1591
  516MOL0     H69660  -0.057   8.057   4.542 -1.6563 -1.8214  0.0287
  517MOL0     O69661   4.606   5.119   0.492 -0.5310 -0.8365  0.5097
  517MOL0     C69662   4.500   5.163   0.446  0.7255 -0.0887 -0.8966
  517MOL0     O69663   4.470   5.225   0.327 -0.2603  0.0864  0.4878
  517MOL0     C69664   4.573   5.252   0.243 -0.8654  0.0914  0.9625
  517MOL0     C69665   4.656   5.363   0.262 -0.0787 -0.8735 -0.2810
  517MOL0     C69666   4.773   5.382   0.194 -0.0060 -0.2922  0.5427
  517MOL0     C69667   4.811   5.289   0.098 -0.0564  0.0895  0.2221
  517MOL0     O69668   4.926   5.309   0.029  0.1980  0.1696  0.1291
  517MOL0     C69669   4.997   5.193  -0.027 -0.8704  0.2411  0.6846
  517MOL0     C69670   5.139   5.250  -0.080  0.6853  0.8396 -0.0657
  517MOL0     C69671   5.223   5.299   0.037  0.3471 -0.5872 -0.2611
  517MOL0     C69672   5.357   5.372  -0.003  0.4986 -0.0783  0.3157
  517MOL0     C69673   5.455   5.278  -0.075  0.3538 -0.0476 -0.5865
  517MOL0     C69674   5.588   5.346  -0.074 -0.4111  0.0705 -0.0101
  517MOL0     C69675   5.685   5.265  -0.160 -0.3324  0.2285 -0.4396
  517MOL0     C69676   5.806   5.361  -0.191  0.3044  0.6033 -0.0373
  517MOL0     N69677   5.870   5.405  -0.071 -0.6687 -0.8811 -0.0128
  517MOL0     C69678   5.895   5.538  -0.031 -0.6724  0.1724  0.2658
  517MOL0     C69679   6.001   5.527   0.042  0.7879 -0.5713  0.1799
  517MOL0     C69680   6.058   5.631   0.135 -0.0971  0.3349 -0.6808
  517MOL0     C69681   6.190   5.692   0.085  0.6903 -0.2979  0.3868
  517MOL0     C69682   6.222   5.814   0.180  0.1221 -0.6444  1.0789
  517MOL0     C69683   6.360   5.868   0.154  0.3382 -0.0331 -0.3657
  517MOL0     O69684   6.375   5.937   0.026 -0.6093  0.7521  0.0566
  517MOL0     C69685   6.508   6.000  -0.002 -0.6707  0.3958  0.8243
  517MOL0     C69686   6.517   6.064  -0.125  1.0125  0.1122 -0.2393
  517MOL0     C69687   6.632   6.128  -0.171 -0.6620 -0.7288  0.4383
  517MOL0     C69688   6.732   6.161  -0.079 -0.0235  0.5351  0.0577
  517MOL0     C69689   6.839   6.258  -0.114 -0.4450  0.9440  0.7462
  517MOL0     O69690   6.832   6.303  -0.245  0.1509 -1.0018 -0.0887
  517MOL0     C69691   6.917   6.396  -0.288 -0.6141  0.1483  0.1969
  517MOL0     C69692   7.047   6.362  -0.329 -0.0693 -0.5271 -0.9561
  517MOL0     C69693   7.134   6.458  -0.364 -0.4169  0.0223 -0.5756
  517MOL0     C69694   7.114   6.599  -0.346  0.6679  0.2917  0.2583
  517MOL0     O69695   7.228   6.674  -0.380  0.2544  0.2159 -0.1951
  517MOL0     C69696   7.237   6.810  -0.341 -0.2815  0.3616  0.3229
  517MOL0     C69697   7.223   6.900  -0.469 -0.0982  0.1192  1.3210
  517MOL0     C69698   7.075   6.903  -0.518  0.2738 -0.1833  0.1151
  517MOL0     C69699   7.054   6.999  -0.637  0.2946  0.0525 -0.0624
  517MOL0     C69700   6.914   6.975  -0.719 -0.5546  0.8473 -0.5692
  517MOL0     C69701   6.799   7.027  -0.638  0.1235 -0.3326  0.8289
  517MOL0     C69702   6.662   6.994  -0.711 -1.2568  0.4740 -0.5321
  517MOL0     C69703   6.541   7.076  -0.646 -0.6949 -0.2102  1.0687
  517MOL0    Cl69704   6.525   7.006  -0.487  0.0401  0.2490 -0.0603
  517MOL0     C69705   6.989   6.636  -0.302 -0.0996 -1.0738 -0.2706
  517MOL0     C69706   6.890   6.537  -0.280  0.5450 -0.1795  0.0914
  517MOL0     O69707   6.938   6.269  -0.047 -0.5384 -0.4568  0.2962
  517MOL0     C69708   6.719   6.100   0.045 -0.1832 -0.0270  0.6273
  517MOL0     C69709   6.614   6.004   0.080 -1.0911 -0.1931  0.6365
  517MOL0     N69710   6.032   5.398   0.060  0.1978  0.3675  0.0267
  517MOL0     N69711   5.949   5.315   0.004  0.6177 -0.1282  0.2465
  517MOL0     C69712   4.730   5.180   0.077  0.4275  0.5010 -0.0810
  517MOL0     C69713   4.611   5.154   0.151 -0.8660  0.9912 -0.6002
  517MOL0     C69714   4.378   5.134   0.527  1.2056 -0.5336 -0.7118
  517MOL0     C69715   4.258   5.089   0.460  0.0314  0.6644 -0.4509
  517MOL0     C69716   4.145   5.046   0.517 -0.5807  0.5380  0.5299
  517MOL0     C69717   4.147   5.052   0.654 -0.1896  0.1563 -0.1147
  517MOL0     O69718   4.036   4.996   0.710  0.5594  0.5196 -0.5541
  517MOL0     C69719   4.010   4.984   0.849  0.0352 -0.0448  0.3276
  517MOL0     C69720   3.876   4.919   0.860 -0.6789 -0.4740 -0.1886
  517MOL0     C69721   3.890   4.782   0.814 -0.2561  0.2644  0.1828
  517MOL0     C69722   3.767   4.696   0.838  0.8726  0.2209  0.8595
  517MOL0     C69723   3.662   4.724   0.734  0.4874 -0.0437 -0.7878
  517MOL0     C69724   3.583   4.757   0.648  0.3178  0.4053 -1.0014
  517MOL0     C69725   4.259   5.101   0.726 -0.0621  0.0716  0.2440
  517MOL0     C69726   4.371   5.143   0.670 -0.6948 -0.2064  0.3924
  517MOL0     C69727   4.485   5.193   0.753  0.5594  0.5410  0.6306
  517MOL0     H69728   4.621   5.435   0.335  0.0478 -1.2312  0.1324
  517MOL0     H69729   4.831   5.473   0.208 -2.8434  1.5200  1.3229
  517MOL0     H69730   5.019   5.124   0.055  1.6456  0.2918  0.1452
  517MOL0     H69731   4.945   5.148  -0.112 -3.5312  2.0674  1.2164
  517MOL0     H69732   5.119   5.326  -0.155 -0.5742  3.0728  2.3770
  517MOL0     H69733   5.199   5.170  -0.125 -0.1915  1.0301 -1.6392
  517MOL0     H69734   5.235   5.216   0.107 -2.9433 -2.8494 -2.0735
  517MOL0     H69735   5.158   5.367   0.093 -1.3186  0.9678 -3.7670
  517MOL0     H69736   5.338   5.464  -0.059  0.8370 -0.8923 -1.2049
  517MOL0     H69737   5.401   5.396   0.094 -0.0020 -2.3009  1.1677
  517MOL0     H69738   5.468   5.182  -0.025  0.0879  1.0895  1.8287
  517MOL0     H69739   5.418   5.252  -0.175 -3.0525 -0.2072  0.5826
  517MOL0     H69740   5.572   5.439  -0.129  0.6744  0.5034  0.3722
  517MOL0     H69741   5.625   5.370   0.025  1.9596  1.8469 -1.2268
  517MOL0     H69742   5.630   5.243  -0.252  0.0951 -4.4296  0.1624
  517MOL0     H69743   5.713   5.166  -0.121 -2.9523 -0.8329 -1.0309
  517MOL0     H69744   5.879   5.303  -0.249 -0.8193 -1.7569  0.7643
  517MOL0     H69745   5.775   5.448  -0.249 -0.2218 -0.6905 -1.7964
  517MOL0     H69746   5.834   5.625  -0.053  2.9554  3.0835  0.7346
  517MOL0     H69747   5.981   5.707   0.151 -1.3993 -0.9565 -0.6145
  517MOL0     H69748   6.072   5.595   0.237 -4.5389 -0.4907 -0.1426
  517MOL0     H69749   6.268   5.618   0.105 -1.1017 -1.8235  2.1200
  517MOL0     H69750   6.190   5.719  -0.021  0.2425 -3.6622 -0.5817
  517MOL0     H69751   6.220   5.769   0.280  4.0329  1.3637  2.2921
  517MOL0     H69752   6.146   5.891   0.163 -1.0935 -2.2923 -1.4325
  517MOL0     H69753   6.436   5.790   0.169  1.8198  0.9748 -2.0885
  517MOL0     H69754   6.392   5.940   0.229  2.2811  0.9803 -2.0432
  517MOL0     H69755   6.437   6.054  -0.198  0.1641 -0.5279  0.7472
  517MOL0     H69756   6.630   6.172  -0.270 -1.7678 -0.5418  0.5251
  517MOL0     H69757   7.071   6.256  -0.335 -0.2953 -0.8615  2.1448
  517MOL0     H69758   7.232   6.431  -0.403 -0.2239 -2.9478  1.6407
  517MOL0     H69759   7.163   6.838  -0.265 -0.3154 -1.2073  0.9031
  517MOL0     H69760   7.334   6.831  -0.295  0.0333  0.1516 -0.2410
  517MOL0     H69761   7.262   7.000  -0.448 -2.7945  1.2023  1.6120
  517MOL0     H69762   7.285   6.853  -0.546 -0.9735  1.1515 -0.0863
  517MOL0     H69763   7.046   6.802  -0.548  2.1434 -1.1242  1.2867
  517MOL0     H69764   7.009   6.925  -0.433 -0.0120  4.1273 -0.9803
  517MOL0     H69765   7.147   7.002  -0.696  2.2935  0.8893  2.9129
  517MOL0     H69766   7.043   7.099  -0.594  2.5476 -0.7285  2.6159
  517MOL0     H69767   6.898   6.872  -0.754  0.7485 -0.2943  1.9455
  517MOL0     H69768   6.926   7.039  -0.808  0.8353  0.0861 -0.9610
  517MOL0     H69769   6.777   6.983  -0.541 -2.7046 -2.2376 -0.5376
  517MOL0     H69770   6.809   7.135  -0.635  2.5738 -0.2670 -2.6812
  517MOL0     H69771   6.651   6.885  -0.718 -1.1160  0.5042 -1.3205
  517MOL0     H69772   6.664   7.027  -0.815  0.2547  0.7126 -0.4567
  517MOL0     H69773   6.562   7.183  -0.643 -4.6053  0.7162  1.2633
  517MOL0     H69774   6.451   7.064  -0.707 -1.2227  1.1680  1.5430
  517MOL0     H69775   6.967   6.741  -0.283  2.1370 -1.0930  3.3557
  517MOL0     H69776   6.790   6.567  -0.252 -0.5041 -3.3097  0.0202
  517MOL0     H69777   6.794   6.112   0.123 -3.4100  1.2520  3.8307
  517MOL0     H69778   6.624   5.953   0.176  0.6634 -1.2286 -0.0405
  517MOL0     H69779   4.770   5.104   0.010  2.5339  0.4401  1.1710
  517MOL0     H69780   4.542   5.071   0.144  0.6797 -0.8886  3.2716
  517MOL0     H69781   4.259   5.092   0.352  0.1260  1.4323 -0.4337
  517MOL0     H69782   4.059   5.013   0.459 -0.2980  0.5088  0.1214
  517MOL0     H69783   4.000   5.076   0.906 -2.2630 -0.1954  0.2463
  517MOL0     H69784   4.076   4.920   0.908 -1.7864 -0.1734  2.3255
  517MOL0     H69785   3.803   4.972   0.799  0.4984  0.2529 -1.0078
  517MOL0     H69786   3.836   4.934   0.961 -1.3955 -0.3801 -0.4813
  517MOL0     H69787   3.980   4.738   0.858  1.0806 -1.2677 -3.6058
  517MOL0     H69788   3.899   4.777   0.705  0.3635 -1.0727  0.2696
  517MOL0     H69789   3.807   4.594   0.829 -0.9663 -0.3174 -3.5919
  517MOL0     H69790   3.725   4.720   0.937 -0.6625  0.4598  0.1800
  517MOL0     H69791   3.508   4.798   0.584 -1.6080 -0.7828  0.3985
  517MOL0     H69792   4.257   5.121   0.833  0.3642 -1.2198  0.5167
  517MOL0     H69793   4.514   5.292   0.717  3.0595 -0.8130 -1.4300
  517MOL0     H69794   4.460   5.190   0.860 -0.3452  1.6649  0.4602
  517MOL0     H69795   4.573   5.129   0.737  0.7620  0.7869  0.7419
  518MOL0     O69796   6.982   4.753   9.518 -0.6199 -0.5134 -0.5003
  518MOL0     C69797   7.017   4.797   9.626  0.6951  0.3207 -0.4346
  518MOL0     O69798   7.116   4.743   9.703 -0.2816  0.4785 -0.3837
  518MOL0     C69799   7.222   4.692   9.633 -1.0666  0.5939 -0.1724
  518MOL0     C69800   7.286   4.584   9.689  0.1476  0.1917 -0.0959
  518MOL0     C69801   7.415   4.538   9.644 -0.1916 -0.3446  0.1787
  518MOL0     C69802   7.467   4.609   9.532  0.3091 -0.4423 -1.1534
  518MOL0     O69803   7.591   4.555   9.484 -0.4382 -0.0403 -0.2006
  518MOL0     C69804   7.661   4.641   9.393 -0.1469 -0.0279 -0.3277
  518MOL0     C69805   7.791   4.583   9.355 -0.7184  0.0223 -0.3158
  518MOL0     C69806   7.882   4.707   9.305  0.5129 -0.4618 -0.6242
  518MOL0     C69807   8.022   4.647   9.297 -0.4744  0.1932 -0.8839
  518MOL0     C69808   8.139   4.744   9.274 -0.1997 -0.2748  0.3203
  518MOL0     C69809   8.158   4.767   9.120 -0.1875 -0.0620  0.1895
  518MOL0     C69810   8.289   4.833   9.108 -0.0546 -0.1559  0.3666
  518MOL0     C69811   8.412   4.741   9.131  1.0598 -0.5600 -0.2352
  518MOL0     N69812   8.532   4.811   9.087 -0.1987 -0.7706  0.9746
  518MOL0     C69813   8.574   4.940   9.122 -0.0572  0.9858 -0.2306
  518MOL0     C69814   8.676   4.977   9.032  0.8317  0.2237 -0.3320
  518MOL0     C69815   8.752   5.106   9.016 -0.7188  0.0806 -0.5465
  518MOL0     C69816   8.815   5.148   9.151  0.4818 -0.6675  0.2482
  518MOL0     C69817   8.883   5.285   9.136  0.7210 -0.3097 -0.8556
  518MOL0     C69818   8.784   5.393   9.110  0.4531 -0.3771 -0.5353
  518MOL0     O69819   8.834   5.523   9.141  0.0953 -0.4201 -0.2969
  518MOL0     C69820   8.753   5.629   9.109 -0.6132 -0.3612 -0.6041
  518MOL0     C69821   8.671   5.685   9.210  0.0604  0.1952 -0.8493
  518MOL0     C69822   8.580   5.792   9.192  0.4723  0.3209  0.1514
  518MOL0     C69823   8.583   5.855   9.075 -0.0312 -0.1898  0.5132
  518MOL0     C69824   8.502   5.972   9.046 -0.6706 -0.9670  0.0130
  518MOL0     O69825   8.440   6.023   9.158  0.5067  0.3191  0.0039
  518MOL0     C69826   8.345   6.117   9.165  1.0186  0.4966 -0.3757
  518MOL0     C69827   8.278   6.124   9.290 -0.1221  0.5186  0.6146
  518MOL0     C69828   8.158   6.197   9.289 -0.2918 -0.0538 -0.2657
  518MOL0     C69829   8.102   6.274   9.174  0.4637  0.4185 -0.2762
  518MOL0     O69830   7.990   6.353   9.178  0.1009  0.2274  0.1435
  518MOL0     C69831   7.916   6.381   9.296  0.1269  0.9446 -0.3055
  518MOL0     C69832   7.980   6.490   9.374 -0.0373  0.9101  0.2545
  518MOL0     C69833   7.895   6.535   9.495 -0.1999  0.4490  0.4412
  518MOL0     C69834   7.756   6.588   9.458  0.4653 -0.4605  0.0449
  518MOL0     C69835   7.688   6.633   9.588  0.7180 -0.2219 -0.8174
  518MOL0     C69836   7.540   6.638   9.581 -0.6932 -0.0167  0.5985
  518MOL0     C69837   7.467   6.509   9.542 -1.3325 -0.5062  0.0845
  518MOL0     C69838   7.321   6.503   9.596 -0.6276  0.0587 -0.1789
  518MOL0    Cl69839   7.210   6.567   9.468 -0.0137 -0.1236 -0.0601
  518MOL0     C69840   8.177   6.270   9.060 -0.9387  1.0073 -0.5488
  518MOL0     C69841   8.289   6.185   9.050 -0.2069  0.1652  0.1021
  518MOL0     O69842   8.497   6.015   8.933 -0.4526 -0.6196 -0.4258
  518MOL0     C69843   8.666   5.804   8.973 -0.1888  0.0073  0.1146
  518MOL0     C69844   8.752   5.686   8.985  0.0520  0.0605  0.4840
  518MOL0     N69845   8.681   4.877   8.943  0.6156  0.4228  0.7856
  518MOL0     N69846   8.602   4.787   8.976  0.8716 -0.4070  0.4385
  518MOL0     C69847   7.395   4.714   9.473 -0.4525 -0.7864 -0.1645
  518MOL0     C69848   7.273   4.762   9.519 -0.5328 -0.9260  0.1791
  518MOL0     C69849   6.926   4.894   9.684 -0.7563  1.1915 -0.9283
  518MOL0     C69850   6.789   4.889   9.660  0.2577 -0.3031 -0.3568
  518MOL0     C69851   6.706   4.989   9.703 -0.2840  0.6467 -0.1059
  518MOL0     C69852   6.746   5.092   9.791 -0.1038 -0.5665 -0.1483
  518MOL0     O69853   6.658   5.186   9.835  0.1124  0.2179  0.5408
  518MOL0     C69854   6.510   5.148   9.845  0.3909 -0.7418 -0.2714
  518MOL0     C69855   6.449   5.263   9.933  0.0247 -0.6375 -0.0116
  518MOL0     C69856   6.308   5.226   9.989  0.6056  0.0755 -0.2686
  518MOL0     C69857   6.263   5.311  10.105 -0.0678 -0.2720 -0.4410
  518MOL0     C69858   6.300   5.447  10.078  0.0959 -0.9039  1.6204
  518MOL0     C69859   6.319   5.566  10.040  0.6301 -0.0960 -0.3873
  518MOL0     C69860   6.878   5.082   9.834 -0.3680  0.3758  0.9115
  518MOL0     C69861   6.969   4.991   9.776 -0.5932  0.2552  0.3086
  518MOL0     C69862   7.117   5.023   9.802  0.2519 -0.2245 -0.2492
  518MOL0     H69863   7.243   4.533   9.775  0.4405  0.3224  0.1310
  518MOL0     H69864   7.468   4.461   9.698  0.1714 -1.0123 -1.0828
  518MOL0     H69865   7.611   4.664   9.298  2.2448  0.7252 -1.4655
  518MOL0     H69866   7.680   4.735   9.445 -0.1131 -0.8212  1.1542
  518MOL0     H69867   7.770   4.506   9.281 -2.8103 -1.1315  1.3680
  518MOL0     H69868   7.832   4.546   9.449 -0.1426 -2.0022 -1.3159
  518MOL0     H69869   7.869   4.787   9.378 -1.6382 -2.1193  0.9482
  518MOL0     H69870   7.855   4.754   9.210 -0.9978  1.1425  0.5433
  518MOL0     H69871   8.038   4.609   9.399 -0.2710 -1.0708 -1.3804
  518MOL0     H69872   8.028   4.563   9.228  3.0282 -0.2005 -0.3015
  518MOL0     H69873   8.121   4.833   9.336 -1.8960 -1.5121  1.7116
  518MOL0     H69874   8.220   4.686   9.319 -0.1251 -1.1851 -0.9351
  518MOL0     H69875   8.158   4.672   9.066 -2.3593 -0.0949  0.1534
  518MOL0     H69876   8.071   4.827   9.092  0.7607  1.5215  0.5133
  518MOL0     H69877   8.299   4.916   9.179  1.8989 -0.2664  0.2962
  518MOL0     H69878   8.294   4.879   9.009  1.2083  1.5010  1.1373
  518MOL0     H69879   8.428   4.716   9.236  3.4229  0.5729 -0.2486
  518MOL0     H69880   8.390   4.646   9.082  2.2541  0.0967 -2.1545
  518MOL0     H69881   8.536   5.002   9.202  0.5962  1.6316 -0.4093
  518MOL0     H69882   8.840   5.074   8.958 -0.7818  1.0709 -1.2336
  518MOL0     H69883   8.695   5.189   8.972 -3.2583  0.7284  3.4958
  518MOL0     H69884   8.743   5.168   9.231  1.2893 -0.4095  0.9234
  518MOL0     H69885   8.895   5.076   9.172  0.8707 -0.1426  0.6110
  518MOL0     H69886   8.966   5.292   9.066  1.0157 -0.1299 -0.4900
  518MOL0     H69887   8.925   5.312   9.233 -0.1748 -2.0691  0.0694
  518MOL0     H69888   8.700   5.372   9.176 -1.6199  1.0097 -2.5343
  518MOL0     H69889   8.747   5.393   9.007  1.8696 -0.3942 -1.0636
  518MOL0     H69890   8.670   5.635   9.306 -0.5404 -0.4880 -1.2031
  518MOL0     H69891   8.517   5.835   9.269 -0.8536 -0.3187 -0.5551
  518MOL0     H69892   8.312   6.067   9.376 -2.9714 -0.5587  1.1415
  518MOL0     H69893   8.108   6.210   9.384  0.2086  3.6536 -0.3700
  518MOL0     H69894   7.812   6.403   9.268 -1.4497 -1.0318  3.3535
  518MOL0     H69895   7.903   6.303   9.371 -1.4688  1.4379 -0.0295
  518MOL0     H69896   8.073   6.457   9.421 -1.0660 -1.3104  0.8630
  518MOL0     H69897   7.985   6.584   9.317 -0.0721  2.3965  2.5578
  518MOL0     H69898   7.902   6.460   9.575 -1.7921 -1.9988 -1.5831
  518MOL0     H69899   7.945   6.627   9.528 -0.1984  1.2681 -1.7141
  518MOL0     H69900   7.704   6.503   9.413  1.4374 -0.3757 -1.3243
  518MOL0     H69901   7.766   6.670   9.386 -1.9784 -0.3573 -0.2668
  518MOL0     H69902   7.718   6.738   9.600  0.4221 -0.1648 -0.5614
  518MOL0     H69903   7.700   6.568   9.674 -2.3670 -0.2182 -0.2671
  518MOL0     H69904   7.514   6.662   9.685  2.3221  0.1693  1.3949
  518MOL0     H69905   7.500   6.723   9.525  1.0367  0.4161 -0.0237
  518MOL0     H69906   7.515   6.421   9.588  0.3237 -0.6919 -1.8614
  518MOL0     H69907   7.465   6.493   9.434 -0.0478 -0.9298  0.1006
  518MOL0     H69908   7.301   6.396   9.604 -1.5894  0.2184 -0.3726
  518MOL0     H69909   7.310   6.550   9.695  0.2471 -0.1857  0.0397
  518MOL0     H69910   8.154   6.337   8.977 -0.6159 -0.2004 -1.6418
  518MOL0     H69911   8.331   6.187   8.950 -0.2908 -0.4810  0.0513
  518MOL0     H69912   8.663   5.837   8.869  2.7302 -2.1147 -0.7756
  518MOL0     H69913   8.803   5.645   8.899  1.3008  1.2492  0.6128
  518MOL0     H69914   7.430   4.761   9.382 -1.5543 -3.4518 -2.1169
  518MOL0     H69915   7.218   4.846   9.477 -2.8927 -2.5421 -0.1183
  518MOL0     H69916   6.747   4.820   9.587 -0.7838  1.2446 -1.2822
  518MOL0     H69917   6.608   4.972   9.660 -0.1804 -0.3167  0.0211
  518MOL0     H69918   6.495   5.047   9.883  0.9452 -1.0928 -0.9387
  518MOL0     H69919   6.449   5.159   9.754 -5.1088  2.2710  3.2500
  518MOL0     H69920   6.433   5.351   9.870 -1.5530  1.3484  2.9575
  518MOL0     H69921   6.511   5.283  10.021 -0.3348 -0.1548  0.1360
  518MOL0     H69922   6.297   5.118  10.005 -0.8825  0.6497  3.7256
  518MOL0     H69923   6.242   5.235   9.903 -2.4577 -2.3464  1.6045
  518MOL0     H69924   6.155   5.309  10.123 -0.1772  1.8645 -0.6015
  518MOL0     H69925   6.325   5.287  10.192  1.0318  0.2999 -1.0483
  518MOL0     H69926   6.322   5.670  10.015 -2.4354  0.1282 -0.2449
  518MOL0     H69927   6.911   5.160   9.903 -2.0472  0.0171  2.1745
  518MOL0     H69928   7.155   4.964   9.886  0.3488 -1.5577 -1.1953
  518MOL0     H69929   7.180   4.994   9.718  0.2634  0.4979 -0.4965
  518MOL0     H69930   7.126   5.131   9.816 -2.2718  0.1598 -0.9828
  519MOL0     O69931   8.195  11.062   6.243  0.2689 -0.7858 -0.1426
  519MOL0     C69932   8.144  11.169   6.259  0.1468 -0.4870  0.4265
  519MOL0     O69933   8.186  11.264   6.353  0.5511  0.4892  0.0523
  519MOL0     C69934   8.310  11.275   6.390  0.4060  0.6213 -0.5115
  519MOL0     C69935   8.408  11.288   6.300 -0.3418 -0.7208 -0.4620
  519MOL0     C69936   8.547  11.294   6.336 -0.0300 -0.1799 -0.6632
  519MOL0     C69937   8.586  11.281   6.469  0.3135 -0.6456 -0.3726
  519MOL0     O69938   8.712  11.275   6.512 -0.7985  0.0009  0.0020
  519MOL0     C69939   8.792  11.191   6.428 -0.5634  0.7651  0.0511
  519MOL0     C69940   8.928  11.138   6.498  0.3693 -0.5109  0.4308
  519MOL0     C69941   9.023  11.095   6.381  0.1155 -0.1293 -0.5173
  519MOL0     C69942   9.173  11.064   6.406  0.2880 -0.2392  0.0652
  519MOL0     C69943   9.260  11.055   6.286 -0.1518  0.6394  0.0108
  519MOL0     C69944   9.295  10.913   6.242 -0.6293  0.5287 -0.1510
  519MOL0     C69945   9.368  10.916   6.103 -0.0834  0.9360  0.6623
  519MOL0     C69946   9.420  10.775   6.074  0.4708  0.1447  0.8417
  519MOL0     N69947   9.560  10.749   6.120  0.2461 -0.3240 -0.7029
  519MOL0     C69948   9.670  10.726   6.053 -0.2763 -0.0665 -0.5415
  519MOL0     C69949   9.758  10.680   6.146  0.1598 -0.6514  0.1597
  519MOL0     C69950   9.905  10.645   6.117 -0.7499 -0.5123 -0.9571
  519MOL0     C69951  10.013  10.738   6.175 -0.7544  0.3601 -0.3304
  519MOL0     C69952  10.001  10.876   6.106  0.9299  0.8089  0.2334
  519MOL0     C69953  10.101  10.984   6.134  0.2297 -0.6331 -0.0116
  519MOL0     O69954  10.226  10.940   6.084 -0.3338 -0.0186  0.3161
  519MOL0     C69955  10.321  11.039   6.114  0.3754  0.6407 -0.3074
  519MOL0     C69956  10.364  11.080   6.235 -0.6372  0.5127 -0.5676
  519MOL0     C69957  10.481  11.163   6.247  0.0571  0.2958 -0.0231
  519MOL0     C69958  10.541  11.219   6.133 -0.9359 -0.6681  0.5036
  519MOL0     C69959  10.665  11.300   6.133  0.7790  0.6413  0.8551
  519MOL0     O69960  10.725  11.293   6.255  0.8609  0.2358  0.0068
  519MOL0     C69961  10.837  11.369   6.285 -0.6231  0.0359  0.3542
  519MOL0     C69962  10.874  11.397   6.422  0.5820 -0.2628 -0.5149
  519MOL0     C69963  10.998  11.442   6.465  0.7810 -0.6196 -0.4801
  519MOL0     C69964  11.101  11.449   6.375 -0.7111  0.2349 -0.5853
  519MOL0     O69965  11.224  11.480   6.429  0.3438  0.1128 -0.8410
  519MOL0     C69966  11.329  11.522   6.347 -0.8688 -0.4632 -0.6367
  519MOL0     C69967  11.476  11.511   6.406  0.4107 -0.4325 -0.4017
  519MOL0     C69968  11.488  11.601   6.530  0.1722 -0.2309  1.0571
  519MOL0     C69969  11.632  11.608   6.586 -0.4786 -0.7795  0.0982
  519MOL0     C69970  11.672  11.470   6.639 -0.7907 -0.2099  0.3003
  519MOL0     C69971  11.770  11.470   6.744 -0.2692 -0.1079  0.3006
  519MOL0     C69972  11.852  11.340   6.753  0.3301 -0.7139 -0.3323
  519MOL0     C69973  11.931  11.295   6.625  0.8962 -1.6591 -0.0996
  519MOL0    Cl69974  12.009  11.442   6.566  0.5076  0.8327  0.0057
  519MOL0     C69975  11.078  11.412   6.245 -0.3889  0.5370  0.2580
  519MOL0     C69976  10.950  11.373   6.196  1.8065 -0.7681 -0.7107
  519MOL0     O69977  10.705  11.362   6.029  0.1464  0.4203 -0.6973
  519MOL0     C69978  10.487  11.179   6.013 -0.1795 -0.3370 -0.3706
  519MOL0     C69979  10.378  11.100   6.005 -0.2629 -0.8248  0.0047
  519MOL0     N69980   9.706  10.665   6.272  0.4045  0.9410 -0.4708
  519MOL0     N69981   9.583  10.710   6.250 -0.0404  0.0537 -0.5328
  519MOL0     C69982   8.488  11.254   6.563  0.2517  0.4563  0.4317
  519MOL0     C69983   8.348  11.256   6.528  0.6275 -0.0305  0.1031
  519MOL0     C69984   8.013  11.191   6.200 -0.6506 -0.6850  0.1480
  519MOL0     C69985   7.925  11.287   6.264 -0.4903  0.3234  0.4110
  519MOL0     C69986   7.813  11.334   6.207  0.7518 -0.5490  0.4815
  519MOL0     C69987   7.771  11.274   6.084  0.7680 -0.3779  0.0000
  519MOL0     O69988   7.643  11.306   6.036  0.0634 -0.0239  0.1932
  519MOL0     C69989   7.582  11.440   6.069 -0.0307 -0.1203  1.6525
  519MOL0     C69990   7.471  11.433   6.173 -0.3066 -0.1413  0.0785
  519MOL0     C69991   7.364  11.326   6.141  0.2816  1.0081  0.7275
  519MOL0     C69992   7.260  11.380   6.048 -0.9124  0.4279 -0.2135
  519MOL0     C69993   7.173  11.478   6.106  0.2048 -0.2713 -0.0372
  519MOL0     C69994   7.089  11.548   6.163 -0.2285  0.0270  0.2028
  519MOL0     C69995   7.861  11.189   6.018 -0.3576  0.0387  0.5283
  519MOL0     C69996   7.978  11.146   6.070 -1.0041  0.6025  0.1855
  519MOL0     C69997   8.057  11.049   5.983  0.0956  0.4802  0.9649
  519MOL0     H69998   8.376  11.305   6.198 -1.8697  0.2992  0.1497
  519MOL0     H69999   8.618  11.327   6.261 -1.4416  1.7064 -1.2781
  519MOL0     H70000   8.737  11.104   6.391 -0.6135  0.4330  0.8719
  519MOL0     H70001   8.819  11.252   6.341 -2.6068  1.2984 -0.2616
  519MOL0     H70002   8.893  11.051   6.555 -2.7526  0.3488  0.0394
  519MOL0     H70003   8.962  11.218   6.565 -1.4002 -0.8989  1.8710
  519MOL0     H70004   9.028  11.180   6.311  0.5233  0.2036 -0.0917
  519MOL0     H70005   8.975  11.019   6.319 -0.5941  0.5451 -0.8220
  519MOL0     H70006   9.213  11.128   6.485  2.9410 -2.3652  0.5824
  519MOL0     H70007   9.165  10.965   6.453  3.3694 -1.4295 -1.6397
  519MOL0     H70008   9.217  11.103   6.198  0.4187  1.9239  0.4107
  519MOL0     H70009   9.354  11.109   6.301 -0.9888  1.9395  0.7600
  519MOL0     H70010   9.364  10.865   6.312  1.6723  1.0594 -1.9193
  519MOL0     H70011   9.208  10.848   6.229 -0.3804  0.2510 -0.4909
  519MOL0     H70012   9.447  10.992   6.100  1.2869 -0.4460  0.2686
  519MOL0     H70013   9.295  10.934   6.023  0.8951  0.9190 -0.2621
  519MOL0     H70014   9.359  10.701   6.126 -0.5986 -0.1878 -0.8068
  519MOL0     H70015   9.416  10.748   5.968  3.8241 -0.0854  0.6566
  519MOL0     H70016   9.696  10.745   5.949 -0.3596 -3.8368 -1.4250
  519MOL0     H70017   9.916  10.544   6.157  0.7644  0.4167  1.1548
  519MOL0     H70018   9.917  10.643   6.008  0.2343 -1.5064 -0.8515
  519MOL0     H70019  10.017  10.750   6.284  0.7187 -2.1694 -0.0184
  519MOL0     H70020  10.110  10.699   6.143  1.4364  3.4163  2.0010
  519MOL0     H70021   9.898  10.911   6.120  0.0772 -1.3212 -0.3171
  519MOL0     H70022  10.008  10.863   5.998  0.5591 -0.6381  0.3690
  519MOL0     H70023  10.102  11.016   6.239  1.2814  0.6324 -0.3850
  519MOL0     H70024  10.071  11.071   6.076  0.4147 -1.0094 -0.6835
  519MOL0     H70025  10.321  11.045   6.328  1.6055  1.6596  0.9881
  519MOL0     H70026  10.523  11.193   6.343  1.5388 -3.2451  0.5699
  519MOL0     H70027  10.804  11.360   6.496  0.7037 -1.1439 -0.8301
  519MOL0     H70028  11.021  11.457   6.570 -0.2158 -0.9298 -0.2007
  519MOL0     H70029  11.330  11.464   6.254  2.2035 -0.2671 -0.8356
  519MOL0     H70030  11.309  11.621   6.304  0.1065  1.4428  2.9227
  519MOL0     H70031  11.495  11.407   6.432  0.7820 -0.0651  0.8508
  519MOL0     H70032  11.537  11.549   6.323 -0.6106  1.7593 -0.2201
  519MOL0     H70033  11.454  11.703   6.509 -2.0272 -1.4097 -1.7075
  519MOL0     H70034  11.427  11.556   6.609  2.1245 -3.5297  0.8480
  519MOL0     H70035  11.632  11.686   6.663  2.9667 -0.2700 -0.2762
  519MOL0     H70036  11.713  11.636   6.519  1.1177  1.3423  2.7112
  519MOL0     H70037  11.701  11.406   6.555  1.8450  1.8677 -0.5439
  519MOL0     H70038  11.580  11.423   6.674 -0.8374 -3.0867 -3.0714
  519MOL0     H70039  11.831  11.559   6.727 -0.0327 -0.4312 -0.5661
  519MOL0     H70040  11.718  11.482   6.840 -0.0109 -2.4801  0.7976
  519MOL0     H70041  11.775  11.266   6.774 -1.9860  1.0525 -2.0826
  519MOL0     H70042  11.915  11.357   6.841 -1.4978 -0.9121  1.0829
  519MOL0     H70043  11.998  11.215   6.656  0.6146 -0.9706  2.5106
  519MOL0     H70044  11.862  11.266   6.545 -0.5160  2.7402 -0.7493
  519MOL0     H70045  11.146  11.406   6.160 -1.0651 -1.7568 -0.1849
  519MOL0     H70046  10.924  11.346   6.094 -0.0700  0.0883 -0.5070
  519MOL0     H70047  10.539  11.207   5.922  0.1460 -0.5202 -0.2442
  519MOL0     H70048  10.348  11.082   5.902  2.5634 -0.4646 -0.9669
  519MOL0     H70049   8.519  11.231   6.665  2.0289  0.4495 -0.0651
  519MOL0     H70050   8.264  11.233   6.593 -2.9211 -0.9781 -4.2932
  519MOL0     H70051   7.960  11.337   6.354  0.8455  0.2673 -0.0525
  519MOL0     H70052   7.749  11.397   6.269  0.6698 -0.7769  0.6313
  519MOL0     H70053   7.534  11.470   5.975  1.4388 -1.7847  0.2897
  519MOL0     H70054   7.656  11.518   6.092  0.1507  0.7463 -1.3608
  519MOL0     H70055   7.437  11.530   6.210 -1.4196 -0.8226  0.9002
  519MOL0     H70056   7.529  11.393   6.257  2.4044 -0.7137 -1.9206
  519MOL0     H70057   7.326  11.294   6.238  0.5130 -1.4363  0.0681
  519MOL0     H70058   7.416  11.243   6.091  1.7783  0.2254  3.3965
  519MOL0     H70059   7.307  11.422   5.959  0.2658 -1.9849 -0.8293
  519MOL0     H70060   7.192  11.304   6.008  0.5923 -1.0661 -0.0636
  519MOL0     H70061   7.010  11.607   6.205 -0.9670  0.2875 -1.4709
  519MOL0     H70062   7.830  11.139   5.927 -2.2156  0.0194  1.1167
  519MOL0     H70063   8.160  11.081   5.968 -0.1424  0.1670 -2.0601
  519MOL0     H70064   8.051  10.949   6.028 -0.4779  0.8968  1.8357
  519MOL0     H70065   8.009  11.049   5.884  1.2494  2.1434  0.3674
  520MOL0     O70066   3.085   0.708  10.010  0.6038 -0.2871  0.3815
  520MOL0     C70067   3.107   0.708   9.893  0.0134  0.7706  0.1888
  520MOL0     O70068   3.017   0.678   9.793 -0.5440 -0.6140 -0.6015
  520MOL0     C70069   2.881   0.685   9.814  0.6975  0.0166 -0.4772
  520MOL0     C70070   2.821   0.783   9.889  0.4706 -0.7621 -0.0273
  520MOL0     C70071   2.681   0.793   9.916 -0.4435 -0.1072 -0.1154
  520MOL0     C70072   2.597   0.702   9.867 -0.3464  0.0249 -0.6808
  520MOL0     O70073   2.461   0.697   9.904 -0.1718 -0.0076  0.3872
  520MOL0     C70074   2.382   0.822   9.945  0.3518  0.2689  0.2091
  520MOL0     C70075   2.229   0.786   9.966  0.2758 -0.5576 -0.7279
  520MOL0     C70076   2.171   0.800   9.829 -0.2154  0.2774  0.6474
  520MOL0     C70077   2.037   0.750   9.820  0.4487 -0.0189  1.1817
  520MOL0     C70078   1.921   0.846   9.863 -0.2970 -0.5158  0.0797
  520MOL0     C70079   1.783   0.791   9.870  0.4700  0.0553  0.2263
  520MOL0     C70080   1.673   0.889   9.902  0.5127 -0.1009  0.4548
  520MOL0     C70081   1.649   0.995   9.798  0.1820  0.0633 -0.2442
  520MOL0     N70082   1.554   0.943   9.689 -0.5465 -0.3194  0.5949
  520MOL0     C70083   1.587   0.841   9.602  0.1506 -0.0666  0.5167
  520MOL0     C70084   1.473   0.800   9.538  0.9932 -0.4632 -0.5524
  520MOL0     C70085   1.448   0.686   9.436  0.0771 -0.0743 -0.4458
  520MOL0     C70086   1.511   0.727   9.304 -0.0064  0.6228 -0.2594
  520MOL0     C70087   1.480   0.650   9.182 -0.5718  0.2431  0.1889
  520MOL0     C70088   1.337   0.652   9.115  0.6996  0.3512  0.7313
  520MOL0     O70089   1.312   0.776   9.052 -0.2668  0.4692  0.4751
  520MOL0     C70090   1.194   0.804   8.986 -0.1096  0.8827  0.4949
  520MOL0     C70091   1.150   0.932   8.981  0.1915 -0.5758 -0.6508
  520MOL0     C70092   1.033   0.957   8.915 -0.0728  0.0492  0.5590
  520MOL0     C70093   0.956   0.855   8.861 -0.5520 -0.5289  0.7730
  520MOL0     C70094   0.822   0.880   8.809  0.2323  0.4915  0.1862
  520MOL0     O70095   0.768   0.776   8.731  0.2177  0.5389  0.3515
  520MOL0     C70096   0.643   0.783   8.660 -0.4626 -0.0372 -0.1567
  520MOL0     C70097   0.581   0.659   8.630 -0.8386 -0.3998  1.0945
  520MOL0     C70098   0.456   0.649   8.570 -0.2867  0.1111 -0.3106
  520MOL0     C70099   0.399   0.763   8.522 -0.0772 -0.3192 -0.7781
  520MOL0     O70100   0.279   0.751   8.452  0.0098  0.0638 -0.3252
  520MOL0     C70101   0.166   0.774   8.539  0.3888 -0.3588 -0.9616
  520MOL0     C70102   0.040   0.733   8.462  0.4623 -0.1652 -0.5981
  520MOL0     C70103  -0.073   0.710   8.548  1.2897 -0.6616 -0.7768
  520MOL0     C70104  -0.200   0.672   8.475 -0.0691 -0.3443  0.5283
  520MOL0     C70105  -0.279   0.796   8.418  0.2397  0.1823  0.2605
  520MOL0     C70106  -0.414   0.756   8.351  0.6184  0.1624 -0.3556
  520MOL0     C70107  -0.493   0.881   8.308  0.7062 -1.0262 -0.2826
  520MOL0     C70108  -0.603   0.844   8.196 -0.4959 -0.0255  0.0874
  520MOL0    Cl70109  -0.709   0.708   8.270 -0.2904  0.1086 -0.5744
  520MOL0     C70110   0.464   0.891   8.559 -0.5655 -0.4847  0.7246
  520MOL0     C70111   0.590   0.904   8.620  0.4232 -0.2133 -0.1807
  520MOL0     O70112   0.762   0.983   8.839  0.2007  0.0606 -0.2970
  520MOL0     C70113   1.023   0.726   8.856 -0.2798  0.5220 -0.1735
  520MOL0     C70114   1.149   0.702   8.911  0.2190  0.1921  0.1516
  520MOL0     N70115   1.376   0.880   9.587  0.4789  0.7653 -0.3094
  520MOL0     N70116   1.417   0.976   9.663 -0.7429 -0.7206  0.4075
  520MOL0     C70117   2.652   0.601   9.789  0.3820  0.8595 -0.1652
  520MOL0     C70118   2.788   0.588   9.759  0.2306 -0.5926 -0.2592
  520MOL0     C70119   3.240   0.739   9.841 -0.3992  0.1226 -0.4179
  520MOL0     C70120   3.308   0.826   9.920 -0.9130  0.0822  0.0732
  520MOL0     C70121   3.436   0.871   9.874  0.4531 -0.4166  0.2740
  520MOL0     C70122   3.493   0.832   9.755 -0.7442 -0.5135  0.7821
  520MOL0     O70123   3.612   0.878   9.707 -0.6620 -0.9027  0.8620
  520MOL0     C70124   3.707   0.944   9.805 -0.0946 -0.4456  1.1371
  520MOL0     C70125   3.760   0.841   9.901  0.0283  0.2274 -0.5283
  520MOL0     C70126   3.832   0.909  10.017  0.1973  0.7757 -0.4471
  520MOL0     C70127   3.910   0.807  10.106 -0.2441 -0.5018 -0.7611
  520MOL0     C70128   3.941   0.668  10.062 -0.4274 -0.4111  0.0496
  520MOL0     C70129   3.975   0.554  10.040 -0.4142  0.0704 -0.1119
  520MOL0     C70130   3.419   0.752   9.670  0.4445 -0.6088  0.2883
  520MOL0     C70131   3.292   0.716   9.705  0.0051 -0.5527 -1.1086
  520MOL0     C70132   3.228   0.614   9.625  0.1403  0.1091 -0.2314
  520MOL0     H70133   2.885   0.849   9.947 -0.3733 -0.4842  0.6136
  520MOL0     H70134   2.641   0.861   9.991 -2.6675 -2.5759  1.0947
  520MOL0     H70135   2.421   0.855  10.042  1.4595 -0.8302  0.1580
  520MOL0     H70136   2.388   0.902   9.871 -1.4896  0.6805  0.4577
  520MOL0     H70137   2.188   0.857  10.038  5.5311 -0.7894  3.0049
  520MOL0     H70138   2.200   0.690  10.010 -0.0974 -0.0029  0.2673
  520MOL0     H70139   2.237   0.739   9.766  3.1027  0.5749  3.5193
  520MOL0     H70140   2.180   0.904   9.796  0.8246  0.0916  0.3120
  520MOL0     H70141   2.021   0.734   9.713  0.6952 -0.9454  1.2806
  520MOL0     H70142   2.019   0.650   9.860  1.3223 -0.8193 -0.3851
  520MOL0     H70143   1.947   0.897   9.957  2.5064 -1.0796 -0.2880
  520MOL0     H70144   1.919   0.934   9.799  0.3472  0.9913  2.0162
  520MOL0     H70145   1.756   0.737   9.779  1.4281  0.9149 -0.5977
  520MOL0     H70146   1.784   0.712   9.945  0.6036  1.5216  1.8341
  520MOL0     H70147   1.715   0.940   9.989 -0.4320 -0.1286  0.9392
  520MOL0     H70148   1.589   0.829   9.938  1.7506 -1.9678  0.3725
  520MOL0     H70149   1.600   1.081   9.845  1.8462  1.1891 -0.5079
  520MOL0     H70150   1.733   1.043   9.747 -1.5413  2.7489 -0.8023
  520MOL0     H70151   1.685   0.799   9.582 -0.4709 -0.4072 -2.4061
  520MOL0     H70152   1.488   0.588   9.465 -2.0808 -0.4148  1.6344
  520MOL0     H70153   1.340   0.670   9.434 -0.5972  3.4623  0.5499
  520MOL0     H70154   1.494   0.834   9.290 -1.8244  0.4007 -0.0221
  520MOL0     H70155   1.618   0.720   9.327 -0.9806 -1.8320  5.0932
  520MOL0     H70156   1.496   0.542   9.193  0.0682  0.3833  0.7379
  520MOL0     H70157   1.536   0.690   9.098 -2.4989 -1.7775 -2.2064
  520MOL0     H70158   1.255   0.642   9.187  0.9267 -3.0762  0.6604
  520MOL0     H70159   1.333   0.567   9.046 -2.6509 -0.2225  1.4672
  520MOL0     H70160   1.204   1.007   9.038  0.4203 -2.2835  1.5321
  520MOL0     H70161   0.998   1.059   8.905 -3.0380 -1.0950 -4.0650
  520MOL0     H70162   0.636   0.567   8.648  1.1226  0.0464 -1.9576
  520MOL0     H70163   0.403   0.556   8.553 -3.1825  0.0055  6.2202
  520MOL0     H70164   0.177   0.721   8.635  0.1222  0.3148 -0.5517
  520MOL0     H70165   0.154   0.879   8.566 -1.9501 -1.1902  1.7036
  520MOL0     H70166   0.025   0.808   8.384  0.7089 -0.8692 -1.3435
  520MOL0     H70167   0.067   0.643   8.405  3.1380  1.9776 -3.0297
  520MOL0     H70168  -0.048   0.624   8.610 -0.8197 -1.1001 -0.4764
  520MOL0     H70169  -0.102   0.785   8.622  0.4574 -0.2272 -1.5233
  520MOL0     H70170  -0.264   0.615   8.544 -0.0554  2.6069  3.1824
  520MOL0     H70171  -0.165   0.610   8.392  1.1340  1.1327 -0.1185
  520MOL0     H70172  -0.211   0.847   8.348  1.3268 -0.6785  0.6569
  520MOL0     H70173  -0.304   0.868   8.496 -2.1520 -2.5989  2.2867
  520MOL0     H70174  -0.390   0.694   8.264  1.0993 -0.2854  0.0847
  520MOL0     H70175  -0.477   0.705   8.423  2.7670 -0.0204  1.5146
  520MOL0     H70176  -0.420   0.953   8.270  0.0567 -1.2437 -1.9938
  520MOL0     H70177  -0.547   0.931   8.390 -0.2876 -3.2048  0.4745
  520MOL0     H70178  -0.661   0.934   8.178  1.0872  1.1222  0.5239
  520MOL0     H70179  -0.557   0.811   8.102  0.8986  0.3282  0.6186
  520MOL0     H70180   0.414   0.986   8.544  1.7239  0.7031  0.0357
  520MOL0     H70181   0.639   1.000   8.630 -3.9585  2.7055 -3.1089
  520MOL0     H70182   0.968   0.651   8.800 -0.6648  0.3533  0.4224
  520MOL0     H70183   1.197   0.605   8.916 -0.7654 -0.2428  3.1332
  520MOL0     H70184   2.585   0.521   9.761  1.5539 -0.9153  1.7282
  520MOL0     H70185   2.829   0.507   9.700  0.4096 -1.5860  1.1984
  520MOL0     H70186   3.268   0.879  10.005  0.8466  0.2928  0.8053
  520MOL0     H70187   3.486   0.938   9.942  1.9156  0.6162 -1.7336
  520MOL0     H70188   3.649   1.029   9.843 -1.3170  0.0157 -1.5316
  520MOL0     H70189   3.793   0.990   9.754 -0.2930  2.4312  3.1367
  520MOL0     H70190   3.827   0.774   9.848  1.5884 -0.3886  2.0835
  520MOL0     H70191   3.678   0.774   9.928 -0.1662 -0.8840 -3.4882
  520MOL0     H70192   3.761   0.963  10.079  1.4263  0.9070  0.9021
  520MOL0     H70193   3.910   0.983   9.996 -0.3589  2.3012  2.3904
  520MOL0     H70194   4.011   0.850  10.103 -0.7074  0.5842 -1.2844
  520MOL0     H70195   3.866   0.812  10.206  1.0684 -0.8617 -0.1477
  520MOL0     H70196   4.006   0.456  10.009 -0.4964  0.6820 -2.2693
  520MOL0     H70197   3.463   0.703   9.583  0.3545  0.7752 -0.5736
  520MOL0     H70198   3.302   0.569   9.558  1.3480 -1.3564  1.9565
  520MOL0     H70199   3.184   0.537   9.688  3.3425 -0.7345  1.2161
  520MOL0     H70200   3.147   0.663   9.570 -0.3811  1.8168  1.9483
  521MOL0     O70201   8.599   8.747   5.716 -0.3683  0.0683  0.0229
  521MOL0     C70202   8.509   8.791   5.651  0.2953 -0.2704 -0.0794
  521MOL0     O70203   8.515   8.902   5.571  0.1376  0.5632 -0.0212
  521MOL0     C70204   8.633   8.972   5.560 -0.5909 -0.0662  0.1812
  521MOL0     C70205   8.620   9.111   5.562 -0.6730 -0.6810 -0.0456
  521MOL0     C70206   8.732   9.198   5.580  0.3323 -0.0442 -0.1906
  521MOL0     C70207   8.860   9.143   5.580  0.0723 -0.5019 -0.0861
  521MOL0     O70208   8.985   9.214   5.587  0.1797  0.8389 -0.0162
  521MOL0     C70209   8.984   9.352   5.573 -0.6563 -0.0551 -0.0331
  521MOL0     C70210   9.116   9.387   5.517  0.8769 -0.4183 -0.2266
  521MOL0     C70211   9.239   9.343   5.591 -0.2580 -0.0362  0.1211
  521MOL0     C70212   9.360   9.405   5.513 -0.5778 -0.1105 -0.4415
  521MOL0     C70213   9.389   9.547   5.563  0.3608 -0.0157  0.5043
  521MOL0     C70214   9.508   9.604   5.480 -0.0054  0.7829  0.1841
  521MOL0     C70215   9.530   9.749   5.505  0.9533  0.2620  0.8524
  521MOL0     C70216   9.621   9.772   5.625 -0.2942 -0.2559  0.6776
  521MOL0     N70217   9.636   9.916   5.650 -0.3130  0.2766  0.4359
  521MOL0     C70218   9.591   9.973   5.765  0.1252  0.1835 -0.1332
  521MOL0     C70219   9.617  10.104   5.759 -0.4040  0.2924  0.1686
  521MOL0     C70220   9.589  10.220   5.849 -0.4983  1.2995  0.5037
  521MOL0     C70221   9.724  10.289   5.904 -0.1222 -0.2660  0.9456
  521MOL0     C70222   9.813  10.185   5.971 -0.4530 -0.0967 -0.5880
  521MOL0     C70223   9.945  10.230   6.045 -0.5212 -0.1001  0.0553
  521MOL0     O70224  10.016  10.322   5.955  0.3209  0.1905 -0.2547
  521MOL0     C70225  10.135  10.380   5.991  0.1673 -0.5832 -0.6325
  521MOL0     C70226  10.208  10.345   6.102  0.4414  0.0389 -0.0615
  521MOL0     C70227  10.313  10.430   6.150  0.3815  0.4401 -0.6561
  521MOL0     C70228  10.354  10.542   6.079 -0.0171  0.2989 -0.4514
  521MOL0     C70229  10.456  10.634   6.132 -0.0665  0.3147 -0.0375
  521MOL0     O70230  10.513  10.596   6.248 -0.1697  0.4132  0.4160
  521MOL0     C70231  10.598  10.673   6.321 -0.3316  0.5081  0.5325
  521MOL0     C70232  10.714  10.617   6.375  0.0924  0.1725 -0.2853
  521MOL0     C70233  10.806  10.690   6.456 -0.1697 -0.5906  0.1039
  521MOL0     C70234  10.774  10.817   6.494 -0.6452 -0.0517 -0.3036
  521MOL0     O70235  10.873  10.874   6.573 -0.0324 -0.1982  0.0307
  521MOL0     C70236  10.845  11.011   6.611 -0.2232 -0.3956 -0.9036
  521MOL0     C70237  10.937  11.055   6.732 -0.0550  0.4270  0.0921
  521MOL0     C70238  10.963  11.209   6.724 -0.1221 -0.3189  0.2656
  521MOL0     C70239  11.066  11.247   6.828  0.2723  0.1468 -0.8393
  521MOL0     C70240  11.212  11.218   6.800 -0.4761  0.3375  0.0976
  521MOL0     C70241  11.292  11.246   6.920 -0.7530  1.1659 -0.4775
  521MOL0     C70242  11.440  11.204   6.899  0.1065  0.7186 -0.5558
  521MOL0     C70243  11.529  11.209   7.029 -0.8069  0.3106  0.5003
  521MOL0    Cl70244  11.494  11.043   7.125 -0.2889  0.0553  0.2093
  521MOL0     C70245  10.660  10.880   6.442 -0.8847 -0.1670 -0.3727
  521MOL0     C70246  10.566  10.809   6.354 -0.2680  0.2492  0.1076
  521MOL0     O70247  10.471  10.743   6.080  0.1432  0.1017  0.4667
  521MOL0     C70248  10.290  10.577   5.957  0.0854 -0.0233  0.4557
  521MOL0     C70249  10.173  10.501   5.922  0.7165 -0.2324 -0.5097
  521MOL0     N70250   9.668  10.119   5.625  0.6628  0.1440 -0.2855
  521MOL0     N70251   9.694  10.012   5.570 -1.1316  0.1871  0.3548
  521MOL0     C70252   8.866   9.005   5.571 -0.3098  0.4427  0.9214
  521MOL0     C70253   8.760   8.916   5.550 -0.0051 -0.8288 -0.1086
  521MOL0     C70254   8.380   8.718   5.660 -0.1967  0.0845  0.0935
  521MOL0     C70255   8.307   8.691   5.542 -0.6250 -0.7650 -0.4193
  521MOL0     C70256   8.184   8.636   5.544  0.2915  0.8818 -0.3288
  521MOL0     C70257   8.125   8.588   5.664  0.0815 -0.2534  0.2385
  521MOL0     O70258   8.002   8.543   5.649  0.1994  0.5830  0.2709
  521MOL0     C70259   7.911   8.626   5.723  0.7869 -0.3484 -0.0560
  521MOL0     C70260   7.767   8.580   5.705 -0.1893 -0.3842  0.8512
  521MOL0     C70261   7.670   8.694   5.723 -0.1599  0.0395 -0.7042
  521MOL0     C70262   7.522   8.654   5.703  0.1392  0.3295  0.3643
  521MOL0     C70263   7.461   8.565   5.801 -0.8895 -0.9274  0.2106
  521MOL0     C70264   7.421   8.497   5.891 -0.1270 -0.8931  0.2430
  521MOL0     C70265   8.198   8.605   5.782 -0.4676 -0.2033 -0.0271
  521MOL0     C70266   8.321   8.679   5.783  0.3556 -0.2201 -0.0738
  521MOL0     C70267   8.378   8.710   5.920 -0.7042  0.5072  0.2744
  521MOL0     H70268   8.519   9.152   5.560 -0.1332  0.6524 -1.4021
  521MOL0     H70269   8.725   9.302   5.611  1.3061 -0.5698  2.0142
  521MOL0     H70270   8.904   9.396   5.513  0.6672  5.5127  1.7183
  521MOL0     H70271   8.974   9.393   5.674  0.7752  0.6792 -0.1632
  521MOL0     H70272   9.121   9.496   5.523  1.9880 -0.5273  1.4075
  521MOL0     H70273   9.114   9.356   5.412 -0.5566  1.3433 -0.7852
  521MOL0     H70274   9.251   9.234   5.587 -0.8866 -0.1200  0.3671
  521MOL0     H70275   9.238   9.377   5.695  2.1756 -1.2823  0.6246
  521MOL0     H70276   9.447   9.344   5.539  0.8691  0.9198 -2.4895
  521MOL0     H70277   9.348   9.391   5.405  0.9976 -0.8980 -0.5441
  521MOL0     H70278   9.312   9.617   5.530  2.7144  1.0788 -3.3005
  521MOL0     H70279   9.389   9.548   5.672  2.4984  1.2592  0.5473
  521MOL0     H70280   9.596   9.539   5.486 -0.8989 -0.3984  0.7638
  521MOL0     H70281   9.474   9.590   5.377 -1.7875 -2.3107  1.0607
  521MOL0     H70282   9.434   9.801   5.504  0.2500 -0.9532  2.0268
  521MOL0     H70283   9.592   9.788   5.423 -0.2641 -0.9504 -0.7050
  521MOL0     H70284   9.585   9.722   5.715  1.6174 -1.1150  1.0185
  521MOL0     H70285   9.714   9.722   5.594 -2.3744 -5.3834  1.6200
  521MOL0     H70286   9.557   9.923   5.855 -2.3767 -0.1292 -1.1800
  521MOL0     H70287   9.550  10.297   5.781  0.4757  0.8406 -0.6259
  521MOL0     H70288   9.527  10.200   5.936  0.2467  1.6048  1.1213
  521MOL0     H70289   9.779  10.313   5.812 -1.9748 -0.1921 -0.2070
  521MOL0     H70290   9.716  10.377   5.968  2.1425  0.2490  0.5945
  521MOL0     H70291   9.844  10.112   5.896 -2.3253 -0.3525 -1.1827
  521MOL0     H70292   9.747  10.140   6.046 -2.4149  2.6451 -0.4797
  521MOL0     H70293  10.010  10.148   6.076 -2.7934 -1.7878  0.6092
  521MOL0     H70294   9.915  10.290   6.132  0.3810  1.9372 -0.9557
  521MOL0     H70295  10.190  10.257   6.163 -0.6170 -1.2219 -2.0681
  521MOL0     H70296  10.368  10.394   6.237  1.0604  1.7327 -0.5268
  521MOL0     H70297  10.738  10.512   6.361 -0.1732 -0.0495  0.8770
  521MOL0     H70298  10.889  10.637   6.502  0.2320 -2.3952 -2.5206
  521MOL0     H70299  10.885  11.074   6.531 -0.7177  1.6471  0.3873
  521MOL0     H70300  10.745  11.036   6.647 -0.8747  0.5308 -3.2154
  521MOL0     H70301  10.883  11.038   6.826  0.2547  0.2300  0.2354
  521MOL0     H70302  11.036  11.010   6.726 -0.5366 -0.4478 -2.1435
  521MOL0     H70303  11.001  11.229   6.624  0.0259  2.3948  0.8013
  521MOL0     H70304  10.861  11.242   6.746 -1.0516 -0.3649 -3.4088
  521MOL0     H70305  11.045  11.198   6.923  2.8478 -0.8180 -0.6932
  521MOL0     H70306  11.059  11.356   6.838  1.4399  0.0290  2.6284
  521MOL0     H70307  11.243  11.283   6.718  0.8981  0.7541  0.9270
  521MOL0     H70308  11.230  11.115   6.768  0.4898  1.3312 -2.8963
  521MOL0     H70309  11.302  11.352   6.945  0.4719  1.2353 -1.2017
  521MOL0     H70310  11.247  11.194   7.005 -0.4073  1.6373 -0.0024
  521MOL0     H70311  11.490  11.275   6.832 -1.7615  0.9696 -1.7506
  521MOL0     H70312  11.447  11.108   6.846  0.7449 -0.8701  2.2190
  521MOL0     H70313  11.633  11.202   6.995 -0.9709  0.7132 -0.0903
  521MOL0     H70314  11.514  11.291   7.099 -3.1458 -0.8916  1.5255
  521MOL0     H70315  10.639  10.984   6.464 -0.4486 -0.1200 -0.1673
  521MOL0     H70316  10.482  10.855   6.303  2.7278  3.4209 -2.4596
  521MOL0     H70317  10.304  10.668   5.900 -4.3936 -1.0158 -2.7635
  521MOL0     H70318  10.111  10.525   5.836  0.0846 -1.3071 -0.3793
  521MOL0     H70319   8.968   8.967   5.567  0.7516  3.1472 -0.2170
  521MOL0     H70320   8.770   8.808   5.544 -1.6277 -0.9185 -2.0286
  521MOL0     H70321   8.357   8.712   5.448  0.6423  1.6378  0.7113
  521MOL0     H70322   8.132   8.623   5.449 -0.5403  0.7063  0.1371
  521MOL0     H70323   7.916   8.729   5.685 -2.5258  0.1943  0.6877
  521MOL0     H70324   7.935   8.637   5.829 -2.2597  1.0584  0.5998
  521MOL0     H70325   7.743   8.495   5.769 -0.8142 -1.5601 -0.8747
  521MOL0     H70326   7.757   8.543   5.603 -0.5007  0.3698  0.6017
  521MOL0     H70327   7.686   8.772   5.648 -1.0496  2.2729  1.2757
  521MOL0     H70328   7.684   8.738   5.822  1.3134 -2.0402  0.0812
  521MOL0     H70329   7.456   8.741   5.693 -1.4212 -0.6826  1.3608
  521MOL0     H70330   7.506   8.613   5.603 -2.9614 -1.4878  1.4524
  521MOL0     H70331   7.385   8.441   5.975  0.5656  0.2550  1.3472
  521MOL0     H70332   8.164   8.560   5.875 -1.3116 -0.8472 -0.6367
  521MOL0     H70333   8.484   8.727   5.939 -0.1108 -2.9087  0.6327
  521MOL0     H70334   8.328   8.795   5.966  0.6122  0.7428  1.3454
  521MOL0     H70335   8.345   8.630   5.988 -1.0213 -0.1276 -0.6041
  522MOL0     O70336   7.942   2.960   9.859  0.4162 -0.4164 -0.2210
  522MOL0     C70337   7.906   2.927   9.743 -0.0216  0.2074 -0.3263
  522MOL0     O70338   7.994   2.899   9.646  0.4048 -0.0802  0.0414
  522MOL0     C70339   8.128   2.927   9.680  0.6996  0.5604  0.8699
  522MOL0     C70340   8.198   2.834   9.753 -0.4865 -0.2614 -0.3193
  522MOL0     C70341   8.334   2.861   9.789  0.6029 -1.3783  0.4907
  522MOL0     C70342   8.401   2.972   9.736 -0.1694 -0.1147  0.2230
  522MOL0     O70343   8.522   2.982   9.781  0.1637 -0.4110  0.1778
  522MOL0     C70344   8.610   3.069   9.724 -1.2680  0.2034  0.1814
  522MOL0     C70345   8.752   3.051   9.788 -0.5017 -0.1899 -0.0860
  522MOL0     C70346   8.846   3.173   9.746 -0.3883  0.9992 -0.1381
  522MOL0     C70347   8.994   3.116   9.753  0.4940 -0.0402 -0.3170
  522MOL0     C70348   9.105   3.204   9.700 -0.6959 -0.1218  0.5499
  522MOL0     C70349   9.233   3.119   9.675 -0.1942  0.3665  0.5811
  522MOL0     C70350   9.365   3.179   9.669 -0.4842  0.8293  0.1718
  522MOL0     C70351   9.384   3.251   9.539 -0.7818 -0.4523 -0.5655
  522MOL0     N70352   9.401   3.166   9.418 -0.9616 -0.5895  0.0667
  522MOL0     C70353   9.511   3.096   9.375 -0.6030  0.4030 -0.0169
  522MOL0     C70354   9.470   3.041   9.262 -0.0724 -0.7131  0.0799
  522MOL0     C70355   9.565   2.964   9.167 -0.1917 -0.8031  0.3867
  522MOL0     C70356   9.662   3.060   9.088  0.3447  0.3233 -1.0503
  522MOL0     C70357   9.577   3.170   9.014 -0.2551 -0.6501  0.9509
  522MOL0     C70358   9.667   3.261   8.927  0.3672 -0.2727  0.9423
  522MOL0     O70359   9.747   3.182   8.834  0.9542 -0.1091  0.6202
  522MOL0     C70360   9.879   3.222   8.806  0.5118 -0.0327 -0.2761
  522MOL0     C70361   9.923   3.345   8.841 -0.4418 -0.8246 -0.2662
  522MOL0     C70362  10.056   3.393   8.804 -0.2555  0.1798  0.7536
  522MOL0     C70363  10.146   3.299   8.741  1.0268  0.3186 -0.0344
  522MOL0     C70364  10.281   3.335   8.686  0.2557 -0.4929  0.4844
  522MOL0     O70365  10.363   3.233   8.657  0.0390 -0.2068 -0.4879
  522MOL0     C70366  10.492   3.248   8.601 -0.1859  0.4861 -1.1614
  522MOL0     C70367  10.571   3.356   8.612 -0.2322 -0.3252 -0.1463
  522MOL0     C70368  10.699   3.353   8.555 -0.4291 -0.1958  0.0305
  522MOL0     C70369  10.746   3.235   8.489 -0.3107 -0.1279  0.0686
  522MOL0     O70370  10.879   3.215   8.452 -0.4685  0.4434  0.5941
  522MOL0     C70371  10.972   3.325   8.477  0.2968  0.2239  0.3887
  522MOL0     C70372  11.021   3.315   8.622 -0.2075 -0.8193  1.0197
  522MOL0     C70373  11.114   3.199   8.652  0.0586 -0.4965  0.6206
  522MOL0     C70374  11.241   3.202   8.562  0.4487  0.7886 -0.1898
  522MOL0     C70375  11.317   3.340   8.558  0.0906 -0.4363  0.6182
  522MOL0     C70376  11.448   3.318   8.475  0.1361 -0.5509  0.3886
  522MOL0     C70377  11.519   3.456   8.468  1.2276  0.1727  1.0801
  522MOL0     C70378  11.633   3.437   8.369 -0.9816 -0.3062 -0.5291
  522MOL0    Cl70379  11.767   3.550   8.406 -0.0207 -0.2889 -0.3826
  522MOL0     C70380  10.655   3.132   8.480  0.2206  0.6142 -0.4839
  522MOL0     C70381  10.532   3.131   8.538  0.2436 -0.3251 -1.2257
  522MOL0     O70382  10.296   3.459   8.661  0.6778  0.4535  0.1775
  522MOL0     C70383  10.087   3.173   8.699  0.1189 -0.6027 -0.2943
  522MOL0     C70384   9.968   3.139   8.738  0.3889 -0.4058 -0.3060
  522MOL0     N70385   9.340   3.072   9.225 -0.2984 -0.4258  0.2093
  522MOL0     N70386   9.298   3.155   9.318 -0.3812 -0.9517  0.3718
  522MOL0     C70387   8.330   3.059   9.654  0.3920 -0.6116  0.0822
  522MOL0     C70388   8.190   3.035   9.626 -0.8793  0.1456  0.1231
  522MOL0     C70389   7.764   2.945   9.693 -0.3371 -0.8578 -1.0639
  522MOL0     C70390   7.736   2.948   9.554 -0.6235  0.7891 -0.6456
  522MOL0     C70391   7.608   2.969   9.510 -0.3336  0.2700 -0.8450
  522MOL0     C70392   7.500   2.969   9.596 -0.2448  0.3058 -0.3112
  522MOL0     O70393   7.377   2.987   9.564  0.1612 -0.4589 -0.0042
  522MOL0     C70394   7.330   3.075   9.457 -0.3744 -0.9385  0.5440
  522MOL0     C70395   7.173   3.068   9.455 -0.5404  0.4175 -0.4447
  522MOL0     C70396   7.122   3.155   9.351  0.1548  0.6328  0.4053
  522MOL0     C70397   6.968   3.138   9.333  0.3624 -0.4160  0.2864
  522MOL0     C70398   6.915   3.244   9.240  0.0326 -0.2698  0.1360
  522MOL0     C70399   6.889   3.344   9.168  0.2185 -0.2017  0.0689
  522MOL0     C70400   7.522   2.951   9.731  0.4371  0.4484 -0.0095
  522MOL0     C70401   7.654   2.947   9.783  0.2981  0.2865 -0.2921
  522MOL0     C70402   7.665   2.934   9.938 -0.8053  0.0221  0.5837
  522MOL0     H70403   8.154   2.750   9.805  0.9883 -1.4430 -0.8989
  522MOL0     H70404   8.377   2.787   9.855  1.6615 -3.9416 -2.8052
  522MOL0     H70405   8.618   3.048   9.616 -1.1912 -3.6283  0.7842
  522MOL0     H70406   8.570   3.170   9.732 -1.4870  0.1570 -0.2752
  522MOL0     H70407   8.805   2.960   9.759  2.0371  1.6411 -1.5969
  522MOL0     H70408   8.737   3.048   9.896 -0.3653  1.5455  0.0172
  522MOL0     H70409   8.836   3.260   9.811 -0.2948 -0.4435  1.8905
  522MOL0     H70410   8.823   3.201   9.643  1.4757  0.1594 -0.8340
  522MOL0     H70411   9.018   3.094   9.857 -1.0074  4.9682  1.3369
  522MOL0     H70412   8.985   3.028   9.688 -1.7814  1.1383 -1.7111
  522MOL0     H70413   9.082   3.254   9.606  1.3994  0.4486  0.2896
  522MOL0     H70414   9.132   3.286   9.767 -2.2357  2.7479 -2.0875
  522MOL0     H70415   9.246   3.045   9.755 -0.3947 -2.0996 -1.5275
  522MOL0     H70416   9.229   3.064   9.580  3.6573  0.2367  0.3246
  522MOL0     H70417   9.432   3.095   9.688 -0.6355  0.8522  0.8241
  522MOL0     H70418   9.376   3.247   9.754  2.0829  0.0898  0.5292
  522MOL0     H70419   9.297   3.317   9.526 -0.7723 -0.8512 -3.4904
  522MOL0     H70420   9.459   3.329   9.549 -0.7886 -0.4218 -0.7380
  522MOL0     H70421   9.608   3.092   9.423 -1.0401 -0.7681  0.8123
  522MOL0     H70422   9.615   2.886   9.226  0.5346 -0.8785 -0.3016
  522MOL0     H70423   9.494   2.920   9.096 -2.3997  0.2338  1.8549
  522MOL0     H70424   9.729   3.111   9.158 -1.6067  2.2142 -0.4485
  522MOL0     H70425   9.714   3.000   9.012  1.0448  0.4555 -0.6875
  522MOL0     H70426   9.511   3.221   9.085  0.3621  1.6381 -0.0201
  522MOL0     H70427   9.509   3.117   8.946  1.2244 -0.6068 -0.6311
  522MOL0     H70428   9.735   3.315   8.993  2.4239 -1.6245  0.0260
  522MOL0     H70429   9.610   3.337   8.874  2.1994 -0.0405 -0.8117
  522MOL0     H70430   9.870   3.424   8.892  1.7644  0.8196 -0.3855
  522MOL0     H70431  10.084   3.494   8.830 -1.2466  0.0645  2.3992
  522MOL0     H70432  10.531   3.437   8.672 -1.7028 -1.6042  0.7032
  522MOL0     H70433  10.758   3.443   8.570 -0.5779  0.1329 -1.2007
  522MOL0     H70434  11.059   3.322   8.411  0.7777  1.4566  0.9161
  522MOL0     H70435  10.919   3.420   8.460 -1.6984 -0.7878  0.7267
  522MOL0     H70436  11.079   3.405   8.642 -1.1366 -0.1743  0.8561
  522MOL0     H70437  10.932   3.310   8.685 -0.0939  0.1195  1.2737
  522MOL0     H70438  11.149   3.206   8.756  0.7518  1.0228  0.3067
  522MOL0     H70439  11.057   3.106   8.646 -3.9190  1.8631 -2.5868
  522MOL0     H70440  11.208   3.166   8.464 -2.3518 -0.5044  1.1058
  522MOL0     H70441  11.318   3.131   8.593  2.5302  3.3667  0.8342
  522MOL0     H70442  11.328   3.388   8.656 -2.5654  3.0363 -0.5829
  522MOL0     H70443  11.250   3.401   8.496 -1.3823 -0.5354  2.0468
  522MOL0     H70444  11.514   3.249   8.529  0.2107 -0.3364  0.5685
  522MOL0     H70445  11.413   3.273   8.382 -5.4208 -0.4372  2.0502
  522MOL0     H70446  11.554   3.493   8.565  1.2292 -0.6911  1.4155
  522MOL0     H70447  11.443   3.524   8.428 -0.1950 -1.1800  1.4025
  522MOL0     H70448  11.673   3.336   8.379 -0.7207 -0.1622 -0.0982
  522MOL0     H70449  11.595   3.442   8.267  3.5422 -1.7763 -2.5377
  522MOL0     H70450  10.697   3.046   8.428  1.7911  2.2271 -2.0162
  522MOL0     H70451  10.460   3.050   8.547 -1.0017  0.7264 -1.4518
  522MOL0     H70452  10.145   3.099   8.645  1.8898  0.4048  0.1090
  522MOL0     H70453   9.938   3.035   8.729 -0.9354 -0.0865  0.1119
  522MOL0     H70454   8.367   3.159   9.634 -1.1243  0.0403  0.4043
  522MOL0     H70455   8.128   3.106   9.574 -0.7141  0.8621  0.8837
  522MOL0     H70456   7.810   2.946   9.474 -1.4939 -1.3911 -1.4800
  522MOL0     H70457   7.604   2.959   9.402  2.4150  2.7985 -1.2827
  522MOL0     H70458   7.372   3.037   9.364  0.0611  0.5067  0.1275
  522MOL0     H70459   7.369   3.177   9.462 -0.0020 -0.6461 -4.2108
  522MOL0     H70460   7.132   3.112   9.546 -0.1457  0.9843 -0.5374
  522MOL0     H70461   7.134   2.966   9.448 -4.1036  1.0697  4.6307
  522MOL0     H70462   7.163   3.115   9.258  0.3449  0.0880  0.7165
  522MOL0     H70463   7.147   3.262   9.357 -3.2586  1.4941  2.1101
  522MOL0     H70464   6.946   3.040   9.291 -0.9210  1.3506 -3.6766
  522MOL0     H70465   6.916   3.159   9.427 -0.1990  3.4037 -0.6855
  522MOL0     H70466   6.874   3.427   9.102  2.4462  0.3760  0.2417
  522MOL0     H70467   7.434   2.962   9.793  0.9355 -0.8788  0.9828
  522MOL0     H70468   7.690   3.027   9.990 -2.1473 -0.0491  1.4062
  522MOL0     H70469   7.574   2.887   9.976 -0.4160 -1.2569 -0.0355
  522MOL0     H70470   7.738   2.856   9.959 -1.5194 -0.2700  2.1541
  523MOL0     O70471   2.605   5.606   4.073  0.2423  0.5926  0.2174
  523MOL0     C70472   2.528   5.648   4.159  0.2152 -0.8665 -0.0093
  523MOL0     O70473   2.545   5.633   4.298  0.4084 -0.4754  0.0510
  523MOL0     C70474   2.646   5.554   4.337 -0.3020 -0.2793  0.4988
  523MOL0     C70475   2.637   5.420   4.384 -0.5299  0.3792 -0.3092
  523MOL0     C70476   2.759   5.362   4.435  0.4912 -0.0485  0.4521
  523MOL0     C70477   2.879   5.440   4.456  0.4069  0.6214 -0.1947
  523MOL0     O70478   2.990   5.377   4.508  0.9691 -0.3102 -0.7194
  523MOL0     C70479   3.112   5.456   4.502 -1.4335 -0.2078 -0.3762
  523MOL0     C70480   3.235   5.383   4.554 -0.2893  0.1459 -1.3916
  523MOL0     C70481   3.363   5.461   4.538 -0.5912 -0.1904  1.4541
  523MOL0     C70482   3.372   5.573   4.637 -0.5157 -0.1889 -1.0130
  523MOL0     C70483   3.490   5.673   4.613 -0.0807 -0.1072  0.7971
  523MOL0     C70484   3.623   5.627   4.675  0.1187  0.7788 -0.6681
  523MOL0     C70485   3.733   5.735   4.631  0.1304 -0.0628  0.7841
  523MOL0     C70486   3.878   5.691   4.642  0.0777 -0.8089  0.3880
  523MOL0     N70487   3.915   5.578   4.552  0.6993  0.1483 -0.0022
  523MOL0     C70488   3.897   5.586   4.417  0.9299  0.0199 -0.1731
  523MOL0     C70489   3.939   5.465   4.371  0.9332  0.1279  0.0158
  523MOL0     C70490   3.941   5.434   4.221 -0.2161 -0.3236  0.3917
  523MOL0     C70491   3.992   5.552   4.141  0.1384 -0.9986 -0.7233
  523MOL0     C70492   4.027   5.506   3.990 -0.4745 -0.0765 -0.3526
  523MOL0     C70493   4.092   5.625   3.905  0.6042  0.6374  0.2027
  523MOL0     O70494   4.135   5.576   3.774  0.7817 -0.9992  0.5818
  523MOL0     C70495   4.205   5.672   3.695 -0.7695 -0.0656  0.1752
  523MOL0     C70496   4.265   5.633   3.569 -0.1214 -0.5408 -0.5294
  523MOL0     C70497   4.324   5.715   3.470 -0.5954 -0.4866  0.8522
  523MOL0     C70498   4.330   5.849   3.494 -0.0824  1.0258 -0.1470
  523MOL0     C70499   4.386   5.941   3.399 -1.2530 -1.0658  0.1282
  523MOL0     O70500   4.297   6.029   3.353 -0.3718 -0.5659  0.1981
  523MOL0     C70501   4.331   6.095   3.238 -0.5951 -0.8162  0.5176
  523MOL0     C70502   4.254   6.085   3.114  0.1279 -0.0670  0.3797
  523MOL0     C70503   4.288   6.145   2.993  0.2747  0.5317 -0.0404
  523MOL0     C70504   4.392   6.236   2.983  0.8289 -0.1497 -0.1821
  523MOL0     O70505   4.416   6.286   2.856  0.0696 -0.0670 -0.5961
  523MOL0     C70506   4.469   6.416   2.848  0.5697  0.0212  0.5432
  523MOL0     C70507   4.494   6.423   2.700  0.2726  1.0984 -0.0767
  523MOL0     C70508   4.384   6.401   2.603 -1.1931 -0.5451  0.2513
  523MOL0     C70509   4.431   6.433   2.460 -0.3945  0.2371 -0.0891
  523MOL0     C70510   4.352   6.555   2.402 -0.0431 -0.3150  0.1133
  523MOL0     C70511   4.410   6.679   2.465  0.0425  0.1117  0.1904
  523MOL0     C70512   4.328   6.794   2.418  0.3593  0.1054 -1.0159
  523MOL0     C70513   4.377   6.925   2.481  0.4571 -0.4089 -0.5468
  523MOL0    Cl70514   4.350   6.947   2.650 -0.6447 -0.3173  0.5924
  523MOL0     C70515   4.450   6.266   3.100 -0.2271 -0.5896  0.1052
  523MOL0     C70516   4.431   6.195   3.222 -0.4135  0.2092 -0.2667
  523MOL0     O70517   4.509   5.936   3.378  0.0999 -0.2108 -0.5869
  523MOL0     C70518   4.266   5.898   3.609  0.3151 -0.6332  0.0171
  523MOL0     C70519   4.212   5.812   3.714 -0.5468 -0.7643  0.0456
  523MOL0     N70520   3.982   5.392   4.483 -0.4932 -0.2402  0.1055
  523MOL0     N70521   3.970   5.464   4.590 -0.8565 -0.0765  0.4488
  523MOL0     C70522   2.877   5.579   4.419 -0.1517 -0.0726 -0.1108
  523MOL0     C70523   2.764   5.629   4.354  0.0362  0.6990 -0.7941
  523MOL0     C70524   2.409   5.717   4.107  0.1775  0.4868  0.8361
  523MOL0     C70525   2.398   5.852   4.140  0.5232  0.2208  0.0161
  523MOL0     C70526   2.283   5.923   4.100 -1.1109 -0.0463 -0.0071
  523MOL0     C70527   2.185   5.866   4.022 -0.4352  0.4009 -0.4876
  523MOL0     O70528   2.077   5.938   3.973 -0.0564 -0.1669  0.7821
  523MOL0     C70529   2.032   6.035   4.068  0.3873 -0.1903 -0.9780
  523MOL0     C70530   1.889   6.070   4.042 -0.0988  0.1779 -0.7435
  523MOL0     C70531   1.843   6.156   4.166 -0.0269 -0.2887 -0.3104
  523MOL0     C70532   1.691   6.182   4.146 -0.6808 -0.2140 -0.5425
  523MOL0     C70533   1.667   6.292   4.050 -1.0725  0.2015  0.5975
  523MOL0     C70534   1.638   6.389   3.989 -0.2112  0.1304 -0.3601
  523MOL0     C70535   2.207   5.734   3.976 -1.4004  0.1796 -0.9184
  523MOL0     C70536   2.315   5.661   4.024 -0.0536  0.4824  0.4125
  523MOL0     C70537   2.318   5.516   3.998  0.1563  0.8734  0.1648
  523MOL0     H70538   2.548   5.363   4.408  0.6553 -2.4291 -2.0398
  523MOL0     H70539   2.754   5.261   4.473 -1.2499 -0.2095 -0.1508
  523MOL0     H70540   3.140   5.476   4.399 -0.0807  1.2372  0.2316
  523MOL0     H70541   3.102   5.551   4.555 -0.7213 -0.2837 -0.1032
  523MOL0     H70542   3.243   5.290   4.495  0.3406 -0.7586  0.0710
  523MOL0     H70543   3.223   5.364   4.661 -2.4347  3.0319 -1.0165
  523MOL0     H70544   3.373   5.488   4.432  1.2826 -3.6200  0.6109
  523MOL0     H70545   3.445   5.390   4.552 -1.4522 -2.3077 -2.6435
  523MOL0     H70546   3.283   5.636   4.643  0.3403  0.9435  0.6484
  523MOL0     H70547   3.382   5.529   4.736 -0.6361  1.7813 -0.0669
  523MOL0     H70548   3.501   5.692   4.506  1.0297 -2.7858  0.3487
  523MOL0     H70549   3.452   5.759   4.668 -2.9369 -0.5670 -0.2885
  523MOL0     H70550   3.597   5.623   4.781  0.1885  2.8153 -0.5404
  523MOL0     H70551   3.647   5.524   4.645 -0.5819 -0.3063  2.1113
  523MOL0     H70552   3.716   5.826   4.690  1.7469  2.1730 -1.9079
  523MOL0     H70553   3.706   5.755   4.527 -2.7048 -0.1661  1.4154
  523MOL0     H70554   3.941   5.774   4.609 -0.2022 -1.4936 -2.0528
  523MOL0     H70555   3.910   5.664   4.743 -0.4003 -3.0781 -0.0284
  523MOL0     H70556   3.856   5.672   4.365 -0.9213  0.5565  2.0040
  523MOL0     H70557   4.005   5.346   4.211 -0.9520 -0.8515  0.2059
  523MOL0     H70558   3.838   5.417   4.189 -0.8004  0.6154  1.6934
  523MOL0     H70559   3.911   5.626   4.137  0.9296  0.2151  2.5486
  523MOL0     H70560   4.080   5.595   4.189 -1.4377  0.6962  0.8015
  523MOL0     H70561   3.928   5.473   3.956  0.0231  0.3784 -2.3223
  523MOL0     H70562   4.095   5.421   3.983 -1.0567 -0.4019 -4.9133
  523MOL0     H70563   4.169   5.685   3.954  1.9371  1.3218 -2.5516
  523MOL0     H70564   4.008   5.692   3.882 -2.4483 -2.2601  1.9952
  523MOL0     H70565   4.277   5.527   3.550  4.0466 -0.3870  0.1491
  523MOL0     H70566   4.357   5.671   3.376  1.3972 -0.1609  1.3471
  523MOL0     H70567   4.169   6.018   3.108  1.2171 -1.3676 -1.4292
  523MOL0     H70568   4.234   6.123   2.902 -2.1080 -2.1100  1.8273
  523MOL0     H70569   4.391   6.486   2.877 -0.0406  0.9255 -2.7926
  523MOL0     H70570   4.561   6.436   2.904 -0.5880  1.4275  1.9839
  523MOL0     H70571   4.546   6.517   2.680  2.9951  0.3600  2.7719
  523MOL0     H70572   4.566   6.348   2.667 -0.2476 -0.0416  1.2717
  523MOL0     H70573   4.361   6.294   2.602  4.8040 -2.1710  0.8161
  523MOL0     H70574   4.301   6.465   2.635 -0.2242  0.9372 -0.0665
  523MOL0     H70575   4.399   6.349   2.397 -0.8679 -1.4587  2.2676
  523MOL0     H70576   4.539   6.444   2.447 -0.7488  1.0746 -2.9551
  523MOL0     H70577   4.244   6.552   2.420  0.1761  1.0648  1.9150
  523MOL0     H70578   4.352   6.557   2.292  0.1545  1.9479  0.1231
  523MOL0     H70579   4.399   6.676   2.574 -1.6381 -0.0798  0.0378
  523MOL0     H70580   4.512   6.675   2.425 -0.0457  0.7056 -0.1066
  523MOL0     H70581   4.222   6.783   2.441  0.6501  0.6397  0.7345
  523MOL0     H70582   4.337   6.812   2.311  0.2616 -0.1377 -1.0641
  523MOL0     H70583   4.482   6.932   2.451  1.1212 -1.6779  1.2974
  523MOL0     H70584   4.332   7.013   2.434  0.7991  0.7639  1.2332
  523MOL0     H70585   4.520   6.348   3.106  0.9423 -1.6125  1.1198
  523MOL0     H70586   4.494   6.223   3.306 -1.3047 -4.0887  2.1126
  523MOL0     H70587   4.274   6.003   3.635  2.3701 -0.3706 -1.4502
  523MOL0     H70588   4.166   5.859   3.799 -0.6708 -0.2189 -0.3163
  523MOL0     H70589   2.957   5.646   4.449  1.8520 -1.2972 -2.3815
  523MOL0     H70590   2.783   5.732   4.325 -0.0086 -0.1788 -4.4375
  523MOL0     H70591   2.474   5.910   4.189 -0.4643  0.3635  1.4366
  523MOL0     H70592   2.276   6.027   4.130  0.1862 -0.7415  3.1538
  523MOL0     H70593   2.096   6.123   4.059  1.1271 -0.4261  1.3312
  523MOL0     H70594   2.041   5.993   4.168 -1.4635  1.6940  0.0465
  523MOL0     H70595   1.828   5.979   4.040 -0.5069  0.1828  3.3337
  523MOL0     H70596   1.875   6.123   3.947 -2.3928 -1.5441 -1.4512
  523MOL0     H70597   1.891   6.253   4.180  0.0891 -0.2311 -1.0418
  523MOL0     H70598   1.848   6.108   4.264  2.5057  0.4438 -0.0203
  523MOL0     H70599   1.634   6.091   4.127 -0.7950 -0.4802  0.9892
  523MOL0     H70600   1.640   6.214   4.238 -0.3715  1.3930 -0.9021
  523MOL0     H70601   1.601   6.460   3.917  0.4344 -0.1777 -1.0107
  523MOL0     H70602   2.134   5.696   3.906 -4.7026  3.1721  0.5825
  523MOL0     H70603   2.421   5.481   4.006 -0.3125 -0.2640  2.0962
  523MOL0     H70604   2.251   5.457   4.062  1.0316 -0.8083 -0.4017
  523MOL0     H70605   2.277   5.498   3.898  1.3835 -0.6951 -0.0895
  524MOL0     O70606   9.054   0.290   5.996 -0.0441 -0.6427  0.2682
  524MOL0     C70607   9.171   0.265   6.023  0.4189 -0.7744 -0.2434
  524MOL0     O70608   9.275   0.331   5.960  0.1240 -0.3110  0.3336
  524MOL0     C70609   9.249   0.411   5.850  0.1236  0.7054 -0.0500
  524MOL0     C70610   9.176   0.531   5.858 -0.1012  0.1585  0.6379
  524MOL0     C70611   9.164   0.608   5.739  0.6387  0.3056  0.0176
  524MOL0     C70612   9.239   0.583   5.622 -0.2092  0.2016  0.0673
  524MOL0     O70613   9.247   0.656   5.510 -0.0549 -0.2831 -0.0554
  524MOL0     C70614   9.193   0.797   5.511 -0.4275 -0.6679  0.0014
  524MOL0     C70615   9.293   0.889   5.583  0.5335  0.3447  0.8867
  524MOL0     C70616   9.363   0.993   5.486 -0.4473  0.9278 -0.3977
  524MOL0     C70617   9.456   1.086   5.556  0.5418 -1.1909  1.2138
  524MOL0     C70618   9.528   1.196   5.466 -0.0611 -0.6759 -0.1591
  524MOL0     C70619   9.590   1.278   5.582  0.2202 -0.6957  0.4729
  524MOL0     C70620   9.673   1.391   5.524  0.2901 -0.9544 -0.3421
  524MOL0     C70621   9.733   1.480   5.632  0.0234  0.1086 -1.1497
  524MOL0     N70622   9.818   1.580   5.563 -0.1343 -0.1246 -0.2383
  524MOL0     C70623   9.777   1.711   5.545 -0.4171  0.1554 -0.3058
  524MOL0     C70624   9.873   1.770   5.470 -0.0820  0.1431 -0.0335
  524MOL0     C70625   9.878   1.915   5.421  0.1362  0.0303 -0.9501
  524MOL0     C70626   9.768   1.966   5.328  0.3281 -0.4137  0.1360
  524MOL0     C70627   9.779   1.941   5.178 -0.1320  0.5161 -0.2249
  524MOL0     C70628   9.899   2.028   5.116  0.0893 -0.4869 -0.6595
  524MOL0     O70629   9.876   2.164   5.145  1.0663  0.0091 -0.3475
  524MOL0     C70630   9.957   2.262   5.101  0.5499 -0.2869 -0.1805
  524MOL0     C70631   9.896   2.388   5.066 -0.4353  0.3976 -0.5365
  524MOL0     C70632   9.972   2.493   5.023  0.2503 -0.5544 -0.0035
  524MOL0     C70633  10.114   2.480   5.010 -0.2487  0.6712 -0.5010
  524MOL0     C70634  10.199   2.594   4.972  0.8453  0.0573  0.6040
  524MOL0     O70635  10.330   2.575   4.992  1.1323  0.6160  0.3769
  524MOL0     C70636  10.423   2.642   4.919  0.0018  0.0527 -0.1789
  524MOL0     C70637  10.552   2.598   4.936 -0.2313  0.1232  0.5637
  524MOL0     C70638  10.661   2.671   4.881 -1.4631 -0.4831  0.5610
  524MOL0     C70639  10.652   2.777   4.790  0.4489 -0.1125 -1.0280
  524MOL0     O70640  10.759   2.837   4.733  0.6170  0.7526 -0.0711
  524MOL0     C70641  10.754   2.969   4.699 -0.3458  1.0804 -0.6497
  524MOL0     C70642  10.897   3.014   4.658  0.8559 -0.4695 -0.0305
  524MOL0     C70643  11.010   2.996   4.762 -0.1159  0.0080  0.2438
  524MOL0     C70644  11.160   3.009   4.702  0.5711 -0.8178  0.0643
  524MOL0     C70645  11.265   2.989   4.816 -0.5285 -0.5000  0.0189
  524MOL0     C70646  11.413   3.025   4.755  1.0567  0.3300 -1.0771
  524MOL0     C70647  11.477   2.919   4.669  0.0091  0.5521 -0.8269
  524MOL0     C70648  11.621   2.954   4.650  0.0680 -0.5697  0.4916
  524MOL0    Cl70649  11.634   3.093   4.551  0.2926 -0.5393  0.3271
  524MOL0     C70650  10.519   2.806   4.759  0.3214  0.2910 -0.5842
  524MOL0     C70651  10.407   2.747   4.821  0.3301 -1.2541 -0.4865
  524MOL0     O70652  10.155   2.704   4.946  0.6099  0.1608 -0.2829
  524MOL0     C70653  10.172   2.356   5.035  0.5086  0.4927  0.7153
  524MOL0     C70654  10.100   2.247   5.081 -1.5719 -0.6668 -0.1001
  524MOL0     N70655   9.978   1.680   5.465 -0.3571 -0.5446 -0.7634
  524MOL0     N70656   9.951   1.571   5.532 -0.1441 -0.2064  0.4812
  524MOL0     C70657   9.326   0.472   5.625 -0.0292 -0.7939  0.1900
  524MOL0     C70658   9.315   0.373   5.731  0.1628 -0.7293  0.9499
  524MOL0     C70659   9.209   0.193   6.143 -0.0310  0.2961  0.8905
  524MOL0     C70660   9.327   0.224   6.212 -0.4433 -0.5019 -0.1463
  524MOL0     C70661   9.384   0.144   6.318  0.2397  0.2107  0.2939
  524MOL0     C70662   9.309   0.034   6.364  0.8918  0.4412  0.6808
  524MOL0     O70663   9.342  -0.059   6.462  0.0523 -0.1535 -0.7037
  524MOL0     C70664   9.333   0.002   6.591 -0.2753  0.3492 -1.1200
  524MOL0     C70665   9.406  -0.066   6.704 -0.6491  1.3293  0.3671
  524MOL0     C70666   9.383  -0.214   6.732 -0.0273  0.1052  0.1261
  524MOL0     C70667   9.242  -0.216   6.811 -0.5880 -0.3862  0.0806
  524MOL0     C70668   9.257  -0.189   6.958  0.4809  0.2293  0.5306
  524MOL0     C70669   9.270  -0.185   7.074  0.4146 -0.1352 -0.0788
  524MOL0     C70670   9.199  -0.001   6.291 -0.0473 -0.4180 -0.1117
  524MOL0     C70671   9.149   0.072   6.184  0.2784  0.5081 -0.2866
  524MOL0     C70672   9.038   0.007   6.105  0.3940  0.6840  0.1102
  524MOL0     H70673   9.121   0.565   5.945  0.0251  1.4235  0.2435
  524MOL0     H70674   9.104   0.698   5.745  1.3296  0.7545  0.3138
  524MOL0     H70675   9.193   0.836   5.409  2.3553 -3.6418 -1.2849
  524MOL0     H70676   9.099   0.800   5.567 -1.5378 -3.3339 -1.5198
  524MOL0     H70677   9.371   0.833   5.634  0.4292  0.0804  0.7568
  524MOL0     H70678   9.241   0.948   5.658 -1.7342  1.0265 -1.0816
  524MOL0     H70679   9.284   1.048   5.434 -1.7819 -0.4550  0.0852
  524MOL0     H70680   9.423   0.946   5.407 -0.4737  0.1920  0.0106
  524MOL0     H70681   9.398   1.139   5.632  2.0922  2.7816 -0.0859
  524MOL0     H70682   9.528   1.025   5.611 -1.3574 -1.8480  3.1429
  524MOL0     H70683   9.597   1.139   5.403 -0.6565  0.2187 -1.6857
  524MOL0     H70684   9.462   1.257   5.404  2.1471  3.4691  1.2498
  524MOL0     H70685   9.508   1.320   5.642  1.2423  1.2181  0.5828
  524MOL0     H70686   9.651   1.212   5.644  1.4608 -0.7482 -0.7744
  524MOL0     H70687   9.595   1.454   5.480  0.8904  0.4617  0.5420
  524MOL0     H70688   9.755   1.360   5.459 -0.3586  1.3776 -2.4297
  524MOL0     H70689   9.658   1.524   5.699  1.1800  0.3515  0.0378
  524MOL0     H70690   9.807   1.418   5.684 -0.0073 -0.8177 -2.1585
  524MOL0     H70691   9.685   1.753   5.583  0.7243  1.8600  0.7015
  524MOL0     H70692   9.872   1.977   5.511  1.4755  1.3183 -1.6980
  524MOL0     H70693   9.976   1.935   5.377  0.6336  0.0319  0.1144
  524MOL0     H70694   9.674   1.920   5.360 -1.0058  2.5095  0.7499
  524MOL0     H70695   9.755   2.073   5.342  1.0026 -0.2611 -0.3566
  524MOL0     H70696   9.692   1.985   5.127 -1.0338 -0.1634  0.7073
  524MOL0     H70697   9.782   1.838   5.143 -1.7009  1.4741 -3.5809
  524MOL0     H70698   9.905   2.021   5.007  2.8309  2.1160 -0.8080
  524MOL0     H70699   9.994   1.986   5.150 -0.1818 -0.5807 -0.0225
  524MOL0     H70700   9.790   2.390   5.088 -0.4645  1.9899 -0.7405
  524MOL0     H70701   9.923   2.589   5.009 -0.5023 -0.6943  1.5687
  524MOL0     H70702  10.574   2.520   5.008 -0.3818  1.2714  1.9005
  524MOL0     H70703  10.760   2.640   4.912 -0.5052 -0.1651 -1.9483
  524MOL0     H70704  10.686   2.972   4.614 -1.4016 -1.4040  0.0168
  524MOL0     H70705  10.716   3.028   4.783 -0.2723  0.2401 -0.0096
  524MOL0     H70706  10.924   2.947   4.577  0.2343 -1.0049  0.1955
  524MOL0     H70707  10.893   3.119   4.626  2.5743 -0.3398  0.0900
  524MOL0     H70708  11.011   3.074   4.839  1.0804  0.0370  0.2120
  524MOL0     H70709  11.007   2.900   4.814 -0.7767 -2.0548 -3.2451
  524MOL0     H70710  11.167   3.112   4.666  1.0708 -1.2781 -1.1737
  524MOL0     H70711  11.169   2.938   4.620 -1.9288 -3.3876  1.8100
  524MOL0     H70712  11.250   2.884   4.841  0.8639 -0.4036  1.3837
  524MOL0     H70713  11.250   3.044   4.909  1.4223 -0.3247  0.2720
  524MOL0     H70714  11.399   3.106   4.683  1.3852  0.6108 -0.8274
  524MOL0     H70715  11.477   3.060   4.836 -2.6697  1.4594  1.6623
  524MOL0     H70716  11.417   2.903   4.579  0.5196  0.4579 -1.1579
  524MOL0     H70717  11.475   2.823   4.722  3.6829  0.8179  0.0937
  524MOL0     H70718  11.672   2.978   4.744 -1.7251  3.0476  0.6859
  524MOL0     H70719  11.664   2.865   4.603  0.1256  0.6359 -1.8542
  524MOL0     H70720  10.503   2.884   4.684  1.4244  1.4818  0.3682
  524MOL0     H70721  10.311   2.784   4.788  1.1429  1.3772 -0.1554
  524MOL0     H70722  10.278   2.352   5.015  0.7259  3.4525  0.7867
  524MOL0     H70723  10.141   2.149   5.100 -3.9443 -2.4844 -3.3381
  524MOL0     H70724   9.397   0.449   5.546 -0.8088 -2.1538 -0.1393
  524MOL0     H70725   9.352   0.271   5.735 -1.6097 -1.4825 -0.5386
  524MOL0     H70726   9.379   0.315   6.186 -1.9245 -0.1481 -2.1068
  524MOL0     H70727   9.478   0.169   6.365  0.1004 -0.5590  1.0038
  524MOL0     H70728   9.226   0.001   6.614  0.0594 -1.5297  0.7366
  524MOL0     H70729   9.373   0.103   6.595  0.0930  0.1873 -0.5546
  524MOL0     H70730   9.380  -0.009   6.793 -2.0806 -0.7535  1.3598
  524MOL0     H70731   9.515  -0.055   6.703 -0.8517  4.1187  1.4530
  524MOL0     H70732   9.461  -0.263   6.791 -1.4648 -0.9200  1.2851
  524MOL0     H70733   9.374  -0.270   6.639 -0.6976  0.9000 -0.3011
  524MOL0     H70734   9.172  -0.154   6.754  0.1353 -0.3972 -0.8380
  524MOL0     H70735   9.196  -0.312   6.790 -0.7082 -0.1785 -0.6498
  524MOL0     H70736   9.297  -0.186   7.178 -1.1717  0.1090  0.3611
  524MOL0     H70737   9.147  -0.092   6.319 -2.6706  1.3608  1.2031
  524MOL0     H70738   8.943   0.022   6.158 -0.0279  2.1066 -0.9847
  524MOL0     H70739   9.032   0.050   6.005  2.9127 -1.0941 -0.9089
  524MOL0     H70740   9.049  -0.101   6.088 -0.9127  0.6515 -0.6149
  525MOL0     O70741   0.914   6.156  11.355  0.1773  0.0222 -0.0768
  525MOL0     C70742   0.980   6.103  11.447  1.2093  0.4736 -0.6369
  525MOL0     O70743   1.118   6.087  11.444  0.3100 -0.2308  0.2726
  525MOL0     C70744   1.191   6.144  11.350  0.6174 -0.5685  0.9599
  525MOL0     C70745   1.283   6.242  11.376  0.3414 -0.7800 -0.2948
  525MOL0     C70746   1.369   6.284  11.279  0.7581  0.2976 -0.6237
  525MOL0     C70747   1.363   6.227  11.150  0.3743  0.6869  0.5914
  525MOL0     O70748   1.443   6.296  11.060  0.0183  0.8396  0.0949
  525MOL0     C70749   1.448   6.242  10.929  0.0747 -0.2208 -0.5899
  525MOL0     C70750   1.562   6.302  10.865  0.9113 -0.2913  0.3569
  525MOL0     C70751   1.584   6.255  10.721  0.2456 -0.6971 -1.2794
  525MOL0     C70752   1.698   6.338  10.675 -0.4367 -0.5543 -0.2186
  525MOL0     C70753   1.743   6.291  10.535 -0.2758 -0.2297 -0.1260
  525MOL0     C70754   1.852   6.394  10.490  0.5152  0.1969 -0.6488
  525MOL0     C70755   1.872   6.357  10.338  0.5571  0.6813  0.1090
  525MOL0     C70756   1.944   6.460  10.248  0.3302  0.3883 -0.4363
  525MOL0     N70757   2.083   6.425  10.218 -0.6163 -0.2746 -0.6125
  525MOL0     C70758   2.159   6.504  10.136 -0.0821 -0.7063  0.1579
  525MOL0     C70759   2.273   6.430  10.113  0.3156 -0.1406 -0.3265
  525MOL0     C70760   2.389   6.492  10.048  0.1143  0.8750  0.1652
  525MOL0     C70761   2.469   6.562  10.162 -0.7879 -0.5035 -0.8449
  525MOL0     C70762   2.584   6.640  10.106 -1.0579 -0.4572 -0.1810
  525MOL0     C70763   2.620   6.738  10.215 -0.0460 -0.6058 -0.6268
  525MOL0     O70764   2.708   6.838  10.163 -0.1811 -1.1007  0.0314
  525MOL0     C70765   2.740   6.944  10.234 -0.6188  1.1628 -0.5291
  525MOL0     C70766   2.717   6.950  10.371 -0.3859  0.3817 -0.2233
  525MOL0     C70767   2.776   7.053  10.440 -0.2554 -0.3484  0.6141
  525MOL0     C70768   2.850   7.157  10.375 -0.4538  0.6676  0.1538
  525MOL0     C70769   2.914   7.259  10.445  0.6188  0.5186  0.0445
  525MOL0     O70770   2.938   7.230  10.576 -0.4625 -0.5574  0.2514
  525MOL0     C70771   3.036   7.293  10.647 -0.0918  0.2608 -0.1689
  525MOL0     C70772   3.003   7.365  10.759 -0.9688  0.0358  0.4533
  525MOL0     C70773   3.112   7.427  10.832  0.1477  0.0904  0.1795
  525MOL0     C70774   3.250   7.399  10.810 -0.0647 -0.9095  0.3341
  525MOL0     O70775   3.349   7.457  10.883 -0.3253 -0.1477  1.1025
  525MOL0     C70776   3.318   7.497  11.014  0.3906  0.0781  0.1501
  525MOL0     C70777   3.441   7.562  11.086 -0.7188 -0.2847 -0.4023
  525MOL0     C70778   3.535   7.452  11.127 -1.1169 -0.0451 -0.8780
  525MOL0     C70779   3.666   7.501  11.190 -0.7677  0.5959 -0.1275
  525MOL0     C70780   3.756   7.383  11.238 -0.1797  0.1367 -0.1426
  525MOL0     C70781   3.892   7.415  11.312  0.4313 -0.6774 -0.3623
  525MOL0     C70782   3.870   7.533  11.416 -0.6868 -0.4152  0.9461
  525MOL0     C70783   4.004   7.589  11.454 -0.5970  0.0156  1.6602
  525MOL0    Cl70784   3.996   7.753  11.527  0.2843 -0.1451  0.0637
  525MOL0     C70785   3.273   7.337  10.694 -0.4166  0.3358  0.1170
  525MOL0     C70786   3.174   7.283  10.611 -0.5148 -0.0938 -0.7055
  525MOL0     O70787   2.965   7.347  10.377 -0.2426  0.3388  0.1711
  525MOL0     C70788   2.857   7.150  10.233 -0.6332 -0.5364 -0.2227
  525MOL0     C70789   2.801   7.048  10.165  0.3821  0.3103 -0.1942
  525MOL0     N70790   2.268   6.316  10.201  0.3653  0.2545  0.5918
  525MOL0     N70791   2.153   6.315  10.262  0.0267 -1.1096 -0.7748
  525MOL0     C70792   1.278   6.119  11.126  0.2036  0.5931  0.2379
  525MOL0     C70793   1.185   6.074  11.226  1.0195 -1.1151  0.4514
  525MOL0     C70794   0.921   6.080  11.574  0.3355  0.0830  0.5498
  525MOL0     C70795   0.995   6.122  11.682  0.3371  0.1753 -1.6776
  525MOL0     C70796   0.965   6.067  11.806  0.3556  0.4564  0.1991
  525MOL0     C70797   0.866   5.971  11.821  0.1630 -0.8520  0.0433
  525MOL0     O70798   0.851   5.924  11.950  0.1785  0.0816  0.2084
  525MOL0     C70799   0.727   5.857  11.977  0.2560 -0.4548  0.8149
  525MOL0     C70800   0.701   5.825  12.123  0.5006  0.3309  0.0778
  525MOL0     C70801   0.827   5.768  12.188  0.2883 -0.7799  0.2157
  525MOL0     C70802   0.811   5.759  12.335  0.1394 -0.9517  0.2706
  525MOL0     C70803   0.809   5.883  12.425  0.2836  0.4696 -0.2571
  525MOL0     C70804   0.798   5.982  12.489  0.2035 -0.6886 -0.1564
  525MOL0     C70805   0.792   5.925  11.711  0.3778 -0.0659  0.4861
  525MOL0     C70806   0.816   5.984  11.584 -0.1941 -0.2099  0.0913
  525MOL0     C70807   0.739   5.928  11.472 -0.2000  0.0006 -0.1611
  525MOL0     H70808   1.296   6.287  11.473  0.6640 -0.1279 -0.6369
  525MOL0     H70809   1.439   6.364  11.301 -0.0426  0.5346  1.1943
  525MOL0     H70810   1.459   6.133  10.920  1.6292 -0.5191  2.9034
  525MOL0     H70811   1.363   6.276  10.871  0.5868 -2.2555 -2.6919
  525MOL0     H70812   1.645   6.285  10.934 -0.9621 -1.5449  2.4213
  525MOL0     H70813   1.534   6.407  10.876 -0.0199 -0.5996  1.0194
  525MOL0     H70814   1.494   6.293  10.671 -0.8846  0.7361  1.6005
  525MOL0     H70815   1.603   6.147  10.715  1.6296 -0.5863  0.3326
  525MOL0     H70816   1.666   6.442  10.668 -2.8790 -1.3269 -2.2648
  525MOL0     H70817   1.780   6.323  10.746 -2.1904  0.3291  2.1301
  525MOL0     H70818   1.790   6.192  10.542 -0.3070 -0.1469  2.1407
  525MOL0     H70819   1.659   6.288  10.466 -0.5204  1.2850  0.0720
  525MOL0     H70820   1.811   6.492  10.517  1.2745 -0.0763  1.6887
  525MOL0     H70821   1.946   6.370  10.539  1.4456  0.9198 -2.0347
  525MOL0     H70822   1.778   6.355  10.283  1.5496  0.8041 -1.6438
  525MOL0     H70823   1.923   6.261  10.335  0.1012  0.4273  0.3656
  525MOL0     H70824   1.897   6.449  10.150  0.4490 -2.0760 -0.2719
  525MOL0     H70825   1.929   6.562  10.285  0.2852  1.0828 -2.2768
  525MOL0     H70826   2.128   6.603  10.104 -0.7690 -1.3193 -1.1669
  525MOL0     H70827   2.452   6.414  10.004 -0.4609 -0.2664  1.2965
  525MOL0     H70828   2.361   6.563   9.970  1.3268  0.0570 -1.0668
  525MOL0     H70829   2.401   6.639  10.200 -0.4960  1.1545 -3.4309
  525MOL0     H70830   2.496   6.493  10.242  0.6324  1.2578  0.2833
  525MOL0     H70831   2.556   6.693  10.014  0.1515 -1.0805 -0.9502
  525MOL0     H70832   2.675   6.584  10.081 -1.1554 -1.3407  1.3248
  525MOL0     H70833   2.659   6.689  10.305 -1.3415  1.0767  0.9327
  525MOL0     H70834   2.529   6.788  10.248  1.9248  2.2428  0.7982
  525MOL0     H70835   2.659   6.884  10.435  2.0359  0.5735  2.4055
  525MOL0     H70836   2.751   7.055  10.546 -2.0405 -2.9514  0.3316
  525MOL0     H70837   2.899   7.385  10.780 -1.4869  1.4378 -2.8534
  525MOL0     H70838   3.086   7.504  10.903  3.6104 -0.0523  1.8001
  525MOL0     H70839   3.232   7.565  11.013 -0.5670 -1.1106 -0.7603
  525MOL0     H70840   3.289   7.408  11.070 -2.1542  0.3487 -0.5810
  525MOL0     H70841   3.483   7.647  11.033  1.9613 -1.1255  0.2015
  525MOL0     H70842   3.406   7.599  11.183 -0.2707 -0.6755 -0.0875
  525MOL0     H70843   3.491   7.389  11.205  1.5739 -0.4889  0.4073
  525MOL0     H70844   3.554   7.401  11.033  0.5927  1.7302 -1.5600
  525MOL0     H70845   3.651   7.578  11.267  4.7556  2.9699 -0.9957
  525MOL0     H70846   3.724   7.544  11.109 -0.2513  1.0566  0.4789
  525MOL0     H70847   3.774   7.317  11.152 -0.6908  0.2002 -0.3042
  525MOL0     H70848   3.692   7.331  11.310  0.7168  1.4748  1.6941
  525MOL0     H70849   3.929   7.322  11.356 -0.0760 -1.4395 -1.5004
  525MOL0     H70850   3.968   7.434  11.235  1.5888 -2.2486  0.3370
  525MOL0     H70851   3.800   7.514  11.498 -2.4460 -2.5080 -0.9115
  525MOL0     H70852   3.817   7.615  11.367 -1.4179 -1.8088 -0.6780
  525MOL0     H70853   4.057   7.512  11.512  3.1093  1.8922  1.0921
  525MOL0     H70854   4.063   7.599  11.362 -0.8278  2.3546  1.7163
  525MOL0     H70855   3.377   7.337  10.662  0.1712  3.3089  1.7404
  525MOL0     H70856   3.206   7.230  10.522  1.6663 -0.0428 -0.0132
  525MOL0     H70857   2.900   7.223  10.165 -0.4781 -1.6024 -1.2958
  525MOL0     H70858   2.814   7.033  10.059 -2.7642  2.1022 -0.9557
  525MOL0     H70859   1.265   6.057  11.037 -0.7031  0.9924  0.0833
  525MOL0     H70860   1.112   5.995  11.212  0.9813 -1.1350  0.7407
  525MOL0     H70861   1.086   6.180  11.667 -0.2284  2.7416  2.8483
  525MOL0     H70862   1.022   6.078  11.898 -0.2347  0.7444  0.5316
  525MOL0     H70863   0.719   5.762  11.924 -5.2109 -0.5562  1.2158
  525MOL0     H70864   0.637   5.913  11.947 -0.4569 -2.3439 -0.7734
  525MOL0     H70865   0.606   5.771  12.130 -2.7203  5.2163 -0.6537
  525MOL0     H70866   0.674   5.921  12.167 -1.0938  0.0556 -0.2304
  525MOL0     H70867   0.910   5.831  12.158 -0.8360  0.7041  0.1184
  525MOL0     H70868   0.831   5.666  12.148 -0.7209 -2.0039  2.9880
  525MOL0     H70869   0.715   5.711  12.356 -2.9307  3.4770 -1.9581
  525MOL0     H70870   0.908   5.716  12.362  1.7264  3.0339  1.8590
  525MOL0     H70871   0.796   6.071  12.549  4.5249  1.3139 -2.5326
  525MOL0     H70872   0.714   5.849  11.711 -2.0724  2.2266 -1.1532
  525MOL0     H70873   0.686   6.006  11.416 -1.6897  0.1448  1.3346
  525MOL0     H70874   0.805   5.877  11.401  0.9670  0.4259  0.5901
  525MOL0     H70875   0.659   5.859  11.500 -0.6954  1.0594  1.1617
  526MOL0     O70876   9.256   6.110   8.780  0.3634 -0.1819 -0.1853
  526MOL0     C70877   9.321   6.029   8.845 -1.0526 -0.1376  1.2273
  526MOL0     O70878   9.443   6.059   8.892  0.5321 -0.3690 -0.3616
  526MOL0     C70879   9.488   6.187   8.887 -0.2067 -0.6849  0.1920
  526MOL0     C70880   9.420   6.281   8.968 -0.0092 -0.1474  0.4771
  526MOL0     C70881   9.470   6.409   8.976 -0.5300 -0.3556 -0.1688
  526MOL0     C70882   9.577   6.449   8.895  0.3904  0.2010 -0.1465
  526MOL0     O70883   9.643   6.570   8.915 -0.2221  0.4672  0.4571
  526MOL0     C70884   9.692   6.594   9.050  0.5663  0.8220 -0.6391
  526MOL0     C70885   9.663   6.740   9.088 -0.4208 -0.7467 -0.3175
  526MOL0     C70886   9.755   6.789   9.209  0.0898  0.5181  0.2963
  526MOL0     C70887   9.854   6.896   9.170  0.0331 -0.6053  0.3361
  526MOL0     C70888   9.900   7.004   9.271 -0.9010 -0.6228 -0.0584
  526MOL0     C70889   9.977   6.961   9.396 -0.4051 -0.0590  0.0667
  526MOL0     C70890  10.108   6.870   9.371  0.2135  0.3620  0.5758
  526MOL0     C70891  10.202   6.921   9.264 -0.5385  0.0348  0.5422
  526MOL0     N70892  10.234   7.063   9.282 -0.6332  0.1757  0.1532
  526MOL0     C70893  10.314   7.121   9.383 -0.1397 -0.0765 -0.3199
  526MOL0     C70894  10.297   7.257   9.372  0.1822 -0.4491 -0.2272
  526MOL0     C70895  10.342   7.356   9.476 -1.5873  0.0472 -0.4900
  526MOL0     C70896  10.232   7.383   9.572 -0.1547  0.5873  0.7704
  526MOL0     C70897  10.118   7.480   9.525  0.5989 -0.4886  0.1298
  526MOL0     C70898  10.058   7.558   9.641  0.1562 -0.2971  0.3050
  526MOL0     O70899   9.943   7.639   9.588  0.3562  0.0674 -0.0098
  526MOL0     C70900   9.877   7.715   9.685 -0.0562 -0.1668  0.6833
  526MOL0     C70901   9.756   7.669   9.742 -0.8190 -0.6055  0.9575
  526MOL0     C70902   9.697   7.743   9.854  0.9275  0.0098 -0.1942
  526MOL0     C70903   9.744   7.872   9.882  0.8608  0.3228  0.4938
  526MOL0     C70904   9.688   7.967   9.985 -0.3456 -0.4389  0.3106
  526MOL0     O70905   9.607   7.914  10.075 -0.0377 -0.0744  0.0157
  526MOL0     C70906   9.549   7.993  10.166 -0.1033 -0.8081  0.2937
  526MOL0     C70907   9.463   8.099  10.128  0.5190 -0.7714  0.1479
  526MOL0     C70908   9.379   8.165  10.220  0.3742 -0.5108  1.3593
  526MOL0     C70909   9.384   8.140  10.357  0.0262  0.5334 -0.2465
  526MOL0     O70910   9.291   8.184  10.441 -0.1651 -0.9626 -0.6531
  526MOL0     C70911   9.209   8.301  10.410  0.5111  0.3082  0.1089
  526MOL0     C70912   9.133   8.337  10.543  0.0429  1.4791  1.4894
  526MOL0     C70913   9.005   8.420  10.525  0.0541 -0.0934 -0.5349
  526MOL0     C70914   8.881   8.338  10.490  0.4141 -0.7343  0.1955
  526MOL0     C70915   8.763   8.431  10.438 -0.3962  0.6677 -0.5305
  526MOL0     C70916   8.648   8.350  10.369  0.2538 -0.1023 -0.9450
  526MOL0     C70917   8.542   8.450  10.323 -0.3259 -0.4611  0.2092
  526MOL0     C70918   8.437   8.396  10.231  0.3023 -0.3219  0.4686
  526MOL0    Cl70919   8.370   8.232  10.272 -0.0971  0.2370  0.1602
  526MOL0     C70920   9.451   8.023  10.388 -0.2206  0.2025  0.0690
  526MOL0     C70921   9.539   7.950  10.301  1.1646 -0.8200 -0.0495
  526MOL0     O70922   9.736   8.079   9.988 -0.0180  0.4578  0.0588
  526MOL0     C70923   9.849   7.921   9.800  0.0386  0.0895 -0.1853
  526MOL0     C70924   9.926   7.842   9.713  0.7015 -0.1441 -0.2397
  526MOL0     N70925  10.214   7.277   9.267  0.2954 -0.1904  0.5081
  526MOL0     N70926  10.192   7.164   9.203  0.3026  0.4058 -0.3068
  526MOL0     C70927   9.627   6.357   8.799 -0.7900 -0.5984 -0.6521
  526MOL0     C70928   9.583   6.224   8.805 -1.3099  0.7920 -0.4988
  526MOL0     C70929   9.281   5.885   8.863  0.7850  0.5344  0.5466
  526MOL0     C70930   9.367   5.784   8.879 -1.4271  1.0887  0.2772
  526MOL0     C70931   9.321   5.652   8.865 -0.0467  0.4718 -0.3783
  526MOL0     C70932   9.188   5.626   8.865 -0.1144 -0.6685 -0.6104
  526MOL0     O70933   9.135   5.507   8.895  0.1112  0.1502  0.1618
  526MOL0     C70934   9.187   5.388   8.836  0.3510 -0.3572  0.0624
  526MOL0     C70935   9.128   5.344   8.708 -0.1142 -0.5439  0.3718
  526MOL0     C70936   8.988   5.275   8.716 -0.5656  0.9422  0.4972
  526MOL0     C70937   8.935   5.209   8.590  0.3057  0.3561 -0.2173
  526MOL0     C70938   8.801   5.152   8.610  0.4776 -0.0190 -0.4648
  526MOL0     C70939   8.707   5.078   8.627  0.8425 -0.6275  0.1268
  526MOL0     C70940   9.102   5.727   8.872 -0.3785  0.7163  0.4087
  526MOL0     C70941   9.139   5.862   8.857  0.2003  0.9434 -0.0633
  526MOL0     C70942   9.035   5.972   8.873 -0.6738 -0.9681  0.2427
  526MOL0     H70943   9.338   6.246   9.030  0.2045  1.2060  1.5570
  526MOL0     H70944   9.429   6.483   9.043  1.8198 -0.1017  1.0811
  526MOL0     H70945   9.653   6.524   9.124 -1.6808  0.8164 -1.7283
  526MOL0     H70946   9.800   6.575   9.055 -0.0012 -2.9997  3.6217
  526MOL0     H70947   9.558   6.736   9.120 -0.8299 -2.3475 -1.7497
  526MOL0     H70948   9.665   6.800   8.997  2.9677 -2.2039 -1.3510
  526MOL0     H70949   9.821   6.711   9.248 -2.4677 -1.9854 -0.0620
  526MOL0     H70950   9.692   6.821   9.291  0.9189  0.3567  1.0156
  526MOL0     H70951   9.942   6.844   9.131  1.8891  0.8487  2.3221
  526MOL0     H70952   9.801   6.955   9.095  1.3351  0.1287 -0.0327
  526MOL0     H70953   9.956   7.083   9.220 -1.3380 -0.2658  0.0042
  526MOL0     H70954   9.810   7.056   9.304 -0.5057 -0.5923  0.9838
  526MOL0     H70955  10.014   7.047   9.453  1.3280 -0.3270 -0.5976
  526MOL0     H70956   9.902   6.913   9.460  0.4389  0.6048  1.6375
  526MOL0     H70957  10.061   6.778   9.333 -1.9790  0.8591  1.9209
  526MOL0     H70958  10.165   6.844   9.460  2.0608 -1.5260 -1.0313
  526MOL0     H70959  10.296   6.865   9.260  1.2181  2.8788 -1.1038
  526MOL0     H70960  10.145   6.919   9.171 -2.2224  1.1728  1.4927
  526MOL0     H70961  10.373   7.070   9.457 -0.7976 -0.3933 -0.0016
  526MOL0     H70962  10.421   7.323   9.545 -0.4135  1.1865 -1.2327
  526MOL0     H70963  10.374   7.445   9.420  1.2690 -0.4872  0.1248
  526MOL0     H70964  10.199   7.283   9.603  4.4790 -0.7401  2.2200
  526MOL0     H70965  10.279   7.420   9.664 -1.4583 -1.8638  2.5340
  526MOL0     H70966  10.043   7.432   9.461  0.8089  3.2761 -3.3478
  526MOL0     H70967  10.160   7.552   9.455  0.4486  0.3527  0.8841
  526MOL0     H70968  10.130   7.617   9.700 -2.0315  1.6917  1.1829
  526MOL0     H70969  10.025   7.480   9.710 -2.0692 -0.2108 -0.6015
  526MOL0     H70970   9.717   7.576   9.700 -1.4452  1.0670 -2.5038
  526MOL0     H70971   9.616   7.699   9.912 -0.5196 -0.5944 -2.5118
  526MOL0     H70972   9.456   8.129  10.024  2.3701  0.6586  0.3916
  526MOL0     H70973   9.312   8.239  10.179 -0.7731 -0.5965  2.9491
  526MOL0     H70974   9.261   8.395  10.391 -0.2097  0.8912  0.8898
  526MOL0     H70975   9.137   8.275  10.331  1.1260 -1.0503 -0.0255
  526MOL0     H70976   9.102   8.243  10.589 -1.3742  0.4618 -1.3139
  526MOL0     H70977   9.212   8.383  10.603  1.7034  2.3052 -1.1302
  526MOL0     H70978   8.990   8.475  10.619  0.1576  1.6857 -1.5192
  526MOL0     H70979   9.030   8.492  10.447  1.0578 -1.5224 -1.5853
  526MOL0     H70980   8.837   8.269  10.563  2.1070 -0.7866  1.2271
  526MOL0     H70981   8.915   8.278  10.405  1.0777  0.0503 -0.1070
  526MOL0     H70982   8.808   8.505  10.370 -0.5654 -0.3090 -1.7313
  526MOL0     H70983   8.717   8.481  10.524  0.1764  2.7082 -1.3522
  526MOL0     H70984   8.687   8.288  10.288 -1.9908 -1.1434 -1.3182
  526MOL0     H70985   8.604   8.278  10.439  0.9683  1.3437  1.0763
  526MOL0     H70986   8.601   8.519  10.261 -2.4943 -0.2356 -1.7423
  526MOL0     H70987   8.489   8.505  10.402 -0.0028  0.1366  0.0174
  526MOL0     H70988   8.358   8.470  10.219 -0.3486 -1.1036 -0.1327
  526MOL0     H70989   8.482   8.384  10.132  1.2928  2.9427  0.4231
  526MOL0     H70990   9.424   7.976  10.483 -1.4144  1.4565  0.3886
  526MOL0     H70991   9.590   7.858  10.328  2.7185 -0.0629 -0.3324
  526MOL0     H70992   9.887   8.019   9.826 -2.0950  0.6432  1.1073
  526MOL0     H70993  10.018   7.873   9.664  0.1036  2.9260  0.4015
  526MOL0     H70994   9.707   6.389   8.734 -0.7424  0.2120 -0.2085
  526MOL0     H70995   9.617   6.154   8.730 -0.1561  0.5687  0.2201
  526MOL0     H70996   9.473   5.806   8.876 -1.2295  0.0985 -0.5556
  526MOL0     H70997   9.395   5.574   8.859  0.2793  0.6146  1.1986
  526MOL0     H70998   9.173   5.309   8.911 -1.0850 -2.4988 -2.2984
  526MOL0     H70999   9.295   5.396   8.822  0.7351 -2.5268  1.3604
  526MOL0     H71000   9.201   5.279   8.660  0.9633  0.4351  0.6330
  526MOL0     H71001   9.118   5.430   8.642  0.8196 -0.0202  0.8797
  526MOL0     H71002   8.921   5.356   8.746  0.4834  2.9681 -2.2731
  526MOL0     H71003   9.012   5.202   8.794  2.8064  1.2179 -0.1395
  526MOL0     H71004   8.932   5.279   8.505  1.6820  1.1418  0.3580
  526MOL0     H71005   9.009   5.136   8.556  0.1260  0.2284 -0.3395
  526MOL0     H71006   8.623   5.019   8.660 -2.2177  3.0416 -0.3083
  526MOL0     H71007   8.996   5.703   8.867 -0.7833  2.2017  1.3265
  526MOL0     H71008   9.070   6.046   8.946 -3.6382 -1.4500  2.3206
  526MOL0     H71009   9.047   6.016   8.773  0.2218  0.0498  0.7717
  526MOL0     H71010   8.933   5.942   8.899 -1.5222 -1.1678 -2.8967
  527MOL0     O71011  11.305  10.919   5.264  0.0297 -0.2528 -0.7479
  527MOL0     C71012  11.264  10.900   5.381 -0.8835 -0.8634  0.5946
  527MOL0     O71013  11.140  10.880   5.427 -0.2852  0.3104 -0.4349
  527MOL0     C71014  11.046  10.884   5.332  0.2695  0.5411  0.8940
  527MOL0     C71015  11.011  10.997   5.256  0.0171 -0.5903 -0.1326
  527MOL0     C71016  10.903  10.994   5.162  0.4272  0.3778 -0.4414
  527MOL0     C71017  10.825  10.874   5.147  0.2847  1.0969  0.6327
  527MOL0     O71018  10.717  10.860   5.064  0.0099  0.7004  0.5095
  527MOL0     C71019  10.697  10.723   5.008 -0.0304 -1.2780  0.5370
  527MOL0     C71020  10.614  10.739   4.880  0.6143  0.0140  0.3419
  527MOL0     C71021  10.627  10.618   4.790 -0.0430 -0.4722  0.2959
  527MOL0     C71022  10.548  10.635   4.660 -0.2515 -0.0003 -0.6726
  527MOL0     C71023  10.402  10.606   4.692  0.6240 -0.2033 -0.1269
  527MOL0     C71024  10.344  10.471   4.738  0.0641  0.0729 -0.4105
  527MOL0     C71025  10.188  10.474   4.763 -0.5820  0.5500  0.1951
  527MOL0     C71026  10.117  10.338   4.817  0.1233  0.0602 -0.4664
  527MOL0     N71027  10.059  10.281   4.697  0.4388  0.2447 -0.1881
  527MOL0     C71028  10.131  10.200   4.608 -0.0001 -1.0559  0.0187
  527MOL0     C71029  10.037  10.195   4.504  0.5899 -1.0132 -0.5256
  527MOL0     C71030  10.060  10.134   4.380  1.1329 -0.3474 -0.3431
  527MOL0     C71031  10.112  10.233   4.267 -0.0604 -0.2675 -0.0326
  527MOL0     C71032  10.148  10.159   4.136 -0.1419 -0.2284 -0.4230
  527MOL0     C71033  10.172  10.251   4.015  0.3355  0.3784 -1.1301
  527MOL0     O71034  10.247  10.163   3.932  0.5319  0.0196  0.2652
  527MOL0     C71035  10.309  10.203   3.824 -0.8336  0.3222  0.1084
  527MOL0     C71036  10.287  10.331   3.768  0.4156 -0.5067 -0.2848
  527MOL0     C71037  10.373  10.379   3.664  0.9044  0.2032  0.3829
  527MOL0     C71038  10.455  10.286   3.595 -0.4362  0.2165 -0.4496
  527MOL0     C71039  10.531  10.336   3.478  0.4779  0.9648  0.1129
  527MOL0     O71040  10.662  10.302   3.461 -0.1970  0.7547 -0.7188
  527MOL0     C71041  10.734  10.332   3.352 -0.0453 -0.1417 -0.4771
  527MOL0     C71042  10.828  10.242   3.319 -0.5373  0.0994 -0.9688
  527MOL0     C71043  10.926  10.267   3.227  0.8512 -0.5659  0.1094
  527MOL0     C71044  10.933  10.391   3.161  0.6835  0.2788  0.0576
  527MOL0     O71045  11.045  10.403   3.075  0.1017  0.5850  0.1839
  527MOL0     C71046  11.109  10.523   3.083 -0.4002 -0.5779 -0.1776
  527MOL0     C71047  11.222  10.532   2.987  0.0206  0.2451 -0.1499
  527MOL0     C71048  11.351  10.470   3.033 -0.3030  0.2519  0.6461
  527MOL0     C71049  11.338  10.320   3.076 -0.4909  0.4075 -0.6138
  527MOL0     C71050  11.472  10.240   3.093  0.7069 -1.5859 -0.2242
  527MOL0     C71051  11.561  10.304   3.209  0.8581  0.5039 -0.4928
  527MOL0     C71052  11.675  10.202   3.235  0.4432 -0.0159  0.3844
  527MOL0     C71053  11.754  10.239   3.364  0.6647 -0.1053  0.3053
  527MOL0    Cl71054  11.879  10.118   3.391 -0.3167 -0.5788 -0.1280
  527MOL0     C71055  10.835  10.494   3.198  0.5948  0.3613 -1.0047
  527MOL0     C71056  10.729  10.465   3.286  0.4210  0.9156 -0.9876
  527MOL0     O71057  10.461  10.387   3.389  0.0478 -0.1434 -0.8973
  527MOL0     C71058  10.475  10.148   3.645 -1.1521  0.5763 -0.4684
  527MOL0     C71059  10.395  10.110   3.756  0.6045  0.2020  0.2154
  527MOL0     N71060   9.918  10.265   4.541  0.3333  0.7354 -0.3977
  527MOL0     N71061   9.925  10.297   4.665  0.4586 -1.1874  0.2301
  527MOL0     C71062  10.863  10.766   5.230 -0.2605 -0.3630  0.6653
  527MOL0     C71063  10.970  10.771   5.312  1.0494  0.2965 -0.3389
  527MOL0     C71064  11.367  10.922   5.489  0.0236 -0.2939 -0.1789
  527MOL0     C71065  11.451  11.029   5.476  0.7005 -0.3759 -0.7765
  527MOL0     C71066  11.564  11.042   5.557  0.5085  0.7154 -0.0890
  527MOL0     C71067  11.592  10.946   5.663  0.1676  0.1334  0.9335
  527MOL0     O71068  11.696  10.943   5.754  0.2492  0.3113  0.2564
  527MOL0     C71069  11.750  11.078   5.785 -0.0283 -0.0651  0.4720
  527MOL0     C71070  11.861  11.059   5.889  0.6167  0.9925 -0.5801
  527MOL0     C71071  11.956  11.182   5.891 -0.5659  0.7330 -0.5287
  527MOL0     C71072  12.069  11.136   5.981  0.5246  0.5580 -0.1299
  527MOL0     C71073  12.006  11.149   6.119 -0.2606 -0.8608  0.0277
  527MOL0     C71074  11.968  11.184   6.234  0.2320 -0.3873 -0.5151
  527MOL0     C71075  11.498  10.844   5.673 -0.4508  0.2398 -0.0919
  527MOL0     C71076  11.385  10.826   5.594  0.4505  0.5555  0.2210
  527MOL0     C71077  11.286  10.717   5.619 -0.1760  0.0388 -0.6257
  527MOL0     H71078  11.064  11.088   5.281 -1.2408 -0.3164  1.7795
  527MOL0     H71079  10.886  11.090   5.114 -2.9216  0.9901  1.6667
  527MOL0     H71080  10.796  10.689   4.976  0.2524 -2.3226  2.4009
  527MOL0     H71081  10.656  10.660   5.088 -2.5634  3.7115  3.6293
  527MOL0     H71082  10.650  10.837   4.848 -0.7582  1.1312  2.0351
  527MOL0     H71083  10.512  10.755   4.916  1.5685  3.5376  1.8957
  527MOL0     H71084  10.592  10.521   4.828 -2.6303  0.4305  0.3725
  527MOL0     H71085  10.732  10.628   4.761  0.2209 -1.0737  0.9908
  527MOL0     H71086  10.566  10.733   4.615 -0.4308 -0.0059 -0.7568
  527MOL0     H71087  10.582  10.556   4.592  2.2490 -0.1917  0.6631
  527MOL0     H71088  10.367  10.671   4.772 -1.0221 -2.1894  0.8600
  527MOL0     H71089  10.338  10.636   4.607 -1.4390 -1.0565  1.0492
  527MOL0     H71090  10.359  10.397   4.659  1.5294 -1.1167  0.9116
  527MOL0     H71091  10.400  10.430   4.822 -0.5046 -0.2524 -0.1890
  527MOL0     H71092  10.144  10.492   4.664 -0.5996 -3.4164 -0.6801
  527MOL0     H71093  10.168  10.556   4.832  0.3341  2.2730 -1.4797
  527MOL0     H71094  10.182  10.258   4.855 -0.8514 -1.2660 -1.5105
  527MOL0     H71095  10.036  10.358   4.888 -1.5238  0.6906 -2.4267
  527MOL0     H71096  10.232  10.163   4.625 -0.3967 -2.1817  0.0250
  527MOL0     H71097  10.124  10.050   4.408 -3.1726 -3.6490  0.7956
  527MOL0     H71098   9.962  10.095   4.349  2.2194 -3.6113 -0.1120
  527MOL0     H71099  10.029  10.301   4.249  1.5679  1.6200 -0.8346
  527MOL0     H71100  10.197  10.290   4.305 -0.8109  0.1759  1.0245
  527MOL0     H71101  10.073  10.084   4.111  0.3735 -0.6274 -0.8109
  527MOL0     H71102  10.234  10.095   4.156  1.2458  1.2025 -1.4609
  527MOL0     H71103  10.231  10.339   4.040  1.5224 -0.0119 -2.4253
  527MOL0     H71104  10.082  10.269   3.956 -1.8453  0.2323  1.9113
  527MOL0     H71105  10.212  10.399   3.807 -0.9014 -0.9209 -1.9398
  527MOL0     H71106  10.360  10.482   3.633  2.7913  0.4649  0.3615
  527MOL0     H71107  10.832  10.142   3.360  0.0724  1.1831  1.8325
  527MOL0     H71108  10.997  10.185   3.217  2.0189  0.6566 -2.2737
  527MOL0     H71109  11.040  10.607   3.074  0.2720  0.1075  0.7627
  527MOL0     H71110  11.143  10.540   3.186 -3.1310  0.5488  0.6183
  527MOL0     H71111  11.193  10.486   2.892 -4.0918  0.7805  0.6478
  527MOL0     H71112  11.248  10.636   2.968 -2.7485  0.7065 -2.0327
  527MOL0     H71113  11.437  10.467   2.965 -2.0056 -2.0673 -1.5946
  527MOL0     H71114  11.398  10.528   3.113  3.0850  0.6532 -1.4305
  527MOL0     H71115  11.284  10.261   3.002 -0.9129 -0.1176  0.0967
  527MOL0     H71116  11.276  10.310   3.166 -1.1602  2.5748 -0.7804
  527MOL0     H71117  11.529  10.237   3.000 -1.6418  1.2092 -1.9491
  527MOL0     H71118  11.444  10.139   3.122 -0.8940 -1.0865  0.0754
  527MOL0     H71119  11.611  10.397   3.183  3.3905 -1.0054 -1.4984
  527MOL0     H71120  11.501  10.335   3.295 -1.3370 -0.0516 -1.7393
  527MOL0     H71121  11.752  10.205   3.157  0.0960 -0.7606  0.0070
  527MOL0     H71122  11.628  10.104   3.252 -1.5320  1.0054  1.1177
  527MOL0     H71123  11.798  10.339   3.372  2.1435 -0.8298  1.9638
  527MOL0     H71124  11.675  10.249   3.439  0.2734  2.5731 -0.3428
  527MOL0     H71125  10.831  10.596   3.161  0.7998  1.4931  1.8600
  527MOL0     H71126  10.644  10.531   3.296 -0.5871 -0.2693 -1.4121
  527MOL0     H71127  10.552  10.084   3.603 -1.6981 -1.7984  1.8614
  527MOL0     H71128  10.400  10.010   3.797  3.7707 -0.3706 -1.2830
  527MOL0     H71129  10.800  10.677   5.228  0.2543 -0.7269  0.6570
  527MOL0     H71130  10.983  10.690   5.383  0.3701  1.4172  1.1230
  527MOL0     H71131  11.433  11.103   5.399 -0.7469 -0.8786 -0.9623
  527MOL0     H71132  11.623  11.132   5.554 -1.9739  2.6504  2.8414
  527MOL0     H71133  11.680  11.148   5.831  3.1746  1.6852  3.2050
  527MOL0     H71134  11.796  11.123   5.697 -1.4284  0.8159  0.1660
  527MOL0     H71135  11.918  10.971   5.859 -0.9765  0.6238 -2.7741
  527MOL0     H71136  11.801  11.040   5.979 -0.5584  0.0242 -1.5257
  527MOL0     H71137  11.914  11.274   5.932 -1.8887  0.8358 -2.0142
  527MOL0     H71138  11.984  11.194   5.786 -3.0699 -0.4835 -1.4360
  527MOL0     H71139  12.110  11.038   5.955 -3.7392 -0.8681 -2.5043
  527MOL0     H71140  12.151  11.208   5.987 -0.1338  1.4552 -1.4842
  527MOL0     H71141  11.938  11.216   6.331 -1.7394 -0.4967 -1.0443
  527MOL0     H71142  11.500  10.768   5.751 -4.3076 -1.8451 -1.7716
  527MOL0     H71143  11.229  10.705   5.526 -1.4142  2.3194 -0.2146
  527MOL0     H71144  11.332  10.631   5.668  0.8111  0.7760 -0.2291
  527MOL0     H71145  11.206  10.754   5.683  0.2164  1.7947 -1.1022
  528MOL0     O71146   7.921   4.602   1.374  0.8209 -0.7266  0.0081
  528MOL0     C71147   7.865   4.498   1.392 -0.7773  0.4388 -0.1595
  528MOL0     O71148   7.928   4.379   1.369 -0.3375 -0.0059 -0.4759
  528MOL0     C71149   8.058   4.381   1.339 -0.0768  0.4212  0.5966
  528MOL0     C71150   8.138   4.314   1.436  0.4807 -0.0819  0.3314
  528MOL0     C71151   8.270   4.300   1.410 -0.5121 -0.8383 -0.1868
  528MOL0     C71152   8.327   4.353   1.291 -0.5582 -0.0887  0.2212
  528MOL0     O71153   8.462   4.354   1.257 -0.2847  0.1890  0.0423
  528MOL0     C71154   8.559   4.316   1.353 -0.4627 -0.2833 -0.6665
  528MOL0     C71155   8.695   4.300   1.288 -0.7476 -0.6074 -0.1174
  528MOL0     C71156   8.759   4.437   1.270  0.3699  0.1025 -0.4956
  528MOL0     C71157   8.889   4.416   1.203  0.6277 -1.4757 -0.0859
  528MOL0     C71158   8.969   4.549   1.167 -0.7430 -0.5769 -0.2212
  528MOL0     C71159   9.096   4.503   1.106 -0.6548  0.6599 -0.0505
  528MOL0     C71160   9.145   4.620   1.021 -0.2168  0.9809 -0.2126
  528MOL0     C71161   9.267   4.587   0.930 -1.0509  0.5674 -0.3582
  528MOL0     N71162   9.405   4.586   0.989  0.1331  0.7670 -0.1421
  528MOL0     C71163   9.492   4.688   0.982 -0.5119  0.4611 -0.2249
  528MOL0     C71164   9.600   4.657   1.056 -0.2476  0.3075 -0.1517
  528MOL0     C71165   9.736   4.717   1.040  0.9072  0.2924  0.1858
  528MOL0     C71166   9.747   4.859   1.089  0.2755  0.2749  0.0774
  528MOL0     C71167   9.863   4.922   1.015 -0.7268  0.8073  0.1565
  528MOL0     C71168   9.895   5.055   1.062 -0.2774 -0.8294  0.0090
  528MOL0     O71169  10.012   5.095   0.991  0.1093  0.0180  0.0606
  528MOL0     C71170  10.000   5.165   0.879 -0.1305 -0.5643 -0.0743
  528MOL0     C71171   9.890   5.157   0.787 -0.2574 -0.8740  0.4620
  528MOL0     C71172   9.891   5.225   0.670 -0.2144 -0.1610  0.3726
  528MOL0     C71173  10.001   5.293   0.613  0.1822 -0.1912 -0.0041
  528MOL0     C71174   9.993   5.374   0.489 -0.8419 -0.6813  0.0640
  528MOL0     O71175   9.874   5.361   0.416 -0.3772 -0.2489 -0.0983
  528MOL0     C71176   9.846   5.416   0.290 -0.6654 -0.4786  0.0332
  528MOL0     C71177   9.737   5.369   0.223  0.6412 -0.0839  0.5226
  528MOL0     C71178   9.687   5.436   0.115 -0.1607  0.3140 -0.2623
  528MOL0     C71179   9.741   5.554   0.066 -0.1434  0.2877  0.5263
  528MOL0     O71180   9.697   5.620  -0.054  0.2221 -0.3189  0.0973
  528MOL0     C71181   9.562   5.592  -0.108 -0.4070 -1.5154 -0.1721
  528MOL0     C71182   9.492   5.726  -0.129 -0.1184 -0.2857 -0.6731
  528MOL0     C71183   9.535   5.800  -0.266  0.3107  0.4305 -0.0187
  528MOL0     C71184   9.636   5.907  -0.233  0.2081  0.3193  0.4957
  528MOL0     C71185   9.654   6.004  -0.349  0.4474 -0.2017  0.3587
  528MOL0     C71186   9.722   6.124  -0.293  0.8647 -0.0384  0.3032
  528MOL0     C71187   9.730   6.238  -0.386 -0.1759 -0.3545 -0.6643
  528MOL0     C71188   9.797   6.360  -0.324 -0.2249  0.3968  0.2417
  528MOL0    Cl71189   9.968   6.358  -0.332 -0.3211  0.3312 -0.1799
  528MOL0     C71190   9.870   5.585   0.111 -0.3182 -0.4465 -0.3248
  528MOL0     C71191   9.919   5.521   0.227 -0.2943 -0.9457 -0.6343
  528MOL0     O71192  10.088   5.451   0.465  0.8099  0.3782 -0.8453
  528MOL0     C71193  10.113   5.295   0.707 -0.1358 -0.1983 -0.2704
  528MOL0     C71194  10.109   5.240   0.837  0.3145  0.3800  0.1086
  528MOL0     N71195   9.568   4.532   1.108 -0.1754  0.3195 -0.0727
  528MOL0     N71196   9.456   4.487   1.076 -0.0199 -0.3636  0.9755
  528MOL0     C71197   8.251   4.423   1.204 -0.3596 -0.4500  0.6512
  528MOL0     C71198   8.111   4.444   1.224  0.4528 -0.0222  0.3920
  528MOL0     C71199   7.715   4.504   1.438  0.4597  1.1510  0.7393
  528MOL0     C71200   7.678   4.623   1.515  0.1521  1.3475 -0.9653
  528MOL0     C71201   7.552   4.634   1.558  0.0840 -0.9861 -0.6253
  528MOL0     C71202   7.453   4.555   1.513  0.4497  0.3183 -0.8670
  528MOL0     O71203   7.317   4.576   1.533 -0.4648  0.8624 -0.1983
  528MOL0     C71204   7.269   4.696   1.586  0.4355 -0.6996 -0.2893
  528MOL0     C71205   7.120   4.692   1.607 -0.0939  0.0069  0.8697
  528MOL0     C71206   7.092   4.565   1.684  0.3541  0.8246 -0.0354
  528MOL0     C71207   6.960   4.579   1.770  0.3941 -0.2421 -0.0845
  528MOL0     C71208   6.848   4.559   1.680  0.1325 -0.4607  0.2071
  528MOL0     C71209   6.757   4.518   1.606  0.8474  0.3667 -0.3587
  528MOL0     C71210   7.479   4.444   1.436 -0.2359 -0.4127  1.0117
  528MOL0     C71211   7.611   4.413   1.396  0.5192 -0.0869 -0.5189
  528MOL0     C71212   7.637   4.283   1.325 -0.3005 -0.0573 -0.2421
  528MOL0     H71213   8.085   4.270   1.520  1.9709  0.5980  1.6763
  528MOL0     H71214   8.323   4.242   1.485  0.6559 -1.4733 -1.4756
  528MOL0     H71215   8.568   4.393   1.430 -0.6263 -0.8234 -0.1006
  528MOL0     H71216   8.541   4.225   1.412  1.5122 -0.1200  0.2963
  528MOL0     H71217   8.678   4.249   1.193  0.5769  0.4170 -0.9281
  528MOL0     H71218   8.757   4.238   1.354  2.3607 -1.1398 -3.2861
  528MOL0     H71219   8.761   4.478   1.372 -1.6202  0.4358 -0.5406
  528MOL0     H71220   8.690   4.499   1.211 -2.6622 -2.0973  0.4591
  528MOL0     H71221   8.963   4.369   1.269  1.0944 -0.5266  0.0949
  528MOL0     H71222   8.880   4.357   1.112  1.4414 -3.2259  0.9204
  528MOL0     H71223   8.908   4.608   1.098 -0.9874 -2.3704 -1.6262
  528MOL0     H71224   8.974   4.604   1.261 -2.8728 -0.6755  0.0011
  528MOL0     H71225   9.172   4.484   1.183  0.1681 -0.5054 -1.1212
  528MOL0     H71226   9.095   4.418   1.038  1.9530  0.8036 -0.3722
  528MOL0     H71227   9.196   4.695   1.081  3.0669  1.0365 -2.7989
  528MOL0     H71228   9.068   4.660   0.955  0.3129  3.0842  0.3636
  528MOL0     H71229   9.255   4.501   0.865 -0.5226  0.7729 -0.7289
  528MOL0     H71230   9.262   4.667   0.856  0.1597 -0.5416 -1.7095
  528MOL0     H71231   9.490   4.776   0.919 -1.5268 -0.1940 -1.1319
  528MOL0     H71232   9.804   4.659   1.103 -0.7041 -3.1046 -0.9553
  528MOL0     H71233   9.779   4.706   0.939  4.1843  0.2372  1.4564
  528MOL0     H71234   9.653   4.909   1.064  0.1465  0.0688  0.1585
  528MOL0     H71235   9.767   4.857   1.196  2.0296  0.1970 -0.2145
  528MOL0     H71236   9.842   4.905   0.909 -1.9787 -0.7894  0.6153
  528MOL0     H71237   9.950   4.856   1.025 -0.7216  0.2757 -2.5756
  528MOL0     H71238   9.914   5.055   1.169  0.5792  1.3363 -0.0927
  528MOL0     H71239   9.811   5.123   1.046  0.0882 -0.4920 -0.5199
  528MOL0     H71240   9.794   5.114   0.813 -1.2790  1.1744  0.2318
  528MOL0     H71241   9.792   5.220   0.625 -0.1496 -0.4377  0.2549
  528MOL0     H71242   9.678   5.285   0.260 -1.1792  0.8893 -0.0444
  528MOL0     H71243   9.589   5.399   0.085 -0.2873 -0.9859  1.5625
  528MOL0     H71244   9.572   5.523  -0.192  3.4541  0.1524 -1.3048
  528MOL0     H71245   9.493   5.540  -0.041 -0.1009 -0.4063  1.0640
  528MOL0     H71246   9.383   5.722  -0.121 -0.0548  0.1825  0.6003
  528MOL0     H71247   9.519   5.795  -0.049 -0.1018 -0.5325 -0.4653
  528MOL0     H71248   9.571   5.731  -0.343 -2.5507 -1.1648 -0.0910
  528MOL0     H71249   9.453   5.852  -0.318  1.9071  2.8096 -0.2913
  528MOL0     H71250   9.728   5.849  -0.214 -0.6201 -1.4172 -0.5071
  528MOL0     H71251   9.607   5.950  -0.137  1.4812 -0.4893  1.2839
  528MOL0     H71252   9.563   6.041  -0.397  0.1109 -2.1857 -0.6483
  528MOL0     H71253   9.714   5.968  -0.433 -0.5380  2.3147 -1.5166
  528MOL0     H71254   9.680   6.154  -0.196 -1.7412 -2.2175 -0.0226
  528MOL0     H71255   9.828   6.098  -0.286  0.7706 -1.0875 -1.6023
  528MOL0     H71256   9.627   6.273  -0.403 -1.0019 -1.9178  0.7880
  528MOL0     H71257   9.763   6.202  -0.484  1.2996  1.3703 -0.8493
  528MOL0     H71258   9.752   6.445  -0.377 -3.4446 -2.6177 -2.3851
  528MOL0     H71259   9.780   6.369  -0.217  2.1509 -0.7427  0.7756
  528MOL0     H71260   9.928   5.658   0.056 -1.4216 -0.6686 -1.8679
  528MOL0     H71261  10.009   5.560   0.273 -2.1727  3.9068 -0.4374
  528MOL0     H71262  10.196   5.361   0.685 -2.1058  2.5674  0.1528
  528MOL0     H71263  10.195   5.248   0.903  0.3165  0.0569  0.1465
  528MOL0     H71264   8.289   4.461   1.109  2.1640  0.1678  1.8206
  528MOL0     H71265   8.037   4.503   1.172 -0.5348  0.1836  1.9530
  528MOL0     H71266   7.754   4.689   1.557  0.4037  0.5701 -0.1610
  528MOL0     H71267   7.529   4.707   1.636  2.3252  0.1149 -0.9161
  528MOL0     H71268   7.302   4.771   1.513 -1.5011 -1.7669 -2.3942
  528MOL0     H71269   7.319   4.713   1.682 -1.9208 -2.0440  1.2714
  528MOL0     H71270   7.071   4.704   1.510  0.6208  3.5074  0.7857
  528MOL0     H71271   7.084   4.774   1.670 -2.2283 -1.8782  2.2515
  528MOL0     H71272   7.166   4.549   1.763 -1.2214 -0.8157  1.1888
  528MOL0     H71273   7.079   4.480   1.617  1.5624  1.7834 -1.5348
  528MOL0     H71274   6.956   4.499   1.845  0.2190 -0.4662 -0.3308
  528MOL0     H71275   6.938   4.673   1.821  1.8856 -1.6208  3.4010
  528MOL0     H71276   6.674   4.506   1.539  2.4466  1.4503 -2.6383
  528MOL0     H71277   7.400   4.377   1.403  1.0136 -0.0694 -3.2011
  528MOL0     H71278   7.608   4.193   1.380 -5.0809  1.8537  0.8697
  528MOL0     H71279   7.573   4.289   1.237 -1.4876  3.3117  0.6772
  528MOL0     H71280   7.741   4.275   1.293 -0.3924 -0.9792 -0.3345
  529MOL0     O71281   5.673   5.859   1.758 -0.1894 -0.0638  0.0881
  529MOL0     C71282   5.641   5.975   1.792  1.0792 -0.1368  0.0114
  529MOL0     O71283   5.700   6.045   1.893  0.0532 -0.1391 -0.4846
  529MOL0     C71284   5.809   5.987   1.948  0.8997  0.3541 -0.6458
  529MOL0     C71285   5.797   5.893   2.052 -0.6238  1.1585 -0.3675
  529MOL0     C71286   5.914   5.850   2.113  0.6922  0.3890  0.6315
  529MOL0     C71287   6.037   5.903   2.079 -0.7490 -0.8330 -0.2741
  529MOL0     O71288   6.149   5.850   2.146  0.4434 -0.1562 -0.1923
  529MOL0     C71289   6.247   5.948   2.192  1.4554  0.4229 -0.2013
  529MOL0     C71290   6.372   5.951   2.100 -0.0473 -0.0495 -1.1028
  529MOL0     C71291   6.472   6.047   2.164 -0.2511 -0.6527  0.4635
  529MOL0     C71292   6.559   6.105   2.043  0.0485  1.0254  0.5206
  529MOL0     C71293   6.668   6.183   2.107  0.0261 -0.1357 -0.4972
  529MOL0     C71294   6.735   6.281   2.009 -0.0713 -0.9120  0.1161
  529MOL0     C71295   6.828   6.380   2.088  1.6150  0.3717 -0.4274
  529MOL0     C71296   6.890   6.477   1.988 -0.1268  0.1875  0.0715
  529MOL0     N71297   6.960   6.404   1.874  0.1570 -0.0792 -0.0599
  529MOL0     C71298   7.086   6.341   1.879 -0.0709 -0.5737 -0.3105
  529MOL0     C71299   7.091   6.272   1.762 -0.1968  0.5004  0.1394
  529MOL0     C71300   7.210   6.187   1.729 -0.6796  0.1681 -0.4052
  529MOL0     C71301   7.339   6.269   1.738 -0.0456  0.5364  0.5212
  529MOL0     C71302   7.362   6.348   1.613 -0.5774  0.6374  0.1896
  529MOL0     C71303   7.472   6.447   1.610  0.4039 -0.0022  0.1621
  529MOL0     O71304   7.583   6.386   1.676 -1.4551  0.1794  0.1478
  529MOL0     C71305   7.703   6.432   1.634  0.0845 -0.1490 -0.4219
  529MOL0     C71306   7.731   6.557   1.573  0.2918  0.7631  0.6238
  529MOL0     C71307   7.861   6.590   1.533 -1.1734  0.1094 -0.6656
  529MOL0     C71308   7.971   6.499   1.567  0.8927 -0.1134 -0.2412
  529MOL0     C71309   8.111   6.530   1.561 -0.4804 -0.3801 -0.2428
  529MOL0     O71310   8.158   6.657   1.538 -0.4857  0.0375  1.0799
  529MOL0     C71311   8.288   6.672   1.494  0.6593 -0.6484  0.6269
  529MOL0     C71312   8.396   6.619   1.553 -0.9581  0.1913  0.4982
  529MOL0     C71313   8.525   6.651   1.502  1.1752  0.4353  0.1983
  529MOL0     C71314   8.542   6.728   1.390 -0.7814  0.6680  0.5160
  529MOL0     O71315   8.665   6.763   1.343 -0.6769  0.2402 -0.2740
  529MOL0     C71316   8.788   6.729   1.418 -0.5520 -0.3882 -0.1126
  529MOL0     C71317   8.913   6.750   1.338  0.4900  0.1762 -0.8689
  529MOL0     C71318   9.038   6.696   1.416 -0.2341  0.1386  0.4181
  529MOL0     C71319   9.164   6.749   1.354  0.6435 -0.5458  0.6492
  529MOL0     C71320   9.283   6.714   1.446 -0.5615  0.3812  0.5631
  529MOL0     C71321   9.409   6.806   1.425 -0.0010  0.0651  0.3726
  529MOL0     C71322   9.517   6.791   1.541 -0.1908  0.5314 -0.3435
  529MOL0     C71323   9.579   6.645   1.533  0.2951 -0.1544  0.3489
  529MOL0    Cl71324   9.692   6.602   1.667  1.1618  0.1820  0.1671
  529MOL0     C71325   8.429   6.762   1.316 -0.3847  1.0415 -0.3045
  529MOL0     C71326   8.300   6.733   1.372  0.0534 -0.8919 -0.4009
  529MOL0     O71327   8.182   6.436   1.582  0.4576 -0.5680 -0.4846
  529MOL0     C71328   7.938   6.369   1.617  0.4002 -1.3936 -1.3032
  529MOL0     C71329   7.808   6.342   1.647  0.5869  0.7594 -0.5190
  529MOL0     N71330   6.970   6.307   1.686  0.2896  0.5319  0.6142
  529MOL0     N71331   6.898   6.395   1.755 -1.1964 -0.8010  0.3973
  529MOL0     C71332   6.043   5.999   1.970  0.1980  0.8414  0.1228
  529MOL0     C71333   5.931   6.043   1.902 -0.5977  0.3569  0.7281
  529MOL0     C71334   5.512   6.024   1.745 -0.2665 -0.0126 -0.6991
  529MOL0     C71335   5.444   6.131   1.811  0.9434  0.6503  0.4313
  529MOL0     C71336   5.333   6.190   1.765 -0.6944  0.8493 -0.9752
  529MOL0     C71337   5.276   6.140   1.646 -0.0139 -0.4206  1.4600
  529MOL0     O71338   5.153   6.174   1.592  0.4698 -0.5781 -0.3432
  529MOL0     C71339   5.069   6.262   1.671  0.7802  0.5377 -0.1140
  529MOL0     C71340   4.930   6.266   1.615  0.0973  0.6610  0.0244
  529MOL0     C71341   4.916   6.267   1.457 -0.2027  0.2451  0.7661
  529MOL0     C71342   4.769   6.259   1.414  0.6599  0.1142 -0.5223
  529MOL0     C71343   4.689   6.387   1.401  0.2008 -0.9444 -0.1281
  529MOL0     C71344   4.626   6.488   1.379 -1.3571 -0.5905 -0.5523
  529MOL0     C71345   5.331   6.028   1.578  0.8299 -0.2268 -1.9061
  529MOL0     C71346   5.450   5.972   1.625 -0.0706  0.1076  0.0548
  529MOL0     C71347   5.502   5.849   1.543 -0.4701  0.0241  0.1822
  529MOL0     H71348   5.698   5.852   2.070  0.0938 -0.8315 -0.6449
  529MOL0     H71349   5.921   5.761   2.176 -2.7805 -1.5662 -1.4348
  529MOL0     H71350   6.202   6.047   2.203  0.0910 -0.0518 -1.3145
  529MOL0     H71351   6.273   5.921   2.295 -1.0355  0.6107  0.5276
  529MOL0     H71352   6.344   5.990   2.002  2.3680  1.2731 -1.3499
  529MOL0     H71353   6.418   5.852   2.098  0.2298  0.0178 -4.3310
  529MOL0     H71354   6.535   5.984   2.228 -0.8721 -2.0888 -0.2815
  529MOL0     H71355   6.432   6.135   2.216 -1.0540 -0.1116 -1.0098
  529MOL0     H71356   6.609   6.031   1.980  2.4135  2.8668  0.1160
  529MOL0     H71357   6.499   6.166   1.975  1.8232 -1.0423 -3.2548
  529MOL0     H71358   6.637   6.235   2.198 -0.0577 -1.4567  0.2636
  529MOL0     H71359   6.755   6.125   2.139  0.7516  0.6307 -1.0406
  529MOL0     H71360   6.776   6.218   1.930  1.9091  0.5303 -0.0875
  529MOL0     H71361   6.654   6.335   1.958  1.5099  1.2916 -0.2004
  529MOL0     H71362   6.909   6.320   2.131 -1.9483 -1.6477  4.3911
  529MOL0     H71363   6.775   6.430   2.169 -0.0993  0.1070 -1.3306
  529MOL0     H71364   6.814   6.547   1.952 -0.0581 -0.1597 -0.7884
  529MOL0     H71365   6.969   6.531   2.040 -1.6437  4.4027 -1.5756
  529MOL0     H71366   7.159   6.342   1.960  0.3315  0.9230 -0.6482
  529MOL0     H71367   7.206   6.109   1.805 -1.1434 -0.1335 -0.7327
  529MOL0     H71368   7.201   6.153   1.625 -0.7781  1.2520 -0.7716
  529MOL0     H71369   7.340   6.344   1.818 -0.9207  2.7589 -1.4216
  529MOL0     H71370   7.421   6.197   1.741 -1.4054 -1.2253 -1.6121
  529MOL0     H71371   7.273   6.405   1.584  1.3906  4.4332  0.8204
  529MOL0     H71372   7.379   6.284   1.526  0.0801  0.7419  0.2326
  529MOL0     H71373   7.438   6.536   1.664 -1.6936 -1.3068  1.1241
  529MOL0     H71374   7.491   6.477   1.507  4.7225 -2.2078  0.1199
  529MOL0     H71375   7.650   6.625   1.552  1.1249  2.4738  2.7085
  529MOL0     H71376   7.877   6.684   1.481 -1.7055  1.0991  0.9082
  529MOL0     H71377   8.382   6.559   1.642  2.4681 -1.2189  0.2459
  529MOL0     H71378   8.600   6.591   1.553 -1.9848 -2.0156  2.3533
  529MOL0     H71379   8.808   6.788   1.508  5.2871 -1.3774 -0.3823
  529MOL0     H71380   8.786   6.623   1.444  0.8458 -0.4014 -0.0044
  529MOL0     H71381   8.899   6.708   1.238 -0.1220 -1.1774 -0.2433
  529MOL0     H71382   8.922   6.858   1.321 -0.6230 -0.0322 -3.0651
  529MOL0     H71383   9.030   6.730   1.519 -3.7451  0.4782  0.1657
  529MOL0     H71384   9.042   6.587   1.427 -2.3457 -0.3346 -2.2648
  529MOL0     H71385   9.157   6.856   1.334  1.7562 -0.9511 -2.6689
  529MOL0     H71386   9.178   6.700   1.257  0.2993 -1.8256  1.2167
  529MOL0     H71387   9.302   6.607   1.434 -1.6395 -0.2001  3.1882
  529MOL0     H71388   9.253   6.723   1.552 -1.0782 -1.9348  0.6615
  529MOL0     H71389   9.465   6.774   1.337  0.3981  0.1474  0.5932
  529MOL0     H71390   9.385   6.911   1.410  1.5145  0.1472 -2.0649
  529MOL0     H71391   9.470   6.811   1.638 -1.8854 -1.0920 -0.7728
  529MOL0     H71392   9.600   6.862   1.536 -0.4220  0.8260 -0.0322
  529MOL0     H71393   9.496   6.574   1.539 -1.4585  1.4499 -2.7033
  529MOL0     H71394   9.640   6.630   1.443 -0.0548 -1.2552  0.2832
  529MOL0     H71395   8.436   6.804   1.216 -1.3365 -2.9031 -2.2245
  529MOL0     H71396   8.209   6.754   1.318  0.0850 -0.1821 -0.1819
  529MOL0     H71397   8.009   6.291   1.642 -2.7860 -3.7982  1.0358
  529MOL0     H71398   7.783   6.246   1.691 -0.3485  2.3939  2.8945
  529MOL0     H71399   6.146   6.020   1.944  0.7433 -2.7213 -1.1563
  529MOL0     H71400   5.941   6.115   1.822 -2.0173 -0.3201 -0.1062
  529MOL0     H71401   5.493   6.158   1.903  2.1591  2.5235 -0.6889
  529MOL0     H71402   5.289   6.269   1.826 -0.4202  1.3934 -1.4673
  529MOL0     H71403   5.110   6.364   1.670  1.1003  0.4798 -3.1003
  529MOL0     H71404   5.050   6.220   1.770  1.1007  0.0553 -0.2568
  529MOL0     H71405   4.893   6.359   1.659  0.7323  0.8100  0.2462
  529MOL0     H71406   4.875   6.182   1.659  0.4397 -0.6583 -1.9545
  529MOL0     H71407   4.967   6.172   1.438  0.2879  0.5130  0.7313
  529MOL0     H71408   4.959   6.359   1.415  0.0773 -0.0260  0.4492
  529MOL0     H71409   4.746   6.209   1.320 -3.0765 -1.0518  0.8584
  529MOL0     H71410   4.722   6.195   1.490 -0.2449  0.7526 -0.5334
  529MOL0     H71411   4.569   6.575   1.355 -1.5918 -0.6975 -0.3893
  529MOL0     H71412   5.296   5.983   1.486  0.3999 -0.7104 -1.5126
  529MOL0     H71413   5.605   5.871   1.510  0.2217 -2.9267  0.1257
  529MOL0     H71414   5.507   5.767   1.614 -2.1359  0.6725  1.0908
  529MOL0     H71415   5.426   5.820   1.470 -2.4346  0.8680  1.8111
  530MOL0     O71416   6.905   7.081   1.610 -0.2026 -0.6712 -0.3757
  530MOL0     C71417   6.952   7.069   1.721 -0.2744 -0.8385 -1.2933
  530MOL0     O71418   6.904   6.983   1.814 -0.1655 -0.3710 -1.0404
  530MOL0     C71419   6.809   6.890   1.785  0.3660 -0.5927  0.6727
  530MOL0     C71420   6.844   6.773   1.721  0.5117 -0.4976 -0.3159
  530MOL0     C71421   6.746   6.671   1.716 -0.4196  0.3602  0.9462
  530MOL0     C71422   6.616   6.691   1.758  0.0803 -0.4138 -0.0242
  530MOL0     O71423   6.510   6.602   1.754 -0.0688  0.4393 -0.3119
  530MOL0     C71424   6.525   6.466   1.718 -0.2902  0.3506 -1.3269
  530MOL0     C71425   6.391   6.392   1.737 -0.2107 -1.2053  0.9366
  530MOL0     C71426   6.277   6.433   1.634 -0.1176 -0.0045 -0.1788
  530MOL0     C71427   6.141   6.420   1.694  0.3665 -0.7717  0.0667
  530MOL0     C71428   6.022   6.452   1.595 -0.1860 -0.3900 -0.3611
  530MOL0     C71429   5.895   6.431   1.676  0.4359  0.2597  0.1070
  530MOL0     C71430   5.771   6.465   1.588 -0.2743 -0.0716  0.0697
  530MOL0     C71431   5.646   6.418   1.654  0.1858  0.3023 -0.1093
  530MOL0     N71432   5.626   6.471   1.789 -0.3944  0.5616 -0.2953
  530MOL0     C71433   5.599   6.608   1.804  0.5458  0.6605  0.2050
  530MOL0     C71434   5.585   6.624   1.937  0.0077  0.1013 -0.1420
  530MOL0     C71435   5.573   6.758   2.001  0.1917 -0.0352 -0.2883
  530MOL0     C71436   5.710   6.828   2.008 -0.5127 -0.3253  0.0697
  530MOL0     C71437   5.805   6.760   2.108  1.5513 -0.0605  0.6781
  530MOL0     C71438   5.947   6.816   2.102  0.4113  0.2988 -0.2795
  530MOL0     O71439   5.951   6.955   2.099  0.0133  0.7165  0.5502
  530MOL0     C71440   6.066   7.023   2.066 -0.2939 -0.4645  0.3476
  530MOL0     C71441   6.048   7.143   1.990 -0.0332  0.0078  0.9965
  530MOL0     C71442   6.166   7.213   1.948  0.3720 -0.3827  0.1442
  530MOL0     C71443   6.294   7.164   1.980  0.0638  0.4907  0.5646
  530MOL0     C71444   6.409   7.240   1.939 -0.3315  0.4640  0.5265
  530MOL0     O71445   6.402   7.333   1.842 -0.1315  0.1288  0.1562
  530MOL0     C71446   6.515   7.401   1.800  1.0008  0.2784 -1.0170
  530MOL0     C71447   6.498   7.532   1.785  0.6910  0.7778 -0.4754
  530MOL0     C71448   6.604   7.618   1.757 -1.4584 -0.6163  0.7022
  530MOL0     C71449   6.723   7.574   1.714  0.3868  0.8966 -0.1931
  530MOL0     O71450   6.817   7.666   1.677 -0.2275  0.3427  0.0462
  530MOL0     C71451   6.949   7.628   1.634 -0.4233  0.5563 -0.4117
  530MOL0     C71452   7.035   7.749   1.593 -0.1580  0.8452 -0.2402
  530MOL0     C71453   7.180   7.717   1.547 -0.0348  0.1298 -0.1104
  530MOL0     C71454   7.277   7.831   1.542  0.4990 -0.0884  0.1926
  530MOL0     C71455   7.357   7.856   1.668 -0.2593 -0.6594 -0.1250
  530MOL0     C71456   7.435   7.995   1.651 -0.5521  0.2726 -0.2942
  530MOL0     C71457   7.595   7.979   1.622  0.1465  0.4430  0.5398
  530MOL0     C71458   7.676   7.922   1.746 -0.4761 -0.4379  0.7086
  530MOL0    Cl71459   7.604   7.984   1.892 -0.0694  0.2255  0.2517
  530MOL0     C71460   6.746   7.439   1.736 -0.9874  0.5652  0.2681
  530MOL0     C71461   6.645   7.350   1.784  0.0297  0.1296  0.5870
  530MOL0     O71462   6.515   7.210   1.994  0.6425 -0.3879  0.6404
  530MOL0     C71463   6.305   7.038   2.051 -0.0810  0.6221 -0.1723
  530MOL0     C71464   6.196   6.968   2.089  0.6025  1.0751  0.3137
  530MOL0     N71465   5.594   6.502   2.005  0.6975 -0.5693 -0.0262
  530MOL0     N71466   5.630   6.412   1.914  0.1385 -0.8834 -0.1684
  530MOL0     C71467   6.579   6.814   1.814  0.7892 -0.4180 -0.2277
  530MOL0     C71468   6.675   6.907   1.829  0.3201 -0.0429  0.1638
  530MOL0     C71469   7.055   7.165   1.770  0.4608 -0.3968  0.0114
  530MOL0     C71470   7.042   7.190   1.907  0.2850 -0.5698  0.2907
  530MOL0     C71471   7.132   7.286   1.962  0.8410  0.8372  1.2892
  530MOL0     C71472   7.225   7.352   1.884  0.4961  0.1499 -1.1892
  530MOL0     O71473   7.309   7.436   1.951  0.7819 -0.7136  0.0948
  530MOL0     C71474   7.389   7.531   1.877 -0.6190  0.0531  0.3138
  530MOL0     C71475   7.460   7.616   1.980 -0.3989 -0.3176 -0.0315
  530MOL0     C71476   7.368   7.716   2.052  0.4857  0.3600 -0.4639
  530MOL0     C71477   7.441   7.813   2.142  0.5946  0.0926  0.2724
  530MOL0     C71478   7.356   7.881   2.234 -1.0303  0.3987 -0.2905
  530MOL0     C71479   7.271   7.927   2.310  0.5775 -0.1424  0.1793
  530MOL0     C71480   7.233   7.317   1.750 -0.6293  0.2003 -0.3655
  530MOL0     C71481   7.153   7.225   1.690  0.4971 -0.6411 -0.6267
  530MOL0     C71482   7.175   7.184   1.543 -0.5858  0.5821 -1.1179
  530MOL0     H71483   6.950   6.753   1.716  1.0848  1.2161  2.6819
  530MOL0     H71484   6.779   6.575   1.677  1.6840  1.2001  0.5065
  530MOL0     H71485   6.568   6.453   1.618 -0.8766  1.9168 -1.8190
  530MOL0     H71486   6.594   6.418   1.787 -2.3459 -0.7130  0.0868
  530MOL0     H71487   6.356   6.424   1.835 -2.9637 -1.4159  0.0993
  530MOL0     H71488   6.414   6.285   1.743  4.3188 -0.4105  1.7694
  530MOL0     H71489   6.279   6.367   1.547 -1.2878 -1.3931  0.7920
  530MOL0     H71490   6.285   6.536   1.598 -2.0452 -0.4035 -1.9247
  530MOL0     H71491   6.145   6.314   1.719 -0.1377 -1.2078 -1.5638
  530MOL0     H71492   6.133   6.482   1.783  1.6558 -1.9446  1.0463
  530MOL0     H71493   6.023   6.558   1.568  0.7763 -0.1050  0.7064
  530MOL0     H71494   6.023   6.387   1.507  5.9462 -1.1295 -0.1464
  530MOL0     H71495   5.892   6.327   1.711 -1.3547  0.6842  1.3536
  530MOL0     H71496   5.886   6.495   1.764 -3.6393  0.0800  0.0264
  530MOL0     H71497   5.779   6.406   1.496 -0.1200  0.8907 -0.5447
  530MOL0     H71498   5.770   6.574   1.576  1.1247  0.0596  0.9741
  530MOL0     H71499   5.555   6.444   1.598 -0.8698 -1.0480  0.8928
  530MOL0     H71500   5.651   6.309   1.648 -1.2703  0.2795 -1.4207
  530MOL0     H71501   5.578   6.684   1.729  1.2155  0.6178 -0.0362
  530MOL0     H71502   5.495   6.821   1.957 -0.1557  2.0730  2.9913
  530MOL0     H71503   5.547   6.744   2.106 -0.2807  2.1361 -0.0817
  530MOL0     H71504   5.753   6.826   1.908  0.4189  1.8076  0.3653
  530MOL0     H71505   5.697   6.935   2.030 -1.5553 -0.6382  1.1175
  530MOL0     H71506   5.818   6.654   2.086  1.4819  0.0456  0.0965
  530MOL0     H71507   5.756   6.770   2.205 -2.1885  1.2304 -1.1463
  530MOL0     H71508   5.988   6.775   2.009 -1.7186 -1.5572 -0.4748
  530MOL0     H71509   6.008   6.776   2.184 -0.3489 -0.5381 -0.1026
  530MOL0     H71510   5.950   7.183   1.967 -0.6302 -3.2679 -3.6668
  530MOL0     H71511   6.150   7.302   1.889 -0.9155  1.3017  2.8212
  530MOL0     H71512   6.404   7.580   1.810  1.0777  2.4747 -2.0946
  530MOL0     H71513   6.576   7.722   1.748 -2.6430 -1.0086 -0.5389
  530MOL0     H71514   6.996   7.587   1.724 -0.7672 -0.7705 -0.8138
  530MOL0     H71515   6.939   7.541   1.569 -1.6693  0.1625  0.2618
  530MOL0     H71516   6.992   7.788   1.500 -0.3859 -1.9640 -1.4040
  530MOL0     H71517   7.044   7.816   1.679  0.8825 -1.3640  1.4543
  530MOL0     H71518   7.227   7.644   1.614 -0.7000 -0.1923  0.0187
  530MOL0     H71519   7.178   7.674   1.447  6.5425  1.3508 -1.1907
  530MOL0     H71520   7.220   7.924   1.530  0.0043  0.2365  3.9998
  530MOL0     H71521   7.344   7.836   1.455  0.2631 -0.2654 -0.0000
  530MOL0     H71522   7.429   7.785   1.709  1.2025  0.9763  0.2538
  530MOL0     H71523   7.283   7.881   1.745 -1.6508  0.4794 -1.7301
  530MOL0     H71524   7.401   8.054   1.565  1.5900  1.8992 -0.1127
  530MOL0     H71525   7.417   8.066   1.733  1.3220  3.3331 -2.3374
  530MOL0     H71526   7.630   8.080   1.600 -2.9938  2.0413  2.1840
  530MOL0     H71527   7.617   7.921   1.532  0.6925  0.4655  0.6579
  530MOL0     H71528   7.665   7.814   1.745 -1.4025 -0.3884  2.1518
  530MOL0     H71529   7.779   7.955   1.727 -1.2270  0.5224 -2.1611
  530MOL0     H71530   6.844   7.399   1.713 -1.0729  1.4011 -1.7503
  530MOL0     H71531   6.674   7.246   1.787 -0.0157 -0.0270 -1.9920
  530MOL0     H71532   6.406   7.004   2.071 -0.6325 -3.2199 -2.7178
  530MOL0     H71533   6.210   6.873   2.140  0.7593  1.8003  1.6747
  530MOL0     H71534   6.475   6.831   1.843 -0.1841 -0.5902 -3.3134
  530MOL0     H71535   6.638   6.997   1.879  2.2541  0.7868  0.2021
  530MOL0     H71536   6.964   7.155   1.975 -0.9679 -0.1070 -0.8702
  530MOL0     H71537   7.127   7.304   2.069 -0.0913 -1.3949  1.6626
  530MOL0     H71538   7.325   7.591   1.811 -0.3754 -0.0626 -0.0329
  530MOL0     H71539   7.463   7.477   1.816 -0.7035  0.5797 -0.2661
  530MOL0     H71540   7.539   7.682   1.941  0.9797 -0.7824  1.8164
  530MOL0     H71541   7.495   7.545   2.056 -2.5397 -1.4954 -0.0878
  530MOL0     H71542   7.301   7.657   2.116 -0.4467  2.5465  0.6664
  530MOL0     H71543   7.310   7.765   1.972  1.5434 -1.3735 -2.3982
  530MOL0     H71544   7.514   7.765   2.206 -0.1041  0.7441  1.5948
  530MOL0     H71545   7.498   7.889   2.086  2.2066 -0.6736  0.8275
  530MOL0     H71546   7.192   7.966   2.371  0.5631 -1.6297  1.1703
  530MOL0     H71547   7.313   7.361   1.693  0.6134 -0.7223  0.6041
  530MOL0     H71548   7.203   7.080   1.528 -0.9012  0.3692 -0.2908
  530MOL0     H71549   7.082   7.208   1.489 -3.7116 -4.5391  1.1817
  530MOL0     H71550   7.257   7.247   1.508 -0.8151  2.0821  0.8914
  531MOL0     O71551   9.206   7.502   9.691 -0.4778 -0.3390  0.7038
  531MOL0     C71552   9.089   7.471   9.696 -0.2490  0.7916 -1.1041
  531MOL0     O71553   9.030   7.354   9.636  0.0339 -0.1364 -0.2316
  531MOL0     C71554   9.114   7.286   9.550  1.0052 -0.5130  0.5558
  531MOL0     C71555   9.218   7.202   9.602 -0.2174 -1.6199 -0.2354
  531MOL0     C71556   9.297   7.127   9.515  0.0363  0.7655  0.4093
  531MOL0     C71557   9.277   7.140   9.379  0.1587 -0.8709 -0.1444
  531MOL0     O71558   9.357   7.069   9.300 -0.3074 -0.6219  0.0641
  531MOL0     C71559   9.308   7.027   9.175  0.0007  0.5772  0.6842
  531MOL0     C71560   9.375   7.107   9.052 -0.2684 -0.3282  0.5960
  531MOL0     C71561   9.526   7.085   9.033  0.2667 -0.2826  0.2643
  531MOL0     C71562   9.562   7.153   8.898 -0.1318 -0.8337  0.1303
  531MOL0     C71563   9.712   7.163   8.877  0.9837 -0.3278 -1.4089
  531MOL0     C71564   9.778   7.272   8.972 -0.7311  0.6575 -0.8928
  531MOL0     C71565   9.926   7.285   8.920 -0.5851 -0.9123  0.1382
  531MOL0     C71566   9.993   7.397   8.997  0.0183 -0.5796 -0.1872
  531MOL0     N71567   9.969   7.532   8.934  0.4266  0.7843  0.4266
  531MOL0     C71568   9.859   7.611   8.947 -0.3872 -0.1925  0.5236
  531MOL0     C71569   9.882   7.720   8.865 -0.1008  0.9295 -0.0986
  531MOL0     C71570   9.795   7.843   8.835  0.1653  0.0138  0.4139
  531MOL0     C71571   9.804   7.957   8.929 -0.2957 -0.0646 -0.2911
  531MOL0     C71572   9.692   8.070   8.910  0.0003 -0.2889  1.7277
  531MOL0     C71573   9.708   8.132   8.764  0.3065  0.6686 -0.1342
  531MOL0     O71574   9.628   8.246   8.763  0.5197  0.2043 -0.9686
  531MOL0     C71575   9.672   8.366   8.808 -0.3146 -0.1310 -0.1768
  531MOL0     C71576   9.578   8.467   8.811 -0.6824  0.5213 -0.4408
  531MOL0     C71577   9.607   8.598   8.825  0.1403 -0.5022 -0.2349
  531MOL0     C71578   9.745   8.629   8.855 -0.3434 -0.4533 -0.3211
  531MOL0     C71579   9.797   8.770   8.866 -1.0678  0.7014  0.0738
  531MOL0     O71580   9.929   8.788   8.902 -0.1427 -0.0517  0.0305
  531MOL0     C71581   9.982   8.917   8.909 -0.6471 -0.7961 -0.9033
  531MOL0     C71582   9.985   8.997   8.798  0.4899 -0.2808 -0.2802
  531MOL0     C71583  10.037   9.130   8.795  1.2630 -0.0859 -0.7409
  531MOL0     C71584  10.066   9.189   8.918  0.4244 -0.0215 -0.4192
  531MOL0     O71585  10.101   9.322   8.908  0.0841 -0.3338  0.7552
  531MOL0     C71586  10.184   9.383   9.006  0.1278 -0.4443  0.1210
  531MOL0     C71587  10.327   9.368   8.939  0.3396 -0.0386 -0.3329
  531MOL0     C71588  10.381   9.223   8.893 -0.2548  0.3215  0.3163
  531MOL0     C71589  10.523   9.233   8.847 -0.5371  0.5118 -0.4179
  531MOL0     C71590  10.589   9.102   8.799 -0.4528 -0.2290 -0.1647
  531MOL0     C71591  10.509   9.040   8.686 -0.1127 -0.1878 -0.1763
  531MOL0     C71592  10.529   9.100   8.545  0.3775 -0.0456 -0.0344
  531MOL0     C71593  10.416   9.047   8.459  0.2197  0.2033  0.5302
  531MOL0    Cl71594  10.246   9.100   8.503 -0.0334  0.1699  0.4741
  531MOL0     C71595  10.076   9.107   9.033 -1.3322  0.7608  0.4528
  531MOL0     C71596  10.029   8.974   9.025 -0.3864  0.6655 -0.8155
  531MOL0     O71597   9.721   8.857   8.855  0.6053  0.8998 -0.7544
  531MOL0     C71598   9.843   8.524   8.856 -0.5874 -0.8593  0.3818
  531MOL0     C71599   9.808   8.390   8.849  0.1427  0.1027  0.4644
  531MOL0     N71600  10.007   7.699   8.808  0.4231  0.6384  0.9268
  531MOL0     N71601  10.055   7.584   8.846 -0.7377 -0.1990  0.1621
  531MOL0     C71602   9.184   7.226   9.331 -0.4593 -0.2447  0.0026
  531MOL0     C71603   9.099   7.302   9.408  0.2467 -0.4066 -0.7413
  531MOL0     C71604   9.010   7.559   9.777  0.0354 -0.3516 -0.2930
  531MOL0     C71605   9.006   7.692   9.734 -0.5212 -0.2453 -0.1130
  531MOL0     C71606   8.916   7.783   9.810 -0.9168 -0.2572 -0.2175
  531MOL0     C71607   8.842   7.737   9.923  0.2788 -0.9664 -0.7217
  531MOL0     O71608   8.765   7.832   9.987  0.0173 -0.0347  0.5469
  531MOL0     C71609   8.670   7.782  10.079  0.1945  0.4233  0.0671
  531MOL0     C71610   8.555   7.733   9.997 -0.4457  1.0564 -0.5589
  531MOL0     C71611   8.439   7.674  10.081  0.2378  0.2629  0.4240
  531MOL0     C71612   8.376   7.772  10.174 -0.0955 -0.2704  0.0877
  531MOL0     C71613   8.283   7.707  10.266 -0.3176  0.5906  0.2216
  531MOL0     C71614   8.220   7.642  10.340 -0.4174  0.7430 -0.4265
  531MOL0     C71615   8.849   7.602   9.952 -0.6300 -0.2201 -0.2974
  531MOL0     C71616   8.932   7.516   9.887  0.4478 -0.2286  0.0160
  531MOL0     C71617   8.946   7.376   9.937 -0.6964 -0.9597 -1.1358
  531MOL0     H71618   9.232   7.203   9.709 -2.2094  2.4331  0.1999
  531MOL0     H71619   9.379   7.065   9.551 -1.1146 -2.3992 -1.9819
  531MOL0     H71620   9.312   6.918   9.161  1.5251  0.5857  0.8339
  531MOL0     H71621   9.199   7.029   9.185  0.1334 -1.0680  4.0977
  531MOL0     H71622   9.359   7.215   9.060  2.7439  0.2832 -0.2643
  531MOL0     H71623   9.324   7.058   8.969  2.4275 -3.3863  0.5414
  531MOL0     H71624   9.550   6.978   9.033  3.1320  0.2755 -0.1212
  531MOL0     H71625   9.586   7.120   9.118  0.5534  1.2713 -0.5640
  531MOL0     H71626   9.517   7.094   8.818 -0.9666 -2.8522  1.9649
  531MOL0     H71627   9.517   7.253   8.905 -0.2721 -0.9274  0.5998
  531MOL0     H71628   9.765   7.067   8.871  0.6957 -0.5123 -1.0706
  531MOL0     H71629   9.719   7.206   8.777 -2.4783  1.4716 -1.0178
  531MOL0     H71630   9.722   7.366   8.976 -0.5327  0.7568 -0.2660
  531MOL0     H71631   9.790   7.237   9.075 -0.3112 -0.1192 -1.1990
  531MOL0     H71632   9.931   7.308   8.813  0.1021  2.6899  0.8206
  531MOL0     H71633   9.970   7.185   8.926 -1.6968 -1.4070  0.4034
  531MOL0     H71634   9.951   7.393   9.099 -2.3797 -1.6859 -1.1451
  531MOL0     H71635  10.101   7.394   9.013 -0.1096  1.5871  1.7226
  531MOL0     H71636   9.776   7.596   9.014 -1.4158 -2.6149 -1.1439
  531MOL0     H71637   9.820   7.868   8.732 -2.1056  0.8648 -0.0018
  531MOL0     H71638   9.692   7.807   8.835  0.8623 -2.4266  3.4794
  531MOL0     H71639   9.788   7.920   9.031  0.9578  0.4900  0.1161
  531MOL0     H71640   9.900   8.007   8.917 -2.1098  3.5792 -0.7662
  531MOL0     H71641   9.708   8.154   8.979  1.9006  1.1092 -0.2959
  531MOL0     H71642   9.592   8.028   8.906  0.1299 -0.4933 -0.1097
  531MOL0     H71643   9.680   8.053   8.693  5.1056 -3.9321  2.4480
  531MOL0     H71644   9.811   8.154   8.733  0.4267 -1.6008 -1.6063
  531MOL0     H71645   9.481   8.433   8.777  0.4128  0.0768 -3.4117
  531MOL0     H71646   9.532   8.676   8.815  0.0389 -0.7756 -1.8425
  531MOL0     H71647   9.955   8.962   8.699  1.6986 -0.2079 -0.6861
  531MOL0     H71648  10.047   9.195   8.709  2.2140  2.2490  1.0366
  531MOL0     H71649  10.172   9.490   9.023  0.0967 -0.7672  2.6512
  531MOL0     H71650  10.176   9.350   9.110 -0.2587 -2.8838 -0.6116
  531MOL0     H71651  10.349   9.439   8.858  1.9825  0.7191  0.7249
  531MOL0     H71652  10.390   9.411   9.017 -3.2747  4.6431  0.4797
  531MOL0     H71653  10.373   9.148   8.972 -1.5337 -0.8002 -0.8251
  531MOL0     H71654  10.331   9.185   8.804  2.1496 -0.3827 -0.8069
  531MOL0     H71655  10.582   9.265   8.933 -1.1027 -1.3098  0.7010
  531MOL0     H71656  10.544   9.310   8.772 -1.0061 -2.0899 -3.4205
  531MOL0     H71657  10.587   9.023   8.876  1.3036  0.3065  0.4813
  531MOL0     H71658  10.696   9.103   8.779 -0.1045 -2.6699  1.1376
  531MOL0     H71659  10.539   8.935   8.692  2.1344  0.4760  1.0561
  531MOL0     H71660  10.403   9.038   8.712 -0.0131  2.8300  0.7837
  531MOL0     H71661  10.630   9.071   8.512 -0.3363 -1.6242 -0.9793
  531MOL0     H71662  10.530   9.209   8.545 -1.4647  0.0037 -0.0119
  531MOL0     H71663  10.434   9.092   8.360  3.1073  0.1755  0.9739
  531MOL0     H71664  10.409   8.939   8.448 -1.7203 -0.0222  3.1178
  531MOL0     H71665  10.134   9.139   9.119  3.5624 -1.0851 -1.7814
  531MOL0     H71666  10.027   8.909   9.112 -0.1246  0.0172 -1.2923
  531MOL0     H71667   9.949   8.549   8.861  0.2978 -3.6773 -1.7575
  531MOL0     H71668   9.882   8.311   8.846  1.1194  0.9836 -3.2605
  531MOL0     H71669   9.162   7.255   9.229 -0.9542  0.8052  0.3874
  531MOL0     H71670   9.020   7.359   9.360  0.1035 -0.0862 -0.1357
  531MOL0     H71671   9.067   7.732   9.654 -2.0256  4.6587  0.8499
  531MOL0     H71672   8.894   7.888   9.793 -0.4163  0.0430  0.8793
  531MOL0     H71673   8.641   7.866  10.142  2.4495  2.3116 -1.2606
  531MOL0     H71674   8.704   7.713  10.157 -0.8336  0.1572  0.3006
  531MOL0     H71675   8.578   7.655   9.924  0.3499  1.1330 -0.3971
  531MOL0     H71676   8.520   7.825   9.948 -0.5425  2.5067  2.0469
  531MOL0     H71677   8.478   7.592  10.143 -0.4045  0.0835  0.6046
  531MOL0     H71678   8.366   7.639  10.007  0.7456  1.8962 -0.9202
  531MOL0     H71679   8.442   7.833  10.237 -1.1908  0.7075  0.3151
  531MOL0     H71680   8.309   7.838  10.118 -2.6882 -1.8939  1.1005
  531MOL0     H71681   8.155   7.589  10.406  1.6385  1.8317  2.7349
  531MOL0     H71682   8.802   7.566  10.043  0.7560 -0.4998  0.3485
  531MOL0     H71683   8.855   7.344   9.990 -0.0491 -1.7769 -0.4946
  531MOL0     H71684   8.955   7.301   9.857 -0.4157  0.2796 -2.2968
  531MOL0     H71685   9.027   7.364  10.009 -2.2863 -3.4291  0.4023
  532MOL0     O71686  10.584   8.425   2.878 -0.5165 -0.9609  0.5789
  532MOL0     C71687  10.518   8.470   2.783 -0.0080  0.3311 -0.6137
  532MOL0     O71688  10.575   8.549   2.692  0.2093  0.6412  0.0036
  532MOL0     C71689  10.708   8.531   2.674 -0.0623 -0.5037  0.7188
  532MOL0     C71690  10.756   8.433   2.583 -0.4600 -0.0760 -0.0100
  532MOL0     C71691  10.896   8.420   2.565  0.4598  0.4522 -0.5833
  532MOL0     C71692  10.986   8.507   2.625 -1.1441 -0.4178 -0.1658
  532MOL0     O71693  11.120   8.500   2.610 -0.7658  0.2284 -0.4371
  532MOL0     C71694  11.181   8.385   2.543  0.1801 -0.6496  1.0326
  532MOL0     C71695  11.325   8.383   2.561  0.2738 -0.3423 -0.5531
  532MOL0     C71696  11.400   8.262   2.525 -0.3011 -0.2240  0.0488
  532MOL0     C71697  11.525   8.241   2.602 -0.9055  0.2784 -0.0290
  532MOL0     C71698  11.583   8.108   2.552 -0.3576  0.5660 -0.5346
  532MOL0     C71699  11.741   8.122   2.563 -0.1132 -0.6481 -0.5181
  532MOL0     C71700  11.788   8.138   2.708 -0.1648  0.0277 -0.2698
  532MOL0     C71701  11.938   8.164   2.717 -0.4183  0.4150 -0.1624
  532MOL0     N71702  11.976   8.160   2.858  0.3724 -0.9389  0.2029
  532MOL0     C71703  11.953   8.259   2.945  0.6954 -0.0173  0.0723
  532MOL0     C71704  11.983   8.205   3.067 -0.3063 -0.4824  0.5763
  532MOL0     C71705  11.970   8.287   3.196  0.1480  0.3981  0.0069
  532MOL0     C71706  11.881   8.211   3.302 -0.6176  0.0025  0.9192
  532MOL0     C71707  11.737   8.178   3.253  0.3673 -0.0829  0.6968
  532MOL0     C71708  11.658   8.105   3.363  0.4726  0.2221  0.7368
  532MOL0     O71709  11.564   8.022   3.296 -0.1713  0.0395  0.5616
  532MOL0     C71710  11.450   7.990   3.370 -0.1292  0.1444  1.1408
  532MOL0     C71711  11.440   7.974   3.510 -0.0432 -0.1031  0.0420
  532MOL0     C71712  11.320   7.944   3.570  0.1843 -0.1557  0.8649
  532MOL0     C71713  11.199   7.939   3.492 -0.9342  0.2487 -0.1106
  532MOL0     C71714  11.075   7.908   3.573  1.0644  0.3464  1.0111
  532MOL0     O71715  11.077   7.909   3.712  0.1107 -0.2932  0.1870
  532MOL0     C71716  10.961   7.922   3.776  0.1817 -0.0262  1.0532
  532MOL0     C71717  10.909   8.046   3.821  1.4231 -0.0078 -0.4973
  532MOL0     C71718  10.791   8.053   3.894  0.4355  0.3152  0.1308
  532MOL0     C71719  10.720   7.932   3.918 -0.4050  0.4237  0.4344
  532MOL0     O71720  10.616   7.919   4.003 -0.2547  0.8161  0.3503
  532MOL0     C71721  10.495   7.944   3.932 -0.1491  0.0900 -0.6667
  532MOL0     C71722  10.376   7.890   4.023 -0.8765 -1.4101  0.3297
  532MOL0     C71723  10.399   7.746   4.059  0.2314  0.2468  0.0025
  532MOL0     C71724  10.273   7.685   4.118 -0.0952  1.2213  0.7940
  532MOL0     C71725  10.156   7.656   4.020  0.1827  0.6209 -0.0670
  532MOL0     C71726  10.074   7.535   4.045 -0.1271  0.4435 -0.2375
  532MOL0     C71727  10.145   7.406   4.005  1.2850 -0.3908 -0.8759
  532MOL0     C71728  10.046   7.280   4.021 -0.0130 -0.1112 -0.4234
  532MOL0    Cl71729   9.917   7.282   3.897  0.4136  0.1098 -0.1075
  532MOL0     C71730  10.772   7.814   3.868  0.3539 -1.0763  0.5536
  532MOL0     C71731  10.894   7.805   3.798  0.1360  0.3327 -0.6679
  532MOL0     O71732  10.970   7.889   3.500 -0.3383  0.1086  0.0917
  532MOL0     C71733  11.199   7.961   3.357 -1.1248 -1.2823 -0.4986
  532MOL0     C71734  11.331   7.972   3.296  0.5877  0.6746 -0.5364
  532MOL0     N71735  12.027   8.074   3.054 -0.0813  0.7221 -0.5280
  532MOL0     N71736  12.018   8.052   2.929  0.4609  0.2475 -0.1713
  532MOL0     C71737  10.932   8.609   2.711 -0.7391  1.3322 -0.8456
  532MOL0     C71738  10.792   8.628   2.729  0.1262 -0.4966 -0.8236
  532MOL0     C71739  10.373   8.445   2.782 -0.5094  0.0307 -0.4437
  532MOL0     C71740  10.300   8.545   2.713 -0.4272  0.7803 -0.4091
  532MOL0     C71741  10.161   8.542   2.711 -0.8043  0.6768 -0.0241
  532MOL0     C71742  10.089   8.442   2.774 -0.0874 -0.6116  0.5941
  532MOL0     O71743   9.953   8.437   2.782  0.0025 -0.2048 -0.2639
  532MOL0     C71744   9.863   8.522   2.709 -0.7231  0.1760 -0.0926
  532MOL0     C71745   9.802   8.645   2.794  0.2642 -0.3073  0.5304
  532MOL0     C71746   9.709   8.722   2.705  0.0291  0.6774  0.5088
  532MOL0     C71747   9.623   8.816   2.774  0.4928 -0.2050 -0.4269
  532MOL0     C71748   9.522   8.869   2.678  0.1783 -0.7370  0.7150
  532MOL0     C71749   9.448   8.906   2.591  0.9508  0.1282 -0.5217
  532MOL0     C71750  10.158   8.348   2.850  0.4452 -0.3854  0.2349
  532MOL0     C71751  10.299   8.343   2.854  0.7199 -0.0498 -0.5177
  532MOL0     C71752  10.357   8.241   2.941 -0.0820  0.5167 -0.1206
  532MOL0     H71753  10.680   8.372   2.535 -1.7378  1.9529 -0.6974
  532MOL0     H71754  10.928   8.350   2.488 -0.3208 -1.6960  0.9139
  532MOL0     H71755  11.134   8.292   2.578 -2.7059  0.5691  0.6648
  532MOL0     H71756  11.171   8.402   2.436  3.7639  0.8267  0.7857
  532MOL0     H71757  11.329   8.383   2.671  0.4944  1.0138 -0.5431
  532MOL0     H71758  11.374   8.476   2.533 -0.4801  0.2362  0.0263
  532MOL0     H71759  11.429   8.258   2.420  3.1770  2.7129  0.6899
  532MOL0     H71760  11.332   8.181   2.552 -0.7200  0.2930  0.5598
  532MOL0     H71761  11.591   8.328   2.590  0.9669 -1.3003 -1.8783
  532MOL0     H71762  11.513   8.235   2.711  2.0777 -0.5987  0.3292
  532MOL0     H71763  11.539   8.030   2.615  0.4693  0.9248  0.5082
  532MOL0     H71764  11.560   8.086   2.447 -0.2344  0.7648 -0.6030
  532MOL0     H71765  11.784   8.034   2.514  1.5861  0.1084 -0.4785
  532MOL0     H71766  11.783   8.203   2.502  1.6687  0.5746  2.1565
  532MOL0     H71767  11.769   8.040   2.753  0.5316  0.1738  0.3575
  532MOL0     H71768  11.729   8.213   2.761 -1.4845  0.7061 -2.5217
  532MOL0     H71769  11.982   8.095   2.645 -2.3886 -2.1687  0.9508
  532MOL0     H71770  11.953   8.265   2.678  1.0613 -0.1875 -1.2344
  532MOL0     H71771  11.910   8.357   2.928 -2.6154 -1.4765 -0.7406
  532MOL0     H71772  12.070   8.309   3.234  0.4886 -2.4953  1.0910
  532MOL0     H71773  11.929   8.384   3.168  0.7885  0.6474 -0.0680
  532MOL0     H71774  11.929   8.113   3.314 -3.6814 -1.9375 -1.1692
  532MOL0     H71775  11.884   8.266   3.396  1.4607  0.9775  0.3463
  532MOL0     H71776  11.749   8.111   3.167 -0.1782 -4.0222  3.4469
  532MOL0     H71777  11.697   8.278   3.230 -0.1862 -0.4737 -0.0994
  532MOL0     H71778  11.618   8.171   3.441  1.1343  0.3548  0.9778
  532MOL0     H71779  11.720   8.032   3.416  3.1430  1.4414 -0.4527
  532MOL0     H71780  11.533   7.961   3.565 -0.8297 -1.4728  1.1011
  532MOL0     H71781  11.314   7.920   3.675 -1.7962 -1.1517  0.5668
  532MOL0     H71782  10.964   8.133   3.787  2.4802 -1.0914 -1.6496
  532MOL0     H71783  10.743   8.147   3.919 -2.8975 -0.8074 -1.4426
  532MOL0     H71784  10.482   8.048   3.902  0.3039 -0.2968 -2.2973
  532MOL0     H71785  10.498   7.884   3.840  0.2447 -2.1129  0.6950
  532MOL0     H71786  10.364   7.938   4.121  1.1263  0.5256 -0.2800
  532MOL0     H71787  10.287   7.917   3.966 -1.2034 -0.4169  1.2787
  532MOL0     H71788  10.429   7.696   3.966  2.3987 -2.1812  1.8723
  532MOL0     H71789  10.483   7.737   4.128  1.8843  4.2014 -1.2270
  532MOL0     H71790  10.237   7.732   4.210 -0.7490  0.4871  0.9166
  532MOL0     H71791  10.309   7.586   4.146  2.2816  1.5202 -0.8795
  532MOL0     H71792  10.186   7.644   3.916 -0.5665  1.6475 -0.4153
  532MOL0     H71793  10.093   7.745   4.028  0.0383  0.7188 -1.9170
  532MOL0     H71794  10.046   7.528   4.151 -1.0520 -1.7800 -0.5566
  532MOL0     H71795   9.979   7.555   3.994  0.5024 -0.0702 -1.6589
  532MOL0     H71796  10.239   7.387   4.058 -0.0736 -2.0107  1.1367
  532MOL0     H71797  10.171   7.411   3.899  0.3532  2.5030 -1.0604
  532MOL0     H71798  10.115   7.196   4.034  1.4410  1.4915  3.6420
  532MOL0     H71799  10.002   7.287   4.120 -0.8232 -1.5985 -0.6470
  532MOL0     H71800  10.720   7.723   3.897 -1.2606  0.2757  2.1640
  532MOL0     H71801  10.929   7.709   3.761 -0.3219 -0.6438  1.3170
  532MOL0     H71802  11.103   7.960   3.307 -3.8311  2.9393  3.7887
  532MOL0     H71803  11.330   7.977   3.187  0.3952 -3.3842 -0.8836
  532MOL0     H71804  11.003   8.663   2.772 -0.8931 -0.2857  0.8503
  532MOL0     H71805  10.742   8.708   2.783 -1.8097  0.0162 -3.2201
  532MOL0     H71806  10.352   8.628   2.668 -0.8122  1.8117  0.9669
  532MOL0     H71807  10.101   8.620   2.665  0.1012  2.4375  1.6207
  532MOL0     H71808   9.777   8.459   2.682 -0.5430 -0.5626  0.9695
  532MOL0     H71809   9.897   8.555   2.611 -1.4491 -1.3414 -0.9026
  532MOL0     H71810   9.871   8.718   2.837 -2.5003  2.9544 -0.2479
  532MOL0     H71811   9.745   8.598   2.875  0.7123 -1.5204  0.1635
  532MOL0     H71812   9.641   8.650   2.658  1.3623 -0.4162  0.2129
  532MOL0     H71813   9.769   8.773   2.630  0.2628 -1.0815 -0.5388
  532MOL0     H71814   9.586   8.763   2.862  2.9908 -0.9251  0.2530
  532MOL0     H71815   9.675   8.902   2.819  1.3601 -0.7935 -0.2887
  532MOL0     H71816   9.373   8.928   2.517 -0.0986  4.2012  1.4406
  532MOL0     H71817  10.106   8.270   2.905  0.1083  0.9376  1.8705
  532MOL0     H71818  10.448   8.196   2.901  0.8209  2.7687 -0.7454
  532MOL0     H71819  10.381   8.281   3.040  1.5518 -2.6509  0.8963
  532MOL0     H71820  10.284   8.161   2.950  0.0613  0.4855  1.0027
  533MOL0     O71821   8.607   8.894  10.917  0.5007 -0.0967 -0.8593
  533MOL0     C71822   8.538   8.921  11.021  0.5052 -0.1585  1.0568
  533MOL0     O71823   8.586   9.002  11.122 -0.5297  0.0207  0.3112
  533MOL0     C71824   8.716   9.058  11.108 -0.7654  0.5280 -0.4506
  533MOL0     C71825   8.818   9.027  11.206 -1.1270  1.1531  0.0022
  533MOL0     C71826   8.942   9.080  11.197 -0.0942  1.0305  0.2789
  533MOL0     C71827   8.974   9.165  11.099  0.0124 -0.7721  0.2215
  533MOL0     O71828   9.102   9.204  11.104 -0.8830  0.4854 -0.6325
  533MOL0     C71829   9.142   9.327  11.036 -0.2243  0.0084  0.0974
  533MOL0     C71830   9.295   9.341  11.038 -0.1278  0.1766  0.3867
  533MOL0     C71831   9.355   9.249  10.930  0.0206  0.7185 -0.4571
  533MOL0     C71832   9.497   9.215  10.959  0.1108 -0.6316  0.3525
  533MOL0     C71833   9.563   9.159  10.821  0.3496  0.0373 -0.0944
  533MOL0     C71834   9.712   9.123  10.826  0.8406 -0.8119 -0.8979
  533MOL0     C71835   9.801   9.240  10.841  0.3808 -0.3950  0.1484
  533MOL0     C71836   9.948   9.191  10.831  0.7758 -0.4370 -0.5256
  533MOL0     N71837  10.031   9.308  10.872 -0.9202  0.4621  0.7326
  533MOL0     C71838  10.029   9.435  10.827  0.0078  0.4425  0.7361
  533MOL0     C71839  10.121   9.505  10.898  0.8355  0.6856 -0.8698
  533MOL0     C71840  10.157   9.651  10.881 -0.7739  0.4332  0.0310
  533MOL0     C71841  10.218   9.681  10.751  0.5449 -0.1856  0.5249
  533MOL0     C71842  10.359   9.612  10.723  0.0277 -0.1570 -0.8779
  533MOL0     C71843  10.343   9.468  10.662  0.0366 -0.0405 -0.3991
  533MOL0     O71844  10.307   9.476  10.522  0.2354 -0.0929 -0.3491
  533MOL0     C71845  10.201   9.394  10.490 -0.1661  0.1203  0.2389
  533MOL0     C71846  10.205   9.251  10.504 -0.8284  0.4013 -0.9335
  533MOL0     C71847  10.089   9.171  10.476  0.7161  0.3920 -1.5097
  533MOL0     C71848   9.976   9.226  10.429 -0.1059 -0.4963  0.4390
  533MOL0     C71849   9.861   9.139  10.390  0.6391 -0.4055 -0.7105
  533MOL0     O71850   9.759   9.195  10.321  0.4096 -0.0357  0.5166
  533MOL0     C71851   9.653   9.122  10.280 -0.1162 -0.7675  0.0303
  533MOL0     C71852   9.642   9.079  10.145  0.0050 -0.6858 -0.1543
  533MOL0     C71853   9.542   8.993  10.101 -0.2626  0.8447 -0.5710
  533MOL0     C71854   9.445   8.949  10.184  0.6938 -0.0030  0.9719
  533MOL0     O71855   9.335   8.888  10.124  0.3677 -0.1307  0.2598
  533MOL0     C71856   9.209   8.884  10.192 -0.4665  0.8126 -0.2224
  533MOL0     C71857   9.108   8.803  10.106  0.7159  0.4449  1.2013
  533MOL0     C71858   8.983   8.788  10.195 -0.6370  0.4204 -0.2268
  533MOL0     C71859   8.892   8.690  10.126  0.1092  0.9820 -0.5100
  533MOL0     C71860   8.790   8.786  10.055  0.4218  0.1563  0.7473
  533MOL0     C71861   8.669   8.713  10.007  0.1316  0.0651 -0.2314
  533MOL0     C71862   8.565   8.822   9.962  0.3195  0.1849 -0.1693
  533MOL0     C71863   8.415   8.777   9.970 -0.0950  0.4253  0.0171
  533MOL0    Cl71864   8.387   8.628   9.875 -0.0241  0.0513  0.3983
  533MOL0     C71865   9.454   8.983  10.321  0.3858 -0.4680  0.8581
  533MOL0     C71866   9.552   9.074  10.356 -0.2125  0.1554 -0.2268
  533MOL0     O71867   9.870   9.017  10.407  0.5340 -0.0134  0.1090
  533MOL0     C71868   9.980   9.363  10.404  0.3010 -0.4332 -0.7261
  533MOL0     C71869  10.089   9.449  10.436  0.0715  0.0155  0.4532
  533MOL0     N71870  10.192   9.414  10.978 -0.5583 -0.3902 -0.2929
  533MOL0     N71871  10.135   9.304  10.959 -0.0010 -0.6791 -1.3784
  533MOL0     C71872   8.869   9.214  11.009  0.2479 -0.3658 -0.2745
  533MOL0     C71873   8.744   9.154  11.018  0.4802  0.4956 -0.2709
  533MOL0     C71874   8.409   8.850  11.025 -0.1381 -0.7293 -0.1683
  533MOL0     C71875   8.361   8.765  10.921 -0.1384  0.1722  0.3005
  533MOL0     C71876   8.243   8.691  10.931 -1.0050  0.6402 -0.8329
  533MOL0     C71877   8.160   8.721  11.033 -0.2033 -0.7223  0.5757
  533MOL0     O71878   8.040   8.658  11.031 -0.0091  0.2262  0.6279
  533MOL0     C71879   7.930   8.699  11.112  0.4939  0.8834 -0.3088
  533MOL0     C71880   7.805   8.605  11.088 -0.7735 -0.0005 -0.0114
  533MOL0     C71881   7.759   8.563  10.949 -1.0581 -0.7776  0.0554
  533MOL0     C71882   7.633   8.481  10.950  0.4282 -0.5802 -0.5448
  533MOL0     C71883   7.519   8.554  11.001  0.2165 -0.3433  0.6008
  533MOL0     C71884   7.424   8.611  11.054 -0.5202  0.2863 -0.1725
  533MOL0     C71885   8.195   8.809  11.133 -1.6839  0.4990 -0.7209
  533MOL0     C71886   8.326   8.868  11.133  0.3818  0.2189 -0.9203
  533MOL0     C71887   8.346   8.966  11.246  0.2172 -0.2915 -0.6437
  533MOL0     H71888   8.802   8.950  11.281  3.8931  0.4501  0.7516
  533MOL0     H71889   9.012   9.038  11.269 -0.7294 -3.0113 -1.1664
  533MOL0     H71890   9.117   9.322  10.930 -0.2323 -0.3835  0.1160
  533MOL0     H71891   9.091   9.413  11.079 -1.3201  2.6754 -5.6023
  533MOL0     H71892   9.334   9.320  11.138  1.9181  1.5758 -0.0542
  533MOL0     H71893   9.316   9.442  11.001  1.2405  1.0200  3.2098
  533MOL0     H71894   9.348   9.301  10.834 -2.7791  0.7231 -0.3212
  533MOL0     H71895   9.303   9.154  10.913  1.1814 -0.2710  1.2234
  533MOL0     H71896   9.546   9.309  10.988  0.0926 -1.0870  1.9754
  533MOL0     H71897   9.512   9.143  11.041  1.1135  0.1391  0.8665
  533MOL0     H71898   9.514   9.062  10.808  2.3253 -0.9832 -0.3899
  533MOL0     H71899   9.544   9.218  10.731  1.8520  0.5684 -0.0915
  533MOL0     H71900   9.727   9.055  10.910  0.2326  1.6897  1.3411
  533MOL0     H71901   9.752   9.065  10.742  1.7240 -2.0871  0.3530
  533MOL0     H71902   9.776   9.285  10.937  0.0616  0.2296 -0.2161
  533MOL0     H71903   9.779   9.314  10.763 -0.3181  0.6904  1.3423
  533MOL0     H71904   9.980   9.110  10.898  1.8422 -0.2760 -0.8312
  533MOL0     H71905   9.970   9.170  10.726  2.2141 -0.1946 -0.3004
  533MOL0     H71906   9.971   9.481  10.748  0.0628  0.8204  0.9094
  533MOL0     H71907  10.073   9.721  10.885 -0.5510  1.2698 -4.6481
  533MOL0     H71908  10.228   9.685  10.957 -1.5331  1.0481  0.4823
  533MOL0     H71909  10.144   9.653  10.676 -0.6499 -1.1560  2.0179
  533MOL0     H71910  10.228   9.790  10.749 -2.6108  0.1861 -0.2839
  533MOL0     H71911  10.418   9.604  10.815  0.6279  1.8271 -1.0584
  533MOL0     H71912  10.420   9.672  10.655  1.9266  2.4842  2.7755
  533MOL0     H71913  10.275   9.409  10.724 -1.0277  1.0321 -0.5175
  533MOL0     H71914  10.445   9.428  10.668  0.0405  0.1978  2.1158
  533MOL0     H71915  10.291   9.209  10.555 -1.6884 -0.7438 -0.3970
  533MOL0     H71916  10.094   9.063  10.489 -3.4069  0.4139  3.9787
  533MOL0     H71917   9.717   9.110  10.073  0.7546  1.7886  1.5826
  533MOL0     H71918   9.528   8.962   9.997 -0.6265 -1.6696  0.1470
  533MOL0     H71919   9.228   8.834  10.287 -1.5205 -2.9961 -1.8341
  533MOL0     H71920   9.181   8.989  10.210  0.7216  0.7803  2.2245
  533MOL0     H71921   9.089   8.847  10.008  2.1096 -0.1346  0.6448
  533MOL0     H71922   9.146   8.704  10.080 -1.0863 -0.8740  3.2390
  533MOL0     H71923   9.010   8.736  10.288 -2.8277  1.4859  1.0908
  533MOL0     H71924   8.929   8.877  10.228 -2.1665 -1.2273  2.0252
  533MOL0     H71925   8.845   8.625  10.200  2.0224  1.4352  1.1816
  533MOL0     H71926   8.944   8.625  10.055  0.1225 -0.3871  0.7254
  533MOL0     H71927   8.846   8.825   9.969  1.0106  0.5798  1.3108
  533MOL0     H71928   8.753   8.870  10.114 -2.9791 -0.1062 -0.7842
  533MOL0     H71929   8.691   8.636   9.932  0.7068 -0.5743  0.5674
  533MOL0     H71930   8.628   8.666  10.097 -0.6250  0.2934 -0.4560
  533MOL0     H71931   8.595   8.856   9.862 -1.7194 -0.6150 -1.0963
  533MOL0     H71932   8.561   8.906  10.033 -2.5113  0.1021 -0.1159
  533MOL0     H71933   8.399   8.759  10.076 -1.3415 -0.0319 -0.2341
  533MOL0     H71934   8.343   8.854   9.938 -0.2459  1.6659  3.0386
  533MOL0     H71935   9.383   8.955  10.398  0.8657  0.3824  1.6215
  533MOL0     H71936   9.568   9.092  10.461  0.9959 -0.5450 -0.2687
  533MOL0     H71937   9.887   9.406  10.370 -0.1112  0.1754  1.0812
  533MOL0     H71938  10.080   9.556  10.416  2.6544  0.4783  1.4162
  533MOL0     H71939   8.908   9.285  10.937  0.6089 -0.5730 -0.2830
  533MOL0     H71940   8.664   9.188  10.953  0.9956  1.2421 -0.5295
  533MOL0     H71941   8.412   8.754  10.826 -1.1125  0.6865 -0.2920
  533MOL0     H71942   8.224   8.618  10.853  1.4915 -0.2979 -0.6541
  533MOL0     H71943   7.913   8.805  11.094 -0.7891  0.7103 -0.2011
  533MOL0     H71944   7.951   8.690  11.219  1.6502 -2.2957 -0.6987
  533MOL0     H71945   7.723   8.654  11.141  0.3211  0.8390  0.9558
  533MOL0     H71946   7.828   8.515  11.147 -1.1854 -1.4999 -2.0140
  533MOL0     H71947   7.831   8.495  10.904 -1.2005 -1.5440  0.9653
  533MOL0     H71948   7.745   8.659  10.899  1.4679  0.4422  1.5013
  533MOL0     H71949   7.609   8.448  10.849  0.0831  1.5868 -1.2416
  533MOL0     H71950   7.645   8.390  11.010  0.5572  0.0104  0.3554
  533MOL0     H71951   7.331   8.648  11.094  0.5105 -0.6154  3.3910
  533MOL0     H71952   8.131   8.824  11.220  1.1505 -1.9190  2.0691
  533MOL0     H71953   8.426   8.925  11.309 -0.5548 -0.1931  0.4236
  533MOL0     H71954   8.370   9.064  11.203 -1.0475  0.7807  0.9918
  533MOL0     H71955   8.263   8.979  11.315 -1.0009  1.9998 -2.4060
  534MOL0     O71956   6.414   4.020  10.932  0.3555  0.3292 -0.1651
  534MOL0     C71957   6.359   3.930  11.000  0.4562  0.1333  0.2264
  534MOL0     O71958   6.411   3.810  11.035 -0.2226  0.4541  0.2649
  534MOL0     C71959   6.535   3.778  10.996  0.1716 -0.9120  1.2064
  534MOL0     C71960   6.648   3.853  11.044  0.7266 -0.2890  0.5224
  534MOL0     C71961   6.776   3.814  10.995  0.8867 -0.5396  0.6608
  534MOL0     C71962   6.792   3.705  10.912 -0.5388  0.3704 -0.2845
  534MOL0     O71963   6.921   3.657  10.889  0.4850 -0.0301 -0.5956
  534MOL0     C71964   6.932   3.537  10.817  0.3795  0.5781 -0.2305
  534MOL0     C71965   7.080   3.473  10.823 -0.1510  0.7460 -0.7271
  534MOL0     C71966   7.190   3.578  10.779  0.1892 -0.0273  0.2548
  534MOL0     C71967   7.333   3.559  10.842 -0.2618 -0.4970  0.0933
  534MOL0     C71968   7.448   3.604  10.760  0.5592 -0.1912  0.6827
  534MOL0     C71969   7.473   3.753  10.784  0.4812 -1.1326  0.6502
  534MOL0     C71970   7.585   3.798  10.686 -0.0988 -0.4771  0.5954
  534MOL0     C71971   7.723   3.818  10.759  0.4016  0.3247 -0.2436
  534MOL0     N71972   7.813   3.871  10.661 -0.4397  0.8401 -0.1478
  534MOL0     C71973   7.944   3.902  10.695 -0.0234 -0.5033  0.3589
  534MOL0     C71974   8.001   3.955  10.585  0.3306  0.2566  0.4536
  534MOL0     C71975   8.145   4.009  10.576 -0.9048 -1.4700 -0.3060
  534MOL0     C71976   8.269   3.927  10.520  0.5624 -0.0592 -0.2486
  534MOL0     C71977   8.391   4.013  10.518 -0.4520  0.7007 -0.1232
  534MOL0     C71978   8.515   3.921  10.498  0.2028  0.5839  0.1319
  534MOL0     O71979   8.627   4.009  10.494 -0.3481 -0.7014 -0.1601
  534MOL0     C71980   8.744   3.950  10.540  0.0392 -0.2061  1.2313
  534MOL0     C71981   8.769   3.901  10.671  0.0039 -0.0392  0.1361
  534MOL0     C71982   8.886   3.839  10.707 -0.0242 -0.8592 -0.5845
  534MOL0     C71983   8.987   3.814  10.612  1.1001 -0.1440  0.3372
  534MOL0     C71984   9.109   3.736  10.643 -0.0357  0.4124  1.2205
  534MOL0     O71985   9.166   3.664  10.547  0.3221  0.0629 -0.5418
  534MOL0     C71986   9.281   3.591  10.573 -0.4588 -0.4227  0.4388
  534MOL0     C71987   9.397   3.637  10.657 -0.1052  0.3294  0.3271
  534MOL0     C71988   9.504   3.552  10.684 -0.8693 -0.2119 -0.1613
  534MOL0     C71989   9.508   3.428  10.632  0.0748 -0.1086 -0.2425
  534MOL0     O71990   9.618   3.352  10.647 -0.2816 -0.1874  1.0033
  534MOL0     C71991   9.621   3.210  10.639  0.0056 -0.0578  0.6232
  534MOL0     C71992   9.752   3.153  10.698  0.1098 -0.7720 -0.2631
  534MOL0     C71993   9.872   3.194  10.619 -0.4995 -1.2938  0.0935
  534MOL0     C71994   9.862   3.140  10.464  0.3099  0.0257 -0.1348
  534MOL0     C71995   9.995   3.157  10.400 -0.9764  0.3646 -0.7672
  534MOL0     C71996   9.979   3.102  10.258  0.0674  0.1306  0.8696
  534MOL0     C71997  10.108   3.112  10.179 -0.1278  0.1903 -0.1455
  534MOL0     C71998  10.093   3.031  10.040  0.6129  0.1163 -1.3119
  534MOL0    Cl71999  10.229   3.060   9.930 -0.4261 -0.4781 -0.3735
  534MOL0     C72000   9.405   3.385  10.540  0.1866 -0.5060  0.5406
  534MOL0     C72001   9.294   3.469  10.518 -0.4800  0.6681 -0.4523
  534MOL0     O72002   9.136   3.718  10.759 -0.0825 -0.7977 -0.2389
  534MOL0     C72003   8.964   3.867  10.480  0.1489 -1.0851  0.3886
  534MOL0     C72004   8.849   3.935  10.452  0.3135  0.4984  0.0882
  534MOL0     N72005   7.906   3.957  10.485  0.3372 -0.5648  0.2826
  534MOL0     N72006   7.795   3.906  10.528 -0.2673  0.2392 -0.0907
  534MOL0     C72007   6.673   3.639  10.865 -0.1655 -0.1607 -0.0599
  534MOL0     C72008   6.543   3.677  10.902 -0.7548  1.0537 -0.0354
  534MOL0     C72009   6.224   3.971  11.045  1.0061 -0.8133 -0.1537
  534MOL0     C72010   6.193   4.110  11.050  0.3315  0.1348  0.2379
  534MOL0     C72011   6.067   4.154  11.074  0.6312 -0.9010  0.0219
  534MOL0     C72012   5.967   4.065  11.111  0.2683 -0.4415 -0.1595
  534MOL0     O72013   5.834   4.110  11.135 -0.6693  0.8249  0.4541
  534MOL0     C72014   5.782   4.224  11.060  0.8707 -0.5776 -0.5897
  534MOL0     C72015   5.777   4.352  11.153  0.7445 -0.1808  0.1207
  534MOL0     C72016   5.682   4.466  11.108 -0.1974  0.3278  0.6752
  534MOL0     C72017   5.734   4.541  10.983 -0.2587 -0.0490  0.0035
  534MOL0     C72018   5.737   4.467  10.864  0.3021  1.0449  0.6939
  534MOL0     C72019   5.751   4.414  10.757  0.6011 -0.4156 -0.4479
  534MOL0     C72020   6.000   3.929  11.130 -0.6646  0.2045  0.0749
  534MOL0     C72021   6.124   3.877  11.097  0.6562 -0.4726 -0.1969
  534MOL0     C72022   6.147   3.745  11.110 -0.6669 -0.0675 -0.2395
  534MOL0     H72023   6.624   3.929  11.118 -0.9095  1.7338 -1.9515
  534MOL0     H72024   6.855   3.882  11.024 -1.6250  3.2196 -0.4746
  534MOL0     H72025   6.866   3.457  10.853  1.0230  0.2783  0.3282
  534MOL0     H72026   6.904   3.558  10.714 -1.0939 -1.4466 -0.3004
  534MOL0     H72027   7.085   3.377  10.770  2.4574  1.2292 -1.4942
  534MOL0     H72028   7.102   3.454  10.928 -1.0037  3.0728 -0.0781
  534MOL0     H72029   7.154   3.680  10.796  1.9203  0.3019  2.4842
  534MOL0     H72030   7.208   3.556  10.673  1.8843 -4.9212  1.2649
  534MOL0     H72031   7.344   3.602  10.941  0.9449  0.6170 -0.4984
  534MOL0     H72032   7.336   3.449  10.844 -0.7265 -0.5320 -0.6068
  534MOL0     H72033   7.542   3.552  10.781  0.4990  0.3322  2.3144
  534MOL0     H72034   7.421   3.586  10.655  0.0642  2.3994  0.3054
  534MOL0     H72035   7.376   3.801  10.767  0.0918 -1.4375  1.8833
  534MOL0     H72036   7.495   3.765  10.890 -1.5972  2.9443  0.8184
  534MOL0     H72037   7.553   3.889  10.635  0.6645 -0.5809 -0.0863
  534MOL0     H72038   7.603   3.712  10.622  0.1695 -1.2669  1.6956
  534MOL0     H72039   7.722   3.904  10.827 -0.3086  0.8372 -0.8783
  534MOL0     H72040   7.760   3.732  10.814  1.2290  2.1139  2.1576
  534MOL0     H72041   7.995   3.893  10.790  0.9521  1.2332  0.0558
  534MOL0     H72042   8.136   4.086  10.500  1.9954  1.2486  1.8334
  534MOL0     H72043   8.168   4.052  10.674 -0.2577  0.2422 -1.1760
  534MOL0     H72044   8.273   3.850  10.597  1.0502  1.6848  1.5552
  534MOL0     H72045   8.251   3.888  10.420 -0.5955 -1.9683  0.6543
  534MOL0     H72046   8.404   4.074  10.608  0.7901  1.2758 -0.6749
  534MOL0     H72047   8.382   4.084  10.435 -0.9718  1.2258  0.3631
  534MOL0     H72048   8.505   3.867  10.403  1.9050  0.4875 -0.0279
  534MOL0     H72049   8.522   3.850  10.582 -1.2713  0.4065  0.1260
  534MOL0     H72050   8.706   3.927  10.756  0.5865  1.7840  0.0441
  534MOL0     H72051   8.901   3.817  10.812 -1.4920 -2.9885 -0.7511
  534MOL0     H72052   9.389   3.728  10.714 -2.5166 -0.2486  1.0152
  534MOL0     H72053   9.587   3.581  10.748 -1.9880  1.6624  0.5379
  534MOL0     H72054   9.528   3.178  10.686  0.2176 -1.1477  0.3095
  534MOL0     H72055   9.615   3.174  10.536  2.0217 -1.1603  0.8404
  534MOL0     H72056   9.763   3.181  10.803  3.4092 -1.1757 -0.4039
  534MOL0     H72057   9.737   3.045  10.708 -1.1676 -0.4328  2.3058
  534MOL0     H72058   9.877   3.303  10.612  0.5393 -1.2549  1.0989
  534MOL0     H72059   9.955   3.155  10.679 -0.3975 -0.3887  0.5594
  534MOL0     H72060   9.788   3.198  10.410  1.0374  1.3467  0.2450
  534MOL0     H72061   9.845   3.032  10.460  0.4442  0.0423 -1.9585
  534MOL0     H72062  10.070   3.101  10.456 -1.4942  0.5080  0.0943
  534MOL0     H72063  10.024   3.262  10.394 -1.7973  0.8433  2.0490
  534MOL0     H72064   9.958   2.994  10.258  0.0209  0.0692 -1.6517
  534MOL0     H72065   9.890   3.150  10.215 -1.0612 -2.5893 -0.1430
  534MOL0     H72066  10.187   3.059  10.232 -1.0038 -0.8930  0.1171
  534MOL0     H72067  10.140   3.216  10.167  1.4644 -0.0073  1.8792
  534MOL0     H72068  10.076   2.924  10.052  0.4779  0.4363  2.7060
  534MOL0     H72069  10.011   3.076   9.983 -1.4445  0.5888  1.8078
  534MOL0     H72070   9.415   3.295  10.480  3.1411 -1.7111  2.6313
  534MOL0     H72071   9.219   3.425  10.453  0.4947 -1.1835 -0.3895
  534MOL0     H72072   9.040   3.872  10.402  1.1305 -0.9574  1.3270
  534MOL0     H72073   8.837   3.959  10.347 -3.3458  0.8109  0.4630
  534MOL0     H72074   6.674   3.553  10.799  2.4089  1.3817 -2.2552
  534MOL0     H72075   6.470   3.620  10.845 -0.0464 -0.7451  0.8004
  534MOL0     H72076   6.276   4.177  11.032 -0.1528  0.3293 -1.4840
  534MOL0     H72077   6.057   4.262  11.073  1.3819 -0.7915 -2.7776
  534MOL0     H72078   5.679   4.205  11.029 -1.1000  3.0786  2.7695
  534MOL0     H72079   5.838   4.250  10.970  1.5241  2.2277  0.5224
  534MOL0     H72080   5.877   4.396  11.142  1.3710 -2.0493 -2.6038
  534MOL0     H72081   5.742   4.324  11.253 -2.7490 -0.6539 -1.1051
  534MOL0     H72082   5.675   4.536  11.192  0.8331  0.2375  0.8566
  534MOL0     H72083   5.584   4.420  11.092  0.2189  0.1989 -1.8576
  534MOL0     H72084   5.664   4.625  10.975 -0.5159 -0.1219  1.2120
  534MOL0     H72085   5.836   4.579  10.993 -0.9310  2.0721 -0.6428
  534MOL0     H72086   5.755   4.351  10.671 -0.2536  1.5467 -1.9949
  534MOL0     H72087   5.921   3.864  11.167 -1.6944  1.9139  1.0198
  534MOL0     H72088   6.205   3.732  11.202  0.4214  0.9165 -0.7592
  534MOL0     H72089   6.047   3.702  11.117 -1.6006  2.1125  0.5320
  534MOL0     H72090   6.193   3.698  11.022  0.3673 -0.0022  0.2488
  535MOL0     O72091   5.689  10.136   4.189  0.0822 -0.1729 -0.8809
  535MOL0     C72092   5.771  10.198   4.252 -0.1336 -0.8125 -1.3397
  535MOL0     O72093   5.904  10.192   4.237 -0.0187  0.2196 -0.1023
  535MOL0     C72094   5.976  10.098   4.172 -0.5670  0.1202 -0.5064
  535MOL0     C72095   6.116  10.116   4.176  0.1437  0.1016 -0.4752
  535MOL0     C72096   6.190  10.011   4.125 -0.5652  0.0211  0.9053
  535MOL0     C72097   6.131   9.890   4.066  0.3805 -0.8275 -0.0430
  535MOL0     O72098   6.207   9.805   3.994  0.0887  0.3074  0.1018
  535MOL0     C72099   6.149   9.702   3.913  0.8085  0.0913 -0.0016
  535MOL0     C72100   6.251   9.609   3.858 -0.5078  1.1293 -0.2273
  535MOL0     C72101   6.305   9.521   3.978 -0.4184  0.5813 -0.0298
  535MOL0     C72102   6.430   9.446   3.934  0.0437  0.6995  0.3072
  535MOL0     C72103   6.464   9.324   4.011  0.1945  0.0354 -0.5688
  535MOL0     C72104   6.595   9.256   3.953  0.5605 -0.1248 -0.2888
  535MOL0     C72105   6.718   9.349   3.986  0.0692 -0.4164 -1.0429
  535MOL0     C72106   6.850   9.294   3.946 -0.2787  0.7089 -0.3516
  535MOL0     N72107   6.965   9.372   3.952  0.6537 -0.5621  0.3650
  535MOL0     C72108   6.985   9.492   3.892 -0.6240 -0.1384  0.0367
  535MOL0     C72109   7.103   9.540   3.921 -0.0033 -0.4875 -0.1442
  535MOL0     C72110   7.192   9.662   3.870 -0.2056 -1.3621  0.4029
  535MOL0     C72111   7.292   9.622   3.756  0.7527  1.0474 -0.5410
  535MOL0     C72112   7.404   9.526   3.810  0.1207  0.0249  0.2050
  535MOL0     C72113   7.509   9.487   3.701  0.7731  0.7227 -0.7558
  535MOL0     O72114   7.540   9.596   3.614 -0.0729  0.5827  0.3532
  535MOL0     C72115   7.659   9.654   3.639 -0.5566 -0.2954 -0.4484
  535MOL0     C72116   7.719   9.705   3.525  0.7786 -0.4371  0.0817
  535MOL0     C72117   7.842   9.771   3.533  0.4198 -0.4338  0.5184
  535MOL0     C72118   7.896   9.793   3.665 -0.3892 -0.9213 -0.0972
  535MOL0     C72119   8.021   9.861   3.685  0.1155  0.0883 -0.1179
  535MOL0     O72120   8.095   9.822   3.789  0.4068  0.4145 -0.4831
  535MOL0     C72121   8.221   9.875   3.813  0.3908  0.3013 -0.0498
  535MOL0     C72122   8.326   9.847   3.719  0.1522  0.6275 -0.0211
  535MOL0     C72123   8.461   9.881   3.749  0.5993  0.0920  0.2393
  535MOL0     C72124   8.487   9.970   3.855  0.4446 -0.1478 -1.0671
  535MOL0     O72125   8.610  10.023   3.871 -0.5334 -0.7934 -0.8086
  535MOL0     C72126   8.649  10.053   4.008 -0.6183  1.0159  0.1637
  535MOL0     C72127   8.799  10.041   4.013  0.1539 -0.4145  0.0523
  535MOL0     C72128   8.858  10.130   4.120 -0.3013  0.1507  0.1018
  535MOL0     C72129   9.008  10.135   4.105  0.1812 -0.7556  0.0634
  535MOL0     C72130   9.064  10.217   4.225 -0.1501  1.1891  0.1577
  535MOL0     C72131   9.216  10.215   4.250  0.4480 -0.8944  0.4617
  535MOL0     C72132   9.300  10.290   4.152 -0.4089  1.1222 -0.3861
  535MOL0     C72133   9.377  10.200   4.068  0.0977  0.1860  0.3226
  535MOL0    Cl72134   9.405  10.278   3.898  0.0273 -0.2738  0.1687
  535MOL0     C72135   8.376  10.000   3.943 -0.4729 -0.4097 -0.5776
  535MOL0     C72136   8.250   9.950   3.924 -0.5566 -0.2660  0.4591
  535MOL0     O72137   8.053   9.955   3.611  0.0179  0.2531  0.8544
  535MOL0     C72138   7.831   9.746   3.775 -0.2277  0.3571  0.3504
  535MOL0     C72139   7.713   9.676   3.761  0.6371  0.3157  0.3687
  535MOL0     N72140   7.161   9.437   3.989 -0.7385  0.0352 -0.5652
  535MOL0     N72141   7.078   9.338   4.013  0.7025  0.3954 -0.0005
  535MOL0     C72142   5.991   9.883   4.066  0.1247  0.3654 -0.1949
  535MOL0     C72143   5.912   9.984   4.117 -0.5463  0.0039  0.0234
  535MOL0     C72144   5.724  10.313   4.341 -0.0253 -0.8200 -0.6444
  535MOL0     C72145   5.803  10.425   4.351 -0.0176  0.8192  0.3078
  535MOL0     C72146   5.772  10.542   4.431  0.6269  0.1501 -0.2669
  535MOL0     C72147   5.650  10.548   4.498  0.4582  0.9213  0.4119
  535MOL0     O72148   5.604  10.659   4.562  0.5889 -0.4608 -0.2046
  535MOL0     C72149   5.621  10.793   4.499 -0.4623  0.2980  0.2856
  535MOL0     C72150   5.540  10.819   4.364  0.7801  0.0385  0.4186
  535MOL0     C72151   5.389  10.800   4.378  0.3590 -1.0322 -0.8009
  535MOL0     C72152   5.320  10.895   4.478 -0.3892  0.3033 -0.5581
  535MOL0     C72153   5.176  10.905   4.456  0.6577  0.0338 -0.2158
  535MOL0     C72154   5.056  10.897   4.421 -0.3648  0.3440 -0.2532
  535MOL0     C72155   5.565  10.439   4.488  0.1494  0.0306  0.1061
  535MOL0     C72156   5.610  10.316   4.430 -0.8794  0.3803  0.3225
  535MOL0     C72157   5.516  10.198   4.449  0.2913  0.6085 -0.6770
  535MOL0     H72158   6.167  10.202   4.220  0.2096 -1.1989  2.2154
  535MOL0     H72159   6.296  10.008   4.148 -0.8370 -1.7238  2.1714
  535MOL0     H72160   6.077   9.651   3.978 -0.1735  2.1235  0.6048
  535MOL0     H72161   6.087   9.741   3.831  0.1891  2.9088  1.6717
  535MOL0     H72162   6.328   9.671   3.812 -1.4473  4.3525  2.1503
  535MOL0     H72163   6.199   9.543   3.788  2.5026 -2.6809  0.7822
  535MOL0     H72164   6.231   9.445   4.006 -1.9968  1.4655 -1.5929
  535MOL0     H72165   6.325   9.574   4.071  2.1081 -2.2622  1.2246
  535MOL0     H72166   6.429   9.423   3.827  2.4546  0.1890  0.3366
  535MOL0     H72167   6.518   9.510   3.943  0.8782 -0.3418 -0.1418
  535MOL0     H72168   6.480   9.349   4.116 -0.3469  2.9813 -1.0977
  535MOL0     H72169   6.387   9.248   3.994  1.0509 -0.7390 -1.1446
  535MOL0     H72170   6.610   9.157   3.997  0.4213  0.3121  0.7525
  535MOL0     H72171   6.597   9.245   3.844  2.3888  1.3202 -0.4569
  535MOL0     H72172   6.735   9.374   4.091  0.2747 -1.4843 -0.8118
  535MOL0     H72173   6.709   9.440   3.926  0.8300 -0.2812 -0.9690
  535MOL0     H72174   6.860   9.204   4.006 -3.7994 -0.2599 -1.0265
  535MOL0     H72175   6.832   9.258   3.844  0.6816  2.6255 -1.2645
  535MOL0     H72176   6.900   9.535   3.839 -1.4084 -1.8730 -0.1695
  535MOL0     H72177   7.117   9.739   3.850  0.7552  1.0148  4.6533
  535MOL0     H72178   7.238   9.705   3.960  0.9882  1.2369 -1.3445
  535MOL0     H72179   7.244   9.564   3.678 -0.1256  0.3884  0.4581
  535MOL0     H72180   7.326   9.717   3.714 -2.7816  1.8014 -2.0090
  535MOL0     H72181   7.361   9.439   3.860  1.3854  0.0826  1.4756
  535MOL0     H72182   7.448   9.573   3.898 -0.6354 -1.3848  1.3841
  535MOL0     H72183   7.462   9.407   3.643  0.1990 -0.5744  1.4178
  535MOL0     H72184   7.600   9.439   3.738  2.0096  0.3937 -3.8950
  535MOL0     H72185   7.663   9.697   3.432 -0.2832 -2.6968  0.8350
  535MOL0     H72186   7.894   9.822   3.453  0.4496 -1.0989  0.1079
  535MOL0     H72187   8.299   9.779   3.639 -1.9078  0.2309  0.9383
  535MOL0     H72188   8.541   9.852   3.682  0.5232 -2.6315  1.2019
  535MOL0     H72189   8.624  10.153   4.045 -0.7555  0.6102  1.2003
  535MOL0     H72190   8.610   9.979   4.078  0.0969  0.7406  0.2776
  535MOL0     H72191   8.831   9.938   4.032  4.7263  0.0928 -3.3264
  535MOL0     H72192   8.846  10.069   3.919  0.6137 -0.4317  0.2731
  535MOL0     H72193   8.826  10.232   4.093  0.8052  0.3634 -0.4488
  535MOL0     H72194   8.826  10.099   4.219  2.1856  2.2871  1.7038
  535MOL0     H72195   9.045  10.193   4.020  1.2312  3.1014  2.8595
  535MOL0     H72196   9.040  10.031   4.115  0.9120 -0.5132  0.3457
  535MOL0     H72197   9.026  10.175   4.319  2.3644  2.9402  2.0834
  535MOL0     H72198   9.020  10.316   4.213 -2.1117  0.2621 -0.8418
  535MOL0     H72199   9.230  10.267   4.345  2.0064 -1.6609  0.6893
  535MOL0     H72200   9.252  10.113   4.266 -2.4030 -1.7049  2.3551
  535MOL0     H72201   9.370  10.352   4.210 -0.3544  1.8460 -1.2117
  535MOL0     H72202   9.235  10.360   4.100 -0.6733 -0.2668 -2.0212
  535MOL0     H72203   9.478  10.179   4.105  0.2186  0.5257  0.1942
  535MOL0     H72204   9.331  10.104   4.046 -1.9585  1.8272 -3.6492
  535MOL0     H72205   8.400  10.059   4.031 -0.1698  0.4518 -1.2233
  535MOL0     H72206   8.183   9.970   4.006  0.2651  2.8464  0.5082
  535MOL0     H72207   7.874   9.759   3.874  1.8264  1.6151 -0.6406
  535MOL0     H72208   7.677   9.658   3.862 -0.8984 -1.2352 -0.4049
  535MOL0     H72209   5.934   9.801   4.025  2.9387 -1.8539 -0.0393
  535MOL0     H72210   5.806   9.965   4.125 -0.4226 -0.6464  0.2252
  535MOL0     H72211   5.896  10.419   4.295 -0.1485 -2.3561  0.2451
  535MOL0     H72212   5.838  10.628   4.424  1.1778 -0.2622 -0.2289
  535MOL0     H72213   5.727  10.800   4.470  0.2589  1.4197  2.9148
  535MOL0     H72214   5.598  10.866   4.576  2.4703 -1.1416  2.7325
  535MOL0     H72215   5.572  10.751   4.284 -3.7697 -0.7211 -1.0276
  535MOL0     H72216   5.556  10.920   4.325 -0.5775  0.9187  1.9952
  535MOL0     H72217   5.374  10.695   4.405  2.1007 -1.5840 -1.7708
  535MOL0     H72218   5.332  10.821   4.287 -0.0519 -0.3138 -0.3879
  535MOL0     H72219   5.339  10.842   4.572 -1.0667 -0.3581 -0.7840
  535MOL0     H72220   5.373  10.991   4.473 -1.2074  1.1063  3.1452
  535MOL0     H72221   4.956  10.896   4.383 -0.1000  0.3144 -0.9802
  535MOL0     H72222   5.467  10.441   4.535  0.1379 -2.4056  0.3299
  535MOL0     H72223   5.505  10.176   4.556  2.3167 -0.1717 -0.5902
  535MOL0     H72224   5.419  10.223   4.404  0.2174  3.1960  0.6918
  535MOL0     H72225   5.556  10.104   4.410 -1.4147  0.3130 -1.8301
  536MOL0     O72226   2.617   5.000   3.483 -0.1767  0.4879  0.0002
  536MOL0     C72227   2.633   4.945   3.588 -0.0315  0.1082 -0.2904
  536MOL0     O72228   2.631   4.998   3.716 -0.3553  0.1497 -0.3568
  536MOL0     C72229   2.620   5.138   3.713 -0.2126  0.1458 -0.2903
  536MOL0     C72230   2.498   5.202   3.724 -0.1655  0.0161 -0.5143
  536MOL0     C72231   2.490   5.338   3.731 -0.4201 -0.0246  0.9448
  536MOL0     C72232   2.600   5.418   3.721 -0.7848  0.2871 -0.0741
  536MOL0     O72233   2.585   5.554   3.729 -0.2269 -0.1128 -0.0190
  536MOL0     C72234   2.674   5.652   3.665  0.1486  0.3155  0.1589
  536MOL0     C72235   2.697   5.767   3.750  0.0450 -1.1152 -1.6415
  536MOL0     C72236   2.808   5.862   3.690 -0.6948  0.1606 -0.6010
  536MOL0     C72237   2.838   5.968   3.792  0.0797  0.6707  0.6277
  536MOL0     C72238   2.890   6.096   3.728  0.2525  0.5206 -0.0124
  536MOL0     C72239   3.017   6.081   3.647 -0.8112 -0.3722  0.1660
  536MOL0     C72240   3.038   6.171   3.526  0.2897 -0.7355  0.9015
  536MOL0     C72241   3.178   6.149   3.467  0.7954  0.0992 -0.1680
  536MOL0     N72242   3.195   6.180   3.325  0.4946  1.3190  0.2668
  536MOL0     C72243   3.193   6.306   3.267  0.3727  0.6104  0.2235
  536MOL0     C72244   3.162   6.281   3.136 -0.2655  0.3089 -0.0064
  536MOL0     C72245   3.154   6.395   3.032  0.2424 -0.7974  0.1489
  536MOL0     C72246   3.277   6.488   3.018 -0.2939 -1.0806 -0.9841
  536MOL0     C72247   3.298   6.575   3.139 -0.4644  0.2704  0.1150
  536MOL0     C72248   3.392   6.689   3.119 -0.1008 -0.3007  0.4190
  536MOL0     O72249   3.523   6.639   3.080  0.6023 -0.3221 -0.2121
  536MOL0     C72250   3.607   6.730   3.031  0.0618  0.2920  0.4773
  536MOL0     C72251   3.738   6.683   3.021 -0.8387 -0.7068  0.8288
  536MOL0     C72252   3.847   6.759   2.973 -0.4865 -1.5505 -0.9226
  536MOL0     C72253   3.827   6.888   2.942  0.0971 -0.2969  0.5054
  536MOL0     C72254   3.948   6.955   2.886  0.8458  0.1487 -0.1594
  536MOL0     O72255   3.936   7.096   2.856 -0.3959  0.8796 -0.7894
  536MOL0     C72256   4.024   7.164   2.777 -0.1796  1.2352 -0.1811
  536MOL0     C72257   4.086   7.111   2.658  0.2253  0.4668 -0.6862
  536MOL0     C72258   4.142   7.204   2.570 -0.3413  0.4423 -0.1743
  536MOL0     C72259   4.163   7.338   2.610  0.0626  0.7807  0.7353
  536MOL0     O72260   4.237   7.411   2.520  0.1765  0.3578 -0.8348
  536MOL0     C72261   4.220   7.553   2.535  0.1146  0.0531 -0.3769
  536MOL0     C72262   4.278   7.629   2.423 -0.2261 -0.2541 -0.2136
  536MOL0     C72263   4.425   7.623   2.418  0.2956 -0.5984 -0.3089
  536MOL0     C72264   4.479   7.689   2.294 -0.4518 -0.3438 -0.1550
  536MOL0     C72265   4.635   7.727   2.312  0.2006  0.4954 -0.1367
  536MOL0     C72266   4.687   7.826   2.203  1.2248  0.2259 -0.4800
  536MOL0     C72267   4.831   7.871   2.217 -0.2889  0.0569 -0.8420
  536MOL0     C72268   4.871   7.957   2.098 -0.7724  0.4800  0.1230
  536MOL0    Cl72269   4.771   8.106   2.064  0.4857 -0.3963 -0.1182
  536MOL0     C72270   4.106   7.386   2.730  0.4706 -1.1003 -0.1692
  536MOL0     C72271   4.036   7.303   2.812  0.4683  0.1403  0.8401
  536MOL0     O72272   4.048   6.884   2.863 -0.2682  0.1435 -0.1404
  536MOL0     C72273   3.698   6.943   2.950 -0.1136  0.3895 -0.1183
  536MOL0     C72274   3.588   6.859   2.985  0.8029 -0.2116  0.3260
  536MOL0     N72275   3.148   6.144   3.112 -0.0510 -0.4202  0.6917
  536MOL0     N72276   3.167   6.085   3.226  0.2004  0.0903 -0.5468
  536MOL0     C72277   2.725   5.356   3.710  0.1953  0.3998 -0.6056
  536MOL0     C72278   2.739   5.219   3.712 -0.0832 -0.4364  0.4899
  536MOL0     C72279   2.673   4.804   3.578  0.1875  0.8180 -0.2858
  536MOL0     C72280   2.791   4.765   3.513 -0.4199 -0.8400 -0.9246
  536MOL0     C72281   2.835   4.641   3.515  0.1596  0.3407 -0.0873
  536MOL0     C72282   2.766   4.526   3.565  0.4700 -0.1006 -1.2362
  536MOL0     O72283   2.829   4.400   3.574 -0.1018  0.4678  0.7945
  536MOL0     C72284   2.742   4.282   3.587 -0.6711 -0.3526 -0.0459
  536MOL0     C72285   2.701   4.239   3.447 -0.1951 -1.2724 -0.3845
  536MOL0     C72286   2.588   4.135   3.445 -0.1229  0.4313  0.4537
  536MOL0     C72287   2.599   4.009   3.535 -0.3503  0.1866  0.2171
  536MOL0     C72288   2.482   3.927   3.529 -0.1632  0.1740  0.0777
  536MOL0     C72289   2.381   3.863   3.520  0.1373 -0.2918  0.5555
  536MOL0     C72290   2.645   4.571   3.632 -0.4812 -0.1770  0.1399
  536MOL0     C72291   2.602   4.704   3.641 -0.3619  0.7664  0.1757
  536MOL0     C72292   2.471   4.729   3.713 -0.2262  0.4848 -0.5724
  536MOL0     H72293   2.408   5.141   3.724 -1.2461  1.5460  0.1848
  536MOL0     H72294   2.392   5.384   3.735  0.1371  1.6912 -2.0605
  536MOL0     H72295   2.765   5.599   3.635  0.2374  0.4752  0.1452
  536MOL0     H72296   2.635   5.683   3.567 -0.3434  1.5400  0.7160
  536MOL0     H72297   2.718   5.725   3.849 -0.3446 -0.1967 -1.1631
  536MOL0     H72298   2.607   5.824   3.774  0.0934 -1.2899 -1.0118
  536MOL0     H72299   2.770   5.900   3.595 -1.0464 -1.5380 -1.1696
  536MOL0     H72300   2.898   5.807   3.662 -1.4728 -0.4743 -1.9860
  536MOL0     H72301   2.748   5.981   3.854 -1.3198 -0.4907 -1.0620
  536MOL0     H72302   2.914   5.923   3.856  2.3128 -1.1519 -2.9779
  536MOL0     H72303   2.807   6.127   3.664 -2.4454 -2.8826  1.4953
  536MOL0     H72304   2.919   6.158   3.814 -0.0790 -0.6589  0.9713
  536MOL0     H72305   3.105   6.083   3.712  1.8552  0.5499 -3.1700
  536MOL0     H72306   3.016   5.984   3.598 -0.7840  0.0883 -0.7734
  536MOL0     H72307   3.027   6.277   3.552 -1.8237 -0.9961  1.2751
  536MOL0     H72308   2.964   6.142   3.450  0.7647 -0.6447  0.3993
  536MOL0     H72309   3.245   6.218   3.519  2.2430 -2.2121  1.2239
  536MOL0     H72310   3.198   6.044   3.490 -1.5341  0.2149  3.1986
  536MOL0     H72311   3.209   6.401   3.317 -1.8754  0.9312  0.4475
  536MOL0     H72312   3.143   6.342   2.937  0.0583  1.0619 -0.9078
  536MOL0     H72313   3.066   6.453   3.060  2.2778  1.4634  2.4153
  536MOL0     H72314   3.371   6.434   3.004  0.2125 -0.8119  1.0534
  536MOL0     H72315   3.270   6.546   2.926  0.7073 -3.4540 -2.6565
  536MOL0     H72316   3.323   6.515   3.227 -2.5424  1.3297  1.5093
  536MOL0     H72317   3.210   6.622   3.183 -0.2321  0.7082  0.1151
  536MOL0     H72318   3.389   6.744   3.213 -1.0020  0.2301  0.0917
  536MOL0     H72319   3.349   6.756   3.044 -0.6785 -0.6559  0.4323
  536MOL0     H72320   3.747   6.584   3.065  0.5754 -0.1359  1.9167
  536MOL0     H72321   3.943   6.708   2.971 -0.2128 -1.0667 -0.3890
  536MOL0     H72322   4.069   7.007   2.634  0.3981 -0.6013  3.1020
  536MOL0     H72323   4.173   7.160   2.475  1.7571  1.2966  0.0697
  536MOL0     H72324   4.114   7.579   2.548 -0.2696 -0.7373 -1.7188
  536MOL0     H72325   4.276   7.581   2.624 -1.4890  3.2766 -0.2383
  536MOL0     H72326   4.232   7.598   2.329 -1.5413  2.7383 -0.6553
  536MOL0     H72327   4.240   7.731   2.429 -0.2354 -0.2756  0.1304
  536MOL0     H72328   4.469   7.670   2.506 -0.0712 -1.6920  0.4901
  536MOL0     H72329   4.459   7.519   2.415 -2.0928 -1.4466 -0.3974
  536MOL0     H72330   4.426   7.782   2.274 -0.1266 -0.2120 -0.4256
  536MOL0     H72331   4.467   7.628   2.204 -0.8925 -1.0013  0.3408
  536MOL0     H72332   4.695   7.636   2.299  0.5085  0.5253  0.9166
  536MOL0     H72333   4.659   7.759   2.414 -1.5667  1.2264  0.0789
  536MOL0     H72334   4.665   7.791   2.101 -3.3139  0.7346  0.1191
  536MOL0     H72335   4.629   7.917   2.220  1.7892  0.3219  1.0818
  536MOL0     H72336   4.901   7.787   2.220  0.0879  0.3887  0.4231
  536MOL0     H72337   4.836   7.936   2.305 -1.1277  2.3194 -2.3597
  536MOL0     H72338   4.972   7.988   2.123 -0.1834 -0.2335 -1.2367
  536MOL0     H72339   4.883   7.893   2.010 -1.8315  0.1794  0.1784
  536MOL0     H72340   4.113   7.491   2.757  0.9976 -1.3113  0.5445
  536MOL0     H72341   3.992   7.353   2.897 -1.9209  1.2289 -0.9112
  536MOL0     H72342   3.686   7.045   2.914 -0.8325 -0.2566 -1.8134
  536MOL0     H72343   3.493   6.910   2.979  1.0088  0.0268 -2.2596
  536MOL0     H72344   2.821   5.406   3.703  1.0125 -0.1872  3.3891
  536MOL0     H72345   2.839   5.176   3.714 -0.9865 -2.6488  2.5002
  536MOL0     H72346   2.838   4.845   3.457  0.5387 -1.4724 -1.0390
  536MOL0     H72347   2.938   4.623   3.483 -0.4894  0.1198 -2.1952
  536MOL0     H72348   2.652   4.301   3.646 -0.4622 -2.0307  0.8560
  536MOL0     H72349   2.795   4.197   3.631  0.5432 -0.0268 -0.8203
  536MOL0     H72350   2.793   4.203   3.399  0.7391  0.2460  0.2205
  536MOL0     H72351   2.676   4.329   3.391  0.4835 -1.5911 -1.2348
  536MOL0     H72352   2.575   4.092   3.345  1.3577  0.2832  0.3010
  536MOL0     H72353   2.499   4.194   3.466  0.3433  1.9270 -1.4331
  536MOL0     H72354   2.684   3.952   3.497 -1.7583 -0.8920 -1.4528
  536MOL0     H72355   2.616   4.036   3.640  3.5631 -2.6595  0.5319
  536MOL0     H72356   2.292   3.804   3.528 -0.0864 -0.1005 -0.4276
  536MOL0     H72357   2.570   4.501   3.667 -1.0156  0.8538  1.1137
  536MOL0     H72358   2.439   4.635   3.757  0.4480  0.0562 -0.9772
  536MOL0     H72359   2.491   4.803   3.791  1.1015  0.1992 -0.6179
  536MOL0     H72360   2.387   4.756   3.649 -2.2246  0.0191  1.7367
  537MOL0     O72361  10.626   5.170   3.990 -0.3650  0.2933  0.0681
  537MOL0     C72362  10.580   5.084   3.908 -0.9304  0.2370 -0.1995
  537MOL0     O72363  10.612   5.070   3.772  0.5285 -0.2201  0.7395
  537MOL0     C72364  10.704   5.158   3.722  0.6698 -0.0723  0.0692
  537MOL0     C72365  10.684   5.210   3.595  0.5185 -0.6010  0.6151
  537MOL0     C72366  10.782   5.298   3.544 -0.1866 -0.3436 -0.7406
  537MOL0     C72367  10.898   5.319   3.608 -1.0150 -0.5053  0.4687
  537MOL0     O72368  10.996   5.406   3.565 -0.8673  0.2187  0.5370
  537MOL0     C72369  10.970   5.508   3.462 -0.3303 -0.0479 -0.1202
  537MOL0     C72370  11.090   5.594   3.440 -0.2814 -0.3868  0.4335
  537MOL0     C72371  11.189   5.544   3.335  0.1708  0.5256  0.1959
  537MOL0     C72372  11.301   5.454   3.402 -0.0462  0.3759  0.3726
  537MOL0     C72373  11.406   5.399   3.313  0.0050  0.0460 -1.2676
  537MOL0     C72374  11.529   5.327   3.377  0.2834  1.1014 -0.4489
  537MOL0     C72375  11.642   5.427   3.417  0.3165  0.8677 -0.6145
  537MOL0     C72376  11.713   5.473   3.294 -0.3539  0.0639 -0.5645
  537MOL0     N72377  11.788   5.597   3.305  0.1718  1.0064 -0.7419
  537MOL0     C72378  11.744   5.705   3.371  0.4551 -0.2700 -1.4397
  537MOL0     C72379  11.807   5.806   3.312 -0.8128 -0.5671  0.7206
  537MOL0     C72380  11.777   5.959   3.352  0.0376  0.7758 -0.1681
  537MOL0     C72381  11.905   6.036   3.358 -0.2712 -0.8052 -0.2988
  537MOL0     C72382  12.017   5.990   3.457  0.5470  0.3605 -0.0878
  537MOL0     C72383  12.131   6.080   3.487  1.2659  0.2081  0.5471
  537MOL0     O72384  12.244   5.998   3.503 -0.4788  0.2350  0.3406
  537MOL0     C72385  12.369   6.044   3.513 -0.1887 -0.4682  0.2588
  537MOL0     C72386  12.469   5.945   3.496  0.6854 -0.1076  0.5128
  537MOL0     C72387  12.607   5.985   3.498 -0.4966 -0.4190 -0.0891
  537MOL0     C72388  12.638   6.120   3.507 -0.1577 -0.2118 -0.7499
  537MOL0     C72389  12.777   6.173   3.496 -0.3994  0.1618  0.3921
  537MOL0     O72390  12.872   6.080   3.487  0.2551  0.0433 -0.6848
  537MOL0     C72391  13.001   6.118   3.474  0.0677  0.3476  0.8044
  537MOL0     C72392  13.070   6.058   3.366 -0.7779  0.0981  0.9752
  537MOL0     C72393  13.209   6.071   3.360  0.3559  0.0003 -1.1536
  537MOL0     C72394  13.284   6.149   3.458 -0.5184  0.6684  0.8913
  537MOL0     O72395  13.421   6.164   3.445  0.0444 -0.6371  0.3210
  537MOL0     C72396  13.459   6.290   3.421  0.1466 -0.4835  0.5453
  537MOL0     C72397  13.605   6.315   3.400 -0.2689  0.1546 -0.1270
  537MOL0     C72398  13.665   6.239   3.285 -0.4452  0.5664  0.2224
  537MOL0     C72399  13.811   6.280   3.256  0.2844  1.1496 -0.1266
  537MOL0     C72400  13.891   6.195   3.163 -0.0670 -0.1285  0.2911
  537MOL0     C72401  14.024   6.264   3.122 -0.2174  0.2287  0.3769
  537MOL0     C72402  14.097   6.194   3.004  0.2652 -0.0994  0.0102
  537MOL0     C72403  14.232   6.248   2.989  0.0843  0.8643  0.0002
  537MOL0    Cl72404  14.298   6.195   2.829 -0.3874  0.4653 -0.3827
  537MOL0     C72405  13.202   6.223   3.553  0.4010  0.5369 -0.0470
  537MOL0     C72406  13.063   6.210   3.563  0.7974  0.7804 -0.2515
  537MOL0     O72407  12.801   6.292   3.487 -0.5893  0.2542  0.4082
  537MOL0     C72408  12.537   6.213   3.535  0.7515 -0.4690  0.2936
  537MOL0     C72409  12.401   6.180   3.531  0.3402  0.5751  0.3534
  537MOL0     N72410  11.903   5.755   3.231 -0.5430 -0.1702 -0.2207
  537MOL0     N72411  11.888   5.635   3.225  0.3046  0.0665 -0.1982
  537MOL0     C72412  10.923   5.272   3.730 -0.3465  0.4180  0.2456
  537MOL0     C72413  10.829   5.192   3.785 -0.6355 -0.2651 -0.1031
  537MOL0     C72414  10.485   4.982   3.953  0.4098 -0.1463 -0.8382
  537MOL0     C72415  10.417   4.895   3.859 -0.1321 -0.2121  0.2497
  537MOL0     C72416  10.322   4.806   3.902  0.6433  0.4285 -0.9069
  537MOL0     C72417  10.283   4.807   4.035  1.2199 -0.7845  0.3208
  537MOL0     O72418  10.172   4.729   4.073 -0.3930  0.2868 -0.3841
  537MOL0     C72419  10.066   4.802   4.128 -1.2840 -0.1321 -0.5679
  537MOL0     C72420  10.013   4.705   4.232 -0.8027  0.1820  0.0351
  537MOL0     C72421   9.977   4.562   4.190 -1.2226  0.3141  0.3422
  537MOL0     C72422   9.851   4.550   4.102 -0.2304 -0.0609 -0.1528
  537MOL0     C72423   9.852   4.428   4.019 -0.3050 -0.6155 -0.4725
  537MOL0     C72424   9.861   4.323   3.962  0.2001  0.3900  0.6044
  537MOL0     C72425  10.346   4.892   4.125  0.5409  0.8562  0.2972
  537MOL0     C72426  10.447   4.983   4.091 -0.5765 -0.5654 -0.1087
  537MOL0     C72427  10.506   5.056   4.204 -0.4458  0.3586 -0.2950
  537MOL0     H72428  10.601   5.172   3.536  0.1790  2.9009 -1.4303
  537MOL0     H72429  10.767   5.323   3.439 -0.8132 -2.0929 -1.1032
  537MOL0     H72430  10.951   5.467   3.362 -0.3370  4.9851 -2.4857
  537MOL0     H72431  10.891   5.572   3.503 -0.6597  0.9870 -2.2111
  537MOL0     H72432  11.139   5.603   3.537 -0.9356 -1.8660  0.9309
  537MOL0     H72433  11.051   5.693   3.414 -1.1924  0.4226  4.3168
  537MOL0     H72434  11.237   5.625   3.280  0.9744 -0.2735 -0.2997
  537MOL0     H72435  11.144   5.476   3.262 -2.8433  0.0088  2.3178
  537MOL0     H72436  11.353   5.509   3.481 -1.0385 -0.2804  1.5228
  537MOL0     H72437  11.249   5.373   3.455  2.1535  0.0572  2.2296
  537MOL0     H72438  11.352   5.327   3.250 -1.4823  0.2926 -0.3245
  537MOL0     H72439  11.443   5.472   3.240  0.3285  0.6694 -0.4891
  537MOL0     H72440  11.503   5.258   3.457  1.4053  1.3852  0.1882
  537MOL0     H72441  11.575   5.270   3.296  1.1093  1.4647 -0.2472
  537MOL0     H72442  11.714   5.378   3.483 -0.4144  0.0682 -0.3933
  537MOL0     H72443  11.599   5.512   3.472 -3.0587  1.4109 -3.7241
  537MOL0     H72444  11.774   5.388   3.260  0.1256 -1.0669  2.7404
  537MOL0     H72445  11.644   5.492   3.211  0.0465  4.9498 -0.0527
  537MOL0     H72446  11.670   5.710   3.451 -0.0111  2.2294 -1.9487
  537MOL0     H72447  11.717   6.012   3.277  1.0362  0.9595 -0.8646
  537MOL0     H72448  11.729   5.975   3.449  2.3078  0.6623  1.0667
  537MOL0     H72449  11.955   6.034   3.260 -0.0201  1.7477 -0.2702
  537MOL0     H72450  11.877   6.140   3.373  0.4084 -0.2373 -2.5119
  537MOL0     H72451  12.047   5.890   3.425 -2.0876 -0.8930  1.0482
  537MOL0     H72452  11.981   5.972   3.559 -1.5117  1.5387 -0.5625
  537MOL0     H72453  12.114   6.149   3.570  2.0486  1.2477 -0.1228
  537MOL0     H72454  12.152   6.156   3.411 -0.4591  3.3886  2.9930
  537MOL0     H72455  12.443   5.844   3.468  0.8597  0.0520 -0.2569
  537MOL0     H72456  12.688   5.913   3.495 -0.7049 -0.6379 -0.5410
  537MOL0     H72457  13.020   5.986   3.302  2.1544 -0.9288 -0.3291
  537MOL0     H72458  13.265   6.020   3.282 -2.4838 -1.3339 -2.4876
  537MOL0     H72459  13.400   6.327   3.336 -0.1452 -2.3183 -0.0980
  537MOL0     H72460  13.442   6.357   3.506  1.1300 -1.4396  1.5246
  537MOL0     H72461  13.620   6.421   3.378  3.1530 -0.1124  0.3815
  537MOL0     H72462  13.662   6.291   3.490 -1.4123 -2.5220 -0.0109
  537MOL0     H72463  13.659   6.132   3.305  1.6174  0.3942  0.1194
  537MOL0     H72464  13.613   6.252   3.189  3.4090 -0.6097 -2.2944
  537MOL0     H72465  13.876   6.268   3.343  0.7379 -1.0171 -0.7153
  537MOL0     H72466  13.817   6.382   3.218  0.1530  0.5923 -1.7026
  537MOL0     H72467  13.830   6.184   3.072 -0.9957 -0.4528  0.9402
  537MOL0     H72468  13.909   6.098   3.211  2.4806 -2.3287 -4.3693
  537MOL0     H72469  14.006   6.370   3.102 -0.3138  0.1566  0.0811
  537MOL0     H72470  14.088   6.271   3.211  0.3366 -1.5678  0.1586
  537MOL0     H72471  14.035   6.225   2.920 -1.5023  1.7139  1.8826
  537MOL0     H72472  14.096   6.084   3.003 -0.2360 -0.1038 -1.3106
  537MOL0     H72473  14.227   6.357   2.981 -3.1114  0.7623 -0.6408
  537MOL0     H72474  14.296   6.224   3.074 -2.6751  0.9386  2.2437
  537MOL0     H72475  13.254   6.265   3.638 -1.0972 -2.4760  2.5573
  537MOL0     H72476  13.008   6.247   3.649  1.2101 -1.2468  0.9549
  537MOL0     H72477  12.546   6.320   3.550 -1.1756 -0.5078  2.1049
  537MOL0     H72478  12.315   6.241   3.556 -0.7739 -0.8089  0.0176
  537MOL0     H72479  11.017   5.281   3.783  0.0092  0.2323 -0.3364
  537MOL0     H72480  10.851   5.139   3.877 -0.0894  1.8126  1.0055
  537MOL0     H72481  10.432   4.906   3.752 -2.9203  4.1300  0.0392
  537MOL0     H72482  10.272   4.738   3.835  1.7066 -3.6201  2.0086
  537MOL0     H72483   9.998   4.815   4.043  0.8863 -0.7598 -2.4976
  537MOL0     H72484  10.102   4.894   4.175  0.8063 -0.9349 -0.5165
  537MOL0     H72485   9.917   4.727   4.280 -2.2624 -3.2281 -1.0457
  537MOL0     H72486  10.094   4.710   4.306  0.4799  0.8398 -1.3436
  537MOL0     H72487   9.944   4.511   4.281 -0.6968 -2.9113 -1.1555
  537MOL0     H72488  10.064   4.512   4.148 -0.7231 -1.2189  2.9896
  537MOL0     H72489   9.756   4.560   4.154  1.0326  0.3201  2.2119
  537MOL0     H72490   9.842   4.632   4.030 -0.4048  0.3537  0.3336
  537MOL0     H72491   9.870   4.242   3.893 -0.5586  1.8023 -1.2408
  537MOL0     H72492  10.309   4.896   4.227 -0.5718 -0.4625 -0.0254
  537MOL0     H72493  10.507   5.164   4.189  0.2998  0.5797  1.1906
  537MOL0     H72494  10.455   5.039   4.300  1.6137 -0.3199  0.7273
  537MOL0     H72495  10.607   5.020   4.225 -0.8777 -1.1553 -0.7148
  538MOL0     O72496   8.495   3.516   2.867  1.2064  0.4206  0.0681
  538MOL0     C72497   8.437   3.457   2.958 -0.3221  0.9695  0.1883
  538MOL0     O72498   8.467   3.476   3.086  0.2635 -0.6499 -0.8852
  538MOL0     C72499   8.578   3.532   3.133 -0.0612  0.1578  0.1973
  538MOL0     C72500   8.696   3.555   3.055 -0.5355  0.5293 -0.1384
  538MOL0     C72501   8.813   3.593   3.126 -0.4845 -0.0544  0.0601
  538MOL0     C72502   8.813   3.630   3.260 -0.3328  0.1449 -0.0278
  538MOL0     O72503   8.931   3.675   3.325 -0.2112 -0.2291  0.2998
  538MOL0     C72504   9.059   3.649   3.261  0.0479 -0.0252 -0.4122
  538MOL0     C72505   9.168   3.705   3.359  0.7151  0.5136  0.3657
  538MOL0     C72506   9.305   3.661   3.301 -0.4990  0.5693 -0.5296
  538MOL0     C72507   9.334   3.728   3.159  0.1207  0.5378  1.0497
  538MOL0     C72508   9.476   3.716   3.103  0.2859  0.0691 -0.0143
  538MOL0     C72509   9.515   3.811   2.982 -0.3847 -0.4236 -1.1460
  538MOL0     C72510   9.475   3.764   2.845  0.1608 -0.2154  0.9521
  538MOL0     C72511   9.558   3.653   2.796  0.2738  0.6822  0.1614
  538MOL0     N72512   9.516   3.619   2.657  0.2004 -0.2516  0.0893
  538MOL0     C72513   9.423   3.519   2.626  0.1567 -0.0014 -0.0422
  538MOL0     C72514   9.437   3.513   2.490  0.5559  0.1805  0.1753
  538MOL0     C72515   9.390   3.395   2.401 -0.2342 -0.2201 -0.3293
  538MOL0     C72516   9.241   3.392   2.393 -0.3262 -0.4401  0.2392
  538MOL0     C72517   9.196   3.310   2.273  0.9196  0.6150 -0.1838
  538MOL0     C72518   9.051   3.278   2.282  1.5515 -0.7409 -1.6250
  538MOL0     O72519   8.970   3.398   2.291  0.4941 -0.8254 -0.4653
  538MOL0     C72520   8.834   3.396   2.313  0.3047  0.3640  0.5753
  538MOL0     C72521   8.761   3.276   2.328  0.4271 -0.6122  0.1487
  538MOL0     C72522   8.619   3.290   2.342 -0.8755 -0.0815  0.7906
  538MOL0     C72523   8.554   3.422   2.328 -1.1081 -0.1749 -0.0134
  538MOL0     C72524   8.414   3.439   2.352 -0.9410  1.7701  0.2852
  538MOL0     O72525   8.335   3.326   2.328 -0.7957 -0.4568  0.7430
  538MOL0     C72526   8.200   3.326   2.356  0.0983  0.6388 -0.3946
  538MOL0     C72527   8.106   3.420   2.296 -0.4724  0.2611 -0.0767
  538MOL0     C72528   7.972   3.425   2.337  0.8279  0.3651  0.4826
  538MOL0     C72529   7.922   3.327   2.424  0.6150  0.0758  0.0905
  538MOL0     O72530   7.786   3.330   2.437  0.4550 -0.7532 -0.5262
  538MOL0     C72531   7.719   3.205   2.429  0.2071  0.7839 -0.0033
  538MOL0     C72532   7.730   3.133   2.291 -0.0387 -0.8222 -0.3497
  538MOL0     C72533   7.634   3.011   2.285 -0.4068 -0.0913 -0.7023
  538MOL0     C72534   7.708   2.886   2.336  0.4295 -0.2519 -0.3568
  538MOL0     C72535   7.620   2.764   2.300  0.4116 -0.5938 -0.1106
  538MOL0     C72536   7.691   2.632   2.334  0.8810  0.4300  0.1641
  538MOL0     C72537   7.669   2.531   2.226  0.9904 -0.5195  1.0264
  538MOL0     C72538   7.758   2.578   2.111  0.5814 -0.4010 -0.3824
  538MOL0    Cl72539   7.720   2.462   1.973 -0.3611  0.1133 -0.2222
  538MOL0     C72540   8.014   3.236   2.487 -0.1278 -0.2121  0.0485
  538MOL0     C72541   8.154   3.242   2.457  0.4519 -1.3487  0.2509
  538MOL0     O72542   8.380   3.537   2.410 -0.3109 -0.5847  0.4623
  538MOL0     C72543   8.640   3.533   2.301 -0.1014  0.6337  1.0024
  538MOL0     C72544   8.773   3.516   2.300  1.0190 -0.8997 -0.1458
  538MOL0     N72545   9.530   3.607   2.443 -0.5334 -0.0278 -0.6435
  538MOL0     N72546   9.570   3.678   2.545  0.3116  0.3045 -0.0391
  538MOL0     C72547   8.691   3.622   3.328 -0.5784  0.7949 -0.1652
  538MOL0     C72548   8.583   3.579   3.263  0.2695  0.7463 -0.7696
  538MOL0     C72549   8.301   3.390   2.934 -1.8317 -0.5173  0.0897
  538MOL0     C72550   8.254   3.313   3.039  0.3844 -1.1153  0.1315
  538MOL0     C72551   8.125   3.254   3.036 -0.3060 -0.2470  0.9043
  538MOL0     C72552   8.044   3.266   2.926  0.2570  0.3266 -0.2798
  538MOL0     O72553   7.914   3.219   2.937 -0.5006 -0.7498  0.1872
  538MOL0     C72554   7.819   3.262   2.845  0.2420 -0.1804 -0.3351
  538MOL0     C72555   7.686   3.269   2.914 -0.0733 -0.3703  0.0132
  538MOL0     C72556   7.565   3.292   2.818  0.4433  0.6795 -0.3362
  538MOL0     C72557   7.431   3.315   2.892 -1.0324 -0.0687  0.0373
  538MOL0     C72558   7.369   3.201   2.946 -0.0435  0.1040 -1.7603
  538MOL0     C72559   7.334   3.087   2.984 -0.2154  1.2201  0.2583
  538MOL0     C72560   8.098   3.338   2.813 -0.2036 -0.3414 -0.3967
  538MOL0     C72561   8.229   3.394   2.810 -0.8163  0.2308 -0.7719
  538MOL0     C72562   8.285   3.460   2.681 -0.5267  0.1526  0.1203
  538MOL0     H72563   8.698   3.525   2.951 -2.3061 -1.4338  0.3374
  538MOL0     H72564   8.902   3.604   3.065  1.0543 -2.9254  1.5731
  538MOL0     H72565   9.071   3.544   3.234 -2.6773 -0.3450 -0.7320
  538MOL0     H72566   9.077   3.704   3.167 -0.2627 -1.2747 -1.2274
  538MOL0     H72567   9.139   3.670   3.459  1.2385  1.3786  0.8283
  538MOL0     H72568   9.166   3.814   3.360  1.2971  0.5913  3.4259
  538MOL0     H72569   9.319   3.552   3.301  3.9539  0.8890  1.4072
  538MOL0     H72570   9.383   3.695   3.370 -1.4563  0.9492  0.3972
  538MOL0     H72571   9.271   3.701   3.074  0.8095  2.3423 -0.1029
  538MOL0     H72572   9.321   3.835   3.176 -1.9443  0.3458  0.8921
  538MOL0     H72573   9.542   3.740   3.187  0.6494 -0.4703 -0.1408
  538MOL0     H72574   9.497   3.612   3.076  1.8720 -0.1260  1.7680
  538MOL0     H72575   9.481   3.907   3.021 -2.1874 -2.4460  2.8455
  538MOL0     H72576   9.624   3.823   2.981 -0.4310  0.0225 -1.1060
  538MOL0     H72577   9.486   3.850   2.778 -1.5700 -2.2797 -2.2247
  538MOL0     H72578   9.367   3.744   2.838 -0.1428  0.8773  2.1072
  538MOL0     H72579   9.661   3.690   2.805  0.0885  0.9494  1.3631
  538MOL0     H72580   9.547   3.566   2.861 -2.7089  0.3478 -0.6604
  538MOL0     H72581   9.364   3.461   2.696  1.0329 -1.4221 -0.4304
  538MOL0     H72582   9.437   3.403   2.303  0.5353  0.1405  0.0605
  538MOL0     H72583   9.408   3.294   2.437 -3.2381 -1.0328 -0.8075
  538MOL0     H72584   9.191   3.369   2.487 -2.6113 -1.1216 -1.0665
  538MOL0     H72585   9.213   3.493   2.361 -0.6790 -0.7294 -0.3834
  538MOL0     H72586   9.251   3.216   2.279 -3.4722 -2.1101  3.2654
  538MOL0     H72587   9.210   3.358   2.176  1.2194 -1.1155 -1.0248
  538MOL0     H72588   9.034   3.223   2.375 -3.8768  2.1678 -0.4737
  538MOL0     H72589   9.013   3.215   2.201 -2.7159  1.1794 -1.3830
  538MOL0     H72590   8.818   3.184   2.324 -1.7237 -2.0439  0.4777
  538MOL0     H72591   8.560   3.200   2.351  2.0128 -2.1848  0.3828
  538MOL0     H72592   8.145   3.479   2.213  2.1220  1.1127  1.6435
  538MOL0     H72593   7.903   3.502   2.301 -0.1397  0.0035  1.4783
  538MOL0     H72594   7.749   3.138   2.510  0.3164 -0.5272 -1.0824
  538MOL0     H72595   7.611   3.216   2.442 -0.0270 -1.3217  0.2782
  538MOL0     H72596   7.701   3.195   2.205 -2.4744 -0.9163  0.3162
  538MOL0     H72597   7.831   3.097   2.273 -1.2826 -4.2483 -1.1626
  538MOL0     H72598   7.536   3.029   2.330 -0.1699 -1.1915  0.3093
  538MOL0     H72599   7.609   3.004   2.179 -1.0948  0.8173 -0.6140
  538MOL0     H72600   7.729   2.898   2.443 -2.4204  0.5796  0.1930
  538MOL0     H72601   7.807   2.881   2.289  1.3365 -1.2163  1.4808
  538MOL0     H72602   7.598   2.772   2.193  0.9436  2.9143 -0.0735
  538MOL0     H72603   7.524   2.771   2.354 -0.6209 -2.2676 -1.6223
  538MOL0     H72604   7.798   2.648   2.349  1.4949 -3.2911  0.8435
  538MOL0     H72605   7.650   2.598   2.430  0.6720  0.2038 -0.0015
  538MOL0     H72606   7.566   2.526   2.190  0.8176 -0.4835  1.5103
  538MOL0     H72607   7.702   2.432   2.259 -0.2880 -1.6238 -0.8144
  538MOL0     H72608   7.734   2.675   2.067  1.3853  0.4665  1.0015
  538MOL0     H72609   7.864   2.582   2.139 -0.0789  3.5131  2.5014
  538MOL0     H72610   7.974   3.156   2.549 -3.4533  1.7232  0.6090
  538MOL0     H72611   8.220   3.169   2.503 -0.5761 -1.2038  2.0263
  538MOL0     H72612   8.612   3.631   2.265  0.7893 -0.1497 -2.0898
  538MOL0     H72613   8.840   3.599   2.281 -0.1211  0.1162  0.1850
  538MOL0     H72614   8.685   3.649   3.433  1.8570 -0.0993  0.2880
  538MOL0     H72615   8.484   3.568   3.306  0.0950 -0.5684 -1.4628
  538MOL0     H72616   8.302   3.320   3.136  2.2437  1.8870 -0.8840
  538MOL0     H72617   8.079   3.199   3.117 -0.5603  1.3827  1.9153
  538MOL0     H72618   7.816   3.196   2.757  2.5241 -1.5883  0.5439
  538MOL0     H72619   7.831   3.363   2.807 -2.7015  1.4448  2.5721
  538MOL0     H72620   7.694   3.350   2.988  0.9318 -0.0996 -0.3715
  538MOL0     H72621   7.666   3.171   2.958 -1.1402 -0.2054 -0.0822
  538MOL0     H72622   7.544   3.205   2.755 -3.3010 -0.0694  1.6869
  538MOL0     H72623   7.578   3.382   2.757 -2.3156  1.0263 -0.5431
  538MOL0     H72624   7.432   3.403   2.958 -3.7341 -0.0794  0.1763
  538MOL0     H72625   7.358   3.348   2.818 -0.6479  0.3835 -0.1470
  538MOL0     H72626   7.315   2.984   3.003  1.6927 -0.2208 -4.3592
  538MOL0     H72627   8.039   3.355   2.723 -1.1225  0.0467  0.2637
  538MOL0     H72628   8.306   3.567   2.686 -0.9213  0.4046 -2.3578
  538MOL0     H72629   8.370   3.396   2.655 -0.3403  0.5844 -0.3526
  538MOL0     H72630   8.211   3.445   2.602  0.3209 -1.3522 -0.4195
  539MOL0     O72631   5.160   3.914   2.669  0.2476  0.2350 -0.7418
  539MOL0     C72632   5.135   3.808   2.607  0.5065 -0.7063  0.0633
  539MOL0     O72633   5.241   3.720   2.573  0.4038 -0.3275  0.3980
  539MOL0     C72634   5.372   3.754   2.579 -0.7828 -0.2714  0.5563
  539MOL0     C72635   5.454   3.672   2.495 -0.3497  0.0169  0.2856
  539MOL0     C72636   5.591   3.685   2.494  0.4746  0.9672 -0.0080
  539MOL0     C72637   5.655   3.775   2.572 -0.2044 -0.2238 -1.1627
  539MOL0     O72638   5.788   3.798   2.564  0.2885 -0.4591 -0.7078
  539MOL0     C72639   5.867   3.804   2.449  0.7416 -0.0625  0.9346
  539MOL0     C72640   6.011   3.857   2.475  0.3084 -1.2531  0.3722
  539MOL0     C72641   6.093   3.823   2.353 -0.4495  0.2470 -0.1184
  539MOL0     C72642   6.149   3.684   2.358 -0.2916 -1.1489 -0.1337
  539MOL0     C72643   6.268   3.667   2.264  0.1006  0.4534 -0.2714
  539MOL0     C72644   6.234   3.659   2.115 -0.2820  0.6518  0.3230
  539MOL0     C72645   6.119   3.569   2.079 -0.0868 -0.6432 -0.1146
  539MOL0     C72646   6.140   3.513   1.931  1.9537 -0.5669  0.3235
  539MOL0     N72647   6.124   3.633   1.845  0.0380  0.7362 -0.6572
  539MOL0     C72648   6.205   3.678   1.746 -0.0961  0.0069  0.0334
  539MOL0     C72649   6.138   3.777   1.679  0.2439  0.5391 -0.1045
  539MOL0     C72650   6.171   3.858   1.551 -0.2996  0.1777  0.4807
  539MOL0     C72651   6.300   3.915   1.587  0.0200 -0.5306 -0.3305
  539MOL0     C72652   6.355   3.995   1.470  0.9453  0.5296 -0.1727
  539MOL0     C72653   6.475   4.067   1.532  0.3849  0.0352 -0.1176
  539MOL0     O72654   6.577   3.968   1.559  0.3275 -1.0230 -0.3381
  539MOL0     C72655   6.695   4.014   1.622 -0.0672  0.2043 -0.0243
  539MOL0     C72656   6.740   4.149   1.625 -0.3283 -0.4727 -0.0029
  539MOL0     C72657   6.870   4.192   1.674  0.4892 -0.7672 -0.6204
  539MOL0     C72658   6.965   4.094   1.692  0.6238 -1.0113  0.1298
  539MOL0     C72659   7.108   4.134   1.746  0.7307 -0.6072  0.0054
  539MOL0     O72660   7.122   4.254   1.813  0.2947  0.0498 -0.5647
  539MOL0     C72661   7.248   4.283   1.854 -0.1864 -0.1976  0.3332
  539MOL0     C72662   7.357   4.294   1.771  0.6647 -0.0338  0.4328
  539MOL0     C72663   7.472   4.348   1.822 -0.2111 -0.4396  0.5629
  539MOL0     C72664   7.496   4.376   1.963  0.2727 -0.7718  0.3248
  539MOL0     O72665   7.614   4.424   2.024  0.8293 -0.4698  0.0158
  539MOL0     C72666   7.735   4.398   1.953 -0.1424 -0.3323 -0.1905
  539MOL0     C72667   7.863   4.430   2.032 -1.1155 -0.3480 -0.2687
  539MOL0     C72668   7.864   4.360   2.168  0.7243 -0.1428  0.5429
  539MOL0     C72669   7.980   4.375   2.271  0.4731 -0.3897  0.4755
  539MOL0     C72670   8.128   4.381   2.209  0.3528  0.6341  0.1553
  539MOL0     C72671   8.220   4.352   2.321 -0.2874 -0.2481  0.0742
  539MOL0     C72672   8.344   4.286   2.278 -0.3422  1.5292  0.4831
  539MOL0     C72673   8.455   4.303   2.380  0.7408  0.3233 -0.9621
  539MOL0    Cl72674   8.580   4.176   2.348 -0.3162 -0.3925  0.1746
  539MOL0     C72675   7.385   4.370   2.044 -0.5474 -0.0845  0.4716
  539MOL0     C72676   7.266   4.317   1.989  0.2446  0.2043  0.5930
  539MOL0     O72677   7.184   4.037   1.739 -0.5325 -0.2802  0.4046
  539MOL0     C72678   6.935   3.954   1.658 -0.1751 -1.4188 -0.3886
  539MOL0     C72679   6.797   3.919   1.634 -0.7384 -0.5175 -0.1930
  539MOL0     N72680   6.014   3.790   1.734 -0.3509  0.2673  0.0220
  539MOL0     N72681   6.002   3.702   1.837  0.1746  0.4825 -0.0706
  539MOL0     C72682   5.571   3.854   2.652  0.1175 -0.4960  0.2700
  539MOL0     C72683   5.432   3.844   2.664 -0.8702  0.0515 -0.5860
  539MOL0     C72684   4.999   3.765   2.569 -0.7121  0.6427  0.3169
  539MOL0     C72685   4.965   3.632   2.545 -0.1614  0.2682  0.1376
  539MOL0     C72686   4.845   3.592   2.484  0.2035 -0.5963 -0.5503
  539MOL0     C72687   4.747   3.680   2.475 -0.8712  0.1187 -0.4874
  539MOL0     O72688   4.626   3.639   2.427 -0.1135  0.1530  0.4857
  539MOL0     C72689   4.540   3.733   2.371  0.0110 -0.3244  0.5565
  539MOL0     C72690   4.423   3.659   2.303 -1.1746 -0.4676 -0.3976
  539MOL0     C72691   4.486   3.585   2.176 -0.0657 -0.1273  1.1209
  539MOL0     C72692   4.386   3.513   2.094 -0.1316  0.0452 -0.1419
  539MOL0     C72693   4.285   3.601   2.038  0.2066 -0.4825 -0.1085
  539MOL0     C72694   4.215   3.671   1.971  0.4812 -0.5111 -0.9323
  539MOL0     C72695   4.771   3.810   2.530 -0.2411 -0.1476  0.8474
  539MOL0     C72696   4.898   3.859   2.552  0.0708 -0.2678  0.9942
  539MOL0     C72697   4.905   4.007   2.585 -1.2115 -0.6538  0.8322
  539MOL0     H72698   5.412   3.592   2.434 -2.3498  0.6526  0.7535
  539MOL0     H72699   5.631   3.607   2.430 -0.0877  0.0550  0.7304
  539MOL0     H72700   5.875   3.708   2.398 -0.7924 -0.0280  0.5774
  539MOL0     H72701   5.813   3.878   2.388 -0.5908 -0.4915  1.5670
  539MOL0     H72702   6.053   3.815   2.566  0.9986  0.1365  0.7274
  539MOL0     H72703   6.011   3.966   2.489 -0.3878 -1.0573 -0.9368
  539MOL0     H72704   6.179   3.892   2.358 -1.1741  1.2111 -0.5725
  539MOL0     H72705   6.042   3.839   2.258 -1.6841 -1.5846  0.1978
  539MOL0     H72706   6.194   3.665   2.456 -1.3144 -0.4802  0.4828
  539MOL0     H72707   6.072   3.607   2.348 -0.7725 -0.4246 -2.5296
  539MOL0     H72708   6.339   3.747   2.288  0.8094 -0.1237 -0.3969
  539MOL0     H72709   6.322   3.574   2.287 -0.1359  0.7169  1.5180
  539MOL0     H72710   6.216   3.759   2.075 -2.8691 -0.5343 -1.7924
  539MOL0     H72711   6.322   3.628   2.058  0.9843 -1.1293  3.0148
  539MOL0     H72712   6.026   3.623   2.098 -1.2958 -2.6416 -0.0452
  539MOL0     H72713   6.121   3.476   2.136  0.8664  0.8978  2.5526
  539MOL0     H72714   6.227   3.451   1.909  2.0707 -0.1746 -0.3413
  539MOL0     H72715   6.055   3.448   1.908  1.1736  0.5689 -0.1033
  539MOL0     H72716   6.308   3.644   1.736  0.2947  0.2080  2.5441
  539MOL0     H72717   6.168   3.786   1.469 -3.5596  1.9051 -1.1083
  539MOL0     H72718   6.086   3.926   1.537 -0.5053 -0.1831 -0.0321
  539MOL0     H72719   6.286   3.975   1.678  0.8152  0.5744 -0.9002
  539MOL0     H72720   6.365   3.830   1.608  0.4634  0.2261  1.6698
  539MOL0     H72721   6.286   4.063   1.420  1.2283 -0.6882 -2.3303
  539MOL0     H72722   6.396   3.929   1.393 -1.9451 -2.7434  0.8618
  539MOL0     H72723   6.453   4.107   1.631  0.2390  0.0006 -0.1358
  539MOL0     H72724   6.501   4.146   1.461 -0.6571 -0.9774 -1.6901
  539MOL0     H72725   6.678   4.230   1.586 -0.0326 -0.0296  0.4333
  539MOL0     H72726   6.898   4.296   1.678 -1.5260 -0.1678 -0.7360
  539MOL0     H72727   7.340   4.276   1.666  0.8992 -0.1285  0.4103
  539MOL0     H72728   7.561   4.356   1.759  0.9272 -0.1424  2.1349
  539MOL0     H72729   7.740   4.292   1.926  2.1798 -0.1250 -0.8070
  539MOL0     H72730   7.742   4.451   1.858  2.3719  1.8493  1.0770
  539MOL0     H72731   7.958   4.408   1.983 -1.1665 -1.3426  0.0553
  539MOL0     H72732   7.856   4.537   2.051 -2.1965 -0.0949 -1.9024
  539MOL0     H72733   7.776   4.397   2.221 -1.1805 -2.5784 -0.7701
  539MOL0     H72734   7.846   4.253   2.159  3.3139 -0.8949  2.8238
  539MOL0     H72735   7.964   4.290   2.338  2.8347  0.1309  1.7747
  539MOL0     H72736   7.951   4.468   2.320 -0.4850 -1.1539  1.4237
  539MOL0     H72737   8.153   4.475   2.158  0.8866  0.4150  0.0116
  539MOL0     H72738   8.131   4.309   2.127  0.4566  0.3007  0.4533
  539MOL0     H72739   8.240   4.446   2.373 -3.3017  0.5858 -0.1002
  539MOL0     H72740   8.168   4.298   2.400  1.8114  0.2123  1.9017
  539MOL0     H72741   8.381   4.326   2.183 -0.1672 -0.6404 -0.4124
  539MOL0     H72742   8.322   4.181   2.260  0.6193  1.2847  0.6931
  539MOL0     H72743   8.500   4.400   2.357  0.4182  0.0243 -3.0235
  539MOL0     H72744   8.416   4.290   2.481 -1.6128 -4.1507 -2.1720
  539MOL0     H72745   7.385   4.384   2.152  0.6016  1.4447  0.3103
  539MOL0     H72746   7.176   4.314   2.051  1.8787  2.1061  3.2786
  539MOL0     H72747   7.010   3.876   1.658  2.2719  0.6823 -3.4887
  539MOL0     H72748   6.777   3.814   1.621 -2.2242 -0.5987  2.2076
  539MOL0     H72749   5.624   3.932   2.706  0.3821 -2.7089  3.5020
  539MOL0     H72750   5.383   3.897   2.745  0.4073  0.5114 -0.0952
  539MOL0     H72751   5.033   3.556   2.582  1.5223  1.9950  0.7515
  539MOL0     H72752   4.835   3.488   2.454 -1.3562  0.0417 -2.4904
  539MOL0     H72753   4.587   3.798   2.297  1.6648 -0.4251  1.4512
  539MOL0     H72754   4.490   3.792   2.449  1.8756 -1.7730  3.0362
  539MOL0     H72755   4.359   3.731   2.251 -0.9627 -0.5256 -0.7488
  539MOL0     H72756   4.376   3.585   2.369 -1.8587  0.7500  0.5181
  539MOL0     H72757   4.553   3.503   2.202  1.7801 -0.0968 -2.7858
  539MOL0     H72758   4.547   3.648   2.110 -3.2528  0.9648 -0.9894
  539MOL0     H72759   4.442   3.462   2.015  0.6644 -0.3068  0.6416
  539MOL0     H72760   4.330   3.430   2.137  2.6767 -2.7091 -1.4200
  539MOL0     H72761   4.147   3.735   1.917  0.1527 -2.9126 -3.5853
  539MOL0     H72762   4.685   3.873   2.553 -1.5144 -1.6499  0.3247
  539MOL0     H72763   4.818   4.055   2.539 -2.7040 -4.1016 -0.2493
  539MOL0     H72764   4.906   4.032   2.692 -3.7873  0.2596  0.7253
  539MOL0     H72765   4.989   4.055   2.534 -1.9542 -1.4465 -1.2346
  540MOL0     O72766  10.375   1.104   6.595 -0.1430  0.1685  0.1828
  540MOL0     C72767  10.439   1.016   6.546  0.1653  0.6269  1.0308
  540MOL0     O72768  10.566   1.039   6.511 -0.9434  0.1846 -0.6457
  540MOL0     C72769  10.607   1.163   6.487  0.3890  0.0176  1.0104
  540MOL0     C72770  10.567   1.219   6.361 -0.6492 -0.3506  0.1023
  540MOL0     C72771  10.606   1.354   6.334 -0.3006  0.0974 -1.1765
  540MOL0     C72772  10.672   1.431   6.437 -0.4031 -0.2769 -0.6974
  540MOL0     O72773  10.706   1.560   6.431 -0.0303 -0.1576 -0.5350
  540MOL0     C72774  10.615   1.653   6.368 -0.1514 -0.4402  0.5870
  540MOL0     C72775  10.624   1.797   6.424 -0.9356  0.1825 -0.2480
  540MOL0     C72776  10.521   1.796   6.538 -0.8883  0.0219 -0.0050
  540MOL0     C72777  10.528   1.929   6.618  0.0063 -0.3512  1.0881
  540MOL0     C72778  10.437   1.937   6.740  0.9974  0.6113  0.2028
  540MOL0     C72779  10.288   1.916   6.704 -0.6461 -0.2588 -0.0233
  540MOL0     C72780  10.222   2.031   6.630  0.3897 -1.1209 -0.6873
  540MOL0     C72781  10.184   2.002   6.482  0.9676 -0.4381  0.5214
  540MOL0     N72782  10.056   1.924   6.500 -0.3635 -0.4347  0.1710
  540MOL0     C72783   9.992   1.865   6.398  0.0545 -0.0534 -0.5943
  540MOL0     C72784   9.859   1.857   6.432 -0.4279 -0.1131 -0.8297
  540MOL0     C72785   9.750   1.809   6.338  0.3934  0.2637 -0.2975
  540MOL0     C72786   9.759   1.657   6.311 -0.3502  0.1424 -0.4640
  540MOL0     C72787   9.764   1.574   6.441  0.1425  0.2912 -0.0322
  540MOL0     C72788   9.635   1.575   6.518 -0.0975  0.0211  0.8102
  540MOL0     O72789   9.545   1.485   6.451 -0.2767 -0.0804  0.0703
  540MOL0     C72790   9.422   1.453   6.505  0.1119 -0.4780 -0.1958
  540MOL0     C72791   9.330   1.378   6.434 -0.0436  0.2642  0.5990
  540MOL0     C72792   9.201   1.347   6.472  0.1246 -0.3648 -0.5546
  540MOL0     C72793   9.155   1.379   6.598 -1.0976  0.0011 -0.1754
  540MOL0     C72794   9.027   1.340   6.649  0.9144  0.5924 -0.8887
  540MOL0     O72795   9.011   1.325   6.781  0.9167 -0.1981 -0.4360
  540MOL0     C72796   8.889   1.284   6.834 -0.9907  0.9304 -0.2826
  540MOL0     C72797   8.880   1.148   6.847  0.7680  0.2233  0.1430
  540MOL0     C72798   8.753   1.083   6.880  0.0889 -0.0399 -0.2109
  540MOL0     C72799   8.636   1.152   6.920 -0.5673 -0.4234  0.2545
  540MOL0     O72800   8.523   1.090   6.962  0.5378 -0.0850  0.1097
  540MOL0     C72801   8.492   0.962   6.895 -0.3658  0.0557 -0.3464
  540MOL0     C72802   8.339   0.954   6.894  0.2657 -0.2762 -0.4790
  540MOL0     C72803   8.272   1.033   6.776 -0.2042 -0.5690  0.0944
  540MOL0     C72804   8.356   1.041   6.656  0.0005 -0.1749  0.0766
  540MOL0     C72805   8.282   1.107   6.536 -0.4186  0.4094 -0.4221
  540MOL0     C72806   8.314   1.250   6.510 -0.5029  0.1237  0.0679
  540MOL0     C72807   8.293   1.362   6.630  0.2026  0.2891 -0.3957
  540MOL0     C72808   8.273   1.501   6.589 -0.2816 -0.4350 -0.2662
  540MOL0    Cl72809   8.124   1.535   6.499  0.1640 -0.3470  0.4684
  540MOL0     C72810   8.650   1.294   6.924  0.1757 -0.1184  0.2934
  540MOL0     C72811   8.778   1.355   6.878 -0.4618 -0.8853  0.4064
  540MOL0     O72812   8.944   1.307   6.571  0.2298 -0.5687 -0.0100
  540MOL0     C72813   9.230   1.479   6.669  0.4149  0.6074  0.1457
  540MOL0     C72814   9.363   1.512   6.622  0.2501 -0.1604 -0.7221
  540MOL0     N72815   9.843   1.888   6.567 -0.1770 -0.9487 -0.4878
  540MOL0     N72816   9.968   1.928   6.607  0.0776  0.0227  1.0224
  540MOL0     C72817  10.694   1.374   6.567  0.1213 -1.0918  0.2689
  540MOL0     C72818  10.670   1.244   6.582 -0.3897  0.3573 -0.0029
  540MOL0     C72819  10.376   0.880   6.542 -0.4745  0.3373  0.1841
  540MOL0     C72820  10.466   0.769   6.525  0.5512  0.0581  0.2743
  540MOL0     C72821  10.413   0.635   6.525  0.0543 -0.3521  1.1132
  540MOL0     C72822  10.276   0.615   6.547 -0.2698  0.2212  0.1803
  540MOL0     O72823  10.220   0.492   6.567  0.4689 -0.1455  0.2388
  540MOL0     C72824  10.188   0.437   6.435  0.8280  0.1187  0.0735
  540MOL0     C72825  10.065   0.345   6.439 -1.0188  0.5093  0.1349
  540MOL0     C72826   9.936   0.407   6.483 -0.6007 -0.1832 -0.7074
  540MOL0     C72827   9.806   0.321   6.456  0.9469 -0.4926 -0.9957
  540MOL0     C72828   9.769   0.316   6.318  0.4051  1.1336 -0.0506
  540MOL0     C72829   9.732   0.291   6.205  0.5383 -0.5188  0.6244
  540MOL0     C72830  10.195   0.721   6.572 -0.1251  0.2646 -0.6153
  540MOL0     C72831  10.242   0.854   6.576 -0.1842  0.3719  0.0717
  540MOL0     C72832  10.141   0.953   6.626 -0.3741 -0.2317 -0.2521
  540MOL0     H72833  10.508   1.159   6.292 -0.8049  0.1515 -0.2091
  540MOL0     H72834  10.585   1.388   6.234 -0.5041  0.5715 -0.9738
  540MOL0     H72835  10.632   1.668   6.262 -1.3911  0.0735  0.4438
  540MOL0     H72836  10.512   1.614   6.373  0.4510 -2.6491 -1.9114
  540MOL0     H72837  10.592   1.867   6.346  0.1712 -1.3933 -2.2022
  540MOL0     H72838  10.728   1.824   6.448 -0.3575 -0.3901 -1.9819
  540MOL0     H72839  10.548   1.716   6.606  3.2438  1.6222  0.5433
  540MOL0     H72840  10.421   1.771   6.503 -0.6215 -1.4172  0.2154
  540MOL0     H72841  10.629   1.943   6.657 -0.5751  0.7704  2.2857
  540MOL0     H72842  10.505   2.010   6.549 -2.2943 -1.3717  0.5561
  540MOL0     H72843  10.468   1.860   6.812  1.4767  0.9170  0.3316
  540MOL0     H72844  10.450   2.034   6.789  0.5713  0.0688  1.4338
  540MOL0     H72845  10.253   1.824   6.657  0.0246  0.5294 -2.2238
  540MOL0     H72846  10.252   1.933   6.806 -0.0920  2.3470 -0.1908
  540MOL0     H72847  10.282   2.122   6.634 -1.1626 -0.0858  1.7192
  540MOL0     H72848  10.139   2.055   6.697 -1.0206 -0.8803 -2.4491
  540MOL0     H72849  10.157   2.095   6.430 -0.6690 -1.3264 -0.3057
  540MOL0     H72850  10.259   1.947   6.425 -0.6597 -0.4506 -1.7579
  540MOL0     H72851  10.029   1.845   6.298 -1.1068 -0.0061 -1.0487
  540MOL0     H72852   9.653   1.829   6.385  1.1980 -1.2701  2.1889
  540MOL0     H72853   9.741   1.858   6.240  4.2404  4.3013  1.0228
  540MOL0     H72854   9.677   1.639   6.240  0.4067  0.4354 -1.4262
  540MOL0     H72855   9.851   1.640   6.255  1.9819  2.4759  2.2815
  540MOL0     H72856   9.842   1.609   6.510 -1.8585  1.1037  1.9239
  540MOL0     H72857   9.792   1.475   6.404  1.5339  2.3222 -5.4224
  540MOL0     H72858   9.593   1.674   6.538 -1.8837 -1.1054  3.2129
  540MOL0     H72859   9.656   1.534   6.617 -0.2735 -0.3337  0.7016
  540MOL0     H72860   9.367   1.336   6.341  0.4758  1.1503  0.3940
  540MOL0     H72861   9.146   1.278   6.408 -0.1729 -2.4466  1.7880
  540MOL0     H72862   8.961   1.085   6.810  2.4229  2.0351  0.5134
  540MOL0     H72863   8.745   0.977   6.903 -2.9431  0.2688  0.5115
  540MOL0     H72864   8.543   0.949   6.799 -0.4602 -4.8588  0.0286
  540MOL0     H72865   8.537   0.884   6.958  1.2049  1.4105  0.2916
  540MOL0     H72866   8.317   0.848   6.882 -3.4792 -0.0376  2.4584
  540MOL0     H72867   8.292   0.990   6.986 -0.0458  0.3406 -0.8701
  540MOL0     H72868   8.166   1.005   6.767 -0.9052  0.2046  3.9843
  540MOL0     H72869   8.260   1.137   6.808  2.0191 -0.1129 -0.3944
  540MOL0     H72870   8.373   0.935   6.635  1.6487 -0.5524  2.8770
  540MOL0     H72871   8.452   1.089   6.675  1.3527 -3.0174  0.8989
  540MOL0     H72872   8.173   1.099   6.545 -0.5010 -1.5981 -2.2229
  540MOL0     H72873   8.307   1.045   6.449 -2.2290 -1.5612  0.3459
  540MOL0     H72874   8.416   1.252   6.470 -0.3094 -1.0695  0.4623
  540MOL0     H72875   8.246   1.285   6.432 -0.7318 -0.9943 -0.2627
  540MOL0     H72876   8.383   1.344   6.690 -1.0592 -2.9752  0.7868
  540MOL0     H72877   8.222   1.326   6.704  1.7681 -5.2890 -1.0955
  540MOL0     H72878   8.271   1.551   6.686  1.9219 -1.2361  0.2402
  540MOL0     H72879   8.357   1.537   6.529  1.0595 -0.9447  1.2404
  540MOL0     H72880   8.571   1.365   6.944  2.0719  2.3835 -0.5131
  540MOL0     H72881   8.766   1.460   6.854  2.1750 -0.3970  0.9514
  540MOL0     H72882   9.196   1.535   6.756  1.5454  0.4218  0.7307
  540MOL0     H72883   9.423   1.581   6.680 -0.7221  2.0542 -2.1819
  540MOL0     H72884  10.724   1.425   6.658  0.1154 -2.4094  1.0358
  540MOL0     H72885  10.675   1.199   6.681  0.7543  1.4050  0.4440
  540MOL0     H72886  10.569   0.795   6.501  0.3404  2.1303  1.3588
  540MOL0     H72887  10.483   0.553   6.519 -0.9711 -1.1855  0.1393
  540MOL0     H72888  10.270   0.376   6.398  1.9661  0.3808  1.9903
  540MOL0     H72889  10.165   0.519   6.366 -3.5930 -1.5008 -0.7222
  540MOL0     H72890  10.092   0.263   6.505  3.8314  1.9451  0.3191
  540MOL0     H72891  10.045   0.318   6.335  0.1910 -1.1593  0.3049
  540MOL0     H72892   9.941   0.502   6.429 -1.3525 -0.6143 -1.5671
  540MOL0     H72893   9.943   0.426   6.591  1.2200 -1.8765 -0.4880
  540MOL0     H72894   9.813   0.218   6.489 -0.7748 -1.1170 -2.3793
  540MOL0     H72895   9.720   0.365   6.508  2.0571  0.4772  0.0666
  540MOL0     H72896   9.717   0.274   6.100  0.8704  2.6846 -0.0426
  540MOL0     H72897  10.090   0.717   6.597 -0.2051  2.8345 -0.2802
  540MOL0     H72898  10.101   1.017   6.547 -1.5656 -0.3656  0.2193
  540MOL0     H72899  10.059   0.902   6.678 -2.2688  3.2714  0.5232
  540MOL0     H72900  10.183   1.022   6.700  2.0074 -0.2280 -1.5165
  541MOL0     O72901   0.748   0.282   8.421 -0.3144 -0.4947  0.3923
  541MOL0     C72902   0.724   0.402   8.396  0.5672  0.3054  0.1220
  541MOL0     O72903   0.615   0.451   8.330  0.5666  0.9382 -0.0307
  541MOL0     C72904   0.495   0.388   8.325 -0.1290  0.5113  0.3430
  541MOL0     C72905   0.400   0.470   8.285 -1.0796 -0.2064 -0.1545
  541MOL0     C72906   0.268   0.424   8.272 -0.3206  0.4637  0.4920
  541MOL0     C72907   0.241   0.289   8.291 -0.5901 -0.0527  0.2850
  541MOL0     O72908   0.110   0.256   8.276  0.6079  0.4355 -0.1131
  541MOL0     C72909   0.066   0.132   8.333 -0.8463  0.4344 -0.0368
  541MOL0     C72910  -0.075   0.091   8.303 -0.1676  0.6569  0.6776
  541MOL0     C72911  -0.175   0.192   8.370 -0.4789 -0.3814 -0.1115
  541MOL0     C72912  -0.313   0.120   8.355 -0.1319 -0.2006  0.0867
  541MOL0     C72913  -0.421   0.197   8.432  0.1057 -0.3889  0.1170
  541MOL0     C72914  -0.560   0.145   8.428  0.1615 -0.0087 -0.4890
  541MOL0     C72915  -0.650   0.250   8.495 -0.4822  0.0702 -0.4800
  541MOL0     C72916  -0.764   0.172   8.561  0.4395 -0.9196 -0.3290
  541MOL0     N72917  -0.878   0.261   8.606 -0.2308  0.0987  0.5925
  541MOL0     C72918  -0.998   0.203   8.650 -0.4810  0.1503  0.2406
  541MOL0     C72919  -1.073   0.308   8.674 -0.0370  1.3453 -0.0369
  541MOL0     C72920  -1.211   0.284   8.724  0.1094 -0.1517 -0.1883
  541MOL0     C72921  -1.224   0.285   8.876 -0.0983  0.3196  0.3252
  541MOL0     C72922  -1.197   0.430   8.915  1.1489  0.4738  0.3652
  541MOL0     C72923  -1.204   0.436   9.069 -0.6666  0.0358 -0.3776
  541MOL0     O72924  -1.080   0.395   9.133  0.1579 -0.2431  0.6194
  541MOL0     C72925  -1.066   0.409   9.264 -0.2017 -0.3753 -0.3412
  541MOL0     C72926  -1.157   0.472   9.354 -0.1682 -0.3389  0.6438
  541MOL0     C72927  -1.116   0.497   9.489  0.3727 -0.7254  0.6363
  541MOL0     C72928  -0.990   0.457   9.539  0.1342  0.0283  1.3002
  541MOL0     C72929  -0.940   0.479   9.675 -0.3192  0.3772 -0.7282
  541MOL0     O72930  -0.802   0.455   9.699 -0.1320 -0.4896  0.3874
  541MOL0     C72931  -0.750   0.438   9.820 -0.0202 -0.0321 -1.4988
  541MOL0     C72932  -0.811   0.384   9.927  0.1641 -0.0711 -0.3321
  541MOL0     C72933  -0.741   0.381  10.047  1.0052 -0.6391 -0.1655
  541MOL0     C72934  -0.609   0.422  10.052  0.2679  0.2199 -0.4433
  541MOL0     O72935  -0.554   0.410  10.177  0.3688 -0.1678  0.3449
  541MOL0     C72936  -0.507   0.277  10.191  0.8138 -0.3938 -0.2452
  541MOL0     C72937  -0.543   0.218  10.325 -0.1836  0.6168  0.6562
  541MOL0     C72938  -0.514   0.067  10.329 -0.0271 -0.1032  0.2099
  541MOL0     C72939  -0.594   0.002  10.442  0.8110  0.2899 -0.9429
  541MOL0     C72940  -0.554  -0.154  10.443 -0.0440 -0.2854  0.4127
  541MOL0     C72941  -0.609  -0.218  10.568 -0.1592 -0.1929 -0.4509
  541MOL0     C72942  -0.755  -0.248  10.586  0.3286 -0.4513 -1.2761
  541MOL0     C72943  -0.812  -0.335  10.478 -0.0892  0.1513  0.8515
  541MOL0    Cl72944  -0.979  -0.382  10.507 -0.3486  0.0550 -0.0031
  541MOL0     C72945  -0.540   0.470   9.940  1.2521  0.0573 -0.8356
  541MOL0     C72946  -0.612   0.474   9.824  1.3050 -0.6865 -0.5850
  541MOL0     O72947  -1.026   0.505   9.761 -0.4472 -0.4187 -0.7994
  541MOL0     C72948  -0.916   0.367   9.452 -0.1093 -1.0664 -0.3014
  541MOL0     C72949  -0.952   0.348   9.320  0.1989 -0.2796 -0.4732
  541MOL0     N72950  -1.006   0.422   8.644  0.4821 -0.4312 -1.8257
  541MOL0     N72951  -0.884   0.394   8.612 -0.7859 -1.3982 -0.7082
  541MOL0     C72952   0.341   0.199   8.316 -0.3334  0.7758 -0.7078
  541MOL0     C72953   0.470   0.246   8.334  0.1359 -0.5444  1.0919
  541MOL0     C72954   0.840   0.493   8.436 -0.9341  0.3210 -0.0825
  541MOL0     C72955   0.943   0.436   8.517  0.1721 -0.3599  0.0399
  541MOL0     C72956   1.054   0.507   8.555 -0.0045  0.1023  1.1849
  541MOL0     C72957   1.063   0.640   8.535 -0.3660 -0.1836  0.6291
  541MOL0     O72958   1.172   0.701   8.601 -0.5643 -0.1950 -0.3144
  541MOL0     C72959   1.196   0.849   8.582  0.3021  0.1885 -0.4306
  541MOL0     C72960   1.333   0.893   8.642 -1.4990  0.3334 -0.5536
  541MOL0     C72961   1.450   0.792   8.630  0.4127  0.8805  0.3879
  541MOL0     C72962   1.566   0.840   8.710 -0.4465 -0.0391 -0.2701
  541MOL0     C72963   1.691   0.809   8.651 -0.2820 -0.2245  0.5944
  541MOL0     C72964   1.798   0.787   8.598  0.0872 -0.9092 -0.2291
  541MOL0     C72965   0.960   0.702   8.459 -0.0901  0.3877  0.1551
  541MOL0     C72966   0.848   0.627   8.402  1.0896 -0.1369 -0.7423
  541MOL0     C72967   0.754   0.698   8.310  0.5790 -0.7596 -0.9668
  541MOL0     H72968   0.422   0.573   8.258 -1.1030  0.0568  0.7800
  541MOL0     H72969   0.188   0.496   8.259 -1.4412 -0.8334 -0.0004
  541MOL0     H72970   0.127   0.048   8.297  1.0471  1.0691  1.5393
  541MOL0     H72971   0.087   0.130   8.440  1.6804  1.3853 -0.4403
  541MOL0     H72972  -0.079  -0.009   8.347  0.8242 -0.1851 -1.0335
  541MOL0     H72973  -0.090   0.077   8.195  1.8644  2.5601  0.0542
  541MOL0     H72974  -0.175   0.290   8.321 -1.6519 -0.8801 -1.1850
  541MOL0     H72975  -0.150   0.203   8.476  1.4864  3.5537 -0.8029
  541MOL0     H72976  -0.338   0.112   8.248  0.0244 -2.1916  0.1558
  541MOL0     H72977  -0.306   0.016   8.390 -0.8124 -0.4951 -0.6103
  541MOL0     H72978  -0.387   0.206   8.536  2.0922  3.6292 -0.6728
  541MOL0     H72979  -0.418   0.300   8.397 -0.8283 -1.2225 -2.7252
  541MOL0     H72980  -0.598   0.124   8.328 -2.0305  0.5647  0.1826
  541MOL0     H72981  -0.562   0.048   8.478  2.2220 -0.0047 -0.3094
  541MOL0     H72982  -0.688   0.330   8.431  0.4701 -0.1542 -1.3560
  541MOL0     H72983  -0.602   0.289   8.586 -1.0842 -0.3021  0.0054
  541MOL0     H72984  -0.807   0.101   8.489 -1.6664  1.2785 -1.3753
  541MOL0     H72985  -0.732   0.110   8.646  2.1090  2.3547  1.6053
  541MOL0     H72986  -1.019   0.096   8.655  1.1500 -0.2641 -1.2052
  541MOL0     H72987  -1.271   0.362   8.677  0.2263  0.2523  0.3161
  541MOL0     H72988  -1.260   0.190   8.695  0.3519 -0.2381 -0.3171
  541MOL0     H72989  -1.325   0.253   8.904 -1.2728  1.4858 -2.2995
  541MOL0     H72990  -1.146   0.223   8.921 -1.0755 -1.4360 -0.2966
  541MOL0     H72991  -1.275   0.492   8.869  2.0370  0.3030 -1.4597
  541MOL0     H72992  -1.101   0.464   8.875  1.9978 -3.2284 -1.1731
  541MOL0     H72993  -1.278   0.367   9.111  3.3310 -3.9138  0.9736
  541MOL0     H72994  -1.224   0.541   9.092  3.0269  0.7322  0.2416
  541MOL0     H72995  -1.249   0.510   9.312  2.4273  1.3850 -4.3642
  541MOL0     H72996  -1.163   0.564   9.559 -1.6741 -3.7464  2.3862
  541MOL0     H72997  -0.917   0.358   9.929  0.4991 -1.4156  1.2349
  541MOL0     H72998  -0.780   0.369  10.147  1.3854 -1.0208 -0.0584
  541MOL0     H72999  -0.556   0.222  10.110 -0.4741 -1.5550  1.2573
  541MOL0     H73000  -0.399   0.274  10.178  0.7337 -1.2790 -0.7760
  541MOL0     H73001  -0.483   0.273  10.399  0.9876 -0.4512  0.5450
  541MOL0     H73002  -0.651   0.230  10.333 -0.6634 -0.4664 -2.7084
  541MOL0     H73003  -0.541   0.021  10.233  2.0274  1.0900 -1.0089
  541MOL0     H73004  -0.407   0.060  10.350  0.0377  1.5214  0.5492
  541MOL0     H73005  -0.698   0.003  10.410  1.1527 -0.6417 -2.1502
  541MOL0     H73006  -0.573   0.037  10.543 -2.5054  0.2645 -0.1583
  541MOL0     H73007  -0.445  -0.159  10.440  0.0218  1.1747 -0.5944
  541MOL0     H73008  -0.583  -0.203  10.350  1.0065 -0.7890  0.3340
  541MOL0     H73009  -0.556  -0.313  10.571 -1.4184 -0.9597 -1.4774
  541MOL0     H73010  -0.579  -0.154  10.652  1.1562 -0.7140 -0.5006
  541MOL0     H73011  -0.806  -0.152  10.593  3.7790  1.4049  2.6061
  541MOL0     H73012  -0.768  -0.302  10.680  1.1267 -0.1263 -0.9808
  541MOL0     H73013  -0.806  -0.287  10.380 -1.6909  1.4166  1.3319
  541MOL0     H73014  -0.747  -0.424  10.477  0.5359  0.5715  2.1587
  541MOL0     H73015  -0.433   0.491   9.941  1.1853  0.4175 -1.3047
  541MOL0     H73016  -0.560   0.510   9.735  1.5515 -3.3524 -1.6253
  541MOL0     H73017  -0.820   0.324   9.478  1.3443 -0.9318 -4.6331
  541MOL0     H73018  -0.888   0.292   9.252 -0.7385  2.2526 -3.7321
  541MOL0     H73019   0.328   0.093   8.293  1.1889  0.5137 -0.4527
  541MOL0     H73020   0.539   0.163   8.340 -0.3229 -1.2247 -1.7336
  541MOL0     H73021   0.942   0.335   8.556 -0.3665  0.0670  1.1848
  541MOL0     H73022   1.140   0.466   8.607 -0.1874  1.0193  2.2632
  541MOL0     H73023   1.117   0.911   8.624  1.0705  0.8861  0.0302
  541MOL0     H73024   1.199   0.852   8.472 -0.6101 -1.9129 -0.5519
  541MOL0     H73025   1.317   0.915   8.748 -0.7547  2.8937 -0.9161
  541MOL0     H73026   1.367   0.984   8.594 -0.1814  0.0597 -0.1824
  541MOL0     H73027   1.474   0.782   8.523  0.4431  0.3228  0.4414
  541MOL0     H73028   1.426   0.694   8.674  2.3970  0.0818 -0.1955
  541MOL0     H73029   1.568   0.949   8.707 -0.7049 -0.0536 -1.2511
  541MOL0     H73030   1.560   0.801   8.813  1.2526  2.8249  1.0378
  541MOL0     H73031   1.888   0.786   8.541  1.2379 -1.5964  1.5276
  541MOL0     H73032   0.996   0.801   8.432  1.9697 -0.5107 -0.5568
  541MOL0     H73033   0.747   0.642   8.216  0.6489 -1.4184 -0.5846
  541MOL0     H73034   0.653   0.708   8.352  0.8669  0.6593 -0.5621
  541MOL0     H73035   0.791   0.797   8.280 -0.1851 -0.7170 -1.8289
  542MOL0     O73036   4.448   1.775   8.214 -0.1412 -0.4272  0.6021
  542MOL0     C73037   4.539   1.756   8.134  0.6708 -0.0917  1.6487
  542MOL0     O73038   4.632   1.656   8.132 -0.0488 -0.2992 -0.0819
  542MOL0     C73039   4.620   1.563   8.230  0.4392 -0.0428  0.0697
  542MOL0     C73040   4.611   1.429   8.184  1.1606 -0.3907 -0.2003
  542MOL0     C73041   4.590   1.333   8.281  0.3245 -0.7439  0.9379
  542MOL0     C73042   4.576   1.364   8.418 -0.5923 -0.3825 -0.0442
  542MOL0     O73043   4.553   1.273   8.521 -0.3366 -0.2671  0.2795
  542MOL0     C73044   4.611   1.139   8.491 -0.2163  0.2770 -0.0761
  542MOL0     C73045   4.628   1.056   8.619  0.6964  0.4395  0.9539
  542MOL0     C73046   4.768   0.991   8.640 -0.9819  0.4039  0.3925
  542MOL0     C73047   4.765   0.920   8.778  0.1121 -0.9466 -0.6612
  542MOL0     C73048   4.895   0.846   8.821  0.5251 -0.1245 -0.2671
  542MOL0     C73049   4.852   0.709   8.883 -0.6457 -0.7986 -0.4395
  542MOL0     C73050   4.947   0.670   8.990 -0.1260 -0.3172  0.0515
  542MOL0     C73051   4.937   0.519   9.029 -0.1177 -0.7532 -0.3057
  542MOL0     N73052   4.968   0.499   9.169 -0.3555  0.1203 -0.9309
  542MOL0     C73053   5.059   0.417   9.234 -0.0441 -0.0763 -0.5527
  542MOL0     C73054   5.039   0.438   9.369 -0.1904  0.2647 -0.3843
  542MOL0     C73055   5.120   0.348   9.461 -0.1886 -0.6554  0.5370
  542MOL0     C73056   5.260   0.413   9.488  0.6148  0.7231 -0.2793
  542MOL0     C73057   5.275   0.488   9.631 -0.2146 -0.2496 -0.1176
  542MOL0     C73058   5.157   0.574   9.669 -0.7637  0.0205  0.4009
  542MOL0     O73059   5.174   0.654   9.788 -0.3493  0.6916  0.3318
  542MOL0     C73060   5.136   0.602   9.916  0.1832 -0.1488 -0.2659
  542MOL0     C73061   5.113   0.467   9.948 -0.0327 -0.4187  0.5819
  542MOL0     C73062   5.062   0.441  10.073 -0.4967 -0.3729 -0.2194
  542MOL0     C73063   5.050   0.539  10.181 -0.6906 -0.1193 -0.8567
  542MOL0     C73064   4.987   0.509  10.314  0.4547  0.4722 -0.5503
  542MOL0     O73065   4.897   0.591  10.371  0.0936 -0.1089 -0.2566
  542MOL0     C73066   4.804   0.545  10.459 -0.3524  0.4457 -0.4080
  542MOL0     C73067   4.694   0.462  10.434  0.1805 -0.0142  0.9134
  542MOL0     C73068   4.614   0.408  10.535 -0.3439 -0.2524 -0.4465
  542MOL0     C73069   4.634   0.451  10.667 -1.3682 -0.9063  0.1000
  542MOL0     O73070   4.549   0.400  10.758  0.0554 -0.2228  0.1883
  542MOL0     C73071   4.559   0.466  10.880  0.5907  0.2011 -1.2583
  542MOL0     C73072   4.441   0.411  10.963  0.4374  0.4075  1.0502
  542MOL0     C73073   4.398   0.507  11.070  0.2042 -0.4755  0.0553
  542MOL0     C73074   4.390   0.437  11.199  0.0310  0.3150 -0.2411
  542MOL0     C73075   4.358   0.536  11.319  0.0497 -0.6748 -0.7412
  542MOL0     C73076   4.223   0.598  11.302 -0.7723 -0.4608 -0.1305
  542MOL0     C73077   4.111   0.499  11.270 -0.0422 -0.2555  0.1033
  542MOL0     C73078   3.966   0.543  11.289 -0.3123 -0.5465 -1.2832
  542MOL0    Cl73079   3.952   0.685  11.168 -0.1750 -0.0471 -0.0231
  542MOL0     C73080   4.755   0.526  10.704 -0.4173  0.6744 -0.1712
  542MOL0     C73081   4.836   0.571  10.596  0.7516 -0.8745  0.5033
  542MOL0     O73082   5.010   0.394  10.350  0.6076  0.0259  0.0393
  542MOL0     C73083   5.081   0.666  10.134 -0.2784  0.9286  0.3745
  542MOL0     C73084   5.124   0.695  10.012  0.7245  0.3314  0.7860
  542MOL0     N73085   4.927   0.515   9.385  0.3556  0.4970 -0.2006
  542MOL0     N73086   4.894   0.555   9.267  0.6424 -1.0975  0.3014
  542MOL0     C73087   4.592   1.490   8.460 -0.9105  0.8009 -0.1800
  542MOL0     C73088   4.611   1.595   8.365 -0.1723  0.5650 -0.1996
  542MOL0     C73089   4.566   1.852   8.020  0.0043  0.1201 -0.4088
  542MOL0     C73090   4.669   1.824   7.923  0.5169  0.8014  0.2209
  542MOL0     C73091   4.702   1.905   7.821  0.0615  0.3370  0.3079
  542MOL0     C73092   4.645   2.035   7.820  0.3061  0.3371 -0.1893
  542MOL0     O73093   4.679   2.125   7.721  0.0068 -0.1479  0.9817
  542MOL0     C73094   4.800   2.117   7.642 -0.7093  0.2502 -0.0604
  542MOL0     C73095   4.821   2.252   7.571  0.7702 -0.2063 -0.1322
  542MOL0     C73096   4.932   2.258   7.477  0.2269  0.3956 -0.5290
  542MOL0     C73097   5.005   2.389   7.496 -0.6896 -0.0434 -0.7487
  542MOL0     C73098   5.103   2.403   7.385  0.4900  0.1906 -0.7465
  542MOL0     C73099   5.168   2.388   7.283 -0.0913 -0.2380  0.7363
  542MOL0     C73100   4.551   2.075   7.913  0.9363  0.3389 -0.1410
  542MOL0     C73101   4.500   1.981   8.011 -1.0517  0.7870  0.1242
  542MOL0     C73102   4.394   2.046   8.095 -1.7101  0.9037  0.7971
  542MOL0     H73103   4.617   1.404   8.079 -0.5420  4.7998 -1.8674
  542MOL0     H73104   4.590   1.232   8.242 -2.6907  0.0665 -1.6116
  542MOL0     H73105   4.549   1.079   8.424  1.3896 -2.4466  0.6913
  542MOL0     H73106   4.706   1.137   8.436 -0.9765 -1.3448 -1.4303
  542MOL0     H73107   4.544   0.987   8.620 -1.8238  3.2576 -0.5478
  542MOL0     H73108   4.608   1.137   8.691 -2.1467  0.8498 -0.1891
  542MOL0     H73109   4.841   1.072   8.646  0.6703 -1.0990  2.3353
  542MOL0     H73110   4.795   0.918   8.563  0.2719 -0.5167  1.6533
  542MOL0     H73111   4.744   0.995   8.855 -1.0006 -2.3535  0.4558
  542MOL0     H73112   4.678   0.855   8.779 -1.0527  0.5236 -1.5960
  542MOL0     H73113   4.960   0.827   8.736  0.5123  0.1346 -0.3369
  542MOL0     H73114   4.940   0.900   8.905  0.6124  3.6180 -2.4906
  542MOL0     H73115   4.752   0.727   8.924 -0.6023  0.4678 -0.8356
  542MOL0     H73116   4.848   0.625   8.814  0.2888 -1.4144  0.2277
  542MOL0     H73117   4.936   0.719   9.087  0.1089 -2.3761  1.1768
  542MOL0     H73118   5.039   0.688   8.933 -0.6512  1.9461 -0.1610
  542MOL0     H73119   4.839   0.475   9.010  0.0736 -1.2038 -0.2561
  542MOL0     H73120   5.004   0.457   8.969 -0.1446 -0.1727 -0.9441
  542MOL0     H73121   5.138   0.351   9.199  1.4882  0.2172  2.0848
  542MOL0     H73122   5.056   0.331   9.549  1.5154  1.0387  2.2082
  542MOL0     H73123   5.131   0.259   9.399 -1.8047 -0.5787  0.0893
  542MOL0     H73124   5.335   0.333   9.481  0.2623  0.4055 -0.4470
  542MOL0     H73125   5.275   0.484   9.406 -3.8195 -0.3050 -2.3007
  542MOL0     H73126   5.360   0.558   9.633  0.5065 -1.1093  1.5438
  542MOL0     H73127   5.295   0.418   9.713  0.9092 -0.1314 -0.2679
  542MOL0     H73128   5.076   0.501   9.673  2.1891 -3.6976 -1.6776
  542MOL0     H73129   5.117   0.628   9.583  0.2090  1.9912  1.1058
  542MOL0     H73130   5.121   0.388   9.874  1.3682 -1.2933  1.6115
  542MOL0     H73131   5.037   0.342  10.110 -0.2470 -0.1071  0.6641
  542MOL0     H73132   4.679   0.417  10.336 -1.1709 -1.6276  1.8118
  542MOL0     H73133   4.520   0.356  10.517 -0.3283 -0.8736  1.1308
  542MOL0     H73134   4.658   0.452  10.924  2.1497  2.2026 -3.8378
  542MOL0     H73135   4.545   0.573  10.861 -1.8151 -0.2843 -2.5951
  542MOL0     H73136   4.358   0.390  10.894  0.1131 -2.3715  2.1348
  542MOL0     H73137   4.470   0.313  11.004 -3.4884 -1.0160  0.8748
  542MOL0     H73138   4.472   0.586  11.089 -0.2211 -0.4070  1.5057
  542MOL0     H73139   4.305   0.555  11.039  2.7707  3.2558 -2.9317
  542MOL0     H73140   4.486   0.391  11.224 -0.3817 -1.0677 -1.0819
  542MOL0     H73141   4.307   0.368  11.187 -0.6299  1.2939 -1.5555
  542MOL0     H73142   4.429   0.618  11.329  0.1853 -1.0563  2.4753
  542MOL0     H73143   4.357   0.470  11.407 -3.5764  2.1928  1.6978
  542MOL0     H73144   4.189   0.650  11.391  1.2232 -0.8601  0.9336
  542MOL0     H73145   4.234   0.677  11.227 -2.4619 -0.0543  0.0262
  542MOL0     H73146   4.128   0.416  11.339 -0.1853 -0.8492 -0.5615
  542MOL0     H73147   4.118   0.455  11.170  0.2429  0.5373 -0.2310
  542MOL0     H73148   3.901   0.460  11.261 -1.0070  0.2683 -2.1353
  542MOL0     H73149   3.955   0.595  11.384  0.9079 -4.2277  1.0730
  542MOL0     H73150   4.785   0.548  10.806  0.0822  0.0604 -0.1747
  542MOL0     H73151   4.930   0.624  10.599 -0.4956  1.6031 -1.0534
  542MOL0     H73152   5.070   0.750  10.202 -2.1075  2.5584 -1.7569
  542MOL0     H73153   5.139   0.798   9.982  2.3608  0.3977  1.7047
  542MOL0     H73154   4.582   1.503   8.568  1.5535 -0.6186  0.2823
  542MOL0     H73155   4.627   1.699   8.392 -2.9246  1.4940 -1.7700
  542MOL0     H73156   4.713   1.726   7.913 -0.3909  0.1414  2.1011
  542MOL0     H73157   4.763   1.861   7.743  0.4354 -0.1668  0.8656
  542MOL0     H73158   4.800   2.036   7.569  1.8205  0.4534 -0.3755
  542MOL0     H73159   4.887   2.090   7.702  0.4564 -0.2574 -1.8731
  542MOL0     H73160   4.825   2.333   7.644  3.5801  1.4388 -1.9223
  542MOL0     H73161   4.730   2.278   7.515  1.2748  0.8633 -0.4858
  542MOL0     H73162   4.907   2.232   7.373  2.1504 -1.3087 -0.6223
  542MOL0     H73163   4.997   2.177   7.511  2.1718  2.0856 -0.0788
  542MOL0     H73164   4.935   2.474   7.502  1.3110  1.6068  0.7869
  542MOL0     H73165   5.056   2.386   7.592  1.7111  1.0729 -1.9026
  542MOL0     H73166   5.202   2.378   7.182 -1.6802  0.1537  0.1230
  542MOL0     H73167   4.489   2.164   7.906  0.6544  0.0095 -2.9786
  542MOL0     H73168   4.359   1.986   8.180  2.2360 -1.0433  1.2923
  542MOL0     H73169   4.445   2.138   8.125  1.2746  0.6034 -2.6978
  542MOL0     H73170   4.321   2.075   8.020  1.3677  0.3713 -2.6683
  543MOL0     O73171   7.542   3.703   7.300  0.1730  0.3738  0.4622
  543MOL0     C73172   7.575   3.817   7.269 -0.2314 -0.3830 -0.2159
  543MOL0     O73173   7.665   3.856   7.175 -0.6327 -0.5158  0.9190
  543MOL0     C73174   7.745   3.751   7.133 -0.5131  0.2653  0.4659
  543MOL0     C73175   7.848   3.692   7.204  1.0419  0.1103  0.6506
  543MOL0     C73176   7.919   3.581   7.147 -0.5513  0.1993 -0.2042
  543MOL0     C73177   7.885   3.523   7.027 -0.1902  0.7440  0.4420
  543MOL0     O73178   7.945   3.400   6.999  0.2966 -0.0795  0.1203
  543MOL0     C73179   7.979   3.378   6.855  0.0481 -1.5024  0.0859
  543MOL0     C73180   8.102   3.458   6.815  0.0575 -0.8259 -0.4490
  543MOL0     C73181   8.210   3.415   6.914 -0.2405  0.6921 -0.2434
  543MOL0     C73182   8.335   3.513   6.906 -0.1433  0.0727 -0.0112
  543MOL0     C73183   8.445   3.446   7.001  0.1307 -0.0136  0.2225
  543MOL0     C73184   8.521   3.332   6.935  0.2037 -0.2524  0.3843
  543MOL0     C73185   8.613   3.254   7.038 -0.2172 -1.0481 -0.2081
  543MOL0     C73186   8.749   3.326   7.079 -0.6603  0.2748 -0.6845
  543MOL0     N73187   8.842   3.231   7.137 -0.9195  0.6919 -0.1257
  543MOL0     C73188   8.799   3.125   7.213 -0.1641 -0.1534 -0.1382
  543MOL0     C73189   8.905   3.037   7.207 -0.0992 -0.1050 -0.3174
  543MOL0     C73190   8.906   2.891   7.263 -0.1037 -0.9548 -0.5890
  543MOL0     C73191   9.022   2.855   7.354  0.3543 -0.4260 -0.1441
  543MOL0     C73192   8.985   2.733   7.439  0.2925 -0.4971  0.2093
  543MOL0     C73193   9.104   2.646   7.460 -0.1989 -0.0383 -0.2619
  543MOL0     O73194   9.172   2.598   7.343  0.3518  0.6592 -0.7022
  543MOL0     C73195   9.288   2.530   7.372  0.7163 -0.3106 -0.1033
  543MOL0     C73196   9.366   2.497   7.267  0.5147 -0.6675 -0.5821
  543MOL0     C73197   9.490   2.432   7.278  0.3007 -0.4163 -0.6117
  543MOL0     C73198   9.551   2.416   7.405 -0.1551  0.2810  0.5607
  543MOL0     C73199   9.687   2.359   7.416 -0.5769 -0.5804  0.5289
  543MOL0     O73200   9.735   2.292   7.309  0.0054 -0.4120  0.1932
  543MOL0     C73201   9.860   2.244   7.312 -0.8931 -0.2589 -0.3623
  543MOL0     C73202   9.936   2.312   7.221  0.3899  0.6824 -0.0701
  543MOL0     C73203  10.068   2.275   7.210 -0.2073  0.3267  0.1052
  543MOL0     C73204  10.121   2.168   7.289 -0.0083 -0.3029 -1.1497
  543MOL0     O73205  10.251   2.129   7.296  0.6065 -0.2836 -0.0088
  543MOL0     C73206  10.357   2.228   7.290 -0.0353 -0.0178  0.3031
  543MOL0     C73207  10.407   2.250   7.146 -0.3860  0.0994  0.8440
  543MOL0     C73208  10.564   2.242   7.146  0.4670 -0.7700  0.8613
  543MOL0     C73209  10.602   2.091   7.127  0.1315 -0.4033 -0.8255
  543MOL0     C73210  10.758   2.072   7.127 -0.4330 -0.0782  0.8016
  543MOL0     C73211  10.818   2.103   6.997 -0.2501 -0.0224 -0.0880
  543MOL0     C73212  10.969   2.123   6.988 -0.2280 -0.1102 -0.6240
  543MOL0     C73213  11.058   2.001   6.956  0.7782  0.9576 -0.1757
  543MOL0    Cl73214  11.224   2.052   6.982 -0.4656  0.5878  0.1926
  543MOL0     C73215  10.039   2.109   7.389 -0.6834  0.4655  1.2467
  543MOL0     C73216   9.911   2.153   7.401 -0.3548 -0.3264 -0.6182
  543MOL0     O73217   9.762   2.393   7.512  0.6078  0.3002  0.1025
  543MOL0     C73218   9.474   2.446   7.515 -0.6529 -0.5046  0.6436
  543MOL0     C73219   9.349   2.513   7.497  0.1180 -0.3257  0.3011
  543MOL0     N73220   9.011   3.100   7.145 -0.2803  0.4356 -0.3317
  543MOL0     N73221   8.975   3.213   7.098  0.0519 -0.1616 -0.8529
  543MOL0     C73222   7.784   3.578   6.953  0.4817  0.2545 -0.1307
  543MOL0     C73223   7.736   3.704   6.997  0.3501  0.8663 -0.0907
  543MOL0     C73224   7.494   3.936   7.323  0.4547  0.1159 -0.1166
  543MOL0     C73225   7.538   4.071   7.291 -0.4227 -0.6020  0.4698
  543MOL0     C73226   7.464   4.183   7.313  0.5104  0.0863  0.1834
  543MOL0     C73227   7.342   4.171   7.382  0.6036  0.4677  0.2229
  543MOL0     O73228   7.279   4.290   7.407 -0.5294 -0.5528 -0.3018
  543MOL0     C73229   7.136   4.285   7.425  0.9156 -0.1819 -0.2916
  543MOL0     C73230   7.080   4.425   7.427 -0.3173  0.2104 -0.2441
  543MOL0     C73231   7.147   4.515   7.532 -0.1597  0.5017 -0.4698
  543MOL0     C73232   7.093   4.659   7.535  0.2779  0.3599  0.0166
  543MOL0     C73233   6.941   4.653   7.538 -0.5437 -0.1259 -0.1398
  543MOL0     C73234   6.820   4.655   7.536  0.0197 -0.6373 -0.5529
  543MOL0     C73235   7.299   4.048   7.417 -0.0251  1.2495  0.1612
  543MOL0     C73236   7.377   3.931   7.398  0.4580 -0.2128  0.7959
  543MOL0     C73237   7.305   3.806   7.449  0.0045 -0.3184  0.3476
  543MOL0     H73238   7.880   3.741   7.295  0.1528  0.9583  0.5305
  543MOL0     H73239   7.993   3.524   7.203 -1.5165 -2.0411 -1.0701
  543MOL0     H73240   8.010   3.277   6.827  0.0308 -1.5366  0.1903
  543MOL0     H73241   7.891   3.413   6.800  0.7354 -0.3277 -0.3118
  543MOL0     H73242   8.090   3.567   6.823  0.5022 -0.7660 -0.5805
  543MOL0     H73243   8.132   3.430   6.714 -3.0745 -1.1416 -1.4027
  543MOL0     H73244   8.239   3.315   6.881  0.5721  0.3962  1.2746
  543MOL0     H73245   8.180   3.414   7.019  1.1029  1.9027  0.1897
  543MOL0     H73246   8.370   3.534   6.804 -1.0147 -0.3002 -0.4004
  543MOL0     H73247   8.308   3.612   6.942  2.0515  0.4052  0.8678
  543MOL0     H73248   8.525   3.519   7.018 -0.5016  0.2052  2.6482
  543MOL0     H73249   8.410   3.421   7.102 -1.4552 -1.2924 -0.6044
  543MOL0     H73250   8.459   3.250   6.897  2.5053 -1.6907 -0.4263
  543MOL0     H73251   8.565   3.373   6.844 -0.5768 -0.3570 -0.0474
  543MOL0     H73252   8.639   3.163   6.982  3.4827 -0.5565  0.4710
  543MOL0     H73253   8.557   3.221   7.125  0.4968 -2.3338 -0.2129
  543MOL0     H73254   8.795   3.382   6.998 -0.4121 -0.8716 -1.3572
  543MOL0     H73255   8.720   3.398   7.156 -0.8369  0.8555 -1.2906
  543MOL0     H73256   8.699   3.107   7.251  0.3512 -0.5139  1.1011
  543MOL0     H73257   8.805   2.880   7.305 -1.0292  3.8994 -0.9749
  543MOL0     H73258   8.923   2.830   7.174  2.4613  1.2596 -1.7321
  543MOL0     H73259   9.110   2.827   7.297 -0.8603 -0.1615 -2.2351
  543MOL0     H73260   9.035   2.941   7.420 -1.1435  1.0912 -1.7215
  543MOL0     H73261   8.915   2.670   7.383  0.0227  0.8922 -1.0553
  543MOL0     H73262   8.939   2.761   7.535 -1.4458 -0.1588 -0.6817
  543MOL0     H73263   9.081   2.556   7.517 -0.2686 -1.1819 -2.0417
  543MOL0     H73264   9.169   2.696   7.533  0.3759 -3.1732  1.5497
  543MOL0     H73265   9.337   2.511   7.164  1.8156 -2.5881 -1.2650
  543MOL0     H73266   9.526   2.410   7.178 -3.2265  3.1031 -2.9522
  543MOL0     H73267   9.900   2.392   7.157 -1.4241 -0.7590 -0.9447
  543MOL0     H73268  10.132   2.316   7.133 -1.1350 -1.3773 -1.6637
  543MOL0     H73269  10.319   2.314   7.347  0.0781 -1.2737  2.3758
  543MOL0     H73270  10.435   2.185   7.354  2.2547  0.5088 -1.9687
  543MOL0     H73271  10.372   2.161   7.092  1.2764 -1.1300  1.7007
  543MOL0     H73272  10.379   2.346   7.102  1.4686  0.5474  0.5459
  543MOL0     H73273  10.595   2.299   7.058  0.3761 -2.0754 -0.0455
  543MOL0     H73274  10.607   2.280   7.239  1.5755  1.2185 -0.3694
  543MOL0     H73275  10.562   2.060   7.030 -0.0380  2.0618 -1.6015
  543MOL0     H73276  10.552   2.027   7.201  2.2938 -1.9155 -0.5456
  543MOL0     H73277  10.778   1.964   7.126 -1.0162 -0.2218 -1.4102
  543MOL0     H73278  10.813   2.114   7.211 -0.3098  0.2372  0.5682
  543MOL0     H73279  10.792   2.027   6.922  3.6139 -3.0257  1.2628
  543MOL0     H73280  10.783   2.200   6.961 -0.0677 -0.0341 -0.3027
  543MOL0     H73281  11.010   2.169   7.078  2.6195 -2.3796 -0.6360
  543MOL0     H73282  10.988   2.188   6.903  2.3355 -0.6988 -0.5660
  543MOL0     H73283  11.032   1.915   7.019  0.8131  0.7284 -0.4710
  543MOL0     H73284  11.032   1.970   6.854 -3.8907 -0.9238  1.2838
  543MOL0     H73285  10.082   2.028   7.447  3.5342 -0.1430 -2.2317
  543MOL0     H73286   9.851   2.104   7.477 -0.1249  0.8345  0.3563
  543MOL0     H73287   9.508   2.443   7.618  2.3368 -1.4347 -0.2550
  543MOL0     H73288   9.301   2.553   7.586 -2.3808 -0.3103 -0.9961
  543MOL0     H73289   7.748   3.547   6.855 -2.6413  1.6753  0.4491
  543MOL0     H73290   7.681   3.772   6.932 -1.5172 -1.4266 -1.0721
  543MOL0     H73291   7.626   4.099   7.234 -1.5165 -0.4162 -1.2049
  543MOL0     H73292   7.499   4.284   7.291  1.7278 -0.3819 -0.0824
  543MOL0     H73293   7.120   4.239   7.523  0.9044  2.8199  1.2367
  543MOL0     H73294   7.088   4.222   7.350 -1.3041 -0.7936  1.5157
  543MOL0     H73295   6.974   4.408   7.451  0.2498 -2.1440  0.8730
  543MOL0     H73296   7.089   4.455   7.322 -1.9973 -0.7938 -0.7185
  543MOL0     H73297   7.254   4.513   7.507  0.0053 -2.1171  0.1782
  543MOL0     H73298   7.133   4.459   7.625 -0.6922 -1.8044 -1.8499
  543MOL0     H73299   7.141   4.711   7.618  1.3729 -1.2451  0.4469
  543MOL0     H73300   7.119   4.717   7.447 -0.1568  2.7707  1.3893
  543MOL0     H73301   6.713   4.652   7.545  0.1207 -1.6020  0.5539
  543MOL0     H73302   7.206   4.045   7.474 -0.4484 -3.6338 -0.3533
  543MOL0     H73303   7.363   3.715   7.438 -0.7965 -0.7420 -0.4342
  543MOL0     H73304   7.275   3.823   7.553 -1.0338  1.0188 -0.1281
  543MOL0     H73305   7.208   3.796   7.399 -0.9520  1.9509  1.5825
  544MOL0     O73306   5.158   3.345   2.736  0.1213  0.1587  0.0523
  544MOL0     C73307   5.158   3.295   2.851  0.2610 -0.5146  0.6629
  544MOL0     O73308   5.258   3.303   2.948  0.4287 -0.0407  0.0236
  544MOL0     C73309   5.389   3.336   2.922 -0.2141  0.4760 -1.0469
  544MOL0     C73310   5.486   3.292   3.015 -1.0951 -0.4280 -0.5609
  544MOL0     C73311   5.620   3.347   3.011  0.9749  0.4625  0.8933
  544MOL0     C73312   5.658   3.432   2.902 -0.5305 -0.0613  0.3284
  544MOL0     O73313   5.781   3.479   2.906 -0.0865 -0.2189 -0.6135
  544MOL0     C73314   5.819   3.608   2.856  0.1168 -0.2977 -0.2187
  544MOL0     C73315   5.960   3.651   2.878 -1.0576 -0.1215 -0.2589
  544MOL0     C73316   6.057   3.533   2.843 -0.3321  0.0381 -0.1654
  544MOL0     C73317   6.201   3.548   2.912  0.0671 -0.2039  0.1506
  544MOL0     C73318   6.196   3.549   3.067 -1.4132 -1.1564 -0.6424
  544MOL0     C73319   6.332   3.558   3.132 -0.5760 -0.0505  0.9369
  544MOL0     C73320   6.420   3.682   3.094  1.3748  0.8910 -0.2369
  544MOL0     C73321   6.572   3.668   3.112  0.2654 -0.0676 -0.2670
  544MOL0     N73322   6.603   3.574   3.224  0.1526 -0.3470 -0.9523
  544MOL0     C73323   6.593   3.606   3.356 -0.1105  0.5972  0.5050
  544MOL0     C73324   6.679   3.518   3.421 -0.2223 -0.6503 -0.3019
  544MOL0     C73325   6.731   3.502   3.567  0.1432 -1.5458  0.1794
  544MOL0     C73326   6.878   3.547   3.574  0.1793  0.1252 -0.0898
  544MOL0     C73327   6.905   3.697   3.550  0.2168  0.1024  0.2817
  544MOL0     C73328   7.045   3.730   3.568 -0.0084 -0.0942  0.3305
  544MOL0     O73329   7.064   3.865   3.552  0.0769  0.8584 -0.6755
  544MOL0     C73330   7.184   3.922   3.575 -1.1720 -0.6932 -0.0053
  544MOL0     C73331   7.297   3.836   3.588 -0.1065 -0.0354 -0.1391
  544MOL0     C73332   7.412   3.899   3.624  0.0789 -0.2160  0.1279
  544MOL0     C73333   7.426   4.042   3.657 -0.1391  0.5737  0.8861
  544MOL0     C73334   7.561   4.089   3.704  0.7996  0.2233  0.3967
  544MOL0     O73335   7.574   4.217   3.730 -0.0413 -0.0888 -0.0496
  544MOL0     C73336   7.701   4.255   3.738  0.0184 -0.3734  0.1949
  544MOL0     C73337   7.780   4.304   3.630 -0.8492 -0.3555  0.3726
  544MOL0     C73338   7.918   4.351   3.646  0.4581  0.7925  0.1968
  544MOL0     C73339   7.977   4.331   3.773  1.4453 -0.2628  0.3088
  544MOL0     O73340   8.105   4.354   3.809  0.3687  0.4910 -0.1895
  544MOL0     C73341   8.199   4.369   3.702  0.0320 -0.0474  0.4315
  544MOL0     C73342   8.331   4.386   3.773 -0.0998  0.5683  0.8775
  544MOL0     C73343   8.439   4.455   3.681 -0.3901 -0.7078  0.0993
  544MOL0     C73344   8.576   4.453   3.734 -0.2798  0.0739 -0.1042
  544MOL0     C73345   8.662   4.556   3.668 -0.1215  0.8044  0.0858
  544MOL0     C73346   8.805   4.561   3.727  0.2762  0.4526 -0.3103
  544MOL0     C73347   8.887   4.679   3.665 -0.3178  0.0711  0.4034
  544MOL0     C73348   9.036   4.677   3.716 -0.1506  0.5437 -0.1622
  544MOL0    Cl73349   9.040   4.713   3.894  0.1769  0.0938  0.4336
  544MOL0     C73350   7.889   4.292   3.874 -0.8186 -0.4351 -0.3350
  544MOL0     C73351   7.758   4.252   3.859  0.4129 -0.2868 -0.5632
  544MOL0     O73352   7.647   4.000   3.721 -0.4227  0.1897  0.2669
  544MOL0     C73353   7.316   4.119   3.623  0.4286 -0.8509 -0.3621
  544MOL0     C73354   7.200   4.056   3.582  0.7693 -0.9585  0.1994
  544MOL0     N73355   6.733   3.439   3.317 -0.1785  0.0483 -0.3396
  544MOL0     N73356   6.691   3.477   3.206 -0.2027 -0.4073 -0.2859
  544MOL0     C73357   5.559   3.474   2.812 -0.4257  0.5278  0.1094
  544MOL0     C73358   5.432   3.421   2.819 -0.9953 -0.3955  0.4632
  544MOL0     C73359   5.038   3.221   2.885  0.5726  0.1095  0.6115
  544MOL0     C73360   5.008   3.213   3.025 -0.6355  0.5081 -0.0347
  544MOL0     C73361   4.903   3.146   3.086  1.1144  0.3536  0.1764
  544MOL0     C73362   4.811   3.087   2.994  0.3832  0.8248  0.0826
  544MOL0     O73363   4.697   3.025   3.042  0.7402 -0.7485 -0.1606
  544MOL0     C73364   4.606   3.121   3.105 -0.7610 -0.1248  0.7576
  544MOL0     C73365   4.494   3.038   3.173 -0.4141 -1.3361  0.3008
  544MOL0     C73366   4.393   3.139   3.237 -0.0329  0.4336  0.2373
  544MOL0     C73367   4.315   3.222   3.131  0.1356  0.1139 -0.9794
  544MOL0     C73368   4.214   3.146   3.052 -0.4958  0.6423  0.6466
  544MOL0     C73369   4.147   3.067   2.981 -1.1033 -0.4508  0.0782
  544MOL0     C73370   4.849   3.089   2.857  0.3905  0.6301  0.1315
  544MOL0     C73371   4.958   3.151   2.800  0.2040  0.5975 -0.1634
  544MOL0     C73372   4.977   3.136   2.652 -0.4009  0.1706  0.3923
  544MOL0     H73373   5.456   3.233   3.100 -0.5234 -0.4066 -0.3399
  544MOL0     H73374   5.692   3.307   3.082 -0.0288 -1.0972  1.1078
  544MOL0     H73375   5.818   3.598   2.747 -2.2339  1.5642 -0.4548
  544MOL0     H73376   5.758   3.686   2.903 -1.0145 -0.9857 -0.5111
  544MOL0     H73377   5.972   3.668   2.985  0.6660  1.6178 -0.6685
  544MOL0     H73378   5.990   3.745   2.830  0.9799  1.3825  3.5332
  544MOL0     H73379   6.068   3.539   2.734  1.0089  1.7848  0.0142
  544MOL0     H73380   6.017   3.438   2.879  3.6870 -0.7149  3.0855
  544MOL0     H73381   6.270   3.471   2.877 -0.4647 -0.2725 -0.7716
  544MOL0     H73382   6.238   3.640   2.865  1.6286 -1.4345 -1.1329
  544MOL0     H73383   6.128   3.625   3.106  1.4609  0.4877  1.6062
  544MOL0     H73384   6.153   3.455   3.103 -2.5237 -0.3824  0.0875
  544MOL0     H73385   6.322   3.554   3.241  1.0432  2.8026  1.2962
  544MOL0     H73386   6.386   3.471   3.094  4.3716  3.4832 -1.2434
  544MOL0     H73387   6.378   3.764   3.152  0.7890 -0.0565  0.7190
  544MOL0     H73388   6.407   3.689   2.985  2.1505  2.1526 -0.2526
  544MOL0     H73389   6.609   3.637   3.013 -1.4341 -1.8655 -0.3897
  544MOL0     H73390   6.616   3.768   3.123 -0.4176  0.3764 -1.3872
  544MOL0     H73391   6.537   3.690   3.396 -1.1962 -0.2088  0.7217
  544MOL0     H73392   6.662   3.556   3.633 -2.1526 -0.5725 -2.8094
  544MOL0     H73393   6.735   3.397   3.598  2.0840 -2.4596 -2.7410
  544MOL0     H73394   6.911   3.519   3.675 -1.8386 -2.5379 -0.0584
  544MOL0     H73395   6.939   3.486   3.507  3.8356 -1.2165  3.9749
  544MOL0     H73396   6.843   3.761   3.613 -1.0591  0.4530 -1.2690
  544MOL0     H73397   6.867   3.727   3.452 -0.6850 -0.5605  0.4140
  544MOL0     H73398   7.105   3.689   3.486  0.4418  0.2376  0.4911
  544MOL0     H73399   7.092   3.700   3.662 -0.7487 -1.7478  0.2145
  544MOL0     H73400   7.304   3.728   3.579 -1.4137 -0.1150 -0.3833
  544MOL0     H73401   7.498   3.833   3.626 -0.8020 -1.3851  1.6707
  544MOL0     H73402   7.737   4.306   3.530 -0.0054 -1.3999 -0.0322
  544MOL0     H73403   7.976   4.395   3.565 -1.4565 -1.2014 -2.4181
  544MOL0     H73404   8.204   4.285   3.632 -0.6334 -0.3314  0.7129
  544MOL0     H73405   8.192   4.464   3.649 -2.0733 -0.8896 -0.9351
  544MOL0     H73406   8.314   4.445   3.863  0.2020  2.1365 -0.0435
  544MOL0     H73407   8.375   4.289   3.800 -0.1600  0.2834  0.0091
  544MOL0     H73408   8.430   4.394   3.590 -0.1036  0.8412 -1.0010
  544MOL0     H73409   8.416   4.558   3.654 -1.2516 -0.7618  0.6176
  544MOL0     H73410   8.612   4.349   3.733  4.4205  1.4809  0.3005
  544MOL0     H73411   8.572   4.459   3.843  2.1687 -2.2476  0.2276
  544MOL0     H73412   8.611   4.651   3.687 -0.4113  0.5344  0.6949
  544MOL0     H73413   8.672   4.530   3.563  1.7227 -2.5840  0.9416
  544MOL0     H73414   8.791   4.576   3.834 -0.9217  1.4920 -0.6018
  544MOL0     H73415   8.861   4.467   3.716  0.0778 -0.0062  2.0892
  544MOL0     H73416   8.851   4.779   3.688  2.3313  0.9336  1.1811
  544MOL0     H73417   8.889   4.678   3.555 -0.8593  1.1853  0.3697
  544MOL0     H73418   9.086   4.584   3.688  1.8488  1.6926 -0.5742
  544MOL0     H73419   9.091   4.762   3.673 -2.3017  1.1830 -1.8747
  544MOL0     H73420   7.916   4.284   3.979  2.9533  0.8968 -1.0196
  544MOL0     H73421   7.699   4.225   3.945  2.6196 -0.8437  0.8574
  544MOL0     H73422   7.330   4.226   3.640  3.3517 -1.3814  1.1523
  544MOL0     H73423   7.108   4.110   3.565 -0.8977 -4.2052 -2.1863
  544MOL0     H73424   5.570   3.536   2.724 -1.8841  1.4639  0.5510
  544MOL0     H73425   5.371   3.454   2.736  0.8698  1.8803 -0.0973
  544MOL0     H73426   5.062   3.270   3.101 -1.4342 -0.0021  0.9453
  544MOL0     H73427   4.883   3.154   3.193 -0.9327 -1.5368  0.0082
  544MOL0     H73428   4.571   3.192   3.029  1.8466  2.2395  1.5759
  544MOL0     H73429   4.664   3.182   3.176  0.1627 -0.3157  0.1883
  544MOL0     H73430   4.536   2.982   3.256 -0.3493 -0.0702  1.1545
  544MOL0     H73431   4.453   2.960   3.108 -0.3702 -0.2028 -1.1552
  544MOL0     H73432   4.448   3.212   3.297 -0.5395 -0.0152  1.2785
  544MOL0     H73433   4.325   3.085   3.305 -0.4575  0.3450 -0.2533
  544MOL0     H73434   4.252   3.293   3.185 -0.1659 -2.0114  1.6973
  544MOL0     H73435   4.382   3.278   3.065 -1.1311  1.7288 -0.9729
  544MOL0     H73436   4.099   3.004   2.909  0.5657  1.0082 -2.4546
  544MOL0     H73437   4.782   3.034   2.791  0.1529  1.6935 -0.5359
  544MOL0     H73438   5.021   3.226   2.608  1.4474  0.1342  2.0467
  544MOL0     H73439   5.056   3.064   2.633  0.0684  1.2208 -2.1478
  544MOL0     H73440   4.891   3.094   2.598 -1.7188  2.1160  0.8676
  545MOL0     O73441   2.566   2.784   0.163  0.0410 -0.2377  0.0853
  545MOL0     C73442   2.558   2.786   0.039 -0.1063 -0.1274  0.3442
  545MOL0     O73443   2.632   2.856  -0.048  0.4824 -0.5347 -0.2737
  545MOL0     C73444   2.688   2.968   0.005 -0.1687  0.9371  0.3053
  545MOL0     C73445   2.617   3.083   0.048 -0.6474  0.0397 -1.1221
  545MOL0     C73446   2.675   3.199   0.095 -0.2740  0.2119  0.3661
  545MOL0     C73447   2.817   3.204   0.092  0.1355  0.0173  0.7526
  545MOL0     O73448   2.896   3.311   0.135 -0.1034 -0.1023  0.5591
  545MOL0     C73449   2.833   3.425   0.193  0.9563  0.3850 -0.0946
  545MOL0     C73450   2.940   3.519   0.236  0.3123  0.3965  0.4695
  545MOL0     C73451   3.024   3.570   0.123 -0.4807 -0.1145  0.4876
  545MOL0     C73452   3.124   3.673   0.180  1.1276  0.5017  0.0596
  545MOL0     C73453   3.227   3.703   0.066 -0.9217 -0.4408 -0.1440
  545MOL0     C73454   3.322   3.584   0.042  0.0025 -0.6281  0.5194
  545MOL0     C73455   3.445   3.617  -0.045 -1.0023 -0.1204  1.0904
  545MOL0     C73456   3.540   3.498  -0.051 -0.9095  0.2393  0.3406
  545MOL0     N73457   3.630   3.483   0.062  1.6050  0.4341 -0.1037
  545MOL0     C73458   3.711   3.581   0.104 -0.1495 -0.1305 -0.2664
  545MOL0     C73459   3.777   3.526   0.210 -0.4004 -0.7183  0.9750
  545MOL0     C73460   3.894   3.579   0.297 -0.1706  0.8440 -0.4987
  545MOL0     C73461   4.026   3.594   0.222 -0.4129 -0.1746  0.0726
  545MOL0     C73462   4.133   3.647   0.314 -1.0150 -0.0605 -0.1687
  545MOL0     C73463   4.272   3.609   0.260 -0.7162  0.4426 -1.3086
  545MOL0     O73464   4.357   3.640   0.368 -0.1093  0.0829 -0.2445
  545MOL0     C73465   4.490   3.664   0.329 -0.3119 -0.2483  0.1513
  545MOL0     C73466   4.535   3.778   0.270 -0.8066 -0.2199  0.5540
  545MOL0     C73467   4.670   3.792   0.225 -0.2876 -0.7793 -0.1285
  545MOL0     C73468   4.760   3.686   0.221 -0.0186 -0.0987 -0.1580
  545MOL0     C73469   4.899   3.697   0.173 -0.1291 -0.6206 -0.1927
  545MOL0     O73470   4.992   3.611   0.223 -0.4714 -0.1570  0.6140
  545MOL0     C73471   5.127   3.636   0.190 -0.1383 -0.0978  0.0168
  545MOL0     C73472   5.192   3.755   0.220 -0.7031 -0.6034 -0.7016
  545MOL0     C73473   5.333   3.771   0.197 -1.0758 -0.6100 -0.1700
  545MOL0     C73474   5.406   3.661   0.149 -0.0817 -0.1524  0.6179
  545MOL0     O73475   5.537   3.687   0.156 -0.8020  0.3467  0.7291
  545MOL0     C73476   5.636   3.586   0.194  0.4396 -0.2054 -0.1561
  545MOL0     C73477   5.772   3.659   0.214 -0.6081 -1.3101  0.5197
  545MOL0     C73478   5.886   3.554   0.246 -0.2705  0.3122  0.2581
  545MOL0     C73479   6.036   3.604   0.240  0.2257  0.4233  0.3068
  545MOL0     C73480   6.134   3.482   0.254 -0.5823 -0.0405 -0.8178
  545MOL0     C73481   6.282   3.518   0.232 -0.3988  0.2254 -0.5679
  545MOL0     C73482   6.375   3.402   0.231  0.1271  0.6056  0.4049
  545MOL0     C73483   6.440   3.370   0.368  0.1802 -0.3168  0.4932
  545MOL0    Cl73484   6.547   3.484   0.455  0.1686 -0.0108  0.0115
  545MOL0     C73485   5.343   3.545   0.124 -0.4781  0.4247  0.4246
  545MOL0     C73486   5.206   3.534   0.148 -0.4579  0.0434 -0.7119
  545MOL0     O73487   4.918   3.792   0.090 -0.1089 -0.3319 -0.1761
  545MOL0     C73488   4.712   3.570   0.272 -0.1073 -0.7429  0.2142
  545MOL0     C73489   4.586   3.562   0.335 -0.8760 -0.0401 -0.7104
  545MOL0     N73490   3.726   3.402   0.231 -0.1717 -0.1117 -0.3238
  545MOL0     N73491   3.634   3.381   0.148 -0.1332  0.5058 -0.2427
  545MOL0     C73492   2.884   3.105   0.026  0.6963 -0.8869  0.3369
  545MOL0     C73493   2.829   2.979  -0.008  0.1698  0.5295  0.4781
  545MOL0     C73494   2.460   2.687  -0.025 -0.6153 -0.0244 -0.8128
  545MOL0     C73495   2.479   2.653  -0.154  0.5420 -0.4267  0.2926
  545MOL0     C73496   2.395   2.564  -0.219  0.2596 -0.3981 -0.1283
  545MOL0     C73497   2.285   2.514  -0.156 -0.4235  0.8755 -1.1603
  545MOL0     O73498   2.196   2.456  -0.245  0.4087  0.6050 -0.8843
  545MOL0     C73499   2.068   2.423  -0.195 -0.0143 -0.7824 -0.4505
  545MOL0     C73500   1.987   2.314  -0.274  0.3724 -0.0916 -0.7958
  545MOL0     C73501   1.957   2.348  -0.419  0.1031 -0.2933  0.4918
  545MOL0     C73502   1.856   2.253  -0.489  0.9155  0.6623  0.6630
  545MOL0     C73503   1.717   2.298  -0.481  0.7109 -0.2512 -0.7101
  545MOL0     C73504   1.601   2.345  -0.487  0.0611  0.0567  0.3828
  545MOL0     C73505   2.258   2.557  -0.024 -0.1217 -0.2845  0.3443
  545MOL0     C73506   2.345   2.638   0.045  0.5657 -0.5164  0.1805
  545MOL0     C73507   2.312   2.671   0.188 -0.8689  0.0936  0.4266
  545MOL0     H73508   2.509   3.080   0.050 -0.6237 -0.7010 -0.7547
  545MOL0     H73509   2.619   3.284   0.133 -0.6769 -1.1846  3.1801
  545MOL0     H73510   2.766   3.476   0.123 -0.2417 -1.9463 -0.7712
  545MOL0     H73511   2.760   3.408   0.273  1.8130 -2.5395  0.1875
  545MOL0     H73512   2.991   3.462   0.315 -1.0620  0.3846  1.3928
  545MOL0     H73513   2.892   3.604   0.285  0.0241  0.9211 -0.6913
  545MOL0     H73514   2.956   3.621   0.055  1.6397  2.4274  0.0857
  545MOL0     H73515   3.077   3.488   0.074 -1.3978 -1.8096  2.1976
  545MOL0     H73516   3.073   3.764   0.209 -2.3728 -0.4474 -2.4879
  545MOL0     H73517   3.179   3.637   0.268  1.2911  4.0685  1.5538
  545MOL0     H73518   3.162   3.721  -0.021 -2.6988 -3.2652  0.4395
  545MOL0     H73519   3.280   3.796   0.090 -2.6608  0.4681  0.3644
  545MOL0     H73520   3.351   3.539   0.137  3.0358  1.3373  0.6493
  545MOL0     H73521   3.270   3.514  -0.024  0.9414  0.7374 -1.8017
  545MOL0     H73522   3.483   3.712  -0.006 -2.9298  0.4271  1.7208
  545MOL0     H73523   3.416   3.640  -0.148 -3.2509  1.5395  2.0242
  545MOL0     H73524   3.480   3.407  -0.061 -2.6881  1.2994  1.0347
  545MOL0     H73525   3.603   3.503  -0.141 -0.4587  0.8193  0.6802
  545MOL0     H73526   3.720   3.683   0.069 -0.7972 -0.3903 -1.2262
  545MOL0     H73527   3.867   3.677   0.337  1.0648  1.4866 -1.2023
  545MOL0     H73528   3.906   3.519   0.388 -1.2824  0.5486 -0.5242
  545MOL0     H73529   4.061   3.496   0.190  1.6661  0.2173  0.9828
  545MOL0     H73530   4.006   3.670   0.145 -3.6447  0.1922  1.1247
  545MOL0     H73531   4.112   3.614   0.416 -2.6327  0.5870 -0.2597
  545MOL0     H73532   4.127   3.754   0.334 -1.1167 -0.1439  0.2655
  545MOL0     H73533   4.296   3.673   0.175 -1.4233  1.1885 -0.9629
  545MOL0     H73534   4.272   3.501   0.243  0.8809  0.7613 -3.7864
  545MOL0     H73535   4.468   3.863   0.264 -1.9817 -1.1876 -1.4489
  545MOL0     H73536   4.687   3.887   0.175  0.1042 -1.5112 -1.4224
  545MOL0     H73537   5.133   3.826   0.276 -1.4469 -0.7477 -1.2888
  545MOL0     H73538   5.386   3.863   0.220  3.8400 -2.4177 -2.7140
  545MOL0     H73539   5.605   3.542   0.289 -0.2448 -0.5220 -0.5200
  545MOL0     H73540   5.638   3.502   0.124  1.5059 -0.2758 -0.0546
  545MOL0     H73541   5.805   3.710   0.123 -1.3500 -1.1453  0.3298
  545MOL0     H73542   5.777   3.733   0.295  1.2423 -1.2846  0.4105
  545MOL0     H73543   5.862   3.504   0.340 -0.4641 -1.1180 -0.5307
  545MOL0     H73544   5.887   3.472   0.174 -0.8917  0.5319 -0.0132
  545MOL0     H73545   6.061   3.670   0.324  1.0264  0.4866  0.0218
  545MOL0     H73546   6.040   3.645   0.139 -2.7457 -1.1947 -0.5589
  545MOL0     H73547   6.103   3.401   0.188 -0.5594  0.2799 -1.2215
  545MOL0     H73548   6.127   3.445   0.357 -0.0555 -3.1118 -1.7877
  545MOL0     H73549   6.281   3.556   0.129 -1.2896 -1.2273 -1.1209
  545MOL0     H73550   6.316   3.591   0.307  0.5571  0.7616 -1.4961
  545MOL0     H73551   6.452   3.416   0.154  1.0380  3.3829  1.6943
  545MOL0     H73552   6.315   3.313   0.213 -1.7519  1.5744  1.5360
  545MOL0     H73553   6.359   3.341   0.436  0.3422  1.9617  1.7341
  545MOL0     H73554   6.507   3.286   0.346  0.0142 -0.2024 -0.4775
  545MOL0     H73555   5.405   3.474   0.070  2.3658  1.3305  2.3002
  545MOL0     H73556   5.155   3.440   0.132  0.9975 -0.5919 -1.8944
  545MOL0     H73557   4.784   3.489   0.273  0.0567 -0.8045 -3.7800
  545MOL0     H73558   4.546   3.471   0.378 -0.1664 -0.0463 -0.0417
  545MOL0     H73559   2.989   3.133   0.022  0.2336  0.9399  0.2595
  545MOL0     H73560   2.891   2.898  -0.043  0.2950 -0.4711  2.8502
  545MOL0     H73561   2.564   2.683  -0.214  0.9051 -1.1533  0.4347
  545MOL0     H73562   2.399   2.535  -0.323 -1.6317  1.3664 -0.7753
  545MOL0     H73563   2.014   2.518  -0.188 -1.3536 -1.5239 -0.4129
  545MOL0     H73564   2.074   2.369  -0.100 -1.5358  1.5557  1.0719
  545MOL0     H73565   1.890   2.297  -0.228  0.7513  0.4142  0.2185
  545MOL0     H73566   2.019   2.211  -0.257  0.7669  0.0442 -0.6987
  545MOL0     H73567   2.051   2.344  -0.476  0.0682  1.3826  0.2790
  545MOL0     H73568   1.931   2.454  -0.413 -1.1650 -0.6690  4.8663
  545MOL0     H73569   1.876   2.265  -0.595  0.3989 -0.0818  0.4737
  545MOL0     H73570   1.865   2.147  -0.460 -1.5831  0.1478 -0.2015
  545MOL0     H73571   1.503   2.385  -0.504 -0.0025  0.2314  1.1393
  545MOL0     H73572   2.162   2.524   0.015 -0.3450 -4.3486 -2.8606
  545MOL0     H73573   2.314   2.779   0.207 -0.5214  0.9177 -3.4487
  545MOL0     H73574   2.211   2.634   0.212 -2.1622  3.0198  0.0122
  545MOL0     H73575   2.374   2.618   0.260  0.4673 -0.3400 -1.0067
  546MOL0     O73576  10.165   8.861   4.004 -0.2036  0.4778  0.2494
  546MOL0     C73577  10.064   8.927   3.985  0.7108  0.1028  0.0541
  546MOL0     O73578  10.053   9.053   3.911  0.6589  0.7897 -0.2836
  546MOL0     C73579  10.165   9.117   3.855 -0.0362  0.1501  0.1322
  546MOL0     C73580  10.140   9.188   3.740  0.7350 -0.6675  0.0950
  546MOL0     C73581  10.250   9.241   3.671  0.0937  0.4794 -0.2547
  546MOL0     C73582  10.380   9.234   3.714 -0.5511 -0.2678 -0.0415
  546MOL0     O73583  10.487   9.306   3.665 -0.3734  0.7019 -0.1011
  546MOL0     C73584  10.491   9.344   3.526  0.3001 -0.4509 -0.1756
  546MOL0     C73585  10.632   9.403   3.504  0.3795  0.0914 -0.1409
  546MOL0     C73586  10.636   9.472   3.368  0.1592  0.0259 -0.6143
  546MOL0     C73587  10.781   9.497   3.311 -0.1413 -1.4705  0.3084
  546MOL0     C73588  10.838   9.642   3.327  0.1912 -0.7829  0.7054
  546MOL0     C73589  10.895   9.671   3.467  0.4063 -0.0637  0.0735
  546MOL0     C73590  10.936   9.823   3.467 -0.1389 -0.1683  0.4113
  546MOL0     C73591  11.050   9.874   3.373 -0.6979  0.2519 -0.2249
  546MOL0     N73592  11.117   9.996   3.406 -0.2741 -0.0134  0.0237
  546MOL0     C73593  11.099  10.073   3.519 -0.9292 -0.5342 -0.5124
  546MOL0     C73594  11.170  10.189   3.497 -0.3089  0.5166 -0.5800
  546MOL0     C73595  11.172  10.302   3.597 -0.4258 -0.3178 -0.4187
  546MOL0     C73596  11.280  10.407   3.562 -0.4657 -0.8998 -0.7537
  546MOL0     C73597  11.260  10.481   3.423 -0.2419  0.0968 -0.3953
  546MOL0     C73598  11.351  10.610   3.408 -0.0330 -0.1525 -0.2398
  546MOL0     O73599  11.493  10.590   3.392  0.0640  0.1634 -0.0872
  546MOL0     C73600  11.577  10.700   3.369 -0.2970 -0.7060 -0.2449
  546MOL0     C73601  11.710  10.673   3.357  0.6445 -0.7874 -0.5248
  546MOL0     C73602  11.802  10.776   3.355  0.1017 -0.1687  1.1306
  546MOL0     C73603  11.768  10.913   3.349 -0.1415 -0.8248  0.3456
  546MOL0     C73604  11.871  11.017   3.336 -1.0132  0.0882 -0.0457
  546MOL0     O73605  12.001  10.977   3.357 -0.1807 -0.1834 -0.7016
  546MOL0     C73606  12.112  11.059   3.350  0.7896 -0.1446  0.0297
  546MOL0     C73607  12.230  11.010   3.401 -0.5024 -0.6995 -0.4199
  546MOL0     C73608  12.340  11.106   3.417 -1.0120 -0.2446 -0.7543
  546MOL0     C73609  12.321  11.242   3.374 -0.4274 -0.6913 -0.1959
  546MOL0     O73610  12.427  11.324   3.418 -0.0303  0.2140 -0.1555
  546MOL0     C73611  12.419  11.469   3.405 -0.4349 -0.2065  0.6013
  546MOL0     C73612  12.526  11.538   3.482  0.1870  0.3074  0.1617
  546MOL0     C73613  12.585  11.657   3.411 -0.3463 -0.4441 -0.1022
  546MOL0     C73614  12.481  11.775   3.407 -0.3303  0.0497 -0.3825
  546MOL0     C73615  12.535  11.900   3.350 -0.7231  0.3062 -0.3853
  546MOL0     C73616  12.596  11.878   3.208 -0.4237  0.2918 -0.8690
  546MOL0     C73617  12.647  12.004   3.142  0.5867  0.3560 -0.0519
  546MOL0     C73618  12.718  11.971   3.006  0.0395 -0.2117 -0.8107
  546MOL0    Cl73619  12.595  11.916   2.882  0.2107 -0.4405 -0.3703
  546MOL0     C73620  12.205  11.279   3.305 -0.0378  0.5054  0.0862
  546MOL0     C73621  12.106  11.185   3.289  0.2837 -0.3320  0.3744
  546MOL0     O73622  11.823  11.130   3.331 -0.3032  0.5463  0.0788
  546MOL0     C73623  11.631  10.946   3.355  0.3856 -0.3529  0.1322
  546MOL0     C73624  11.541  10.840   3.379 -0.8378  0.1947  0.0304
  546MOL0     N73625  11.233  10.175   3.374  0.6859  0.1672  0.1522
  546MOL0     N73626  11.199  10.062   3.322 -0.0091 -0.1593  0.8171
  546MOL0     C73627  10.407   9.162   3.824  0.4544 -0.1998  0.3728
  546MOL0     C73628  10.299   9.111   3.900  0.0672  0.5383  0.5230
  546MOL0     C73629   9.935   8.877   4.044 -0.7293  0.3529  0.1409
  546MOL0     C73630   9.819   8.943   3.999  0.2876  0.6034  0.4059
  546MOL0     C73631   9.686   8.899   4.036  0.4465 -0.8118  0.5961
  546MOL0     C73632   9.671   8.777   4.105  0.0041 -0.1673 -0.1674
  546MOL0     O73633   9.547   8.744   4.143 -0.3436  0.5741 -0.2572
  546MOL0     C73634   9.509   8.610   4.144 -0.1671  0.4202  0.2935
  546MOL0     C73635   9.357   8.584   4.122  0.1902  0.3182 -0.4397
  546MOL0     C73636   9.311   8.603   3.970 -0.0804  0.9424 -0.9242
  546MOL0     C73637   9.343   8.736   3.910  0.1789  0.9082 -0.4071
  546MOL0     C73638   9.244   8.777   3.814  0.0612 -0.3071  0.2800
  546MOL0     C73639   9.162   8.813   3.728  0.2463 -0.6128 -0.5490
  546MOL0     C73640   9.788   8.702   4.140  0.2061 -0.4472  0.1226
  546MOL0     C73641   9.918   8.755   4.117  1.2886 -0.7047  0.2435
  546MOL0     C73642  10.037   8.673   4.167 -0.0094 -0.7178  0.0269
  546MOL0     H73643  10.047   9.177   3.686  1.0679  0.9787 -0.8936
  546MOL0     H73644  10.235   9.303   3.583 -4.0246 -0.7310 -0.5848
  546MOL0     H73645  10.460   9.266   3.456 -1.0782  0.7754 -1.0088
  546MOL0     H73646  10.425   9.430   3.510  0.1043 -0.6975 -0.7064
  546MOL0     H73647  10.712   9.329   3.512  1.5870  1.2024 -1.3646
  546MOL0     H73648  10.658   9.478   3.579 -0.2715  0.8809 -0.6916
  546MOL0     H73649  10.574   9.562   3.363 -0.8941 -0.4930  1.6403
  546MOL0     H73650  10.605   9.394   3.297  2.4932 -1.3122 -0.2489
  546MOL0     H73651  10.855   9.424   3.345  1.9422  0.9510  1.2622
  546MOL0     H73652  10.780   9.502   3.202 -0.3171 -3.7674  0.1491
  546MOL0     H73653  10.911   9.668   3.250 -0.2043 -0.6063  0.3815
  546MOL0     H73654  10.758   9.713   3.306  0.1408 -1.3992 -1.4281
  546MOL0     H73655  10.826   9.643   3.547 -2.3516 -0.2332 -2.1974
  546MOL0     H73656  10.990   9.618   3.481  0.9812  0.5550 -1.2744
  546MOL0     H73657  10.972   9.834   3.570 -1.3578  0.8389  0.7616
  546MOL0     H73658  10.847   9.883   3.446  0.8782  1.5657  0.8505
  546MOL0     H73659  11.126   9.797   3.356  1.1111  2.3219 -2.1773
  546MOL0     H73660  11.010   9.885   3.272 -1.2481 -1.1044 -0.1769
  546MOL0     H73661  11.055  10.040   3.613 -1.6695 -2.2587 -1.4378
  546MOL0     H73662  11.075  10.353   3.601 -1.2132 -1.5755 -2.1816
  546MOL0     H73663  11.193  10.260   3.696  0.8277  0.3377 -0.3926
  546MOL0     H73664  11.285  10.482   3.642 -1.4545 -3.9262  2.3876
  546MOL0     H73665  11.373  10.349   3.565  0.0011 -0.1991  2.4947
  546MOL0     H73666  11.155  10.506   3.408  0.1203  0.7493 -2.0014
  546MOL0     H73667  11.306  10.421   3.344  1.0920  0.1797  0.2886
  546MOL0     H73668  11.333  10.669   3.499 -0.8636 -0.0335 -0.4740
  546MOL0     H73669  11.313  10.672   3.326  1.9005  1.1899 -0.1870
  546MOL0     H73670  11.758  10.580   3.327  2.1139 -0.2918  0.2029
  546MOL0     H73671  11.905  10.740   3.354 -0.3820 -1.6800  2.4064
  546MOL0     H73672  12.235  10.913   3.450  1.3754 -0.1587  0.5759
  546MOL0     H73673  12.433  11.068   3.459 -2.2143 -2.0035  0.4830
  546MOL0     H73674  12.436  11.497   3.301  0.8800  1.4854  1.2307
  546MOL0     H73675  12.321  11.507   3.434  0.3590  0.9673  1.8842
  546MOL0     H73676  12.499  11.565   3.584 -1.0473  2.0979 -0.5862
  546MOL0     H73677  12.605  11.464   3.496 -0.5678 -0.3735  0.9078
  546MOL0     H73678  12.672  11.696   3.465  0.5045 -1.8074 -0.4489
  546MOL0     H73679  12.624  11.629   3.313 -3.8048 -0.2043 -1.6730
  546MOL0     H73680  12.459  11.796   3.512 -2.5306 -0.6277 -0.6447
  546MOL0     H73681  12.393  11.743   3.349 -1.3031  0.7361  0.6726
  546MOL0     H73682  12.613  11.951   3.408 -1.7167  0.4483  0.8724
  546MOL0     H73683  12.449  11.967   3.340 -1.2948 -0.5043 -1.0159
  546MOL0     H73684  12.682  11.815   3.232 -1.7541 -1.8177 -1.4122
  546MOL0     H73685  12.524  11.830   3.141 -0.1134  0.8644 -1.6173
  546MOL0     H73686  12.712  12.054   3.215 -0.4652  1.3976  0.2056
  546MOL0     H73687  12.563  12.072   3.123 -0.0653 -0.1077  1.0677
  546MOL0     H73688  12.778  12.058   2.981 -1.1593  1.7383  2.3591
  546MOL0     H73689  12.789  11.890   3.026 -0.8656 -0.6061  1.1493
  546MOL0     H73690  12.178  11.379   3.271 -2.4597  0.2970  1.1776
  546MOL0     H73691  12.017  11.216   3.236 -0.0880 -1.2663  0.4270
  546MOL0     H73692  11.595  11.049   3.355  1.6492  0.1086  0.5938
  546MOL0     H73693  11.441  10.870   3.410 -0.4380  0.4665  1.0830
  546MOL0     H73694  10.508   9.142   3.857  0.5393  0.1270  0.3047
  546MOL0     H73695  10.327   9.066   3.995  1.0367 -0.9234 -0.4054
  546MOL0     H73696   9.821   9.040   3.951 -4.2618  0.5432 -0.4112
  546MOL0     H73697   9.603   8.968   4.030  2.0205  1.2055  0.6648
  546MOL0     H73698   9.539   8.570   4.241  1.4611  1.3300  0.2027
  546MOL0     H73699   9.554   8.545   4.068 -0.7455  0.3287  0.0261
  546MOL0     H73700   9.294   8.650   4.182  0.3453  2.1667 -2.1885
  546MOL0     H73701   9.336   8.477   4.136  1.4307 -0.0269 -1.0494
  546MOL0     H73702   9.208   8.568   3.957 -0.4133  1.0735  1.0704
  546MOL0     H73703   9.366   8.525   3.917  1.0296 -1.7314  3.6019
  546MOL0     H73704   9.354   8.816   3.984  2.7464  1.5430 -1.3594
  546MOL0     H73705   9.438   8.725   3.858  0.6204 -3.5356  0.9049
  546MOL0     H73706   9.102   8.839   3.644  0.7583  2.3701 -0.1231
  546MOL0     H73707   9.763   8.608   4.187  1.3091 -0.9660 -0.2958
  546MOL0     H73708  10.116   8.736   4.209  2.1394 -0.7596 -3.5182
  546MOL0     H73709  10.008   8.609   4.250 -1.8603 -0.7442 -0.5889
  546MOL0     H73710  10.088   8.621   4.085  1.3712 -0.0446  0.4222
  547MOL0     O73711   1.154   1.283   4.104  0.1571 -0.6397  0.4635
  547MOL0     C73712   1.204   1.215   4.192 -0.1599 -0.7022  0.0427
  547MOL0     O73713   1.292   1.102   4.173 -0.4044 -0.3901 -0.1687
  547MOL0     C73714   1.299   1.028   4.062  0.7488  0.2765  0.3576
  547MOL0     C73715   1.409   0.941   4.041  0.6008  0.1832  0.5652
  547MOL0     C73716   1.423   0.875   3.913 -0.2163 -0.1600  0.0556
  547MOL0     C73717   1.332   0.878   3.815 -0.0172  0.0394 -0.5151
  547MOL0     O73718   1.364   0.813   3.701 -0.3273 -0.4690 -0.0568
  547MOL0     C73719   1.279   0.838   3.585 -0.2578  1.1600  0.4132
  547MOL0     C73720   1.285   0.970   3.514 -0.4702  0.0042 -0.5392
  547MOL0     C73721   1.221   0.968   3.372 -0.1329  0.8619  0.2794
  547MOL0     C73722   1.227   1.101   3.302  0.3421  0.2311 -0.1486
  547MOL0     C73723   1.201   1.078   3.154 -0.1869 -0.0990  0.0768
  547MOL0     C73724   1.214   1.206   3.064  0.4267  0.0607  0.1061
  547MOL0     C73725   1.214   1.179   2.911  0.7818  0.0939 -0.1647
  547MOL0     C73726   1.210   1.313   2.837  0.5096 -0.2081  0.6543
  547MOL0     N73727   1.105   1.404   2.873  0.6758 -0.4720  1.3941
  547MOL0     C73728   0.968   1.373   2.893  0.0106 -0.5217 -0.5572
  547MOL0     C73729   0.916   1.496   2.940  0.4857 -0.7147  0.6017
  547MOL0     C73730   0.771   1.555   2.948  0.0154 -0.1304  0.1487
  547MOL0     C73731   0.674   1.462   3.022  0.1897  0.4955 -0.7212
  547MOL0     C73732   0.712   1.435   3.165 -0.1016  0.1028  0.6152
  547MOL0     C73733   0.632   1.318   3.231  0.3306 -0.5281  0.3925
  547MOL0     O73734   0.662   1.193   3.171 -0.3889  0.2933 -0.4501
  547MOL0     C73735   0.563   1.101   3.162 -1.1700 -0.1902 -0.3511
  547MOL0     C73736   0.436   1.120   3.218  0.5102  0.4863 -0.1672
  547MOL0     C73737   0.336   1.041   3.170  0.6621  0.8496  0.2136
  547MOL0     C73738   0.362   0.928   3.090 -0.0235  0.7390  0.5425
  547MOL0     C73739   0.249   0.848   3.034 -0.0596 -0.6440 -0.7041
  547MOL0     O73740   0.274   0.727   2.961  0.3240 -0.3402 -0.7164
  547MOL0     C73741   0.175   0.658   2.901 -0.1394  0.2326 -0.4820
  547MOL0     C73742   0.054   0.715   2.848 -0.7769 -0.4168 -0.3611
  547MOL0     C73743  -0.058   0.639   2.803  0.1930 -0.3785 -0.4169
  547MOL0     C73744  -0.056   0.501   2.802 -0.5248 -0.2484  1.3189
  547MOL0     O73745  -0.159   0.416   2.757 -0.3624  0.6934 -0.0981
  547MOL0     C73746  -0.272   0.411   2.850 -0.1505 -0.5738 -1.2422
  547MOL0     C73747  -0.268   0.301   2.963  0.6919  0.1209 -0.3466
  547MOL0     C73748  -0.309   0.161   2.913  0.1852 -0.1956 -0.9727
  547MOL0     C73749  -0.445   0.123   2.853 -0.1591  0.1888  0.2897
  547MOL0     C73750  -0.439   0.027   2.740 -0.3398 -0.0597  0.6190
  547MOL0     C73751  -0.580   0.013   2.662 -0.3918 -0.2046  0.6743
  547MOL0     C73752  -0.687  -0.057   2.736 -0.5086 -0.3129  0.1979
  547MOL0     C73753  -0.809  -0.072   2.644 -0.1324 -0.0091 -0.4441
  547MOL0    Cl73754  -0.783  -0.200   2.532  0.1735 -0.0620 -0.0353
  547MOL0     C73755   0.075   0.447   2.828  1.1730  0.7502 -0.6493
  547MOL0     C73756   0.192   0.520   2.884 -0.0365 -0.6133 -0.4407
  547MOL0     O73757   0.138   0.892   3.057  0.4048  0.3953  0.3345
  547MOL0     C73758   0.486   0.914   3.031 -0.1778 -1.1015  0.3362
  547MOL0     C73759   0.594   0.997   3.076 -0.0439 -0.6405  0.0530
  547MOL0     N73760   1.017   1.589   2.932 -0.1938  0.3481  0.0972
  547MOL0     N73761   1.133   1.524   2.916  0.0588  0.1974 -0.4887
  547MOL0     C73762   1.208   0.949   3.836  0.1514 -0.4439  0.5763
  547MOL0     C73763   1.198   1.023   3.956 -0.1153  0.3666 -0.0958
  547MOL0     C73764   1.188   1.284   4.325  0.0760 -0.5831 -0.0175
  547MOL0     C73765   1.130   1.409   4.324 -0.4410  0.4657  0.2872
  547MOL0     C73766   1.093   1.470   4.441  0.2508 -0.2242 -0.0154
  547MOL0     C73767   1.115   1.421   4.564  0.4709 -0.7522 -0.0728
  547MOL0     O73768   1.064   1.487   4.680 -1.2829  0.7038  0.2399
  547MOL0     C73769   1.074   1.415   4.803 -0.1397  0.3302 -0.4357
  547MOL0     C73770   1.028   1.505   4.921 -0.4372 -0.2416 -0.2990
  547MOL0     C73771   1.011   1.426   5.056 -0.6610 -0.1095 -0.2305
  547MOL0     C73772   1.149   1.373   5.117  0.1174 -0.3697  0.9514
  547MOL0     C73773   1.136   1.334   5.259  0.8496 -0.7926 -0.4778
  547MOL0     C73774   1.133   1.310   5.385 -0.1027  0.2011  0.3605
  547MOL0     C73775   1.171   1.295   4.565 -0.4045 -0.2645 -0.1236
  547MOL0     C73776   1.217   1.227   4.454 -0.4175 -0.5956  0.6342
  547MOL0     C73777   1.296   1.096   4.473 -0.1346 -0.3301 -0.2900
  547MOL0     H73778   1.480   0.934   4.123 -0.8400 -1.0621  1.7623
  547MOL0     H73779   1.510   0.819   3.879 -1.7236 -2.2660 -0.5081
  547MOL0     H73780   1.317   0.766   3.512  2.2861  2.5468  0.2433
  547MOL0     H73781   1.177   0.808   3.609 -0.4937 -2.5814 -3.9209
  547MOL0     H73782   1.392   0.991   3.506  0.2116 -2.4146  1.0630
  547MOL0     H73783   1.247   1.053   3.575 -3.4625 -0.1043 -2.0764
  547MOL0     H73784   1.116   0.943   3.394  0.5006 -1.9569  0.5293
  547MOL0     H73785   1.260   0.893   3.302  0.3470  1.5670 -0.2138
  547MOL0     H73786   1.155   1.161   3.358  0.0720  1.0379 -1.3388
  547MOL0     H73787   1.328   1.144   3.306  1.4526 -2.0558 -1.2805
  547MOL0     H73788   1.279   1.015   3.110 -0.8810 -0.3348 -0.8461
  547MOL0     H73789   1.103   1.033   3.136 -0.8779  1.0972  0.6866
  547MOL0     H73790   1.130   1.270   3.095  0.4617  0.3246 -0.3431
  547MOL0     H73791   1.300   1.269   3.086 -0.6316  1.9447 -0.9398
  547MOL0     H73792   1.124   1.120   2.893 -0.5942  1.3290  2.1220
  547MOL0     H73793   1.304   1.122   2.887  1.7973  2.7911 -3.5422
  547MOL0     H73794   1.307   1.364   2.845  1.5837 -1.8477 -1.0117
  547MOL0     H73795   1.197   1.293   2.730 -0.9301 -2.7172  1.2143
  547MOL0     H73796   0.909   1.282   2.884 -1.2928 -0.1454  2.5836
  547MOL0     H73797   0.778   1.647   3.007  1.7216 -0.3353  0.3230
  547MOL0     H73798   0.731   1.567   2.847 -0.5745 -1.3840  0.2081
  547MOL0     H73799   0.571   1.497   3.017 -0.2579 -0.8444 -0.9719
  547MOL0     H73800   0.670   1.365   2.971  0.4329 -0.0404  0.2616
  547MOL0     H73801   0.688   1.523   3.226 -3.0492 -1.3815  1.7939
  547MOL0     H73802   0.818   1.410   3.166 -0.9880 -4.4764  1.0884
  547MOL0     H73803   0.530   1.352   3.211  1.1980  1.7778 -0.4460
  547MOL0     H73804   0.653   1.313   3.338  0.8020  0.7549  0.3831
  547MOL0     H73805   0.420   1.198   3.292 -0.7805  0.3303 -0.2636
  547MOL0     H73806   0.234   1.052   3.207 -0.0765  0.2566 -1.5241
  547MOL0     H73807   0.049   0.823   2.859 -1.6898 -0.6663  2.6111
  547MOL0     H73808  -0.148   0.687   2.767 -0.3224 -0.9081  0.1319
  547MOL0     H73809  -0.284   0.506   2.903  1.1096 -0.5284 -1.0065
  547MOL0     H73810  -0.357   0.384   2.787 -0.7450 -0.4075 -0.5205
  547MOL0     H73811  -0.165   0.304   3.000  0.7714  2.2668 -0.6134
  547MOL0     H73812  -0.346   0.327   3.035  0.7496 -0.8886  0.0951
  547MOL0     H73813  -0.224   0.132   2.850  1.2563  0.1746  0.2416
  547MOL0     H73814  -0.292   0.112   3.010  0.6253 -1.2758 -1.5798
  547MOL0     H73815  -0.482   0.217   2.813  0.1392  0.6486  1.0688
  547MOL0     H73816  -0.506   0.082   2.935  0.4964  0.8631  1.1318
  547MOL0     H73817  -0.415  -0.076   2.770  0.4618 -1.3434 -3.7472
  547MOL0     H73818  -0.360   0.051   2.668  0.1436  1.1525  1.5230
  547MOL0     H73819  -0.611   0.110   2.621 -1.8783 -0.9866 -0.1527
  547MOL0     H73820  -0.574  -0.047   2.570 -1.1224  0.8611 -0.1044
  547MOL0     H73821  -0.718  -0.001   2.825  1.5716  0.8968  0.2458
  547MOL0     H73822  -0.664  -0.161   2.762 -0.8755 -0.6135 -0.6289
  547MOL0     H73823  -0.899  -0.087   2.704 -0.6755  3.0164 -0.3743
  547MOL0     H73824  -0.821   0.012   2.576 -0.0492 -0.6102 -1.2107
  547MOL0     H73825   0.094   0.340   2.825 -0.5845  0.4120 -0.3819
  547MOL0     H73826   0.289   0.485   2.916  1.1989  2.5111 -0.4229
  547MOL0     H73827   0.506   0.847   2.948  0.1036 -1.5588  0.7662
  547MOL0     H73828   0.692   0.974   3.035 -0.0926 -0.9252  0.0926
  547MOL0     H73829   1.117   0.955   3.778  0.6084  0.9623 -0.0346
  547MOL0     H73830   1.112   1.089   3.956  2.1350  3.5763  0.0707
  547MOL0     H73831   1.113   1.461   4.231  2.0828  1.9572  0.5472
  547MOL0     H73832   1.036   1.561   4.423 -1.0961 -0.6049  1.9516
  547MOL0     H73833   1.169   1.365   4.825 -1.0672 -0.4448  2.2417
  547MOL0     H73834   1.002   1.333   4.808  1.1711 -0.8214  0.0986
  547MOL0     H73835   0.929   1.534   4.886 -0.4492 -0.9440 -0.8796
  547MOL0     H73836   1.094   1.591   4.935 -0.7913 -0.1158  0.6557
  547MOL0     H73837   0.941   1.342   5.046 -0.4433 -0.3610  0.3270
  547MOL0     H73838   0.966   1.499   5.124 -1.2453 -0.7705  0.1031
  547MOL0     H73839   1.194   1.298   5.051  0.3211  0.0714  0.5770
  547MOL0     H73840   1.224   1.453   5.115  0.7613 -0.9475 -1.3926
  547MOL0     H73841   1.122   1.276   5.486  2.0410  0.3815  0.7054
  547MOL0     H73842   1.190   1.248   4.661  2.2687  0.2216 -0.3493
  547MOL0     H73843   1.325   1.094   4.579 -0.0842  2.9672 -0.1154
  547MOL0     H73844   1.234   1.011   4.446 -1.1560  1.2826 -3.4753
  547MOL0     H73845   1.387   1.091   4.413 -0.2308 -0.9082 -0.3876
  548MOL0     O73846   6.240   1.007   2.768 -0.0611 -0.1556 -1.2547
  548MOL0     C73847   6.223   0.943   2.667 -0.3700  0.4129 -0.2292
  548MOL0     O73848   6.320   0.858   2.610  0.2300 -0.3348 -0.7479
  548MOL0     C73849   6.457   0.873   2.632  0.5515 -0.2706  0.9429
  548MOL0     C73850   6.532   0.791   2.719 -0.5182  0.5664 -0.1808
  548MOL0     C73851   6.667   0.814   2.742 -0.3543 -1.3195 -0.1522
  548MOL0     C73852   6.734   0.921   2.679  0.8547 -0.3976 -0.5539
  548MOL0     O73853   6.868   0.927   2.712  0.2500  0.4522  0.4148
  548MOL0     C73854   6.908   1.055   2.758  0.0905  0.6195 -0.3459
  548MOL0     C73855   7.064   1.061   2.756  0.1572  0.5889  0.2339
  548MOL0     C73856   7.144   1.067   2.619  0.4443 -0.0060 -0.4945
  548MOL0     C73857   7.297   1.082   2.636  0.1544 -1.1711  0.5560
  548MOL0     C73858   7.373   1.075   2.496 -0.3923  0.3219  0.8462
  548MOL0     C73859   7.523   1.071   2.502 -0.2561 -0.5772  0.0798
  548MOL0     C73860   7.579   1.190   2.590  0.1064  0.3224 -0.0893
  548MOL0     C73861   7.721   1.208   2.538 -0.5876  0.4581 -0.4939
  548MOL0     N73862   7.793   1.331   2.596  0.4043  0.6121 -0.0083
  548MOL0     C73863   7.902   1.391   2.534 -0.2220 -0.0276  0.4249
  548MOL0     C73864   7.951   1.480   2.624  0.3219  0.3162  0.7456
  548MOL0     C73865   8.069   1.573   2.621  0.3048 -0.2534 -0.1610
  548MOL0     C73866   8.158   1.532   2.740  0.0010  0.0867 -0.1976
  548MOL0     C73867   8.284   1.614   2.766 -0.5094 -0.8616 -0.1012
  548MOL0     C73868   8.356   1.564   2.900 -0.3182 -0.3808 -0.1431
  548MOL0     O73869   8.458   1.650   2.949  0.6721 -0.3490  0.2424
  548MOL0     C73870   8.583   1.659   2.889 -0.1672  0.3531 -0.0879
  548MOL0     C73871   8.646   1.568   2.804  0.2297 -0.3006 -0.9826
  548MOL0     C73872   8.779   1.584   2.769 -0.2928 -0.0395 -0.0501
  548MOL0     C73873   8.859   1.688   2.826  0.1117  0.8414  0.5422
  548MOL0     C73874   9.004   1.694   2.799 -0.7638  0.2127 -0.1371
  548MOL0     O73875   9.060   1.796   2.874 -0.1722  0.8129  0.7563
  548MOL0     C73876   9.191   1.828   2.844  0.3354 -0.1291  0.6776
  548MOL0     C73877   9.211   1.927   2.755 -0.3924  0.1226  0.1738
  548MOL0     C73878   9.337   1.979   2.729 -0.3198  1.4900 -0.1931
  548MOL0     C73879   9.447   1.941   2.805 -0.3953 -0.2498  0.1250
  548MOL0     O73880   9.564   2.005   2.778  0.0252  0.5474  0.7382
  548MOL0     C73881   9.676   1.912   2.773  0.8925 -0.1054 -0.2361
  548MOL0     C73882   9.794   1.996   2.730  0.2476  0.7672 -0.2815
  548MOL0     C73883   9.913   1.907   2.708 -0.6070 -0.1801  0.2486
  548MOL0     C73884  10.035   1.996   2.674 -0.0454  0.8982 -0.4375
  548MOL0     C73885  10.172   1.916   2.671 -1.0845 -0.1970 -0.5204
  548MOL0     C73886  10.240   1.937   2.811  0.2474 -0.1547 -0.2136
  548MOL0     C73887  10.382   1.874   2.808 -0.8288  1.0360  0.2877
  548MOL0     C73888  10.391   1.719   2.776  0.8397  0.3744  0.1982
  548MOL0    Cl73889  10.259   1.653   2.865 -0.0547 -0.3784 -0.0598
  548MOL0     C73890   9.423   1.834   2.893  0.1556 -0.2910  0.1789
  548MOL0     C73891   9.296   1.784   2.910 -0.2453 -0.4209 -0.8176
  548MOL0     O73892   9.059   1.632   2.711 -0.9362 -0.2397  0.4973
  548MOL0     C73893   8.791   1.782   2.897 -0.4913  0.0326  0.7811
  548MOL0     C73894   8.658   1.770   2.925 -0.2447 -0.6586 -0.1612
  548MOL0     N73895   7.868   1.466   2.744  0.0716 -0.3279 -0.0708
  548MOL0     N73896   7.770   1.377   2.724  0.3591 -0.8979 -0.8620
  548MOL0     C73897   6.657   1.014   2.599 -0.0184  0.0981 -0.2684
  548MOL0     C73898   6.517   0.988   2.582  0.5062  0.3057  0.0748
  548MOL0     C73899   6.076   0.941   2.625  0.4449 -0.0653  0.2865
  548MOL0     C73900   5.977   0.998   2.713 -0.8234  0.2525  0.0597
  548MOL0     C73901   5.843   0.980   2.683 -0.1357  0.8705 -0.7461
  548MOL0     C73902   5.800   0.913   2.566  0.7758  0.0565 -0.2216
  548MOL0     O73903   5.658   0.903   2.538 -0.6879 -0.4400  0.2290
  548MOL0     C73904   5.615   0.838   2.411 -0.1367 -1.1500 -0.6337
  548MOL0     C73905   5.461   0.836   2.402 -0.5103 -0.6539  0.5813
  548MOL0     C73906   5.395   0.752   2.291  0.5856  0.4765  0.8609
  548MOL0     C73907   5.242   0.755   2.309  0.4173 -0.0986 -0.0254
  548MOL0     C73908   5.180   0.681   2.423  0.7667  0.0459  0.0300
  548MOL0     C73909   5.122   0.626   2.519 -0.5191  0.1972  0.6309
  548MOL0     C73910   5.901   0.864   2.477 -0.3783  0.2060 -0.0928
  548MOL0     C73911   6.035   0.877   2.507  0.3881  0.5778 -0.0958
  548MOL0     C73912   6.125   0.828   2.400 -1.0391  0.5758  0.7103
  548MOL0     H73913   6.470   0.710   2.757 -0.9175  1.9948  2.4503
  548MOL0     H73914   6.736   0.752   2.798  1.1992  0.4946  0.0641
  548MOL0     H73915   6.874   1.142   2.702  1.0051  1.9315  1.0557
  548MOL0     H73916   6.882   1.073   2.863  0.4969 -1.7377  0.2259
  548MOL0     H73917   7.113   0.981   2.812  0.1691  2.5934  3.3209
  548MOL0     H73918   7.092   1.151   2.812  0.2428  1.1238 -0.6293
  548MOL0     H73919   7.101   1.146   2.556  0.3042  0.3710  0.0630
  548MOL0     H73920   7.129   0.977   2.559 -0.4329 -0.5000  0.4220
  548MOL0     H73921   7.329   1.178   2.678 -0.5034  0.0849 -1.6581
  548MOL0     H73922   7.342   1.003   2.697  2.7347 -1.6881 -1.8394
  548MOL0     H73923   7.343   0.982   2.445  0.2485  0.2865  0.5243
  548MOL0     H73924   7.343   1.163   2.439  1.7473 -0.8701 -2.4184
  548MOL0     H73925   7.555   0.972   2.538  0.2000 -0.6378 -0.4667
  548MOL0     H73926   7.549   1.070   2.395  0.9649 -0.6441  0.3638
  548MOL0     H73927   7.574   1.161   2.695 -3.0227  0.9864  0.0417
  548MOL0     H73928   7.512   1.275   2.572  1.1633  1.5460  1.4276
  548MOL0     H73929   7.778   1.120   2.571  0.1539  0.6679 -1.1991
  548MOL0     H73930   7.705   1.238   2.434  1.7574 -2.4367 -1.8382
  548MOL0     H73931   7.952   1.367   2.441  0.7768 -2.2286  1.4559
  548MOL0     H73932   8.130   1.554   2.532 -1.7489 -0.8749 -1.5163
  548MOL0     H73933   8.025   1.673   2.621  0.5855 -0.0897  1.8360
  548MOL0     H73934   8.096   1.542   2.829 -0.7505  0.2074 -0.7273
  548MOL0     H73935   8.194   1.428   2.736  0.0453  0.1405 -1.4917
  548MOL0     H73936   8.278   1.722   2.753  1.3546 -0.9460 -2.5250
  548MOL0     H73937   8.356   1.600   2.684  2.7680 -0.1074  2.4596
  548MOL0     H73938   8.397   1.464   2.883  0.3810 -0.3070  0.9776
  548MOL0     H73939   8.276   1.556   2.975  0.2161  2.1751  0.8193
  548MOL0     H73940   8.584   1.487   2.769  1.3741 -1.7434  0.2171
  548MOL0     H73941   8.823   1.515   2.697  2.0995  2.1925 -0.9018
  548MOL0     H73942   9.122   1.969   2.708 -1.2174 -1.9240 -0.1891
  548MOL0     H73943   9.351   2.057   2.654 -0.7915  0.3826 -1.4723
  548MOL0     H73944   9.701   1.856   2.863  0.1855  0.1324  0.1149
  548MOL0     H73945   9.643   1.844   2.694  0.0200 -0.1878  0.1867
  548MOL0     H73946   9.770   2.049   2.637  0.6393  1.0344 -0.2327
  548MOL0     H73947   9.810   2.061   2.817 -1.8278 -0.6055  1.2498
  548MOL0     H73948   9.946   1.857   2.799  0.6164 -1.7281 -0.9836
  548MOL0     H73949   9.908   1.831   2.629  0.8731  0.0498 -0.0989
  548MOL0     H73950  10.041   2.071   2.754 -0.2265 -2.2616  2.8310
  548MOL0     H73951  10.006   2.050   2.584 -0.3593  1.6632  0.1079
  548MOL0     H73952  10.228   1.958   2.587 -1.1349 -8.0314 -5.4093
  548MOL0     H73953  10.162   1.812   2.640 -0.9944 -0.4296  0.2183
  548MOL0     H73954  10.252   2.046   2.817 -2.6937  0.2612 -0.6672
  548MOL0     H73955  10.185   1.909   2.901 -0.1222  3.4799  0.8893
  548MOL0     H73956  10.435   1.898   2.900  0.7633 -1.2097  0.0279
  548MOL0     H73957  10.436   1.931   2.731 -2.6623  0.5415 -1.4456
  548MOL0     H73958  10.365   1.709   2.670 -3.8892 -0.3515  1.2237
  548MOL0     H73959  10.475   1.655   2.805  0.8474  0.9466  1.5256
  548MOL0     H73960   9.508   1.819   2.958  0.4616 -1.5827 -0.4777
  548MOL0     H73961   9.288   1.703   2.982 -1.7496  0.1284 -0.3402
  548MOL0     H73962   8.849   1.867   2.931  1.2424 -1.2568  1.1515
  548MOL0     H73963   8.617   1.848   2.989 -1.9820 -0.2263 -1.7083
  548MOL0     H73964   6.714   1.095   2.554  1.2182 -1.3360 -1.4057
  548MOL0     H73965   6.450   1.050   2.522 -0.9368 -2.2071 -1.0681
  548MOL0     H73966   5.999   1.042   2.810  1.9095 -2.9542  1.0476
  548MOL0     H73967   5.769   1.011   2.756  0.7715 -0.3943  0.7750
  548MOL0     H73968   5.651   0.735   2.412  2.7561 -0.2253 -1.4998
  548MOL0     H73969   5.655   0.885   2.321 -1.4431  1.9664  0.2585
  548MOL0     H73970   5.424   0.938   2.387 -1.6158 -0.9799  0.9800
  548MOL0     H73971   5.423   0.784   2.490  1.8802 -0.7484  1.6120
  548MOL0     H73972   5.425   0.647   2.289 -1.5631 -0.2109  1.9412
  548MOL0     H73973   5.415   0.790   2.190  3.8889  2.5506  2.1138
  548MOL0     H73974   5.212   0.860   2.311 -1.1281 -0.4988 -0.7405
  548MOL0     H73975   5.199   0.706   2.221 -2.2304  1.2090  0.4553
  548MOL0     H73976   5.085   0.590   2.613  0.7313  1.2731  1.5865
  548MOL0     H73977   5.875   0.823   2.380 -2.9858  4.0916 -1.2690
  548MOL0     H73978   6.143   0.721   2.410 -2.1579  0.1805 -1.0069
  548MOL0     H73979   6.090   0.831   2.296  0.4664 -0.0082  0.1694
  548MOL0     H73980   6.223   0.876   2.408  0.4692 -2.4347  1.8393
  549MOL0     O73981   9.379  10.633  10.077  0.0495  0.6188 -0.1723
  549MOL0     C73982   9.384  10.746  10.132 -0.4177 -0.6091 -0.6584
  549MOL0     O73983   9.283  10.838  10.131 -0.2594 -0.2172 -0.1269
  549MOL0     C73984   9.171  10.812  10.042  0.8799  0.0573  0.0830
  549MOL0     C73985   9.149  10.865   9.913  0.8420 -0.7539  0.1881
  549MOL0     C73986   9.023  10.855   9.849 -0.0357 -0.0803 -0.0247
  549MOL0     C73987   8.914  10.791   9.910  0.3222  0.5136 -1.4865
  549MOL0     O73988   8.788  10.771   9.857 -0.4702 -0.1386  0.6353
  549MOL0     C73989   8.760  10.772   9.722  0.7991 -0.0829  0.6595
  549MOL0     C73990   8.624  10.692   9.695  0.0121  0.5644 -0.2122
  549MOL0     C73991   8.513  10.753   9.784  1.0307 -0.2649  0.2967
  549MOL0     C73992   8.372  10.725   9.731  0.1771 -0.1323  0.4518
  549MOL0     C73993   8.348  10.781   9.590 -0.5860 -0.0230 -0.5611
  549MOL0     C73994   8.411  10.910   9.548 -0.8770 -0.8985  0.0027
  549MOL0     C73995   8.352  11.025   9.628 -0.1099 -0.0230  0.0246
  549MOL0     C73996   8.401  11.157   9.572  0.0412  0.2576  0.1143
  549MOL0     N73997   8.348  11.278   9.639  0.1458 -0.0536  0.0140
  549MOL0     C73998   8.311  11.387   9.562  0.4078 -0.1988  0.3630
  549MOL0     C73999   8.252  11.463   9.659 -0.2079  0.2019 -0.2708
  549MOL0     C74000   8.212  11.602   9.639 -0.5391 -0.0454  0.6242
  549MOL0     C74001   8.059  11.630   9.637 -0.3988 -0.3941 -0.0980
  549MOL0     C74002   8.036  11.779   9.590  0.1680 -0.0988 -0.2939
  549MOL0     C74003   8.048  11.879   9.699 -0.2075 -0.1249  0.0151
  549MOL0     O74004   7.943  11.865   9.807  0.3598 -0.2160  0.3607
  549MOL0     C74005   7.924  11.970   9.895  0.2650  0.9366 -0.8925
  549MOL0     C74006   7.987  12.090   9.899 -0.4424 -0.2665 -0.6018
  549MOL0     C74007   7.939  12.194   9.982 -0.7768 -0.3512 -0.0836
  549MOL0     C74008   7.823  12.173  10.065 -0.2004 -0.2654 -0.3764
  549MOL0     C74009   7.772  12.283  10.150 -0.1488  0.2874  0.0085
  549MOL0     O74010   7.665  12.258  10.228 -1.1726 -0.3917 -0.3628
  549MOL0     C74011   7.625  12.351  10.317  0.0110  0.5922 -0.3352
  549MOL0     C74012   7.567  12.471  10.290 -0.3785 -0.5494  0.4829
  549MOL0     C74013   7.525  12.559  10.392 -0.3752  0.1266 -0.0980
  549MOL0     C74014   7.548  12.516  10.522 -1.2824  0.5250 -0.7776
  549MOL0     O74015   7.502  12.584  10.633  0.6178  0.1438 -0.5625
  549MOL0     C74016   7.485  12.727  10.629  0.3717 -0.2878  0.4346
  549MOL0     C74017   7.345  12.758  10.570  0.2780 -0.0836  0.2712
  549MOL0     C74018   7.238  12.718  10.671  0.2379  0.7558 -0.4231
  549MOL0     C74019   7.105  12.791  10.656  0.6793  0.6665  0.3526
  549MOL0     C74020   7.006  12.768  10.770 -0.2952 -0.5617 -0.0544
  549MOL0     C74021   6.889  12.869  10.766  0.6131 -0.9926  0.1155
  549MOL0     C74022   6.794  12.851  10.886 -0.0238  0.1960 -0.4421
  549MOL0     C74023   6.675  12.941  10.872  0.0182  0.0222  0.5964
  549MOL0    Cl74024   6.546  12.903  10.992  0.5097 -0.1613 -0.5384
  549MOL0     C74025   7.596  12.391  10.554  0.1635 -0.5283  0.8069
  549MOL0     C74026   7.629  12.305  10.453 -0.0146 -0.4510  0.1659
  549MOL0     O74027   7.825  12.396  10.147 -0.4330  0.2668  0.1390
  549MOL0     C74028   7.774  12.046  10.074  0.5446 -0.1439  0.4530
  549MOL0     C74029   7.817  11.957   9.982 -0.3700  0.5467  0.0824
  549MOL0     N74030   8.270  11.410   9.785  0.1766 -0.1651  0.5419
  549MOL0     N74031   8.342  11.308   9.776  0.2820 -0.5091 -0.0403
  549MOL0     C74032   8.933  10.743  10.038 -1.2253  0.1798 -0.1036
  549MOL0     C74033   9.062  10.742  10.108 -0.8728  0.9273  0.3291
  549MOL0     C74034   9.502  10.793  10.228 -0.4570 -0.5487 -0.2714
  549MOL0     C74035   9.512  10.927  10.263 -0.2696 -1.0630 -0.2853
  549MOL0     C74036   9.619  10.979  10.339  0.8986 -0.4403  0.2863
  549MOL0     C74037   9.728  10.904  10.359  0.3019 -0.8213  0.4527
  549MOL0     O74038   9.832  10.961  10.432  0.6419 -0.7451 -1.1514
  549MOL0     C74039   9.965  10.913  10.405  1.3361 -0.3082  0.3400
  549MOL0     C74040  10.076  11.019  10.442  0.5149 -1.2980  0.0946
  549MOL0     C74041  10.052  11.088  10.582 -0.1387  0.8394  0.5767
  549MOL0     C74042  10.147  11.201  10.616  0.0236 -0.1667  0.7328
  549MOL0     C74043  10.104  11.277  10.732  0.0019  0.6970 -0.1948
  549MOL0     C74044  10.059  11.348  10.822 -0.2900 -0.4170  0.0310
  549MOL0     C74045   9.711  10.768  10.341  0.4963  0.0628 -0.1309
  549MOL0     C74046   9.599  10.707  10.280 -0.8487  0.4811 -0.2824
  549MOL0     C74047   9.606  10.559  10.265 -1.1586 -0.0902 -0.7088
  549MOL0     H74048   9.233  10.916   9.867  1.8361 -3.7866 -1.7452
  549MOL0     H74049   9.002  10.888   9.747  1.6736 -0.0860 -0.4097
  549MOL0     H74050   8.739  10.875   9.694 -0.7396  0.0201  2.0536
  549MOL0     H74051   8.837  10.719   9.665 -2.4187 -3.5133 -0.9106
  549MOL0     H74052   8.635  10.584   9.706  3.0309  0.5631 -2.0897
  549MOL0     H74053   8.615  10.699   9.586  3.7592 -4.0663 -1.1181
  549MOL0     H74054   8.534  10.860   9.795  2.5813 -0.2602 -2.1377
  549MOL0     H74055   8.523  10.709   9.884  4.1030 -1.8869 -0.6144
  549MOL0     H74056   8.345  10.620   9.741  2.1455 -0.4482  5.3683
  549MOL0     H74057   8.308  10.784   9.798  0.4089  1.0343 -0.3134
  549MOL0     H74058   8.360  10.709   9.509  1.2827  2.0151 -2.2373
  549MOL0     H74059   8.240  10.795   9.580 -0.5811 -1.5253 -3.6502
  549MOL0     H74060   8.519  10.911   9.562 -0.6814 -2.0398 -1.2127
  549MOL0     H74061   8.386  10.932   9.444 -1.7524  1.8912  0.7086
  549MOL0     H74062   8.380  11.021   9.733 -0.7854  1.0755  0.2608
  549MOL0     H74063   8.244  11.006   9.632  0.1996 -1.7843  3.1510
  549MOL0     H74064   8.510  11.160   9.587  0.1434  1.6401 -0.6900
  549MOL0     H74065   8.375  11.172   9.467  0.8222 -0.1565 -0.1525
  549MOL0     H74066   8.333  11.406   9.457  1.8584  0.2990  0.7272
  549MOL0     H74067   8.277  11.672   9.693  2.2826 -3.0748  1.5101
  549MOL0     H74068   8.230  11.623   9.533 -1.7964  0.3489  0.4673
  549MOL0     H74069   8.018  11.560   9.563 -0.7555 -3.0037  2.3852
  549MOL0     H74070   8.010  11.615   9.734 -3.2262 -1.7744 -1.6120
  549MOL0     H74071   7.934  11.791   9.553 -1.4749 -0.3368  3.5951
  549MOL0     H74072   8.104  11.796   9.507  0.0527 -3.0690 -1.1218
  549MOL0     H74073   8.055  11.982   9.665  2.1854 -0.2220  0.0022
  549MOL0     H74074   8.144  11.857   9.748 -0.3204 -0.0408  0.2700
  549MOL0     H74075   8.074  12.106   9.836  1.6865  1.7899  2.5753
  549MOL0     H74076   7.994  12.288   9.983 -0.0925 -0.7456  0.7728
  549MOL0     H74077   7.566  12.510  10.188 -1.0573 -0.3161  0.5728
  549MOL0     H74078   7.484  12.659  10.379 -1.3522 -0.1710  0.5973
  549MOL0     H74079   7.488  12.771  10.729 -0.2793 -1.3579  0.9446
  549MOL0     H74080   7.575  12.763  10.579  2.4000 -3.2584  1.6094
  549MOL0     H74081   7.352  12.867  10.566  1.7200 -0.1287  0.9001
  549MOL0     H74082   7.323  12.715  10.471 -3.0132 -1.8318  1.6053
  549MOL0     H74083   7.208  12.613  10.665  0.4431  0.7738 -2.4609
  549MOL0     H74084   7.275  12.731  10.773 -0.2414  0.2891 -0.1833
  549MOL0     H74085   7.058  12.753  10.565  2.3927  0.5005 -0.4995
  549MOL0     H74086   7.123  12.897  10.638  0.4806  0.9872  1.8961
  549MOL0     H74087   7.060  12.784  10.864 -0.0126  1.5469 -0.5266
  549MOL0     H74088   6.969  12.665  10.765 -0.4407 -0.4928 -0.4479
  549MOL0     H74089   6.929  12.971  10.766  2.7571 -1.7628  2.1317
  549MOL0     H74090   6.835  12.857  10.671  1.3022  1.5926 -0.6786
  549MOL0     H74091   6.839  12.875  10.983 -3.0815 -0.9898  1.4412
  549MOL0     H74092   6.764  12.746  10.896  3.4455 -0.9454 -0.4210
  549MOL0     H74093   6.709  13.044  10.883  2.1322 -0.6982  1.3276
  549MOL0     H74094   6.642  12.930  10.768  0.0217  1.4996  0.4158
  549MOL0     H74095   7.619  12.364  10.656 -3.9840 -0.7260  1.8667
  549MOL0     H74096   7.662  12.205  10.478 -1.5412 -0.5514  1.9765
  549MOL0     H74097   7.692  12.019  10.140  3.0709 -0.2265  3.8749
  549MOL0     H74098   7.767  11.861   9.986  1.3254 -0.3283  2.1287
  549MOL0     H74099   8.850  10.700  10.093 -2.6349  1.0465 -1.5073
  549MOL0     H74100   9.078  10.700  10.207 -1.5854 -2.3075 -0.8136
  549MOL0     H74101   9.433  10.994  10.229 -1.1739 -0.6152  2.4683
  549MOL0     H74102   9.627  11.083  10.371 -3.1698 -0.1708  0.9772
  549MOL0     H74103   9.966  10.910  10.295  2.2069 -1.3179  0.3649
  549MOL0     H74104   9.988  10.826  10.466 -1.4896  0.8856  3.4149
  549MOL0     H74105  10.053  11.102  10.374  1.4847  0.3547  1.7103
  549MOL0     H74106  10.181  10.993  10.430  1.5776  1.6625  1.8792
  549MOL0     H74107  10.054  11.015  10.663  1.7523  0.0138 -0.1464
  549MOL0     H74108   9.954  11.137  10.573 -1.3751 -1.5556 -0.0121
  549MOL0     H74109  10.250  11.167  10.630  0.4785 -0.1419 -1.9993
  549MOL0     H74110  10.156  11.264  10.527 -0.1595  0.7703  1.3630
  549MOL0     H74111  10.050  11.421  10.900 -1.0747  0.8111 -1.1823
  549MOL0     H74112   9.794  10.707  10.378  0.6032  0.1768 -0.1799
  549MOL0     H74113   9.641  10.536  10.164  0.5134  1.2835 -0.4936
  549MOL0     H74114   9.664  10.524  10.350  0.3745 -0.6299 -1.9114
  549MOL0     H74115   9.514  10.503  10.283  0.8065 -2.8316  1.7800
  550MOL0     O74116   3.819   4.089   0.080 -0.1273  0.1833  0.4566
  550MOL0     C74117   3.859   3.982   0.030  0.8893 -0.5394  0.2614
  550MOL0     O74118   3.981   3.916   0.059  0.2838 -0.1415  0.2190
  550MOL0     C74119   4.073   3.991   0.122 -0.1210 -0.8916 -0.6483
  550MOL0     C74120   4.079   4.007   0.262  0.0485 -0.5984 -0.1819
  550MOL0     C74121   4.173   4.089   0.322  0.4088 -0.3264 -1.2722
  550MOL0     C74122   4.259   4.163   0.238 -0.2201 -0.8966 -0.1506
  550MOL0     O74123   4.341   4.260   0.296  0.6658  0.1166 -0.4763
  550MOL0     C74124   4.482   4.216   0.289  0.2795 -0.8776  0.3797
  550MOL0     C74125   4.536   4.157   0.423 -0.5086 -0.9054  0.2941
  550MOL0     C74126   4.526   4.262   0.541 -0.5017 -0.4689  0.1523
  550MOL0     C74127   4.647   4.355   0.539 -0.3758  0.3847  0.0287
  550MOL0     C74128   4.606   4.489   0.603 -0.7164 -1.5618  0.4048
  550MOL0     C74129   4.717   4.595   0.553 -0.5327  0.2934 -0.3351
  550MOL0     C74130   4.685   4.735   0.607 -0.1266  0.6081  0.1407
  550MOL0     C74131   4.690   4.757   0.757 -0.3216  0.7216  0.4209
  550MOL0     N74132   4.810   4.694   0.809  0.2204 -0.5259  0.5186
  550MOL0     C74133   4.941   4.741   0.797  0.2507 -0.2154  0.4821
  550MOL0     C74134   5.016   4.644   0.850  0.8642 -0.0488 -0.1910
  550MOL0     C74135   5.168   4.637   0.871 -1.0426  1.5212  0.1558
  550MOL0     C74136   5.235   4.615   0.732 -0.1695  0.4271 -0.4277
  550MOL0     C74137   5.200   4.480   0.668 -0.2192  0.4852 -0.4535
  550MOL0     C74138   5.284   4.371   0.727 -0.0165 -0.0339 -0.4402
  550MOL0     O74139   5.423   4.403   0.734  0.2380 -0.5338  0.4528
  550MOL0     C74140   5.492   4.306   0.788 -0.2545 -0.5094  0.1271
  550MOL0     C74141   5.452   4.175   0.819  0.7230  0.4335  0.9558
  550MOL0     C74142   5.540   4.094   0.884 -1.0177  0.5150  0.6556
  550MOL0     C74143   5.666   4.119   0.920  0.5231  0.7431  0.3468
  550MOL0     C74144   5.741   4.021   1.013  1.5946 -0.3897  0.2774
  550MOL0     O74145   5.701   3.893   1.016 -0.0515  0.1499  0.0250
  550MOL0     C74146   5.741   3.810   1.119  0.2748 -0.4924 -0.3943
  550MOL0     C74147   5.730   3.850   1.256 -0.7682  0.2448  1.0153
  550MOL0     C74148   5.758   3.751   1.346  0.5325  0.4363 -0.0884
  550MOL0     C74149   5.790   3.614   1.317  0.4101  0.3054  0.2715
  550MOL0     O74150   5.811   3.514   1.417 -0.2725 -0.6844  0.1503
  550MOL0     C74151   5.829   3.539   1.563  0.3032 -0.5534  1.2656
  550MOL0     C74152   5.883   3.431   1.643  0.1306 -0.0776 -0.1215
  550MOL0     C74153   5.785   3.315   1.634  0.2552  0.2563 -0.3628
  550MOL0     C74154   5.819   3.201   1.731  0.0191  0.7495  0.0531
  550MOL0     C74155   5.697   3.104   1.746 -0.0225 -0.1565 -0.8855
  550MOL0     C74156   5.736   2.973   1.826  0.2754 -0.1056  0.2855
  550MOL0     C74157   5.626   2.854   1.815  0.4593 -1.0874  0.1684
  550MOL0     C74158   5.680   2.732   1.737  1.1987  0.2328 -0.0585
  550MOL0    Cl74159   5.842   2.673   1.770 -0.1357  0.2837 -0.1846
  550MOL0     C74160   5.783   3.573   1.184  0.4103  0.0753 -0.4718
  550MOL0     C74161   5.754   3.674   1.086  0.0165  0.5164 -0.7146
  550MOL0     O74162   5.826   4.074   1.075 -0.9493 -1.2434 -0.3327
  550MOL0     C74163   5.715   4.245   0.883  0.3199  0.5709 -0.3545
  550MOL0     C74164   5.627   4.333   0.817  0.3855 -0.6352 -0.1995
  550MOL0     N74165   4.930   4.538   0.875 -0.1870  1.1181 -0.3697
  550MOL0     N74166   4.811   4.563   0.851  0.3541  0.4515 -0.1736
  550MOL0     C74167   4.251   4.155   0.096  0.0164 -0.3413  0.1414
  550MOL0     C74168   4.162   4.059   0.044 -0.4643 -0.2460 -0.0663
  550MOL0     C74169   3.767   3.916  -0.075  0.1708  0.4768  0.0406
  550MOL0     C74170   3.816   3.786  -0.128 -0.4979  0.2736 -0.4677
  550MOL0     C74171   3.754   3.734  -0.241 -0.6603 -1.2046  0.7299
  550MOL0     C74172   3.643   3.792  -0.302 -0.0691  1.0130 -1.2993
  550MOL0     O74173   3.603   3.726  -0.415  0.6493  0.1747  0.3958
  550MOL0     C74174   3.529   3.791  -0.517 -0.1966 -0.4766  0.6418
  550MOL0     C74175   3.381   3.800  -0.480 -0.3731 -0.6586  0.1104
  550MOL0     C74176   3.298   3.701  -0.561 -0.2994  0.1585  0.1658
  550MOL0     C74177   3.344   3.550  -0.575 -0.1736 -0.3485 -0.0436
  550MOL0     C74178   3.353   3.491  -0.434 -0.4455  0.3530 -1.0040
  550MOL0     C74179   3.337   3.432  -0.329  0.1789  0.2982 -0.0073
  550MOL0     C74180   3.596   3.918  -0.253 -0.4298  0.4310 -0.5342
  550MOL0     C74181   3.662   3.980  -0.146  0.2133  0.5923 -0.8522
  550MOL0     C74182   3.600   4.103  -0.092 -0.6856  0.2766 -0.4464
  550MOL0     H74183   4.007   3.964   0.331 -0.0783  0.3948  0.3333
  550MOL0     H74184   4.170   4.110   0.428 -0.3269 -0.6836 -1.2174
  550MOL0     H74185   4.509   4.146   0.209  1.6649 -0.7178  0.6806
  550MOL0     H74186   4.529   4.310   0.258  0.8579 -1.3363 -0.1571
  550MOL0     H74187   4.639   4.127   0.403  0.7756  1.7226  2.3771
  550MOL0     H74188   4.485   4.067   0.459  1.5813 -2.2208  0.1029
  550MOL0     H74189   4.534   4.205   0.634 -1.4816  0.6076  0.9243
  550MOL0     H74190   4.432   4.317   0.531  0.2233  0.5559 -1.4715
  550MOL0     H74191   4.739   4.321   0.586  1.8615  3.0146 -2.1546
  550MOL0     H74192   4.682   4.363   0.436 -0.4527  0.3437 -0.0015
  550MOL0     H74193   4.507   4.529   0.582 -0.9411 -1.6838  1.1986
  550MOL0     H74194   4.616   4.469   0.711 -0.9065  0.3701  0.8189
  550MOL0     H74195   4.819   4.564   0.577  0.2748  2.9967 -0.0362
  550MOL0     H74196   4.702   4.601   0.445  1.0257  2.8472 -0.4712
  550MOL0     H74197   4.587   4.764   0.571 -0.0519 -0.9625 -1.4918
  550MOL0     H74198   4.762   4.795   0.558 -0.3542 -1.3845 -2.9411
  550MOL0     H74199   4.686   4.865   0.777 -1.4085  0.6977  0.3959
  550MOL0     H74200   4.601   4.726   0.812 -1.1094  1.6291 -0.2862
  550MOL0     H74201   4.981   4.831   0.752 -0.5583 -1.7434 -3.7565
  550MOL0     H74202   5.204   4.732   0.912  3.9313 -0.0538  0.0808
  550MOL0     H74203   5.188   4.554   0.938 -0.7273 -0.1708 -1.9147
  550MOL0     H74204   5.194   4.697   0.672 -0.6015 -0.2998 -1.1455
  550MOL0     H74205   5.343   4.615   0.744 -0.2933  0.6475  0.8771
  550MOL0     H74206   5.220   4.490   0.561 -4.7833  2.0926 -1.3536
  550MOL0     H74207   5.093   4.457   0.672  0.2802 -2.0756  0.4411
  550MOL0     H74208   5.266   4.286   0.661 -0.7345  0.1189 -0.4568
  550MOL0     H74209   5.247   4.330   0.821 -1.0151 -2.0339 -1.6320
  550MOL0     H74210   5.363   4.127   0.781  2.3514 -2.8563  0.9144
  550MOL0     H74211   5.512   3.993   0.913 -1.8472  0.9113  1.2636
  550MOL0     H74212   5.719   3.953   1.288  4.1169  0.8038  1.7264
  550MOL0     H74213   5.752   3.778   1.451  2.3109 -0.2270  0.2167
  550MOL0     H74214   5.908   3.613   1.571  1.8215 -1.6640 -1.8069
  550MOL0     H74215   5.738   3.565   1.618  0.2256  0.3788  0.7114
  550MOL0     H74216   5.980   3.399   1.602  1.0695  0.1309  1.8341
  550MOL0     H74217   5.890   3.452   1.750 -0.2303 -1.7203  0.2468
  550MOL0     H74218   5.688   3.356   1.663  1.2936  2.6508 -0.0447
  550MOL0     H74219   5.792   3.268   1.535 -2.5643 -5.1163  1.5693
  550MOL0     H74220   5.843   3.237   1.832  0.1445 -2.5861  1.3339
  550MOL0     H74221   5.909   3.154   1.690 -0.5800  0.2526 -0.7228
  550MOL0     H74222   5.667   3.088   1.642  1.8731  2.2690 -1.8962
  550MOL0     H74223   5.613   3.157   1.792  0.1492  0.1174 -0.8916
  550MOL0     H74224   5.829   2.929   1.788  0.5078  0.8511 -0.2931
  550MOL0     H74225   5.748   3.001   1.931 -0.1378 -0.4944  0.4418
  550MOL0     H74226   5.555   2.902   1.747  1.4679 -1.3885 -1.1441
  550MOL0     H74227   5.587   2.834   1.915  0.1004 -0.4209  0.1720
  550MOL0     H74228   5.607   2.656   1.765 -0.1874 -0.9592 -5.7525
  550MOL0     H74229   5.671   2.745   1.629 -4.3091 -0.2034  0.0996
  550MOL0     H74230   5.816   3.471   1.165  1.4623 -0.0740  1.8450
  550MOL0     H74231   5.749   3.649   0.980 -1.6116  2.8719 -1.2705
  550MOL0     H74232   5.820   4.266   0.904  0.9748 -3.1907  0.9453
  550MOL0     H74233   5.656   4.433   0.785 -2.8935  0.8833  1.0483
  550MOL0     H74234   4.291   4.222   0.021 -3.3335 -0.3656 -1.9073
  550MOL0     H74235   4.163   4.039  -0.062  0.6450 -0.9591  0.0634
  550MOL0     H74236   3.899   3.735  -0.079  0.1041  0.1416 -1.5917
  550MOL0     H74237   3.796   3.642  -0.280 -0.2272 -1.4172  1.6766
  550MOL0     H74238   3.544   3.740  -0.613  0.6588 -1.1793  1.1458
  550MOL0     H74239   3.579   3.887  -0.534  0.5210 -1.1505 -1.4448
  550MOL0     H74240   3.354   3.903  -0.503 -0.7263 -0.3176  1.9372
  550MOL0     H74241   3.371   3.777  -0.374 -1.5740  1.6008  0.5530
  550MOL0     H74242   3.290   3.750  -0.659  2.5814 -0.0756 -0.2855
  550MOL0     H74243   3.195   3.706  -0.525  0.3007 -0.4451  2.0427
  550MOL0     H74244   3.277   3.486  -0.633 -1.0058  0.2975  0.1799
  550MOL0     H74245   3.444   3.547  -0.620 -0.9018  2.4318 -2.1177
  550MOL0     H74246   3.333   3.373  -0.240  2.5096 -0.8213 -0.5840
  550MOL0     H74247   3.505   3.962  -0.293 -1.5207 -1.8467 -0.6844
  550MOL0     H74248   3.560   4.095   0.010  1.0222 -0.6973  0.1938
  550MOL0     H74249   3.664   4.192  -0.083 -2.6437  1.5677  1.7685
  550MOL0     H74250   3.510   4.131  -0.147  0.3056  0.0311 -2.2615
  551MOL0     O74251   0.937   9.954   7.213 -0.1843  0.2959  0.1179
  551MOL0     C74252   0.896  10.051   7.144 -0.6063 -1.0827  0.6667
  551MOL0     O74253   0.925  10.180   7.174 -0.0166  0.0750  0.1926
  551MOL0     C74254   0.982  10.216   7.286 -0.0784  0.5736 -0.3172
  551MOL0     C74255   0.944  10.165   7.408 -0.4264 -0.8099  0.3098
  551MOL0     C74256   1.004  10.200   7.530  0.1133  0.1651  0.1985
  551MOL0     C74257   1.126  10.285   7.521 -0.3687  0.3622 -0.1741
  551MOL0     O74258   1.181  10.326   7.641 -0.1727 -0.4556  0.7756
  551MOL0     C74259   1.317  10.370   7.635  0.3657 -0.4913 -0.9685
  551MOL0     C74260   1.388  10.346   7.772  0.4209  0.3732  0.0449
  551MOL0     C74261   1.529  10.410   7.757  0.6607  0.2978  0.9784
  551MOL0     C74262   1.616  10.321   7.656 -0.0632  1.2082 -0.1340
  551MOL0     C74263   1.760  10.361   7.658 -0.1476 -0.6518  0.5408
  551MOL0     C74264   1.823  10.370   7.807 -0.8650  0.5231  0.8927
  551MOL0     C74265   1.971  10.414   7.806  0.0592  0.9129 -0.4884
  551MOL0     C74266   2.023  10.421   7.953  0.0331  0.1062 -0.2019
  551MOL0     N74267   2.166  10.468   7.972 -0.1636 -0.2991 -0.4876
  551MOL0     C74268   2.255  10.384   8.021 -0.2321  0.5867 -0.3052
  551MOL0     C74269   2.373  10.432   7.981  0.3228 -0.6004  0.8957
  551MOL0     C74270   2.505  10.362   8.020  0.2494  0.4389 -0.1213
  551MOL0     C74271   2.638  10.412   7.967  0.1464 -0.8593  0.2825
  551MOL0     C74272   2.764  10.357   8.034 -1.3550 -0.2685 -0.1787
  551MOL0     C74273   2.891  10.441   8.001  0.0615 -0.1252 -0.5466
  551MOL0     O74274   2.908  10.552   8.084 -0.6380 -0.6940 -0.3803
  551MOL0     C74275   3.032  10.612   8.076 -0.7173 -0.3060  1.5268
  551MOL0     C74276   3.070  10.710   8.175 -0.0101  0.1811 -0.2450
  551MOL0     C74277   3.189  10.772   8.193 -0.2914 -0.1101  0.3495
  551MOL0     C74278   3.293  10.737   8.107 -0.8840  0.4742 -0.1607
  551MOL0     C74279   3.427  10.788   8.121  0.6842  0.2927 -0.6041
  551MOL0     O74280   3.525  10.757   8.032  0.5597  0.5865 -0.0647
  551MOL0     C74281   3.658  10.783   8.064 -0.1963  0.5580  0.1343
  551MOL0     C74282   3.732  10.860   7.973  0.7844 -0.1636  0.2110
  551MOL0     C74283   3.861  10.889   7.997  0.1535 -0.5797 -0.5139
  551MOL0     C74284   3.931  10.838   8.104  0.4916  0.1767  0.3912
  551MOL0     O74285   4.065  10.844   8.135  0.4175  0.1684 -0.3123
  551MOL0     C74286   4.146  10.880   8.026  0.0049  0.0463  0.2471
  551MOL0     C74287   4.169  11.034   8.013  0.0230  0.7636 -0.0769
  551MOL0     C74288   4.243  11.082   8.141  0.0732 -0.4082 -0.6620
  551MOL0     C74289   4.237  11.235   8.130 -0.3508 -0.5158  0.6210
  551MOL0     C74290   4.331  11.296   8.242  0.0579 -0.3953  0.0641
  551MOL0     C74291   4.484  11.271   8.228  0.6525  0.6901  0.4438
  551MOL0     C74292   4.573  11.352   8.322 -0.0372  0.9951  0.7038
  551MOL0     C74293   4.717  11.302   8.307 -0.0309 -0.1610  0.2252
  551MOL0    Cl74294   4.841  11.381   8.419  0.3520 -0.2666 -0.2553
  551MOL0     C74295   3.857  10.761   8.195  0.6780 -0.4934  0.1627
  551MOL0     C74296   3.713  10.730   8.174  0.0145  0.6702 -0.2309
  551MOL0     O74297   3.448  10.867   8.212  0.0134  0.4400  0.6067
  551MOL0     C74298   3.267  10.647   8.006  0.3187  1.1530  0.6651
  551MOL0     C74299   3.142  10.582   7.990  0.5637  0.7538  0.0767
  551MOL0     N74300   2.349  10.539   7.889  0.2542  0.4676 -0.0766
  551MOL0     N74301   2.223  10.558   7.891 -0.6322 -0.5993  0.6523
  551MOL0     C74302   1.167  10.340   7.398  0.5954 -0.1726 -0.3944
  551MOL0     C74303   1.084  10.314   7.283  0.5136  0.1288  0.3424
  551MOL0     C74304   0.830  10.014   7.016 -0.7124  0.5169 -0.4226
  551MOL0     C74305   0.766   9.887   7.006  0.6071 -0.1149 -0.0065
  551MOL0     C74306   0.694   9.854   6.890 -0.1424  0.8428  0.1643
  551MOL0     C74307   0.689   9.942   6.784 -0.0534  0.1211  1.0368
  551MOL0     O74308   0.615   9.912   6.678 -0.4630 -0.1571 -0.9351
  551MOL0     C74309   0.605   9.771   6.637 -0.3528 -0.1174 -0.1875
  551MOL0     C74310   0.722   9.732   6.549 -0.3798 -0.0445  0.2977
  551MOL0     C74311   0.727   9.818   6.429  0.5679  0.6355  0.6138
  551MOL0     C74312   0.833   9.775   6.332 -0.1560 -0.0403  0.0871
  551MOL0     C74313   0.965   9.745   6.394 -1.1426  0.2825 -0.8521
  551MOL0     C74314   1.069   9.712   6.451  0.0002  0.7037 -0.3769
  551MOL0     C74315   0.738  10.068   6.801 -0.0503 -0.4071 -0.0720
  551MOL0     C74316   0.807  10.108   6.914  0.3170  0.2508  1.0058
  551MOL0     C74317   0.833  10.256   6.926  0.2569  0.1155  0.5277
  551MOL0     H74318   0.858  10.101   7.420 -1.0669 -0.1814 -0.7483
  551MOL0     H74319   0.964  10.163   7.623 -2.0359  0.7513 -0.4436
  551MOL0     H74320   1.372  10.323   7.553 -0.7853 -0.0424 -2.0274
  551MOL0     H74321   1.318  10.478   7.619  0.8347 -0.0174  1.7103
  551MOL0     H74322   1.381  10.241   7.802 -3.2034  0.9179  1.6701
  551MOL0     H74323   1.336  10.396   7.854 -0.7508  1.2190 -1.1866
  551MOL0     H74324   1.571  10.401   7.858 -0.8397 -0.5359  1.5535
  551MOL0     H74325   1.522  10.513   7.720 -2.3872  0.5055  1.8865
  551MOL0     H74326   1.605  10.221   7.697 -0.3654  1.3897  0.2387
  551MOL0     H74327   1.573  10.309   7.557 -1.3772 -1.7910  0.7032
  551MOL0     H74328   1.831  10.289   7.616  1.8919  1.3592  0.3509
  551MOL0     H74329   1.775  10.461   7.616  1.0436 -1.7516 -1.8563
  551MOL0     H74330   1.791  10.460   7.861 -0.5727  1.7523 -0.9026
  551MOL0     H74331   1.820  10.279   7.867 -3.1800  0.5755  0.9396
  551MOL0     H74332   1.994  10.515   7.771  2.0951  0.1126 -1.6223
  551MOL0     H74333   2.022  10.336   7.749 -0.1803 -1.1749  1.9981
  551MOL0     H74334   1.950  10.485   8.002 -1.1740 -0.1666 -1.5602
  551MOL0     H74335   2.011  10.324   8.002 -0.2156  0.7016  0.9482
  551MOL0     H74336   2.228  10.295   8.077 -4.2063  1.3689 -0.6855
  551MOL0     H74337   2.509  10.402   8.122 -0.1907 -0.3591  0.2205
  551MOL0     H74338   2.504  10.253   8.011  1.2644  0.4818 -0.8574
  551MOL0     H74339   2.640  10.384   7.861 -1.8160  1.8231 -0.5997
  551MOL0     H74340   2.647  10.521   7.975  0.6964 -1.0504  3.3704
  551MOL0     H74341   2.786  10.251   8.020 -1.3807 -0.2665 -0.2399
  551MOL0     H74342   2.746  10.363   8.141 -1.5866  2.8509 -0.2982
  551MOL0     H74343   2.873  10.477   7.899 -3.4902  1.2765  0.4040
  551MOL0     H74344   2.973  10.369   7.997  1.3289  1.3312 -2.5603
  551MOL0     H74345   2.986  10.742   8.236 -2.3692 -1.4184 -2.4525
  551MOL0     H74346   3.201  10.848   8.270 -0.8357  0.7167 -0.3614
  551MOL0     H74347   3.692  10.899   7.880 -0.8082  3.3472  2.1750
  551MOL0     H74348   3.909  10.956   7.927  2.7745  0.7157  2.3142
  551MOL0     H74349   4.244  10.839   8.053 -0.1238  1.2857  2.8664
  551MOL0     H74350   4.122  10.822   7.936  1.6581 -3.1243  1.6546
  551MOL0     H74351   4.225  11.069   7.926  6.0519  0.0727  2.9366
  551MOL0     H74352   4.071  11.081   8.016 -1.1237 -1.5295  0.3204
  551MOL0     H74353   4.203  11.048   8.238  4.0941 -0.5941  1.1401
  551MOL0     H74354   4.345  11.044   8.148 -0.6728 -2.3386  1.0995
  551MOL0     H74355   4.135  11.270   8.151  0.5479  5.3296 -2.4251
  551MOL0     H74356   4.252  11.275   8.029 -3.9182  1.4257  0.6830
  551MOL0     H74357   4.302  11.275   8.345  2.4134 -1.2844  0.5919
  551MOL0     H74358   4.324  11.404   8.229 -2.4678 -0.5048  0.0129
  551MOL0     H74359   4.503  11.166   8.250  1.5209  1.0880  1.7255
  551MOL0     H74360   4.510  11.306   8.128 -2.8991  1.4831 -0.3356
  551MOL0     H74361   4.552  11.329   8.427 -3.0907  1.2535  0.2421
  551MOL0     H74362   4.570  11.459   8.304  0.1098  0.7306 -1.0700
  551MOL0     H74363   4.714  11.193   8.317 -1.6693 -0.1796 -0.1542
  551MOL0     H74364   4.757  11.329   8.209 -0.9711  0.1014 -0.0934
  551MOL0     H74365   3.905  10.712   8.280  2.2039 -0.5452 -0.6999
  551MOL0     H74366   3.653  10.667   8.238 -2.3630  1.3119 -1.7089
  551MOL0     H74367   3.348  10.629   7.935 -1.8257 -0.1220 -1.6399
  551MOL0     H74368   3.128  10.513   7.907  2.5402 -0.1448  0.4359
  551MOL0     H74369   1.241  10.418   7.388 -1.5130  1.8109 -1.7563
  551MOL0     H74370   1.108  10.365   7.190 -0.2002  1.8857  1.0704
  551MOL0     H74371   0.771   9.807   7.079 -1.6982 -2.0653 -1.8396
  551MOL0     H74372   0.651   9.756   6.906  0.3147  0.7871  1.1067
  551MOL0     H74373   0.513   9.760   6.578  0.8237  1.3979 -2.4189
  551MOL0     H74374   0.596   9.691   6.712  0.4828 -1.5352 -1.5292
  551MOL0     H74375   0.708   9.627   6.523 -1.8465 -0.2526  1.7610
  551MOL0     H74376   0.811   9.715   6.610  0.5071 -0.7976 -1.1679
  551MOL0     H74377   0.754   9.919   6.460 -2.6549  1.6107  0.4963
  551MOL0     H74378   0.630   9.827   6.380  0.8846  3.3427  0.3553
  551MOL0     H74379   0.812   9.682   6.277 -0.4484 -0.0622  0.2358
  551MOL0     H74380   0.838   9.849   6.252 -1.3123  0.0642  0.1006
  551MOL0     H74381   1.166   9.690   6.490 -0.1362  2.6370  1.2581
  551MOL0     H74382   0.731  10.140   6.720  2.6135 -0.9146 -0.8599
  551MOL0     H74383   0.789  10.299   7.017 -1.0772 -1.4582  0.6807
  551MOL0     H74384   0.940  10.277   6.918  0.4111 -0.1296  1.6794
  551MOL0     H74385   0.783  10.301   6.840 -0.2725 -1.1896  0.1212
  552MOL0     O74386  11.216   4.991   1.931  0.7638  0.0553 -0.4284
  552MOL0     C74387  11.223   4.991   1.808  0.3932 -0.8353  0.6681
  552MOL0     O74388  11.336   5.049   1.751  0.8170  0.1206  0.1836
  552MOL0     C74389  11.441   5.109   1.815 -0.3369 -1.1675 -0.6478
  552MOL0     C74390  11.531   5.175   1.729 -1.0243 -0.4005  0.4251
  552MOL0     C74391  11.655   5.231   1.786 -0.3017  0.5385  0.0073
  552MOL0     C74392  11.692   5.220   1.916 -1.5275  0.4456  0.8301
  552MOL0     O74393  11.825   5.254   1.951  0.4548  0.3108 -0.4501
  552MOL0     C74394  11.844   5.293   2.091  0.7288 -0.5608 -0.1034
  552MOL0     C74395  11.979   5.357   2.105 -0.1943 -0.9614  0.3830
  552MOL0     C74396  12.099   5.257   2.086 -1.0944 -0.4445 -0.0083
  552MOL0     C74397  12.224   5.332   2.136 -0.5923 -0.4202  0.7084
  552MOL0     C74398  12.252   5.337   2.279 -0.1999 -0.3355 -0.7659
  552MOL0     C74399  12.248   5.191   2.337  0.3501 -0.6635  0.2144
  552MOL0     C74400  12.347   5.196   2.454  0.5225  0.0380  0.7176
  552MOL0     C74401  12.499   5.186   2.422  0.8343  0.0114 -0.4663
  552MOL0     N74402  12.587   5.106   2.512 -0.0561 -0.3855 -0.0836
  552MOL0     C74403  12.591   5.116   2.645  0.2736 -0.3792 -0.1317
  552MOL0     C74404  12.716   5.073   2.677 -0.5649  0.0488 -0.0367
  552MOL0     C74405  12.775   5.043   2.810 -0.5084 -0.2674 -0.3614
  552MOL0     C74406  12.717   5.139   2.909 -1.0529 -0.1906  0.9449
  552MOL0     C74407  12.790   5.120   3.043 -0.7716  0.6934 -0.4811
  552MOL0     C74408  12.940   5.177   3.033  0.2459  0.8121 -0.5225
  552MOL0     O74409  12.995   5.213   3.156 -0.5189  0.5970 -0.2913
  552MOL0     C74410  13.052   5.112   3.240  1.1049  0.1892 -0.4300
  552MOL0     C74411  13.104   5.150   3.367 -0.2966  0.2199 -0.0102
  552MOL0     C74412  13.143   5.053   3.453 -0.3112  0.3298 -0.4310
  552MOL0     C74413  13.156   4.913   3.413 -0.4014  0.5252  0.0333
  552MOL0     C74414  13.214   4.809   3.506  0.6560 -0.5447 -0.7679
  552MOL0     O74415  13.281   4.851   3.617  0.2636  1.1792  0.1831
  552MOL0     C74416  13.326   4.755   3.708 -0.8352 -0.1754  1.0294
  552MOL0     C74417  13.446   4.675   3.681  0.5035 -0.0016 -0.0044
  552MOL0     C74418  13.507   4.604   3.779  0.3560 -0.1599  0.0196
  552MOL0     C74419  13.431   4.574   3.900 -0.2546 -0.4247  0.3031
  552MOL0     O74420  13.483   4.499   4.010 -0.1234  0.2638  0.0947
  552MOL0     C74421  13.563   4.381   3.969  0.0189 -0.2191 -0.3637
  552MOL0     C74422  13.593   4.314   4.105 -0.9940  1.0547  0.8257
  552MOL0     C74423  13.708   4.215   4.090 -0.3613  0.4677 -0.8630
  552MOL0     C74424  13.655   4.077   4.087  0.3657  0.2117  0.7351
  552MOL0     C74425  13.762   3.960   4.087 -0.3838  0.1159 -0.0656
  552MOL0     C74426  13.837   3.950   3.948 -0.3187 -0.0286 -0.9777
  552MOL0     C74427  13.901   3.813   3.929 -0.4006  0.4303 -0.1010
  552MOL0     C74428  13.796   3.729   3.866 -0.5172  0.3416 -1.2397
  552MOL0    Cl74429  13.857   3.555   3.880  0.1738  0.4793 -0.2161
  552MOL0     C74430  13.320   4.651   3.918  0.2989 -0.3620 -0.4240
  552MOL0     C74431  13.273   4.740   3.829  0.1884 -0.1203 -0.6669
  552MOL0     O74432  13.182   4.688   3.476  0.3871 -0.1266 -0.6775
  552MOL0     C74433  13.133   4.879   3.277  0.3456  0.4821  0.5577
  552MOL0     C74434  13.060   4.978   3.198 -0.5517  0.1547 -0.1780
  552MOL0     N74435  12.775   5.024   2.562  0.0565 -0.2005  0.8482
  552MOL0     N74436  12.701   5.043   2.464 -0.9197 -0.2178  0.5435
  552MOL0     C74437  11.597   5.155   1.999 -1.2706  0.1241  0.1053
  552MOL0     C74438  11.472   5.111   1.957  0.3391 -0.3943  0.3922
  552MOL0     C74439  11.095   4.951   1.738 -0.2528  0.0057 -0.6318
  552MOL0     C74440  11.096   4.991   1.609 -0.8754 -0.9710  0.6740
  552MOL0     C74441  10.998   4.957   1.520  0.4663 -0.2232 -1.4092
  552MOL0     C74442  10.895   4.866   1.561 -0.3663  0.0342 -0.4426
  552MOL0     O74443  10.809   4.821   1.470 -0.6024  0.1202 -0.3182
  552MOL0     C74444  10.735   4.706   1.508 -0.4892 -0.8053  0.0617
  552MOL0     C74445  10.722   4.626   1.382  0.2601 -0.0095  0.0953
  552MOL0     C74446  10.619   4.505   1.384  0.4602 -0.5181  0.3423
  552MOL0     C74447  10.474   4.570   1.394 -0.1773 -0.5098  0.3242
  552MOL0     C74448  10.443   4.582   1.537  0.5759 -0.0762 -0.1278
  552MOL0     C74449  10.409   4.597   1.658 -0.7982  1.6596 -0.5620
  552MOL0     C74450  10.888   4.839   1.697 -0.7147  0.4517  0.1748
  552MOL0     C74451  10.983   4.882   1.788  0.1316  0.2663  0.5478
  552MOL0     C74452  10.963   4.834   1.930  0.2405 -0.3765  0.3276
  552MOL0     H74453  11.512   5.199   1.625  2.9981  2.9276  0.1619
  552MOL0     H74454  11.714   5.282   1.710  0.7711 -0.2102  0.3288
  552MOL0     H74455  11.759   5.348   2.134  1.8025  0.0949  1.2882
  552MOL0     H74456  11.850   5.198   2.145  4.3307  0.0976  0.9613
  552MOL0     H74457  11.987   5.413   2.199 -0.1303 -3.2142  1.7815
  552MOL0     H74458  11.982   5.437   2.029 -0.8941  0.2036  1.5467
  552MOL0     H74459  12.118   5.243   1.980  3.4188 -0.1969  0.5662
  552MOL0     H74460  12.076   5.153   2.110 -1.2608 -0.8418 -1.7959
  552MOL0     H74461  12.305   5.285   2.080 -2.0484 -2.5485  0.2439
  552MOL0     H74462  12.216   5.437   2.108 -0.0441 -0.2798  1.0580
  552MOL0     H74463  12.341   5.395   2.303 -2.2671  2.5187  0.6448
  552MOL0     H74464  12.170   5.396   2.322 -0.8851 -0.7464 -1.4744
  552MOL0     H74465  12.146   5.177   2.375  0.0298  0.7747 -0.0695
  552MOL0     H74466  12.285   5.105   2.280  0.5268 -0.9877  0.8037
  552MOL0     H74467  12.318   5.110   2.516  2.3821  0.5055  2.3520
  552MOL0     H74468  12.316   5.278   2.519 -3.4524 -1.9128  1.5964
  552MOL0     H74469  12.514   5.130   2.329  1.2851  1.5509 -1.3712
  552MOL0     H74470  12.544   5.286   2.413  1.7701 -0.1430  1.8251
  552MOL0     H74471  12.518   5.167   2.706  0.4861  1.6491 -1.4819
  552MOL0     H74472  12.773   4.939   2.844  2.8735 -0.2861  0.0765
  552MOL0     H74473  12.883   5.058   2.800  0.1183 -2.3283  2.1941
  552MOL0     H74474  12.737   5.244   2.886  2.3315 -0.9247  0.0010
  552MOL0     H74475  12.609   5.126   2.923 -1.2656 -0.7158 -0.9482
  552MOL0     H74476  12.792   5.012   3.062 -2.1573  0.9478  1.3804
  552MOL0     H74477  12.733   5.155   3.129 -0.9972 -4.4323  1.8495
  552MOL0     H74478  12.939   5.266   2.969 -2.2789  1.1764 -0.0775
  552MOL0     H74479  13.005   5.107   2.978 -0.5360 -0.4563  0.1207
  552MOL0     H74480  13.109   5.255   3.393  4.1946  0.1738  0.0626
  552MOL0     H74481  13.178   5.071   3.554 -2.8616  3.1160  0.0969
  552MOL0     H74482  13.490   4.693   3.584 -1.7105 -0.3738 -1.1222
  552MOL0     H74483  13.611   4.575   3.769  1.0352  0.9025  2.9990
  552MOL0     H74484  13.513   4.316   3.897  3.6776  0.4662 -3.8199
  552MOL0     H74485  13.657   4.405   3.921 -0.8033  4.4660 -0.0617
  552MOL0     H74486  13.629   4.395   4.169  1.2126  1.5982 -0.9976
  552MOL0     H74487  13.506   4.270   4.154  1.0885 -0.9077  3.0917
  552MOL0     H74488  13.764   4.236   3.999 -1.8113 -1.1907 -2.1945
  552MOL0     H74489  13.774   4.227   4.177 -3.0892  2.4298  1.1539
  552MOL0     H74490  13.589   4.076   4.000  2.2412  0.8143 -0.7702
  552MOL0     H74491  13.585   4.067   4.171 -3.3868 -1.0442 -2.2675
  552MOL0     H74492  13.711   3.865   4.105  4.0560 -2.9825 -1.8206
  552MOL0     H74493  13.837   3.965   4.167  1.5847 -0.9938 -1.7302
  552MOL0     H74494  13.760   3.976   3.875 -0.9223  0.0620 -0.3239
  552MOL0     H74495  13.915   4.027   3.946  1.4707 -1.6202  1.6462
  552MOL0     H74496  13.931   3.769   4.025  0.0668  0.7618 -0.0933
  552MOL0     H74497  13.986   3.817   3.860 -2.0756 -0.2651 -2.3166
  552MOL0     H74498  13.694   3.735   3.903 -1.3280  1.2968 -3.4552
  552MOL0     H74499  13.790   3.763   3.762  1.8042  2.0532 -0.8930
  552MOL0     H74500  13.273   4.654   4.015 -2.5918 -2.1776 -1.6296
  552MOL0     H74501  13.185   4.796   3.861  0.7973  0.4280  0.0882
  552MOL0     H74502  13.154   4.784   3.229 -0.0924 -0.3897  2.0235
  552MOL0     H74503  13.038   4.946   3.097 -0.7979  1.4509 -0.5417
  552MOL0     H74504  11.625   5.144   2.103  2.4421  0.4933 -0.7250
  552MOL0     H74505  11.408   5.066   2.032  0.8712 -0.1924  0.9728
  552MOL0     H74506  11.183   5.039   1.564 -3.0341  1.8720 -0.7524
  552MOL0     H74507  11.006   4.979   1.414  0.0319 -2.7115 -2.0176
  552MOL0     H74508  10.635   4.741   1.538 -0.4531 -0.5963 -0.0570
  552MOL0     H74509  10.781   4.650   1.589  3.0895  0.9261 -0.5839
  552MOL0     H74510  10.817   4.585   1.347  0.0944  0.1325 -0.5322
  552MOL0     H74511  10.695   4.699   1.305  1.7261  1.2059  0.6749
  552MOL0     H74512  10.637   4.441   1.470  0.8368 -3.1096 -1.5373
  552MOL0     H74513  10.634   4.444   1.295 -1.0159 -0.6096  0.1182
  552MOL0     H74514  10.470   4.669   1.347 -0.8033 -1.0469 -0.7805
  552MOL0     H74515  10.401   4.497   1.359 -2.0953  0.2545  2.4537
  552MOL0     H74516  10.373   4.617   1.757  0.2884  3.8803 -0.5481
  552MOL0     H74517  10.798   4.794   1.737 -0.5370  0.2853  0.3891
  552MOL0     H74518  11.030   4.749   1.948 -1.6205 -2.7913 -2.9773
  552MOL0     H74519  10.984   4.915   2.000  0.9923  1.8272 -2.2543
  552MOL0     H74520  10.858   4.808   1.943 -0.4658  1.2356 -1.6206
  553MOL0     O74521   4.395   1.142   1.316  0.8671 -0.1239  0.6948
  553MOL0     C74522   4.507   1.093   1.300 -0.3533 -0.2850  0.0956
  553MOL0     O74523   4.528   0.974   1.218  0.8666 -0.1506 -0.0005
  553MOL0     C74524   4.637   0.899   1.244 -0.3634  0.2146  0.1329
  553MOL0     C74525   4.709   0.836   1.142 -0.0278 -0.2789  0.1948
  553MOL0     C74526   4.829   0.762   1.172  0.5774 -0.7192 -0.2381
  553MOL0     C74527   4.873   0.736   1.307 -0.6430  0.1872 -0.3739
  553MOL0     O74528   4.981   0.655   1.338  0.3953 -0.3731  0.2875
  553MOL0     C74529   5.055   0.615   1.221  0.0357  0.0633 -0.1452
  553MOL0     C74530   5.164   0.507   1.260  0.9842 -0.0395 -0.3566
  553MOL0     C74531   5.296   0.574   1.319 -0.1408 -0.0845 -0.3478
  553MOL0     C74532   5.276   0.678   1.434 -0.0193 -0.1396  0.1189
  553MOL0     C74533   5.411   0.719   1.487 -0.1734 -0.1676 -0.7941
  553MOL0     C74534   5.473   0.639   1.603  0.2128 -0.2228 -0.0164
  553MOL0     C74535   5.591   0.715   1.670  0.1243 -0.6410  0.2611
  553MOL0     C74536   5.721   0.686   1.596 -0.2463 -0.5584  0.2450
  553MOL0     N74537   5.834   0.747   1.660  0.3872 -0.6058 -0.4706
  553MOL0     C74538   5.931   0.829   1.603 -0.0377 -0.6481 -0.2261
  553MOL0     C74539   6.041   0.814   1.682  0.1613 -1.1254  0.2016
  553MOL0     C74540   6.182   0.860   1.640  0.9073 -0.0165  0.2369
  553MOL0     C74541   6.291   0.814   1.733 -0.4984  0.1156 -0.3987
  553MOL0     C74542   6.431   0.835   1.681 -0.4704 -1.7940 -0.0804
  553MOL0     C74543   6.527   0.780   1.791  0.1319 -0.7304 -0.0007
  553MOL0     O74544   6.649   0.847   1.765 -0.0252  0.1878  0.2727
  553MOL0     C74545   6.764   0.791   1.804  0.3197  0.9757 -0.6575
  553MOL0     C74546   6.882   0.838   1.746 -0.7771  0.4862 -0.4548
  553MOL0     C74547   7.007   0.795   1.790 -0.4096  0.7295  0.2205
  553MOL0     C74548   7.019   0.692   1.879 -0.0014  0.6455 -0.7233
  553MOL0     C74549   7.151   0.635   1.908 -0.7341 -0.5998 -0.0360
  553MOL0     O74550   7.263   0.715   1.876  0.0293  0.8266  0.6568
  553MOL0     C74551   7.387   0.651   1.884  0.3844 -0.7835 -0.1639
  553MOL0     C74552   7.405   0.535   1.805 -0.4116 -0.3570 -0.0041
  553MOL0     C74553   7.531   0.470   1.799  0.0692  0.5081  0.8473
  553MOL0     C74554   7.639   0.524   1.859 -0.1028  0.1806 -0.6494
  553MOL0     O74555   7.757   0.460   1.848 -0.7338  0.4136  0.5169
  553MOL0     C74556   7.870   0.492   1.939  0.5671  0.4697  0.8567
  553MOL0     C74557   7.962   0.369   1.962  0.3307  0.0280 -0.2945
  553MOL0     C74558   8.012   0.381   2.100 -1.0446  0.1331  0.4052
  553MOL0     C74559   8.121   0.275   2.115 -0.1756 -0.5589  0.2913
  553MOL0     C74560   8.166   0.242   2.261  0.4466 -0.3162  0.8538
  553MOL0     C74561   8.229   0.368   2.317 -0.1433  0.3423  0.7756
  553MOL0     C74562   8.319   0.349   2.446  1.2807  0.0221  0.4585
  553MOL0     C74563   8.413   0.474   2.479 -0.0858  0.1779 -0.6834
  553MOL0    Cl74564   8.555   0.420   2.566  0.2270 -0.3507 -0.0214
  553MOL0     C74565   7.624   0.646   1.931  0.7217 -0.1723  0.4252
  553MOL0     C74566   7.501   0.710   1.935  0.1143  0.1172  0.0551
  553MOL0     O74567   7.150   0.520   1.945 -0.5363  0.5221 -0.0463
  553MOL0     C74568   6.902   0.633   1.936 -0.6008 -0.9480  0.2678
  553MOL0     C74569   6.773   0.690   1.901 -0.3436  0.0681  1.2801
  553MOL0     N74570   6.005   0.744   1.790 -0.1787  0.6803 -0.2124
  553MOL0     N74571   5.880   0.705   1.783 -0.2144 -0.3108  0.7760
  553MOL0     C74572   4.787   0.786   1.405 -1.0861  1.3065 -0.3326
  553MOL0     C74573   4.682   0.870   1.378  0.0243 -0.1314  0.0997
  553MOL0     C74574   4.632   1.173   1.338 -0.4930 -0.3829 -0.0155
  553MOL0     C74575   4.734   1.211   1.241 -0.8099  0.2442 -0.5504
  553MOL0     C74576   4.836   1.296   1.266  0.2873 -0.2576 -0.7064
  553MOL0     C74577   4.858   1.350   1.397 -0.4515  0.3970 -1.1524
  553MOL0     O74578   4.961   1.440   1.429 -0.0060 -0.7652  0.2125
  553MOL0     C74579   5.061   1.486   1.337 -0.6402 -0.0088  0.3121
  553MOL0     C74580   5.169   1.381   1.307 -0.1002 -0.3030  0.2238
  553MOL0     C74581   5.249   1.357   1.443  0.0249  0.4383  0.1743
  553MOL0     C74582   5.186   1.253   1.543  0.0788  0.6929 -0.8488
  553MOL0     C74583   5.282   1.225   1.648  0.2030  0.5970 -1.1849
  553MOL0     C74584   5.355   1.223   1.749 -0.7741 -0.3986 -0.5984
  553MOL0     C74585   4.755   1.319   1.497  0.1818  0.0270 -0.2637
  553MOL0     C74586   4.639   1.239   1.467  0.0578  0.5459 -0.8281
  553MOL0     C74587   4.546   1.210   1.579  0.6134 -0.6982  0.3856
  553MOL0     H74588   4.684   0.845   1.037 -1.7352 -2.5000  0.3270
  553MOL0     H74589   4.885   0.732   1.084 -0.7773 -1.9088 -0.7210
  553MOL0     H74590   4.981   0.566   1.157  1.3789  2.5082 -3.8997
  553MOL0     H74591   5.094   0.704   1.170 -0.8605  1.3519  1.3316
  553MOL0     H74592   5.195   0.453   1.170 -0.8417  0.7460 -1.4957
  553MOL0     H74593   5.124   0.434   1.331 -0.6683  1.7942  0.6801
  553MOL0     H74594   5.341   0.608   1.226 -0.2292 -2.9262 -1.5311
  553MOL0     H74595   5.363   0.498   1.361  2.1559  0.3850 -2.8915
  553MOL0     H74596   5.225   0.761   1.383 -0.4600 -2.0866 -2.8580
  553MOL0     H74597   5.212   0.633   1.511 -0.0786 -2.5730 -1.2745
  553MOL0     H74598   5.484   0.727   1.406  0.7900  0.6907  0.1250
  553MOL0     H74599   5.389   0.815   1.534 -1.4758 -1.4874  1.4535
  553MOL0     H74600   5.391   0.643   1.675 -0.2539  0.6859 -0.5703
  553MOL0     H74601   5.478   0.534   1.573 -3.0998 -0.2076 -1.0715
  553MOL0     H74602   5.603   0.688   1.775  2.3157 -0.2868  0.1387
  553MOL0     H74603   5.571   0.822   1.666 -0.5707 -0.6553  2.2995
  553MOL0     H74604   5.747   0.580   1.592 -0.4700 -0.7264  2.1669
  553MOL0     H74605   5.712   0.718   1.492  1.3651 -0.7396  0.0167
  553MOL0     H74606   5.923   0.867   1.501  1.5837 -0.8207 -0.4425
  553MOL0     H74607   6.206   0.827   1.539  0.0872 -1.2049  0.3940
  553MOL0     H74608   6.174   0.968   1.628  0.4055 -0.3402 -3.6332
  553MOL0     H74609   6.274   0.868   1.827  2.8108  0.5961  0.0455
  553MOL0     H74610   6.278   0.705   1.742  1.1898  0.0125  2.3472
  553MOL0     H74611   6.460   0.939   1.668  0.9493 -2.2379 -0.6616
  553MOL0     H74612   6.434   0.781   1.586  0.2728  1.7378 -2.2160
  553MOL0     H74613   6.532   0.673   1.774 -2.8390 -0.7589 -1.3781
  553MOL0     H74614   6.498   0.798   1.895 -2.4178  0.0282 -0.7488
  553MOL0     H74615   6.872   0.916   1.671 -0.0612  0.8577 -0.1840
  553MOL0     H74616   7.095   0.848   1.753 -0.7898  1.4471  0.3324
  553MOL0     H74617   7.323   0.495   1.745 -0.9984  0.0512  0.5172
  553MOL0     H74618   7.547   0.382   1.737 -2.1377  0.1859  0.6584
  553MOL0     H74619   7.923   0.583   1.910 -1.7440  2.2517  1.8703
  553MOL0     H74620   7.826   0.517   2.036 -0.1187  0.4227  0.5681
  553MOL0     H74621   7.897   0.282   1.947  0.7346 -0.5046  0.9371
  553MOL0     H74622   8.046   0.364   1.892 -1.2214 -0.1823 -2.2105
  553MOL0     H74623   8.066   0.476   2.110  1.7755 -1.3330  0.1022
  553MOL0     H74624   7.933   0.374   2.176  0.2317  1.3254  1.9153
  553MOL0     H74625   8.210   0.306   2.061  1.1947 -2.7999  1.1073
  553MOL0     H74626   8.083   0.186   2.063  1.2840  0.5307 -2.8985
  553MOL0     H74627   8.233   0.156   2.250  1.3578  0.5093 -0.2284
  553MOL0     H74628   8.077   0.204   2.312 -0.9514 -0.7866 -1.7424
  553MOL0     H74629   8.294   0.407   2.237 -1.8760 -1.1273 -1.4354
  553MOL0     H74630   8.148   0.439   2.334 -3.2877 -3.0681  1.1450
  553MOL0     H74631   8.375   0.256   2.436 -0.6038 -1.0273 -0.8170
  553MOL0     H74632   8.250   0.339   2.530  0.9040  0.7056  0.2398
  553MOL0     H74633   8.454   0.524   2.391  2.9524 -0.1591  0.4223
  553MOL0     H74634   8.363   0.545   2.545  0.3774  0.2864 -0.4436
  553MOL0     H74635   7.702   0.695   1.989  1.2574 -0.9721  0.3928
  553MOL0     H74636   7.503   0.808   1.982  0.4747  0.3033 -0.3410
  553MOL0     H74637   6.903   0.560   2.016  0.2228 -1.4610 -0.1849
  553MOL0     H74638   6.690   0.660   1.964 -0.2404  1.5204  2.1523
  553MOL0     H74639   4.804   0.777   1.512  1.3016 -1.2268 -0.8156
  553MOL0     H74640   4.621   0.915   1.455  0.8307  1.5246 -0.1813
  553MOL0     H74641   4.729   1.172   1.139  0.3143  0.6295 -0.7644
  553MOL0     H74642   4.890   1.339   1.183 -0.3885  1.0376 -0.5069
  553MOL0     H74643   5.106   1.578   1.374  0.3564  0.9266 -2.8921
  553MOL0     H74644   5.012   1.511   1.243  1.8802 -2.2135 -1.7874
  553MOL0     H74645   5.237   1.424   1.233 -1.7808  3.2034  0.4791
  553MOL0     H74646   5.129   1.294   1.256 -0.4108 -1.4158  2.2481
  553MOL0     H74647   5.250   1.451   1.499 -3.4822  0.5048  0.3554
  553MOL0     H74648   5.344   1.312   1.413  0.6227  0.0248  2.4951
  553MOL0     H74649   5.096   1.299   1.584 -1.9265 -2.3738 -1.5036
  553MOL0     H74650   5.167   1.155   1.498  4.3740  0.1244 -1.8890
  553MOL0     H74651   5.410   1.221   1.841 -0.0603 -0.6849 -1.0269
  553MOL0     H74652   4.768   1.372   1.591 -1.5374 -2.3388  1.4442
  553MOL0     H74653   4.581   1.113   1.615  3.3713 -0.6809 -1.8549
  553MOL0     H74654   4.560   1.283   1.659  0.2034 -0.0473 -0.1182
  553MOL0     H74655   4.438   1.203   1.564  0.3625 -4.6914  2.7437
  554MOL0     O74656   9.963  10.340  10.309 -0.3386 -0.2675 -0.3501
  554MOL0     C74657   9.861  10.312  10.374  0.5487 -0.9255 -0.0941
  554MOL0     O74658   9.823  10.369  10.499 -0.2755 -0.6242  0.7732
  554MOL0     C74659   9.898  10.468  10.551 -0.7853  0.2778 -0.7212
  554MOL0     C74660   9.836  10.578  10.607  0.8087  0.7713  0.7555
  554MOL0     C74661   9.903  10.676  10.677  0.1920  0.4792  0.8280
  554MOL0     C74662  10.047  10.671  10.685 -0.3877 -0.3801 -0.5673
  554MOL0     O74663  10.108  10.772  10.753  0.7247  0.7150  0.3509
  554MOL0     C74664  10.252  10.781  10.752 -0.1471 -0.7321  0.4737
  554MOL0     C74665  10.323  10.910  10.786  0.7334  0.3965 -0.1253
  554MOL0     C74666  10.310  10.969  10.927  1.3966  0.6439  0.1770
  554MOL0     C74667  10.415  11.080  10.928 -0.7530 -0.4001  0.1982
  554MOL0     C74668  10.379  11.203  11.015  0.2371  0.1230  0.4467
  554MOL0     C74669  10.474  11.326  10.982  0.4591 -0.1870 -0.2678
  554MOL0     C74670  10.625  11.304  11.008 -0.7351 -0.2529  0.5649
  554MOL0     C74671  10.701  11.424  10.944  0.1139 -0.8113 -0.0025
  554MOL0     N74672  10.834  11.424  11.005 -0.3222 -0.1555  0.1645
  554MOL0     C74673  10.880  11.527  11.092 -0.6701 -1.2983  0.3283
  554MOL0     C74674  11.012  11.509  11.099 -0.4951 -0.3120 -0.1654
  554MOL0     C74675  11.096  11.614  11.163  0.2143 -0.4238  0.6541
  554MOL0     C74676  11.256  11.582  11.179 -0.0099  0.2837  0.1820
  554MOL0     C74677  11.339  11.553  11.054  0.3998  0.5199  0.1119
  554MOL0     C74678  11.489  11.559  11.076  0.1251  0.3268  0.1513
  554MOL0     O74679  11.556  11.570  10.950  0.3581  0.1616 -0.1767
  554MOL0     C74680  11.692  11.535  10.944  0.3722  0.0091 -0.6684
  554MOL0     C74681  11.776  11.545  11.057 -0.4506  0.7879 -0.7335
  554MOL0     C74682  11.920  11.513  11.044 -1.4855  0.4400  0.5984
  554MOL0     C74683  11.972  11.475  10.916 -0.1089  0.7738  0.0721
  554MOL0     C74684  12.114  11.426  10.898  0.1149  0.5010 -0.2095
  554MOL0     O74685  12.174  11.445  10.773 -0.1864  0.0991 -0.2069
  554MOL0     C74686  12.305  11.405  10.749 -0.6250 -0.1576  0.2498
  554MOL0     C74687  12.325  11.266  10.733  0.5650  0.4025  0.1334
  554MOL0     C74688  12.448  11.217  10.699 -0.2909 -0.1245  0.2234
  554MOL0     C74689  12.563  11.304  10.682  0.5075  0.1908 -0.0535
  554MOL0     O74690  12.686  11.251  10.667  0.0813 -0.9630 -0.1336
  554MOL0     C74691  12.779  11.312  10.581  0.0888  0.4605  0.5495
  554MOL0     C74692  12.895  11.220  10.589  0.7111  0.2025 -0.6296
  554MOL0     C74693  13.025  11.266  10.524 -0.1993 -0.2951  0.4380
  554MOL0     C74694  13.119  11.149  10.496  0.7656  0.0007  0.3433
  554MOL0     C74695  13.266  11.188  10.477 -0.2820  0.9941 -0.1650
  554MOL0     C74696  13.360  11.062  10.485  0.7651 -0.0430  0.3796
  554MOL0     C74697  13.505  11.098  10.465  0.4361  0.2403 -0.0010
  554MOL0     C74698  13.596  10.970  10.454 -0.3998  0.5649  0.2013
  554MOL0    Cl74699  13.517  10.845  10.367 -0.5257  0.2595 -0.2789
  554MOL0     C74700  12.544  11.442  10.693  0.3175 -0.5561  0.5038
  554MOL0     C74701  12.419  11.497  10.728  0.3528 -0.1995 -1.0589
  554MOL0     O74702  12.170  11.389  11.001  0.6299 -0.9669  0.4121
  554MOL0     C74703  11.880  11.465  10.808  0.3286 -0.3788 -0.0869
  554MOL0     C74704  11.738  11.490  10.826 -0.5132 -0.0410  0.1414
  554MOL0     N74705  11.044  11.400  11.025 -0.0368 -0.1452  0.5051
  554MOL0     N74706  10.937  11.357  10.966  0.1016  0.7323  0.2472
  554MOL0     C74707  10.109  10.559  10.632  0.7649  0.0692  0.1745
  554MOL0     C74708  10.043  10.461  10.564 -0.0652 -0.2117  0.0144
  554MOL0     C74709   9.776  10.200  10.328  0.1645 -0.6467  0.2952
  554MOL0     C74710   9.747  10.100  10.418  0.3901  0.1097  0.4265
  554MOL0     C74711   9.673   9.992  10.388 -0.3849 -0.0032  0.0651
  554MOL0     C74712   9.622   9.979  10.260  1.1433 -0.0534 -0.6424
  554MOL0     O74713   9.536   9.872  10.236  0.3633 -0.7378  0.0469
  554MOL0     C74714   9.496   9.839  10.101 -0.0224  0.4040  0.5550
  554MOL0     C74715   9.450   9.697  10.098 -0.0431 -0.4816 -0.3159
  554MOL0     C74716   9.321   9.679  10.185  0.0926  0.5036  0.5784
  554MOL0     C74717   9.242   9.565  10.131  0.7476  0.7645  0.5260
  554MOL0     C74718   9.307   9.431  10.170  0.2235  0.1450  0.9486
  554MOL0     C74719   9.356   9.318  10.181  0.1994 -0.0197  0.9593
  554MOL0     C74720   9.646  10.084  10.167  0.4137 -0.6565 -0.2585
  554MOL0     C74721   9.730  10.197  10.199  0.9094  0.3769 -0.1419
  554MOL0     C74722   9.762  10.295  10.092 -0.1928  0.1168  0.7225
  554MOL0     H74723   9.728  10.590  10.610  0.7352  0.1057  0.8781
  554MOL0     H74724   9.843  10.754  10.720 -0.5506  0.7292 -0.5960
  554MOL0     H74725  10.293  10.702  10.817  0.0595 -2.4937 -1.6886
  554MOL0     H74726  10.290  10.755  10.653  1.3847  2.9144 -0.0613
  554MOL0     H74727  10.297  10.973  10.700  1.3251 -0.8111 -1.2145
  554MOL0     H74728  10.430  10.892  10.770  0.5655  1.2422 -2.7163
  554MOL0     H74729  10.330  10.902  11.011 -2.3362 -3.0847 -1.5677
  554MOL0     H74730  10.206  11.002  10.927  1.0643 -0.3791 -0.2711
  554MOL0     H74731  10.507  11.039  10.970  1.2843  3.2410 -0.2395
  554MOL0     H74732  10.427  11.118  10.826 -0.1521  1.3562  0.8773
  554MOL0     H74733  10.270  11.210  11.007 -0.1588 -1.9144  2.7969
  554MOL0     H74734  10.392  11.184  11.122 -4.0762  2.0088  1.5713
  554MOL0     H74735  10.467  11.352  10.876  4.3085 -3.8597 -1.6955
  554MOL0     H74736  10.434  11.403  11.048 -0.7711  0.7009 -1.9594
  554MOL0     H74737  10.671  11.219  10.957  4.2722 -0.5128  4.7619
  554MOL0     H74738  10.637  11.294  11.116 -1.0933 -2.0294  0.4646
  554MOL0     H74739  10.720  11.414  10.837  0.0368  0.7841 -0.1973
  554MOL0     H74740  10.647  11.519  10.957  0.1005 -0.6170 -1.3271
  554MOL0     H74741  10.826  11.608  11.140  0.8356 -0.3522  0.4762
  554MOL0     H74742  11.087  11.707  11.105 -3.2468  0.3343  2.1745
  554MOL0     H74743  11.057  11.659  11.254 -0.6281 -0.2847  0.2377
  554MOL0     H74744  11.295  11.667  11.236  2.2579 -1.8292  1.9720
  554MOL0     H74745  11.262  11.492  11.240 -1.2277  1.1045  1.6077
  554MOL0     H74746  11.303  11.628  10.983  0.1040 -0.8450 -1.2316
  554MOL0     H74747  11.303  11.458  11.013 -2.3825  2.3992 -2.2248
  554MOL0     H74748  11.520  11.474  11.138 -0.7874  0.6999  1.1582
  554MOL0     H74749  11.503  11.645  11.143  3.1553  0.4630 -0.5283
  554MOL0     H74750  11.740  11.572  11.156 -1.2985 -1.6181 -0.3209
  554MOL0     H74751  11.986  11.521  11.129 -3.3474 -0.4688  2.1955
  554MOL0     H74752  12.247  11.191  10.738 -1.1335  2.0196 -0.9952
  554MOL0     H74753  12.458  11.109  10.689  0.4460  0.1220 -2.6155
  554MOL0     H74754  12.739  11.321  10.479 -0.0262 -0.0976  0.5427
  554MOL0     H74755  12.810  11.415  10.603  1.7835  0.9982 -3.5147
  554MOL0     H74756  12.913  11.189  10.692 -4.0166 -4.8891 -0.9002
  554MOL0     H74757  12.864  11.133  10.531  0.4349 -0.4903  0.5299
  554MOL0     H74758  13.013  11.329  10.435 -0.7534 -1.1036 -0.0743
  554MOL0     H74759  13.068  11.326  10.605 -2.2935 -1.7668  2.7847
  554MOL0     H74760  13.068  11.095  10.415  0.9934 -1.8737  1.4016
  554MOL0     H74761  13.105  11.079  10.579 -0.3146 -2.2851 -1.6474
  554MOL0     H74762  13.297  11.260  10.554 -0.9363  1.2073 -0.0912
  554MOL0     H74763  13.289  11.243  10.385  3.4420  0.8176  0.5017
  554MOL0     H74764  13.347  10.998  10.572 -1.5689 -0.8617 -0.4978
  554MOL0     H74765  13.327  11.002  10.399 -1.4944 -0.8594  1.7326
  554MOL0     H74766  13.531  11.160  10.551 -0.2381  1.5864 -0.7230
  554MOL0     H74767  13.521  11.162  10.377 -0.2783  1.6741  0.8680
  554MOL0     H74768  13.694  10.990  10.408 -1.1810 -1.7173 -2.7204
  554MOL0     H74769  13.608  10.926  10.553 -1.1158 -0.0908  0.0024
  554MOL0     H74770  12.622  11.513  10.669  0.7905 -0.9462  0.8626
  554MOL0     H74771  12.408  11.605  10.721  3.8331  0.1665 -3.3964
  554MOL0     H74772  11.921  11.436  10.711 -1.5847  0.1632 -1.0951
  554MOL0     H74773  11.671  11.489  10.740  1.6584 -0.5364 -1.6441
  554MOL0     H74774  10.216  10.542  10.638  0.4474 -2.0827  0.7035
  554MOL0     H74775  10.102  10.382  10.518 -1.2599 -1.9742  1.3944
  554MOL0     H74776   9.772  10.105  10.524 -2.0023  0.5205  1.0401
  554MOL0     H74777   9.659   9.922  10.469  0.8908  0.7996  1.0037
  554MOL0     H74778   9.585   9.846  10.038 -0.4716  1.3319  0.0107
  554MOL0     H74779   9.415   9.898  10.058 -2.8542 -1.9685  2.2421
  554MOL0     H74780   9.530   9.633  10.135  0.1557 -0.0242  0.0526
  554MOL0     H74781   9.432   9.676   9.992 -3.3691 -3.5302  0.6495
  554MOL0     H74782   9.260   9.768  10.163 -0.2425 -0.1220 -1.1880
  554MOL0     H74783   9.347   9.661  10.290 -3.1827 -1.5527  1.1749
  554MOL0     H74784   9.142   9.571  10.176 -0.2746 -0.5786 -1.3999
  554MOL0     H74785   9.225   9.581  10.024 -2.2423 -0.0034  0.8027
  554MOL0     H74786   9.384   9.217  10.205 -2.4578  0.0253  5.3955
  554MOL0     H74787   9.594  10.081  10.072 -1.6392 -1.2749  0.7995
  554MOL0     H74788   9.826  10.249  10.016  0.9749 -0.1730  1.8340
  554MOL0     H74789   9.665  10.325  10.051 -1.0484 -1.3478  1.5862
  554MOL0     H74790   9.814  10.380  10.138  3.3568 -1.9420  0.9408
  555MOL0     O74791   8.599  10.953   4.022  0.5660  0.9917 -0.1331
  555MOL0     C74792   8.685  10.926   3.934 -0.0701 -0.1523  0.3859
  555MOL0     O74793   8.656  10.892   3.804 -0.0462 -0.3657 -1.2009
  555MOL0     C74794   8.532  10.850   3.782 -0.3663  0.3005  0.8440
  555MOL0     C74795   8.434  10.945   3.745  0.0273  0.8311  0.0782
  555MOL0     C74796   8.306  10.894   3.708 -0.0945 -0.6987  0.3253
  555MOL0     C74797   8.274  10.759   3.718  0.3090  0.2862 -0.2544
  555MOL0     O74798   8.144  10.706   3.689 -0.4637  0.3946 -0.4610
  555MOL0     C74799   8.039  10.788   3.661  0.1209  0.4677  0.2649
  555MOL0     C74800   7.905  10.699   3.675 -0.9672  0.0118 -0.6085
  555MOL0     C74801   7.785  10.764   3.616 -0.1678  0.7223 -0.2459
  555MOL0     C74802   7.685  10.644   3.585 -0.1994  0.8800  0.0981
  555MOL0     C74803   7.578  10.696   3.484 -0.5046 -0.2943 -0.2102
  555MOL0     C74804   7.430  10.669   3.533 -0.1147  0.1173 -0.3940
  555MOL0     C74805   7.388  10.524   3.502  0.0457 -0.2551 -0.8625
  555MOL0     C74806   7.246  10.481   3.566 -0.3805 -0.1921  1.0416
  555MOL0     N74807   7.249  10.493   3.714 -0.1372 -0.2900 -0.6187
  555MOL0     C74808   7.349  10.434   3.786  0.3927  0.1321 -0.2326
  555MOL0     C74809   7.309  10.458   3.914  0.3629 -0.3715 -1.4442
  555MOL0     C74810   7.377  10.391   4.039  0.2274  0.4078 -0.2435
  555MOL0     C74811   7.538  10.406   4.053  0.2490  0.2424  0.5140
  555MOL0     C74812   7.572  10.548   4.089  0.0389  0.2824  0.2119
  555MOL0     C74813   7.713  10.576   4.076  0.4401  0.5607  0.1316
  555MOL0     O74814   7.781  10.508   4.179 -0.1450  0.1776  0.2864
  555MOL0     C74815   7.916  10.483   4.160  0.1431  0.8455 -0.2833
  555MOL0     C74816   7.970  10.364   4.209 -0.3265  0.2491 -0.7296
  555MOL0     C74817   8.112  10.354   4.203  0.7962  1.1357  0.1934
  555MOL0     C74818   8.194  10.457   4.148 -1.2950  0.0664  0.6438
  555MOL0     C74819   8.340  10.442   4.147 -0.2021  0.5743 -0.8448
  555MOL0     O74820   8.414  10.550   4.105 -0.3573 -0.1562 -0.2017
  555MOL0     C74821   8.545  10.528   4.068 -0.8790 -0.3998  0.3311
  555MOL0     C74822   8.579  10.431   3.974 -0.7255  0.4596  0.1397
  555MOL0     C74823   8.714  10.405   3.939  0.4253  0.2957  0.1741
  555MOL0     C74824   8.813  10.501   3.969  0.0642  0.1279 -0.0547
  555MOL0     O74825   8.929  10.494   3.900 -0.2960 -0.2584  0.1436
  555MOL0     C74826   9.046  10.560   3.960 -0.3710  0.8254 -0.3357
  555MOL0     C74827   9.173  10.511   3.879  0.5727  0.2301  0.0562
  555MOL0     C74828   9.186  10.555   3.731  0.0199 -0.0974  0.7470
  555MOL0     C74829   9.308  10.642   3.716 -0.3714 -1.0142  1.2747
  555MOL0     C74830   9.301  10.703   3.572  0.7064 -1.3676  0.7310
  555MOL0     C74831   9.429  10.766   3.522 -0.1683 -0.5498 -0.5868
  555MOL0     C74832   9.405  10.814   3.382 -0.2963 -0.6255  0.6662
  555MOL0     C74833   9.522  10.877   3.317  0.3812  0.3227 -1.0408
  555MOL0    Cl74834   9.642  10.760   3.270 -0.6584 -0.0427 -0.2619
  555MOL0     C74835   8.778  10.606   4.057 -0.7466 -0.2180 -0.3878
  555MOL0     C74836   8.648  10.625   4.099 -0.9157 -0.0080  0.2130
  555MOL0     O74837   8.383  10.327   4.172  0.3849 -0.0762  0.2729
  555MOL0     C74838   8.139  10.572   4.096 -0.4923  0.2733  0.1530
  555MOL0     C74839   7.995  10.580   4.100 -0.1794  0.8880  0.5107
  555MOL0     N74840   7.201  10.545   3.916  0.2560  0.1353 -0.0835
  555MOL0     N74841   7.159  10.562   3.782 -0.3354  0.3817 -0.9819
  555MOL0     C74842   8.370  10.677   3.771  1.1074  0.6107 -0.3720
  555MOL0     C74843   8.498  10.712   3.800  0.3141 -0.4535 -0.3886
  555MOL0     C74844   8.831  10.939   3.980  0.1271  0.9098  0.1301
  555MOL0     C74845   8.843  10.987   4.115 -0.1882 -0.2559 -0.0812
  555MOL0     C74846   8.972  10.995   4.159  0.4055 -0.3778  0.2191
  555MOL0     C74847   9.096  10.992   4.081  0.3405 -0.9979 -0.3716
  555MOL0     O74848   9.216  11.012   4.146  0.1216  0.2251  0.7508
  555MOL0     C74849   9.344  10.960   4.097 -0.5682  0.7639  1.0959
  555MOL0     C74850   9.366  10.812   4.085 -0.6668  0.3807 -0.5348
  555MOL0     C74851   9.310  10.732   4.209  0.0637  0.0978 -0.4523
  555MOL0     C74852   9.402  10.628   4.263  0.2750  0.1381  0.3174
  555MOL0     C74853   9.517  10.692   4.331 -0.3816 -1.0887  0.2439
  555MOL0     C74854   9.591  10.767   4.387 -0.2792 -0.0684  0.1712
  555MOL0     C74855   9.077  10.937   3.948  0.8224 -0.4122 -0.9580
  555MOL0     C74856   8.946  10.912   3.901  0.1958  0.3718 -0.8445
  555MOL0     C74857   8.933  10.867   3.761 -0.5679  0.2090 -0.5512
  555MOL0     H74858   8.460  11.050   3.738 -0.2099  0.8087 -1.6123
  555MOL0     H74859   8.228  10.961   3.673 -2.0018 -2.9463 -0.0373
  555MOL0     H74860   8.043  10.874   3.728 -1.2763 -0.8152  2.0800
  555MOL0     H74861   8.049  10.821   3.557 -1.7872 -1.5360 -0.6480
  555MOL0     H74862   7.888  10.673   3.780 -1.2419  2.7795  0.1152
  555MOL0     H74863   7.925  10.607   3.620  1.3999  0.7854 -1.1521
  555MOL0     H74864   7.804  10.824   3.527  1.2187 -1.4219 -1.4879
  555MOL0     H74865   7.752  10.834   3.694  0.5135  2.7790 -1.7185
  555MOL0     H74866   7.736  10.558   3.540 -2.7552 -0.0566 -1.1911
  555MOL0     H74867   7.641  10.601   3.676  2.4858  0.5875  1.3693
  555MOL0     H74868   7.589  10.804   3.474 -2.9456 -0.2001 -3.8108
  555MOL0     H74869   7.601  10.658   3.384  2.4991  4.1118 -1.4616
  555MOL0     H74870   7.425  10.691   3.640  1.6651  3.5442 -0.8935
  555MOL0     H74871   7.357  10.732   3.483 -1.1766  0.6934  1.7534
  555MOL0     H74872   7.467  10.456   3.535 -2.5837 -1.5285  3.7583
  555MOL0     H74873   7.383  10.524   3.393 -1.3894  0.8996 -0.8257
  555MOL0     H74874   7.165  10.546   3.532 -3.6041 -2.3916  3.8405
  555MOL0     H74875   7.223  10.378   3.539 -0.9289  0.1193  0.2956
  555MOL0     H74876   7.435  10.384   3.741 -2.7062 -3.9662 -2.2696
  555MOL0     H74877   7.330  10.429   4.130 -3.2202 -1.8432 -0.8879
  555MOL0     H74878   7.354  10.285   4.049  2.2788 -0.2448 -1.7648
  555MOL0     H74879   7.563  10.341   4.137  1.5493  0.7339  0.5355
  555MOL0     H74880   7.590  10.380   3.960 -0.2101  2.5853 -0.4825
  555MOL0     H74881   7.541  10.556   4.194  1.4260  0.7481  0.6067
  555MOL0     H74882   7.513  10.624   4.037 -1.2580  0.1765  1.4552
  555MOL0     H74883   7.728  10.684   4.081 -1.7300  1.0250 -1.8854
  555MOL0     H74884   7.741  10.551   3.973  2.0520  1.0029  0.4364
  555MOL0     H74885   7.909  10.300   4.272  1.6126  0.4374  1.4876
  555MOL0     H74886   8.147  10.255   4.232 -0.4194  1.2196  2.1244
  555MOL0     H74887   8.501  10.365   3.939 -0.3275  1.2883 -2.5683
  555MOL0     H74888   8.751  10.339   3.862 -2.2321  1.7333 -2.5497
  555MOL0     H74889   9.029  10.667   3.972 -3.0256  0.3103  1.4068
  555MOL0     H74890   9.055  10.512   4.058 -0.8980 -0.0073 -0.6829
  555MOL0     H74891   9.259  10.528   3.943  0.8487  1.1457 -0.5341
  555MOL0     H74892   9.167  10.402   3.872  2.1844  0.2371 -3.0274
  555MOL0     H74893   9.187  10.460   3.676  0.3704  0.9976 -1.2331
  555MOL0     H74894   9.096  10.605   3.694 -0.2713  0.5959  2.3195
  555MOL0     H74895   9.398  10.580   3.727  1.7184  0.8424 -3.0506
  555MOL0     H74896   9.306  10.726   3.786  0.5519 -0.3912  0.5782
  555MOL0     H74897   9.223  10.780   3.566 -1.1879 -3.2636 -0.3944
  555MOL0     H74898   9.270  10.620   3.508 -0.9827 -0.4704  0.3153
  555MOL0     H74899   9.455  10.845   3.593  1.3594 -1.0643 -0.5291
  555MOL0     H74900   9.505  10.687   3.523  1.6563  1.1247  0.1443
  555MOL0     H74901   9.328  10.892   3.382  0.9661  0.6541  1.5834
  555MOL0     H74902   9.383  10.731   3.313  1.7443 -1.4574  0.9391
  555MOL0     H74903   9.475  10.928   3.232 -3.8454  0.3149  1.0632
  555MOL0     H74904   9.569  10.949   3.385  0.1718  0.3098 -0.8819
  555MOL0     H74905   8.851  10.684   4.079 -1.4698 -0.2066  2.3801
  555MOL0     H74906   8.616  10.704   4.167  0.6353  0.6609  0.2067
  555MOL0     H74907   8.197  10.651   4.049  0.2528 -2.4144 -4.0380
  555MOL0     H74908   7.954  10.672   4.062  1.5990  1.1983 -0.8464
  555MOL0     H74909   8.344  10.572   3.776 -0.6849  0.9647 -1.2010
  555MOL0     H74910   8.582  10.652   3.832  0.1367 -0.0454  0.9342
  555MOL0     H74911   8.764  11.008   4.187 -0.4289  1.8720 -0.8951
  555MOL0     H74912   8.989  11.004   4.266 -1.1137 -0.3397  0.4730
  555MOL0     H74913   9.425  10.997   4.160 -0.7746 -1.0044  2.5021
  555MOL0     H74914   9.364  10.981   3.992 -1.5359  0.9359  0.9391
  555MOL0     H74915   9.472  10.787   4.084 -0.9678 -0.9750 -0.3778
  555MOL0     H74916   9.312  10.785   3.994 -0.0267 -3.1457 -0.0099
  555MOL0     H74917   9.214  10.685   4.185 -0.1699  0.0970  0.4682
  555MOL0     H74918   9.280  10.805   4.285  1.8028 -1.5910  2.0014
  555MOL0     H74919   9.341  10.561   4.324 -1.1402  1.3399  0.2690
  555MOL0     H74920   9.445  10.561   4.188 -1.2535 -0.9698  0.3928
  555MOL0     H74921   9.660  10.843   4.415  1.4111 -1.4708  0.0055
  555MOL0     H74922   9.159  10.913   3.881  0.3235 -1.6443 -1.1719
  555MOL0     H74923   8.892  10.947   3.698 -0.7722 -0.0629 -0.7709
  555MOL0     H74924   9.024  10.837   3.708 -0.0633  0.8335 -0.0383
  555MOL0     H74925   8.863  10.782   3.760  0.1785 -0.4309  0.1891
  556MOL0     O74926  11.027  10.320  10.737 -0.3368 -0.3982 -0.4696
  556MOL0     C74927  11.096  10.386  10.660 -0.2549 -0.2344 -0.2110
  556MOL0     O74928  11.210  10.454  10.681 -0.1877  0.2514 -0.3321
  556MOL0     C74929  11.245  10.458  10.811 -0.1747 -0.2568  0.1124
  556MOL0     C74930  11.378  10.420  10.839  0.3658  0.3347 -0.1229
  556MOL0     C74931  11.421  10.450  10.973 -0.1949 -0.0834 -0.2853
  556MOL0     C74932  11.341  10.505  11.069 -0.2866  0.6801  0.9387
  556MOL0     O74933  11.410  10.514  11.181  0.6072  0.2782  0.6152
  556MOL0     C74934  11.354  10.580  11.297 -0.5016 -0.1318 -0.2140
  556MOL0     C74935  11.460  10.575  11.404 -0.1147 -0.5200 -0.4347
  556MOL0     C74936  11.591  10.666  11.380  0.1357  0.3219  0.2678
  556MOL0     C74937  11.710  10.600  11.454 -0.5235  0.7209 -0.2735
  556MOL0     C74938  11.832  10.694  11.476 -0.3068 -0.2248  0.2133
  556MOL0     C74939  11.945  10.635  11.567  0.4012 -0.2039 -0.1528
  556MOL0     C74940  12.051  10.736  11.598  0.3495  0.1908  0.3856
  556MOL0     C74941  12.175  10.660  11.650  0.2805 -0.3343  0.1810
  556MOL0     N74942  12.259  10.738  11.732 -0.2181  0.1852 -0.3873
  556MOL0     C74943  12.265  10.727  11.868 -0.5106  0.2679 -0.0255
  556MOL0     C74944  12.355  10.823  11.901  0.1422 -0.7515 -0.3595
  556MOL0     C74945  12.411  10.868  12.036 -0.2051  0.0922 -0.0377
  556MOL0     C74946  12.433  10.746  12.131 -0.1115 -0.4977 -0.0574
  556MOL0     C74947  12.550  10.655  12.090  0.0112  1.2832  1.0096
  556MOL0     C74948  12.690  10.715  12.060 -0.3464  1.2791  0.2318
  556MOL0     O74949  12.722  10.790  12.173 -0.1938  0.1772  0.5140
  556MOL0     C74950  12.843  10.859  12.173  0.1011  0.0546  0.3677
  556MOL0     C74951  12.846  10.967  12.256  0.1460  0.1413  0.4434
  556MOL0     C74952  12.969  11.041  12.263 -0.4869 -0.5295 -0.5697
  556MOL0     C74953  13.089  11.019  12.179 -0.8765 -0.4182 -0.4405
  556MOL0     C74954  13.218  11.105  12.195  0.5412  0.0418 -0.0685
  556MOL0     O74955  13.286  11.127  12.077  0.2440 -0.9731  0.0670
  556MOL0     C74956  13.417  11.166  12.058  1.4583  0.8726  0.2517
  556MOL0     C74957  13.480  11.147  11.937  0.1493 -0.1495  0.1758
  556MOL0     C74958  13.611  11.170  11.912 -1.3435 -0.0734  0.9116
  556MOL0     C74959  13.690  11.219  12.016  0.8441 -0.3234  0.3525
  556MOL0     O74960  13.821  11.249  11.994  0.2177  0.8640 -0.0988
  556MOL0     C74961  13.836  11.393  11.985  0.1768 -0.2748 -0.6609
  556MOL0     C74962  13.978  11.458  11.956  0.4258 -0.2584 -0.1859
  556MOL0     C74963  13.976  11.604  11.932  0.1029  0.0665 -0.8191
  556MOL0     C74964  13.977  11.686  12.065  0.1071 -0.2657  0.2807
  556MOL0     C74965  13.967  11.832  12.033 -0.0021 -0.9160 -0.1897
  556MOL0     C74966  13.963  11.911  12.172 -0.1868 -0.8635 -0.7237
  556MOL0     C74967  13.964  12.062  12.160  0.9122 -0.9022  0.4756
  556MOL0     C74968  13.814  12.105  12.161  0.3401  0.3790 -0.9889
  556MOL0    Cl74969  13.791  12.255  12.080  0.0465 -0.3786 -0.1478
  556MOL0     C74970  13.633  11.236  12.138  0.6318  0.3193  0.0418
  556MOL0     C74971  13.504  11.205  12.171  0.1005 -0.6178  0.0245
  556MOL0     O74972  13.249  11.138  12.310 -0.3295 -0.6402  0.0740
  556MOL0     C74973  13.081  10.911  12.095 -0.1740 -1.0849 -0.6204
  556MOL0     C74974  12.961  10.827  12.100  0.0145  0.4729 -0.2538
  556MOL0     N74975  12.410  10.882  11.785 -0.5683  0.2008  0.1785
  556MOL0     N74976  12.353  10.825  11.683  0.2842  0.3102  0.5802
  556MOL0     C74977  11.217  10.547  11.025 -0.3033  0.1004  0.8970
  556MOL0     C74978  11.168  10.527  10.903  0.2893 -0.8457  0.4764
  556MOL0     C74979  11.038  10.400  10.524  0.0828 -0.9353  0.0390
  556MOL0     C74980  10.941  10.305  10.484 -0.8386  0.4513 -1.2237
  556MOL0     C74981  10.876  10.304  10.359 -0.3124  0.6982  1.0776
  556MOL0     C74982  10.892  10.413  10.274  1.1314  1.0131 -0.1256
  556MOL0     O74983  10.830  10.400  10.149 -0.3334 -0.2766 -0.4901
  556MOL0     C74984  10.835  10.511  10.053  0.1787  0.8508 -0.4446
  556MOL0     C74985  10.767  10.467   9.915  0.2004  0.4656 -0.4837
  556MOL0     C74986  10.791  10.579   9.807 -0.5938 -0.0256 -0.4778
  556MOL0     C74987  10.795  10.504   9.663  0.2047 -0.2597 -0.7705
  556MOL0     C74988  10.674  10.428   9.645  0.4131 -0.4249 -0.3741
  556MOL0     C74989  10.564  10.373   9.658  1.1376  0.1698  0.4076
  556MOL0     C74990  10.977  10.519  10.313 -0.3476  0.3320 -0.2110
  556MOL0     C74991  11.056  10.511  10.437  0.2917  0.6701 -0.2076
  556MOL0     C74992  11.141  10.627  10.466 -0.3746  0.0826  0.4277
  556MOL0     H74993  11.446  10.381  10.765 -0.4339  0.7345 -1.0907
  556MOL0     H74994  11.512  10.401  11.007 -1.5116 -1.9716  0.7270
  556MOL0     H74995  11.320  10.682  11.280 -1.1602  0.2289  2.7292
  556MOL0     H74996  11.276  10.519  11.343 -0.7686  0.8474  0.6774
  556MOL0     H74997  11.488  10.470  11.418  1.8198  0.1432  1.3638
  556MOL0     H74998  11.415  10.603  11.500  1.1428 -1.5437  0.4923
  556MOL0     H74999  11.573  10.766  11.418 -0.9127 -0.3851  1.7209
  556MOL0     H75000  11.618  10.654  11.274  1.6754 -1.3346  0.7944
  556MOL0     H75001  11.685  10.565  11.555  2.0014 -0.3432  0.0438
  556MOL0     H75002  11.737  10.512  11.396  2.0844  3.9436 -4.5611
  556MOL0     H75003  11.872  10.734  11.382  0.2664 -1.3216 -0.0222
  556MOL0     H75004  11.801  10.780  11.536  1.1677 -0.4574  1.3635
  556MOL0     H75005  11.898  10.599  11.659  0.3977 -1.5451 -0.6586
  556MOL0     H75006  11.984  10.557  11.501 -0.3372 -0.7941  0.0932
  556MOL0     H75007  12.019  10.803  11.679 -1.4024 -1.7440  1.3975
  556MOL0     H75008  12.083  10.790  11.509 -0.8060 -0.9986 -0.7953
  556MOL0     H75009  12.147  10.577  11.716  3.5784 -0.8075  1.1551
  556MOL0     H75010  12.240  10.629  11.568  1.0764 -0.3774  0.8169
  556MOL0     H75011  12.203  10.670  11.936 -0.0736 -2.7543 -1.9739
  556MOL0     H75012  12.504  10.924  12.019 -0.3294  0.5455  0.7370
  556MOL0     H75013  12.329  10.926  12.079  0.3797  2.0767 -1.4313
  556MOL0     H75014  12.449  10.778  12.234 -2.9531  0.2241  0.2438
  556MOL0     H75015  12.338  10.693  12.138 -1.9325  2.6781  1.9584
  556MOL0     H75016  12.521  10.608  11.996  2.8428 -2.4403  1.7400
  556MOL0     H75017  12.560  10.586  12.175 -0.8633  2.2006  1.8894
  556MOL0     H75018  12.687  10.771  11.966  0.0292  2.4035  0.8657
  556MOL0     H75019  12.765  10.639  12.036 -2.1424  0.4792 -3.4808
  556MOL0     H75020  12.767  10.998  12.324  0.1981 -0.0535  0.5948
  556MOL0     H75021  12.965  11.131  12.322 -1.1457  1.0442 -2.8642
  556MOL0     H75022  13.418  11.116  11.854 -2.3175 -0.4507  2.0132
  556MOL0     H75023  13.653  11.140  11.816  0.8579  0.0179  1.7882
  556MOL0     H75024  13.769  11.435  11.909  0.0293 -2.6751 -1.9583
  556MOL0     H75025  13.800  11.436  12.079 -3.4111 -0.3341 -1.8578
  556MOL0     H75026  14.047  11.437  12.038 -0.3428  0.6618  0.7141
  556MOL0     H75027  14.011  11.417  11.860  0.3071 -0.6826 -0.0472
  556MOL0     H75028  14.066  11.612  11.871 -0.6778  1.0082 -1.8786
  556MOL0     H75029  13.895  11.632  11.864 -1.4424 -2.3503 -0.1457
  556MOL0     H75030  14.074  11.654  12.104  0.6145 -0.3149 -0.9751
  556MOL0     H75031  13.898  11.655  12.133 -1.6561 -0.2559 -1.6795
  556MOL0     H75032  13.881  11.853  11.969  1.5126  1.7408 -1.5551
  556MOL0     H75033  14.058  11.870  11.984 -1.2612  1.8587 -0.5929
  556MOL0     H75034  13.869  11.877  12.216 -1.5351  0.2236 -2.6058
  556MOL0     H75035  14.052  11.867  12.220 -2.1205 -2.6594  1.4715
  556MOL0     H75036  14.009  12.092  12.065 -0.3315  4.5516  1.3007
  556MOL0     H75037  14.010  12.113  12.246 -2.1503  1.6995  0.7292
  556MOL0     H75038  13.756  12.031  12.105  0.9543 -0.5553 -0.4194
  556MOL0     H75039  13.773  12.109  12.262 -2.3520 -0.4733 -1.9787
  556MOL0     H75040  13.707  11.272  12.208 -0.0328  0.1461  0.8670
  556MOL0     H75041  13.472  11.225  12.273 -0.2606 -0.0234 -0.1961
  556MOL0     H75042  13.165  10.877  12.035 -2.0245 -2.4198 -2.6040
  556MOL0     H75043  12.953  10.747  12.027 -1.8389  0.5013 -0.1151
  556MOL0     H75044  11.162  10.608  11.096  1.4762  0.6403  1.8738
  556MOL0     H75045  11.064  10.549  10.879  0.5095 -1.8891 -1.7009
  556MOL0     H75046  10.928  10.219  10.549  2.2946  0.5547 -0.3068
  556MOL0     H75047  10.820  10.219  10.321  2.4915 -0.2381 -1.3264
  556MOL0     H75048  10.940  10.527  10.029  0.6675  0.0972  1.0451
  556MOL0     H75049  10.782  10.598  10.092  0.1536  0.3594  0.6671
  556MOL0     H75050  10.661  10.448   9.933  0.0260  1.3127 -0.5783
  556MOL0     H75051  10.821  10.377   9.884 -2.4325 -1.0903 -0.8937
  556MOL0     H75052  10.888  10.627   9.823 -1.6049  1.3944  1.8565
  556MOL0     H75053  10.721  10.663   9.816  0.9676  1.0765  2.2685
  556MOL0     H75054  10.818  10.561   9.572  1.4027  1.2728  0.4244
  556MOL0     H75055  10.885  10.444   9.683  0.7445  1.2626  1.8364
  556MOL0     H75056  10.473  10.317   9.658  1.0702  0.2547  1.7428
  556MOL0     H75057  10.984  10.599  10.241 -2.2940  1.0543  0.3396
  556MOL0     H75058  11.109  10.701  10.392 -2.1308  0.5394  1.5863
  556MOL0     H75059  11.122  10.664  10.567 -1.0810  1.5703 -0.2198
  556MOL0     H75060  11.245  10.598  10.448 -0.8029 -0.3232 -1.7046
  557MOL0     O75061   7.875   1.214   0.896  0.9462 -0.3182 -0.1605
  557MOL0     C75062   7.916   1.150   0.795  0.0161 -0.1997 -0.4940
  557MOL0     O75063   8.043   1.153   0.736 -0.5928 -0.1114 -0.9367
  557MOL0     C75064   8.136   1.253   0.777  0.9072 -0.6634 -0.1344
  557MOL0     C75065   8.103   1.375   0.839 -0.2473 -0.4916 -0.0449
  557MOL0     C75066   8.206   1.476   0.860  0.1943 -0.2980  0.5889
  557MOL0     C75067   8.336   1.464   0.804  1.2022  1.0984 -0.4720
  557MOL0     O75068   8.444   1.544   0.829  0.5220  0.2917 -0.4822
  557MOL0     C75069   8.447   1.641   0.936  0.3811  0.5019 -0.2653
  557MOL0     C75070   8.546   1.741   0.888  0.2336 -0.1845  0.3009
  557MOL0     C75071   8.544   1.868   0.973 -0.5117 -0.6088  0.2072
  557MOL0     C75072   8.655   1.974   0.933 -0.6738 -0.4543  0.3355
  557MOL0     C75073   8.632   2.108   1.006 -0.1057  0.0415  0.5096
  557MOL0     C75074   8.689   2.115   1.148  0.3849 -0.0776  0.3198
  557MOL0     C75075   8.835   2.128   1.149  0.3474  0.4023  0.3546
  557MOL0     C75076   8.870   2.194   1.277 -0.6730  0.0534 -0.4316
  557MOL0     N75077   9.012   2.215   1.295  0.2450 -0.6083  0.0202
  557MOL0     C75078   9.070   2.344   1.291  0.4941 -0.3025 -0.0474
  557MOL0     C75079   9.205   2.316   1.302 -0.0031  0.9259  0.6243
  557MOL0     C75080   9.322   2.406   1.289  0.0898 -0.0201 -0.8722
  557MOL0     C75081   9.417   2.412   1.412  0.4750  0.0104  0.5376
  557MOL0     C75082   9.513   2.299   1.436 -0.0473  0.2545  0.0819
  557MOL0     C75083   9.617   2.294   1.323  0.2524  0.1296  0.0006
  557MOL0     O75084   9.701   2.414   1.327  0.8977  0.9815  0.2160
  557MOL0     C75085   9.822   2.407   1.382 -0.1754  0.1215  0.2650
  557MOL0     C75086   9.875   2.314   1.475  0.4743  0.3528 -0.1851
  557MOL0     C75087  10.000   2.324   1.529 -0.3224 -0.3708  0.2804
  557MOL0     C75088  10.079   2.439   1.496  0.6817  0.8849 -0.0412
  557MOL0     C75089  10.198   2.452   1.572 -0.2688 -0.6034 -0.3742
  557MOL0     O75090  10.256   2.348   1.624  0.4906 -0.3282 -0.2447
  557MOL0     C75091  10.375   2.357   1.700  0.3833 -0.4306 -0.7569
  557MOL0     C75092  10.372   2.319   1.829 -0.0017  1.3256 -0.0181
  557MOL0     C75093  10.482   2.296   1.906 -0.2356 -0.1161 -0.2736
  557MOL0     C75094  10.613   2.330   1.846 -0.1679  0.0465  1.1323
  557MOL0     O75095  10.723   2.323   1.931 -0.0891  0.2477 -0.2780
  557MOL0     C75096  10.844   2.292   1.865  0.2176  0.6696  0.1188
  557MOL0     C75097  10.947   2.254   1.973  0.4909 -0.0720 -0.2677
  557MOL0     C75098  11.082   2.197   1.921 -0.2593  0.2596 -0.6000
  557MOL0     C75099  11.066   2.071   1.843  0.5399 -0.7389  0.6478
  557MOL0     C75100  11.202   2.019   1.791 -0.0224  0.8905  0.2730
  557MOL0     C75101  11.183   1.906   1.691 -0.1579  0.4403  0.0161
  557MOL0     C75102  11.298   1.808   1.666 -0.6092 -0.2840  0.3448
  557MOL0     C75103  11.268   1.722   1.538  0.0265 -0.1970  0.4366
  557MOL0    Cl75104  11.160   1.590   1.582  0.4117 -0.0895 -0.1144
  557MOL0     C75105  10.611   2.389   1.712  0.9947  0.4116  0.6854
  557MOL0     C75106  10.495   2.405   1.645  0.1915  0.7563  0.5142
  557MOL0     O75107  10.231   2.568   1.586 -0.4427  0.0784 -0.3407
  557MOL0     C75108  10.034   2.522   1.403 -0.2737  0.0415  0.6270
  557MOL0     C75109   9.906   2.508   1.345 -0.3752 -0.0440  0.4741
  557MOL0     N75110   9.221   2.179   1.299  0.4792  0.2530 -0.2952
  557MOL0     N75111   9.105   2.120   1.300 -0.2336 -0.8682 -0.3117
  557MOL0     C75112   8.357   1.343   0.746 -0.7008  0.8415  0.3768
  557MOL0     C75113   8.266   1.236   0.745 -0.1226  0.8561  0.0439
  557MOL0     C75114   7.821   1.046   0.734  0.5112 -1.1484 -0.0033
  557MOL0     C75115   7.684   1.067   0.758  0.4119  0.5182 -0.0271
  557MOL0     C75116   7.585   0.976   0.726  0.9841 -0.2543  0.0380
  557MOL0     C75117   7.618   0.866   0.664  0.3762  0.1011  0.3109
  557MOL0     O75118   7.512   0.792   0.618 -0.3451 -0.4828 -0.2376
  557MOL0     C75119   7.537   0.652   0.569 -0.0290 -0.7408  0.9638
  557MOL0     C75120   7.404   0.597   0.511  0.6495  0.5832 -0.0826
  557MOL0     C75121   7.412   0.518   0.382 -0.3546  1.2744  0.7035
  557MOL0     C75122   7.285   0.428   0.378  0.6914  0.6914  0.7824
  557MOL0     C75123   7.270   0.356   0.247 -0.7445  0.8356 -0.6075
  557MOL0     C75124   7.269   0.289   0.148 -0.8424 -0.5698  0.5929
  557MOL0     C75125   7.748   0.837   0.624 -0.4476  0.8018  0.0813
  557MOL0     C75126   7.854   0.931   0.661  0.2767  0.9075  0.1100
  557MOL0     C75127   7.999   0.889   0.620 -0.2185 -0.6973 -0.4861
  557MOL0     H75128   8.000   1.388   0.871 -0.0116 -1.6018  1.2482
  557MOL0     H75129   8.187   1.562   0.924 -0.6047  1.6655 -2.1073
  557MOL0     H75130   8.352   1.686   0.965  0.6174 -0.4305  2.1213
  557MOL0     H75131   8.481   1.596   1.029 -0.0701  0.6332 -0.0347
  557MOL0     H75132   8.529   1.777   0.786  2.1872 -0.7388 -0.2630
  557MOL0     H75133   8.639   1.685   0.886  0.0441 -0.5376 -2.2145
  557MOL0     H75134   8.543   1.858   1.082  0.9180  4.6105  0.9670
  557MOL0     H75135   8.446   1.914   0.956 -2.0269 -4.2559 -2.1385
  557MOL0     H75136   8.757   1.937   0.953 -0.9368 -1.1962  0.3358
  557MOL0     H75137   8.649   2.010   0.830  0.7908  1.0037  0.7106
  557MOL0     H75138   8.682   2.184   0.946 -0.4953 -0.7446 -0.8364
  557MOL0     H75139   8.524   2.129   1.007 -0.2935 -0.8797  0.2053
  557MOL0     H75140   8.648   2.209   1.184 -1.7103 -0.7554 -0.1946
  557MOL0     H75141   8.653   2.026   1.199 -0.9821 -0.4335 -1.1890
  557MOL0     H75142   8.856   2.200   1.069 -0.2639 -0.7206 -0.8569
  557MOL0     H75143   8.890   2.033   1.149  1.1717  0.8660  0.9899
  557MOL0     H75144   8.813   2.287   1.285  1.3782  1.3410  0.1856
  557MOL0     H75145   8.850   2.123   1.357  3.5000  0.5978  1.3804
  557MOL0     H75146   9.033   2.444   1.268  1.7152  0.0988 -0.3428
  557MOL0     H75147   9.377   2.381   1.198  2.5985 -0.2703  0.6147
  557MOL0     H75148   9.280   2.506   1.276  0.3134  0.2959  0.6500
  557MOL0     H75149   9.472   2.506   1.407 -0.4288  0.6623  1.9650
  557MOL0     H75150   9.369   2.426   1.510  3.6858  1.1985  2.0602
  557MOL0     H75151   9.454   2.208   1.435  1.5039 -0.9162 -3.6677
  557MOL0     H75152   9.566   2.310   1.531  0.1283  0.5079 -0.0412
  557MOL0     H75153   9.575   2.276   1.224 -1.8632  0.1957  0.8491
  557MOL0     H75154   9.668   2.198   1.335 -0.5731 -0.5218 -1.3799
  557MOL0     H75155   9.820   2.222   1.491 -1.5505  0.8976 -3.1038
  557MOL0     H75156  10.035   2.254   1.604  1.2171  2.9107  2.9192
  557MOL0     H75157  10.273   2.291   1.863  1.2591  0.5608  3.4680
  557MOL0     H75158  10.471   2.283   2.013 -1.7544 -1.3491 -0.5358
  557MOL0     H75159  10.833   2.217   1.786 -0.5994 -0.1639  1.0056
  557MOL0     H75160  10.886   2.384   1.823 -0.5967  0.5091 -1.1062
  557MOL0     H75161  10.962   2.338   2.042 -2.5948  1.1122 -0.8459
  557MOL0     H75162  10.889   2.174   2.021 -3.1033  1.1683 -2.1410
  557MOL0     H75163  11.137   2.270   1.862 -0.7138  0.9995 -0.1272
  557MOL0     H75164  11.143   2.174   2.009  0.3218 -1.7104 -1.4630
  557MOL0     H75165  10.988   2.075   1.766  1.4681  0.1746 -0.2808
  557MOL0     H75166  11.041   1.996   1.919  3.1053  0.6579  3.0532
  557MOL0     H75167  11.263   1.994   1.879  0.6146  2.9595  0.4547
  557MOL0     H75168  11.248   2.104   1.740 -0.8396  0.3376 -1.4598
  557MOL0     H75169  11.095   1.843   1.710  0.8971 -1.0334  0.2295
  557MOL0     H75170  11.170   1.962   1.599  3.6796  0.8180 -0.4441
  557MOL0     H75171  11.299   1.741   1.752 -0.9363 -0.3645  0.2885
  557MOL0     H75172  11.388   1.870   1.662 -1.6712  1.5987  2.6995
  557MOL0     H75173  11.227   1.790   1.463  0.8376  0.4761  0.5849
  557MOL0     H75174  11.360   1.691   1.489 -0.3741 -0.0883 -0.3995
  557MOL0     H75175  10.703   2.407   1.657  0.3649 -1.9629 -1.3536
  557MOL0     H75176  10.490   2.447   1.545 -1.1027  0.6813  0.5217
  557MOL0     H75177  10.081   2.618   1.382 -1.5827  0.5038 -0.3239
  557MOL0     H75178   9.875   2.580   1.270 -0.4870  0.1451  0.6985
  557MOL0     H75179   8.459   1.323   0.714 -1.7153 -0.6897 -2.1963
  557MOL0     H75180   8.277   1.139   0.698 -1.8394  0.2988  0.7111
  557MOL0     H75181   7.643   1.159   0.800  0.3587  0.9085 -0.9057
  557MOL0     H75182   7.479   0.994   0.741  1.1998  0.5405  0.6979
  557MOL0     H75183   7.576   0.579   0.640 -1.2496 -1.7843  0.6035
  557MOL0     H75184   7.613   0.648   0.491 -2.0806  0.7336 -1.2653
  557MOL0     H75185   7.319   0.666   0.503  1.4125  1.3473 -2.2696
  557MOL0     H75186   7.371   0.530   0.591 -0.7128 -0.0630 -1.1576
  557MOL0     H75187   7.495   0.447   0.388 -1.7062 -0.7100 -1.7898
  557MOL0     H75188   7.414   0.581   0.292 -2.0664 -1.8892 -1.7951
  557MOL0     H75189   7.275   0.360   0.462  0.2948 -0.4304 -0.1388
  557MOL0     H75190   7.194   0.489   0.386  0.8010  1.1975 -1.2743
  557MOL0     H75191   7.272   0.255   0.047  0.0006  1.3746 -0.0887
  557MOL0     H75192   7.773   0.751   0.563 -2.5738  1.1699 -1.4050
  557MOL0     H75193   8.036   0.957   0.544  3.4808 -1.8232  0.1157
  557MOL0     H75194   8.062   0.899   0.709 -1.8080  0.9050  0.5431
  557MOL0     H75195   8.007   0.788   0.580 -2.7558 -2.3693  2.7056
  558MOL0     O75196   6.758   7.949   8.098  0.0249 -0.2760  0.0294
  558MOL0     C75197   6.807   7.887   8.192 -1.0223  0.2815  0.4362
  558MOL0     O75198   6.941   7.865   8.218 -0.0917  0.3417  0.1800
  558MOL0     C75199   7.035   7.864   8.119  0.5015 -0.3554  0.8316
  558MOL0     C75200   7.149   7.947   8.124 -0.6864  0.6630 -1.0374
  558MOL0     C75201   7.239   7.942   8.020 -0.3746 -0.4167  0.9695
  558MOL0     C75202   7.215   7.861   7.911 -0.1850  0.1126  0.2006
  558MOL0     O75203   7.304   7.863   7.808 -0.1763  0.4737 -0.2686
  558MOL0     C75204   7.333   7.993   7.748  0.2478  0.5088 -0.3604
  558MOL0     C75205   7.198   8.040   7.680 -0.1731  0.5406  0.1966
  558MOL0     C75206   7.211   8.168   7.578  0.0039 -0.6618  0.6045
  558MOL0     C75207   7.291   8.129   7.450 -0.1273 -0.8670 -0.5524
  558MOL0     C75208   7.276   8.249   7.346  0.9285 -0.0667 -0.5347
  558MOL0     C75209   7.345   8.212   7.214 -0.0242 -0.4199  0.6269
  558MOL0     C75210   7.306   8.324   7.117  0.4450  0.0062 -0.4971
  558MOL0     C75211   7.400   8.334   6.993  0.2911  0.4353  0.1984
  558MOL0     N75212   7.363   8.224   6.909  0.1719  0.4752  0.3883
  558MOL0     C75213   7.323   8.240   6.780  0.1912 -0.0958  0.4927
  558MOL0     C75214   7.357   8.123   6.718 -0.8960 -1.0917 -0.2772
  558MOL0     C75215   7.324   8.086   6.570  0.9838  0.4369 -0.6528
  558MOL0     C75216   7.178   8.048   6.559  0.0033 -0.7492 -0.8365
  558MOL0     C75217   7.135   7.990   6.423  0.4937  0.4869  0.5949
  558MOL0     C75218   7.195   7.848   6.396  0.2298  0.2868 -0.0255
  558MOL0     O75219   7.096   7.776   6.319 -0.7005  1.0897  0.0021
  558MOL0     C75220   7.119   7.651   6.264 -0.1754  0.6105  0.1912
  558MOL0     C75221   7.217   7.565   6.315  0.8160  0.7614 -0.4166
  558MOL0     C75222   7.230   7.438   6.261 -0.5440 -0.5654 -0.5132
  558MOL0     C75223   7.161   7.401   6.140 -0.0841  0.6653  1.4536
  558MOL0     C75224   7.172   7.258   6.073 -0.5523 -0.4588 -0.1578
  558MOL0     O75225   7.242   7.161   6.156  0.1507 -0.9890  0.2962
  558MOL0     C75226   7.242   7.028   6.136 -0.1568 -0.0241  0.6689
  558MOL0     C75227   7.153   6.953   6.053 -0.5680  0.7215  0.0372
  558MOL0     C75228   7.168   6.811   6.052 -0.1412  0.7639 -0.2236
  558MOL0     C75229   7.263   6.742   6.130 -0.1892  0.3222 -0.4455
  558MOL0     O75230   7.285   6.605   6.125  0.0759  0.1464  0.7915
  558MOL0     C75231   7.185   6.525   6.054  0.5430  0.3161  0.0875
  558MOL0     C75232   7.198   6.379   6.101 -0.5929  0.0486  0.0557
  558MOL0     C75233   7.323   6.302   6.045  0.6280 -0.0300  0.7795
  558MOL0     C75234   7.321   6.299   5.885  0.7018 -0.3566  0.5138
  558MOL0     C75235   7.430   6.221   5.829 -0.8463  0.0401  0.1894
  558MOL0     C75236   7.554   6.280   5.850 -0.4194 -0.3548 -0.1350
  558MOL0     C75237   7.680   6.217   5.772  1.2116 -1.3629  0.2710
  558MOL0     C75238   7.681   6.244   5.619  0.3347 -0.0552 -0.0770
  558MOL0    Cl75239   7.626   6.407   5.581 -0.1577  0.0689 -0.0644
  558MOL0     C75240   7.335   6.819   6.215 -0.2777  0.0502 -0.1894
  558MOL0     C75241   7.326   6.959   6.225 -0.1744  0.3880 -0.3157
  558MOL0     O75242   7.124   7.238   5.960  0.3532  0.3455 -0.1178
  558MOL0     C75243   7.066   7.484   6.090  0.2755 -0.4039 -0.1768
  558MOL0     C75244   7.042   7.607   6.157 -0.7055  0.0463 -0.7424
  558MOL0     N75245   7.425   8.043   6.805  0.7089  0.5769 -0.4059
  558MOL0     N75246   7.423   8.104   6.920 -0.0879 -0.1767 -0.0924
  558MOL0     C75247   7.106   7.772   7.902  0.0094 -0.4870  0.4100
  558MOL0     C75248   7.021   7.776   8.009  0.1277 -0.3701 -0.5254
  558MOL0     C75249   6.721   7.854   8.310  0.7821 -0.6674  0.2750
  558MOL0     C75250   6.788   7.799   8.426 -0.3629  0.4522  0.6443
  558MOL0     C75251   6.709   7.761   8.534 -0.6398 -0.1133 -0.2830
  558MOL0     C75252   6.568   7.771   8.539  0.2773 -0.3012  0.6858
  558MOL0     O75253   6.470   7.749   8.633 -0.6859  0.6355  0.4395
  558MOL0     C75254   6.503   7.685   8.755  0.4002 -0.0520  0.2074
  558MOL0     C75255   6.395   7.723   8.866  0.0396 -0.2610 -0.2491
  558MOL0     C75256   6.259   7.666   8.840 -0.4354 -1.2726  0.0405
  558MOL0     C75257   6.145   7.739   8.914 -1.1347  0.2907 -0.2430
  558MOL0     C75258   6.015   7.700   8.865 -0.8214 -0.1666  0.1001
  558MOL0     C75259   5.906   7.664   8.832  0.1241 -0.3148  1.1198
  558MOL0     C75260   6.506   7.819   8.418 -0.4797 -0.3251  0.0890
  558MOL0     C75261   6.582   7.860   8.302  0.1803  1.2132 -1.3450
  558MOL0     C75262   6.493   7.908   8.187 -0.3972 -0.3988  0.3680
  558MOL0     H75263   7.170   8.012   8.208 -0.0493 -1.3509  0.4393
  558MOL0     H75264   7.315   8.020   8.021 -1.7550  0.9960  2.5429
  558MOL0     H75265   7.385   8.057   7.821 -0.1544 -1.9485  2.2638
  558MOL0     H75266   7.407   7.993   7.668  0.8038  0.1441  0.1392
  558MOL0     H75267   7.136   8.057   7.768  0.6485  0.7687  0.7470
  558MOL0     H75268   7.154   7.954   7.629  1.5678  1.0266 -2.3199
  558MOL0     H75269   7.262   8.252   7.624  0.0844 -0.7188  0.6201
  558MOL0     H75270   7.111   8.195   7.543  0.4358  1.1164  0.6860
  558MOL0     H75271   7.394   8.107   7.476  0.6502  1.7560 -1.1051
  558MOL0     H75272   7.239   8.040   7.413 -1.6655 -0.0313 -0.4716
  558MOL0     H75273   7.170   8.267   7.325  0.3490 -0.6181  1.6856
  558MOL0     H75274   7.314   8.342   7.388  0.1322  0.6880 -1.4395
  558MOL0     H75275   7.451   8.216   7.240 -0.3842  1.2263  2.0792
  558MOL0     H75276   7.311   8.117   7.171 -0.9215 -0.0397  0.4782
  558MOL0     H75277   7.317   8.422   7.166 -3.0937  0.3608 -0.1898
  558MOL0     H75278   7.202   8.313   7.087  0.3974 -1.3344  0.0953
  558MOL0     H75279   7.381   8.431   6.946  1.9185  0.2397 -0.9620
  558MOL0     H75280   7.506   8.334   7.021 -0.1852  2.1850  2.2275
  558MOL0     H75281   7.268   8.327   6.745  4.2028  2.5724  0.1358
  558MOL0     H75282   7.346   8.171   6.505  2.6071  0.5725  0.0244
  558MOL0     H75283   7.391   8.007   6.535  3.6846  2.1111  0.3920
  558MOL0     H75284   7.159   7.975   6.638  2.0517 -0.7341 -0.2904
  558MOL0     H75285   7.109   8.129   6.584  0.2462 -0.3186 -1.5350
  558MOL0     H75286   7.163   8.058   6.342 -3.2844  2.2328  0.5224
  558MOL0     H75287   7.026   7.983   6.418  0.3595  1.3289  2.0503
  558MOL0     H75288   7.221   7.786   6.482  0.7096 -0.2961 -0.5788
  558MOL0     H75289   7.283   7.869   6.335  0.3688 -0.7739 -0.2130
  558MOL0     H75290   7.279   7.590   6.400  2.4853 -2.1598 -0.6504
  558MOL0     H75291   7.298   7.367   6.308 -2.1053 -1.2939  0.7624
  558MOL0     H75292   7.065   6.991   6.001 -1.0933 -2.7325 -1.9284
  558MOL0     H75293   7.100   6.761   5.985  0.7380  0.1190 -0.6605
  558MOL0     H75294   7.095   6.540   6.115  0.1321 -0.6325 -0.2626
  558MOL0     H75295   7.168   6.538   5.947  0.0114 -1.3973 -0.0700
  558MOL0     H75296   7.214   6.371   6.209 -1.6055 -3.8567  0.0728
  558MOL0     H75297   7.105   6.329   6.075  0.0082 -0.9405 -0.2686
  558MOL0     H75298   7.418   6.346   6.076  1.9398 -1.6827 -0.6859
  558MOL0     H75299   7.327   6.198   6.079 -0.8951 -0.7601 -1.0610
  558MOL0     H75300   7.324   6.406   5.861 -0.1548 -0.2716  0.7672
  558MOL0     H75301   7.229   6.252   5.852  1.6017 -1.2743 -0.7894
  558MOL0     H75302   7.419   6.216   5.721  1.8810  1.1163 -0.2118
  558MOL0     H75303   7.435   6.117   5.861  0.1730 -1.0197 -3.0443
  558MOL0     H75304   7.542   6.389   5.842  0.2657  0.0233  2.7533
  558MOL0     H75305   7.572   6.272   5.958 -0.0810  0.2269 -0.1372
  558MOL0     H75306   7.685   6.108   5.786  1.3987 -1.4749 -0.6183
  558MOL0     H75307   7.770   6.250   5.824 -0.9041 -0.2174  3.5684
  558MOL0     H75308   7.783   6.228   5.583 -0.4855 -3.3192 -1.3002
  558MOL0     H75309   7.615   6.171   5.571 -2.3327  2.2924 -0.2323
  558MOL0     H75310   7.412   6.773   6.276  0.4895  1.0084 -0.4186
  558MOL0     H75311   7.396   7.011   6.289  0.5488 -1.0915  0.1379
  558MOL0     H75312   7.013   7.462   5.998  0.2630  0.9616 -0.5219
  558MOL0     H75313   6.968   7.673   6.112  1.4203  2.3538 -1.0739
  558MOL0     H75314   7.108   7.703   7.818  1.8640 -1.8863  1.5231
  558MOL0     H75315   6.931   7.716   8.008 -0.0695 -0.0871 -1.5330
  558MOL0     H75316   6.895   7.787   8.432 -0.4521 -0.6076  0.3608
  558MOL0     H75317   6.756   7.725   8.625 -1.3332 -0.7591 -0.1680
  558MOL0     H75318   6.604   7.700   8.793  0.9377 -3.7770  0.6132
  558MOL0     H75319   6.501   7.578   8.732 -3.2083 -0.0097 -0.2929
  558MOL0     H75320   6.397   7.832   8.866  2.3073 -0.2392  0.4839
  558MOL0     H75321   6.438   7.690   8.962  1.8020  0.5670 -0.7049
  558MOL0     H75322   6.257   7.560   8.868  1.9727 -1.9534 -2.0813
  558MOL0     H75323   6.234   7.679   8.734 -2.6794  1.3595  0.7681
  558MOL0     H75324   6.151   7.713   9.020  2.8180 -0.0048 -0.3906
  558MOL0     H75325   6.150   7.847   8.896 -0.0431 -0.1766 -3.5329
  558MOL0     H75326   5.811   7.639   8.789  0.7418 -0.4809 -0.1837
  558MOL0     H75327   6.401   7.839   8.436 -0.4043  0.5966 -0.4066
  558MOL0     H75328   6.414   7.963   8.238  1.7232  0.7675  2.6255
  558MOL0     H75329   6.535   7.971   8.109 -0.0131 -1.6264 -0.4573
  558MOL0     H75330   6.456   7.821   8.132  0.2268 -1.5831  1.7421
  559MOL0     O75331   9.952  10.628   2.171 -0.1744  0.5883 -0.4691
  559MOL0     C75332   9.916  10.737   2.206 -0.2163 -0.3768  0.0480
  559MOL0     O75333   9.999  10.850   2.230  0.0642 -0.3750 -1.1243
  559MOL0     C75334  10.131  10.844   2.183 -1.5024 -0.5543  0.2782
  559MOL0     C75335  10.225  10.875   2.279 -1.2235 -0.2549 -0.8713
  559MOL0     C75336  10.368  10.861   2.262  0.3692  0.2287  0.1736
  559MOL0     C75337  10.410  10.809   2.140 -0.0826  0.6057  0.0248
  559MOL0     O75338  10.536  10.783   2.091  0.1095  0.8255 -0.3615
  559MOL0     C75339  10.644  10.844   2.162 -0.3532  0.0001  0.0376
  559MOL0     C75340  10.652  11.004   2.168  0.4637 -0.5311  1.4743
  559MOL0     C75341  10.792  11.046   2.211  0.3836 -0.2011  0.0798
  559MOL0     C75342  10.897  11.031   2.100  0.2820  0.2601  0.6915
  559MOL0     C75343  11.045  11.066   2.134  0.2148  0.3059 -0.5973
  559MOL0     C75344  11.062  11.213   2.166  0.4841 -0.6793 -0.1994
  559MOL0     C75345  11.208  11.247   2.161  0.2893 -0.2622  0.5440
  559MOL0     C75346  11.258  11.270   2.017 -0.1907 -0.5324 -1.0631
  559MOL0     N75347  11.399  11.327   2.015 -0.2344  0.7520  0.1144
  559MOL0     C75348  11.515  11.261   2.044  0.0125  0.3261  0.7490
  559MOL0     C75349  11.612  11.355   2.060  0.5393  0.0734 -0.3631
  559MOL0     C75350  11.750  11.343   2.123 -0.1448  0.5743 -0.2579
  559MOL0     C75351  11.849  11.432   2.059 -0.4093 -0.0805  0.2143
  559MOL0     C75352  11.829  11.579   2.086 -1.0232  0.0030 -0.3654
  559MOL0     C75353  11.973  11.639   2.095  0.7405 -0.2847 -0.2271
  559MOL0     O75354  12.044  11.580   2.204 -0.8708 -0.2596  1.1507
  559MOL0     C75355  12.186  11.588   2.218 -0.1546 -0.4382  0.4245
  559MOL0     C75356  12.241  11.507   2.318 -0.7166  1.1340 -0.6130
  559MOL0     C75357  12.384  11.499   2.338  0.5248  0.1726  0.0478
  559MOL0     C75358  12.463  11.576   2.246 -0.8656  0.8078 -0.5097
  559MOL0     C75359  12.611  11.581   2.265 -0.4555 -0.3087 -0.0601
  559MOL0     O75360  12.693  11.636   2.174 -0.8936  0.0599  0.3766
  559MOL0     C75361  12.825  11.683   2.187 -0.1372  0.2300  0.7648
  559MOL0     C75362  12.876  11.728   2.068 -1.3960 -0.1039  0.0514
  559MOL0     C75363  13.010  11.786   2.052  0.6016  1.2465 -0.0894
  559MOL0     C75364  13.090  11.791   2.166 -0.0369 -0.0845  0.1576
  559MOL0     O75365  13.211  11.854   2.152 -0.2678 -0.1592 -0.5445
  559MOL0     C75366  13.313  11.852   2.257 -0.2608  0.8201  0.3807
  559MOL0     C75367  13.381  11.721   2.261  0.1795  0.5369  0.6451
  559MOL0     C75368  13.483  11.697   2.372  0.8864 -0.1606 -0.4252
  559MOL0     C75369  13.512  11.542   2.374  0.3807 -0.6211 -0.1107
  559MOL0     C75370  13.619  11.503   2.474  0.2001  0.0601  0.0450
  559MOL0     C75371  13.765  11.533   2.417  0.8637  0.7882  0.1048
  559MOL0     C75372  13.878  11.492   2.516  0.3284 -0.0064 -0.0843
  559MOL0     C75373  13.999  11.450   2.431 -0.2901  0.1763 -0.0841
  559MOL0    Cl75374  14.039  11.594   2.353 -0.1990 -0.2468 -0.5946
  559MOL0     C75375  13.036  11.749   2.290  0.1746 -0.5783  0.0272
  559MOL0     C75376  12.902  11.697   2.303  1.4518 -0.3695  0.1643
  559MOL0     O75377  12.655  11.526   2.366 -0.6324 -0.7561 -0.7857
  559MOL0     C75378  12.408  11.641   2.141 -0.5735 -0.5099 -0.1434
  559MOL0     C75379  12.270  11.657   2.130 -0.6120 -0.5046 -1.1095
  559MOL0     N75380  11.553  11.469   2.015  0.2752 -0.7505  0.0336
  559MOL0     N75381  11.427  11.457   1.982 -1.0194  0.1706  0.5256
  559MOL0     C75382  10.310  10.767   2.043  1.4944 -0.0019  0.3213
  559MOL0     C75383  10.172  10.787   2.070  0.6610 -0.4743 -0.3659
  559MOL0     C75384   9.772  10.759   2.222 -0.0586  0.0040 -0.1989
  559MOL0     C75385   9.680  10.703   2.127 -0.7095  0.0941  0.4089
  559MOL0     C75386   9.544  10.727   2.136  0.1038  0.7957 -0.3404
  559MOL0     C75387   9.489  10.800   2.236  0.5328 -0.2616 -0.0070
  559MOL0     O75388   9.350  10.839   2.248 -0.4669 -0.2165  0.3999
  559MOL0     C75389   9.243  10.788   2.162  0.2107  0.1115 -0.6053
  559MOL0     C75390   9.219  10.907   2.062  0.0594 -0.6096 -0.0148
  559MOL0     C75391   9.140  10.838   1.946  0.5149 -0.1452 -0.0089
  559MOL0     C75392   9.232  10.769   1.846 -0.0525 -0.0199 -0.2681
  559MOL0     C75393   9.179  10.684   1.738  0.1306  0.1386 -0.7866
  559MOL0     C75394   9.141  10.616   1.646  0.7348 -0.4347  0.8062
  559MOL0     C75395   9.566  10.861   2.335 -0.2365  0.7312 -0.1439
  559MOL0     C75396   9.707  10.830   2.328 -0.2575  0.5697  0.1949
  559MOL0     C75397   9.798  10.882   2.437 -0.1008  1.0795 -0.3879
  559MOL0     H75398  10.190  10.923   2.370 -2.0606  0.0705 -1.3548
  559MOL0     H75399  10.441  10.906   2.327 -0.4088  0.6824  0.7495
  559MOL0     H75400  10.642  10.805   2.265 -5.5645  0.8685  0.5472
  559MOL0     H75401  10.728  10.803   2.106  0.7212  0.4890  1.2263
  559MOL0     H75402  10.570  11.036   2.233  1.5660 -1.4518  3.3895
  559MOL0     H75403  10.641  11.056   2.072  0.4180 -0.9463  1.2538
  559MOL0     H75404  10.805  10.987   2.302 -4.4460  0.5589  1.5524
  559MOL0     H75405  10.786  11.153   2.230 -1.1461  0.1048 -1.7588
  559MOL0     H75406  10.910  10.927   2.068  1.7840  0.7588 -0.4362
  559MOL0     H75407  10.858  11.094   2.019 -0.9172  1.7534  2.3519
  559MOL0     H75408  11.085  11.001   2.213  1.8479  1.9295 -0.0086
  559MOL0     H75409  11.105  11.053   2.044  2.4013  1.9513  0.5371
  559MOL0     H75410  11.001  11.275   2.100  1.9479 -0.6385 -1.5711
  559MOL0     H75411  11.035  11.221   2.272  0.7830  0.9562 -0.2160
  559MOL0     H75412  11.273  11.173   2.209 -2.3168 -1.3804  2.6178
  559MOL0     H75413  11.219  11.345   2.208  0.0335  1.6693 -3.0363
  559MOL0     H75414  11.251  11.192   1.942 -3.6443 -1.1752 -0.2440
  559MOL0     H75415  11.197  11.352   1.978  2.3438  3.7066  2.7996
  559MOL0     H75416  11.536  11.155   2.053 -1.0769 -0.2048 -1.9083
  559MOL0     H75417  11.752  11.359   2.231 -0.2603 -2.2764  0.2387
  559MOL0     H75418  11.781  11.238   2.118 -1.8273  0.0693 -1.0505
  559MOL0     H75419  11.942  11.403   2.109 -0.7734  0.1496  1.0248
  559MOL0     H75420  11.857  11.410   1.952 -0.3938 -0.6616  0.3309
  559MOL0     H75421  11.785  11.579   2.186  1.5350  1.6700  0.8532
  559MOL0     H75422  11.774  11.642   2.016  2.6709  0.8522 -2.7843
  559MOL0     H75423  11.972  11.748   2.100 -0.3262 -0.3498  1.6111
  559MOL0     H75424  12.013  11.609   1.997 -0.8775 -0.3842 -0.8759
  559MOL0     H75425  12.185  11.451   2.393 -1.3950 -0.4899 -2.2440
  559MOL0     H75426  12.437  11.441   2.413  1.2431 -1.0639 -1.3553
  559MOL0     H75427  12.798  11.720   1.992 -1.3333 -1.0492  0.0787
  559MOL0     H75428  13.050  11.827   1.960  2.4460  0.4640  0.3358
  559MOL0     H75429  13.383  11.929   2.222  1.6353 -1.2593 -0.6546
  559MOL0     H75430  13.266  11.873   2.353 -1.9201  0.7876 -0.3881
  559MOL0     H75431  13.305  11.644   2.274  3.2821 -3.4026 -1.7767
  559MOL0     H75432  13.422  11.695   2.162 -0.5703 -1.1692  0.7441
  559MOL0     H75433  13.569  11.761   2.353  0.0351  0.4530 -2.5309
  559MOL0     H75434  13.443  11.726   2.469 -2.1299 -2.1001 -0.9599
  559MOL0     H75435  13.553  11.516   2.276 -1.3735  0.0660 -1.0619
  559MOL0     H75436  13.418  11.493   2.397 -0.9701  0.2955 -3.2250
  559MOL0     H75437  13.607  11.395   2.485 -2.9356  0.2195 -0.7662
  559MOL0     H75438  13.601  11.550   2.571 -3.4887  1.8163 -1.3096
  559MOL0     H75439  13.764  11.465   2.331 -3.4839  0.4121  0.2211
  559MOL0     H75440  13.762  11.639   2.389 -4.1116  0.8893  0.1096
  559MOL0     H75441  13.843  11.405   2.571  1.8594 -1.9436 -1.9888
  559MOL0     H75442  13.907  11.578   2.578  3.3039 -0.3472 -0.8267
  559MOL0     H75443  14.093  11.428   2.481 -0.1803  1.0401  0.0942
  559MOL0     H75444  13.974  11.378   2.352 -2.5926  1.2104 -0.3827
  559MOL0     H75445  13.100  11.759   2.377  0.8647  0.9347 -0.6096
  559MOL0     H75446  12.865  11.670   2.402 -2.3448  2.1988 -0.3592
  559MOL0     H75447  12.462  11.692   2.061 -1.9288 -0.2889 -0.9439
  559MOL0     H75448  12.230  11.716   2.048  1.4288  0.2421 -1.6447
  559MOL0     H75449  10.348  10.727   1.950 -0.4371 -2.7268  0.5694
  559MOL0     H75450  10.114  10.755   1.984  0.1487  0.9738 -0.5889
  559MOL0     H75451   9.710  10.643   2.042  0.1654  0.0592  0.7310
  559MOL0     H75452   9.483  10.699   2.051 -0.5927  1.0155  0.0808
  559MOL0     H75453   9.157  10.757   2.222  1.2686 -1.9736 -0.0569
  559MOL0     H75454   9.267  10.696   2.107 -0.8518  1.3040 -3.2129
  559MOL0     H75455   9.307  10.964   2.031 -0.5455  0.5606  0.3546
  559MOL0     H75456   9.142  10.969   2.108  0.9186  1.4424 -1.2215
  559MOL0     H75457   9.087  10.907   1.881 -3.7993 -2.8314  0.2896
  559MOL0     H75458   9.069  10.766   1.989 -1.6215  1.9537  0.1834
  559MOL0     H75459   9.291  10.848   1.798 -1.1060  0.8044 -0.2142
  559MOL0     H75460   9.315  10.717   1.895  0.8206  1.9308  0.4123
  559MOL0     H75461   9.109  10.553   1.565 -0.6426  1.4605 -0.1909
  559MOL0     H75462   9.538  10.926   2.417  3.7505  1.7441  0.5920
  559MOL0     H75463   9.841  10.977   2.407  2.6931  0.3524  0.9429
  559MOL0     H75464   9.747  10.900   2.532  0.3754 -0.0329  0.1054
  559MOL0     H75465   9.885  10.820   2.464 -0.0307  1.8098  1.1509
  560MOL0     O75466   0.146   5.690   8.989  1.0739  0.1484 -0.2867
  560MOL0     C75467   0.190   5.672   9.102  0.1646 -0.4094  1.0062
  560MOL0     O75468   0.173   5.565   9.176 -0.1572  0.1447 -0.4537
  560MOL0     C75469   0.070   5.473   9.158  0.8581 -0.4903  0.1939
  560MOL0     C75470   0.042   5.403   9.039  0.5765  0.5133 -0.2418
  560MOL0     C75471  -0.070   5.308   9.044 -0.8554 -0.6863 -0.3309
  560MOL0     C75472  -0.142   5.287   9.158 -0.4959  0.1326  0.5360
  560MOL0     O75473  -0.251   5.209   9.135  0.3705 -0.7129  0.4147
  560MOL0     C75474  -0.300   5.144   9.245 -0.7932  0.5378 -0.5083
  560MOL0     C75475  -0.416   5.058   9.186 -0.6870 -0.5944 -0.9029
  560MOL0     C75476  -0.457   4.944   9.280 -0.1583 -0.3983  0.3258
  560MOL0     C75477  -0.586   4.883   9.219  0.1859  0.2091 -0.6746
  560MOL0     C75478  -0.708   4.928   9.298  1.2030  0.3690  0.6370
  560MOL0     C75479  -0.838   4.902   9.234  0.4051 -0.5687 -0.1286
  560MOL0     C75480  -0.874   4.747   9.215  1.2369 -0.9572  0.2323
  560MOL0     C75481  -0.871   4.662   9.345 -0.4096  0.0032  0.2715
  560MOL0     N75482  -0.930   4.709   9.469  0.3128  0.4732 -0.5574
  560MOL0     C75483  -0.861   4.716   9.587 -0.7490  0.4333  0.2687
  560MOL0     C75484  -0.958   4.740   9.674 -0.1757 -0.1282 -0.0047
  560MOL0     C75485  -0.937   4.739   9.822  0.5935  0.6416 -0.5811
  560MOL0     C75486  -1.060   4.805   9.885 -0.2046  0.3492 -0.2270
  560MOL0     C75487  -1.054   4.816  10.040 -0.1689 -0.7842 -0.2561
  560MOL0     C75488  -1.134   4.703  10.104 -0.8577  0.1997 -0.6169
  560MOL0     O75489  -1.066   4.574  10.079 -0.2771  0.6677 -0.3378
  560MOL0     C75490  -0.953   4.525  10.133 -1.1916  0.4784 -0.0392
  560MOL0     C75491  -0.910   4.573  10.254 -0.4329  0.1882 -0.7187
  560MOL0     C75492  -0.805   4.504  10.322 -0.6646  0.0432  0.3808
  560MOL0     C75493  -0.767   4.379  10.280  0.9345  0.2014 -0.4938
  560MOL0     C75494  -0.686   4.290  10.354 -0.3536 -0.7212 -0.6247
  560MOL0     O75495  -0.639   4.339  10.470 -0.2123 -0.1334 -0.9354
  560MOL0     C75496  -0.577   4.237  10.553  0.0577 -0.7560 -0.7787
  560MOL0     C75497  -0.456   4.172  10.523  0.4738 -0.7769 -0.1263
  560MOL0     C75498  -0.411   4.068  10.605 -0.6351  0.4250 -0.5706
  560MOL0     C75499  -0.476   4.033  10.726  0.1451 -0.2955 -0.4718
  560MOL0     O75500  -0.427   3.931  10.797  0.0507 -0.0501  0.8034
  560MOL0     C75501  -0.434   3.954  10.939 -0.4340  0.1219  0.8916
  560MOL0     C75502  -0.343   3.853  11.011  0.7947 -0.5597 -0.4738
  560MOL0     C75503  -0.191   3.875  11.003 -0.1207 -0.2667  1.0217
  560MOL0     C75504  -0.144   3.956  11.131  0.0781  0.6544 -0.0819
  560MOL0     C75505   0.001   3.989  11.130 -0.8719  0.0613 -1.0630
  560MOL0     C75506   0.044   4.059  11.257 -0.8890 -0.2861 -1.0135
  560MOL0     C75507   0.189   4.107  11.278  0.0181 -0.3421 -0.5755
  560MOL0     C75508   0.297   4.017  11.221 -0.4189 -0.5203 -0.0384
  560MOL0    Cl75509   0.457   4.101  11.248 -0.5183  0.0355 -0.0264
  560MOL0     C75510  -0.595   4.105  10.751 -0.5293  1.4847 -0.8648
  560MOL0     C75511  -0.647   4.192  10.660  0.3541  0.0930 -0.6219
  560MOL0     O75512  -0.662   4.178  10.321  0.1653  0.1895  0.3047
  560MOL0     C75513  -0.819   4.329  10.155 -0.1963 -1.1297 -0.3493
  560MOL0     C75514  -0.905   4.410  10.081 -0.5176  1.2281  0.6326
  560MOL0     N75515  -1.085   4.749   9.610 -0.5733  0.0635  0.6225
  560MOL0     N75516  -1.070   4.717   9.493 -1.0198 -0.6660 -0.0589
  560MOL0     C75517  -0.097   5.340   9.277  1.0552 -0.3990 -0.4833
  560MOL0     C75518   0.012   5.427   9.276 -0.9445 -0.3898  0.3511
  560MOL0     C75519   0.274   5.789   9.164  0.6441 -0.6563 -0.0887
  560MOL0     C75520   0.297   5.778   9.306  0.1551 -0.3828 -0.5047
  560MOL0     C75521   0.352   5.890   9.373 -0.2836 -0.4784 -0.0603
  560MOL0     C75522   0.376   6.013   9.308  0.3773 -0.2107  0.2411
  560MOL0     O75523   0.411   6.121   9.388  0.3698 -0.4446 -0.6483
  560MOL0     C75524   0.415   6.251   9.321  0.3408 -1.3452  0.4783
  560MOL0     C75525   0.452   6.372   9.413 -1.0783 -0.1968  0.8833
  560MOL0     C75526   0.358   6.380   9.537 -1.4237  1.2584  0.1054
  560MOL0     C75527   0.315   6.526   9.572 -0.9502 -0.0366  0.0371
  560MOL0     C75528   0.432   6.602   9.594  0.2482  0.1781 -0.2191
  560MOL0     C75529   0.535   6.662   9.622 -0.8010  0.2006  0.4078
  560MOL0     C75530   0.360   6.017   9.169 -0.9399 -0.4293 -0.0469
  560MOL0     C75531   0.307   5.913   9.101  0.2411 -0.3814  0.1737
  560MOL0     C75532   0.269   5.951   8.960  0.0937 -0.0359 -0.0886
  560MOL0     H75533   0.092   5.424   8.945 -0.1491  0.0900 -0.7278
  560MOL0     H75534  -0.098   5.262   8.950  0.1451  0.6683 -1.3428
  560MOL0     H75535  -0.229   5.070   9.285 -1.5719  1.0969  2.1044
  560MOL0     H75536  -0.340   5.219   9.314 -1.6205  0.6104 -1.0528
  560MOL0     H75537  -0.386   5.007   9.094 -1.8168 -1.2096 -0.9638
  560MOL0     H75538  -0.504   5.118   9.160 -1.1588 -2.5782 -4.5861
  560MOL0     H75539  -0.475   4.970   9.385  1.3977 -0.3078  0.5996
  560MOL0     H75540  -0.387   4.860   9.282  0.7623  0.3500  0.1677
  560MOL0     H75541  -0.602   4.907   9.114  4.0016 -1.0351 -1.6949
  560MOL0     H75542  -0.589   4.775   9.233 -0.4996  0.3561  0.4516
  560MOL0     H75543  -0.709   4.876   9.394 -1.5108  1.4038  1.2576
  560MOL0     H75544  -0.706   5.035   9.320  0.5875  1.5016 -3.8721
  560MOL0     H75545  -0.918   4.956   9.288 -1.1411 -2.8528  0.0096
  560MOL0     H75546  -0.843   4.941   9.132  1.4418 -0.2945 -0.0849
  560MOL0     H75547  -0.806   4.713   9.137  2.7914  0.9373  0.6794
  560MOL0     H75548  -0.975   4.748   9.174  1.4074 -1.1502 -0.1973
  560MOL0     H75549  -0.923   4.567   9.331 -1.3367  0.6547 -0.8371
  560MOL0     H75550  -0.766   4.639   9.368 -0.2415 -1.2655 -1.5336
  560MOL0     H75551  -0.761   4.675   9.603  0.6110  2.3429 -2.6303
  560MOL0     H75552  -0.913   4.637   9.854 -0.8850  0.4374 -0.0511
  560MOL0     H75553  -0.850   4.801   9.846 -0.2854  2.2513 -1.4088
  560MOL0     H75554  -1.066   4.898   9.827 -0.4195 -1.1887 -2.8130
  560MOL0     H75555  -1.146   4.742   9.861 -0.4982  1.0877 -1.1741
  560MOL0     H75556  -1.086   4.912  10.082 -0.1820 -1.0860  0.4388
  560MOL0     H75557  -0.948   4.803  10.064 -0.5624 -0.8362  1.5493
  560MOL0     H75558  -1.237   4.704  10.065 -1.3049 -0.0839  0.5300
  560MOL0     H75559  -1.149   4.731  10.208 -1.1157  2.1151 -1.1170
  560MOL0     H75560  -0.955   4.669  10.280 -0.3546  0.2718 -0.8929
  560MOL0     H75561  -0.760   4.543  10.413 -0.5089  0.2272  0.2248
  560MOL0     H75562  -0.406   4.193  10.429 -2.6582 -2.4409 -2.3667
  560MOL0     H75563  -0.322   4.010  10.579  0.4248  1.0369  1.4944
  560MOL0     H75564  -0.405   4.058  10.958  0.7900 -0.5837  3.4109
  560MOL0     H75565  -0.536   3.928  10.970 -2.0838  3.1724 -1.4186
  560MOL0     H75566  -0.380   3.839  11.113 -1.9159  0.6053 -1.1921
  560MOL0     H75567  -0.367   3.760  10.958  0.9003 -0.3292 -0.9309
  560MOL0     H75568  -0.142   3.777  11.008 -1.4832 -0.9770  0.9992
  560MOL0     H75569  -0.160   3.931  10.915 -3.2184  0.8641  0.5032
  560MOL0     H75570  -0.163   3.892  11.218 -5.5462 -0.4076 -1.6613
  560MOL0     H75571  -0.204   4.047  11.139  0.9426  1.2237  0.0723
  560MOL0     H75572   0.019   4.063  11.051 -1.8374  2.2082  0.6257
  560MOL0     H75573   0.060   3.901  11.102 -0.5910  0.6591 -2.4762
  560MOL0     H75574  -0.011   4.153  11.263  0.0332  0.1823  0.2125
  560MOL0     H75575   0.002   3.993  11.333  0.7153  0.3067  0.4245
  560MOL0     H75576   0.197   4.143  11.381 -0.4534  2.7131 -1.4975
  560MOL0     H75577   0.190   4.202  11.224  1.3101  0.5643  0.9396
  560MOL0     H75578   0.292   3.918  11.268  1.1090 -1.7253 -2.2271
  560MOL0     H75579   0.286   4.010  11.112 -0.6467  1.5022 -0.1776
  560MOL0     H75580  -0.653   4.086  10.841  1.2314 -1.4235 -0.2357
  560MOL0     H75581  -0.741   4.245  10.673  0.0949  0.3293 -3.0753
  560MOL0     H75582  -0.789   4.227  10.133  0.1694 -0.6493 -2.2354
  560MOL0     H75583  -0.943   4.376   9.986  0.7300 -0.7993  0.8033
  560MOL0     H75584  -0.139   5.325   9.376  1.3240  0.8478 -0.1677
  560MOL0     H75585   0.051   5.475   9.365  1.2723  0.0222 -0.7546
  560MOL0     H75586   0.266   5.684   9.352  0.5342 -2.4019 -4.0182
  560MOL0     H75587   0.368   5.890   9.480 -0.7615  2.9410  0.1122
  560MOL0     H75588   0.312   6.281   9.296  0.9452 -0.2931 -0.8387
  560MOL0     H75589   0.475   6.257   9.230 -0.3135  0.7234  0.1281
  560MOL0     H75590   0.450   6.459   9.348  0.4288 -2.1929 -2.0950
  560MOL0     H75591   0.558   6.362   9.437 -0.3064 -1.6877 -2.6577
  560MOL0     H75592   0.402   6.326   9.622 -1.3815  1.1910  0.0402
  560MOL0     H75593   0.263   6.327   9.520 -1.8194  2.0103 -0.0678
  560MOL0     H75594   0.263   6.571   9.487  0.2214 -0.8370 -1.1574
  560MOL0     H75595   0.250   6.521   9.660  0.5827  4.7664  1.7426
  560MOL0     H75596   0.607   6.728   9.665 -0.5216 -0.1441  0.4755
  560MOL0     H75597   0.372   6.113   9.119  0.1394  0.2459  1.4389
  560MOL0     H75598   0.309   6.048   8.930 -0.8053  0.2236 -0.4882
  560MOL0     H75599   0.297   5.879   8.882 -0.8597  2.6956 -3.1954
  560MOL0     H75600   0.161   5.969   8.956  0.3814  1.8224 -3.1912
  561MOL0     O75601   9.011   1.458   7.386 -0.2403 -0.4128 -0.3209
  561MOL0     C75602   8.958   1.394   7.297 -0.6248 -0.3763  0.1190
  561MOL0     O75603   9.002   1.389   7.166  0.2085 -0.4700 -0.3119
  561MOL0     C75604   9.128   1.435   7.136 -0.3419  0.2108  0.4616
  561MOL0     C75605   9.176   1.567   7.165  0.4510  0.7415  0.1561
  561MOL0     C75606   9.293   1.611   7.105 -0.0469  0.1123  0.6966
  561MOL0     C75607   9.360   1.529   7.016 -0.5703  0.1265  0.4065
  561MOL0     O75608   9.478   1.566   6.943 -0.7881 -0.1152  0.1630
  561MOL0     C75609   9.585   1.624   7.028  1.0081 -0.3919 -0.6015
  561MOL0     C75610   9.693   1.666   6.934 -0.3572 -1.0531 -0.0876
  561MOL0     C75611   9.768   1.538   6.893 -1.0655 -1.4362  0.9428
  561MOL0     C75612   9.892   1.594   6.820  0.2542 -0.5855 -0.7523
  561MOL0     C75613   9.964   1.472   6.754 -0.1009 -0.4080  0.3447
  561MOL0     C75614  10.098   1.517   6.704  0.4276  0.2522 -0.1951
  561MOL0     C75615  10.173   1.408   6.617  0.2548  0.7830  0.3019
  561MOL0     C75616  10.288   1.474   6.542  0.0390 -0.3512 -0.3214
  561MOL0     N75617  10.262   1.497   6.399 -0.6278  0.5873  0.5351
  561MOL0     C75618  10.259   1.398   6.301  0.6227  0.5302 -0.0501
  561MOL0     C75619  10.209   1.456   6.196  0.3345  0.1288 -0.2531
  561MOL0     C75620  10.190   1.383   6.067 -0.9407  0.4777  0.0484
  561MOL0     C75621  10.319   1.372   5.990 -0.3888 -0.1030 -0.4863
  561MOL0     C75622  10.380   1.507   5.945  0.3461  1.0373  0.4133
  561MOL0     C75623  10.508   1.474   5.873  0.3956 -0.2898 -1.2827
  561MOL0     O75624  10.607   1.442   5.968  0.2880 -0.1977 -0.4896
  561MOL0     C75625  10.737   1.432   5.922 -0.9843  0.4791 -0.0991
  561MOL0     C75626  10.830   1.406   6.018 -0.4597  0.7726 -0.1955
  561MOL0     C75627  10.964   1.386   5.986 -0.5168 -0.1274  0.0377
  561MOL0     C75628  11.012   1.402   5.853  0.4326  0.1239 -1.0929
  561MOL0     C75629  11.160   1.397   5.820  0.2476  0.0516  1.1018
  561MOL0     O75630  11.245   1.369   5.923 -0.2161 -0.0621  0.6357
  561MOL0     C75631  11.379   1.378   5.884  1.0877  0.3239 -0.5547
  561MOL0     C75632  11.448   1.257   5.886  0.0209 -0.4365  0.1646
  561MOL0     C75633  11.589   1.250   5.859 -0.0251  0.5389 -0.0525
  561MOL0     C75634  11.655   1.368   5.837 -0.0097 -0.8901  0.2186
  561MOL0     O75635  11.788   1.371   5.806  0.7651 -0.5356  0.9780
  561MOL0     C75636  11.858   1.483   5.865  0.0983  0.5482 -0.1226
  561MOL0     C75637  11.899   1.570   5.754 -0.9295 -0.0368  0.0056
  561MOL0     C75638  12.015   1.505   5.671 -0.4672 -0.3839 -0.0014
  561MOL0     C75639  12.038   1.566   5.531  0.4114 -0.2628 -0.1177
  561MOL0     C75640  12.155   1.498   5.462  0.0795  0.8258 -0.2164
  561MOL0     C75641  12.168   1.535   5.316 -0.1014 -0.0160  0.2627
  561MOL0     C75642  12.183   1.693   5.305  0.0801  0.7262 -0.4556
  561MOL0     C75643  12.234   1.731   5.171 -1.0505  0.0446 -0.2272
  561MOL0    Cl75644  12.119   1.678   5.052  0.1650 -0.0796  0.2271
  561MOL0     C75645  11.584   1.487   5.842 -0.8334  0.4714 -0.1079
  561MOL0     C75646  11.446   1.490   5.863  1.3539 -0.5117 -0.8715
  561MOL0     O75647  11.196   1.413   5.705  0.0068  0.2131 -0.0056
  561MOL0     C75648  10.914   1.428   5.754 -0.2537  0.9556 -0.0113
  561MOL0     C75649  10.784   1.445   5.794 -1.3599 -0.0927  0.1675
  561MOL0     N75650  10.197   1.590   6.230 -0.2584 -0.3055  0.0173
  561MOL0     N75651  10.220   1.616   6.358  0.1134  1.0423 -0.1832
  561MOL0     C75652   9.315   1.409   6.996 -0.4976  0.3474 -0.0914
  561MOL0     C75653   9.207   1.351   7.052  0.2578  0.0854  0.0519
  561MOL0     C75654   8.831   1.336   7.330 -0.3219  0.8989  0.5088
  561MOL0     C75655   8.736   1.325   7.234  0.0898 -0.0069 -0.4306
  561MOL0     C75656   8.607   1.287   7.258  0.6771  0.0921  0.4071
  561MOL0     C75657   8.579   1.216   7.379 -0.1889  0.5664  0.1618
  561MOL0     O75658   8.459   1.151   7.401 -0.4320 -0.1229 -1.0544
  561MOL0     C75659   8.351   1.136   7.306 -0.1860 -0.1533  0.2548
  561MOL0     C75660   8.233   1.225   7.336 -0.5443  1.2660 -0.1156
  561MOL0     C75661   8.198   1.215   7.490 -0.6783  0.6557  0.3342
  561MOL0     C75662   8.264   1.301   7.588  0.2210  0.0577  0.5812
  561MOL0     C75663   8.214   1.432   7.569 -0.6904 -0.1017  0.8125
  561MOL0     C75664   8.150   1.531   7.557 -0.2836 -0.2106  0.3813
  561MOL0     C75665   8.676   1.202   7.475 -0.0925  0.2601  0.3185
  561MOL0     C75666   8.801   1.264   7.455  0.0884  0.7932  0.0606
  561MOL0     C75667   8.908   1.243   7.567 -0.3593 -0.4649  0.1031
  561MOL0     H75668   9.116   1.633   7.227 -0.2745  1.5834 -1.3861
  561MOL0     H75669   9.320   1.715   7.118 -0.6752  0.5725 -1.4257
  561MOL0     H75670   9.551   1.717   7.075 -0.0095 -1.5301  0.9719
  561MOL0     H75671   9.622   1.560   7.108  0.8460  0.0424 -0.1716
  561MOL0     H75672   9.751   1.743   6.985  1.7830 -3.3303  1.1645
  561MOL0     H75673   9.657   1.724   6.848  1.2546  3.9891  2.2614
  561MOL0     H75674   9.713   1.464   6.834 -3.7090  1.6847 -0.8427
  561MOL0     H75675   9.791   1.483   6.985 -0.5525 -1.1524  0.9862
  561MOL0     H75676   9.878   1.666   6.739  1.2097  0.5465  0.0610
  561MOL0     H75677   9.948   1.642   6.901  1.2798 -0.6709 -1.3918
  561MOL0     H75678   9.979   1.384   6.817  0.2513  0.2379  1.1850
  561MOL0     H75679   9.900   1.444   6.670  1.1877 -1.7325 -0.2354
  561MOL0     H75680  10.082   1.599   6.634 -1.3252 -0.5553 -0.7981
  561MOL0     H75681  10.157   1.544   6.793  4.1073  0.3900 -2.4690
  561MOL0     H75682  10.114   1.364   6.536  0.3155 -1.4235  1.3805
  561MOL0     H75683  10.203   1.320   6.675  0.0927  0.7284  0.3016
  561MOL0     H75684  10.308   1.570   6.590 -1.2709  0.4785 -1.3446
  561MOL0     H75685  10.377   1.410   6.547  0.4906  0.0764 -2.0388
  561MOL0     H75686  10.268   1.291   6.310  0.5006  0.5994  0.9372
  561MOL0     H75687  10.147   1.285   6.086  0.0403 -0.1179 -0.7391
  561MOL0     H75688  10.116   1.435   6.005 -1.3057 -1.1689 -0.9680
  561MOL0     H75689  10.389   1.327   6.061 -0.0684  1.0283 -0.0564
  561MOL0     H75690  10.305   1.301   5.909  2.0950 -0.3798 -0.7475
  561MOL0     H75691  10.411   1.571   6.028 -0.2541 -0.0501  1.5149
  561MOL0     H75692  10.315   1.561   5.875  1.6957 -1.5282 -3.1600
  561MOL0     H75693  10.543   1.570   5.835  1.6964  0.1709  0.9256
  561MOL0     H75694  10.492   1.392   5.802 -2.0646 -1.0201 -0.0355
  561MOL0     H75695  10.804   1.381   6.120  0.9898  2.1918  0.5687
  561MOL0     H75696  11.037   1.358   6.061  2.1311  2.5371 -1.3060
  561MOL0     H75697  11.401   1.161   5.904 -1.5000  0.2701  0.0771
  561MOL0     H75698  11.638   1.155   5.840 -0.9408  0.5527 -2.9791
  561MOL0     H75699  11.800   1.532   5.944 -0.7022 -0.6911  0.0873
  561MOL0     H75700  11.938   1.436   5.924 -1.4084 -2.5372 -0.3215
  561MOL0     H75701  11.816   1.584   5.683  2.1120 -2.5510 -4.5417
  561MOL0     H75702  11.927   1.665   5.800  0.6268  0.4054 -1.7352
  561MOL0     H75703  12.112   1.517   5.720  0.2785  0.0728 -1.5532
  561MOL0     H75704  11.991   1.398   5.664  2.0298 -1.2387  2.4925
  561MOL0     H75705  12.053   1.674   5.543  1.6313 -0.3747 -0.5235
  561MOL0     H75706  11.950   1.558   5.466 -0.3311  0.0552  0.8330
  561MOL0     H75707  12.157   1.389   5.476 -1.0058  0.6411 -1.3558
  561MOL0     H75708  12.249   1.534   5.504  0.4669 -2.4961  2.1969
  561MOL0     H75709  12.259   1.481   5.289  1.0851  0.4502  3.0219
  561MOL0     H75710  12.081   1.508   5.256 -1.1748  1.7339  0.9573
  561MOL0     H75711  12.254   1.723   5.382 -0.8396  2.4549 -0.2389
  561MOL0     H75712  12.085   1.739   5.319 -0.8692 -0.6781 -2.0849
  561MOL0     H75713  12.250   1.838   5.152  1.8109 -0.4108 -0.9210
  561MOL0     H75714  12.334   1.693   5.145 -1.6257 -0.1877 -2.2857
  561MOL0     H75715  11.637   1.582   5.843  0.0753  0.0415  3.1888
  561MOL0     H75716  11.393   1.583   5.882  0.0836 -1.4880  0.6242
  561MOL0     H75717  10.931   1.443   5.648 -2.1160  2.7541 -0.1058
  561MOL0     H75718  10.720   1.468   5.709  3.2977  1.5428 -3.3015
  561MOL0     H75719   9.378   1.349   6.932  0.8108  2.5039 -0.9325
  561MOL0     H75720   9.184   1.246   7.037 -0.8180 -0.4315  3.9848
  561MOL0     H75721   8.749   1.366   7.134 -1.5177  0.4835 -0.4695
  561MOL0     H75722   8.535   1.290   7.176  1.8072  2.6426 -0.5967
  561MOL0     H75723   8.321   1.030   7.305 -1.1177  0.1030  0.2425
  561MOL0     H75724   8.385   1.159   7.205 -1.6107  2.8908  0.3554
  561MOL0     H75725   8.138   1.189   7.294 -0.4197 -1.7196  1.8938
  561MOL0     H75726   8.253   1.327   7.304  0.6110  0.4318 -2.2488
  561MOL0     H75727   8.209   1.114   7.530 -1.6539  0.1802 -0.5623
  561MOL0     H75728   8.090   1.230   7.489 -0.4939  2.1420 -0.8187
  561MOL0     H75729   8.242   1.268   7.690 -2.5538  1.0990  0.3955
  561MOL0     H75730   8.373   1.305   7.576  0.1326  0.2947 -0.2308
  561MOL0     H75731   8.109   1.628   7.540 -1.5223 -0.7092  0.3821
  561MOL0     H75732   8.664   1.153   7.571 -2.8557  0.7207  0.2933
  561MOL0     H75733   8.936   1.333   7.623  0.1439 -0.9694  0.6694
  561MOL0     H75734   8.891   1.159   7.635  2.7558 -1.5291 -0.2856
  561MOL0     H75735   9.000   1.214   7.516  0.9999 -0.7774  2.5951
  562MOL0     O75736   9.538  10.010   7.329 -0.3019 -0.3424 -0.0112
  562MOL0     C75737   9.568  10.004   7.448  0.3709  0.2315 -0.1908
  562MOL0     O75738   9.688  10.036   7.511 -0.3599 -0.4952 -0.0215
  562MOL0     C75739   9.792  10.113   7.464  0.1885  0.0177 -0.3408
  562MOL0     C75740   9.806  10.184   7.343  0.0710 -1.0415 -0.1009
  562MOL0     C75741   9.915  10.272   7.325 -0.3371  0.0491 -0.3981
  562MOL0     C75742  10.024  10.264   7.409 -0.8896 -1.3686 -0.4808
  562MOL0     O75743  10.137  10.346   7.370  0.4224  0.4601 -0.0302
  562MOL0     C75744  10.183  10.442   7.462  0.6071  0.7343  0.4006
  562MOL0     C75745  10.292  10.521   7.410  0.2063 -0.2228  0.2216
  562MOL0     C75746  10.345  10.637   7.508  0.0882  0.2963  0.6731
  562MOL0     C75747  10.379  10.763   7.420 -0.4813  0.3222  0.4926
  562MOL0     C75748  10.263  10.832   7.342  0.0999 -1.1125 -0.3049
  562MOL0     C75749  10.167  10.914   7.429  0.0768 -0.8157 -1.1068
  562MOL0     C75750  10.038  10.837   7.479  0.9028  0.9469  0.5241
  562MOL0     C75751   9.979  10.891   7.608 -1.1336 -0.6047 -0.1146
  562MOL0     N75752   9.887  10.795   7.669  0.7360  0.3269 -0.1087
  562MOL0     C75753   9.920  10.663   7.694 -0.3671 -0.0104 -0.3689
  562MOL0     C75754   9.801  10.597   7.698  0.4191 -0.3105  0.4928
  562MOL0     C75755   9.795  10.452   7.725 -0.8518  0.7414  0.1413
  562MOL0     C75756   9.664  10.396   7.759 -0.9861 -0.0140 -0.0636
  562MOL0     C75757   9.561  10.401   7.642 -1.0816 -0.5647  0.1198
  562MOL0     C75758   9.430  10.330   7.665 -0.4454 -0.4004 -0.1117
  562MOL0     O75759   9.377  10.415   7.775 -0.2942  0.5238 -0.0162
  562MOL0     C75760   9.271  10.350   7.840 -1.1712 -0.3479 -0.2396
  562MOL0     C75761   9.236  10.215   7.840 -0.6712 -1.7142 -0.6994
  562MOL0     C75762   9.126  10.161   7.921  0.0005 -0.9946  0.4010
  562MOL0     C75763   9.054  10.254   8.003 -0.6390  0.5964 -0.4415
  562MOL0     C75764   8.957  10.202   8.104 -0.1501 -0.6410 -0.5951
  562MOL0     O75765   8.979  10.079   8.161 -0.0471 -0.0101 -0.0493
  562MOL0     C75766   8.931  10.060   8.284 -0.6745 -0.2766 -0.4626
  562MOL0     C75767   8.853   9.950   8.313  0.1328 -0.4595  0.2552
  562MOL0     C75768   8.810   9.921   8.447 -0.2025  0.3304  0.3560
  562MOL0     C75769   8.849  10.003   8.558 -0.7626  0.3309 -0.5636
  562MOL0     O75770   8.837   9.968   8.692  0.1223  0.0857  0.7005
  562MOL0     C75771   8.785   9.842   8.724 -0.0429  0.9790  0.0043
  562MOL0     C75772   8.816   9.801   8.866 -0.1664 -0.3007 -0.4012
  562MOL0     C75773   8.705   9.710   8.920 -0.4351  0.1355  0.5467
  562MOL0     C75774   8.767   9.637   9.046  0.4022  0.5198  0.6350
  562MOL0     C75775   8.669   9.530   9.105 -0.3027 -0.1129 -0.2275
  562MOL0     C75776   8.530   9.583   9.138  0.0380  0.1446 -0.2052
  562MOL0     C75777   8.447   9.503   9.240  1.0699 -0.3607  0.2542
  562MOL0     C75778   8.430   9.353   9.205 -0.7857 -0.3714 -0.7711
  562MOL0    Cl75779   8.333   9.343   9.061 -0.4066  0.1063 -0.1908
  562MOL0     C75780   8.912  10.120   8.526 -0.0482  0.0383 -0.4333
  562MOL0     C75781   8.953  10.150   8.390  0.7376 -0.4366 -0.1082
  562MOL0     O75782   8.879  10.291   8.148 -0.1535  0.7422 -0.2695
  562MOL0     C75783   9.092  10.391   7.992  0.4777 -0.0772  0.0529
  562MOL0     C75784   9.197  10.441   7.917  0.3868 -0.4942 -1.1823
  562MOL0     N75785   9.700  10.692   7.688  0.6267  0.4415 -0.0503
  562MOL0     N75786   9.750  10.810   7.679 -0.0797 -0.7001  0.3026
  562MOL0     C75787  10.015  10.187   7.525 -0.1907 -0.6002 -1.3484
  562MOL0     C75788   9.895  10.127   7.557  0.3058  0.0458  0.6710
  562MOL0     C75789   9.469   9.937   7.541 -0.4105  0.3064 -0.0691
  562MOL0     C75790   9.527   9.884   7.661 -0.1253 -0.7314  0.0839
  562MOL0     C75791   9.449   9.833   7.766  0.2048  0.7134 -0.4071
  562MOL0     C75792   9.307   9.836   7.751  0.6276 -0.2128  0.4450
  562MOL0     O75793   9.219   9.781   7.841 -0.1896 -0.5864 -0.2364
  562MOL0     C75794   9.272   9.695   7.949  0.1151 -0.2091 -0.1131
  562MOL0     C75795   9.167   9.617   8.034 -0.1754 -0.0834 -0.3068
  562MOL0     C75796   9.229   9.503   8.122 -0.1135  0.2709 -0.6663
  562MOL0     C75797   9.148   9.436   8.234 -0.9534  0.0910  0.1645
  562MOL0     C75798   9.056   9.348   8.163  0.1232  0.2738 -0.2042
  562MOL0     C75799   8.962   9.280   8.130 -0.1897  0.2208  0.3403
  562MOL0     C75800   9.249   9.875   7.625  0.4211 -0.6693 -0.2347
  562MOL0     C75801   9.328   9.930   7.529 -0.1335 -0.3560  0.0460
  562MOL0     C75802   9.262  10.007   7.419 -0.0530  0.5671 -0.3500
  562MOL0     H75803   9.730  10.166   7.267  0.3103  0.7365 -0.8113
  562MOL0     H75804   9.922  10.337   7.239 -0.1900  1.2777  0.5023
  562MOL0     H75805  10.095  10.502   7.488  0.2853  0.8291 -0.8352
  562MOL0     H75806  10.198  10.395   7.559 -0.2790 -1.1063 -0.3173
  562MOL0     H75807  10.246  10.569   7.324 -0.9333  0.9715  1.4420
  562MOL0     H75808  10.378  10.455   7.393  1.5363  1.4401  0.2302
  562MOL0     H75809  10.441  10.614   7.555 -0.3868  2.4182  2.9217
  562MOL0     H75810  10.275  10.658   7.589  1.1349  1.6465  1.2542
  562MOL0     H75811  10.419  10.845   7.481 -0.2432  1.2813 -0.9039
  562MOL0     H75812  10.457  10.732   7.350 -0.8289 -0.5026  0.4621
  562MOL0     H75813  10.310  10.910   7.283 -2.0361  1.5289  1.2254
  562MOL0     H75814  10.207  10.765   7.276 -1.2740 -1.0701  0.7694
  562MOL0     H75815  10.225  10.966   7.506  0.9226 -1.5473 -1.2377
  562MOL0     H75816  10.119  10.994   7.371  0.2539  1.3144  1.4774
  562MOL0     H75817  10.073  10.735   7.496 -2.5625 -0.6585 -1.0388
  562MOL0     H75818   9.960  10.843   7.403 -0.3415  0.4605  1.7133
  562MOL0     H75819  10.063  10.917   7.673 -0.2226 -0.7183 -1.2253
  562MOL0     H75820   9.916  10.979   7.590  0.6060  0.4068 -1.5239
  562MOL0     H75821  10.021  10.625   7.696 -0.4558 -0.4051  2.9120
  562MOL0     H75822   9.832  10.412   7.630  1.0311  0.5065  0.9312
  562MOL0     H75823   9.872  10.411   7.791  2.9921 -1.2138 -4.8894
  562MOL0     H75824   9.682  10.289   7.776 -2.7635 -0.7961 -2.4512
  562MOL0     H75825   9.636  10.443   7.854  0.5058  0.5416  0.1173
  562MOL0     H75826   9.613  10.362   7.554 -0.5354  1.5889 -0.5503
  562MOL0     H75827   9.536  10.505   7.620  0.5036 -0.2452 -0.3210
  562MOL0     H75828   9.452  10.230   7.705 -1.0877  0.1797  1.8026
  562MOL0     H75829   9.354  10.318   7.588 -0.7839 -2.1004  0.4328
  562MOL0     H75830   9.275  10.147   7.765  0.8849  0.7545 -2.2609
  562MOL0     H75831   9.109  10.054   7.932 -1.2234 -0.7259  1.2286
  562MOL0     H75832   8.844   9.879   8.232 -0.5147 -2.1098  1.7040
  562MOL0     H75833   8.771   9.821   8.464  1.0148 -0.3561 -0.7743
  562MOL0     H75834   8.676   9.850   8.712 -0.3889 -1.5991  0.7902
  562MOL0     H75835   8.815   9.761   8.656 -3.0842  0.3857 -0.8316
  562MOL0     H75836   8.919   9.764   8.867  0.4267  1.2544  0.8791
  562MOL0     H75837   8.820   9.882   8.939 -1.8400  0.9019 -1.5561
  562MOL0     H75838   8.627   9.783   8.944  0.1556  1.4115 -1.1732
  562MOL0     H75839   8.674   9.627   8.855  2.3834 -2.2635  2.0173
  562MOL0     H75840   8.802   9.710   9.119 -0.7958  1.4443  0.3221
  562MOL0     H75841   8.854   9.584   9.005  1.1676  0.3213  2.4512
  562MOL0     H75842   8.716   9.493   9.196 -2.1316 -1.0426  0.3968
  562MOL0     H75843   8.658   9.451   9.031 -1.6829 -0.6862  0.5530
  562MOL0     H75844   8.533   9.681   9.185 -0.8525 -0.0958  0.3983
  562MOL0     H75845   8.479   9.594   9.042  0.7431 -1.2226 -0.7586
  562MOL0     H75846   8.348   9.550   9.245  1.4928  0.5381  0.4089
  562MOL0     H75847   8.498   9.515   9.336  1.7584  3.4080 -0.4313
  562MOL0     H75848   8.526   9.305   9.188 -1.2041 -0.8328 -1.9610
  562MOL0     H75849   8.385   9.305   9.292 -0.0379 -1.2781 -0.8721
  562MOL0     H75850   8.947  10.194   8.598  2.2535 -1.8146  0.4801
  562MOL0     H75851   9.000  10.248   8.380  1.4821 -0.8754 -1.0431
  562MOL0     H75852   9.044  10.457   8.064  0.7425  1.7399 -1.3636
  562MOL0     H75853   9.206  10.549   7.911  2.1419 -0.3918  1.4439
  562MOL0     H75854  10.098  10.167   7.592  0.7177  1.0876 -1.9026
  562MOL0     H75855   9.887  10.081   7.656 -4.2867 -0.0041  0.4933
  562MOL0     H75856   9.634   9.900   7.669 -0.4618  3.0265 -0.9690
  562MOL0     H75857   9.500   9.801   7.857  0.3651  0.8686 -0.4423
  562MOL0     H75858   9.331   9.758   8.016 -0.7880  1.3758 -0.7528
  562MOL0     H75859   9.354   9.632   7.913 -0.3532 -1.4608  0.9111
  562MOL0     H75860   9.082   9.585   7.973 -0.7088  0.3986  0.1702
  562MOL0     H75861   9.122   9.694   8.097 -0.7726 -1.1219  0.5614
  562MOL0     H75862   9.319   9.538   8.173 -0.5802 -0.7476  0.9030
  562MOL0     H75863   9.261   9.417   8.062 -0.5537  0.8026 -1.6935
  562MOL0     H75864   9.207   9.369   8.297 -0.5539  2.0587  2.0132
  562MOL0     H75865   9.098   9.510   8.298  0.4619  0.2650  1.1191
  562MOL0     H75866   8.886   9.205   8.130 -0.2062  0.2105  2.0257
  562MOL0     H75867   9.140   9.877   7.630  0.4541 -2.0074  2.9135
  562MOL0     H75868   9.154  10.010   7.440  0.3854  0.0055  2.2028
  562MOL0     H75869   9.305  10.106   7.400  0.3464  0.4864  0.1494
  562MOL0     H75870   9.269   9.959   7.321  0.2460 -2.4022  1.0150
  563MOL0     O75871   4.376  11.145   3.201  0.4632  0.2754  0.0747
  563MOL0     C75872   4.379  11.148   3.074 -0.1564  0.3487 -0.9264
  563MOL0     O75873   4.279  11.201   2.990  0.4308 -0.2972 -0.4835
  563MOL0     C75874   4.149  11.184   3.030  0.0045  0.4906  0.8994
  563MOL0     C75875   4.058  11.283   2.989  0.1170  0.4472  0.2887
  563MOL0     C75876   3.924  11.270   3.013 -0.2309 -0.2474  0.6037
  563MOL0     C75877   3.868  11.160   3.082  0.0230  0.3942  0.1348
  563MOL0     O75878   3.741  11.145   3.118  0.5852 -0.2091  0.6367
  563MOL0     C75879   3.637  11.194   3.027 -0.1242 -0.1008 -0.7978
  563MOL0     C75880   3.495  11.196   3.096 -0.4163  1.1309 -0.2695
  563MOL0     C75881   3.455  11.053   3.134  0.4464 -0.4581 -0.4068
  563MOL0     C75882   3.331  11.066   3.230 -0.0051 -0.0880  0.1564
  563MOL0     C75883   3.266  10.934   3.280  0.2299 -0.3154 -0.0467
  563MOL0     C75884   3.352  10.838   3.361 -0.5982 -0.8051 -0.0851
  563MOL0     C75885   3.281  10.706   3.412 -0.6618  0.3590 -0.1143
  563MOL0     C75886   3.214  10.637   3.295  0.8613 -1.0195 -0.8687
  563MOL0     N75887   3.316  10.582   3.196 -0.1368  0.2988  0.1252
  563MOL0     C75888   3.433  10.517   3.237  0.4972 -0.1512  0.7898
  563MOL0     C75889   3.510  10.507   3.130  0.8255 -0.1482  1.8397
  563MOL0     C75890   3.643  10.444   3.131 -1.0795  0.5961  0.4803
  563MOL0     C75891   3.739  10.501   3.234 -0.2098 -0.4668 -0.4974
  563MOL0     C75892   3.743  10.658   3.225 -1.4262 -0.8563  0.7131
  563MOL0     C75893   3.896  10.693   3.256 -0.7937  0.3603  0.5721
  563MOL0     O75894   3.977  10.639   3.150 -0.3434 -0.1446 -1.0096
  563MOL0     C75895   4.112  10.607   3.186  0.6969  0.3463  0.9683
  563MOL0     C75896   4.143  10.479   3.148  0.5485 -1.1634  0.9698
  563MOL0     C75897   4.273  10.441   3.157  0.0514 -0.2785  0.1756
  563MOL0     C75898   4.373  10.522   3.226 -0.3606 -0.2921 -0.1112
  563MOL0     C75899   4.521  10.486   3.232  0.4070 -0.5830  0.1385
  563MOL0     O75900   4.608  10.585   3.260  0.1393 -0.1215 -0.4916
  563MOL0     C75901   4.743  10.556   3.274 -0.3376 -0.3417 -0.7057
  563MOL0     C75902   4.817  10.492   3.176 -0.6565  0.3012  0.1457
  563MOL0     C75903   4.953  10.455   3.196  0.1214  0.7086 -0.5502
  563MOL0     C75904   5.009  10.477   3.319  0.3193  0.4837 -0.5027
  563MOL0     O75905   5.142  10.439   3.336  0.2178  0.0935 -0.0450
  563MOL0     C75906   5.230  10.390   3.234 -0.3931  0.5362  1.3695
  563MOL0     C75907   5.380  10.390   3.293 -0.1695 -0.7007  1.0316
  563MOL0     C75908   5.410  10.292   3.414  0.4478  0.7311 -0.2153
  563MOL0     C75909   5.555  10.298   3.461 -0.0129 -0.4141 -0.5275
  563MOL0     C75910   5.601  10.444   3.511 -0.2813  0.6608 -0.9796
  563MOL0     C75911   5.729  10.443   3.590  0.2662  0.1075 -0.2676
  563MOL0     C75912   5.834  10.356   3.521  1.1130  0.6151  0.4131
  563MOL0     C75913   5.972  10.363   3.584  0.4581  0.5469  0.5193
  563MOL0    Cl75914   6.030  10.539   3.571 -0.0165 -0.1599  0.1701
  563MOL0     C75915   4.935  10.542   3.415 -0.5617  0.0579  0.0561
  563MOL0     C75916   4.808  10.597   3.394  0.5357  1.2101 -0.6974
  563MOL0     O75917   4.540  10.372   3.191 -0.7432  0.2151  0.0974
  563MOL0     C75918   4.333  10.654   3.266  0.5068  0.6928  0.1417
  563MOL0     C75919   4.200  10.694   3.248 -0.7414  0.3500 -0.0363
  563MOL0     N75920   3.441  10.569   3.030  0.6344 -0.2965  0.2342
  563MOL0     N75921   3.326  10.624   3.065  0.3107 -0.4445  0.3037
  563MOL0     C75922   3.963  11.059   3.117 -0.0372  0.6492 -0.0792
  563MOL0     C75923   4.097  11.069   3.089 -0.0670  0.1817 -0.9471
  563MOL0     C75924   4.515  11.118   3.009 -0.7852 -0.3073 -0.1453
  563MOL0     C75925   4.559  11.197   2.901 -0.4592 -0.2297  0.4759
  563MOL0     C75926   4.679  11.178   2.838 -0.3947  0.2805 -0.1517
  563MOL0     C75927   4.760  11.069   2.871  0.1035  0.3298  0.5811
  563MOL0     O75928   4.876  11.046   2.812  0.2028 -0.6219 -0.4287
  563MOL0     C75929   4.907  10.917   2.766 -0.2062  0.4187 -0.5538
  563MOL0     C75930   5.010  10.932   2.657  0.9975 -0.9824 -0.6009
  563MOL0     C75931   5.137  11.001   2.713 -0.0866 -0.6493  0.5457
  563MOL0     C75932   5.259  10.967   2.619 -0.6605  0.2008 -0.0523
  563MOL0     C75933   5.228  11.033   2.489 -0.2935 -0.8514  0.0913
  563MOL0     C75934   5.200  11.111   2.394 -0.4167  0.1999  0.2928
  563MOL0     C75935   4.724  10.994   2.983  0.5795  0.6426  0.3771
  563MOL0     C75936   4.611  11.021   3.063  1.1856 -0.5011  0.0386
  563MOL0     C75937   4.580  10.931   3.187 -0.6111  0.3711 -0.0488
  563MOL0     H75938   4.086  11.375   2.938 -1.7930  0.7939 -0.2143
  563MOL0     H75939   3.852  11.349   2.993  0.8590  1.1279  1.8391
  563MOL0     H75940   3.658  11.286   2.973 -3.1576  1.1544 -0.0546
  563MOL0     H75941   3.626  11.122   2.945  1.3420 -1.8250  0.4390
  563MOL0     H75942   3.420  11.215   3.019 -1.2197 -0.9892 -0.0883
  563MOL0     H75943   3.479  11.264   3.179 -1.5077  0.0874  0.4156
  563MOL0     H75944   3.532  10.995   3.184  0.6945  1.1359  1.1772
  563MOL0     H75945   3.403  11.008   3.049 -0.8228  2.6232 -1.4132
  563MOL0     H75946   3.376  11.125   3.311  3.4208 -4.2042  1.6370
  563MOL0     H75947   3.253  11.132   3.192  0.6052 -0.2225 -1.4222
  563MOL0     H75948   3.182  10.966   3.343  1.9313  3.4188  0.5846
  563MOL0     H75949   3.231  10.886   3.188 -1.0266  0.0481  0.2157
  563MOL0     H75950   3.440  10.812   3.302  0.4130 -2.2863  1.9557
  563MOL0     H75951   3.393  10.894   3.445 -1.6524 -1.5948  0.9950
  563MOL0     H75952   3.205  10.730   3.487 -2.2330 -1.5496 -1.0099
  563MOL0     H75953   3.362  10.650   3.459  0.3272 -0.2702 -2.4627
  563MOL0     H75954   3.156  10.550   3.329 -2.1251  1.2000  0.1172
  563MOL0     H75955   3.144  10.709   3.252 -0.4954 -1.2984  0.7578
  563MOL0     H75956   3.459  10.465   3.329 -1.3021 -0.2905  1.2578
  563MOL0     H75957   3.641  10.335   3.141  1.5463  0.3485 -0.8150
  563MOL0     H75958   3.687  10.472   3.035  1.5097  0.9171  1.6814
  563MOL0     H75959   3.697  10.466   3.328  1.0449  3.1387  1.6339
  563MOL0     H75960   3.841  10.463   3.221  1.4188  2.2835  2.6598
  563MOL0     H75961   3.688  10.712   3.303  0.6675 -0.2944  1.8840
  563MOL0     H75962   3.721  10.697   3.126 -0.0967 -0.4166  0.5671
  563MOL0     H75963   3.931  10.669   3.357  1.6318 -2.2612 -0.7469
  563MOL0     H75964   3.907  10.801   3.246 -0.6586  0.4273  1.3289
  563MOL0     H75965   4.071  10.408   3.107 -0.8242  0.6988  0.0094
  563MOL0     H75966   4.305  10.341   3.130 -0.1000 -0.0683 -0.8312
  563MOL0     H75967   4.762  10.472   3.085 -0.3754  0.5898 -0.0861
  563MOL0     H75968   4.999  10.388   3.124 -1.6197 -0.2082 -0.8567
  563MOL0     H75969   5.196  10.293   3.198  0.7408  0.4851  0.3544
  563MOL0     H75970   5.228  10.464   3.153 -1.1228 -1.8453 -0.9092
  563MOL0     H75971   5.435  10.340   3.213 -4.6004 -2.1481 -1.4778
  563MOL0     H75972   5.406  10.494   3.314 -0.5918 -0.3428 -0.1286
  563MOL0     H75973   5.341  10.308   3.497  2.2683 -0.3834  1.6164
  563MOL0     H75974   5.401  10.186   3.388 -3.6579  1.1558 -1.1331
  563MOL0     H75975   5.618  10.273   3.374 -0.5864  0.0849 -1.0962
  563MOL0     H75976   5.573  10.228   3.543  1.2491  0.9720  0.4416
  563MOL0     H75977   5.518  10.479   3.574  0.3007  1.3889 -0.5985
  563MOL0     H75978   5.601  10.516   3.428  0.2880  0.9066 -0.7717
  563MOL0     H75979   5.769  10.545   3.591  1.6009 -0.3246  2.6493
  563MOL0     H75980   5.709  10.416   3.695 -1.1480  0.1172 -0.5180
  563MOL0     H75981   5.841  10.386   3.416  0.5834 -0.9482 -0.0995
  563MOL0     H75982   5.817  10.248   3.527  2.7027  0.3592  0.9215
  563MOL0     H75983   5.969  10.330   3.688  0.0761 -0.8915  0.0706
  563MOL0     H75984   6.038  10.298   3.526  0.7933  3.4677 -2.7338
  563MOL0     H75985   4.987  10.540   3.510  2.8144 -0.3986 -1.6154
  563MOL0     H75986   4.752  10.645   3.474  0.6264  1.6253 -0.8805
  563MOL0     H75987   4.413  10.715   3.307  0.9199 -1.0652  2.1581
  563MOL0     H75988   4.179  10.799   3.264  3.4758  1.5139 -0.7977
  563MOL0     H75989   3.937  10.973   3.178 -1.9651  0.5548 -0.9554
  563MOL0     H75990   4.161  10.985   3.115  0.4948  0.9962  0.4377
  563MOL0     H75991   4.497  11.282   2.874 -1.1217 -0.2428  1.8724
  563MOL0     H75992   4.712  11.254   2.768 -1.8162 -0.6267 -1.9004
  563MOL0     H75993   4.828  10.869   2.708 -0.0282  2.2540 -2.4264
  563MOL0     H75994   4.957  10.856   2.842  0.1266 -0.9373 -1.8194
  563MOL0     H75995   4.972  10.994   2.575 -0.5308 -1.4961 -0.3177
  563MOL0     H75996   5.045  10.835   2.620  0.6357 -1.6959  0.8400
  563MOL0     H75997   5.158  10.975   2.818  1.1529  1.0557  0.7601
  563MOL0     H75998   5.120  11.109   2.712  0.6893 -0.5150 -1.0274
  563MOL0     H75999   5.354  11.017   2.638 -0.1414 -0.3467 -1.1046
  563MOL0     H76000   5.284  10.861   2.607 -2.6199 -0.6030  2.0187
  563MOL0     H76001   5.186  11.191   2.324 -0.0865 -2.7002 -3.4044
  563MOL0     H76002   4.792  10.914   3.011 -1.8605 -1.2929  1.2208
  563MOL0     H76003   4.489  10.870   3.189 -0.0035 -0.5371  0.6682
  563MOL0     H76004   4.667  10.865   3.200  0.0039  0.8001 -1.7245
  563MOL0     H76005   4.578  10.998   3.272 -1.1132  0.3831 -0.0712
  564MOL0     O76006   0.706   7.595   4.770 -0.7890  0.1093 -0.5592
  564MOL0     C76007   0.618   7.552   4.694 -0.0464 -0.4626  0.3952
  564MOL0     O76008   0.632   7.512   4.559 -0.8450 -0.0028 -0.2482
  564MOL0     C76009   0.757   7.540   4.508 -0.3078  0.2187  0.4046
  564MOL0     C76010   0.787   7.674   4.464  0.6217 -0.4953 -0.1870
  564MOL0     C76011   0.911   7.701   4.400 -0.6912  0.0247 -0.9245
  564MOL0     C76012   1.001   7.601   4.382 -0.7431  0.3900 -0.1789
  564MOL0     O76013   1.124   7.626   4.318 -0.5325  0.2048  0.3019
  564MOL0     C76014   1.211   7.709   4.391 -0.2404 -0.6097 -0.6946
  564MOL0     C76015   1.357   7.664   4.365  1.2013  0.3724 -0.1738
  564MOL0     C76016   1.391   7.540   4.451  0.6670 -0.1754 -0.3829
  564MOL0     C76017   1.501   7.459   4.378  0.0937 -0.4380 -0.0723
  564MOL0     C76018   1.639   7.530   4.375 -0.5271  0.7300 -0.5574
  564MOL0     C76019   1.747   7.434   4.368  0.2763 -0.8560  0.2487
  564MOL0     C76020   1.880   7.515   4.355  0.1491 -0.5389  0.0187
  564MOL0     C76021   2.006   7.425   4.362  0.2757 -0.3491  0.8691
  564MOL0     N76022   1.997   7.327   4.245 -0.0378  0.2240  0.4401
  564MOL0     C76023   2.053   7.359   4.125  0.0793  0.4737  0.5847
  564MOL0     C76024   2.000   7.268   4.039 -0.1765 -0.1765  0.5208
  564MOL0     C76025   2.035   7.255   3.891 -0.0492  0.2714  0.1353
  564MOL0     C76026   2.185   7.280   3.858  0.6111 -0.3660 -0.7454
  564MOL0     C76027   2.295   7.225   3.943 -0.2124 -0.6392  0.0756
  564MOL0     C76028   2.434   7.226   3.893 -0.3293  0.2309  1.0631
  564MOL0     O76029   2.476   7.361   3.885  0.2300 -0.4087  0.2669
  564MOL0     C76030   2.600   7.389   3.849 -0.3526 -0.6300  0.8976
  564MOL0     C76031   2.698   7.291   3.827  0.8868  0.1187  0.9057
  564MOL0     C76032   2.826   7.333   3.774 -0.1487 -0.0199  0.2520
  564MOL0     C76033   2.857   7.470   3.757  0.5955 -0.1609  0.2046
  564MOL0     C76034   2.984   7.511   3.711  0.9685  0.6129 -0.1201
  564MOL0     O76035   3.072   7.413   3.699  0.1015 -0.6007 -0.2607
  564MOL0     C76036   3.203   7.448   3.705  0.2477  0.3309  1.0286
  564MOL0     C76037   3.301   7.359   3.653 -0.3918 -1.1872  0.2722
  564MOL0     C76038   3.433   7.389   3.635 -0.3774 -0.4027  0.3917
  564MOL0     C76039   3.489   7.507   3.691  0.2746  0.3105  0.1753
  564MOL0     O76040   3.619   7.546   3.686  0.4629  0.3939 -0.3267
  564MOL0     C76041   3.709   7.449   3.638  0.1237 -0.4151 -0.0935
  564MOL0     C76042   3.859   7.483   3.667 -0.1587  0.8152 -0.0192
  564MOL0     C76043   3.888   7.555   3.805 -0.2217  0.4641 -0.3341
  564MOL0     C76044   4.040   7.543   3.840 -0.0408 -0.3496  0.3655
  564MOL0     C76045   4.079   7.599   3.971  0.5686  0.3454  0.1322
  564MOL0     C76046   4.052   7.746   3.998  0.2301 -0.0486 -0.7118
  564MOL0     C76047   4.145   7.840   3.903 -0.0828 -0.1412  0.9407
  564MOL0     C76048   4.243   7.946   3.970 -0.0126  0.3221  1.4012
  564MOL0    Cl76049   4.368   7.867   4.070  0.4307 -0.3632  0.0301
  564MOL0     C76050   3.395   7.592   3.757 -0.4403 -0.4635 -0.2699
  564MOL0     C76051   3.258   7.560   3.774 -0.4099  0.2113 -0.5438
  564MOL0     O76052   2.999   7.627   3.674 -0.4295  0.3387 -0.5675
  564MOL0     C76053   2.760   7.562   3.793  0.1802 -0.7145 -0.0977
  564MOL0     C76054   2.629   7.527   3.825 -0.8061 -0.6557 -1.2905
  564MOL0     N76055   1.907   7.195   4.104 -0.2438  0.8593 -0.1813
  564MOL0     N76056   1.906   7.231   4.227  0.6349  0.4051 -0.2815
  564MOL0     C76057   0.969   7.472   4.420 -0.5089  0.3369 -0.3663
  564MOL0     C76058   0.850   7.438   4.485 -1.2609 -0.3333  0.8780
  564MOL0     C76059   0.475   7.529   4.742  0.1584 -0.4703  0.7600
  564MOL0     C76060   0.408   7.423   4.688  0.6598  0.0796 -0.0987
  564MOL0     C76061   0.281   7.390   4.742 -0.4287 -0.4061 -0.3245
  564MOL0     C76062   0.223   7.458   4.847 -0.1100 -0.4546  0.3728
  564MOL0     O76063   0.093   7.426   4.894 -0.1353  0.0677 -0.6325
  564MOL0     C76064   0.029   7.301   4.849 -0.5749  0.6228  0.1449
  564MOL0     C76065  -0.075   7.262   4.959 -0.4091 -0.2704 -0.5208
  564MOL0     C76066  -0.147   7.138   4.923  0.4483  0.2648 -0.4181
  564MOL0     C76067  -0.071   7.012   4.882 -0.1947  0.5785 -0.7719
  564MOL0     C76068   0.017   6.982   4.998  0.0546  0.2302  0.1641
  564MOL0     C76069   0.095   6.939   5.080 -0.8303  0.5748  0.2016
  564MOL0     C76070   0.294   7.560   4.906 -0.2061 -0.3928 -0.1737
  564MOL0     C76071   0.417   7.601   4.853  0.6502  0.4584  0.0306
  564MOL0     C76072   0.483   7.720   4.920  0.1470 -0.3182  0.3591
  564MOL0     H76073   0.710   7.750   4.466 -0.6970 -1.7490  1.6963
  564MOL0     H76074   0.915   7.806   4.376 -1.9863 -0.2409 -2.4845
  564MOL0     H76075   1.196   7.810   4.352 -0.3404  0.2756  1.4725
  564MOL0     H76076   1.189   7.702   4.498 -3.0752 -0.9951 -1.2329
  564MOL0     H76077   1.418   7.749   4.397  0.1973  1.1141 -0.1874
  564MOL0     H76078   1.363   7.642   4.258 -0.3007 -1.0121 -0.0142
  564MOL0     H76079   1.306   7.472   4.464  1.9434 -1.8944 -0.6066
  564MOL0     H76080   1.421   7.564   4.554  1.3637  3.4048 -1.2851
  564MOL0     H76081   1.509   7.360   4.423  3.3421 -0.4199 -0.3636
  564MOL0     H76082   1.475   7.448   4.272 -0.2215  3.3595 -0.5309
  564MOL0     H76083   1.646   7.595   4.287  0.5746  1.4396  0.0385
  564MOL0     H76084   1.643   7.586   4.469 -3.1135 -1.7515  1.2026
  564MOL0     H76085   1.745   7.385   4.466 -0.2690 -3.2265 -0.8917
  564MOL0     H76086   1.736   7.369   4.281  0.8525  1.8076 -1.9499
  564MOL0     H76087   1.893   7.583   4.441 -1.7052  0.5119 -0.4779
  564MOL0     H76088   1.869   7.575   4.264  0.7672 -1.6076 -0.7827
  564MOL0     H76089   2.080   7.505   4.364 -1.3709  1.2580  1.7441
  564MOL0     H76090   2.006   7.362   4.451  2.5943  0.9053  1.8284
  564MOL0     H76091   2.128   7.437   4.115  1.1879 -0.5968  0.2650
  564MOL0     H76092   2.026   7.149   3.866  5.5893 -1.4473  3.5632
  564MOL0     H76093   1.978   7.315   3.820  1.7945 -1.1101 -2.7161
  564MOL0     H76094   2.203   7.237   3.759 -1.3598  2.3465 -2.4476
  564MOL0     H76095   2.196   7.388   3.848 -3.7059  0.1382 -2.3417
  564MOL0     H76096   2.281   7.122   3.976  0.6121 -0.9675 -0.5761
  564MOL0     H76097   2.290   7.282   4.037  0.3161  1.4603 -1.1069
  564MOL0     H76098   2.427   7.187   3.791 -1.9799  3.0443  0.0078
  564MOL0     H76099   2.504   7.174   3.959 -1.3276 -1.7024  0.6738
  564MOL0     H76100   2.674   7.190   3.859 -1.3764  0.5527  0.7121
  564MOL0     H76101   2.890   7.253   3.739 -2.0624 -0.5133 -2.3736
  564MOL0     H76102   3.273   7.264   3.609 -0.8317 -0.8180 -0.2513
  564MOL0     H76103   3.491   7.313   3.583 -0.7874 -0.0080 -0.6886
  564MOL0     H76104   3.699   7.349   3.681 -0.8885 -0.2690  0.0162
  564MOL0     H76105   3.695   7.444   3.530 -0.3670  2.2595 -0.2176
  564MOL0     H76106   3.918   7.393   3.652 -1.3819  0.2875 -1.9426
  564MOL0     H76107   3.883   7.554   3.588  1.8523  0.5926  0.3424
  564MOL0     H76108   3.860   7.660   3.796  0.8692  0.6376 -2.2406
  564MOL0     H76109   3.830   7.498   3.878 -1.0832 -1.2034 -2.1866
  564MOL0     H76110   4.104   7.583   3.761  0.4226  0.5946  1.1944
  564MOL0     H76111   4.066   7.437   3.851  2.6757 -0.0067 -1.5654
  564MOL0     H76112   4.186   7.582   3.991  0.4988 -2.1634 -1.1956
  564MOL0     H76113   4.024   7.547   4.050 -2.2425 -1.0603 -2.5643
  564MOL0     H76114   3.943   7.758   3.993 -0.0550  0.3896  3.2875
  564MOL0     H76115   4.070   7.764   4.104  0.6024  0.1309 -0.8062
  564MOL0     H76116   4.072   7.896   3.844  0.8285  1.0967  0.9596
  564MOL0     H76117   4.208   7.780   3.837  1.1066  1.7651  0.2594
  564MOL0     H76118   4.280   8.006   3.886 -1.4079  1.2152  1.3836
  564MOL0     H76119   4.192   8.028   4.022  2.9703  3.4222 -0.1356
  564MOL0     H76120   3.429   7.685   3.801  2.0334 -2.1186  1.5557
  564MOL0     H76121   3.194   7.613   3.843 -1.0642 -2.1760  0.7817
  564MOL0     H76122   2.779   7.667   3.772 -0.8791 -0.5369 -0.2012
  564MOL0     H76123   2.558   7.609   3.835 -2.5449 -2.2338 -0.2282
  564MOL0     H76124   1.048   7.400   4.402 -0.6220  0.3249 -0.8579
  564MOL0     H76125   0.827   7.335   4.509 -2.4868 -0.3227 -0.1077
  564MOL0     H76126   0.445   7.356   4.611  2.2543 -0.2648  0.9304
  564MOL0     H76127   0.224   7.322   4.679 -0.5419 -3.4876  2.8138
  564MOL0     H76128   0.101   7.219   4.844 -0.8595  0.3080  0.9621
  564MOL0     H76129  -0.020   7.313   4.752 -1.9535 -3.4442  0.1457
  564MOL0     H76130  -0.146   7.345   4.959  0.8542  0.8748  0.9206
  564MOL0     H76131  -0.026   7.262   5.057  3.1106  0.9745 -2.1008
  564MOL0     H76132  -0.216   7.166   4.843 -1.3524 -2.8764 -0.1417
  564MOL0     H76133  -0.223   7.127   5.001  1.7156  0.7979  0.9375
  564MOL0     H76134  -0.135   6.926   4.859  2.3553 -1.0088 -2.3709
  564MOL0     H76135  -0.003   7.025   4.798 -1.8213 -4.2115 -3.1403
  564MOL0     H76136   0.173   6.899   5.142  0.9754 -2.0118 -3.3464
  564MOL0     H76137   0.242   7.608   4.988  3.0507  0.8154  1.3148
  564MOL0     H76138   0.542   7.691   5.007  0.8794  1.4718  0.5147
  564MOL0     H76139   0.561   7.766   4.859 -1.9137  0.3715 -1.9445
  564MOL0     H76140   0.415   7.802   4.947  1.6312  1.3487 -0.7233
  565MOL0     O76141   8.042  10.286  11.146  0.4686 -1.1764 -0.5980
  565MOL0     C76142   7.968  10.353  11.072  0.1761  0.5167 -1.0071
  565MOL0     O76143   7.996  10.469  11.011  0.0222  0.3241  0.1104
  565MOL0     C76144   8.114  10.538  11.029  0.2027  0.4851 -0.4975
  565MOL0     C76145   8.231  10.473  11.019 -0.5604  0.2423  0.5630
  565MOL0     C76146   8.354  10.537  11.027  0.4675  0.1075 -0.5815
  565MOL0     C76147   8.356  10.674  11.050 -0.2195  0.0235 -0.3800
  565MOL0     O76148   8.480  10.734  11.044  0.3819  0.4718 -0.4742
  565MOL0     C76149   8.483  10.859  11.117  0.3033  0.0449  0.4390
  565MOL0     C76150   8.614  10.923  11.134 -1.1058 -0.0228 -0.0016
  565MOL0     C76151   8.624  11.048  11.220  0.8891 -0.1112 -0.0394
  565MOL0     C76152   8.768  11.071  11.266 -0.1934  0.3093  0.6161
  565MOL0     C76153   8.786  11.169  11.375 -0.0287 -0.6687 -0.2126
  565MOL0     C76154   8.935  11.179  11.400  0.1863 -0.2342 -0.2067
  565MOL0     C76155   9.006  11.057  11.470 -0.2770 -0.1375  0.2241
  565MOL0     C76156   9.150  11.100  11.507  0.2110 -0.1650  0.0923
  565MOL0     N76157   9.129  11.185  11.626 -0.3473  0.1943  0.3741
  565MOL0     C76158   9.068  11.142  11.741 -0.9708 -0.1404  0.3222
  565MOL0     C76159   9.049  11.261  11.808 -0.6944  0.0132  0.0750
  565MOL0     C76160   8.977  11.278  11.942  1.4176 -0.5178  0.6579
  565MOL0     C76161   8.850  11.206  11.952  0.0207 -0.0390 -0.5362
  565MOL0     C76162   8.728  11.257  11.872  0.6497  0.7603  1.0417
  565MOL0     C76163   8.646  11.141  11.821 -0.1895 -0.3463 -0.1827
  565MOL0     O76164   8.547  11.201  11.732  0.1928 -0.0838 -0.0053
  565MOL0     C76165   8.455  11.124  11.665 -0.4537 -0.8503 -0.3823
  565MOL0     C76166   8.379  11.026  11.724  0.2693  0.0435  0.3658
  565MOL0     C76167   8.283  10.958  11.652  0.2854 -0.6321  0.0319
  565MOL0     C76168   8.270  10.973  11.516  0.4172 -0.5136  0.8284
  565MOL0     C76169   8.169  10.903  11.432 -0.1301 -0.1550  0.3048
  565MOL0     O76170   8.098  10.816  11.502 -0.0746  0.6743 -0.2742
  565MOL0     C76171   7.990  10.747  11.460 -0.4276 -0.1637 -0.0118
  565MOL0     C76172   7.886  10.735  11.548  0.2436 -0.5826  0.0100
  565MOL0     C76173   7.767  10.672  11.512  0.0627 -0.4813 -0.7994
  565MOL0     C76174   7.754  10.614  11.389 -0.4679 -0.2695 -0.3889
  565MOL0     O76175   7.643  10.551  11.366 -0.6586  0.0815  0.2545
  565MOL0     C76176   7.601  10.527  11.229  0.1600  0.7971 -0.4423
  565MOL0     C76177   7.467  10.463  11.247  0.5257  0.2817  0.0923
  565MOL0     C76178   7.401  10.433  11.109  0.2080 -0.6267  0.3463
  565MOL0     C76179   7.270  10.353  11.134 -0.1982  0.1611  0.3790
  565MOL0     C76180   7.180  10.361  11.016 -0.0599 -0.4018 -0.3926
  565MOL0     C76181   7.041  10.299  11.035 -0.6875 -0.2613 -1.0525
  565MOL0     C76182   6.947  10.299  10.914 -0.9472  0.3921  0.8743
  565MOL0     C76183   6.808  10.261  10.969 -0.5826  0.6046 -0.2686
  565MOL0    Cl76184   6.687  10.285  10.839  0.0404 -0.0637 -0.1329
  565MOL0     C76185   7.859  10.635  11.293 -0.3877 -0.2453  0.8589
  565MOL0     C76186   7.983  10.689  11.333  0.3309 -0.4760  0.1829
  565MOL0     O76187   8.160  10.931  11.312 -0.3012 -0.1724 -0.4763
  565MOL0     C76188   8.346  11.075  11.454  0.2962 -0.4065 -1.0346
  565MOL0     C76189   8.429  11.156  11.533 -0.1156  0.0214  0.6040
  565MOL0     N76190   9.107  11.369  11.742 -0.8002 -0.1982  0.2106
  565MOL0     N76191   9.145  11.320  11.627  0.0018 -0.0620 -0.0701
  565MOL0     C76192   8.233  10.743  11.064 -0.2491  0.3625  0.1034
  565MOL0     C76193   8.116  10.667  11.047  1.2042 -1.7231  0.1696
  565MOL0     C76194   7.837  10.291  11.029 -0.0806 -0.1050  0.3512
  565MOL0     C76195   7.794  10.305  10.894 -0.0154  0.2494  0.5768
  565MOL0     C76196   7.675  10.243  10.849 -0.3724 -1.3606 -0.3951
  565MOL0     C76197   7.602  10.170  10.938 -0.4565  1.0123  0.4557
  565MOL0     O76198   7.490  10.118  10.887 -0.2326  0.0739  0.4082
  565MOL0     C76199   7.446   9.994  10.931 -0.2534  0.0375  0.0469
  565MOL0     C76200   7.366   9.929  10.822  0.6746  0.2049  0.2852
  565MOL0     C76201   7.431   9.927  10.687  0.3224  0.0691  0.4253
  565MOL0     C76202   7.324   9.924  10.571 -0.1325 -0.0415 -0.9723
  565MOL0     C76203   7.248  10.049  10.569  0.3247  0.0950 -0.6321
  565MOL0     C76204   7.192  10.151  10.572 -0.0918  0.6865  0.4842
  565MOL0     C76205   7.641  10.155  11.070 -0.9871  0.1625 -0.2892
  565MOL0     C76206   7.753  10.213  11.118 -0.0983 -0.7224  0.1639
  565MOL0     C76207   7.780  10.192  11.267 -0.1277  0.1770  0.7026
  565MOL0     H76208   8.225  10.366  10.999  0.7885  0.6038 -2.3187
  565MOL0     H76209   8.440  10.474  11.005 -0.8798 -1.1174 -2.6765
  565MOL0     H76210   8.419  10.934  11.069  1.7926  0.6959 -0.6169
  565MOL0     H76211   8.440  10.838  11.215  1.6268 -1.6598  0.6911
  565MOL0     H76212   8.669  10.946  11.042 -1.7262 -0.6176 -0.5339
  565MOL0     H76213   8.667  10.839  11.180 -0.2460  1.1788  1.2673
  565MOL0     H76214   8.554  11.036  11.303  1.8531  3.6480  1.5513
  565MOL0     H76215   8.600  11.132  11.154 -0.6571 -0.5424 -0.0470
  565MOL0     H76216   8.807  10.970  11.286 -0.2057  0.7673  3.2374
  565MOL0     H76217   8.832  11.110  11.186 -0.4120  1.1822  0.8625
  565MOL0     H76218   8.755  11.267  11.337 -0.7004 -0.8067 -0.0208
  565MOL0     H76219   8.730  11.142  11.464 -2.1380  1.7285 -0.7097
  565MOL0     H76220   8.985  11.179  11.303  2.8207 -3.7835  0.9434
  565MOL0     H76221   8.960  11.267  11.461  2.6836 -0.9746 -0.0545
  565MOL0     H76222   9.016  10.966  11.410  2.8264 -0.5107  1.1255
  565MOL0     H76223   8.941  11.030  11.554 -0.8277  1.1167  0.2119
  565MOL0     H76224   9.219  11.017  11.522  2.2979  0.9572 -2.3376
  565MOL0     H76225   9.189  11.155  11.420 -1.9128 -0.5213 -1.1506
  565MOL0     H76226   9.045  11.039  11.766  1.0559 -0.4332  1.1690
  565MOL0     H76227   9.036  11.237  12.024  0.7797 -0.5928  1.0882
  565MOL0     H76228   8.962  11.385  11.956  2.0892 -0.1319 -1.2420
  565MOL0     H76229   8.874  11.099  11.947  2.4962  0.4270  0.1875
  565MOL0     H76230   8.820  11.210  12.058 -0.3314 -2.6477 -0.4622
  565MOL0     H76231   8.769  11.302  11.781 -0.5010 -1.5826 -0.7268
  565MOL0     H76232   8.670  11.335  11.922 -4.6789 -0.7610 -1.9794
  565MOL0     H76233   8.618  11.098  11.917  0.6578 -0.6760 -0.0751
  565MOL0     H76234   8.706  11.070  11.764 -0.0435  2.1551 -3.4847
  565MOL0     H76235   8.386  11.004  11.830 -0.4601 -1.9529  0.0453
  565MOL0     H76236   8.230  10.883  11.710 -2.6067  2.9336  2.4384
  565MOL0     H76237   7.904  10.785  11.642 -1.3448  2.7870 -1.3131
  565MOL0     H76238   7.698  10.656  11.594 -1.6397  1.8225 -1.6805
  565MOL0     H76239   7.579  10.618  11.172  1.0545  2.5560  1.8637
  565MOL0     H76240   7.670  10.466  11.170  1.4058  3.2688 -1.6934
  565MOL0     H76241   7.484  10.371  11.303  1.0905 -0.0973 -0.6908
  565MOL0     H76242   7.398  10.521  11.309 -1.3868  1.4718 -2.9399
  565MOL0     H76243   7.363  10.522  11.059 -2.1206 -0.9659  1.3775
  565MOL0     H76244   7.471  10.385  11.040  0.9177  1.8562 -0.7715
  565MOL0     H76245   7.222  10.387  11.226  1.2559 -0.0780  1.2454
  565MOL0     H76246   7.290  10.247  11.153  3.3851  0.2293 -1.9564
  565MOL0     H76247   7.237  10.329  10.928 -0.5626 -1.6787 -0.2739
  565MOL0     H76248   7.156  10.465  10.992  1.1590 -0.2686 -1.0699
  565MOL0     H76249   7.058  10.202  11.083  1.3785  1.2343  1.5249
  565MOL0     H76250   6.992  10.345  11.121  0.4979 -1.5149  0.3724
  565MOL0     H76251   6.979  10.224  10.841 -1.8250  1.3478 -0.5412
  565MOL0     H76252   6.932  10.391  10.856 -2.5063 -0.1019  0.4524
  565MOL0     H76253   6.800  10.159  11.009 -2.0428  1.3073  1.3662
  565MOL0     H76254   6.788  10.337  11.045 -3.8117 -0.8911  0.5673
  565MOL0     H76255   7.851  10.591  11.195  0.7651  1.7276 -0.1816
  565MOL0     H76256   8.072  10.681  11.272  0.9981  2.2414  0.6413
  565MOL0     H76257   8.349  11.093  11.347  2.9055  1.2790 -0.7861
  565MOL0     H76258   8.496  11.228  11.487  0.8970 -0.9646  0.5039
  565MOL0     H76259   8.233  10.848  11.089  1.4091 -0.4697  4.4898
  565MOL0     H76260   8.021  10.718  11.048  2.1670  0.3240 -2.2255
  565MOL0     H76261   7.864  10.353  10.825  0.1047  0.3074  0.7390
  565MOL0     H76262   7.645  10.263  10.747 -0.9586  2.9494  0.4402
  565MOL0     H76263   7.385   9.987  11.021  0.6320 -1.0864  0.5921
  565MOL0     H76264   7.532   9.931  10.954  2.8163  4.1263  0.7985
  565MOL0     H76265   7.277   9.993  10.819 -0.2592 -1.0990 -1.9664
  565MOL0     H76266   7.337   9.829  10.855  1.5047  1.0483  3.9789
  565MOL0     H76267   7.488   9.836  10.672  0.4459 -0.1235  1.9342
  565MOL0     H76268   7.499  10.011  10.667 -1.2401  0.9043 -1.8028
  565MOL0     H76269   7.378   9.916  10.476  1.5357  2.5542 -0.3439
  565MOL0     H76270   7.258   9.837  10.578 -0.8460  0.6375  2.5016
  565MOL0     H76271   7.130  10.238  10.572  0.9095  1.4326  1.7844
  565MOL0     H76272   7.569  10.109  11.137 -1.3444 -0.8617 -1.3402
  565MOL0     H76273   7.805  10.087  11.282  1.1554  0.2548 -0.7110
  565MOL0     H76274   7.865  10.255  11.294 -0.2748  0.8231 -0.3075
  565MOL0     H76275   7.692  10.223  11.324 -0.0010 -0.5058  1.2888
  566MOL0     O76276  11.398   9.169   8.173  0.0849  0.9179 -0.5799
  566MOL0     C76277  11.518   9.131   8.150  0.9568 -0.9579  0.3466
  566MOL0     O76278  11.583   9.025   8.203  0.6587 -0.6173 -0.3117
  566MOL0     C76279  11.520   8.987   8.316 -0.9766  0.5574  0.0338
  566MOL0     C76280  11.566   9.018   8.445 -0.0830 -0.0335 -0.5561
  566MOL0     C76281  11.490   8.973   8.561  0.2733  0.2773  0.3975
  566MOL0     C76282  11.369   8.908   8.545 -0.5011  0.5226  0.8719
  566MOL0     O76283  11.290   8.866   8.641  0.5698  0.0625  0.1284
  566MOL0     C76284  11.366   8.784   8.741  1.0986  0.7188 -0.1199
  566MOL0     C76285  11.277   8.685   8.823 -0.7405  1.0293 -0.0086
  566MOL0     C76286  11.228   8.585   8.724  0.9302 -0.0098  0.7520
  566MOL0     C76287  11.131   8.479   8.768  0.8231  0.4545  0.5862
  566MOL0     C76288  11.094   8.373   8.673  0.1793 -0.5125  0.7885
  566MOL0     C76289  10.987   8.300   8.739 -0.2676 -0.1455 -0.2323
  566MOL0     C76290  10.965   8.175   8.660 -0.7222  0.0998 -0.2999
  566MOL0     C76291  10.856   8.089   8.721  0.9832 -0.0566 -0.2297
  566MOL0     N76292  10.891   8.035   8.847  0.7979  0.3872  0.1788
  566MOL0     C76293  10.807   8.055   8.955 -0.0122  0.1180  0.3687
  566MOL0     C76294  10.835   7.953   9.040 -0.3962 -0.2428  0.0793
  566MOL0     C76295  10.777   7.947   9.172 -0.4965  0.1611 -0.7217
  566MOL0     C76296  10.846   8.034   9.275 -0.4735  0.6835 -0.2620
  566MOL0     C76297  10.829   7.976   9.423 -0.1875  0.2520 -0.2976
  566MOL0     C76298  10.886   8.087   9.524 -0.0021  0.4206 -0.7188
  566MOL0     O76299  11.032   8.083   9.512  1.0599  0.4279  0.1489
  566MOL0     C76300  11.101   8.188   9.553 -1.5605 -0.2895 -1.2486
  566MOL0     C76301  11.237   8.176   9.586 -1.2688 -0.5125  0.3115
  566MOL0     C76302  11.321   8.287   9.594  0.0212  0.6146  0.3144
  566MOL0     C76303  11.272   8.420   9.595  0.2157 -0.7750 -0.2329
  566MOL0     C76304  11.356   8.536   9.614  0.3799 -0.0297 -0.5379
  566MOL0     O76305  11.298   8.659   9.603 -0.1072 -0.2439  0.4500
  566MOL0     C76306  11.361   8.779   9.627  0.1898 -0.2238  0.0241
  566MOL0     C76307  11.502   8.803   9.648  0.2386  0.2390 -0.0194
  566MOL0     C76308  11.543   8.936   9.662 -0.1603  0.6631  0.1628
  566MOL0     C76309  11.453   9.040   9.656  0.5849 -0.8703 -0.8741
  566MOL0     O76310  11.507   9.164   9.667 -0.2224 -0.3961  0.2402
  566MOL0     C76311  11.597   9.213   9.772  0.6430 -0.2919  0.0178
  566MOL0     C76312  11.523   9.329   9.835 -0.4022  0.6244  0.5082
  566MOL0     C76313  11.582   9.363   9.973 -0.2029  0.8144 -0.0880
  566MOL0     C76314  11.493   9.458  10.040 -0.7075 -0.5253 -0.8586
  566MOL0     C76315  11.558   9.489  10.182  0.9944 -0.6821  0.6406
  566MOL0     C76316  11.468   9.596  10.261  0.4810  0.5141  0.4960
  566MOL0     C76317  11.550   9.675  10.358 -0.0175 -0.6273 -0.6072
  566MOL0     C76318  11.477   9.802  10.390  0.1371  0.3980  0.3602
  566MOL0    Cl76319  11.485   9.920  10.275  0.3126  0.8101  0.6200
  566MOL0     C76320  11.314   9.026   9.631 -0.7997 -0.5886 -0.3105
  566MOL0     C76321  11.267   8.889   9.616  0.1718 -0.5604 -1.2203
  566MOL0     O76322  11.466   8.513   9.661  0.2079 -0.1017 -0.0817
  566MOL0     C76323  11.137   8.430   9.570 -0.2637  0.7391  1.0295
  566MOL0     C76324  11.049   8.320   9.546  0.5651 -0.7234 -0.3950
  566MOL0     N76325  10.927   7.868   8.981 -0.0157 -0.0812  0.4189
  566MOL0     N76326  10.941   7.910   8.858 -0.1490 -0.0182 -0.1844
  566MOL0     C76327  11.329   8.878   8.417 -0.8935  0.2403 -1.2337
  566MOL0     C76328  11.403   8.909   8.307 -0.1190  0.0517  0.5087
  566MOL0     C76329  11.600   9.204   8.050 -0.0301 -0.6520  0.0181
  566MOL0     C76330  11.716   9.143   7.997  0.4904 -0.1606  0.2663
  566MOL0     C76331  11.792   9.193   7.897  0.2198 -0.3064 -0.6466
  566MOL0     C76332  11.774   9.324   7.859 -0.0996 -1.1921 -0.5239
  566MOL0     O76333  11.866   9.380   7.777 -0.1512  0.3232 -0.5668
  566MOL0     C76334  11.939   9.490   7.821 -0.3689  0.8035 -0.5389
  566MOL0     C76335  11.961   9.578   7.702 -0.9571  0.4732  0.6380
  566MOL0     C76336  11.837   9.641   7.637 -0.3795 -0.2866 -0.0149
  566MOL0     C76337  11.856   9.778   7.568  0.0008 -0.7131 -1.0764
  566MOL0     C76338  11.960   9.773   7.479 -0.1762  0.2024  0.7789
  566MOL0     C76339  12.051   9.768   7.395  0.0183  0.3883 -0.1916
  566MOL0     C76340  11.657   9.388   7.906 -0.4446 -0.2834  0.6983
  566MOL0     C76341  11.569   9.332   7.998 -0.0125 -0.3707 -0.0472
  566MOL0     C76342  11.455   9.424   8.039 -0.3522  0.4428  0.4921
  566MOL0     H76343  11.655   9.071   8.475 -0.9285  0.6942  0.7822
  566MOL0     H76344  11.525   8.994   8.662 -0.3378 -3.6333  1.6020
  566MOL0     H76345  11.445   8.727   8.691  1.1498  0.8096 -0.1417
  566MOL0     H76346  11.410   8.860   8.806 -0.2325  1.0884  0.3960
  566MOL0     H76347  11.193   8.730   8.877 -1.9438 -4.1749  3.1997
  566MOL0     H76348  11.334   8.628   8.897  1.1561 -1.9713 -3.4814
  566MOL0     H76349  11.316   8.544   8.674  0.5590 -1.5879  1.3617
  566MOL0     H76350  11.171   8.642   8.650  0.7663  0.2690  1.0909
  566MOL0     H76351  11.190   8.418   8.837  0.4012 -1.7867 -0.9204
  566MOL0     H76352  11.040   8.523   8.809 -0.0589  1.2525 -2.0547
  566MOL0     H76353  11.056   8.429   8.588  1.4757 -1.7730 -0.6917
  566MOL0     H76354  11.185   8.313   8.660  0.7117  0.2951  0.7478
  566MOL0     H76355  11.022   8.268   8.838  0.7647  0.9864 -0.2086
  566MOL0     H76356  10.896   8.358   8.757 -0.3664 -0.9426  2.3067
  566MOL0     H76357  11.061   8.124   8.652 -0.5081 -0.0186  2.1391
  566MOL0     H76358  10.941   8.201   8.557  0.2184 -2.6617 -1.2819
  566MOL0     H76359  10.775   8.161   8.725 -0.1560 -1.0864 -2.6491
  566MOL0     H76360  10.830   8.006   8.654 -0.3758  1.7433 -2.0461
  566MOL0     H76361  10.738   8.136   8.975 -0.9569 -0.6901  0.4741
  566MOL0     H76362  10.672   7.977   9.177 -0.1992  1.2170 -0.6566
  566MOL0     H76363  10.787   7.843   9.206 -2.1208 -1.4919 -4.6519
  566MOL0     H76364  10.950   8.043   9.245 -0.5635 -3.1067 -2.3149
  566MOL0     H76365  10.797   8.131   9.258 -3.5403 -1.0787 -2.2977
  566MOL0     H76366  10.889   7.886   9.434 -0.6774  0.2317  3.9558
  566MOL0     H76367  10.726   7.943   9.441  0.7295 -2.9759 -0.3361
  566MOL0     H76368  10.862   8.063   9.628 -0.6007  2.3519 -0.3742
  566MOL0     H76369  10.830   8.180   9.514  0.3589  0.5186 -1.9132
  566MOL0     H76370  11.270   8.073   9.586 -2.3574 -0.8847  1.1380
  566MOL0     H76371  11.424   8.267   9.624 -0.2252  0.6969  1.2601
  566MOL0     H76372  11.568   8.717   9.647 -0.3174 -0.1937  0.1693
  566MOL0     H76373  11.649   8.934   9.685 -0.6439 -0.1525  2.6530
  566MOL0     H76374  11.614   9.128   9.839  1.1847  0.3974  0.7742
  566MOL0     H76375  11.692   9.251   9.733  0.0590 -1.4289 -2.7145
  566MOL0     H76376  11.526   9.414   9.767  0.0042 -0.7661 -1.2732
  566MOL0     H76377  11.417   9.303   9.840 -0.0599 -2.7341 -3.6352
  566MOL0     H76378  11.589   9.276  10.038 -3.3794  2.2132  2.4026
  566MOL0     H76379  11.679   9.413   9.965  2.1165 -3.2923 -0.3798
  566MOL0     H76380  11.397   9.410  10.060 -0.5277 -0.5017  0.1118
  566MOL0     H76381  11.482   9.546   9.976 -2.3120  2.0293  2.6096
  566MOL0     H76382  11.651   9.544  10.166 -0.5871  1.4030 -2.4064
  566MOL0     H76383  11.572   9.391  10.228  0.5746 -1.7915 -1.4734
  566MOL0     H76384  11.422   9.671  10.196  1.6683  3.0006  2.3357
  566MOL0     H76385  11.392   9.538  10.315  2.7538 -2.1781  1.0558
  566MOL0     H76386  11.644   9.698  10.308 -0.4467 -1.3261 -1.7554
  566MOL0     H76387  11.574   9.622  10.451  1.0999 -1.0876 -1.1404
  566MOL0     H76388  11.377   9.782  10.429  1.4157 -3.9410  1.9687
  566MOL0     H76389  11.533   9.836  10.477 -1.3248  0.4025  1.3354
  566MOL0     H76390  11.237   9.102   9.637 -2.5078 -2.3367  1.1035
  566MOL0     H76391  11.162   8.864   9.600 -0.9250  2.1354  1.0430
  566MOL0     H76392  11.084   8.526   9.569 -0.9989  0.3487  1.4707
  566MOL0     H76393  10.944   8.340   9.528  0.1704 -1.8035  0.5911
  566MOL0     H76394  11.241   8.814   8.420  0.2480 -1.3560  0.0611
  566MOL0     H76395  11.363   8.890   8.207  2.3910 -1.3608 -0.3021
  566MOL0     H76396  11.731   9.039   8.023  0.1348 -0.5545 -1.0600
  566MOL0     H76397  11.878   9.141   7.856  2.5930  1.2433  1.9552
  566MOL0     H76398  12.032   9.452   7.865 -1.4966  1.1364  2.3563
  566MOL0     H76399  11.894   9.550   7.901  1.4261  1.3517  0.1162
  566MOL0     H76400  12.018   9.518   7.630 -2.0371  0.7423 -0.4809
  566MOL0     H76401  12.029   9.655   7.740  0.3655 -1.3500  2.1424
  566MOL0     H76402  11.766   9.653   7.719 -2.0903 -3.3208 -0.9079
  566MOL0     H76403  11.793   9.570   7.567 -1.5217  1.5930 -1.2796
  566MOL0     H76404  11.770   9.806   7.506 -1.2863 -1.2800  0.3880
  566MOL0     H76405  11.873   9.861   7.636  1.7729  0.0310 -2.3539
  566MOL0     H76406  12.132   9.741   7.330 -0.7194 -3.0400  0.1264
  566MOL0     H76407  11.636   9.492   7.884  1.2527  0.9093  3.9813
  566MOL0     H76408  11.459   9.439   8.147 -0.5912  0.7333  0.4628
  566MOL0     H76409  11.451   9.517   7.980 -4.4319 -0.6035 -1.2561
  566MOL0     H76410  11.356   9.384   8.015 -0.7385  1.3573  0.5072
  567MOL0     O76411   7.909   0.265   4.630 -0.2269  0.6672 -0.2715
  567MOL0     C76412   8.023   0.307   4.659 -1.0326 -0.2999  0.0983
  567MOL0     O76413   8.054   0.350   4.787  0.1988 -0.1130  0.5730
  567MOL0     C76414   7.960   0.356   4.880  0.4769  0.1185 -0.0314
  567MOL0     C76415   7.867   0.248   4.907  0.1341 -0.1979 -0.0108
  567MOL0     C76416   7.772   0.250   5.011 -0.8883 -0.0161 -0.9028
  567MOL0     C76417   7.762   0.360   5.085  0.1004  0.6822 -0.1990
  567MOL0     O76418   7.672   0.367   5.187  0.1245  0.1054  0.0644
  567MOL0     C76419   7.641   0.260   5.280  0.0966 -0.7555  0.3171
  567MOL0     C76420   7.778   0.204   5.343 -0.5947  0.2961 -0.6464
  567MOL0     C76421   7.823   0.307   5.452  0.0237  0.5914 -0.4173
  567MOL0     C76422   7.940   0.246   5.540 -0.6304  0.2666  0.4435
  567MOL0     C76423   7.933   0.288   5.688  0.2869 -0.0991 -0.4729
  567MOL0     C76424   8.020   0.203   5.783 -0.1979  0.2031 -0.0820
  567MOL0     C76425   7.977   0.236   5.934 -0.0136 -0.5596 -0.8884
  567MOL0     C76426   8.014   0.114   6.024  1.1509  0.0687 -0.2452
  567MOL0     N76427   8.152   0.070   6.004 -0.2491  1.0595  0.1250
  567MOL0     C76428   8.267   0.146   6.011  0.8751 -0.1105 -1.0328
  567MOL0     C76429   8.360   0.058   5.990  0.1419  1.1092 -1.2648
  567MOL0     C76430   8.504   0.083   5.992 -1.0683 -0.7314 -0.3448
  567MOL0     C76431   8.558   0.139   5.861 -0.2907 -0.0022  1.2065
  567MOL0     C76432   8.698   0.211   5.887 -0.3156 -0.6286 -0.6690
  567MOL0     C76433   8.782   0.234   5.766  0.6367 -0.1848  0.8987
  567MOL0     O76434   8.689   0.287   5.668  0.2273  0.3142 -0.0818
  567MOL0     C76435   8.727   0.396   5.588  0.9995  0.4367 -0.6341
  567MOL0     C76436   8.857   0.436   5.583  0.5485 -0.3530  0.2638
  567MOL0     C76437   8.894   0.551   5.514  0.7342  0.0417 -0.6396
  567MOL0     C76438   8.797   0.619   5.432  0.2178 -0.0787 -0.7751
  567MOL0     C76439   8.831   0.741   5.349  0.4339 -0.1789  0.6276
  567MOL0     O76440   8.957   0.797   5.360 -0.0024 -0.5875  0.0220
  567MOL0     C76441   8.981   0.903   5.275 -0.2512  0.4540  0.0338
  567MOL0     C76442   8.975   0.898   5.137  0.5045  0.0701  0.4090
  567MOL0     C76443   9.009   1.012   5.064 -1.1250  1.2580 -0.1525
  567MOL0     C76444   9.050   1.134   5.125  0.2637 -0.0717  0.0819
  567MOL0     O76445   9.088   1.245   5.051 -0.1950  0.6562  0.1826
  567MOL0     C76446   9.200   1.229   4.970  0.3182 -0.0179  0.3884
  567MOL0     C76447   9.328   1.293   5.050  1.0687 -0.1415 -0.0005
  567MOL0     C76448   9.319   1.444   5.079  0.2289 -0.0653  0.0826
  567MOL0     C76449   9.459   1.520   5.076 -1.7216 -0.5236  0.4163
  567MOL0     C76450   9.568   1.472   5.175 -0.9168  0.0077 -0.4242
  567MOL0     C76451   9.693   1.551   5.145  0.2218 -0.0680  0.6257
  567MOL0     C76452   9.820   1.485   5.196  0.7855  0.1605 -0.6073
  567MOL0     C76453   9.940   1.557   5.123  0.7145  0.2849 -0.4892
  567MOL0    Cl76454   9.958   1.505   4.946  0.1253  0.1030 -0.5136
  567MOL0     C76455   9.044   1.149   5.264  0.3787  0.1299 -0.4506
  567MOL0     C76456   9.019   1.031   5.336  0.6840  1.1433 -0.1701
  567MOL0     O76457   8.730   0.790   5.299 -0.2600 -0.0076 -0.4312
  567MOL0     C76458   8.664   0.570   5.446  0.8958  0.1583 -0.9941
  567MOL0     C76459   8.627   0.460   5.520  0.1488 -0.1374 -0.2290
  567MOL0     N76460   8.308  -0.060   5.942  0.3478  0.0207 -0.7248
  567MOL0     N76461   8.176  -0.054   5.951 -0.2525  0.0180  0.4844
  567MOL0     C76462   7.845   0.459   5.065 -0.3675  0.1409 -0.2515
  567MOL0     C76463   7.947   0.460   4.971  0.3694 -0.3947 -0.4191
  567MOL0     C76464   8.145   0.268   4.573  0.4398  0.3952  0.5461
  567MOL0     C76465   8.129   0.173   4.469 -0.7733  0.6842 -0.4164
  567MOL0     C76466   8.239   0.121   4.386 -0.5085  0.1523 -0.8826
  567MOL0     C76467   8.367   0.172   4.418  1.2499 -0.0778  0.8453
  567MOL0     O76468   8.474   0.118   4.357 -0.0341 -0.7215  0.4930
  567MOL0     C76469   8.597   0.204   4.341  1.2194 -0.8788  0.8848
  567MOL0     C76470   8.648   0.198   4.202  0.1814  0.5887  0.3797
  567MOL0     C76471   8.788   0.255   4.194 -0.2779  0.4334 -0.8784
  567MOL0     C76472   8.843   0.292   4.061  0.3006  0.0225 -0.6563
  567MOL0     C76473   8.978   0.339   4.076 -1.5650  0.1896  0.3988
  567MOL0     C76474   9.104   0.376   4.076  1.3651  0.2912 -0.6093
  567MOL0     C76475   8.385   0.264   4.521  0.8190 -0.9027 -0.5957
  567MOL0     C76476   8.276   0.319   4.601 -0.2642 -0.0619 -0.4578
  567MOL0     C76477   8.326   0.397   4.719 -0.1520 -0.2619 -0.5189
  567MOL0     H76478   7.869   0.164   4.838 -5.1038 -0.0952 -0.7141
  567MOL0     H76479   7.717   0.159   5.029 -0.4713 -0.1682 -0.3701
  567MOL0     H76480   7.577   0.306   5.355  0.0816  0.6664 -0.5378
  567MOL0     H76481   7.583   0.179   5.234  0.3071 -1.3589  1.0833
  567MOL0     H76482   7.858   0.181   5.272 -0.0586  2.1796 -0.6956
  567MOL0     H76483   7.766   0.105   5.389  1.4522  0.3897  0.2002
  567MOL0     H76484   7.737   0.332   5.515 -0.5581  1.9245 -1.6637
  567MOL0     H76485   7.872   0.396   5.410 -1.0252  1.2173 -0.3765
  567MOL0     H76486   7.927   0.137   5.540 -0.6443  0.2461 -0.9898
  567MOL0     H76487   8.039   0.271   5.501  0.1606 -3.5730 -0.4591
  567MOL0     H76488   7.967   0.391   5.689  0.7255 -0.2338 -1.3531
  567MOL0     H76489   7.830   0.283   5.727  0.7556 -0.6200  0.7665
  567MOL0     H76490   8.004   0.096   5.765  0.5675  0.2471 -1.1339
  567MOL0     H76491   8.128   0.218   5.778  0.0263 -0.8395  1.2032
  567MOL0     H76492   7.871   0.263   5.936  0.4070  1.2379 -1.3431
  567MOL0     H76493   8.028   0.323   5.977  2.3100 -2.5979  0.7103
  567MOL0     H76494   8.000   0.125   6.132 -1.3075 -2.0935 -0.2496
  567MOL0     H76495   7.947   0.030   6.006 -0.1560  1.5751 -2.9827
  567MOL0     H76496   8.276   0.247   6.049  1.5493 -0.1994 -0.9400
  567MOL0     H76497   8.510   0.163   6.066 -3.6335 -3.4584  3.1523
  567MOL0     H76498   8.570  -0.003   6.006  2.4315  1.1099 -3.6288
  567MOL0     H76499   8.557   0.056   5.789  2.6651  0.7269  0.1501
  567MOL0     H76500   8.481   0.208   5.826 -1.6737 -0.8652  2.4178
  567MOL0     H76501   8.764   0.148   5.948 -1.3389  0.4703  1.7394
  567MOL0     H76502   8.677   0.307   5.935 -1.4635  0.2778 -2.8896
  567MOL0     H76503   8.816   0.142   5.717 -3.0167 -0.2744 -1.8892
  567MOL0     H76504   8.866   0.300   5.791  0.2469 -0.0097  1.7683
  567MOL0     H76505   8.936   0.375   5.628  2.1305  3.0886  2.6845
  567MOL0     H76506   8.991   0.598   5.505  0.8850 -0.1362  0.0135
  567MOL0     H76507   8.931   0.810   5.092 -0.3755  0.1129  1.1466
  567MOL0     H76508   9.010   1.009   4.956  0.7458 -0.6934 -0.1605
  567MOL0     H76509   9.223   1.126   4.941  2.0130  0.6263 -0.7367
  567MOL0     H76510   9.200   1.277   4.872  0.3800 -3.2348 -1.3190
  567MOL0     H76511   9.358   1.235   5.138 -3.0766 -2.8668 -0.1192
  567MOL0     H76512   9.396   1.296   4.965 -0.9172 -0.0069 -1.6632
  567MOL0     H76513   9.240   1.482   5.014  1.0362 -1.9699 -2.1317
  567MOL0     H76514   9.279   1.461   5.180 -1.5918  0.8267 -0.7326
  567MOL0     H76515   9.440   1.628   5.077 -0.4342 -0.0688 -4.1528
  567MOL0     H76516   9.489   1.522   4.971 -1.0501 -1.0159  0.5920
  567MOL0     H76517   9.582   1.363   5.171  0.8216 -0.1079  3.4484
  567MOL0     H76518   9.530   1.501   5.274 -2.4979 -0.0303 -0.9996
  567MOL0     H76519   9.693   1.570   5.037 -1.7155 -1.2127  0.3772
  567MOL0     H76520   9.676   1.646   5.196 -4.5481 -1.5102  2.2247
  567MOL0     H76521   9.816   1.377   5.180 -3.0568  0.0143  0.3407
  567MOL0     H76522   9.833   1.498   5.303 -2.3347 -0.8314  0.0012
  567MOL0     H76523   9.939   1.666   5.131 -2.7166  0.5236 -2.2106
  567MOL0     H76524  10.029   1.527   5.179  1.6606 -1.5725 -2.8043
  567MOL0     H76525   9.058   1.247   5.307 -2.6939  0.0276  1.0474
  567MOL0     H76526   9.011   1.041   5.444 -2.8600 -0.6980 -0.1068
  567MOL0     H76527   8.581   0.619   5.395 -1.0402 -2.1892 -0.3322
  567MOL0     H76528   8.523   0.434   5.531 -0.0852  0.5924 -0.6325
  567MOL0     H76529   7.843   0.541   5.136  1.7930  1.4099 -1.5162
  567MOL0     H76530   8.014   0.546   4.968 -1.1882  0.8359 -1.5533
  567MOL0     H76531   8.031   0.134   4.444 -0.2981 -0.7926 -0.1090
  567MOL0     H76532   8.225   0.047   4.307  3.2150  1.1936 -2.7761
  567MOL0     H76533   8.674   0.181   4.415  1.7278 -0.6428  0.4336
  567MOL0     H76534   8.578   0.312   4.340  3.4767 -0.4474  0.4490
  567MOL0     H76535   8.583   0.245   4.127  0.3275  0.3478  0.0976
  567MOL0     H76536   8.638   0.094   4.170  0.8417  1.6219 -3.8598
  567MOL0     H76537   8.858   0.192   4.249  1.1088 -0.2780 -3.2976
  567MOL0     H76538   8.784   0.353   4.241  1.6940  0.9547 -1.6768
  567MOL0     H76539   8.851   0.196   4.009 -1.8380 -0.9026  0.5964
  567MOL0     H76540   8.772   0.353   4.004 -0.4019 -1.4278 -1.3991
  567MOL0     H76541   9.204   0.410   4.057  0.8728  1.5210 -1.0636
  567MOL0     H76542   8.480   0.307   4.550 -0.7620  0.8556  2.4648
  567MOL0     H76543   8.304   0.344   4.811 -2.2546 -0.4239 -1.0786
  567MOL0     H76544   8.435   0.407   4.718 -0.0567 -0.3720  2.1554
  567MOL0     H76545   8.281   0.496   4.734  1.2204 -0.0407  3.0009
  568MOL0     O76546   7.804   2.634   3.668 -0.2349 -0.2409 -0.1156
  568MOL0     C76547   7.767   2.525   3.618 -1.0732 -0.4444 -0.0288
  568MOL0     O76548   7.837   2.411   3.603  0.1658  0.9339 -0.5561
  568MOL0     C76549   7.965   2.413   3.613 -0.5018 -0.4500 -0.9066
  568MOL0     C76550   8.041   2.371   3.508  0.0947 -0.5673  0.1844
  568MOL0     C76551   8.180   2.367   3.516 -0.1466  1.3245 -1.1094
  568MOL0     C76552   8.246   2.395   3.633 -0.0296 -0.0968  0.4739
  568MOL0     O76553   8.385   2.374   3.640  0.8651  0.3269 -1.0213
  568MOL0     C76554   8.475   2.447   3.567  0.2109 -0.4100 -0.3890
  568MOL0     C76555   8.620   2.419   3.603 -1.2312 -1.1496  0.6229
  568MOL0     C76556   8.676   2.543   3.681  0.1235 -0.1942 -0.0980
  568MOL0     C76557   8.824   2.537   3.708  0.4628  0.4466 -1.2684
  568MOL0     C76558   8.864   2.416   3.799 -0.6340  0.6624  0.2598
  568MOL0     C76559   9.022   2.413   3.799  0.7956  0.3312  0.5313
  568MOL0     C76560   9.069   2.272   3.844 -0.5191 -0.2892 -0.1971
  568MOL0     C76561   9.221   2.249   3.847  0.2682 -0.2944  0.3014
  568MOL0     N76562   9.293   2.343   3.940 -0.8493  0.8165  0.1976
  568MOL0     C76563   9.258   2.412   4.049  0.4009  0.4487 -0.3159
  568MOL0     C76564   9.361   2.493   4.069 -0.2601 -0.2160  0.2691
  568MOL0     C76565   9.371   2.583   4.187 -0.5221 -0.8159  0.3384
  568MOL0     C76566   9.413   2.519   4.315  0.1573 -0.4282 -0.1399
  568MOL0     C76567   9.563   2.554   4.348 -0.7729  0.0255 -0.1847
  568MOL0     C76568   9.662   2.471   4.262  0.0508  0.1124  0.1169
  568MOL0     O76569   9.796   2.465   4.319 -0.1800  0.3430  0.3080
  568MOL0     C76570   9.902   2.502   4.243 -0.7980 -0.1718 -0.2831
  568MOL0     C76571   9.990   2.596   4.289  0.1578 -0.8231  0.4957
  568MOL0     C76572  10.102   2.635   4.213  0.1714  0.3236 -0.2446
  568MOL0     C76573  10.143   2.576   4.097  0.7466 -0.0296 -0.2966
  568MOL0     C76574  10.269   2.599   4.044  0.1634 -0.4227  0.1825
  568MOL0     O76575  10.346   2.704   4.100  0.1458 -0.0230  0.0978
  568MOL0     C76576  10.453   2.776   4.051 -0.1638  0.4065  0.5809
  568MOL0     C76577  10.527   2.745   3.932 -0.0159  0.1591  1.3071
  568MOL0     C76578  10.637   2.821   3.900  0.1676  0.3363 -0.7257
  568MOL0     C76579  10.678   2.927   3.977  1.2199 -0.1968 -0.4497
  568MOL0     O76580  10.800   2.982   3.947 -0.3098 -0.6137 -0.5432
  568MOL0     C76581  10.865   3.048   4.060 -0.3608  0.0529  0.0763
  568MOL0     C76582  11.015   3.070   4.037  1.7298  0.2646 -0.1909
  568MOL0     C76583  11.019   3.187   3.932 -0.6480  0.0181 -0.7093
  568MOL0     C76584  11.160   3.259   3.943  0.0784  0.7470  0.8589
  568MOL0     C76585  11.154   3.367   3.817  0.1555  0.5318 -0.2994
  568MOL0     C76586  11.288   3.443   3.798 -0.5897 -0.1322  0.0920
  568MOL0     C76587  11.274   3.556   3.698  0.1267 -0.1338 -0.5146
  568MOL0     C76588  11.282   3.506   3.551 -0.2583  0.2704 -0.4555
  568MOL0    Cl76589  11.451   3.454   3.516 -0.5093 -0.3328 -0.4764
  568MOL0     C76590  10.597   2.968   4.088  0.3391  0.2816  0.4070
  568MOL0     C76591  10.484   2.891   4.121 -0.1713  0.4002  0.3208
  568MOL0     O76592  10.301   2.526   3.951 -0.3564 -0.0516 -0.8651
  568MOL0     C76593  10.058   2.473   4.055  1.2245 -0.2136 -0.2432
  568MOL0     C76594   9.938   2.437   4.123  0.1501 -0.1648  0.6451
  568MOL0     N76595   9.469   2.467   3.981 -0.1534  0.5471 -0.0537
  568MOL0     N76596   9.426   2.368   3.910  0.7114  0.3018 -0.6477
  568MOL0     C76597   8.167   2.432   3.739  0.0691  0.3201 -0.4719
  568MOL0     C76598   8.031   2.442   3.737 -0.0397  0.1246  0.6159
  568MOL0     C76599   7.622   2.514   3.576  0.4852  0.2863 -0.4221
  568MOL0     C76600   7.537   2.461   3.669  0.0545 -0.0282 -1.1656
  568MOL0     C76601   7.400   2.459   3.654 -0.4584 -0.3879  0.8017
  568MOL0     C76602   7.344   2.523   3.547 -0.4805 -0.1813  0.9585
  568MOL0     O76603   7.209   2.526   3.539  0.9010 -0.0848 -0.3834
  568MOL0     C76604   7.148   2.644   3.486  0.7559  0.2854 -0.3464
  568MOL0     C76605   7.153   2.760   3.595 -0.3720 -0.7258  0.6788
  568MOL0     C76606   7.103   2.707   3.735  0.3697  1.2374  0.1739
  568MOL0     C76607   7.066   2.815   3.832  1.1734 -0.1478 -0.7871
  568MOL0     C76608   6.989   2.747   3.939  0.4138  0.0052  0.7239
  568MOL0     C76609   6.925   2.714   4.042 -0.2581  0.1747 -0.3734
  568MOL0     C76610   7.432   2.578   3.446  0.5650  0.5832 -0.9402
  568MOL0     C76611   7.571   2.569   3.461 -0.7560 -0.7734  0.7291
  568MOL0     C76612   7.660   2.630   3.355 -0.2037 -0.3522  0.5926
  568MOL0     H76613   8.008   2.334   3.411  0.1354 -1.4016  0.4822
  568MOL0     H76614   8.235   2.351   3.424 -0.9253  1.5654 -1.6316
  568MOL0     H76615   8.450   2.432   3.461 -0.4413 -0.1471 -0.2766
  568MOL0     H76616   8.452   2.552   3.587 -1.7674 -1.2813  2.6120
  568MOL0     H76617   8.680   2.393   3.516  0.4392 -1.1949  1.7338
  568MOL0     H76618   8.625   2.339   3.678 -0.2630 -1.7959 -0.1039
  568MOL0     H76619   8.620   2.554   3.774 -0.7578 -1.7992 -0.4068
  568MOL0     H76620   8.672   2.634   3.619  2.7661 -0.8337 -1.3365
  568MOL0     H76621   8.880   2.527   3.614 -0.3833  0.8327 -1.8309
  568MOL0     H76622   8.853   2.632   3.754  2.0003 -0.6908  0.2291
  568MOL0     H76623   8.831   2.421   3.903  0.3924 -0.4504  0.6638
  568MOL0     H76624   8.826   2.320   3.763  0.4168  0.6101 -0.7886
  568MOL0     H76625   9.057   2.430   3.697 -0.3718 -2.2457 -0.3698
  568MOL0     H76626   9.066   2.492   3.861  2.6219 -1.4050  1.5538
  568MOL0     H76627   9.018   2.199   3.780 -0.8921 -0.1033 -0.1151
  568MOL0     H76628   9.039   2.261   3.949 -0.1738 -2.7772 -0.3044
  568MOL0     H76629   9.247   2.148   3.879  1.3867  0.8467  3.3420
  568MOL0     H76630   9.265   2.264   3.747  1.0306  2.2151  0.9267
  568MOL0     H76631   9.173   2.418   4.116  0.2587  0.3248 -0.4861
  568MOL0     H76632   9.437   2.664   4.154 -1.8645  0.5169  0.8281
  568MOL0     H76633   9.273   2.631   4.183  1.0999  2.7516 -0.5711
  568MOL0     H76634   9.339   2.561   4.384 -1.6370 -2.7389 -0.5029
  568MOL0     H76635   9.398   2.411   4.303  1.3561 -0.6230  0.0172
  568MOL0     H76636   9.577   2.523   4.451 -2.0612 -1.2872 -0.3879
  568MOL0     H76637   9.594   2.659   4.338  2.2683 -1.0141 -4.4116
  568MOL0     H76638   9.660   2.524   4.167  4.8295 -1.2606 -0.9800
  568MOL0     H76639   9.630   2.366   4.259  2.6107 -0.8247  1.9033
  568MOL0     H76640   9.978   2.649   4.383  0.2563  1.4336 -0.6992
  568MOL0     H76641  10.152   2.716   4.264 -1.0883 -0.2184  2.0069
  568MOL0     H76642  10.518   2.650   3.881 -0.3360  0.9240 -0.1096
  568MOL0     H76643  10.683   2.787   3.807 -1.5005 -1.3421 -0.9900
  568MOL0     H76644  10.814   3.144   4.074 -0.4249 -0.3509  3.2994
  568MOL0     H76645  10.856   2.992   4.153  1.1896 -1.3103 -0.5428
  568MOL0     H76646  11.069   3.088   4.131  1.3035  2.9030 -0.3662
  568MOL0     H76647  11.052   2.976   3.995 -4.0911 -2.7516  0.4495
  568MOL0     H76648  11.011   3.144   3.832  0.0948 -0.5572 -0.5320
  568MOL0     H76649  10.943   3.265   3.937  2.5224  3.3872 -1.0354
  568MOL0     H76650  11.233   3.186   3.908 -2.2617 -0.9763 -0.7072
  568MOL0     H76651  11.195   3.303   4.038  0.8569 -0.8827  1.3699
  568MOL0     H76652  11.084   3.446   3.849 -0.6731 -0.3808  0.2164
  568MOL0     H76653  11.129   3.321   3.721  0.2510  1.2940 -0.6906
  568MOL0     H76654  11.312   3.488   3.895 -1.4253  2.2294 -0.7178
  568MOL0     H76655  11.372   3.377   3.775 -0.4154 -0.0666  0.5293
  568MOL0     H76656  11.339   3.641   3.721 -0.6084  0.2077  0.4198
  568MOL0     H76657  11.176   3.596   3.725  0.7519  0.0930  1.6724
  568MOL0     H76658  11.207   3.434   3.517  0.0494 -0.5324  0.4983
  568MOL0     H76659  11.268   3.596   3.491  3.8572  2.2153  1.1344
  568MOL0     H76660  10.610   3.058   4.147 -0.5646  1.5908 -1.3074
  568MOL0     H76661  10.419   2.927   4.200 -3.1025  3.0482 -2.9889
  568MOL0     H76662  10.093   2.421   3.967 -0.1221 -2.3213  0.3936
  568MOL0     H76663   9.874   2.361   4.079  1.7613 -1.0371 -0.2684
  568MOL0     H76664   8.201   2.442   3.842  1.2356 -0.4208 -0.7719
  568MOL0     H76665   7.969   2.478   3.819 -2.6590 -1.6397 -0.4760
  568MOL0     H76666   7.574   2.427   3.765 -0.9521  2.3286  0.1221
  568MOL0     H76667   7.338   2.418   3.734 -1.9492 -0.2508 -0.2463
  568MOL0     H76668   7.044   2.618   3.461  0.0848  2.3553  0.0879
  568MOL0     H76669   7.200   2.684   3.398  1.4586 -0.1170 -0.1192
  568MOL0     H76670   7.094   2.842   3.553  1.1259 -1.9537 -4.5778
  568MOL0     H76671   7.254   2.798   3.613  0.3886 -1.6872 -1.2217
  568MOL0     H76672   7.160   2.622   3.776  1.8864  1.8337 -0.6184
  568MOL0     H76673   7.010   2.651   3.717  1.0208 -1.0121  2.9908
  568MOL0     H76674   7.164   2.849   3.866  0.6738 -0.4690  1.1288
  568MOL0     H76675   7.022   2.903   3.784  2.2435 -1.1173 -3.7415
  568MOL0     H76676   6.872   2.689   4.132  0.5407  0.6168  0.2320
  568MOL0     H76677   7.392   2.646   3.371  1.5555  2.3177  0.0604
  568MOL0     H76678   7.640   2.588   3.255 -1.1667 -2.0645  1.4562
  568MOL0     H76679   7.654   2.739   3.361 -1.4678 -0.5105  4.2519
  568MOL0     H76680   7.768   2.615   3.367  0.3372  2.0906 -0.6470
  569MOL0     O76681   3.263   9.399   9.932  0.2145  0.3763 -0.5135
  569MOL0     C76682   3.217   9.372  10.046 -0.4522 -0.7305 -0.4115
  569MOL0     O76683   3.289   9.320  10.158  0.2020 -0.4924  0.4384
  569MOL0     C76684   3.413   9.262  10.133  0.0723 -1.2858 -0.3372
  569MOL0     C76685   3.422   9.126  10.088 -0.3523 -0.2702  0.7770
  569MOL0     C76686   3.542   9.072  10.058 -0.8002 -0.0006  0.3741
  569MOL0     C76687   3.660   9.141  10.068  0.2881 -0.4599 -0.1677
  569MOL0     O76688   3.784   9.077  10.051 -0.1139 -0.0417  0.4895
  569MOL0     C76689   3.907   9.136  10.099  0.6182 -0.9485  0.6514
  569MOL0     C76690   3.922   9.112  10.247 -1.1431  0.5864  0.3335
  569MOL0     C76691   3.911   8.963  10.283  0.2819  1.0007  0.1264
  569MOL0     C76692   3.948   8.932  10.429 -0.6577  0.2586  0.8495
  569MOL0     C76693   3.954   8.779  10.452  0.4622 -1.4268 -0.9666
  569MOL0     C76694   4.034   8.741  10.576  0.3948  0.2489  0.3285
  569MOL0     C76695   4.046   8.586  10.594  0.7411  0.8461  0.0599
  569MOL0     C76696   4.161   8.517  10.496  0.7143 -0.2077 -0.2240
  569MOL0     N76697   4.291   8.523  10.546  0.0523 -1.2855  0.6404
  569MOL0     C76698   4.372   8.629  10.515 -0.0543 -0.1496 -0.6928
  569MOL0     C76699   4.497   8.598  10.561 -0.2708  0.0923  0.2108
  569MOL0     C76700   4.621   8.668  10.554  0.4521  0.8042  0.2806
  569MOL0     C76701   4.675   8.658  10.417  1.1533  1.3991 -0.3097
  569MOL0     C76702   4.821   8.705  10.416  0.0645  0.5156  0.3466
  569MOL0     C76703   4.899   8.662  10.286  0.3023  0.0402  0.0092
  569MOL0     O76704   5.013   8.743  10.256 -0.5692 -0.2894  0.2926
  569MOL0     C76705   5.134   8.738  10.325 -0.4462 -0.3846 -0.0516
  569MOL0     C76706   5.224   8.849  10.323 -0.5933 -0.2505  0.9887
  569MOL0     C76707   5.341   8.843  10.392  0.1103  0.2131 -1.3432
  569MOL0     C76708   5.382   8.729  10.462 -1.1928  0.0279 -0.1312
  569MOL0     C76709   5.513   8.723  10.535  0.5299  0.1748  0.0370
  569MOL0     O76710   5.557   8.598  10.560 -0.3088 -0.5599 -0.5503
  569MOL0     C76711   5.674   8.562  10.630  0.2291 -0.5512  0.4335
  569MOL0     C76712   5.709   8.427  10.631  0.0568 -0.4551 -0.8165
  569MOL0     C76713   5.829   8.374  10.686 -0.3886  0.0879 -0.5771
  569MOL0     C76714   5.929   8.457  10.742 -0.9061 -0.4990  0.1803
  569MOL0     O76715   6.049   8.402  10.771 -0.3261 -0.1897  0.4724
  569MOL0     C76716   6.102   8.452  10.901  0.1070 -0.0003  0.4814
  569MOL0     C76717   6.028   8.384  11.020  0.1505  0.3375 -0.0903
  569MOL0     C76718   6.091   8.434  11.151  0.7297 -0.1456  0.4562
  569MOL0     C76719   6.236   8.401  11.160 -0.1222  0.1317  0.1679
  569MOL0     C76720   6.302   8.436  11.299  0.6228 -0.5682  0.8187
  569MOL0     C76721   6.428   8.369  11.338 -0.0073 -0.0081  0.3275
  569MOL0     C76722   6.556   8.410  11.259 -0.8263 -0.1835  1.3254
  569MOL0     C76723   6.667   8.313  11.291 -0.5957 -0.3980  0.2392
  569MOL0    Cl76724   6.619   8.166  11.216 -0.3038  0.4550  0.3554
  569MOL0     C76725   5.902   8.598  10.741 -0.9784  0.0782  1.4288
  569MOL0     C76726   5.779   8.645  10.691 -0.1381  0.0237  0.1197
  569MOL0     O76727   5.571   8.830  10.561 -0.2252  0.0938  0.2074
  569MOL0     C76728   5.298   8.618  10.455 -0.5083  0.5966 -0.3277
  569MOL0     C76729   5.173   8.618  10.392  0.0511 -0.0501 -0.9959
  569MOL0     N76730   4.491   8.474  10.623  0.9589 -0.1676  0.2314
  569MOL0     N76731   4.365   8.435  10.616 -0.1310 -0.3428 -0.2396
  569MOL0     C76732   3.649   9.275  10.118  0.8698  0.1304 -0.7311
  569MOL0     C76733   3.525   9.342  10.142 -0.5290 -0.0903  0.2374
  569MOL0     C76734   3.074   9.411  10.062  0.8719  0.5685  0.6973
  569MOL0     C76735   3.021   9.504   9.974 -0.6429 -0.4105  0.4920
  569MOL0     C76736   2.889   9.554   9.992 -0.2155 -0.1667  0.6696
  569MOL0     C76737   2.806   9.510  10.084 -0.0175 -0.0867  0.6284
  569MOL0     O76738   2.675   9.566  10.080  0.3335  1.0016 -0.0069
  569MOL0     C76739   2.569   9.508  10.154  0.5279 -0.4736 -0.6853
  569MOL0     C76740   2.433   9.580  10.134  0.0042  0.5467 -0.4648
  569MOL0     C76741   2.419   9.721  10.194  0.1930 -0.3113 -0.2675
  569MOL0     C76742   2.456   9.828  10.092 -0.0257  0.1191  0.4691
  569MOL0     C76743   2.446   9.962  10.163 -0.2306 -0.1385 -0.2094
  569MOL0     C76744   2.451  10.053  10.240  0.7580  0.1186  0.8914
  569MOL0     C76745   2.854   9.399  10.161 -0.0468  0.4352  0.2128
  569MOL0     C76746   2.989   9.358  10.156  0.8453 -0.0004  0.3464
  569MOL0     C76747   3.022   9.231  10.239  0.5747  0.0952 -0.8261
  569MOL0     H76748   3.339   9.059  10.071 -1.6386  1.4699 -0.0410
  569MOL0     H76749   3.545   8.969  10.022  1.1173 -0.0950  0.6965
  569MOL0     H76750   4.000   9.092  10.063  2.3673 -0.5815  4.2647
  569MOL0     H76751   3.910   9.243  10.078 -0.9790 -1.0937 -0.4887
  569MOL0     H76752   3.854   9.169  10.311  1.5595  1.0340  3.0449
  569MOL0     H76753   4.027   9.135  10.268 -0.6963 -0.9692 -0.0274
  569MOL0     H76754   3.977   8.906  10.216 -0.9645  0.9251 -1.0821
  569MOL0     H76755   3.805   8.939  10.268 -0.4693  3.0462  1.6751
  569MOL0     H76756   4.039   8.987  10.456 -1.7204  0.4732  4.4726
  569MOL0     H76757   3.885   8.983  10.501  0.3740 -1.5225  3.1424
  569MOL0     H76758   3.857   8.728  10.454  0.7398 -1.9600 -0.7923
  569MOL0     H76759   4.010   8.744  10.364  1.3008 -0.9177 -0.6423
  569MOL0     H76760   4.134   8.783  10.560  0.0005  0.5932 -1.4732
  569MOL0     H76761   3.988   8.795  10.660  4.1329  1.6137  1.7297
  569MOL0     H76762   3.958   8.525  10.575  1.3597 -0.7121  1.7931
  569MOL0     H76763   4.069   8.553  10.696  1.3697  0.2090 -0.2800
  569MOL0     H76764   4.122   8.417  10.474  1.5996 -1.2460  2.5351
  569MOL0     H76765   4.156   8.573  10.402 -0.1695  0.9507  0.4850
  569MOL0     H76766   4.334   8.717  10.465  1.1932  1.6090  1.2602
  569MOL0     H76767   4.617   8.771  10.590  0.9443  0.4752  1.3072
  569MOL0     H76768   4.694   8.611  10.612  3.4816  2.5662 -1.5329
  569MOL0     H76769   4.680   8.551  10.392  0.6791  1.0411  1.0443
  569MOL0     H76770   4.609   8.707  10.345 -0.8255  3.1138  2.5045
  569MOL0     H76771   4.870   8.650  10.497  0.0408  0.0491  0.0472
  569MOL0     H76772   4.840   8.812  10.430  2.2477  0.4692 -1.5617
  569MOL0     H76773   4.833   8.679  10.200  1.0717  1.9307 -0.2511
  569MOL0     H76774   4.917   8.554  10.293  1.8801  0.3662  1.3453
  569MOL0     H76775   5.207   8.948  10.283  0.8875  0.1679  1.3292
  569MOL0     H76776   5.406   8.929  10.383  2.5727 -1.4949 -1.0404
  569MOL0     H76777   5.630   8.363  10.594 -0.2439 -0.0392 -0.9088
  569MOL0     H76778   5.844   8.267  10.687 -0.9070  0.0178  0.1468
  569MOL0     H76779   6.205   8.415  10.903  0.0730 -0.0722  0.9463
  569MOL0     H76780   6.110   8.560  10.917  1.5531 -0.3804  2.6906
  569MOL0     H76781   5.921   8.407  11.025  0.2071  0.8343 -0.9546
  569MOL0     H76782   6.046   8.279  10.996  0.5310  1.0718 -3.4578
  569MOL0     H76783   6.085   8.543  11.158 -0.8924 -0.2436  0.8405
  569MOL0     H76784   6.045   8.387  11.238  1.8997  1.3778  1.9632
  569MOL0     H76785   6.290   8.459  11.085  2.4471 -1.8847  0.3392
  569MOL0     H76786   6.249   8.295  11.136 -0.0017  0.5889 -2.0021
  569MOL0     H76787   6.230   8.402  11.374  0.6563 -2.2101  0.1581
  569MOL0     H76788   6.311   8.545  11.301  1.9002 -0.6680  2.1136
  569MOL0     H76789   6.453   8.380  11.444  0.8941  1.4888 -0.0141
  569MOL0     H76790   6.415   8.261  11.327  1.6712 -0.0030 -2.8314
  569MOL0     H76791   6.580   8.514  11.285 -0.5971  1.0584 -3.0172
  569MOL0     H76792   6.534   8.392  11.153 -0.8432  0.1383  1.2723
  569MOL0     H76793   6.758   8.340  11.238 -0.7785 -2.9547 -1.5526
  569MOL0     H76794   6.682   8.300  11.399  0.3708  1.1735  0.3237
  569MOL0     H76795   5.984   8.668  10.757  0.9239 -1.9231  0.8692
  569MOL0     H76796   5.759   8.752  10.698 -2.5801 -0.4572  3.2745
  569MOL0     H76797   5.336   8.526  10.500 -1.5993  1.8455  3.5079
  569MOL0     H76798   5.097   8.541  10.394 -0.6896  0.6500 -1.4999
  569MOL0     H76799   3.732   9.342  10.137 -0.4138  1.4523  0.4606
  569MOL0     H76800   3.508   9.442  10.180  1.3579  0.0426  0.8234
  569MOL0     H76801   3.083   9.533   9.890  0.2065 -2.2140  0.4394
  569MOL0     H76802   2.857   9.635   9.928  0.1941  0.4998  1.2925
  569MOL0     H76803   2.599   9.528  10.258  0.0103 -1.1264 -0.4041
  569MOL0     H76804   2.559   9.400  10.145  1.2432 -0.8287  1.7871
  569MOL0     H76805   2.366   9.515  10.191 -1.3774 -0.8399 -3.4744
  569MOL0     H76806   2.407   9.584  10.028 -2.9256 -4.4356 -0.2309
  569MOL0     H76807   2.458   9.727  10.296 -4.1024  0.3460  1.5485
  569MOL0     H76808   2.314   9.746  10.212 -0.0426 -1.0660 -0.5805
  569MOL0     H76809   2.554   9.804  10.050  0.1719 -2.8093  2.3404
  569MOL0     H76810   2.388   9.829  10.006  2.5628  0.8219 -1.6982
  569MOL0     H76811   2.457  10.129  10.315  1.8200  1.6879 -0.7114
  569MOL0     H76812   2.776   9.353  10.221  0.1965 -0.8726 -0.4229
  569MOL0     H76813   3.106   9.257  10.304  1.6492  1.3816 -2.6127
  569MOL0     H76814   2.930   9.194  10.284 -0.5677 -0.2753 -3.3012
  569MOL0     H76815   3.058   9.145  10.180 -1.6702 -1.2172 -0.4063
  570MOL0     O76816   6.077   0.936   7.569  0.1645  0.4857  0.5628
  570MOL0     C76817   6.143   0.854   7.510 -0.1131 -0.1936  0.3288
  570MOL0     O76818   6.098   0.733   7.477  0.1703 -0.1140 -0.0936
  570MOL0     C76819   5.963   0.722   7.444  0.3496  0.0553 -0.7206
  570MOL0     C76820   5.869   0.716   7.552  0.9652  0.3872  1.2439
  570MOL0     C76821   5.734   0.680   7.519 -0.3742  0.0187 -0.2021
  570MOL0     C76822   5.703   0.654   7.389  0.0283  1.4252  0.6736
  570MOL0     O76823   5.572   0.620   7.367  0.1223  0.6934  0.3842
  570MOL0     C76824   5.492   0.627   7.248 -0.1945 -0.2718  0.5162
  570MOL0     C76825   5.345   0.593   7.284  0.1459 -0.0904 -0.2317
  570MOL0     C76826   5.254   0.601   7.160 -0.9922  0.2380 -0.3671
  570MOL0     C76827   5.104   0.552   7.189 -0.1830  0.0339 -0.1287
  570MOL0     C76828   5.034   0.551   7.053 -0.9767 -0.7397 -0.7373
  570MOL0     C76829   4.881   0.544   7.069 -0.5619 -0.5962  0.1940
  570MOL0     C76830   4.811   0.568   6.940  0.1251 -0.0717  0.4241
  570MOL0     C76831   4.818   0.710   6.874 -1.7399  1.4591  0.3137
  570MOL0     N76832   4.764   0.813   6.953 -0.2049 -0.6216  0.2811
  570MOL0     C76833   4.634   0.817   7.004  0.2088 -0.1283  0.4876
  570MOL0     C76834   4.626   0.943   7.056  0.3455 -0.1992  0.3551
  570MOL0     C76835   4.506   0.991   7.133  0.8248 -0.0942 -0.0688
  570MOL0     C76836   4.507   0.909   7.269 -0.0647  0.5322  0.4558
  570MOL0     C76837   4.614   0.969   7.364 -0.0536  1.2298 -0.1027
  570MOL0     C76838   4.676   0.869   7.460  0.2541  0.8227  0.2210
  570MOL0     O76839   4.797   0.912   7.527 -0.2562  0.7309 -0.2244
  570MOL0     C76840   4.919   0.904   7.464  0.3084 -0.5779  0.0843
  570MOL0     C76841   4.950   0.869   7.329  0.3298  0.1466 -0.4490
  570MOL0     C76842   5.067   0.899   7.260  0.0346 -0.5650  0.6025
  570MOL0     C76843   5.168   0.970   7.329  0.1716 -0.0528 -0.3463
  570MOL0     C76844   5.296   1.006   7.270  0.8596  0.0645  0.8334
  570MOL0     O76845   5.395   1.006   7.356 -0.8490 -0.0858 -0.7401
  570MOL0     C76846   5.522   1.055   7.320 -0.2282  0.0822  0.2913
  570MOL0     C76847   5.617   1.014   7.413 -0.1946 -0.0090 -0.0755
  570MOL0     C76848   5.751   1.072   7.396  0.8723 -0.4944 -0.0807
  570MOL0     C76849   5.792   1.156   7.298  0.8138  0.6270 -0.3699
  570MOL0     O76850   5.922   1.196   7.294 -0.4595  0.0990  0.0703
  570MOL0     C76851   5.960   1.296   7.199  0.4765  0.4971  0.4693
  570MOL0     C76852   6.109   1.328   7.215 -1.2990 -0.8969 -0.4501
  570MOL0     C76853   6.149   1.432   7.117 -0.0305 -0.5644  0.0547
  570MOL0     C76854   6.290   1.486   7.144  0.0230 -0.9904 -0.4735
  570MOL0     C76855   6.344   1.577   7.030  0.2496 -0.1418 -0.0658
  570MOL0     C76856   6.385   1.501   6.902 -0.1361  0.4888 -0.2614
  570MOL0     C76857   6.441   1.594   6.787  0.5318 -0.0924 -0.3485
  570MOL0     C76858   6.457   1.533   6.649 -0.0060  0.5041 -1.2840
  570MOL0    Cl76859   6.635   1.495   6.624 -0.4754 -0.1925 -0.1116
  570MOL0     C76860   5.687   1.198   7.211 -0.6273  0.4526  0.0791
  570MOL0     C76861   5.559   1.140   7.214  0.6975 -0.3256 -0.2030
  570MOL0     O76862   5.312   1.020   7.154  0.1531 -0.9400  0.5407
  570MOL0     C76863   5.139   1.010   7.470 -0.3828 -0.5146 -0.0595
  570MOL0     C76864   5.017   0.977   7.528  0.2861  0.0276  0.3170
  570MOL0     N76865   4.744   1.016   7.044  0.5248 -0.2030 -0.0369
  570MOL0     N76866   4.823   0.942   6.975 -0.1612  0.4374  0.8432
  570MOL0     C76867   5.788   0.656   7.285 -0.3488  0.1903  0.4586
  570MOL0     C76868   5.917   0.694   7.314 -0.3124  0.5645  0.4997
  570MOL0     C76869   6.296   0.874   7.523  0.0387  0.0584  0.2273
  570MOL0     C76870   6.379   0.760   7.508 -0.2228 -0.2575 -0.3645
  570MOL0     C76871   6.515   0.779   7.503 -0.4019 -0.0472 -0.3117
  570MOL0     C76872   6.576   0.902   7.520  0.2172  0.9533  0.8315
  570MOL0     O76873   6.712   0.923   7.522  0.6303 -0.2844  0.6556
  570MOL0     C76874   6.796   0.820   7.578 -0.7293 -0.7783 -0.2137
  570MOL0     C76875   6.917   0.898   7.652  0.9326  0.0175 -0.1415
  570MOL0     C76876   7.001   0.983   7.555  1.0065  1.0142  0.3762
  570MOL0     C76877   7.124   1.033   7.639 -0.5977  0.0324  0.5437
  570MOL0     C76878   7.217   1.094   7.546  0.2460  0.2421  0.4999
  570MOL0     C76879   7.293   1.150   7.472 -0.8030 -0.0670  0.3484
  570MOL0     C76880   6.492   1.013   7.516  0.1403  0.1823  0.8013
  570MOL0     C76881   6.359   1.002   7.527  0.0645  0.1154 -0.5480
  570MOL0     C76882   6.272   1.137   7.524 -0.9325  0.0709 -0.2788
  570MOL0     H76883   5.904   0.732   7.654  0.5422  2.4309  1.0965
  570MOL0     H76884   5.663   0.659   7.598  0.4157 -3.2684 -0.2156
  570MOL0     H76885   5.492   0.730   7.211  1.4642 -0.3496  0.2528
  570MOL0     H76886   5.527   0.566   7.165 -0.0295 -2.5751  2.1649
  570MOL0     H76887   5.304   0.658   7.362  0.1372  0.0054 -0.3156
  570MOL0     H76888   5.342   0.490   7.320  0.3913 -0.0892 -0.2083
  570MOL0     H76889   5.293   0.532   7.084  0.5199 -2.7546  2.8378
  570MOL0     H76890   5.245   0.702   7.119  1.8857  0.3639 -0.9467
  570MOL0     H76891   5.100   0.457   7.243 -1.2139  0.0908 -0.0764
  570MOL0     H76892   5.056   0.621   7.258  1.6018 -0.8912  2.1493
  570MOL0     H76893   5.053   0.646   7.003  0.5839 -1.5575 -1.7498
  570MOL0     H76894   5.080   0.468   6.999  0.7914 -0.8713  0.8779
  570MOL0     H76895   4.870   0.438   7.096 -1.2570 -0.5788 -0.0165
  570MOL0     H76896   4.846   0.606   7.153  0.3953  0.5895 -0.2488
  570MOL0     H76897   4.709   0.529   6.942 -0.5452  1.5493  0.0769
  570MOL0     H76898   4.866   0.502   6.874 -1.0777 -0.3787 -0.2843
  570MOL0     H76899   4.924   0.727   6.852 -2.1379  2.1853 -1.2369
  570MOL0     H76900   4.762   0.705   6.780  0.2840  1.6774 -0.9645
  570MOL0     H76901   4.559   0.739   7.007  0.0318 -0.1927 -2.4348
  570MOL0     H76902   4.519   1.095   7.165  4.3583 -0.0185 -1.3687
  570MOL0     H76903   4.408   0.981   7.085 -0.7042  2.1848  2.2923
  570MOL0     H76904   4.410   0.904   7.320  0.2532 -5.4125  1.2582
  570MOL0     H76905   4.524   0.802   7.256  1.2564  0.8116 -0.2578
  570MOL0     H76906   4.582   1.062   7.413  2.5168  2.3571 -0.3873
  570MOL0     H76907   4.693   1.007   7.298 -0.0432  1.3073 -0.0466
  570MOL0     H76908   4.693   0.770   7.416  0.7874  1.2271 -0.5177
  570MOL0     H76909   4.600   0.853   7.536  0.4509 -1.4062  0.0095
  570MOL0     H76910   4.862   0.821   7.288 -0.9044  0.6109  1.5082
  570MOL0     H76911   5.074   0.858   7.159 -0.8590 -0.4768  0.4977
  570MOL0     H76912   5.596   0.953   7.500 -1.6137  3.5925  2.3607
  570MOL0     H76913   5.820   1.042   7.474 -0.0764 -1.2150  0.5004
  570MOL0     H76914   5.944   1.254   7.099  2.9865 -1.8747  0.9432
  570MOL0     H76915   5.896   1.383   7.218 -3.0055 -1.7701  0.0073
  570MOL0     H76916   6.118   1.376   7.313 -0.9121 -0.7131 -0.5723
  570MOL0     H76917   6.176   1.244   7.194  0.8781  0.8217 -0.7818
  570MOL0     H76918   6.139   1.393   7.015 -0.5321 -2.4145  0.7781
  570MOL0     H76919   6.080   1.516   7.121  0.5749  0.0493 -1.5936
  570MOL0     H76920   6.370   1.412   7.159  4.0705  2.8843 -0.6699
  570MOL0     H76921   6.294   1.538   7.240  0.2433 -1.0309 -0.4586
  570MOL0     H76922   6.420   1.634   7.084 -1.0265 -0.3798  2.1121
  570MOL0     H76923   6.268   1.650   7.000 -0.1498 -1.7445 -3.4620
  570MOL0     H76924   6.467   1.434   6.930  0.0175  1.2532  1.2411
  570MOL0     H76925   6.302   1.441   6.865  0.7356 -0.2885 -1.0170
  570MOL0     H76926   6.531   1.652   6.813 -0.5188  1.2218  0.5248
  570MOL0     H76927   6.370   1.674   6.767  1.0064  0.3904 -0.1493
  570MOL0     H76928   6.406   1.436   6.653  0.7211  0.1137 -1.2514
  570MOL0     H76929   6.411   1.603   6.578 -0.7990  1.9289  0.5716
  570MOL0     H76930   5.704   1.260   7.124  0.2467 -2.6032 -2.1102
  570MOL0     H76931   5.495   1.160   7.128 -0.5888  1.1179  1.0424
  570MOL0     H76932   5.206   1.080   7.519  0.0336 -3.3616  3.9395
  570MOL0     H76933   4.985   0.999   7.630 -1.3041  0.0274 -0.1498
  570MOL0     H76934   5.764   0.637   7.181 -0.9417 -0.6903  0.7501
  570MOL0     H76935   5.985   0.716   7.232 -0.2191  2.0407  0.9469
  570MOL0     H76936   6.330   0.663   7.504 -1.8342  0.4973 -4.7227
  570MOL0     H76937   6.586   0.699   7.481  3.0924  1.9130  2.6030
  570MOL0     H76938   6.831   0.748   7.504 -3.0147 -1.7817 -0.4131
  570MOL0     H76939   6.750   0.757   7.655  1.5892 -1.7277  0.5033
  570MOL0     H76940   6.972   0.831   7.719  2.0988  0.3885 -0.7099
  570MOL0     H76941   6.885   0.974   7.723  3.7001  1.0343  0.1455
  570MOL0     H76942   6.950   1.073   7.522 -2.2643 -0.3560  1.3025
  570MOL0     H76943   7.043   0.922   7.474  1.8302  1.6225  0.3259
  570MOL0     H76944   7.082   1.109   7.705  2.7628  4.3058 -1.6977
  570MOL0     H76945   7.172   0.947   7.687 -1.7239 -2.0741 -1.8372
  570MOL0     H76946   7.379   1.181   7.416 -0.0940 -1.1711  0.7683
  570MOL0     H76947   6.536   1.111   7.530 -0.6677  0.3036  2.7661
  570MOL0     H76948   6.219   1.142   7.619 -0.2172  1.0887  0.0872
  570MOL0     H76949   6.340   1.222   7.510  0.3608 -0.9958 -0.7205
  570MOL0     H76950   6.207   1.135   7.436 -2.2253 -0.6482  0.6676
  571MOL0     O76951   6.643   1.581   8.676  0.6373 -0.0054 -0.1289
  571MOL0     C76952   6.683   1.532   8.779  0.4440  0.0248 -0.7332
  571MOL0     O76953   6.608   1.488   8.889 -0.1333 -0.0493 -0.4605
  571MOL0     C76954   6.471   1.458   8.863  0.5220 -0.1480  0.1564
  571MOL0     C76955   6.437   1.337   8.793  0.0775 -0.0052 -0.6848
  571MOL0     C76956   6.299   1.306   8.773  0.0535  1.3547 -0.5274
  571MOL0     C76957   6.200   1.405   8.795  0.3181  0.1490  0.9843
  571MOL0     O76958   6.071   1.382   8.761  0.4274  0.0758  0.4772
  571MOL0     C76959   5.967   1.464   8.820  0.2832  0.0956 -0.1626
  571MOL0     C76960   5.839   1.398   8.770 -0.3580  0.0183 -1.2419
  571MOL0     C76961   5.715   1.478   8.819 -0.0857  0.6073  0.7470
  571MOL0     C76962   5.656   1.414   8.946  0.8475  0.1384 -0.6906
  571MOL0     C76963   5.586   1.522   9.031  1.6976 -0.6513 -0.4590
  571MOL0     C76964   5.439   1.554   8.985 -0.2944 -0.7010 -0.3979
  571MOL0     C76965   5.382   1.665   9.066 -1.2876 -0.6311  1.0483
  571MOL0     C76966   5.442   1.804   9.023  0.4603  0.1602  0.3529
  571MOL0     N76967   5.374   1.846   8.899 -0.1192 -0.5705 -0.3872
  571MOL0     C76968   5.449   1.875   8.786 -0.3204 -0.5235  0.4901
  571MOL0     C76969   5.359   1.926   8.690  0.8021 -0.2611 -0.6235
  571MOL0     C76970   5.390   1.955   8.553 -0.0995  0.2672  0.3047
  571MOL0     C76971   5.526   2.017   8.529 -0.5942 -0.5307 -0.2753
  571MOL0     C76972   5.512   2.174   8.537  0.2099 -0.4596  0.0212
  571MOL0     C76973   5.638   2.250   8.501 -0.0256 -0.0197  0.3881
  571MOL0     O76974   5.743   2.212   8.579 -0.9200 -0.2606  0.3857
  571MOL0     C76975   5.868   2.225   8.527 -0.9912  0.7987 -0.4205
  571MOL0     C76976   5.928   2.350   8.506 -0.5761  0.5986  0.0652
  571MOL0     C76977   6.061   2.367   8.463  0.1019  0.1185 -1.0496
  571MOL0     C76978   6.139   2.255   8.444  0.5711  0.8595  0.0663
  571MOL0     C76979   6.285   2.257   8.415 -0.1049  0.0334  0.6714
  571MOL0     O76980   6.341   2.139   8.377 -0.0032  0.0997 -0.5986
  571MOL0     C76981   6.476   2.122   8.362  1.1088  1.1570 -1.0204
  571MOL0     C76982   6.554   2.206   8.276 -0.1345 -0.5784  0.2569
  571MOL0     C76983   6.690   2.195   8.271 -0.6756 -0.0670 -0.5478
  571MOL0     C76984   6.754   2.093   8.340 -0.2469 -0.7535 -0.1454
  571MOL0     O76985   6.887   2.073   8.319  0.1712  0.1256  0.2880
  571MOL0     C76986   6.971   2.022   8.425 -0.7502 -0.9619 -0.5779
  571MOL0     C76987   7.125   2.015   8.401 -0.0066  0.4543  0.1112
  571MOL0     C76988   7.170   2.146   8.325  0.0226  0.2673  0.4229
  571MOL0     C76989   7.318   2.132   8.289 -0.4279 -0.6424 -0.9114
  571MOL0     C76990   7.383   2.249   8.220  0.2017 -0.1415 -0.9374
  571MOL0     C76991   7.530   2.290   8.263  0.4164 -0.1691  0.2948
  571MOL0     C76992   7.636   2.206   8.196 -0.8515  0.2122 -0.3614
  571MOL0     C76993   7.781   2.244   8.237  0.1255  0.1216 -0.8483
  571MOL0    Cl76994   7.853   2.123   8.357  0.1336  0.4548  0.1111
  571MOL0     C76995   6.680   2.011   8.420  0.8078  0.1986 -0.4854
  571MOL0     C76996   6.538   2.017   8.430  0.8939 -0.7589  0.6511
  571MOL0     O76997   6.341   2.366   8.410 -0.0044 -0.2050 -0.3777
  571MOL0     C76998   6.074   2.127   8.448  0.9596  0.4054 -0.1793
  571MOL0     C76999   5.942   2.111   8.486  0.3580  0.1878 -0.1083
  571MOL0     N77000   5.234   1.939   8.755  0.1664 -0.7434  0.4909
  571MOL0     N77001   5.251   1.899   8.881 -0.6817 -0.0818  0.3551
  571MOL0     C77002   6.240   1.526   8.865  0.9155 -0.2075 -0.0708
  571MOL0     C77003   6.369   1.550   8.900  0.2460  0.0905 -0.5363
  571MOL0     C77004   6.834   1.517   8.804  0.0513 -0.7185  0.2603
  571MOL0     C77005   6.913   1.483   8.696 -0.0326  0.8456  0.2780
  571MOL0     C77006   7.050   1.463   8.707 -0.4197 -0.2549 -0.1623
  571MOL0     C77007   7.108   1.465   8.834  0.3787  0.2811 -0.1114
  571MOL0     O77008   7.236   1.432   8.861 -0.2609  0.0507  0.0064
  571MOL0     C77009   7.311   1.358   8.760  0.8977  0.5566 -0.0340
  571MOL0     C77010   7.460   1.352   8.801  0.5961 -0.6423 -0.6688
  571MOL0     C77011   7.548   1.269   8.710 -0.2193 -0.1448  0.2440
  571MOL0     C77012   7.686   1.234   8.769  0.6758 -0.1813  0.7798
  571MOL0     C77013   7.761   1.351   8.818 -0.0429 -0.5434 -0.1237
  571MOL0     C77014   7.843   1.437   8.848 -0.0029  0.6546  0.6083
  571MOL0     C77015   7.026   1.505   8.945 -0.2645 -0.7149 -0.3022
  571MOL0     C77016   6.892   1.541   8.930  0.5388 -0.1262  0.6575
  571MOL0     C77017   6.823   1.613   9.041 -0.1079  0.7820  0.1213
  571MOL0     H77018   6.519   1.276   8.757  0.3471  0.0380 -0.1663
  571MOL0     H77019   6.277   1.208   8.731  1.6577  0.1626  1.2680
  571MOL0     H77020   5.959   1.458   8.929 -1.4364 -5.1015 -0.3176
  571MOL0     H77021   5.962   1.569   8.790  0.7974  1.1634  3.1005
  571MOL0     H77022   5.833   1.294   8.803  0.9591  0.5611  0.9163
  571MOL0     H77023   5.836   1.395   8.661  0.1044 -0.3772 -1.2457
  571MOL0     H77024   5.634   1.477   8.744  0.9286 -1.4486 -0.4240
  571MOL0     H77025   5.741   1.583   8.828 -0.9539  0.9005  0.0781
  571MOL0     H77026   5.588   1.330   8.926 -0.8898  1.0473  1.0479
  571MOL0     H77027   5.730   1.373   9.015 -0.5903  0.0952  0.9250
  571MOL0     H77028   5.565   1.483   9.131 -1.3983  0.8448 -0.4142
  571MOL0     H77029   5.648   1.610   9.053  2.3770 -0.9981 -0.9464
  571MOL0     H77030   5.434   1.565   8.876 -1.7761  1.3263 -0.1976
  571MOL0     H77031   5.371   1.469   8.992 -3.1561  0.9926 -4.0274
  571MOL0     H77032   5.413   1.644   9.169 -1.6853 -0.7876  1.1400
  571MOL0     H77033   5.273   1.666   9.064 -1.3354  1.2231 -1.9148
  571MOL0     H77034   5.414   1.882   9.095  0.3448  0.0610  0.4167
  571MOL0     H77035   5.551   1.812   9.016  0.4253  2.6286  1.4444
  571MOL0     H77036   5.556   1.866   8.774  0.0229  2.8435  0.0289
  571MOL0     H77037   5.388   1.870   8.484  4.2562  1.0562 -1.0625
  571MOL0     H77038   5.309   2.013   8.507 -1.4866 -1.4167  0.4848
  571MOL0     H77039   5.609   1.987   8.593  1.9169  0.0454 -3.0307
  571MOL0     H77040   5.556   1.984   8.429 -1.1350 -1.8853 -0.0057
  571MOL0     H77041   5.488   2.201   8.641  2.0469  1.4793  0.0234
  571MOL0     H77042   5.438   2.212   8.467  1.7516  0.8163 -0.9691
  571MOL0     H77043   5.621   2.355   8.525 -0.1549  0.1729 -0.4840
  571MOL0     H77044   5.663   2.235   8.395 -0.9334  0.5186  0.0842
  571MOL0     H77045   5.875   2.435   8.548  0.8514  1.5712 -0.0200
  571MOL0     H77046   6.106   2.465   8.475 -0.6831  0.2229  2.0441
  571MOL0     H77047   6.502   2.282   8.218  1.6050  0.6115  0.1952
  571MOL0     H77048   6.760   2.254   8.213  0.5218  3.1531  3.6224
  571MOL0     H77049   6.962   2.083   8.516  1.9261 -2.2693  0.6923
  571MOL0     H77050   6.954   1.917   8.451  1.2238 -1.2574 -0.3394
  571MOL0     H77051   7.184   2.002   8.492  1.7530 -0.9538 -1.1621
  571MOL0     H77052   7.138   1.930   8.334 -0.2500  1.7549 -1.6438
  571MOL0     H77053   7.109   2.167   8.236  1.3880 -0.5035 -0.7258
  571MOL0     H77054   7.154   2.226   8.398 -0.2589  0.0149  0.6360
  571MOL0     H77055   7.339   2.046   8.226  4.1829 -0.8623  0.5639
  571MOL0     H77056   7.374   2.112   8.380 -0.1458 -1.5028 -1.2709
  571MOL0     H77057   7.314   2.331   8.244 -0.7915 -0.7472 -1.6815
  571MOL0     H77058   7.379   2.232   8.112 -2.6827  1.8960 -1.2616
  571MOL0     H77059   7.545   2.394   8.234 -2.9913  1.1043  2.3645
  571MOL0     H77060   7.525   2.286   8.373 -0.3076  2.4075  0.4195
  571MOL0     H77061   7.627   2.210   8.087  1.6869 -0.1059 -0.6458
  571MOL0     H77062   7.632   2.102   8.228  2.0627 -1.2142 -3.8127
  571MOL0     H77063   7.840   2.256   8.146  1.7418 -1.7416 -0.1084
  571MOL0     H77064   7.757   2.337   8.291 -3.1067 -0.2548 -1.4262
  571MOL0     H77065   6.727   1.935   8.481 -1.1860 -0.7943 -0.1249
  571MOL0     H77066   6.487   1.950   8.499 -1.9106  0.1721 -0.3843
  571MOL0     H77067   6.126   2.037   8.417  0.9746  0.0034  0.9779
  571MOL0     H77068   5.915   2.009   8.513  0.3780  0.8676  2.7749
  571MOL0     H77069   6.170   1.606   8.885  2.4069  1.0750  0.2598
  571MOL0     H77070   6.396   1.635   8.961 -3.5818 -0.0725  1.7284
  571MOL0     H77071   6.861   1.476   8.601  0.1724  0.7922  0.1687
  571MOL0     H77072   7.103   1.440   8.615  0.3411  0.3580  0.1145
  571MOL0     H77073   7.303   1.398   8.658 -0.2968 -2.3695 -1.1902
  571MOL0     H77074   7.271   1.258   8.742  0.9929  0.8744 -2.2765
  571MOL0     H77075   7.462   1.309   8.902  1.7500  3.8144  1.4793
  571MOL0     H77076   7.502   1.453   8.799 -1.5661  0.3459  0.2506
  571MOL0     H77077   7.571   1.324   8.618 -1.9875 -2.5426 -1.7945
  571MOL0     H77078   7.495   1.178   8.679  0.8795 -1.2903  1.5643
  571MOL0     H77079   7.676   1.157   8.846  3.3720  0.0777  1.4997
  571MOL0     H77080   7.740   1.185   8.687 -0.6447 -0.8751  0.2990
  571MOL0     H77081   7.918   1.508   8.875 -2.8264  4.2552 -0.1964
  571MOL0     H77082   7.088   1.533   9.029 -1.0590 -0.9167  0.3640
  571MOL0     H77083   6.740   1.551   9.077  1.3832 -0.0693  2.3333
  571MOL0     H77084   6.893   1.636   9.122 -0.3214 -0.1383  0.5780
  571MOL0     H77085   6.774   1.706   9.013  0.7874  2.6392  4.0387
  572MOL0     O77086   7.742   4.345   0.510  0.4671 -0.3027  0.2981
  572MOL0     C77087   7.717   4.323   0.396  0.1642  0.5502 -0.7358
  572MOL0     O77088   7.736   4.203   0.337 -0.2835  0.6856  0.0381
  572MOL0     C77089   7.818   4.102   0.397  0.7448 -0.2149 -0.3124
  572MOL0     C77090   7.738   3.989   0.424 -0.0968 -0.9091 -0.7148
  572MOL0     C77091   7.797   3.879   0.481 -0.3865 -0.2377 -0.6315
  572MOL0     C77092   7.938   3.883   0.515 -0.1335 -0.1048  0.8699
  572MOL0     O77093   8.005   3.774   0.572  2.0083 -0.2449  0.2903
  572MOL0     C77094   8.009   3.781   0.715 -0.8274 -0.7500  0.6702
  572MOL0     C77095   8.085   3.655   0.775  1.1035 -0.9762  0.6433
  572MOL0     C77096   8.246   3.650   0.755  0.3330 -0.1903  0.1957
  572MOL0     C77097   8.329   3.736   0.855  0.0384 -0.9440 -0.6725
  572MOL0     C77098   8.466   3.685   0.891 -0.0862  0.3581  0.5429
  572MOL0     C77099   8.470   3.540   0.961 -0.0280 -0.8027 -0.3861
  572MOL0     C77100   8.612   3.495   0.999  0.0972  0.0371  0.1719
  572MOL0     C77101   8.671   3.573   1.111 -1.0071 -0.1976 -1.0725
  572MOL0     N77102   8.809   3.524   1.146  0.0499 -0.5939 -0.0667
  572MOL0     C77103   8.912   3.584   1.075 -0.0858 -0.0760 -0.0723
  572MOL0     C77104   9.015   3.495   1.055  0.1810  0.0987 -0.7080
  572MOL0     C77105   9.140   3.519   0.960  0.2553  0.5005  0.0256
  572MOL0     C77106   9.276   3.489   1.025 -0.3192 -0.4885  0.4463
  572MOL0     C77107   9.316   3.601   1.119  0.3089  0.0469  0.0128
  572MOL0     C77108   9.462   3.591   1.161  0.0384 -0.8267 -0.8223
  572MOL0     O77109   9.546   3.599   1.046 -0.7032 -0.3788  0.8308
  572MOL0     C77110   9.680   3.593   1.050 -0.1219 -1.0018  0.6902
  572MOL0     C77111   9.757   3.597   1.167  0.4254  0.4925  0.1147
  572MOL0     C77112   9.895   3.593   1.162 -1.0126  0.3456 -0.0147
  572MOL0     C77113   9.962   3.595   1.042 -0.5548  1.0063 -0.3129
  572MOL0     C77114  10.110   3.587   1.028  0.0440  0.5381 -0.3592
  572MOL0     O77115  10.176   3.624   1.149 -0.0508  0.6011  0.8017
  572MOL0     C77116  10.319   3.636   1.136  0.4791 -0.9514  1.0934
  572MOL0     C77117  10.399   3.526   1.149 -0.6962 -0.0522  0.1504
  572MOL0     C77118  10.534   3.537   1.124 -0.6418 -0.3822 -0.2908
  572MOL0     C77119  10.584   3.655   1.087  0.4583 -0.2199  0.4930
  572MOL0     O77120  10.722   3.660   1.090 -0.4323  1.0510  0.2002
  572MOL0     C77121  10.793   3.771   1.021  0.5624  0.0144  0.0322
  572MOL0     C77122  10.943   3.735   1.017  0.9966  0.3341 -0.2648
  572MOL0     C77123  10.948   3.589   0.955 -1.3427  0.2818  0.3564
  572MOL0     C77124  11.074   3.596   0.858  1.1920  0.0555  0.7984
  572MOL0     C77125  11.079   3.460   0.786  0.5514  0.2633 -0.3088
  572MOL0     C77126  11.218   3.411   0.763 -0.3297 -0.7189 -0.6193
  572MOL0     C77127  11.233   3.285   0.684 -0.0077 -0.5412  0.0978
  572MOL0     C77128  11.372   3.282   0.628  0.1227  0.8433 -0.8449
  572MOL0    Cl77129  11.513   3.296   0.747  0.1778  0.3758  0.5858
  572MOL0     C77130  10.510   3.766   1.065  0.0793 -0.3496  0.3580
  572MOL0     C77131  10.375   3.757   1.094 -0.5469 -0.3557 -0.7655
  572MOL0     O77132  10.170   3.556   0.923  0.3604  0.2138  1.0497
  572MOL0     C77133   9.887   3.599   0.922 -0.8527 -0.1818 -0.2556
  572MOL0     C77134   9.750   3.605   0.933 -0.0162 -0.4522 -1.0281
  572MOL0     N77135   8.968   3.377   1.122 -1.1737 -0.0674  0.4433
  572MOL0     N77136   8.850   3.394   1.167 -0.4537  0.3363  0.2409
  572MOL0     C77137   8.017   3.995   0.467 -0.6251 -0.0419  0.4723
  572MOL0     C77138   7.955   4.102   0.418 -0.2737  0.1226 -0.4563
  572MOL0     C77139   7.647   4.423   0.319  0.4674  0.1492 -0.5383
  572MOL0     C77140   7.548   4.378   0.236 -0.2648  0.2517 -0.6087
  572MOL0     C77141   7.466   4.470   0.172  0.2845  0.3924 -0.9477
  572MOL0     C77142   7.478   4.602   0.187 -0.1198 -0.2389  0.5230
  572MOL0     O77143   7.402   4.692   0.107 -1.0544  0.1514 -0.1170
  572MOL0     C77144   7.471   4.815   0.060  0.9255 -0.1403  0.1101
  572MOL0     C77145   7.399   4.866  -0.063 -0.0040  0.2736  0.1354
  572MOL0     C77146   7.434   4.762  -0.179 -0.9092  0.6788 -0.2973
  572MOL0     C77147   7.518   4.826  -0.291  0.0695  1.0943 -0.5184
  572MOL0     C77148   7.663   4.833  -0.254 -0.2126  1.4156 -0.6779
  572MOL0     C77149   7.781   4.833  -0.242 -0.4871  0.3763  0.2870
  572MOL0     C77150   7.565   4.647   0.276 -0.4998 -0.3387  0.8158
  572MOL0     C77151   7.662   4.563   0.336  0.1283  0.3137 -0.2612
  572MOL0     C77152   7.783   4.625   0.397  0.0517 -0.6112 -0.5058
  572MOL0     H77153   7.637   3.996   0.386  0.1526  0.4527 -1.1471
  572MOL0     H77154   7.739   3.791   0.505  0.4084 -0.4707  0.5358
  572MOL0     H77155   8.035   3.877   0.758 -0.9322  0.1773 -1.2340
  572MOL0     H77156   7.908   3.745   0.739 -0.9071 -1.1424 -0.2001
  572MOL0     H77157   8.045   3.564   0.729  0.0220  0.0669 -0.5480
  572MOL0     H77158   8.069   3.647   0.883  0.8488 -0.7325  0.6252
  572MOL0     H77159   8.278   3.675   0.654  1.0994  1.2419  0.7659
  572MOL0     H77160   8.261   3.542   0.761  0.3759 -0.2530 -0.7991
  572MOL0     H77161   8.327   3.840   0.822 -1.5012 -0.8083 -0.2368
  572MOL0     H77162   8.273   3.745   0.948 -1.9347  1.4411 -1.9865
  572MOL0     H77163   8.534   3.670   0.806  2.3442 -1.0724  2.5915
  572MOL0     H77164   8.506   3.770   0.947  1.7244  1.1630 -1.7901
  572MOL0     H77165   8.404   3.546   1.047 -0.6555 -3.1384 -0.6359
  572MOL0     H77166   8.425   3.469   0.890  1.3451 -0.8246 -1.2754
  572MOL0     H77167   8.690   3.503   0.923  2.0707  0.1767  2.0857
  572MOL0     H77168   8.614   3.392   1.038  0.4401  1.5845  4.8019
  572MOL0     H77169   8.677   3.680   1.092  0.6778 -0.1000 -0.1757
  572MOL0     H77170   8.602   3.553   1.194  0.1931 -3.7846 -0.7593
  572MOL0     H77171   8.926   3.684   1.034  0.6790 -0.8571 -1.7964
  572MOL0     H77172   9.131   3.450   0.875  2.0694  0.5482 -0.2402
  572MOL0     H77173   9.132   3.619   0.917 -0.0050  0.0208 -1.0666
  572MOL0     H77174   9.266   3.394   1.077 -1.6190 -1.0872 -0.8203
  572MOL0     H77175   9.356   3.472   0.952  0.5416 -0.9117  1.4676
  572MOL0     H77176   9.262   3.571   1.209 -0.7134 -0.4993 -0.7594
  572MOL0     H77177   9.280   3.698   1.081  3.3118  0.8093 -1.1560
  572MOL0     H77178   9.486   3.497   1.212 -2.6674 -0.6378  0.9855
  572MOL0     H77179   9.478   3.675   1.229 -2.2214  0.1060 -1.3624
  572MOL0     H77180   9.718   3.599   1.268 -1.0327 -1.3107 -0.3555
  572MOL0     H77181   9.954   3.588   1.253  0.2608  1.4294 -0.7514
  572MOL0     H77182  10.342   3.438   1.178  2.9030 -1.6834  3.0942
  572MOL0     H77183  10.601   3.451   1.125  1.1617  0.9290 -1.5593
  572MOL0     H77184  10.758   3.782   0.918 -1.3917 -2.5837  0.3305
  572MOL0     H77185  10.765   3.861   1.077  1.2773  0.3329 -0.1103
  572MOL0     H77186  11.001   3.810   0.963  0.2212  1.1042 -0.0472
  572MOL0     H77187  10.976   3.733   1.122  2.8831 -0.3834 -0.8235
  572MOL0     H77188  10.973   3.516   1.033  0.0204 -1.2777 -1.4389
  572MOL0     H77189  10.859   3.558   0.901 -1.0740  3.0718 -1.9519
  572MOL0     H77190  11.168   3.610   0.912  2.9746 -1.9885 -1.5568
  572MOL0     H77191  11.071   3.679   0.787 -0.2129  0.2954  1.1083
  572MOL0     H77192  11.031   3.457   0.688 -1.0331  1.2563  0.3988
  572MOL0     H77193  11.034   3.383   0.849  2.5860 -0.6664  0.0916
  572MOL0     H77194  11.283   3.487   0.721 -0.0615 -1.8312 -2.3032
  572MOL0     H77195  11.255   3.387   0.863 -0.3737  3.0135  0.4420
  572MOL0     H77196  11.159   3.272   0.605 -0.0683  0.8917 -0.1010
  572MOL0     H77197  11.225   3.201   0.754  1.0768 -0.1694  0.6983
  572MOL0     H77198  11.377   3.189   0.570  1.1938 -0.3501  1.0370
  572MOL0     H77199  11.368   3.357   0.548 -1.4555  0.6947 -0.9357
  572MOL0     H77200  10.553   3.862   1.039 -1.4174  0.5713  1.1237
  572MOL0     H77201  10.317   3.848   1.087 -1.5041 -0.7416  1.2536
  572MOL0     H77202   9.931   3.603   0.823 -1.6473 -0.6824 -0.6398
  572MOL0     H77203   9.697   3.620   0.839  2.1975  1.0055 -2.1416
  572MOL0     H77204   8.123   3.998   0.491 -0.8065 -2.6023  1.8504
  572MOL0     H77205   8.023   4.181   0.387 -0.2081  0.3406  0.2217
  572MOL0     H77206   7.531   4.272   0.218 -0.2965  0.0278  0.6491
  572MOL0     H77207   7.397   4.415   0.108  1.2878 -1.1329 -0.7844
  572MOL0     H77208   7.573   4.792   0.029  0.4996 -1.5234 -0.3293
  572MOL0     H77209   7.483   4.891   0.137  1.2318  0.8559 -0.8906
  572MOL0     H77210   7.431   4.965  -0.097  1.4546 -0.0543  0.4641
  572MOL0     H77211   7.293   4.868  -0.036  0.6258 -0.8872  3.0600
  572MOL0     H77212   7.344   4.721  -0.226  1.4438 -2.0660 -2.8749
  572MOL0     H77213   7.492   4.674  -0.148  1.4126  1.2833 -2.6194
  572MOL0     H77214   7.506   4.768  -0.383  0.6676  0.8878 -0.4710
  572MOL0     H77215   7.491   4.929  -0.316  0.7731  1.5982  0.7072
  572MOL0     H77216   7.885   4.822  -0.219  0.0882  1.7159 -1.4514
  572MOL0     H77217   7.578   4.749   0.311  1.3076 -1.0864  2.5392
  572MOL0     H77218   7.776   4.726   0.438  0.0624 -0.3060 -1.2418
  572MOL0     H77219   7.827   4.563   0.476  1.6676  1.9634  0.7371
  572MOL0     H77220   7.851   4.641   0.313 -1.8541  2.0353 -1.6774
  573MOL0     O77221   1.405   4.683   7.804 -0.4477  0.1353 -0.3716
  573MOL0     C77222   1.363   4.572   7.777  0.0915  0.6918 -1.1048
  573MOL0     O77223   1.345   4.468   7.870 -0.1330 -1.3492 -0.6143
  573MOL0     C77224   1.437   4.469   7.977  0.0572 -0.4021  1.2024
  573MOL0     C77225   1.571   4.488   7.969  0.0195  0.4434 -0.3954
  573MOL0     C77226   1.652   4.500   8.085  0.8956  0.1274 -0.4499
  573MOL0     C77227   1.597   4.488   8.218 -0.0444 -0.4736  0.6445
  573MOL0     O77228   1.667   4.502   8.335 -0.9904 -0.0222 -0.0766
  573MOL0     C77229   1.778   4.598   8.332  0.3573  0.4452 -0.1451
  573MOL0     C77230   1.851   4.579   8.458  1.0404 -1.1959 -0.1641
  573MOL0     C77231   1.974   4.676   8.477 -0.5179  0.7614 -1.1108
  573MOL0     C77232   2.021   4.670   8.627 -1.0022  0.3390 -0.1439
  573MOL0     C77233   2.152   4.735   8.650  0.8320 -1.2891 -0.9866
  573MOL0     C77234   2.173   4.873   8.588 -0.4730 -0.4158  0.6171
  573MOL0     C77235   2.313   4.944   8.620  0.2448  0.0958 -0.4446
  573MOL0     C77236   2.351   4.930   8.763 -0.1633 -0.6208  0.5535
  573MOL0     N77237   2.481   4.981   8.800 -0.2403 -0.3655  0.1496
  573MOL0     C77238   2.509   5.107   8.846 -0.4644  0.6067 -0.9635
  573MOL0     C77239   2.643   5.119   8.834  0.4227 -0.0054  0.3886
  573MOL0     C77240   2.733   5.231   8.891  1.1790  0.6477  0.3921
  573MOL0     C77241   2.806   5.303   8.769  0.1322  0.8873  0.0182
  573MOL0     C77242   2.912   5.402   8.800  0.3953  0.6513  0.2451
  573MOL0     C77243   2.963   5.450   8.659 -0.7380 -0.3850  0.3342
  573MOL0     O77244   3.046   5.348   8.606 -0.0911  0.3502  0.3663
  573MOL0     C77245   3.106   5.380   8.484 -0.3094 -0.0030  0.1339
  573MOL0     C77246   3.173   5.277   8.414  0.6708  0.1547  0.8785
  573MOL0     C77247   3.225   5.311   8.284 -0.1327  1.1973  0.4822
  573MOL0     C77248   3.197   5.423   8.217 -0.3144  0.0774  0.3934
  573MOL0     C77249   3.231   5.447   8.076  0.7722 -0.3090 -0.1750
  573MOL0     O77250   3.301   5.351   8.007  0.0865  0.2326  0.3644
  573MOL0     C77251   3.393   5.391   7.908 -0.1618  0.2048  0.2055
  573MOL0     C77252   3.440   5.517   7.869  0.0877 -0.2943 -1.5473
  573MOL0     C77253   3.545   5.536   7.784 -0.1634  0.1146 -0.4042
  573MOL0     C77254   3.593   5.432   7.704 -0.5391 -0.4823  0.7764
  573MOL0     O77255   3.697   5.454   7.603  0.6927  0.8031 -0.4260
  573MOL0     C77256   3.736   5.582   7.573  0.2927  0.0796 -0.4717
  573MOL0     C77257   3.812   5.578   7.437 -0.5671 -0.3364 -0.2545
  573MOL0     C77258   3.965   5.553   7.464  0.7380 -0.0870 -0.2342
  573MOL0     C77259   4.044   5.553   7.336  1.0771  0.3544  0.2776
  573MOL0     C77260   4.194   5.526   7.356 -0.4222  0.3186 -0.0069
  573MOL0     C77261   4.289   5.548   7.231  0.6073 -0.6004 -0.9877
  573MOL0     C77262   4.307   5.691   7.171  0.3110  0.1568 -0.7706
  573MOL0     C77263   4.379   5.798   7.263 -0.9654  0.7052 -0.3187
  573MOL0    Cl77264   4.555   5.779   7.235 -0.4740 -0.4376  0.2844
  573MOL0     C77265   3.553   5.302   7.739  0.9573  0.4516  0.0449
  573MOL0     C77266   3.451   5.282   7.833 -0.1467  0.0516  0.2397
  573MOL0     O77267   3.222   5.565   8.044 -0.4135  0.0129 -0.3718
  573MOL0     C77268   3.133   5.523   8.290  0.5461 -0.6997  1.0431
  573MOL0     C77269   3.095   5.504   8.419 -0.4804  0.0721  0.5007
  573MOL0     N77270   2.689   5.012   8.764  1.3755  0.3716  0.4732
  573MOL0     N77271   2.591   4.937   8.744 -0.4794 -0.5528  0.3306
  573MOL0     C77272   1.456   4.472   8.225  0.2244  0.2752 -0.0983
  573MOL0     C77273   1.381   4.459   8.107 -0.6033  0.8384  0.0646
  573MOL0     C77274   1.309   4.547   7.651  0.2270 -0.1227  0.7031
  573MOL0     C77275   1.230   4.428   7.638 -0.0381 -0.7703 -0.1501
  573MOL0     C77276   1.166   4.387   7.524  0.0859 -0.1092 -0.1198
  573MOL0     C77277   1.178   4.477   7.412 -0.3096  0.7907 -0.4873
  573MOL0     O77278   1.126   4.449   7.291  0.1618 -0.0055  0.7484
  573MOL0     C77279   1.170   4.324   7.222 -0.5743 -1.3578 -1.0969
  573MOL0     C77280   1.136   4.354   7.069 -0.3501 -0.1452  1.0389
  573MOL0     C77281   1.225   4.467   7.016  0.4195 -0.2560  0.7909
  573MOL0     C77282   1.221   4.450   6.871  0.7429  0.0470  0.4374
  573MOL0     C77283   1.263   4.570   6.798  0.0401  0.0109 -0.0163
  573MOL0     C77284   1.297   4.666   6.736 -1.1436  0.0185 -0.3809
  573MOL0     C77285   1.261   4.586   7.422 -0.2946 -0.5160 -0.5811
  573MOL0     C77286   1.334   4.629   7.536  0.4797  1.0782 -0.3098
  573MOL0     C77287   1.451   4.729   7.518 -0.4343  0.1805 -0.2652
  573MOL0     H77288   1.607   4.523   7.873 -1.0480  0.1582 -0.9239
  573MOL0     H77289   1.754   4.533   8.073  0.3622  2.4177  0.6987
  573MOL0     H77290   1.839   4.575   8.244  1.9384 -1.3338  1.3283
  573MOL0     H77291   1.739   4.699   8.316  1.2056  0.8389  0.2170
  573MOL0     H77292   1.889   4.476   8.462 -0.6824 -1.8235  1.0587
  573MOL0     H77293   1.780   4.596   8.539  0.5787  0.5401 -0.8899
  573MOL0     H77294   1.941   4.778   8.454 -3.3857  0.5338  1.4127
  573MOL0     H77295   2.060   4.647   8.415  1.6146  1.2569  1.4103
  573MOL0     H77296   1.951   4.730   8.687 -0.4388  0.5725  0.2901
  573MOL0     H77297   2.027   4.571   8.673 -0.9965  1.6985  3.0287
  573MOL0     H77298   2.169   4.741   8.758  1.0899  0.2806 -1.0873
  573MOL0     H77299   2.222   4.662   8.610  1.8746 -0.5148 -0.6266
  573MOL0     H77300   2.167   4.872   8.479 -0.3433 -1.0596  0.6141
  573MOL0     H77301   2.091   4.936   8.625 -2.9278 -1.7556 -2.1145
  573MOL0     H77302   2.313   5.050   8.593  2.3459  0.9814  2.5355
  573MOL0     H77303   2.385   4.899   8.552  0.1208 -4.2023  1.8817
  573MOL0     H77304   2.273   4.985   8.816 -0.8938 -0.9904 -0.1256
  573MOL0     H77305   2.352   4.824   8.790  2.8267 -1.7339 -3.0780
  573MOL0     H77306   2.435   5.174   8.887 -1.1551 -0.0919 -1.0324
  573MOL0     H77307   2.667   5.306   8.935  1.6864  1.1952  0.2325
  573MOL0     H77308   2.801   5.176   8.956  0.9680 -2.8362 -2.0617
  573MOL0     H77309   2.855   5.227   8.706  0.6355 -0.2964  1.7641
  573MOL0     H77310   2.728   5.358   8.715 -2.4923 -1.6505  0.9915
  573MOL0     H77311   2.989   5.361   8.866 -0.4485 -0.2459  0.6902
  573MOL0     H77312   2.865   5.486   8.851 -0.8184  0.2731 -0.2223
  573MOL0     H77313   3.027   5.532   8.692  0.2117  0.0668 -2.3480
  573MOL0     H77314   2.882   5.483   8.593 -0.3772 -0.4910 -0.1623
  573MOL0     H77315   3.186   5.184   8.467  2.6587 -0.0821  0.0650
  573MOL0     H77316   3.284   5.233   8.237 -1.3418  0.4873  0.0856
  573MOL0     H77317   3.394   5.611   7.898 -0.8768 -1.1911 -0.0021
  573MOL0     H77318   3.583   5.636   7.769 -2.5124  0.9826 -0.9997
  573MOL0     H77319   3.644   5.639   7.554 -1.7268 -3.3276 -1.8642
  573MOL0     H77320   3.806   5.622   7.646  1.7484 -0.0668 -1.7379
  573MOL0     H77321   3.768   5.494   7.383 -1.8360  1.0425 -1.4669
  573MOL0     H77322   3.810   5.678   7.392  0.5197 -0.5400 -0.7950
  573MOL0     H77323   4.005   5.624   7.537 -0.6291 -1.1057  1.6075
  573MOL0     H77324   3.976   5.461   7.522 -0.4789  0.3592  0.7744
  573MOL0     H77325   4.029   5.652   7.292 -0.8105 -0.1041 -0.2185
  573MOL0     H77326   4.001   5.490   7.257 -0.3586 -1.2776  2.2425
  573MOL0     H77327   4.211   5.423   7.390 -1.8911  0.6682  1.9869
  573MOL0     H77328   4.228   5.589   7.439 -0.2826 -0.3401  0.4477
  573MOL0     H77329   4.386   5.518   7.271 -0.4047  1.8612  4.1068
  573MOL0     H77330   4.254   5.468   7.165 -1.1815 -0.3920 -0.3542
  573MOL0     H77331   4.203   5.724   7.160  0.3070  0.6736  0.6222
  573MOL0     H77332   4.364   5.692   7.078 -1.3839  2.7484 -1.9095
  573MOL0     H77333   4.353   5.900   7.235  1.8278  1.9210  1.0938
  573MOL0     H77334   4.366   5.783   7.371  0.7059  2.8381  0.2478
  573MOL0     H77335   3.603   5.220   7.689 -1.9742 -0.2283 -2.0210
  573MOL0     H77336   3.413   5.183   7.853 -3.3049  1.0887 -0.1573
  573MOL0     H77337   3.102   5.614   8.240 -2.1112 -0.4444  2.9402
  573MOL0     H77338   3.033   5.579   8.468 -2.9253 -1.1464 -0.5511
  573MOL0     H77339   1.403   4.455   8.318  1.3768 -3.7531  0.0012
  573MOL0     H77340   1.272   4.453   8.106 -0.7806  2.1807 -3.2957
  573MOL0     H77341   1.209   4.367   7.725  3.5269 -2.7816 -0.4855
  573MOL0     H77342   1.089   4.311   7.534 -0.7789  0.7436 -0.2073
  573MOL0     H77343   1.109   4.244   7.265 -0.3846 -0.4421  0.9550
  573MOL0     H77344   1.272   4.292   7.242 -0.4805 -0.3214  0.2321
  573MOL0     H77345   1.035   4.395   7.062 -0.7634 -0.6927  3.2484
  573MOL0     H77346   1.129   4.264   7.008  0.8320  0.4891 -0.0909
  573MOL0     H77347   1.325   4.464   7.060  0.1110 -3.7982  1.5866
  573MOL0     H77348   1.175   4.559   7.048 -0.8064 -0.3242 -0.7808
  573MOL0     H77349   1.287   4.367   6.846  1.5856  0.1187  2.2912
  573MOL0     H77350   1.120   4.422   6.839  0.9026 -0.2427  0.1859
  573MOL0     H77351   1.319   4.751   6.676 -1.1937  1.5639  1.6907
  573MOL0     H77352   1.271   4.646   7.331  1.2928  0.7792  0.3868
  573MOL0     H77353   1.525   4.711   7.597 -3.0963 -2.0261  1.9015
  573MOL0     H77354   1.505   4.697   7.428  1.1440  0.7438  0.4379
  573MOL0     H77355   1.406   4.829   7.521 -2.4366 -0.6584 -0.7457
  574MOL0     O77356   0.306  10.434   5.735  0.1447  0.1196  0.0452
  574MOL0     C77357   0.247  10.405   5.834 -0.5953 -0.1431  0.7464
  574MOL0     O77358   0.293  10.416   5.958  0.1961  0.1639 -0.4681
  574MOL0     C77359   0.400  10.492   5.991 -0.5821  1.0976  1.8448
  574MOL0     C77360   0.468  10.428   6.100  0.1766  0.1542 -0.3634
  574MOL0     C77361   0.580  10.487   6.143  0.2117 -0.3417  0.0251
  574MOL0     C77362   0.625  10.610   6.089 -0.2492 -0.6589 -0.1553
  574MOL0     O77363   0.747  10.643   6.136  0.1748  0.8223 -0.4924
  574MOL0     C77364   0.785  10.778   6.139  0.8819  1.2295  0.6259
  574MOL0     C77365   0.930  10.795   6.190 -0.1088 -0.4860  0.6053
  574MOL0     C77366   0.997  10.932   6.144  0.0535  0.3119 -0.6748
  574MOL0     C77367   1.110  10.908   6.045 -0.3242 -0.4302  0.0262
  574MOL0     C77368   1.169  11.038   6.000  0.5490 -0.4240 -0.2726
  574MOL0     C77369   1.284  11.015   5.910  0.2998 -0.4366 -0.7508
  574MOL0     C77370   1.341  11.142   5.847 -0.6934  0.6176  0.2447
  574MOL0     C77371   1.456  11.130   5.747  0.0905 -0.1874  0.3052
  574MOL0     N77372   1.522  11.261   5.730 -0.3549 -0.3440 -0.0666
  574MOL0     C77373   1.655  11.296   5.738  0.1617  0.3207 -0.5801
  574MOL0     C77374   1.669  11.407   5.661 -0.7360 -1.1814  0.0822
  574MOL0     C77375   1.791  11.488   5.639  0.0228  0.1521 -0.2153
  574MOL0     C77376   1.779  11.617   5.565  0.0431  0.2693  0.0889
  574MOL0     C77377   1.885  11.733   5.598 -0.0688  0.3474  0.0503
  574MOL0     C77378   2.035  11.684   5.591 -0.2459 -0.0119  0.3530
  574MOL0     O77379   2.110  11.808   5.577  0.3680  0.0875  0.0163
  574MOL0     C77380   2.227  11.824   5.653  0.0547 -0.7238 -0.7557
  574MOL0     C77381   2.345  11.849   5.578  0.9508  0.7741  0.4510
  574MOL0     C77382   2.471  11.873   5.638  0.5198  0.5042 -0.4772
  574MOL0     C77383   2.468  11.896   5.773  0.0356 -0.4736  0.5861
  574MOL0     C77384   2.595  11.913   5.845 -0.4276 -0.6064  0.2886
  574MOL0     O77385   2.716  11.905   5.768 -0.6392  0.2828  0.2392
  574MOL0     C77386   2.841  11.952   5.800  0.0236 -0.1622  0.5549
  574MOL0     C77387   2.864  12.040   5.911  0.1252  0.6271  0.1542
  574MOL0     C77388   2.987  12.090   5.933 -1.2673 -0.0717  0.5031
  574MOL0     C77389   3.101  12.048   5.858  1.4673 -0.2516 -0.8428
  574MOL0     O77390   3.232  12.096   5.877 -0.4529  0.2348  0.0918
  574MOL0     C77391   3.258  12.185   5.981  0.0446  0.7949  0.5902
  574MOL0     C77392   3.375  12.277   5.942 -0.0834 -0.5325  0.2842
  574MOL0     C77393   3.505  12.205   5.944 -0.4064  0.6310  0.3172
  574MOL0     C77394   3.618  12.288   5.885 -0.1595 -0.7767 -0.4560
  574MOL0     C77395   3.748  12.210   5.926  0.1016 -0.0230  1.0096
  574MOL0     C77396   3.880  12.281   5.890 -0.2894 -0.4334  0.5081
  574MOL0     C77397   3.986  12.185   5.939 -1.7737  0.8874 -0.2506
  574MOL0     C77398   4.046  12.095   5.823 -0.4341  0.2734 -0.8784
  574MOL0    Cl77399   4.216  12.080   5.826 -0.0541 -0.4003 -0.4297
  574MOL0     C77400   3.074  11.963   5.753 -0.1123 -0.0816  0.6837
  574MOL0     C77401   2.949  11.917   5.711  0.4765 -0.1356 -0.4090
  574MOL0     O77402   2.582  11.966   5.961 -0.0945  0.2539  0.2516
  574MOL0     C77403   2.354  11.872   5.853  0.6996 -0.2021 -0.1278
  574MOL0     C77404   2.236  11.836   5.788 -0.0751 -0.4826  0.6511
  574MOL0     N77405   1.551  11.445   5.616 -0.8179 -0.1149 -0.5266
  574MOL0     N77406   1.466  11.363   5.655 -0.0271 -0.4870 -0.1586
  574MOL0     C77407   0.550  10.672   5.981  0.9155 -0.1182 -0.1083
  574MOL0     C77408   0.431  10.618   5.940  0.4432 -0.5458 -1.0467
  574MOL0     C77409   0.103  10.369   5.819  0.3905  0.5906 -0.3644
  574MOL0     C77410   0.026  10.317   5.934  0.3251 -0.6758  0.3593
  574MOL0     C77411  -0.101  10.251   5.912 -0.1123 -0.4145  1.2358
  574MOL0     C77412  -0.159  10.240   5.784  0.0451  0.1511  0.2814
  574MOL0     O77413  -0.275  10.168   5.756  0.4314  0.3584  1.0525
  574MOL0     C77414  -0.351  10.105   5.859 -0.6210 -0.8767  0.1249
  574MOL0     C77415  -0.477  10.064   5.792 -0.2118  0.8117  1.0520
  574MOL0     C77416  -0.449   9.971   5.677 -0.6194  0.5042 -0.3697
  574MOL0     C77417  -0.588   9.921   5.627 -0.2071  0.2290 -0.1202
  574MOL0     C77418  -0.666   9.835   5.720  0.4266  0.1856  0.4189
  574MOL0     C77419  -0.720   9.756   5.804  0.2298  0.2037  0.0526
  574MOL0     C77420  -0.089  10.307   5.682  0.0717  0.0067  0.0031
  574MOL0     C77421   0.041  10.367   5.689 -0.4347 -0.1363 -0.9789
  574MOL0     C77422   0.104  10.409   5.555 -0.3767  0.5450 -0.0224
  574MOL0     H77423   0.424  10.334   6.132 -2.1790  0.6826 -1.7737
  574MOL0     H77424   0.636  10.446   6.226 -0.8134 -0.7402  0.5416
  574MOL0     H77425   0.791  10.807   6.034 -0.0708 -2.0421 -0.4655
  574MOL0     H77426   0.706  10.839   6.183 -0.7143 -0.5617  0.3756
  574MOL0     H77427   0.989  10.715   6.145 -1.2046 -1.4463  0.8508
  574MOL0     H77428   0.934  10.788   6.299  0.9935 -3.6554  0.4636
  574MOL0     H77429   1.028  10.972   6.242  0.9857 -1.2357 -0.2993
  574MOL0     H77430   0.923  11.000   6.101 -1.2719 -2.1776 -2.5484
  574MOL0     H77431   1.188  10.856   6.101  0.2908  0.6461  0.1860
  574MOL0     H77432   1.077  10.837   5.968 -1.6855 -0.0520  0.2360
  574MOL0     H77433   1.088  11.080   5.940  0.3778 -0.0986  0.1789
  574MOL0     H77434   1.196  11.106   6.082  0.9653 -0.7305 -0.1501
  574MOL0     H77435   1.371  10.969   5.958 -0.4405 -1.0648 -0.0116
  574MOL0     H77436   1.256  10.942   5.834  1.6373 -1.7164 -0.0595
  574MOL0     H77437   1.369  11.206   5.931 -0.1927  0.4670  0.1981
  574MOL0     H77438   1.262  11.198   5.796 -1.0094 -0.2350 -0.2239
  574MOL0     H77439   1.532  11.069   5.796 -0.3047 -1.3219 -0.4498
  574MOL0     H77440   1.430  11.085   5.651 -0.7380  1.3322 -0.2238
  574MOL0     H77441   1.730  11.248   5.801 -1.6263  0.3400  1.6690
  574MOL0     H77442   1.832  11.512   5.738 -2.8235 -1.1497  1.4383
  574MOL0     H77443   1.851  11.412   5.590 -1.1237 -0.7039 -0.3421
  574MOL0     H77444   1.787  11.580   5.462  0.4729 -0.5392  0.4029
  574MOL0     H77445   1.676  11.651   5.574 -0.1912 -0.1778 -0.7717
  574MOL0     H77446   1.882  11.772   5.700  2.8888 -0.3650  0.5117
  574MOL0     H77447   1.862  11.806   5.520 -1.6852  0.1179  0.2719
  574MOL0     H77448   2.040  11.625   5.498 -1.9374  1.2476 -0.6068
  574MOL0     H77449   2.071  11.614   5.667 -2.1304  1.5570  2.8315
  574MOL0     H77450   2.326  11.827   5.473 -2.3532 -1.1975  1.3039
  574MOL0     H77451   2.558  11.900   5.579 -0.0878  0.6199 -1.3551
  574MOL0     H77452   2.789  12.077   5.981  0.0272 -1.3604  1.1886
  574MOL0     H77453   2.990  12.166   6.009  1.1101  1.5231 -1.0348
  574MOL0     H77454   3.173  12.252   5.999  0.3593  1.9407 -1.7301
  574MOL0     H77455   3.289  12.129   6.069 -0.8091 -0.3031  0.2087
  574MOL0     H77456   3.362  12.325   5.845 -0.8148 -1.6774 -0.2081
  574MOL0     H77457   3.375  12.359   6.014 -3.7825  1.4940 -1.7427
  574MOL0     H77458   3.529  12.179   6.048  1.5539  0.1911 -0.1983
  574MOL0     H77459   3.501  12.109   5.892  2.0840 -0.3797  1.7775
  574MOL0     H77460   3.618  12.394   5.915 -0.3206 -0.6964 -0.7406
  574MOL0     H77461   3.608  12.295   5.777 -3.5201  1.6885 -0.1591
  574MOL0     H77462   3.745  12.110   5.883  2.5327  0.3933 -0.3167
  574MOL0     H77463   3.748  12.201   6.035  4.3832  2.9379  1.5064
  574MOL0     H77464   3.890  12.282   5.781  1.4035 -2.6784  0.5688
  574MOL0     H77465   3.892  12.380   5.934 -1.1484 -0.6954  1.3781
  574MOL0     H77466   3.980  12.133   6.035  2.3555  1.7376  0.6755
  574MOL0     H77467   4.065  12.260   5.952 -2.5994  1.4953  1.5861
  574MOL0     H77468   4.009  11.993   5.833  1.6724 -0.5889 -1.3884
  574MOL0     H77469   4.008  12.131   5.727 -0.0688 -1.6675 -1.7859
  574MOL0     H77470   3.162  11.937   5.695  0.2525  0.1062  1.1458
  574MOL0     H77471   2.921  11.875   5.616  0.3485  2.0082 -1.3785
  574MOL0     H77472   2.358  11.880   5.961 -2.7798  2.2957  0.0067
  574MOL0     H77473   2.160  11.821   5.864 -0.4761 -1.6302  0.0438
  574MOL0     H77474   0.583  10.764   5.934  1.9198  0.8993  2.3912
  574MOL0     H77475   0.377  10.661   5.857  1.0719  1.6238 -0.4100
  574MOL0     H77476   0.069  10.305   6.033 -0.2760 -0.5597  0.6417
  574MOL0     H77477  -0.149  10.208   5.999 -0.9810 -1.9078  0.0651
  574MOL0     H77478  -0.375  10.171   5.942 -0.9229 -1.1385  0.2476
  574MOL0     H77479  -0.293  10.023   5.903  1.8796 -0.2786 -1.8439
  574MOL0     H77480  -0.515  10.158   5.751 -3.4111 -0.6192  0.4101
  574MOL0     H77481  -0.561  10.025   5.851 -1.7603 -2.0123 -2.6541
  574MOL0     H77482  -0.377   9.890   5.690  0.2230  1.5969  2.7016
  574MOL0     H77483  -0.407  10.034   5.598 -0.9379  1.1641 -0.0253
  574MOL0     H77484  -0.650  10.009   5.607  1.7204  2.4291  2.7042
  574MOL0     H77485  -0.565   9.863   5.537  3.3878  0.8621  0.2408
  574MOL0     H77486  -0.728   9.686   5.884  1.3683  0.5190  0.4571
  574MOL0     H77487  -0.123  10.307   5.578 -2.3760  1.1869  0.7148
  574MOL0     H77488   0.147  10.509   5.570 -0.9979  0.8502 -0.2493
  574MOL0     H77489   0.181  10.335   5.531  0.2797  0.8642  1.0186
  574MOL0     H77490   0.040  10.414   5.467  2.3706  1.8888 -2.0701
  575MOL0     O77491   8.118   1.537  11.406  0.4159 -0.2879  0.3954
  575MOL0     C77492   8.019   1.575  11.465 -0.2530  0.1305 -0.4532
  575MOL0     O77493   8.012   1.671  11.567 -0.3775  1.2730  0.1446
  575MOL0     C77494   8.134   1.693  11.629 -0.7399 -0.5834  0.3709
  575MOL0     C77495   8.242   1.751  11.564 -0.1740 -1.0212 -0.1412
  575MOL0     C77496   8.361   1.779  11.645  0.9112 -0.4418  0.2910
  575MOL0     C77497   8.371   1.764  11.784 -0.4492  0.7267  0.1865
  575MOL0     O77498   8.478   1.789  11.870 -0.0827 -0.0629 -0.1565
  575MOL0     C77499   8.583   1.870  11.803 -0.7627 -0.0957  0.0753
  575MOL0     C77500   8.706   1.888  11.897  0.3369 -0.0716  0.0807
  575MOL0     C77501   8.782   2.007  11.853  0.0799  0.4211 -0.5182
  575MOL0     C77502   8.842   2.006  11.714 -0.8350 -0.0639 -0.1887
  575MOL0     C77503   8.943   2.125  11.700 -0.2181  0.0401 -0.5058
  575MOL0     C77504   9.073   2.088  11.775 -0.8037 -0.3903  0.2891
  575MOL0     C77505   9.178   2.195  11.727  0.4088 -0.8351  0.6857
  575MOL0     C77506   9.312   2.168  11.783  0.4280 -0.1590 -0.6594
  575MOL0     N77507   9.416   2.242  11.716  0.4382 -0.1685 -0.2950
  575MOL0     C77508   9.480   2.357  11.757 -0.4870 -0.2179  0.7737
  575MOL0     C77509   9.580   2.385  11.672 -0.4525  0.8248  0.8087
  575MOL0     C77510   9.670   2.504  11.672 -0.5209  0.0716  0.5845
  575MOL0     C77511   9.815   2.479  11.616 -0.4572 -0.0670 -0.2580
  575MOL0     C77512   9.881   2.609  11.574  0.0634  0.8672 -0.5754
  575MOL0     C77513  10.030   2.598  11.534  0.0835  0.4872 -0.1595
  575MOL0     O77514  10.031   2.572  11.393  0.9526 -0.4420 -0.5586
  575MOL0     C77515  10.157   2.547  11.327  0.6481  0.8298 -0.0396
  575MOL0     C77516  10.279   2.591  11.381  0.6123  0.5460 -0.1678
  575MOL0     C77517  10.399   2.574  11.301 -0.3553 -0.4087 -0.3337
  575MOL0     C77518  10.388   2.510  11.177  0.1418  0.4197  0.5867
  575MOL0     C77519  10.511   2.477  11.094  0.6788 -0.3521  0.9304
  575MOL0     O77520  10.625   2.492  11.154 -0.3926 -0.2978 -0.0531
  575MOL0     C77521  10.750   2.458  11.104  0.1579  1.0389  0.1988
  575MOL0     C77522  10.841   2.440  11.208 -0.3298 -0.3800 -0.2059
  575MOL0     C77523  10.974   2.406  11.176 -0.0683  0.0861 -0.3381
  575MOL0     C77524  11.020   2.392  11.045  0.5784  0.9480  0.2706
  575MOL0     O77525  11.139   2.344  11.028  0.2959  0.2039 -0.1884
  575MOL0     C77526  11.210   2.391  10.919  0.1581 -0.0173 -0.4255
  575MOL0     C77527  11.350   2.330  10.934 -0.0927  0.2703 -0.4329
  575MOL0     C77528  11.454   2.399  10.851  0.6599 -0.5123 -0.1664
  575MOL0     C77529  11.603   2.361  10.875 -0.0044  1.1992 -0.8192
  575MOL0     C77530  11.698   2.433  10.786  0.3695  1.1848 -0.8822
  575MOL0     C77531  11.839   2.371  10.793  0.3163  0.2621 -1.1322
  575MOL0     C77532  11.942   2.437  10.702  0.9360 -0.6464 -1.9679
  575MOL0     C77533  12.058   2.346  10.696  0.4548 -0.0855  0.2997
  575MOL0    Cl77534  12.193   2.440  10.620  0.3060 -0.5294  0.2342
  575MOL0     C77535  10.926   2.414  10.945  0.1921 -0.4716  0.0230
  575MOL0     C77536  10.797   2.450  10.975 -0.3262 -0.6080 -0.4871
  575MOL0     O77537  10.503   2.436  10.979 -0.2899 -0.3685 -0.3027
  575MOL0     C77538  10.271   2.473  11.123  0.3232  0.9101 -0.6932
  575MOL0     C77539  10.149   2.487  11.195 -0.3871  0.7486 -0.7135
  575MOL0     N77540   9.573   2.273  11.581  0.1067  0.0224  0.3021
  575MOL0     N77541   9.465   2.200  11.600 -1.2895  0.1207  0.7685
  575MOL0     C77542   8.256   1.703  11.850 -0.7166 -0.4523 -0.0301
  575MOL0     C77543   8.148   1.664  11.769 -0.9364  0.1231 -0.5465
  575MOL0     C77544   7.890   1.510  11.431 -0.0209 -1.0161  0.9424
  575MOL0     C77545   7.775   1.566  11.483  0.3612  0.7809  1.4011
  575MOL0     C77546   7.653   1.527  11.426  0.2189 -0.0607 -0.0478
  575MOL0     C77547   7.635   1.427  11.335  0.2718 -0.7365  0.2611
  575MOL0     O77548   7.510   1.392  11.291  0.0564 -0.6705 -1.2300
  575MOL0     C77549   7.405   1.485  11.315 -0.0473 -0.8293 -0.3091
  575MOL0     C77550   7.281   1.424  11.243  0.0063  0.6795 -0.2617
  575MOL0     C77551   7.277   1.446  11.093  0.2119  0.2594  0.0499
  575MOL0     C77552   7.251   1.593  11.049  0.0629 -0.1301  0.1150
  575MOL0     C77553   7.113   1.649  11.067  0.3501  0.1362 -0.1036
  575MOL0     C77554   7.001   1.694  11.074 -0.3074 -0.0060 -0.4701
  575MOL0     C77555   7.745   1.357  11.299  0.4229  0.9634 -0.2457
  575MOL0     C77556   7.877   1.401  11.336  0.2278  0.9973 -0.2488
  575MOL0     C77557   7.991   1.321  11.260  0.0764 -0.5878  0.0007
  575MOL0     H77558   8.245   1.775  11.459  0.7644  3.1737  0.6395
  575MOL0     H77559   8.443   1.834  11.599  0.3207 -0.5149 -0.8862
  575MOL0     H77560   8.619   1.836  11.706  3.6626  3.1618  0.2795
  575MOL0     H77561   8.542   1.969  11.781 -0.4479 -0.0766 -0.4329
  575MOL0     H77562   8.760   1.794  11.887  1.7222  0.8719 -2.1021
  575MOL0     H77563   8.670   1.898  12.000  0.1534 -0.1598  0.0258
  575MOL0     H77564   8.863   2.008  11.927 -2.1390  1.4129  2.0505
  575MOL0     H77565   8.720   2.096  11.867 -0.8376  0.0242 -1.8554
  575MOL0     H77566   8.894   1.913  11.688  2.7251  0.9624  2.4016
  575MOL0     H77567   8.760   2.025  11.643 -0.2644  0.8409 -0.6284
  575MOL0     H77568   8.966   2.131  11.593 -1.1912  2.4543 -0.6333
  575MOL0     H77569   8.900   2.222  11.726  2.4167  1.6389 -1.6299
  575MOL0     H77570   9.053   2.096  11.882 -1.5169  2.9194  0.0418
  575MOL0     H77571   9.111   1.990  11.744  2.6655  1.1844 -1.0416
  575MOL0     H77572   9.147   2.296  11.755  0.7423 -0.2949 -0.8100
  575MOL0     H77573   9.186   2.195  11.618  3.4898  0.8201  0.8022
  575MOL0     H77574   9.312   2.188  11.891  0.7793  1.1880 -0.8958
  575MOL0     H77575   9.337   2.063  11.764 -0.8113 -0.3821 -1.1628
  575MOL0     H77576   9.458   2.428  11.836 -0.2618  0.5255  0.1758
  575MOL0     H77577   9.623   2.571  11.598  1.5524  1.3613  0.3613
  575MOL0     H77578   9.662   2.557  11.767  2.2754  2.2437 -0.2684
  575MOL0     H77579   9.857   2.425  11.701 -0.5245 -0.1019 -0.2463
  575MOL0     H77580   9.807   2.409  11.532 -0.0004 -1.9799  1.2162
  575MOL0     H77581   9.878   2.686  11.651 -0.3599 -0.3205  0.6410
  575MOL0     H77582   9.822   2.647  11.491 -0.6977  2.2894  0.5778
  575MOL0     H77583  10.078   2.513  11.584  4.2062  1.5293 -1.8972
  575MOL0     H77584  10.071   2.697  11.554  0.1213  0.8059 -1.6823
  575MOL0     H77585  10.293   2.644  11.475 -0.1803  1.7501 -0.7084
  575MOL0     H77586  10.493   2.611  11.340 -1.7251  5.5136 -1.7408
  575MOL0     H77587  10.816   2.445  11.314 -1.5124  4.5377 -0.4849
  575MOL0     H77588  11.044   2.387  11.257  1.0627  7.5604  1.1506
  575MOL0     H77589  11.169   2.359  10.823  0.3820 -2.8972  0.3431
  575MOL0     H77590  11.217   2.500  10.925 -1.7216  0.3262 -2.8823
  575MOL0     H77591  11.385   2.331  11.038 -2.0838  2.2179  0.3036
  575MOL0     H77592  11.331   2.232  10.890  1.6968  1.6529 -4.9354
  575MOL0     H77593  11.427   2.389  10.745 -0.9760 -0.3379  0.2032
  575MOL0     H77594  11.439   2.506  10.871  0.3435 -0.7271  0.7831
  575MOL0     H77595  11.600   2.252  10.870  1.3346  0.8962  2.3885
  575MOL0     H77596  11.635   2.379  10.978  0.0658 -0.2678 -0.5640
  575MOL0     H77597  11.698   2.535  10.826 -2.7157  0.9715 -0.0138
  575MOL0     H77598  11.675   2.422  10.679 -0.5715  1.3329 -0.7038
  575MOL0     H77599  11.882   2.375  10.894  0.2465  1.6797 -1.1437
  575MOL0     H77600  11.825   2.264  10.775 -0.3209 -0.1747  1.4724
  575MOL0     H77601  11.975   2.536  10.732 -1.5209 -0.2231 -0.4046
  575MOL0     H77602  11.907   2.449  10.599  0.8092  2.8657 -1.6208
  575MOL0     H77603  12.098   2.305  10.789 -1.4646 -2.2315  0.2749
  575MOL0     H77604  12.035   2.258  10.636  1.6280 -0.1131 -0.1273
  575MOL0     H77605  10.947   2.400  10.840 -2.5716  4.4876 -1.5374
  575MOL0     H77606  10.735   2.476  10.889  0.8167  1.6212 -0.6916
  575MOL0     H77607  10.254   2.422  11.029 -1.3086 -2.6565  1.3056
  575MOL0     H77608  10.058   2.451  11.147  0.4634 -1.0107 -1.0804
  575MOL0     H77609   8.263   1.676  11.955 -0.6148 -2.5142 -0.5345
  575MOL0     H77610   8.069   1.611  11.820 -0.5310  0.7437  0.7658
  575MOL0     H77611   7.766   1.639  11.563  2.4718  1.7040  0.8656
  575MOL0     H77612   7.574   1.586  11.471 -0.1802  0.6584 -1.6250
  575MOL0     H77613   7.428   1.574  11.256 -1.1007  0.2372  0.8500
  575MOL0     H77614   7.382   1.517  11.417  0.2897 -0.5384 -0.3206
  575MOL0     H77615   7.187   1.462  11.283 -1.5357 -3.2222  0.2547
  575MOL0     H77616   7.293   1.316  11.260 -0.7126  0.3936 -1.4454
  575MOL0     H77617   7.198   1.381  11.056 -0.4087 -0.4476  2.4133
  575MOL0     H77618   7.374   1.418  11.051  0.0475 -2.0976  1.0542
  575MOL0     H77619   7.312   1.659  11.112  0.7458 -1.8123  1.2943
  575MOL0     H77620   7.281   1.595  10.944  1.6360 -4.9323  0.2526
  575MOL0     H77621   6.908   1.745  11.090  0.5040  0.9684  1.6540
  575MOL0     H77622   7.726   1.285  11.220  0.6735  1.6879 -0.9808
  575MOL0     H77623   7.972   1.216  11.237  1.8135 -1.0737  0.6423
  575MOL0     H77624   8.022   1.377  11.170 -1.4746 -2.8118 -2.0473
  575MOL0     H77625   8.078   1.307  11.325  1.4193 -1.3814 -1.8740
  576MOL0     O77626  10.855   1.498   9.370 -0.0645  0.1562  0.2135
  576MOL0     C77627  10.800   1.390   9.403 -0.2868 -0.2908  0.2575
  576MOL0     O77628  10.867   1.279   9.463  0.0935  0.2224  0.0852
  576MOL0     C77629  11.007   1.284   9.480  1.0311  0.9224 -0.5420
  576MOL0     C77630  11.071   1.386   9.547  0.6311 -0.7521 -0.7360
  576MOL0     C77631  11.212   1.387   9.581  0.1027  0.1932 -0.3362
  576MOL0     C77632  11.289   1.274   9.537  0.3931  0.3409 -0.3651
  576MOL0     O77633  11.428   1.279   9.554 -0.0215 -0.4390  0.4264
  576MOL0     C77634  11.506   1.162   9.541 -0.5714  0.2653  0.5350
  576MOL0     C77635  11.650   1.217   9.537 -0.0679 -0.2437 -0.2872
  576MOL0     C77636  11.752   1.099   9.529 -0.1778  0.6798  0.1837
  576MOL0     C77637  11.891   1.140   9.490  0.7557 -0.0893 -0.3661
  576MOL0     C77638  11.982   1.220   9.592 -0.2423 -0.1581 -0.1765
  576MOL0     C77639  12.129   1.212   9.556 -0.3664 -1.0075 -0.9375
  576MOL0     C77640  12.205   1.291   9.670 -0.5759  0.2441  0.0387
  576MOL0     C77641  12.356   1.279   9.645 -0.3751 -1.0373 -0.0776
  576MOL0     N77642  12.432   1.342   9.747  0.3027  0.0528 -0.1221
  576MOL0     C77643  12.503   1.267   9.837 -0.4299 -0.3894 -1.0691
  576MOL0     C77644  12.566   1.353   9.917 -0.2028  0.6369  0.0855
  576MOL0     C77645  12.672   1.323  10.022 -0.5431  0.8445  0.0534
  576MOL0     C77646  12.814   1.361   9.973  0.8028  0.4329  0.1681
  576MOL0     C77647  12.920   1.280  10.055 -0.0472 -0.5932 -0.3382
  576MOL0     C77648  13.062   1.341  10.032 -0.7494 -0.0843 -0.1168
  576MOL0     O77649  13.159   1.239  10.071  0.3176 -0.5969  0.5038
  576MOL0     C77650  13.290   1.256  10.057  0.0099 -1.1695 -0.9395
  576MOL0     C77651  13.348   1.378  10.007  0.0350 -0.5250 -1.0724
  576MOL0     C77652  13.484   1.387   9.996 -0.2758 -0.1650  0.1291
  576MOL0     C77653  13.566   1.280  10.042 -0.1945 -0.5917  0.5871
  576MOL0     C77654  13.714   1.299  10.042 -0.1397  0.7075  0.5079
  576MOL0     O77655  13.788   1.185  10.078 -0.8473  0.0154 -0.7453
  576MOL0     C77656  13.922   1.178  10.049  0.4756 -0.0212  0.5054
  576MOL0     C77657  14.020   1.178  10.152  0.6654  1.0799 -0.3106
  576MOL0     C77658  14.156   1.189  10.123 -0.1257  0.5041 -0.5381
  576MOL0     C77659  14.203   1.204   9.996 -0.2337  0.3455  0.9826
  576MOL0     O77660  14.336   1.220   9.982 -0.4461 -1.0443  0.5466
  576MOL0     C77661  14.403   1.182   9.858  0.3473 -0.1530 -0.4830
  576MOL0     C77662  14.559   1.196   9.879 -0.5031  0.6289  0.2453
  576MOL0     C77663  14.644   1.170   9.748 -0.2751  0.6192  0.1626
  576MOL0     C77664  14.656   1.295   9.654 -0.1718  0.0159  0.1927
  576MOL0     C77665  14.735   1.410   9.710 -0.8954 -0.0173  0.1842
  576MOL0     C77666  14.794   1.517   9.610 -0.2929  0.5365  0.5271
  576MOL0     C77667  14.829   1.653   9.684 -0.7594 -0.1288 -0.3705
  576MOL0     C77668  14.937   1.647   9.791  0.0813  0.1170 -1.4590
  576MOL0    Cl77669  15.098   1.680   9.729  0.3651  0.1472 -0.1022
  576MOL0     C77670  14.105   1.198   9.887  0.1943 -0.1486  0.7723
  576MOL0     C77671  13.970   1.183   9.914 -0.6309  0.4765  0.5966
  576MOL0     O77672  13.767   1.404   9.999 -0.1525  0.5155 -0.0233
  576MOL0     C77673  13.515   1.170  10.105 -0.6803  1.1293 -0.5560
  576MOL0     C77674  13.374   1.154  10.106  0.3267 -0.4629 -0.0184
  576MOL0     N77675  12.519   1.483   9.885  0.3164  0.8718 -0.4197
  576MOL0     N77676  12.439   1.473   9.785  0.1491 -0.3544  0.6245
  576MOL0     C77677  11.227   1.175   9.465 -0.4403  0.1816 -0.4497
  576MOL0     C77678  11.087   1.173   9.441  0.7332  0.0964 -0.1527
  576MOL0     C77679  10.653   1.376   9.390 -0.5290  0.0726  0.7170
  576MOL0     C77680  10.598   1.279   9.468  0.7892  0.3217  0.1069
  576MOL0     C77681  10.461   1.246   9.453 -0.4509 -0.6586  0.0218
  576MOL0     C77682  10.371   1.325   9.374  0.1259  0.4627 -1.2477
  576MOL0     O77683  10.234   1.305   9.386 -0.1982  1.1462 -0.6045
  576MOL0     C77684  10.149   1.383   9.308  1.1814  0.4564  0.4129
  576MOL0     C77685  10.006   1.338   9.345  0.5026  1.1290 -0.6103
  576MOL0     C77686   9.966   1.381   9.493 -0.1464  0.8041  0.2256
  576MOL0     C77687   9.832   1.319   9.509  0.0105 -0.9585 -0.5369
  576MOL0     C77688   9.764   1.357   9.635 -1.2642  0.2755 -0.1046
  576MOL0     C77689   9.710   1.372   9.742  0.0336  0.4954 -0.1464
  576MOL0     C77690  10.431   1.429   9.306 -0.0810  0.8145  0.7891
  576MOL0     C77691  10.569   1.450   9.302 -0.1690 -0.7884 -0.8333
  576MOL0     C77692  10.624   1.543   9.199  0.3014 -0.4936 -0.5099
  576MOL0     H77693  11.004   1.468   9.567  0.2485 -1.1078 -0.5643
  576MOL0     H77694  11.268   1.472   9.619  1.6787 -0.6906 -0.5891
  576MOL0     H77695  11.501   1.096   9.628  1.2468 -1.5491 -0.6357
  576MOL0     H77696  11.495   1.105   9.448  0.2887  1.3633 -0.2728
  576MOL0     H77697  11.666   1.278   9.627 -1.4349 -0.6548  0.2571
  576MOL0     H77698  11.676   1.284   9.454  0.0098  0.3092  0.1772
  576MOL0     H77699  11.718   1.035   9.447 -0.7382  1.0971  0.0792
  576MOL0     H77700  11.744   1.038   9.620  0.8682  0.6102  0.2321
  576MOL0     H77701  11.949   1.052   9.458  0.4087 -0.0578 -1.0904
  576MOL0     H77702  11.868   1.204   9.405  0.8956 -0.4045 -0.6436
  576MOL0     H77703  11.936   1.320   9.590 -1.5906 -0.5753  3.2322
  576MOL0     H77704  11.965   1.194   9.697 -1.1741  0.2776 -0.2106
  576MOL0     H77705  12.167   1.109   9.563 -2.0929 -1.9486 -3.7269
  576MOL0     H77706  12.163   1.250   9.459 -1.1860  1.5293 -0.3027
  576MOL0     H77707  12.184   1.244   9.766  1.2950 -0.9996 -0.1098
  576MOL0     H77708  12.165   1.393   9.680 -1.6982 -0.2271  0.5412
  576MOL0     H77709  12.377   1.172   9.641 -2.2610 -1.5621  2.1642
  576MOL0     H77710  12.386   1.320   9.548  2.9260 -0.3167  1.0951
  576MOL0     H77711  12.526   1.162   9.850  4.0113  0.5391  0.5975
  576MOL0     H77712  12.645   1.367  10.118 -0.1878 -1.2942  1.2107
  576MOL0     H77713  12.669   1.214  10.034 -0.0003  0.9029  0.8061
  576MOL0     H77714  12.811   1.334   9.867 -2.5248  0.7376  0.0962
  576MOL0     H77715  12.834   1.468   9.989 -1.0037  0.7384  0.5868
  576MOL0     H77716  12.917   1.176  10.022  0.5395  0.3035 -3.5709
  576MOL0     H77717  12.905   1.288  10.164 -3.5242 -1.0704 -0.6813
  576MOL0     H77718  13.085   1.427  10.094  1.9478 -1.6099  1.1784
  576MOL0     H77719  13.076   1.355   9.925 -3.5485 -0.9180 -0.6673
  576MOL0     H77720  13.286   1.453   9.958  1.1330  0.7715 -0.5291
  576MOL0     H77721  13.520   1.480   9.952  0.9497 -0.4728  0.4353
  576MOL0     H77722  13.986   1.182  10.255  2.4378 -1.7460  0.5008
  576MOL0     H77723  14.219   1.196  10.211 -1.7269 -2.8652  1.0646
  576MOL0     H77724  14.379   1.084   9.818  3.3855 -0.3653 -2.1346
  576MOL0     H77725  14.364   1.251   9.782 -5.8322 -0.2079  2.0633
  576MOL0     H77726  14.590   1.293   9.919  2.2989 -0.5691  1.2662
  576MOL0     H77727  14.597   1.128   9.955 -1.2602  0.2159  0.2616
  576MOL0     H77728  14.745   1.150   9.783 -0.1569  0.9201 -0.0042
  576MOL0     H77729  14.605   1.085   9.691  2.5562  1.4169 -3.3046
  576MOL0     H77730  14.561   1.324   9.608 -1.3129  1.5920  3.2419
  576MOL0     H77731  14.718   1.251   9.576 -0.6228 -0.6739  0.2176
  576MOL0     H77732  14.826   1.378   9.761  0.7288  2.0332 -1.2829
  576MOL0     H77733  14.673   1.459   9.786  1.0940 -0.5799  2.2770
  576MOL0     H77734  14.875   1.471   9.553 -4.3856 -2.8080 -3.2438
  576MOL0     H77735  14.715   1.543   9.539 -0.2148  0.3740  0.3794
  576MOL0     H77736  14.741   1.695   9.733  1.3859  1.9151  2.0817
  576MOL0     H77737  14.866   1.724   9.609 -0.4262  0.2850  0.1775
  576MOL0     H77738  14.924   1.728   9.864  1.2257 -0.4226 -0.6147
  576MOL0     H77739  14.927   1.558   9.854 -1.3441  1.0472 -0.3039
  576MOL0     H77740  14.136   1.238   9.791 -3.5272  1.3055  0.0289
  576MOL0     H77741  13.895   1.202   9.837 -0.9294 -0.3644  0.6702
  576MOL0     H77742  13.575   1.093  10.153 -3.5451  0.8145  2.9281
  576MOL0     H77743  13.323   1.068  10.149 -2.0798  1.2370  0.7172
  576MOL0     H77744  11.295   1.092   9.450 -1.0866 -1.0711  2.7235
  576MOL0     H77745  11.054   1.084   9.389  2.5518 -1.6311  1.4327
  576MOL0     H77746  10.656   1.220   9.539  2.2756 -0.8910 -2.0060
  576MOL0     H77747  10.416   1.162   9.505 -1.9737 -1.9370 -3.0941
  576MOL0     H77748  10.179   1.374   9.204  0.7004  1.6348  0.1571
  576MOL0     H77749  10.155   1.490   9.331  4.5266  0.4776 -0.0861
  576MOL0     H77750   9.997   1.229   9.340  1.0137  1.0512 -0.0362
  576MOL0     H77751   9.937   1.382   9.272  1.0254  1.0732 -1.1485
  576MOL0     H77752   9.980   1.489   9.502  1.0142  0.7950 -1.1308
  576MOL0     H77753  10.030   1.333   9.569 -0.3236 -0.8462 -0.6086
  576MOL0     H77754   9.761   1.338   9.428  1.1651 -0.6557 -1.4991
  576MOL0     H77755   9.854   1.212   9.520  2.1386 -0.3873  1.4957
  576MOL0     H77756   9.661   1.365   9.838 -1.7472 -1.4308 -1.0996
  576MOL0     H77757  10.366   1.491   9.244 -2.1212 -0.9828  1.0024
  576MOL0     H77758  10.707   1.495   9.147  0.9782  1.2185 -1.0951
  576MOL0     H77759  10.547   1.574   9.127  0.6799  4.0706  0.7275
  576MOL0     H77760  10.660   1.637   9.241 -1.4245 -0.6860  1.5647
  577MOL0     O77761   0.466  10.579   9.569  0.2365  0.0938 -0.4506
  577MOL0     C77762   0.451  10.663   9.479 -0.7031 -0.2303  0.4351
  577MOL0     O77763   0.333  10.718   9.434  0.0062 -0.5674  0.8783
  577MOL0     C77764   0.224  10.691   9.511  0.5889 -0.4978 -0.2025
  577MOL0     C77765   0.130  10.593   9.458 -0.2657 -0.7008 -0.2238
  577MOL0     C77766   0.022  10.562   9.536 -0.3743  0.5033 -0.1133
  577MOL0     C77767  -0.003  10.632   9.657  0.1527  0.6005  0.3009
  577MOL0     O77768  -0.110  10.603   9.746 -0.6726 -0.1056 -0.1173
  577MOL0     C77769  -0.139  10.463   9.763 -0.6894  0.1887 -0.7352
  577MOL0     C77770  -0.204  10.428   9.898  0.0691 -0.5385 -1.0478
  577MOL0     C77771  -0.096  10.425  10.013 -0.2818  0.6610 -0.1667
  577MOL0     C77772  -0.145  10.387  10.149  0.4974 -0.3428 -0.5678
  577MOL0     C77773  -0.032  10.373  10.249  0.4305 -0.3654 -0.4543
  577MOL0     C77774   0.028  10.239  10.267 -0.0794  0.7238  1.0137
  577MOL0     C77775   0.137  10.235  10.379  0.0973  0.7637 -0.5925
  577MOL0     C77776   0.087  10.172  10.505  0.1986  0.6881 -0.7507
  577MOL0     N77777   0.188  10.153  10.615  0.1539 -0.2084  0.4049
  577MOL0     C77778   0.277  10.248  10.657  0.5607 -0.0278 -0.6053
  577MOL0     C77779   0.361  10.178  10.741 -0.1442  0.6598  1.5000
  577MOL0     C77780   0.471  10.241  10.823 -0.0653 -0.8554  0.7334
  577MOL0     C77781   0.597  10.157  10.827  0.2088 -0.7622 -0.8185
  577MOL0     C77782   0.723  10.243  10.857  0.1471 -0.7513  0.1955
  577MOL0     C77783   0.862  10.185  10.861 -0.2925 -0.6454  0.4939
  577MOL0     O77784   0.951  10.264  10.941  0.2625 -0.1627 -0.2258
  577MOL0     C77785   1.085  10.257  10.921  0.3318 -0.3553 -0.3180
  577MOL0     C77786   1.155  10.377  10.894  0.1572  0.3791 -0.6212
  577MOL0     C77787   1.297  10.385  10.902 -0.5426 -0.0192 -0.3939
  577MOL0     C77788   1.377  10.274  10.928 -0.1700 -0.2585  0.0713
  577MOL0     C77789   1.522  10.276  10.943  1.0892 -0.1028 -0.3849
  577MOL0     O77790   1.599  10.159  10.916 -0.5782 -1.0549  0.0160
  577MOL0     C77791   1.740  10.179  10.939  0.7251 -0.1857  0.3387
  577MOL0     C77792   1.808  10.087  11.012  0.5544 -0.0868 -0.0585
  577MOL0     C77793   1.948  10.090  11.020  0.3852  0.6037  0.6322
  577MOL0     C77794   2.035  10.183  10.955 -0.0991  0.2401  0.8058
  577MOL0     O77795   2.173  10.182  10.961 -0.2999  0.0078 -0.1891
  577MOL0     C77796   2.221  10.177  11.094  0.1149 -0.3421  0.1086
  577MOL0     C77797   2.284  10.305  11.128  1.0841  0.5673  1.5366
  577MOL0     C77798   2.360  10.305  11.265  0.7456  0.9060  1.0950
  577MOL0     C77799   2.490  10.382  11.260  0.3220 -0.5911 -0.7094
  577MOL0     C77800   2.466  10.531  11.231  0.1221 -0.0430  0.2140
  577MOL0     C77801   2.607  10.593  11.238  0.0050 -0.1347 -0.1994
  577MOL0     C77802   2.608  10.739  11.190 -0.0356 -0.4302 -0.7258
  577MOL0     C77803   2.746  10.806  11.188  0.7450 -0.3188  1.1414
  577MOL0    Cl77804   2.723  10.981  11.128 -0.0750 -0.0971 -0.0110
  577MOL0     C77805   1.962  10.269  10.875  0.5182  0.1876 -0.6779
  577MOL0     C77806   1.822  10.274  10.876 -0.1954  0.2023  0.5220
  577MOL0     O77807   1.570  10.383  10.976 -0.0047 -0.0514  0.1483
  577MOL0     C77808   1.300  10.152  10.942  0.3658 -0.0812  0.4631
  577MOL0     C77809   1.160  10.147  10.944 -0.2728  0.0332 -0.1546
  577MOL0     N77810   0.321  10.043  10.737 -1.2934 -0.3316 -0.8521
  577MOL0     N77811   0.222  10.034  10.662  0.4327  0.0015  0.4772
  577MOL0     C77812   0.092  10.731   9.702  0.3358 -0.2336  0.5687
  577MOL0     C77813   0.198  10.766   9.631 -0.2894  1.2692  0.0417
  577MOL0     C77814   0.579  10.715   9.421  0.5127 -0.7786  0.3630
  577MOL0     C77815   0.691  10.730   9.502 -0.5763  0.1980 -1.3351
  577MOL0     C77816   0.818  10.747   9.451 -0.2033 -0.6692 -0.0184
  577MOL0     C77817   0.837  10.753   9.314  0.0310  0.3145 -0.8436
  577MOL0     O77818   0.957  10.755   9.248 -0.9057  0.7602  0.1751
  577MOL0     C77819   1.068  10.705   9.335 -0.2947 -0.2215  0.1305
  577MOL0     C77820   1.165  10.633   9.242  0.4957 -0.4118 -0.1426
  577MOL0     C77821   1.129  10.493   9.181  0.1266  0.2813 -0.0558
  577MOL0     C77822   1.192  10.460   9.045 -0.1284 -0.3806  0.2627
  577MOL0     C77823   1.338  10.469   9.051  0.0145 -0.2713  0.1104
  577MOL0     C77824   1.454  10.467   9.068  0.3548  0.9958  0.1467
  577MOL0     C77825   0.728  10.757   9.233 -0.3758  0.1823 -0.3570
  577MOL0     C77826   0.595  10.750   9.284 -0.2438 -0.0917 -0.9494
  577MOL0     C77827   0.472  10.748   9.194 -0.6626  0.5291 -0.0100
  577MOL0     H77828   0.153  10.541   9.366  1.5926 -3.2620  1.5625
  577MOL0     H77829  -0.035  10.472   9.514  2.7493 -2.5419  2.8896
  577MOL0     H77830  -0.218  10.435   9.692 -5.7168  3.0445  3.0272
  577MOL0     H77831  -0.051  10.399   9.750 -2.4528 -2.7931  0.8936
  577MOL0     H77832  -0.264  10.338   9.907 -1.3254  0.4872  0.5189
  577MOL0     H77833  -0.282  10.502   9.915 -2.1321 -2.7725 -1.0055
  577MOL0     H77834  -0.046  10.522  10.020 -0.7651  0.8494  1.0139
  577MOL0     H77835  -0.019  10.352   9.986 -2.3299 -2.0196  0.8146
  577MOL0     H77836  -0.217  10.467  10.166  0.4569 -0.2309 -1.2357
  577MOL0     H77837  -0.190  10.288  10.142 -1.2609  0.4599 -1.2488
  577MOL0     H77838   0.051  10.439  10.219  3.0117 -4.2572 -2.7912
  577MOL0     H77839  -0.080  10.410  10.341  2.9889  0.9126  0.4756
  577MOL0     H77840  -0.049  10.165  10.293  0.9036  0.4989  3.5768
  577MOL0     H77841   0.070  10.196  10.175 -1.3462  1.3855  0.0948
  577MOL0     H77842   0.170  10.339  10.392 -1.4855  1.6115 -2.6810
  577MOL0     H77843   0.223  10.180  10.340 -0.2365  0.2394 -0.5928
  577MOL0     H77844  -0.009  10.212  10.539  0.6613  1.9415 -0.8977
  577MOL0     H77845   0.057  10.073  10.468  0.2082  0.1017  0.7271
  577MOL0     H77846   0.267  10.355  10.644  0.4639 -0.0859 -1.0212
  577MOL0     H77847   0.495  10.342  10.788  1.5837 -0.8567  1.7657
  577MOL0     H77848   0.428  10.248  10.923 -1.8696 -0.4538 -0.0283
  577MOL0     H77849   0.585  10.083  10.906  2.6764  0.5091  0.8927
  577MOL0     H77850   0.605  10.109  10.729  0.1827 -4.0167  0.6506
  577MOL0     H77851   0.698  10.293  10.951  0.4037  0.9571 -0.6110
  577MOL0     H77852   0.722  10.319  10.778 -1.2450 -0.5238  0.4042
  577MOL0     H77853   0.908  10.172  10.763  2.8151  1.8510  1.4520
  577MOL0     H77854   0.862  10.091  10.918 -0.3795 -2.1771 -1.9129
  577MOL0     H77855   1.106  10.470  10.870 -3.3511 -1.4465 -1.2402
  577MOL0     H77856   1.335  10.487  10.900  2.3937 -0.9616  1.2732
  577MOL0     H77857   1.752  10.007  11.059 -1.2425  1.6926  0.9906
  577MOL0     H77858   1.993  10.008  11.074  0.7714  0.6919  0.4536
  577MOL0     H77859   2.146  10.145  11.167 -0.9293  3.7284  1.0597
  577MOL0     H77860   2.303  10.105  11.088  0.3811 -0.0896  0.6597
  577MOL0     H77861   2.364  10.320  11.055  1.1937 -0.6029  1.3914
  577MOL0     H77862   2.211  10.385  11.113 -0.1544 -0.8304 -0.4805
  577MOL0     H77863   2.294  10.349  11.341 -0.2427  2.2802 -0.4950
  577MOL0     H77864   2.383  10.203  11.298  3.6615  0.9166 -0.5511
  577MOL0     H77865   2.575  10.334  11.213  2.0286  2.9245 -1.5940
  577MOL0     H77866   2.519  10.396  11.365 -0.3221  3.6782 -0.8896
  577MOL0     H77867   2.395  10.576  11.302  0.4259  1.5504 -0.4470
  577MOL0     H77868   2.435  10.543  11.126 -0.1069 -2.4910 -0.0614
  577MOL0     H77869   2.636  10.600  11.343 -0.4443 -0.8384 -0.0167
  577MOL0     H77870   2.684  10.533  11.188  0.4871  2.0801 -2.3372
  577MOL0     H77871   2.537  10.804  11.243 -1.6101 -3.5111  1.2138
  577MOL0     H77872   2.575  10.735  11.086  0.4282 -2.1071 -0.8344
  577MOL0     H77873   2.785  10.801  11.290 -0.7015 -1.0336  1.6931
  577MOL0     H77874   2.817  10.757  11.121  1.1199  1.6904 -0.0047
  577MOL0     H77875   2.019  10.336  10.811 -0.9086 -2.7005 -5.5270
  577MOL0     H77876   1.785  10.357  10.817 -2.0373 -1.5654 -0.9725
  577MOL0     H77877   1.355  10.059  10.957 -0.0320 -0.5343 -0.7921
  577MOL0     H77878   1.109  10.055  10.973  1.6398 -0.6389  1.2440
  577MOL0     H77879   0.089  10.779   9.799  1.8419 -1.2957  1.1937
  577MOL0     H77880   0.264  10.846   9.661  0.0137  1.2913 -0.6648
  577MOL0     H77881   0.670  10.714   9.607 -0.4587  1.6226 -1.0676
  577MOL0     H77882   0.897  10.745   9.526 -0.3234 -0.9030  0.1036
  577MOL0     H77883   1.037  10.627   9.405 -0.1778 -0.6902 -0.3378
  577MOL0     H77884   1.112  10.791   9.387  4.7876 -3.0091  1.1041
  577MOL0     H77885   1.255  10.628   9.303 -0.3041  1.6687  1.3272
  577MOL0     H77886   1.184  10.700   9.157  0.4731  1.8403  1.5256
  577MOL0     H77887   1.022  10.476   9.167  0.1278  0.6183 -0.4977
  577MOL0     H77888   1.164  10.417   9.252  0.5974 -1.7381 -2.3161
  577MOL0     H77889   1.164  10.358   9.015 -1.5567 -0.9415  3.1579
  577MOL0     H77890   1.147  10.517   8.964 -0.3903 -3.0368 -1.6010
  577MOL0     H77891   1.560  10.466   9.082  0.3214  2.4231  0.6275
  577MOL0     H77892   0.736  10.759   9.125 -2.2690 -1.1888 -0.5736
  577MOL0     H77893   0.378  10.700   9.226  1.5650 -1.7838  3.8488
  577MOL0     H77894   0.439  10.851   9.179  0.0430  0.4079 -3.1804
  577MOL0     H77895   0.496  10.729   9.089  0.5063  1.8249 -0.0033
  578MOL0     O77896   3.628   8.402  10.146  0.4662 -0.9790 -0.7338
  578MOL0     C77897   3.576   8.291  10.139  0.0653 -0.4508 -0.6535
  578MOL0     O77898   3.616   8.177  10.212  0.6937  0.2698  0.4428
  578MOL0     C77899   3.737   8.179  10.283  1.4641  0.2988 -0.9551
  578MOL0     C77900   3.849   8.112  10.240 -0.0359 -0.5435  0.9537
  578MOL0     C77901   3.965   8.106  10.318  0.6905 -0.3813  0.3643
  578MOL0     C77902   3.965   8.169  10.441 -0.4602  0.0005  0.6146
  578MOL0     O77903   4.092   8.161  10.505  0.1230 -0.4990  0.1627
  578MOL0     C77904   4.094   8.147  10.652  0.0192  0.0100  0.2143
  578MOL0     C77905   4.038   8.012  10.696  0.2400  0.1584  0.3580
  578MOL0     C77906   4.049   7.986  10.849  0.0767 -0.9138 -0.5713
  578MOL0     C77907   4.082   7.843  10.883  0.0875  0.6378 -0.6227
  578MOL0     C77908   4.099   7.792  11.036  0.0086 -0.5423 -0.4669
  578MOL0     C77909   4.195   7.886  11.117  0.1927  0.2120  0.2371
  578MOL0     C77910   4.335   7.868  11.066  0.3204  0.0883 -1.2546
  578MOL0     C77911   4.434   7.959  11.141 -0.2645 -0.3666 -0.6706
  578MOL0     N77912   4.388   8.099  11.132 -0.6488 -0.7465 -0.0691
  578MOL0     C77913   4.434   8.187  11.045  0.3144 -1.3190  0.5339
  578MOL0     C77914   4.396   8.308  11.083 -0.1292 -0.2512 -0.2790
  578MOL0     C77915   4.422   8.438  11.006  0.0517 -0.5460  0.1653
  578MOL0     C77916   4.563   8.483  11.050  0.1690 -0.1646 -0.7483
  578MOL0     C77917   4.607   8.598  10.965 -0.2206  0.8086 -0.8513
  578MOL0     C77918   4.719   8.669  11.037  0.2450 -0.4277 -0.1462
  578MOL0     O77919   4.812   8.570  11.084  0.3620  0.0982  0.1448
  578MOL0     C77920   4.923   8.621  11.146 -0.3998  0.7814 -0.2170
  578MOL0     C77921   4.949   8.756  11.164 -1.1558 -0.5802 -0.0974
  578MOL0     C77922   5.060   8.804  11.229  0.1263 -0.0050 -0.5020
  578MOL0     C77923   5.160   8.721  11.268  0.8428  1.0688  0.1047
  578MOL0     C77924   5.276   8.782  11.336 -0.3718  1.1690 -0.4848
  578MOL0     O77925   5.275   8.919  11.362  0.0509  1.1427  0.5469
  578MOL0     C77926   5.396   8.977  11.405  0.0979 -0.6155 -0.1481
  578MOL0     C77927   5.516   8.950  11.342  0.1218  0.2294  0.2439
  578MOL0     C77928   5.631   9.005  11.398 -0.8778  1.3422 -0.0540
  578MOL0     C77929   5.629   9.075  11.523 -0.1958  0.7982  1.0280
  578MOL0     O77930   5.753   9.131  11.554 -0.2977 -0.3766  0.4993
  578MOL0     C77931   5.761   9.201  11.678 -0.1991 -0.4345  0.0668
  578MOL0     C77932   5.904   9.227  11.730  0.3097  0.3699 -0.3703
  578MOL0     C77933   5.951   9.113  11.817 -0.2364  0.4602 -0.0105
  578MOL0     C77934   6.078   9.136  11.906  0.0339  0.3196 -0.9197
  578MOL0     C77935   6.124   9.003  11.985 -0.1766 -0.3527 -0.6690
  578MOL0     C77936   6.231   9.016  12.085 -0.0772 -1.0608  0.0400
  578MOL0     C77937   6.357   9.082  12.014 -0.3184 -0.0672 -0.3433
  578MOL0     C77938   6.472   9.083  12.109 -0.3087  0.1355  0.8838
  578MOL0    Cl77939   6.613   9.116  12.015 -0.2106 -0.1365  0.2105
  578MOL0     C77940   5.504   9.098  11.583 -0.9398 -0.0591 -0.2302
  578MOL0     C77941   5.396   9.050  11.521  0.3762  0.1605 -0.4042
  578MOL0     O77942   5.364   8.702  11.358 -0.7322  0.5360  1.0811
  578MOL0     C77943   5.150   8.580  11.239  0.0745 -0.4202 -0.3410
  578MOL0     C77944   5.031   8.532  11.184  0.1322  0.6422 -0.2355
  578MOL0     N77945   4.326   8.293  11.198  0.0470 -0.0894 -0.4615
  578MOL0     N77946   4.327   8.169  11.231 -0.0503 -0.4163 -0.0965
  578MOL0     C77947   3.852   8.243  10.493 -0.2741 -0.0606  0.6994
  578MOL0     C77948   3.738   8.234  10.414  0.1223  0.4493 -0.8957
  578MOL0     C77949   3.477   8.262  10.033  0.2838 -0.3630  0.3901
  578MOL0     C77950   3.492   8.144   9.959 -0.1983  0.6731  0.4131
  578MOL0     C77951   3.409   8.118   9.847 -0.0009 -0.3172  0.0072
  578MOL0     C77952   3.307   8.204   9.809 -0.8227  0.1212  0.3304
  578MOL0     O77953   3.240   8.182   9.698  0.8720 -0.2350 -0.1260
  578MOL0     C77954   3.240   8.051   9.635 -0.0589  0.4246 -0.4975
  578MOL0     C77955   3.157   8.057   9.507 -0.0843  0.3253  0.9775
  578MOL0     C77956   3.015   8.082   9.535  0.1126  0.4851 -0.0620
  578MOL0     C77957   2.947   8.081   9.407  0.9166  0.0772  0.5023
  578MOL0     C77958   2.804   8.097   9.421 -0.8457 -0.0224 -0.6993
  578MOL0     C77959   2.687   8.099   9.452 -0.2226  0.4643  1.0310
  578MOL0     C77960   3.287   8.317   9.891 -0.0931 -0.1151 -0.1505
  578MOL0     C77961   3.373   8.350   9.993  0.6808  0.4211 -0.1702
  578MOL0     C77962   3.327   8.479  10.054 -0.1202  0.0689  0.7325
  578MOL0     H77963   3.850   8.061  10.144 -0.0144 -2.6899  2.0279
  578MOL0     H77964   4.043   8.044  10.275 -1.3600 -1.7582 -1.6323
  578MOL0     H77965   4.195   8.156  10.695  0.3904  0.8067 -0.7747
  578MOL0     H77966   4.032   8.217  10.708 -1.1900 -2.4509  2.1894
  578MOL0     H77967   4.091   7.933  10.642  0.8571  0.5867  0.3271
  578MOL0     H77968   3.932   8.011  10.670 -0.1066 -0.4116  1.7397
  578MOL0     H77969   3.951   8.016  10.888  0.0079 -2.4141  0.4811
  578MOL0     H77970   4.116   8.058  10.898 -2.2508  1.3226 -0.4092
  578MOL0     H77971   4.004   7.776  10.845  3.3366 -2.9646 -1.5606
  578MOL0     H77972   4.183   7.833  10.842  0.2316  2.7681 -0.9320
  578MOL0     H77973   3.999   7.801  11.078 -0.1679  1.3690 -1.2092
  578MOL0     H77974   4.121   7.685  11.037 -0.6325 -0.6686  0.5229
  578MOL0     H77975   4.154   7.986  11.101  2.1222  1.0272  0.1212
  578MOL0     H77976   4.187   7.873  11.225 -1.1960  0.1223  0.1456
  578MOL0     H77977   4.328   7.916  10.968 -3.9485 -1.2264 -1.8213
  578MOL0     H77978   4.366   7.763  11.068  0.7779  0.2392 -0.0517
  578MOL0     H77979   4.433   7.925  11.244 -1.0610 -0.2245 -0.6184
  578MOL0     H77980   4.530   7.936  11.094 -1.5597 -0.2950 -3.5953
  578MOL0     H77981   4.484   8.172  10.950 -0.1490 -0.6061  0.1602
  578MOL0     H77982   4.420   8.424  10.898  3.0435  0.7616 -0.1733
  578MOL0     H77983   4.347   8.517  11.023  0.7387  0.7725 -2.3331
  578MOL0     H77984   4.546   8.527  11.149 -1.2307  0.0249 -1.0488
  578MOL0     H77985   4.641   8.407  11.053  1.2805  0.9455 -0.6252
  578MOL0     H77986   4.512   8.650  10.950 -1.1715 -0.3636  0.7538
  578MOL0     H77987   4.645   8.563  10.868 -1.7575 -0.4473 -1.0417
  578MOL0     H77988   4.689   8.740  11.115  0.9557 -0.9395  0.6180
  578MOL0     H77989   4.756   8.720  10.948  0.4619 -0.3256  0.0010
  578MOL0     H77990   4.893   8.840  11.123 -0.7599  1.3857  3.0390
  578MOL0     H77991   5.070   8.909  11.257 -1.4085 -0.1734  0.7546
  578MOL0     H77992   5.525   8.884  11.257  0.5050 -0.3420  0.7289
  578MOL0     H77993   5.727   8.997  11.347 -1.2926 -1.8381 -0.5870
  578MOL0     H77994   5.723   9.301  11.655  1.6861 -0.2991 -3.0689
  578MOL0     H77995   5.704   9.159  11.762 -2.1452 -1.5851 -1.7255
  578MOL0     H77996   5.970   9.234  11.643  1.1584  3.7816  0.4143
  578MOL0     H77997   5.913   9.308  11.802  0.1468  0.2013 -0.1596
  578MOL0     H77998   5.876   9.091  11.893  3.2143 -0.9221  3.3359
  578MOL0     H77999   5.984   9.025  11.760 -0.5027 -1.1199  2.1635
  578MOL0     H78000   6.050   9.205  11.985  1.1210 -2.3888  2.0658
  578MOL0     H78001   6.160   9.164  11.839  1.0230 -2.4268 -0.9820
  578MOL0     H78002   6.152   8.926  11.913 -0.5949  0.5902 -1.8755
  578MOL0     H78003   6.029   8.979  12.033  1.4030 -0.0217  2.9461
  578MOL0     H78004   6.194   9.089  12.157  2.8637  0.4640  0.1742
  578MOL0     H78005   6.259   8.921  12.133  3.1682  1.3051  3.3745
  578MOL0     H78006   6.332   9.187  11.999  1.5111  0.4441 -0.1125
  578MOL0     H78007   6.389   9.038  11.919 -1.1853 -0.6539 -0.3663
  578MOL0     H78008   6.457   9.167  12.177  2.7556  1.1830  0.4271
  578MOL0     H78009   6.488   8.985  12.155 -1.9549 -0.8348 -0.4958
  578MOL0     H78010   5.496   9.151  11.678  1.0117  1.5027 -0.8608
  578MOL0     H78011   5.295   9.059  11.559  0.6712 -0.0056  0.4390
  578MOL0     H78012   5.237   8.520  11.264 -1.0811 -4.1741 -4.2165
  578MOL0     H78013   5.016   8.425  11.170 -2.2342  1.1155 -1.9963
  578MOL0     H78014   3.856   8.276  10.596  1.2698 -1.8943  1.2689
  578MOL0     H78015   3.648   8.287  10.445  1.9209  0.6993  4.9960
  578MOL0     H78016   3.569   8.071   9.983 -2.5140 -2.5852 -1.1538
  578MOL0     H78017   3.426   8.018   9.807  1.3257  1.0231 -3.1320
  578MOL0     H78018   3.196   7.976   9.701  0.2352 -3.8235 -4.6120
  578MOL0     H78019   3.340   8.022   9.602 -0.3827 -0.5128 -0.6775
  578MOL0     H78020   3.159   7.957   9.463  0.3711  0.4294  0.7618
  578MOL0     H78021   3.204   8.127   9.437 -1.2698 -0.6573 -0.8693
  578MOL0     H78022   3.001   8.181   9.580  0.4594 -0.2725  1.8128
  578MOL0     H78023   2.976   7.996   9.591  1.2972 -0.5822 -0.8132
  578MOL0     H78024   2.993   8.145   9.331 -0.0295 -1.0487 -1.1091
  578MOL0     H78025   2.963   7.980   9.365 -1.1474  0.2201 -0.7699
  578MOL0     H78026   2.587   8.133   9.467  0.2078  2.2240  0.1919
  578MOL0     H78027   3.207   8.383   9.861  1.6782  0.9043 -2.9950
  578MOL0     H78028   3.408   8.552  10.054  0.1433 -0.2080  1.5861
  578MOL0     H78029   3.251   8.521   9.989  1.8641  0.0127 -1.7947
  578MOL0     H78030   3.288   8.475  10.156 -1.6796 -0.3147  0.1371
  579MOL0     O78031   8.012   4.917   3.400  0.0583  0.1622  0.1152
  579MOL0     C78032   7.975   4.829   3.478  0.4607  0.0402 -1.0479
  579MOL0     O78033   8.056   4.755   3.562 -1.1368 -0.2375  0.0407
  579MOL0     C78034   8.198   4.771   3.549  0.5116  0.0029 -0.4299
  579MOL0     C78035   8.239   4.716   3.429 -0.5314 -0.1243 -0.4558
  579MOL0     C78036   8.365   4.760   3.387 -0.3889 -0.3066  0.9762
  579MOL0     C78037   8.452   4.842   3.463 -0.2435 -0.0683  1.0703
  579MOL0     O78038   8.570   4.870   3.412 -0.6906  0.0281 -0.5615
  579MOL0     C78039   8.667   4.928   3.500 -1.0381 -0.5061  0.1662
  579MOL0     C78040   8.794   4.931   3.421 -0.4583 -0.2030  0.8470
  579MOL0     C78041   8.901   5.005   3.502 -0.0697  0.1080  0.5330
  579MOL0     C78042   9.040   5.035   3.422  0.3725  0.0807 -0.1182
  579MOL0     C78043   9.135   4.922   3.403  0.1419  0.5195 -0.2895
  579MOL0     C78044   9.275   4.965   3.356  0.7507  0.2920 -0.0127
  579MOL0     C78045   9.370   4.844   3.322  0.5667  0.1738  0.1689
  579MOL0     C78046   9.474   4.872   3.223  0.8148 -0.0715  0.3126
  579MOL0     N78047   9.570   4.983   3.250  1.0442 -0.4512  0.2612
  579MOL0     C78048   9.661   4.971   3.352  0.4226  0.0002 -0.7171
  579MOL0     C78049   9.747   5.067   3.330  0.2056 -0.6812  0.0682
  579MOL0     C78050   9.876   5.089   3.410 -0.4823  0.6507 -0.0532
  579MOL0     C78051   9.879   5.223   3.488  0.7546  0.5013 -0.6996
  579MOL0     C78052  10.012   5.203   3.574 -0.3760 -0.3785 -0.0424
  579MOL0     C78053  10.056   5.341   3.622  0.3045 -0.5208 -0.5428
  579MOL0     O78054  10.068   5.455   3.526  0.0617 -0.5194 -0.4230
  579MOL0     C78055  10.189   5.490   3.468  0.3540  0.5696  1.0650
  579MOL0     C78056  10.181   5.592   3.371  0.8562  0.3036 -0.5506
  579MOL0     C78057  10.290   5.621   3.292 -0.1555 -0.2017  0.0542
  579MOL0     C78058  10.416   5.574   3.318 -0.7721 -1.4550 -0.0046
  579MOL0     C78059  10.538   5.630   3.247  0.4642 -0.4887 -0.5861
  579MOL0     O78060  10.658   5.568   3.278 -0.8284 -0.7581 -0.2215
  579MOL0     C78061  10.762   5.599   3.194 -0.5466 -0.1881 -0.1871
  579MOL0     C78062  10.848   5.705   3.217 -0.5813 -0.1307 -0.3573
  579MOL0     C78063  10.948   5.725   3.123 -0.6721  0.1636  0.7786
  579MOL0     C78064  10.974   5.656   3.008  0.9569  0.0055  0.3067
  579MOL0     O78065  11.075   5.685   2.917  0.6059 -0.0502 -0.2262
  579MOL0     C78066  11.094   5.601   2.800  0.0647 -0.1401  1.0392
  579MOL0     C78067  11.212   5.660   2.712 -1.3078  0.4570 -0.4418
  579MOL0     C78068  11.351   5.663   2.788  0.4188 -0.7960 -0.9757
  579MOL0     C78069  11.470   5.730   2.714 -0.3566  0.1271  0.4176
  579MOL0     C78070  11.578   5.753   2.822  0.1286  0.0121 -0.5870
  579MOL0     C78071  11.679   5.866   2.788  0.0322 -0.3397 -0.2949
  579MOL0     C78072  11.801   5.858   2.869  0.6777 -0.4472 -0.3199
  579MOL0     C78073  11.916   5.939   2.822 -0.0675 -0.1521  0.3128
  579MOL0    Cl78074  11.951   5.904   2.640  0.1774 -0.2153  0.1830
  579MOL0     C78075  10.896   5.540   2.997 -0.4228 -0.0099  0.9382
  579MOL0     C78076  10.784   5.514   3.079  0.2718  0.6741 -0.2114
  579MOL0     O78077  10.521   5.705   3.153  0.6472  0.4478  0.4853
  579MOL0     C78078  10.421   5.480   3.425  0.1349 -0.3921  0.0089
  579MOL0     C78079  10.311   5.435   3.486 -0.2583  0.7432  0.4724
  579MOL0     N78080   9.705   5.151   3.229 -0.0738  0.5960  0.8654
  579MOL0     N78081   9.599   5.098   3.181 -0.0845  0.0159  0.5942
  579MOL0     C78082   8.407   4.893   3.585  0.4753  0.3176  0.9069
  579MOL0     C78083   8.280   4.858   3.631  0.4648 -0.3315 -0.3283
  579MOL0     C78084   7.838   4.777   3.462  1.2563 -0.3071  0.6116
  579MOL0     C78085   7.815   4.638   3.445  1.0092 -0.2099  0.2243
  579MOL0     C78086   7.683   4.588   3.452  0.2956  0.6650 -0.0173
  579MOL0     C78087   7.571   4.670   3.466  0.7263  0.1658 -0.8309
  579MOL0     O78088   7.441   4.632   3.468  0.7921  0.2880  0.1081
  579MOL0     C78089   7.422   4.486   3.442 -0.3249 -0.4456  1.2185
  579MOL0     C78090   7.270   4.462   3.440 -0.0893  0.3685 -0.4077
  579MOL0     C78091   7.188   4.550   3.347  0.2934 -0.1897 -0.2486
  579MOL0     C78092   7.066   4.489   3.283  0.3710 -0.0378 -0.4819
  579MOL0     C78093   6.986   4.441   3.390  0.1844 -0.0803 -0.2956
  579MOL0     C78094   6.905   4.404   3.480  0.2738  0.2799 -0.4109
  579MOL0     C78095   7.590   4.810   3.460 -0.3513 -0.1584 -1.4736
  579MOL0     C78096   7.725   4.870   3.465  0.4598  0.3052  0.4701
  579MOL0     C78097   7.742   5.021   3.481 -0.4206  0.0700 -0.0356
  579MOL0     H78098   8.174   4.659   3.363  2.3476 -0.7289 -2.9775
  579MOL0     H78099   8.399   4.718   3.293  2.6426 -0.1481  1.9114
  579MOL0     H78100   8.647   5.029   3.536  2.1823 -0.2596  1.6173
  579MOL0     H78101   8.672   4.871   3.593 -1.9072 -0.9309 -0.0385
  579MOL0     H78102   8.776   4.996   3.335 -0.4423 -0.8470  0.3472
  579MOL0     H78103   8.826   4.832   3.388 -2.3545 -0.5937  0.0628
  579MOL0     H78104   8.923   4.962   3.600 -0.6156 -3.1180 -0.6650
  579MOL0     H78105   8.850   5.100   3.524 -1.2067 -0.1552 -0.8413
  579MOL0     H78106   9.021   5.081   3.324 -2.5835 -0.0728  0.2883
  579MOL0     H78107   9.091   5.108   3.485  0.0075  1.4259 -1.3101
  579MOL0     H78108   9.137   4.855   3.489  2.2560 -0.0463 -0.7160
  579MOL0     H78109   9.110   4.855   3.321  1.9189  0.3059 -0.6953
  579MOL0     H78110   9.264   5.036   3.273 -3.1231 -1.5112 -1.2779
  579MOL0     H78111   9.334   5.024   3.427  2.9529 -1.7045 -0.0205
  579MOL0     H78112   9.311   4.756   3.294 -0.6384  0.9405  0.2072
  579MOL0     H78113   9.434   4.830   3.410 -1.0152 -3.0426  0.9597
  579MOL0     H78114   9.534   4.781   3.217 -1.9773 -1.9303 -2.1288
  579MOL0     H78115   9.418   4.892   3.131  1.1904  0.0071  0.0986
  579MOL0     H78116   9.666   4.892   3.426 -0.5947  0.3627 -0.2408
  579MOL0     H78117   9.885   4.999   3.471  0.9314  0.3134 -0.7339
  579MOL0     H78118   9.964   5.093   3.345 -1.1149 -1.0795 -1.0821
  579MOL0     H78119   9.882   5.307   3.417  0.6289  3.8043  2.9077
  579MOL0     H78120   9.784   5.245   3.536 -0.0973  2.7926 -3.1610
  579MOL0     H78121  10.099   5.181   3.511  2.2936 -0.0760  3.2941
  579MOL0     H78122  10.001   5.123   3.647 -1.4109 -0.2213 -0.0179
  579MOL0     H78123  10.147   5.336   3.683 -0.0548  3.4717  0.5765
  579MOL0     H78124   9.979   5.378   3.689  0.3673  1.6805 -1.6215
  579MOL0     H78125  10.088   5.642   3.346 -0.8647 -2.7019 -0.5869
  579MOL0     H78126  10.280   5.707   3.227 -0.3331 -0.5100 -0.3269
  579MOL0     H78127  10.842   5.776   3.299  2.7177  1.8031 -1.5951
  579MOL0     H78128  11.029   5.792   3.151  0.7744 -1.4437  0.6467
  579MOL0     H78129  11.121   5.499   2.827 -0.8891 -0.5188  0.6171
  579MOL0     H78130  11.000   5.618   2.745  0.1946 -2.5704 -0.0387
  579MOL0     H78131  11.223   5.592   2.627  3.9649 -2.1816  1.8793
  579MOL0     H78132  11.195   5.761   2.674 -0.6385  0.1996 -1.4660
  579MOL0     H78133  11.329   5.721   2.878  4.7434  1.1018 -0.8956
  579MOL0     H78134  11.377   5.565   2.830  3.0351 -1.0096 -2.8617
  579MOL0     H78135  11.437   5.821   2.663  0.5206 -1.6436 -3.6332
  579MOL0     H78136  11.512   5.674   2.630 -0.3231 -1.3155  1.3587
  579MOL0     H78137  11.627   5.657   2.844 -0.6136 -0.5403 -1.2854
  579MOL0     H78138  11.525   5.776   2.915  1.6218 -2.9577  1.1625
  579MOL0     H78139  11.701   5.856   2.682  0.3986  4.6659 -0.9127
  579MOL0     H78140  11.637   5.966   2.804 -0.3782 -0.5418 -0.0741
  579MOL0     H78141  11.838   5.755   2.874  1.5962 -0.0978  0.5996
  579MOL0     H78142  11.778   5.876   2.975 -1.2420  0.0613 -0.8025
  579MOL0     H78143  11.882   6.043   2.825 -1.7508 -0.6498  3.6292
  579MOL0     H78144  12.004   5.919   2.883  0.1096 -2.8720 -0.7027
  579MOL0     H78145  10.910   5.466   2.919  2.0059  3.1292 -1.9461
  579MOL0     H78146  10.715   5.434   3.054 -1.9917  2.4780 -0.1054
  579MOL0     H78147  10.515   5.435   3.454 -0.1812 -2.2010 -1.5903
  579MOL0     H78148  10.321   5.359   3.563 -0.2531  0.4797  0.2129
  579MOL0     H78149   8.459   4.968   3.644 -1.5495  1.8377  0.8984
  579MOL0     H78150   8.241   4.906   3.721  0.3011 -0.1493 -0.4951
  579MOL0     H78151   7.888   4.558   3.449 -2.0073 -3.1992  0.0083
  579MOL0     H78152   7.660   4.483   3.437 -0.5712  0.9945 -1.1293
  579MOL0     H78153   7.474   4.415   3.508  0.4664 -1.4888 -0.4532
  579MOL0     H78154   7.466   4.459   3.345 -1.5987 -2.0763  1.0517
  579MOL0     H78155   7.229   4.474   3.540 -1.5833  0.1137 -0.9631
  579MOL0     H78156   7.255   4.356   3.416 -2.0632 -0.1779  2.6669
  579MOL0     H78157   7.242   4.601   3.266 -1.4287  1.2497 -0.5484
  579MOL0     H78158   7.157   4.635   3.409  2.1387  0.3656 -0.0001
  579MOL0     H78159   7.012   4.565   3.225 -0.1224  2.2873  2.7412
  579MOL0     H78160   7.101   4.407   3.220 -1.1692 -1.5716  0.5952
  579MOL0     H78161   6.840   4.363   3.554  2.1094 -0.3112  0.9536
  579MOL0     H78162   7.509   4.881   3.475 -0.0339  0.2103 -1.5103
  579MOL0     H78163   7.788   5.049   3.577  1.6689 -1.0684 -0.6519
  579MOL0     H78164   7.807   5.056   3.400  0.5595  0.6340  0.9554
  579MOL0     H78165   7.652   5.080   3.464  2.0720  5.5184  2.9452
  580MOL0     O78166   6.944   3.652   1.432  0.0805 -0.3931  0.9454
  580MOL0     C78167   6.830   3.628   1.380 -0.6225  0.3439 -1.1810
  580MOL0     O78168   6.794   3.646   1.250  0.4684 -0.4930 -0.1346
  580MOL0     C78169   6.874   3.714   1.172  0.0109  0.0825  0.6115
  580MOL0     C78170   7.005   3.674   1.126 -0.3944 -0.9665 -0.0515
  580MOL0     C78171   7.076   3.753   1.043  0.4566  0.2149  0.2284
  580MOL0     C78172   7.014   3.865   0.982 -0.0899 -0.3559  1.2669
  580MOL0     O78173   7.103   3.936   0.894  0.2066  0.2646 -0.7432
  580MOL0     C78174   7.054   4.042   0.812 -0.1055  0.5453 -0.2402
  580MOL0     C78175   7.030   4.174   0.884 -0.7860  0.7315 -0.7001
  580MOL0     C78176   6.990   4.299   0.805  0.6936 -0.4288  0.1301
  580MOL0     C78177   6.892   4.278   0.691 -0.5709  0.1415  0.3230
  580MOL0     C78178   6.814   4.401   0.659  0.5027 -0.4534 -0.6880
  580MOL0     C78179   6.748   4.387   0.513 -0.0102  0.6095  0.4313
  580MOL0     C78180   6.651   4.499   0.489  1.0614 -0.1235 -1.1578
  580MOL0     C78181   6.550   4.471   0.379  0.1131  0.2184 -0.3252
  580MOL0     N78182   6.482   4.588   0.334  0.0962 -0.4930 -0.2208
  580MOL0     C78183   6.374   4.647   0.403 -1.1779 -0.2393 -0.2749
  580MOL0     C78184   6.339   4.742   0.313  0.0224 -0.0344  0.2024
  580MOL0     C78185   6.209   4.815   0.322 -0.0155 -0.8394  0.3746
  580MOL0     C78186   6.216   4.953   0.399  0.7961 -0.2721 -0.0486
  580MOL0     C78187   6.242   4.937   0.550  0.2972  0.4063  0.3313
  580MOL0     C78188   6.285   5.075   0.610 -0.6882  0.0744 -0.5493
  580MOL0     O78189   6.195   5.175   0.554  0.2584 -0.5722 -0.2952
  580MOL0     C78190   6.256   5.302   0.556 -0.5872 -0.5486 -0.7602
  580MOL0     C78191   6.274   5.373   0.437 -0.0459 -0.4509 -0.3193
  580MOL0     C78192   6.334   5.497   0.429 -0.7492 -0.9059 -0.2137
  580MOL0     C78193   6.387   5.567   0.546 -0.5285  0.5894  0.3824
  580MOL0     C78194   6.467   5.697   0.546  0.1359  0.1819  0.5905
  580MOL0     O78195   6.492   5.739   0.423 -0.4820 -0.0088 -0.4852
  580MOL0     C78196   6.588   5.841   0.418  1.1218  0.7438 -0.2782
  580MOL0     C78197   6.558   5.979   0.428 -0.1016 -0.4076 -0.4449
  580MOL0     C78198   6.661   6.068   0.412 -0.3713  0.2063 -0.4298
  580MOL0     C78199   6.795   6.027   0.403 -0.4342 -0.0733  0.0771
  580MOL0     O78200   6.904   6.108   0.381  0.4542  0.1549 -0.1281
  580MOL0     C78201   6.880   6.256   0.399 -0.9297  0.6024  0.2167
  580MOL0     C78202   7.015   6.326   0.392  0.5868 -0.3298 -0.1175
  580MOL0     C78203   7.113   6.277   0.290  0.8205 -0.1435  0.2790
  580MOL0     C78204   7.253   6.234   0.349  1.3739 -0.0743  0.3840
  580MOL0     C78205   7.329   6.140   0.254  0.3631 -0.6116  0.5339
  580MOL0     C78206   7.373   6.225   0.136  0.4225  0.3229  0.5952
  580MOL0     C78207   7.468   6.144   0.053 -0.1642  0.0462  0.4266
  580MOL0     C78208   7.615   6.170   0.109  0.4167 -0.0067 -0.0936
  580MOL0    Cl78209   7.734   6.062   0.030  0.1242 -0.1726 -0.1028
  580MOL0     C78210   6.820   5.885   0.392 -0.1135 -0.4644 -0.1861
  580MOL0     C78211   6.713   5.794   0.401 -0.1623  0.1193  0.0334
  580MOL0     O78212   6.513   5.739   0.658 -0.5073  0.3058 -0.0634
  580MOL0     C78213   6.363   5.497   0.673  0.2029  0.4365  0.7288
  580MOL0     C78214   6.298   5.368   0.672 -0.1287 -0.0735 -0.1978
  580MOL0     N78215   6.414   4.741   0.203  0.1526 -0.8413 -0.0416
  580MOL0     N78216   6.492   4.642   0.210 -0.2389  0.5517  0.1959
  580MOL0     C78217   6.877   3.906   1.009  0.1933  0.4735 -1.1490
  580MOL0     C78218   6.812   3.823   1.106 -0.2611  0.6426 -0.2662
  580MOL0     C78219   6.722   3.554   1.467  0.0956  0.7454  0.6183
  580MOL0     C78220   6.591   3.593   1.450 -0.1250  0.2750 -0.0449
  580MOL0     C78221   6.487   3.524   1.521 -0.4046 -1.2839  0.3296
  580MOL0     C78222   6.517   3.429   1.606 -0.5353  0.1847  0.2876
  580MOL0     O78223   6.414   3.370   1.662  0.4193  0.1002 -0.6296
  580MOL0     C78224   6.390   3.228   1.632 -0.1179  0.3052  0.1203
  580MOL0     C78225   6.410   3.159   1.761 -0.4194  0.0612  0.1309
  580MOL0     C78226   6.278   3.106   1.829 -0.2608 -0.5266 -0.7267
  580MOL0     C78227   6.309   3.009   1.946  0.0458 -0.2523 -0.2251
  580MOL0     C78228   6.320   3.079   2.073  0.1822 -0.4679 -0.0538
  580MOL0     C78229   6.297   3.148   2.173  0.3698 -1.7222 -0.8758
  580MOL0     C78230   6.655   3.391   1.623  0.2476 -0.8029  0.8108
  580MOL0     C78231   6.754   3.449   1.560 -0.0598  0.1385  0.2018
  580MOL0     C78232   6.904   3.400   1.595 -0.0373 -0.3643 -0.1584
  580MOL0     H78233   7.052   3.582   1.159  0.0430 -0.7185  0.0287
  580MOL0     H78234   7.177   3.720   1.020  0.4705 -0.7614  1.5546
  580MOL0     H78235   7.128   4.056   0.732 -1.1329  0.3653 -1.2502
  580MOL0     H78236   6.962   4.004   0.767 -0.0981  1.5367 -1.1349
  580MOL0     H78237   7.128   4.191   0.930 -0.1868  1.8353 -2.2961
  580MOL0     H78238   6.952   4.155   0.958  0.9942 -1.0310  0.8528
  580MOL0     H78239   7.079   4.351   0.769 -0.6875  0.0987 -2.8990
  580MOL0     H78240   6.940   4.360   0.880 -1.0866 -0.0938 -1.2535
  580MOL0     H78241   6.949   4.247   0.602 -2.3649 -1.9118 -0.1970
  580MOL0     H78242   6.815   4.202   0.708 -0.2562 -1.1412 -3.0762
  580MOL0     H78243   6.732   4.412   0.731  1.3750 -0.2373  0.3074
  580MOL0     H78244   6.877   4.490   0.665  0.3081 -0.3650  0.3539
  580MOL0     H78245   6.820   4.372   0.431 -1.4843 -0.0957 -0.7780
  580MOL0     H78246   6.697   4.291   0.510 -0.8736  1.0398  1.0823
  580MOL0     H78247   6.699   4.595   0.467  2.7317 -0.9125 -1.0876
  580MOL0     H78248   6.588   4.504   0.578 -1.2383 -2.2864 -2.5266
  580MOL0     H78249   6.617   4.427   0.304  2.9174  1.0067  1.5419
  580MOL0     H78250   6.481   4.397   0.421 -0.9773  2.1341  1.4132
  580MOL0     H78251   6.333   4.626   0.501  0.7088  0.9988  0.8346
  580MOL0     H78252   6.190   4.836   0.216  0.1550  0.9069  0.6533
  580MOL0     H78253   6.136   4.748   0.369 -0.8595 -0.0869  0.1664
  580MOL0     H78254   6.292   5.013   0.348 -0.5903  3.0275  1.5121
  580MOL0     H78255   6.126   5.013   0.384  0.2847 -1.3103 -1.3411
  580MOL0     H78256   6.319   4.862   0.567  1.3405  0.8099 -2.1709
  580MOL0     H78257   6.151   4.896   0.596 -0.1535  1.8464  0.7772
  580MOL0     H78258   6.386   5.085   0.569 -0.2430 -0.7661  0.3206
  580MOL0     H78259   6.289   5.072   0.719 -2.1176  0.2211 -0.4679
  580MOL0     H78260   6.220   5.326   0.356 -2.2985  0.3309  0.6228
  580MOL0     H78261   6.341   5.542   0.330 -0.4610  1.2204  0.7222
  580MOL0     H78262   6.455   6.013   0.431 -0.6346 -1.9718  1.2474
  580MOL0     H78263   6.628   6.171   0.417 -0.4755  0.1986  4.3374
  580MOL0     H78264   6.831   6.283   0.305 -2.6672 -2.9005 -0.0693
  580MOL0     H78265   6.822   6.294   0.483  2.7818  2.3336  2.2232
  580MOL0     H78266   6.986   6.431   0.386  1.5846 -0.0762 -0.7634
  580MOL0     H78267   7.063   6.314   0.490  1.4251 -1.0717 -0.6016
  580MOL0     H78268   7.073   6.185   0.245 -1.2490 -0.0590  1.7761
  580MOL0     H78269   7.125   6.356   0.216 -1.1549  0.5393  0.6035
  580MOL0     H78270   7.226   6.179   0.440  0.6161 -0.0376  0.1832
  580MOL0     H78271   7.317   6.317   0.382  0.9600  0.5588 -0.3693
  580MOL0     H78272   7.265   6.059   0.218 -2.0201  1.3329  0.0220
  580MOL0     H78273   7.416   6.100   0.306  1.2961  2.2712  1.3687
  580MOL0     H78274   7.282   6.249   0.081  0.4973  1.8297  1.0733
  580MOL0     H78275   7.412   6.323   0.163  0.5264  0.2393  0.7552
  580MOL0     H78276   7.470   6.182  -0.050 -0.7413  0.7755  0.6796
  580MOL0     H78277   7.450   6.036   0.056  0.2549 -0.0303  0.2844
  580MOL0     H78278   7.632   6.277   0.094  0.3897 -0.1331 -1.1113
  580MOL0     H78279   7.622   6.154   0.217  1.7395 -0.0846 -0.1789
  580MOL0     H78280   6.925   5.856   0.387  0.2546  0.5846  0.9633
  580MOL0     H78281   6.727   5.687   0.395 -1.7550 -0.2666  2.0160
  580MOL0     H78282   6.402   5.530   0.769 -0.4663 -1.2067  1.5981
  580MOL0     H78283   6.284   5.311   0.763 -0.1595 -0.8061 -0.6551
  580MOL0     H78284   6.819   3.988   0.967 -3.8260  1.3999  4.9359
  580MOL0     H78285   6.716   3.845   1.150  1.0071  0.0070  3.1236
  580MOL0     H78286   6.555   3.679   1.395 -2.7009 -0.3352  0.5129
  580MOL0     H78287   6.386   3.561   1.503  0.3251  1.2101  0.9476
  580MOL0     H78288   6.464   3.189   1.561 -0.3534 -0.8525  0.4957
  580MOL0     H78289   6.294   3.210   1.583  0.9559 -0.9212 -1.6719
  580MOL0     H78290   6.468   3.226   1.824 -1.8732  1.1356  0.3681
  580MOL0     H78291   6.480   3.077   1.742  0.3897 -0.0855  3.1521
  580MOL0     H78292   6.227   3.046   1.753  0.4173 -1.6129 -0.3400
  580MOL0     H78293   6.210   3.187   1.858  0.2260 -1.2828  3.0305
  580MOL0     H78294   6.231   2.931   1.941  0.6052 -0.7934 -3.8977
  580MOL0     H78295   6.409   2.968   1.928  0.0959 -0.6433  0.8646
  580MOL0     H78296   6.287   3.212   2.258  3.2526 -2.3986  0.0833
  580MOL0     H78297   6.668   3.303   1.685 -0.9587 -0.9254  0.9086
  580MOL0     H78298   6.967   3.382   1.508  2.1996  0.6913  1.1371
  580MOL0     H78299   6.956   3.480   1.649  3.7299 -2.3862 -0.4602
  580MOL0     H78300   6.893   3.309   1.655 -0.6982 -1.5919 -2.0362
  581MOL0     O78301   8.636   8.506   0.281 -0.3494 -0.2523  0.1560
  581MOL0     C78302   8.572   8.426   0.351 -0.4402  0.0107 -0.0400
  581MOL0     O78303   8.622   8.314   0.407  0.3375 -0.4094 -0.1863
  581MOL0     C78304   8.733   8.255   0.355 -0.3116  0.2377 -0.3912
  581MOL0     C78305   8.832   8.211   0.448 -0.1417 -0.2710  0.6468
  581MOL0     C78306   8.949   8.151   0.397  0.4331  0.1795 -0.3304
  581MOL0     C78307   8.971   8.133   0.253  0.1814 -0.2712 -0.0308
  581MOL0     O78308   9.082   8.094   0.190  0.4177  0.0584 -0.8465
  581MOL0     C78309   9.196   8.053   0.261  0.8045 -0.0494 -0.5588
  581MOL0     C78310   9.308   8.007   0.171  0.5427  0.0396  0.0689
  581MOL0     C78311   9.434   7.982   0.247  0.1156 -0.3067  0.1081
  581MOL0     C78312   9.530   7.926   0.150  0.0109 -0.3040 -0.5986
  581MOL0     C78313   9.601   8.032   0.059 -0.0446 -0.3400 -0.0654
  581MOL0     C78314   9.682   8.147   0.133  0.9755  0.2510  0.9811
  581MOL0     C78315   9.809   8.093   0.200 -0.8988 -0.0452  0.0214
  581MOL0     C78316   9.914   8.201   0.191  0.0011 -0.5762  0.0119
  581MOL0     N78317  10.039   8.168   0.256  0.0717 -0.6246  0.0600
  581MOL0     C78318  10.076   8.209   0.381  0.7043 -0.4679 -1.1648
  581MOL0     C78319  10.200   8.158   0.396 -0.0219  0.8669  0.3176
  581MOL0     C78320  10.280   8.186   0.516 -0.1190 -0.0796 -0.9684
  581MOL0     C78321  10.423   8.154   0.489 -0.6287  0.4656 -0.0684
  581MOL0     C78322  10.491   8.259   0.403 -0.4292  0.0259  0.0205
  581MOL0     C78323  10.645   8.269   0.424  0.4521  0.0411  1.3562
  581MOL0     O78324  10.670   8.341   0.547  0.6966  0.4104  0.8921
  581MOL0     C78325  10.798   8.385   0.555 -1.0267 -0.0131 -0.2298
  581MOL0     C78326  10.816   8.497   0.642  0.6795 -0.0481  0.6164
  581MOL0     C78327  10.937   8.569   0.645  0.2398  0.6985 -0.5895
  581MOL0     C78328  11.051   8.517   0.575 -0.0619  0.4471 -0.1575
  581MOL0     C78329  11.182   8.568   0.600 -0.5610  0.2709 -0.1145
  581MOL0     O78330  11.185   8.691   0.660 -0.1084  0.2051  0.2716
  581MOL0     C78331  11.290   8.770   0.624 -0.3317  0.8574  0.2617
  581MOL0     C78332  11.347   8.829   0.736 -0.4151 -0.1266  0.3110
  581MOL0     C78333  11.450   8.925   0.714 -0.2602 -0.2551  0.1597
  581MOL0     C78334  11.488   8.969   0.585 -0.1148  0.9530 -0.3166
  581MOL0     O78335  11.574   9.072   0.567  0.1526 -0.5194  0.3941
  581MOL0     C78336  11.549   9.180   0.659 -0.2377 -0.2956  0.0753
  581MOL0     C78337  11.623   9.302   0.593 -0.0886  0.4668 -0.5856
  581MOL0     C78338  11.531   9.361   0.480  0.4938 -0.6776  0.1286
  581MOL0     C78339  11.599   9.490   0.430 -0.4398  0.1133  0.1679
  581MOL0     C78340  11.530   9.560   0.313 -0.0411 -0.5773 -0.2743
  581MOL0     C78341  11.600   9.686   0.267  0.9881 -0.4437 -0.1418
  581MOL0     C78342  11.508   9.749   0.156 -0.3096 -0.2152  1.0776
  581MOL0     C78343  11.537   9.904   0.148 -0.3158  0.1980 -0.4500
  581MOL0    Cl78344  11.493   9.984   0.315  0.5095  0.2025  0.1207
  581MOL0     C78345  11.421   8.902   0.474  0.4613 -0.3448 -1.1703
  581MOL0     C78346  11.324   8.803   0.493 -1.1410 -0.7689 -0.1902
  581MOL0     O78347  11.278   8.519   0.539  0.3980 -0.6178 -0.2552
  581MOL0     C78348  11.042   8.393   0.499  0.5381  0.0191  0.0355
  581MOL0     C78349  10.910   8.338   0.485  0.3806 -0.2682 -0.2314
  581MOL0     N78350  10.236   8.085   0.285 -0.5097  0.5476  0.0957
  581MOL0     N78351  10.136   8.085   0.194  0.2039 -0.6937 -1.0467
  581MOL0     C78352   8.855   8.160   0.172 -0.1332 -0.4752  0.6342
  581MOL0     C78353   8.741   8.221   0.217 -0.1734 -0.1123  0.7330
  581MOL0     C78354   8.425   8.459   0.379  0.5439  0.0457 -0.0589
  581MOL0     C78355   8.356   8.370   0.469  0.9255  0.3256 -0.3700
  581MOL0     C78356   8.222   8.393   0.499 -0.1875  0.7438  0.3264
  581MOL0     C78357   8.149   8.500   0.446  0.6122  0.4841  0.0768
  581MOL0     O78358   8.019   8.517   0.480  0.2967  0.0693 -0.2419
  581MOL0     C78359   7.905   8.557   0.401  0.9706 -0.5897  0.4378
  581MOL0     C78360   7.776   8.528   0.475  0.6226  0.0648 -0.5121
  581MOL0     C78361   7.667   8.451   0.390 -0.5317  0.3726  0.2252
  581MOL0     C78362   7.557   8.394   0.479 -1.0757 -0.2244 -0.4717
  581MOL0     C78363   7.443   8.344   0.407 -0.1065  0.0334  0.2420
  581MOL0     C78364   7.358   8.282   0.351  0.8826 -0.3701 -0.2275
  581MOL0     C78365   8.215   8.582   0.352  0.0565 -0.1799  0.1351
  581MOL0     C78366   8.347   8.566   0.317 -0.4183 -0.2338 -0.0589
  581MOL0     C78367   8.400   8.668   0.227  0.3894 -0.8922 -0.2800
  581MOL0     H78368   8.828   8.220   0.556 -0.8569 -4.8232  1.1880
  581MOL0     H78369   9.024   8.119   0.469 -1.9610 -0.4909  2.0457
  581MOL0     H78370   9.237   8.128   0.329 -1.0502  0.9058 -0.4235
  581MOL0     H78371   9.158   7.982   0.335  1.2666 -0.4318 -0.6853
  581MOL0     H78372   9.327   8.092   0.105  0.9608 -0.1439 -0.0528
  581MOL0     H78373   9.267   7.920   0.120 -1.9837 -1.0246  3.5479
  581MOL0     H78374   9.417   7.910   0.327  2.0961  0.2674  1.0917
  581MOL0     H78375   9.461   8.079   0.290 -0.9951 -0.3428  0.9338
  581MOL0     H78376   9.608   7.868   0.201 -1.3512 -0.9453  0.8383
  581MOL0     H78377   9.488   7.843   0.093  0.4385  0.1517 -1.6043
  581MOL0     H78378   9.668   7.989  -0.016 -1.6562 -0.9299 -1.2356
  581MOL0     H78379   9.516   8.069  -0.001 -0.8444 -1.4756  0.3335
  581MOL0     H78380   9.720   8.223   0.065  0.8253  1.4648  2.2171
  581MOL0     H78381   9.625   8.196   0.212 -2.9587 -0.9487 -0.8570
  581MOL0     H78382   9.840   8.002   0.147 -2.2877  0.0132 -0.9674
  581MOL0     H78383   9.795   8.066   0.305  0.2860 -0.7756  0.0110
  581MOL0     H78384   9.932   8.220   0.085 -1.8003 -2.5230 -0.7231
  581MOL0     H78385   9.874   8.294   0.233 -0.2630 -0.6893  0.0129
  581MOL0     H78386  10.025   8.284   0.441 -0.6551 -0.8051 -1.8574
  581MOL0     H78387  10.254   8.288   0.547  2.1854  1.1776 -2.8855
  581MOL0     H78388  10.252   8.118   0.597  3.2286 -0.9912 -0.4234
  581MOL0     H78389  10.473   8.144   0.586  2.6832 -1.5643 -1.8107
  581MOL0     H78390  10.439   8.054   0.448 -3.0876 -1.5417  3.2873
  581MOL0     H78391  10.457   8.358   0.435  2.3557  0.1114  3.3601
  581MOL0     H78392  10.480   8.237   0.297 -2.0527  1.9420 -0.2589
  581MOL0     H78393  10.673   8.347   0.352 -0.5085 -0.7106  0.1217
  581MOL0     H78394  10.699   8.175   0.418 -0.5316 -0.4878  0.5001
  581MOL0     H78395  10.731   8.537   0.696 -0.9334 -4.5550  1.8264
  581MOL0     H78396  10.946   8.661   0.703 -1.7513 -0.8753  2.4939
  581MOL0     H78397  11.327   8.792   0.836  0.1733 -0.7748  0.1913
  581MOL0     H78398  11.507   8.950   0.803  0.6574  1.9454 -0.9710
  581MOL0     H78399  11.443   9.204   0.673  0.2158  2.0445 -0.0940
  581MOL0     H78400  11.604   9.147   0.747  0.9886 -1.3599 -1.0537
  581MOL0     H78401  11.641   9.380   0.668  0.2371 -2.7560  2.9231
  581MOL0     H78402  11.725   9.272   0.567 -0.7541 -0.4450 -2.3178
  581MOL0     H78403  11.521   9.302   0.388 -4.0133  1.5899 -1.1127
  581MOL0     H78404  11.429   9.386   0.509  0.7635 -0.3390  0.7889
  581MOL0     H78405  11.704   9.470   0.409 -0.5522 -0.8937  0.4982
  581MOL0     H78406  11.611   9.562   0.512 -0.2087 -0.1990  0.4069
  581MOL0     H78407  11.424   9.570   0.337 -0.6083 -0.5956 -2.5193
  581MOL0     H78408  11.536   9.493   0.227 -2.0802  0.2287 -1.1093
  581MOL0     H78409  11.614   9.756   0.350 -0.6493 -1.1050  0.7317
  581MOL0     H78410  11.698   9.662   0.226  1.1478  0.2847 -0.2043
  581MOL0     H78411  11.402   9.728   0.176 -0.5847  1.7447  1.9399
  581MOL0     H78412  11.538   9.708   0.059  4.5837  1.6670  1.5152
  581MOL0     H78413  11.641   9.914   0.117 -0.4095 -0.1299 -0.8751
  581MOL0     H78414  11.468   9.932   0.068 -3.2427 -0.3004  1.7225
  581MOL0     H78415  11.450   8.926   0.372  0.1103  2.9458 -0.5880
  581MOL0     H78416  11.287   8.759   0.401 -0.7072  0.3713 -0.9282
  581MOL0     H78417  11.127   8.351   0.446 -0.3654  0.5516 -1.9119
  581MOL0     H78418  10.906   8.246   0.429  2.6928 -0.0667 -0.8629
  581MOL0     H78419   8.864   8.132   0.067  0.3914 -0.1911  0.5984
  581MOL0     H78420   8.666   8.246   0.143  0.0279 -1.6488 -0.0094
  581MOL0     H78421   8.404   8.285   0.516 -0.1284 -0.1157 -0.0620
  581MOL0     H78422   8.169   8.342   0.579 -2.0092  2.8561  0.5699
  581MOL0     H78423   7.912   8.507   0.304  0.0899  0.3189 -0.1187
  581MOL0     H78424   7.908   8.666   0.392  1.8793 -0.3532  2.8442
  581MOL0     H78425   7.744   8.626   0.512  2.0499  0.8326 -1.2402
  581MOL0     H78426   7.788   8.461   0.561 -3.8669 -0.8745 -0.3589
  581MOL0     H78427   7.712   8.372   0.330 -2.8743  0.7714 -2.2410
  581MOL0     H78428   7.615   8.517   0.319  0.2853  2.2530  1.2960
  581MOL0     H78429   7.610   8.320   0.541 -1.2305 -0.4922 -0.6573
  581MOL0     H78430   7.528   8.476   0.545  2.6642  0.2436  0.8146
  581MOL0     H78431   7.280   8.237   0.292  2.7850  0.3899 -3.5475
  581MOL0     H78432   8.153   8.650   0.295  0.7657 -0.4576 -1.0035
  581MOL0     H78433   8.318   8.718   0.173  0.7328  0.4754  0.4186
  581MOL0     H78434   8.450   8.742   0.290 -0.7364 -0.2115 -0.1471
  581MOL0     H78435   8.474   8.636   0.153 -1.7642 -1.0305 -2.5011
  582MOL0     O78436   0.421   4.790   3.742 -0.8079 -0.1242 -0.1408
  582MOL0     C78437   0.525   4.820   3.804  0.0479  0.2837  0.7309
  582MOL0     O78438   0.615   4.911   3.757 -0.1059 -0.1012 -0.3731
  582MOL0     C78439   0.746   4.926   3.804  0.1530 -0.0271  0.0302
  582MOL0     C78440   0.829   4.814   3.833  1.2987  0.5535  0.3092
  582MOL0     C78441   0.963   4.832   3.877  0.5711  0.1042 -0.2636
  582MOL0     C78442   1.011   4.958   3.904  0.5316 -1.0957  1.2369
  582MOL0     O78443   1.140   4.972   3.945 -0.0254 -0.1292  0.7511
  582MOL0     C78444   1.199   5.105   3.965  0.3825  0.1224 -0.2856
  582MOL0     C78445   1.333   5.082   4.029  0.1939  0.6672  0.3328
  582MOL0     C78446   1.379   5.220   4.077  0.0133 -0.5375 -0.2114
  582MOL0     C78447   1.513   5.212   4.153 -0.0853  0.0252  0.7355
  582MOL0     C78448   1.559   5.355   4.192 -0.0578 -1.1649 -0.4404
  582MOL0     C78449   1.700   5.353   4.244  0.2912  0.6545  0.9819
  582MOL0     C78450   1.751   5.473   4.310  0.2898 -0.6723 -0.1201
  582MOL0     C78451   1.778   5.593   4.212 -0.4813  0.4698  0.2248
  582MOL0     N78452   1.803   5.703   4.306  0.3953 -0.1163  0.1909
  582MOL0     C78453   1.894   5.713   4.397  0.3160 -0.3325 -0.5604
  582MOL0     C78454   1.880   5.838   4.454 -0.2307 -0.1652 -0.8517
  582MOL0     C78455   1.971   5.891   4.566  0.2188  0.0890 -0.1635
  582MOL0     C78456   1.989   6.039   4.560  0.6454 -0.2638 -0.5279
  582MOL0     C78457   2.088   6.075   4.447 -0.1361  0.5680  0.5980
  582MOL0     C78458   2.086   6.226   4.422  0.0398  0.6335 -0.0742
  582MOL0     O78459   2.151   6.262   4.297  0.4124  0.1354 -0.4408
  582MOL0     C78460   2.290   6.267   4.292  0.2595 -0.4612 -0.2200
  582MOL0     C78461   2.374   6.228   4.399  0.3755  0.0880  0.7760
  582MOL0     C78462   2.510   6.217   4.371 -0.2083  0.2601 -1.1729
  582MOL0     C78463   2.572   6.264   4.251  0.4891 -1.4462 -0.4129
  582MOL0     C78464   2.711   6.263   4.226  0.0948 -0.1556 -1.4817
  582MOL0     O78465   2.765   6.328   4.111  0.7187 -0.0220 -0.2087
  582MOL0     C78466   2.902   6.333   4.101 -0.4775  0.5684 -0.7845
  582MOL0     C78467   2.972   6.452   4.079 -0.4182  0.1908  0.0487
  582MOL0     C78468   3.109   6.463   4.078  0.2401  0.7280  0.3153
  582MOL0     C78469   3.183   6.343   4.089 -0.3664  0.5099 -0.1973
  582MOL0     O78470   3.317   6.361   4.102  0.5119  0.0049 -0.2493
  582MOL0     C78471   3.398   6.244   4.087  0.0620 -0.6093  1.3638
  582MOL0     C78472   3.542   6.283   4.095  0.6708 -0.0231  0.0553
  582MOL0     C78473   3.602   6.362   3.969 -0.2990  0.2199 -0.2647
  582MOL0     C78474   3.741   6.423   4.012 -0.0769 -0.7150  0.8933
  582MOL0     C78475   3.794   6.527   3.910  0.2795 -0.0065 -0.4374
  582MOL0     C78476   3.937   6.574   3.919 -0.7688 -0.1472  0.5493
  582MOL0     C78477   3.990   6.594   4.063 -0.3795  0.0694 -0.0778
  582MOL0     C78478   4.143   6.618   4.062  1.0184 -0.4915  0.0392
  582MOL0    Cl78479   4.179   6.780   3.987 -0.2762 -0.1799 -0.1673
  582MOL0     C78480   3.115   6.224   4.111  0.4446  0.5289 -0.2138
  582MOL0     C78481   2.978   6.220   4.113 -0.0738 -0.0302  1.4280
  582MOL0     O78482   2.780   6.214   4.315  0.0515 -0.3090  0.8955
  582MOL0     C78483   2.489   6.314   4.153  0.2048 -0.5798 -0.2797
  582MOL0     C78484   2.348   6.321   4.179 -0.6511  0.4790  0.1291
  582MOL0     N78485   1.778   5.908   4.392 -0.2010 -0.5830 -0.1612
  582MOL0     N78486   1.728   5.820   4.310 -1.3540 -0.4060 -0.0839
  582MOL0     C78487   0.936   5.070   3.860 -0.5664  0.0826  0.3528
  582MOL0     C78488   0.807   5.056   3.811  0.5308 -0.4446 -0.2998
  582MOL0     C78489   0.542   4.733   3.923 -0.7975  0.1662  0.0237
  582MOL0     C78490   0.538   4.597   3.902  0.1071 -0.3899  0.6835
  582MOL0     C78491   0.537   4.510   4.009 -0.5071  0.4712 -0.3265
  582MOL0     C78492   0.544   4.556   4.140  0.2803 -0.3814  1.1086
  582MOL0     O78493   0.538   4.460   4.231 -0.2879 -0.1097  0.0723
  582MOL0     C78494   0.503   4.498   4.372 -1.0367  0.6552  0.8226
  582MOL0     C78495   0.457   4.367   4.427  0.3113  0.0090  0.7310
  582MOL0     C78496   0.326   4.318   4.364  0.0243 -0.6472  0.1600
  582MOL0     C78497   0.291   4.185   4.429 -0.2713 -0.0802 -0.1122
  582MOL0     C78498   0.161   4.158   4.375  0.6709 -0.1805  0.2794
  582MOL0     C78499   0.055   4.142   4.323  1.1072  0.0270  0.8051
  582MOL0     C78500   0.560   4.694   4.159  0.0072 -0.6715  0.1573
  582MOL0     C78501   0.560   4.776   4.054  0.5822 -0.0134  0.8344
  582MOL0     C78502   0.585   4.920   4.094  0.1180 -0.4230  0.5490
  582MOL0     H78503   0.794   4.711   3.826  1.9194  0.4241 -1.1501
  582MOL0     H78504   1.031   4.747   3.887  1.6383  0.8913 -0.6447
  582MOL0     H78505   1.210   5.160   3.870  1.3315 -2.3420 -1.6918
  582MOL0     H78506   1.141   5.160   4.040  1.9889 -0.7420  1.6952
  582MOL0     H78507   1.401   5.048   3.951 -0.5238 -0.3367  0.1163
  582MOL0     H78508   1.318   5.016   4.115 -1.1570 -0.6237 -0.8389
  582MOL0     H78509   1.299   5.270   4.132  1.7117  0.8296  1.1530
  582MOL0     H78510   1.400   5.279   3.987 -0.1021 -0.3389 -0.1113
  582MOL0     H78511   1.501   5.138   4.234 -1.3418 -0.4936  0.1083
  582MOL0     H78512   1.590   5.169   4.089  1.0247 -1.0768  2.7163
  582MOL0     H78513   1.537   5.429   4.114 -1.8455 -1.5858 -0.3906
  582MOL0     H78514   1.497   5.384   4.278  2.7080  0.8253  1.0478
  582MOL0     H78515   1.711   5.271   4.316  0.3860 -0.1947  0.0313
  582MOL0     H78516   1.769   5.328   4.163 -0.0343 -0.1645  0.9396
  582MOL0     H78517   1.844   5.459   4.365  0.0925  1.3133  0.8011
  582MOL0     H78518   1.676   5.503   4.383 -2.1550 -0.8585 -2.3741
  582MOL0     H78519   1.854   5.565   4.139 -1.0934 -0.1213 -0.1973
  582MOL0     H78520   1.690   5.611   4.149 -0.1436 -3.9449 -1.9277
  582MOL0     H78521   1.960   5.630   4.418  0.4897 -0.4174 -1.4420
  582MOL0     H78522   1.917   5.869   4.658  0.6988  1.2620  0.4147
  582MOL0     H78523   2.069   5.843   4.565 -0.9788 -2.6016  1.2532
  582MOL0     H78524   1.892   6.089   4.549 -0.0238 -1.7705 -2.0421
  582MOL0     H78525   2.031   6.074   4.654  0.9492 -0.5334 -0.5640
  582MOL0     H78526   2.063   6.026   4.352  3.6414  1.0357 -0.8049
  582MOL0     H78527   2.192   6.056   4.476  0.5968  2.6197 -0.4482
  582MOL0     H78528   2.130   6.289   4.500 -1.0748  2.0466 -0.5447
  582MOL0     H78529   1.980   6.253   4.425 -0.3489 -0.8423  0.3089
  582MOL0     H78530   2.326   6.201   4.492 -1.5671  2.1556  0.4499
  582MOL0     H78531   2.563   6.176   4.457 -2.6138  2.3218  1.5301
  582MOL0     H78532   2.916   6.545   4.067 -2.6253 -1.2135 -1.2106
  582MOL0     H78533   3.165   6.556   4.076  1.8382 -0.1992  0.5830
  582MOL0     H78534   3.367   6.170   4.160 -2.1743 -0.1266  0.9595
  582MOL0     H78535   3.383   6.199   3.988  0.1826  1.1266  0.5084
  582MOL0     H78536   3.553   6.347   4.183  0.1910  0.1028  0.0271
  582MOL0     H78537   3.605   6.194   4.101  0.8960 -0.0156 -1.7991
  582MOL0     H78538   3.619   6.295   3.884  3.1741 -1.6363  1.6379
  582MOL0     H78539   3.546   6.453   3.947  0.1567  0.3303 -1.0356
  582MOL0     H78540   3.814   6.342   4.020  0.3432 -1.6130 -5.9905
  582MOL0     H78541   3.734   6.477   4.108 -2.0502  2.1036 -0.6767
  582MOL0     H78542   3.726   6.612   3.923  0.7682  0.2810  0.2753
  582MOL0     H78543   3.778   6.477   3.814  1.0657 -2.1998  0.5157
  582MOL0     H78544   4.002   6.504   3.866 -0.9019  0.2609 -0.1653
  582MOL0     H78545   3.944   6.665   3.859 -0.6330 -1.5011 -1.6200
  582MOL0     H78546   3.960   6.510   4.126  3.2972 -1.2303  0.1821
  582MOL0     H78547   3.951   6.687   4.105  2.4056  2.2391 -1.9269
  582MOL0     H78548   4.189   6.617   4.161  0.2447 -0.0248  0.4166
  582MOL0     H78549   4.182   6.538   3.998 -0.9468 -0.7090 -0.9546
  582MOL0     H78550   3.165   6.128   4.121 -0.8417 -0.1299  0.0286
  582MOL0     H78551   2.930   6.123   4.122 -0.5769 -0.2896 -2.3275
  582MOL0     H78552   2.536   6.345   4.060 -2.8231 -0.4977 -1.9061
  582MOL0     H78553   2.281   6.353   4.100 -0.0391  1.9464  0.1745
  582MOL0     H78554   0.968   5.173   3.865 -0.5908  0.1348 -0.5734
  582MOL0     H78555   0.746   5.137   3.775  0.2835  0.0773  1.2177
  582MOL0     H78556   0.513   4.550   3.807 -1.2362 -0.3038  0.9756
  582MOL0     H78557   0.516   4.404   3.996 -3.7761  1.0095 -0.3655
  582MOL0     H78558   0.426   4.575   4.369 -0.0039  1.6775 -0.8494
  582MOL0     H78559   0.587   4.554   4.413 -0.0807  0.1286 -0.3715
  582MOL0     H78560   0.441   4.390   4.533 -1.1207  1.8818  0.1647
  582MOL0     H78561   0.533   4.292   4.404  1.0974  1.3626 -1.4196
  582MOL0     H78562   0.346   4.306   4.258 -1.5680 -2.6852  0.0237
  582MOL0     H78563   0.245   4.390   4.381  1.4584  0.8375  0.9566
  582MOL0     H78564   0.365   4.105   4.417  0.3313  0.5156 -0.4232
  582MOL0     H78565   0.297   4.199   4.538  3.7265 -0.2072 -0.1691
  582MOL0     H78566  -0.033   4.109   4.272  1.2274 -3.2454  2.4010
  582MOL0     H78567   0.585   4.732   4.257  0.7393 -0.0868 -0.2461
  582MOL0     H78568   0.564   4.985   4.009  0.3863 -1.8105 -0.6227
  582MOL0     H78569   0.523   4.957   4.176  1.4854  2.6271  0.3460
  582MOL0     H78570   0.690   4.937   4.119  0.1012 -0.8442  0.9084
  583MOL0     O78571  11.070   5.501   2.202 -0.3565  0.4718 -0.3969
  583MOL0     C78572  11.017   5.411   2.130 -0.0225 -0.6828 -0.9572
  583MOL0     O78573  10.909   5.336   2.168  1.4347 -0.2483  0.2055
  583MOL0     C78574  10.857   5.334   2.297  0.5432  0.2659 -0.4653
  583MOL0     C78575  10.825   5.446   2.382  0.6766  0.2563  1.0767
  583MOL0     C78576  10.796   5.436   2.515 -0.0235 -0.0772  0.3139
  583MOL0     C78577  10.778   5.308   2.564  0.3743  0.1186  0.5591
  583MOL0     O78578  10.744   5.289   2.693  0.5136  0.5475 -0.0934
  583MOL0     C78579  10.654   5.186   2.729 -0.2841 -0.2234 -0.3947
  583MOL0     C78580  10.570   5.247   2.843 -0.3106  0.8479  0.3044
  583MOL0     C78581  10.459   5.144   2.891  1.3969  0.3440  1.0257
  583MOL0     C78582  10.433   5.180   3.042 -0.4908 -0.2143 -0.5803
  583MOL0     C78583  10.293   5.131   3.083  0.6521 -0.6772 -0.2733
  583MOL0     C78584  10.184   5.233   3.035 -0.0090  0.0316 -1.0047
  583MOL0     C78585  10.058   5.159   3.010  0.2043 -0.6402  0.5149
  583MOL0     C78586   9.927   5.242   3.025  0.9500 -0.2083 -0.1363
  583MOL0     N78587   9.903   5.348   2.931 -0.1071 -0.2957 -0.2943
  583MOL0     C78588   9.786   5.412   2.933 -0.5699  0.5618  0.7545
  583MOL0     C78589   9.809   5.518   2.857 -0.4058 -0.0792 -0.4642
  583MOL0     C78590   9.705   5.619   2.836 -0.2125 -0.7279  0.5675
  583MOL0     C78591   9.588   5.553   2.750 -0.1690 -0.1199 -0.9508
  583MOL0     C78592   9.510   5.637   2.667  0.3675  0.7375  1.5411
  583MOL0     C78593   9.399   5.570   2.590  0.3223  0.5022  0.3245
  583MOL0     O78594   9.306   5.656   2.511  0.1512  0.2157  0.1867
  583MOL0     C78595   9.198   5.709   2.580 -0.2572 -0.1927  0.4953
  583MOL0     C78596   9.113   5.794   2.502 -0.4725  0.7922 -0.2332
  583MOL0     C78597   9.011   5.870   2.559 -0.7965 -0.5200  1.2151
  583MOL0     C78598   8.971   5.844   2.689 -0.4914  0.3194  0.1051
  583MOL0     C78599   8.857   5.907   2.754  0.2154 -0.5269 -0.0888
  583MOL0     O78600   8.770   5.972   2.677 -0.0413  0.0571  0.5683
  583MOL0     C78601   8.644   5.993   2.726  0.0858 -0.1888 -0.6076
  583MOL0     C78602   8.572   5.884   2.784  1.0579 -0.4730  0.1632
  583MOL0     C78603   8.450   5.912   2.843 -0.0420 -0.1610 -0.0770
  583MOL0     C78604   8.386   6.036   2.818  0.4492 -0.2570 -0.1067
  583MOL0     O78605   8.261   6.071   2.864  0.0343 -0.1215 -0.4588
  583MOL0     C78606   8.242   6.043   3.001  0.7081  0.0595 -0.6845
  583MOL0     C78607   8.157   6.141   3.072  0.5181 -0.3870  0.2434
  583MOL0     C78608   8.118   6.104   3.215  0.1210  0.0377 -0.5575
  583MOL0     C78609   8.073   6.224   3.290 -1.1528 -0.2071 -0.0628
  583MOL0     C78610   7.944   6.295   3.234  0.2840 -0.2188 -0.1600
  583MOL0     C78611   7.851   6.351   3.345  0.0145 -1.1652  0.3771
  583MOL0     C78612   7.925   6.454   3.435  0.0177  0.8807 -0.1141
  583MOL0     C78613   7.841   6.520   3.547 -0.2688  0.7834  0.3026
  583MOL0    Cl78614   7.695   6.602   3.497 -0.1581 -0.4704 -0.0955
  583MOL0     C78615   8.457   6.139   2.754  0.0120  0.0879  0.4669
  583MOL0     C78616   8.588   6.115   2.708  0.6150  0.1392 -0.1052
  583MOL0     O78617   8.833   5.884   2.875  0.0558  0.6120 -0.0225
  583MOL0     C78618   9.041   5.741   2.759 -0.3588 -0.1126  0.1137
  583MOL0     C78619   9.163   5.681   2.711 -0.6666 -0.1979  0.6041
  583MOL0     N78620   9.938   5.532   2.824 -1.2815  0.9362  0.7055
  583MOL0     N78621  10.003   5.428   2.868 -0.1231  0.3719 -0.1991
  583MOL0     C78622  10.798   5.195   2.479 -0.0037  0.3252 -0.0837
  583MOL0     C78623  10.835   5.209   2.349 -0.1695  0.1105  0.1373
  583MOL0     C78624  11.074   5.401   1.985  0.4906 -0.1467  0.2068
  583MOL0     C78625  11.201   5.455   1.957  0.2491  0.4333 -0.4689
  583MOL0     C78626  11.268   5.443   1.842 -0.2693 -0.4306  0.4701
  583MOL0     C78627  11.209   5.379   1.731 -0.5592 -0.4963  0.3569
  583MOL0     O78628  11.254   5.386   1.603  0.2082 -0.2551 -0.1902
  583MOL0     C78629  11.355   5.477   1.560  1.3405  0.4451 -0.2535
  583MOL0     C78630  11.320   5.627   1.567 -0.4088  0.3658  0.5735
  583MOL0     C78631  11.228   5.681   1.457  0.2527  0.2308  0.4234
  583MOL0     C78632  11.158   5.817   1.493 -0.2094  0.1200  0.3832
  583MOL0     C78633  11.045   5.793   1.579 -0.3503  0.3403  0.5930
  583MOL0     C78634  10.950   5.759   1.654 -0.5165  0.5989 -0.0094
  583MOL0     C78635  11.093   5.311   1.755  0.1128 -0.5726 -0.9136
  583MOL0     C78636  11.014   5.326   1.876 -0.0782 -0.5133  0.3337
  583MOL0     C78637  10.876   5.257   1.873 -0.4646 -0.6183  0.3969
  583MOL0     H78638  10.833   5.548   2.344  0.5622  1.3690  3.8491
  583MOL0     H78639  10.785   5.533   2.563  0.4852  2.3714 -3.9574
  583MOL0     H78640  10.604   5.148   2.639  2.2153 -1.2325 -1.4776
  583MOL0     H78641  10.719   5.107   2.769 -0.7919  0.4602  1.9368
  583MOL0     H78642  10.516   5.329   2.795  1.6020  0.5301 -2.6341
  583MOL0     H78643  10.630   5.272   2.931 -0.9607 -2.2543  1.7854
  583MOL0     H78644  10.484   5.039   2.874  0.2217 -0.1223  2.0311
  583MOL0     H78645  10.366   5.169   2.839 -1.3707 -0.7842  4.9367
  583MOL0     H78646  10.500   5.131   3.113 -3.1982 -1.1915  1.4749
  583MOL0     H78647  10.441   5.286   3.065 -0.7055 -0.6491  1.7246
  583MOL0     H78648  10.290   5.030   3.039  0.3374 -1.5847  1.7264
  583MOL0     H78649  10.286   5.134   3.192  1.5242 -2.3920 -0.1245
  583MOL0     H78650  10.178   5.297   3.124  0.9141 -1.5348  0.2220
  583MOL0     H78651  10.213   5.280   2.940  1.4575  2.2247  0.4324
  583MOL0     H78652  10.049   5.075   3.079 -0.8195 -3.0086 -2.2837
  583MOL0     H78653  10.075   5.115   2.911 -0.6102  0.2250 -0.0264
  583MOL0     H78654   9.848   5.166   3.017  0.0960  0.1537  3.1859
  583MOL0     H78655   9.905   5.273   3.128 -1.9904 -2.4478  0.0454
  583MOL0     H78656   9.691   5.392   2.981 -2.1013 -0.5399 -2.4500
  583MOL0     H78657   9.674   5.658   2.933 -1.2764  0.8822 -0.3757
  583MOL0     H78658   9.753   5.703   2.785 -1.7151 -0.1120  0.1218
  583MOL0     H78659   9.634   5.485   2.677  0.5473  1.1430 -1.7131
  583MOL0     H78660   9.523   5.498   2.819  0.8575  1.9045  1.8033
  583MOL0     H78661   9.577   5.673   2.589 -0.0341  0.9005  1.2701
  583MOL0     H78662   9.455   5.715   2.722 -4.2722 -1.0505 -0.1038
  583MOL0     H78663   9.340   5.514   2.663  0.5721  0.2231  0.3171
  583MOL0     H78664   9.443   5.494   2.525 -0.9888  0.6316 -0.7728
  583MOL0     H78665   9.143   5.818   2.401 -4.4977  0.5556 -1.6858
  583MOL0     H78666   8.953   5.939   2.500 -1.9758 -1.7088  0.9301
  583MOL0     H78667   8.604   5.781   2.775  3.2077  0.2371 -0.9377
  583MOL0     H78668   8.376   5.840   2.875 -0.0735  1.0277  2.8435
  583MOL0     H78669   8.184   5.950   3.008 -2.4029  1.9339  1.6170
  583MOL0     H78670   8.332   6.026   3.059 -1.2636  0.5021  2.8021
  583MOL0     H78671   8.208   6.237   3.069 -0.0590 -0.0870 -0.1818
  583MOL0     H78672   8.067   6.156   3.012  1.2227 -1.4726 -1.1597
  583MOL0     H78673   8.043   6.025   3.224  0.8343 -0.3410  4.1878
  583MOL0     H78674   8.206   6.063   3.265  0.3018  2.5543  1.3592
  583MOL0     H78675   8.153   6.299   3.282  0.2189 -1.6716 -0.5929
  583MOL0     H78676   8.077   6.201   3.397  2.5840 -0.9314 -0.2236
  583MOL0     H78677   7.885   6.227   3.171 -1.9452  0.2033  1.3590
  583MOL0     H78678   7.969   6.376   3.164 -1.8495  0.1678 -0.5323
  583MOL0     H78679   7.780   6.409   3.285  2.7996  1.5603 -0.5974
  583MOL0     H78680   7.804   6.266   3.395 -0.1527 -0.6446  1.1151
  583MOL0     H78681   7.969   6.533   3.374 -1.7407  0.8046 -1.5873
  583MOL0     H78682   8.010   6.399   3.475 -0.8408  0.1754  0.8022
  583MOL0     H78683   7.817   6.444   3.622  1.1369 -2.2711 -2.1033
  583MOL0     H78684   7.909   6.594   3.589  1.3089 -0.1813 -0.4332
  583MOL0     H78685   8.425   6.239   2.728  1.1924  0.7459  1.4744
  583MOL0     H78686   8.647   6.198   2.668 -1.4665  2.8202  1.9612
  583MOL0     H78687   9.008   5.709   2.857  0.4643 -2.9420 -0.4382
  583MOL0     H78688   9.207   5.620   2.789 -2.6295 -1.1168  1.0275
  583MOL0     H78689  10.780   5.100   2.529  1.6130  0.5866  1.0705
  583MOL0     H78690  10.862   5.123   2.289  0.2498  1.6587 -2.0478
  583MOL0     H78691  11.256   5.496   2.041 -2.1657 -3.2446  3.3160
  583MOL0     H78692  11.367   5.483   1.824  0.5146 -1.2109  2.7056
  583MOL0     H78693  11.384   5.449   1.458  2.3587 -1.2820  0.4661
  583MOL0     H78694  11.451   5.464   1.611  1.6101  2.0636 -0.3116
  583MOL0     H78695  11.408   5.691   1.570 -1.2489  1.5425  3.1813
  583MOL0     H78696  11.263   5.640   1.660 -1.2692 -0.5560  0.1894
  583MOL0     H78697  11.148   5.608   1.438  1.1027 -0.6700  0.2231
  583MOL0     H78698  11.296   5.689   1.372 -0.0815  0.6873  0.1954
  583MOL0     H78699  11.222   5.893   1.539 -1.6580  1.2509  0.6233
  583MOL0     H78700  11.112   5.860   1.403 -0.0784 -0.3921  0.0630
  583MOL0     H78701  10.861   5.735   1.709 -1.2207  1.0204 -0.9465
  583MOL0     H78702  11.061   5.246   1.673  2.0521 -0.2914 -1.9728
  583MOL0     H78703  10.888   5.159   1.919  1.7763 -0.9750 -0.7847
  583MOL0     H78704  10.809   5.330   1.918 -0.3184  0.8869 -1.6854
  583MOL0     H78705  10.828   5.235   1.777 -4.3923  1.3661  1.7024
  584MOL0     O78706   3.964   3.026   3.941  0.9429 -0.4616 -0.0903
  584MOL0     C78707   4.015   3.077   3.837 -0.2616  0.3373 -0.8984
  584MOL0     O78708   4.125   3.159   3.837 -0.2080  0.1300 -0.6815
  584MOL0     C78709   4.216   3.169   3.947 -0.4439 -0.7164  0.3359
  584MOL0     C78710   4.230   3.084   4.062 -0.9392 -0.2497  0.5214
  584MOL0     C78711   4.331   3.096   4.164  0.1265  0.3333  0.5018
  584MOL0     C78712   4.413   3.214   4.163  0.5612 -0.2791 -0.1892
  584MOL0     O78713   4.516   3.221   4.260  0.2029 -0.5591  0.3480
  584MOL0     C78714   4.619   3.319   4.231 -0.3818 -0.1665 -0.3491
  584MOL0     C78715   4.701   3.335   4.364  0.6039 -0.0659 -0.1940
  584MOL0     C78716   4.833   3.422   4.333 -0.4255 -0.2717 -1.1103
  584MOL0     C78717   4.935   3.415   4.446 -0.1682 -0.6889  0.4201
  584MOL0     C78718   5.054   3.502   4.433 -0.1113 -0.7124 -1.4602
  584MOL0     C78719   5.159   3.447   4.330  0.4314 -0.3464  0.1777
  584MOL0     C78720   5.285   3.527   4.306  0.6494  0.1137 -0.0560
  584MOL0     C78721   5.348   3.555   4.445 -0.0487 -0.3609  0.5243
  584MOL0     N78722   5.491   3.586   4.454 -0.1490  0.2955 -0.4034
  584MOL0     C78723   5.559   3.675   4.381 -0.2550  0.3143  0.6775
  584MOL0     C78724   5.680   3.682   4.434  0.3778  0.5339 -0.0231
  584MOL0     C78725   5.791   3.763   4.363  0.8510  0.2768 -0.3529
  584MOL0     C78726   5.800   3.736   4.211 -0.2118  0.6791  0.3655
  584MOL0     C78727   5.930   3.775   4.142  0.2617 -0.4452 -0.2344
  584MOL0     C78728   6.058   3.687   4.174 -1.1177 -0.0255 -0.2906
  584MOL0     O78729   6.146   3.755   4.263 -0.1423 -0.0136 -0.0230
  584MOL0     C78730   6.231   3.858   4.214  0.5975  0.1743  0.1672
  584MOL0     C78731   6.213   3.918   4.077 -1.0815 -0.3240 -0.0548
  584MOL0     C78732   6.292   4.033   4.041  0.1564 -0.8261  0.1523
  584MOL0     C78733   6.390   4.083   4.138 -0.8879  0.9301  0.8334
  584MOL0     C78734   6.471   4.201   4.102 -0.8813  0.1390 -0.6722
  584MOL0     O78735   6.437   4.264   3.984  0.3449  0.5743 -0.6787
  584MOL0     C78736   6.510   4.375   3.948 -0.4026 -0.2040  0.0769
  584MOL0     C78737   6.575   4.373   3.828 -0.0551 -0.2816 -0.0682
  584MOL0     C78738   6.635   4.487   3.777  0.4681  0.4872 -0.3537
  584MOL0     C78739   6.638   4.608   3.847  0.5489  0.2345  0.6557
  584MOL0     O78740   6.716   4.710   3.803 -0.1395  1.0085  0.0977
  584MOL0     C78741   6.651   4.837   3.792  0.2189 -0.0399  0.4784
  584MOL0     C78742   6.734   4.924   3.712  0.2891  0.6189 -0.0076
  584MOL0     C78743   6.675   5.058   3.682 -0.1997 -0.6561 -0.2493
  584MOL0     C78744   6.798   5.155   3.648 -0.3291  0.3045  0.2937
  584MOL0     C78745   6.857   5.121   3.514  0.3574 -0.4234  0.0758
  584MOL0     C78746   7.012   5.154   3.504  0.1923 -0.2372 -1.0624
  584MOL0     C78747   7.085   5.049   3.590 -0.3568 -0.8801  0.2359
  584MOL0     C78748   7.235   5.063   3.563 -0.7770 -0.7213  0.1164
  584MOL0    Cl78749   7.276   5.025   3.399 -0.1141  0.2927  0.3995
  584MOL0     C78750   6.566   4.613   3.962  0.4699 -0.3920 -0.0495
  584MOL0     C78751   6.499   4.502   4.016 -0.0674  0.3175  0.4392
  584MOL0     O78752   6.567   4.231   4.174 -0.1494 -0.1837  0.4502
  584MOL0     C78753   6.402   4.023   4.265 -0.2205 -0.1261 -0.5417
  584MOL0     C78754   6.324   3.912   4.300 -0.3486  0.3351 -0.0541
  584MOL0     N78755   5.687   3.597   4.548  0.7997 -0.0025  0.8144
  584MOL0     N78756   5.569   3.540   4.559 -0.4477  0.3642  0.4849
  584MOL0     C78757   4.389   3.306   4.058  0.1370 -0.9209  0.9639
  584MOL0     C78758   4.308   3.277   3.945 -1.2566  0.6998  0.1656
  584MOL0     C78759   3.962   3.058   3.707  0.2749  0.2751  0.1442
  584MOL0     C78760   4.043   3.049   3.599  0.3635 -0.5037 -0.0192
  584MOL0     C78761   3.989   3.034   3.471 -0.1299 -0.6519  0.3414
  584MOL0     C78762   3.857   3.040   3.445  0.0963  0.1002  0.1755
  584MOL0     O78763   3.800   3.040   3.317 -0.8258  0.4193  0.7962
  584MOL0     C78764   3.891   3.063   3.205  0.2208 -0.3228 -0.5056
  584MOL0     C78765   3.805   3.046   3.076 -0.3580 -0.1261 -0.0407
  584MOL0     C78766   3.772   2.901   3.054  0.9437 -1.9192  0.0344
  584MOL0     C78767   3.688   2.879   2.925 -0.3993 -0.7150 -0.2006
  584MOL0     C78768   3.547   2.924   2.940  0.0322 -0.4269  0.1953
  584MOL0     C78769   3.431   2.956   2.960 -0.5062  0.0221 -0.2843
  584MOL0     C78770   3.769   3.054   3.552 -0.2590  0.3155 -0.7768
  584MOL0     C78771   3.816   3.060   3.683 -0.5752 -0.2319 -0.2335
  584MOL0     C78772   3.721   3.081   3.801  0.5360 -1.0305  0.1291
  584MOL0     H78773   4.160   3.003   4.042 -1.1714  0.2996 -0.9496
  584MOL0     H78774   4.334   3.032   4.252 -1.5179 -0.5271 -0.0225
  584MOL0     H78775   4.684   3.279   4.152 -0.0282 -1.5107  0.5781
  584MOL0     H78776   4.564   3.411   4.212 -2.2453 -1.6467 -2.8092
  584MOL0     H78777   4.729   3.235   4.399  0.3251 -0.0547  0.0731
  584MOL0     H78778   4.635   3.378   4.440  0.8724 -0.9113  0.5531
  584MOL0     H78779   4.810   3.523   4.299 -0.4038  0.3865  0.6878
  584MOL0     H78780   4.888   3.376   4.251  1.5907 -0.0892  0.0927
  584MOL0     H78781   4.888   3.429   4.544 -0.5600  0.3245  0.1014
  584MOL0     H78782   4.984   3.320   4.471  0.1862 -0.8015 -0.6751
  584MOL0     H78783   5.017   3.601   4.403  3.3460  0.4871 -2.1427
  584MOL0     H78784   5.087   3.511   4.536 -4.5932 -3.2880  0.5033
  584MOL0     H78785   5.196   3.348   4.359  1.5048  0.3652  1.3179
  584MOL0     H78786   5.109   3.434   4.233 -1.5253 -1.5164  1.2833
  584MOL0     H78787   5.251   3.627   4.277  2.6583  1.0068  0.5362
  584MOL0     H78788   5.346   3.478   4.230 -3.5729 -1.6761 -2.6856
  584MOL0     H78789   5.294   3.633   4.499  0.7784 -1.7872  3.6334
  584MOL0     H78790   5.333   3.457   4.493 -1.2902 -0.9297 -0.9382
  584MOL0     H78791   5.524   3.741   4.302  0.6055  1.4601  1.2145
  584MOL0     H78792   5.769   3.869   4.376 -1.3229  0.1362 -2.2053
  584MOL0     H78793   5.888   3.740   4.408 -1.0195 -1.3038  3.3637
  584MOL0     H78794   5.779   3.635   4.173 -0.4579  1.2334 -1.0345
  584MOL0     H78795   5.717   3.792   4.166 -0.0321  0.3635 -0.3851
  584MOL0     H78796   5.956   3.880   4.155  0.6339 -0.4794 -0.6476
  584MOL0     H78797   5.923   3.769   4.032  2.7227  0.4381 -0.4992
  584MOL0     H78798   6.113   3.658   4.084 -3.3193 -0.5827 -1.5514
  584MOL0     H78799   6.014   3.604   4.230 -0.5239 -0.4772 -0.4866
  584MOL0     H78800   6.141   3.878   4.007 -1.0204 -1.7010  0.6353
  584MOL0     H78801   6.290   4.087   3.947  1.7908 -0.6766  0.1753
  584MOL0     H78802   6.578   4.281   3.770  2.7799 -0.4609  0.2160
  584MOL0     H78803   6.686   4.480   3.681 -0.2106  1.2551 -0.7885
  584MOL0     H78804   6.560   4.829   3.732  1.3955 -0.4226 -1.3384
  584MOL0     H78805   6.617   4.886   3.884 -1.2476  0.5034 -0.3138
  584MOL0     H78806   6.834   4.939   3.754  1.8786  0.7217 -3.5278
  584MOL0     H78807   6.767   4.877   3.619 -0.1287  0.5314 -0.1118
  584MOL0     H78808   6.607   5.067   3.597 -2.5760  1.3023  1.7398
  584MOL0     H78809   6.629   5.106   3.769  1.5884 -1.6933  1.3615
  584MOL0     H78810   6.881   5.149   3.719  0.7329  1.0464 -0.8269
  584MOL0     H78811   6.751   5.254   3.647  0.2277  0.6282 -2.4202
  584MOL0     H78812   6.796   5.186   3.452  0.3254  2.8631  3.2531
  584MOL0     H78813   6.842   5.014   3.496  2.3366 -0.9526  1.2111
  584MOL0     H78814   7.042   5.142   3.399  1.3366 -2.0050 -0.5832
  584MOL0     H78815   7.043   5.255   3.534  1.9299 -1.5187  1.8833
  584MOL0     H78816   7.059   4.943   3.584  0.1156 -1.1759  2.4956
  584MOL0     H78817   7.068   5.069   3.696 -0.6359  2.9082 -0.3674
  584MOL0     H78818   7.262   5.167   3.584  1.6434 -1.0759 -0.8831
  584MOL0     H78819   7.276   4.988   3.631 -1.0881 -1.8331 -0.9007
  584MOL0     H78820   6.566   4.703   4.022 -2.6588 -0.6160  0.4571
  584MOL0     H78821   6.452   4.511   4.113  2.0344 -0.2468  1.5578
  584MOL0     H78822   6.466   4.050   4.348  0.0278  1.4363 -1.1995
  584MOL0     H78823   6.350   3.868   4.396  2.4299  1.3211 -0.2773
  584MOL0     H78824   4.422   3.410   4.057 -2.5383  0.0039  1.2961
  584MOL0     H78825   4.305   3.342   3.858 -1.9730 -0.6793 -0.8887
  584MOL0     H78826   4.150   3.055   3.616  1.0518 -3.5667 -2.2277
  584MOL0     H78827   4.071   3.023   3.400 -1.8985 -1.5774 -1.6807
  584MOL0     H78828   3.982   3.002   3.207  1.4689  1.4109 -1.7091
  584MOL0     H78829   3.930   3.164   3.222  0.2103 -0.1435 -1.4907
  584MOL0     H78830   3.856   3.100   2.995 -2.1020  3.8617  1.2386
  584MOL0     H78831   3.711   3.103   3.075 -0.2561  0.1808  2.1634
  584MOL0     H78832   3.704   2.860   3.129 -0.7327 -2.6007 -1.7847
  584MOL0     H78833   3.864   2.845   3.037 -0.2603 -2.9367 -4.0797
  584MOL0     H78834   3.726   2.922   2.832  0.9516 -2.5336 -0.5585
  584MOL0     H78835   3.688   2.769   2.920 -0.3631 -1.0882  4.3242
  584MOL0     H78836   3.329   2.976   2.987  0.1726  2.8442  0.5453
  584MOL0     H78837   3.664   3.061   3.524  0.0848 -0.8289 -2.5327
  584MOL0     H78838   3.683   2.996   3.859  0.0637  0.0804  1.4901
  584MOL0     H78839   3.776   3.152   3.863  3.2433  0.5237 -3.6646
  584MOL0     H78840   3.625   3.124   3.770 -1.1044 -2.9442  2.1968
  585MOL0     O78841   6.055   8.189   2.098 -0.8037 -0.6314 -0.6815
  585MOL0     C78842   5.996   8.290   2.101 -0.2314 -0.5009 -0.2216
  585MOL0     O78843   5.968   8.371   1.992  0.2843 -0.5745  0.0129
  585MOL0     C78844   6.012   8.340   1.869 -0.8179 -0.4252  0.0947
  585MOL0     C78845   6.144   8.305   1.843  0.5294 -0.5662  0.5592
  585MOL0     C78846   6.185   8.295   1.708 -0.3904 -0.8711 -0.3623
  585MOL0     C78847   6.094   8.312   1.604 -0.2164  0.2255 -0.1901
  585MOL0     O78848   6.125   8.301   1.471 -0.5585 -0.7063  0.2638
  585MOL0     C78849   6.259   8.255   1.428 -0.3657  0.0778 -1.0499
  585MOL0     C78850   6.284   8.286   1.277 -0.3504 -0.4157  0.1705
  585MOL0     C78851   6.425   8.245   1.241 -1.0012  0.2192  0.6787
  585MOL0     C78852   6.445   8.298   1.094  0.1505 -0.3218 -0.9660
  585MOL0     C78853   6.581   8.248   1.047 -0.6425  0.2657 -0.2789
  585MOL0     C78854   6.573   8.256   0.897 -0.3496 -0.3833 -0.3450
  585MOL0     C78855   6.702   8.229   0.827 -0.1150  0.3409  0.1515
  585MOL0     C78856   6.796   8.334   0.845 -0.3715  0.8955  0.0347
  585MOL0     N78857   6.921   8.300   0.777 -0.1106 -0.8186  0.0160
  585MOL0     C78858   7.014   8.205   0.815  0.3486 -0.4679 -0.1807
  585MOL0     C78859   7.124   8.226   0.727 -0.4535 -0.3719 -1.2139
  585MOL0     C78860   7.243   8.145   0.708 -0.7393 -0.6768  0.3582
  585MOL0     C78861   7.363   8.202   0.773  0.6774 -0.8600 -0.5768
  585MOL0     C78862   7.482   8.106   0.771  0.7714  0.1724 -0.3371
  585MOL0     C78863   7.622   8.169   0.785 -0.2600 -0.0249 -1.1142
  585MOL0     O78864   7.703   8.067   0.855  0.5295 -0.3253 -0.0952
  585MOL0     C78865   7.837   8.087   0.846 -0.0177  0.2315 -0.7744
  585MOL0     C78866   7.907   8.195   0.798  0.1542 -0.2326 -0.4663
  585MOL0     C78867   8.046   8.195   0.801  0.2177  0.3633 -0.9712
  585MOL0     C78868   8.123   8.081   0.831  0.4634  0.5424  0.4179
  585MOL0     C78869   8.273   8.077   0.827  0.6461  0.3194 -0.3187
  585MOL0     O78870   8.335   7.984   0.904  0.0361  0.3256  0.5004
  585MOL0     C78871   8.468   7.980   0.907 -0.9455  0.3660  0.5035
  585MOL0     C78872   8.548   8.098   0.916  0.4504  1.4468  0.5320
  585MOL0     C78873   8.688   8.089   0.944 -0.8220  0.7750 -1.3904
  585MOL0     C78874   8.751   7.960   0.959  0.5202 -0.2776 -0.4296
  585MOL0     O78875   8.887   7.949   0.991  0.5615 -0.0945  0.1068
  585MOL0     C78876   8.949   7.827   1.020 -0.6333  0.7540  0.4279
  585MOL0     C78877   9.098   7.835   1.078 -0.0181 -0.3374 -0.0336
  585MOL0     C78878   9.137   7.711   1.156 -0.3314  0.0946 -0.7850
  585MOL0     C78879   9.290   7.693   1.178 -0.8013 -0.4502 -0.1016
  585MOL0     C78880   9.350   7.805   1.260  0.7799  0.3970 -0.9020
  585MOL0     C78881   9.475   7.761   1.328 -1.3226  0.0987 -0.0269
  585MOL0     C78882   9.590   7.714   1.240 -0.5811  0.6429  0.1241
  585MOL0     C78883   9.723   7.684   1.321  0.4046  0.2061 -0.6163
  585MOL0    Cl78884   9.734   7.545   1.438  0.1107  0.5107 -0.0973
  585MOL0     C78885   8.673   7.849   0.944 -1.0425  0.0171  0.7226
  585MOL0     C78886   8.538   7.854   0.913 -0.1756 -0.0983  0.2828
  585MOL0     O78887   8.325   8.158   0.753 -0.2571  0.3297  0.2563
  585MOL0     C78888   8.050   7.974   0.873 -0.0421  0.5960  0.5914
  585MOL0     C78889   7.911   7.970   0.891 -0.1401  0.9986  0.0951
  585MOL0     N78890   7.105   8.341   0.647 -0.2607  0.8524 -0.5786
  585MOL0     N78891   6.985   8.383   0.680 -0.0486  0.4377  0.8647
  585MOL0     C78892   5.968   8.343   1.634  0.1341 -1.0255 -0.7748
  585MOL0     C78893   5.921   8.358   1.765 -0.3226  0.7145 -0.3691
  585MOL0     C78894   5.934   8.324   2.233  0.6319  0.3722 -0.7507
  585MOL0     C78895   5.925   8.223   2.336  0.1027  0.1707  0.5428
  585MOL0     C78896   5.849   8.232   2.448 -0.4931 -0.1156 -1.2720
  585MOL0     C78897   5.775   8.345   2.469  0.3287 -0.3444  0.1199
  585MOL0     O78898   5.689   8.371   2.577 -1.0480  0.0529  1.1752
  585MOL0     C78899   5.684   8.276   2.682 -0.8661  0.3219 -1.4021
  585MOL0     C78900   5.635   8.344   2.815 -0.3171  0.0150 -0.6250
  585MOL0     C78901   5.710   8.474   2.841  0.2088 -0.2376 -0.0280
  585MOL0     C78902   5.871   8.473   2.827  0.5647 -0.2492 -0.6164
  585MOL0     C78903   5.926   8.381   2.927 -0.8924 -0.0472  0.8631
  585MOL0     C78904   5.967   8.324   3.030 -0.0014  0.2592 -0.3262
  585MOL0     C78905   5.795   8.453   2.382  0.5898 -0.1367  0.9819
  585MOL0     C78906   5.880   8.448   2.274  0.6291  0.2161  0.2030
  585MOL0     C78907   5.896   8.580   2.193 -0.2302  1.0489 -0.0340
  585MOL0     H78908   6.214   8.270   1.917  2.4738 -0.1153 -0.9820
  585MOL0     H78909   6.285   8.255   1.693 -0.6802 -1.6080 -0.3664
  585MOL0     H78910   6.345   8.303   1.475  0.5631 -0.3425 -2.2808
  585MOL0     H78911   6.264   8.146   1.444 -0.3883  0.2010 -0.1808
  585MOL0     H78912   6.281   8.393   1.253  1.4819 -0.6391 -1.3050
  585MOL0     H78913   6.208   8.244   1.211  0.6180 -1.3409 -0.3766
  585MOL0     H78914   6.435   8.137   1.228 -0.2209  0.5344 -1.7858
  585MOL0     H78915   6.503   8.290   1.304 -2.0801 -2.7238  4.4695
  585MOL0     H78916   6.355   8.260   1.043 -0.2415 -2.6098  1.2315
  585MOL0     H78917   6.443   8.407   1.083 -2.0932 -0.1375  0.5238
  585MOL0     H78918   6.655   8.318   1.086  0.3590 -0.6236 -0.5238
  585MOL0     H78919   6.607   8.147   1.082  1.7267  0.3893 -1.4485
  585MOL0     H78920   6.496   8.187   0.861  0.8269 -1.0490 -1.6927
  585MOL0     H78921   6.546   8.357   0.866 -2.8835 -0.9305 -0.1147
  585MOL0     H78922   6.689   8.211   0.720  0.8554 -0.9684  0.2327
  585MOL0     H78923   6.741   8.132   0.859 -0.1756 -0.1291 -1.1297
  585MOL0     H78924   6.767   8.436   0.820 -1.6544  0.6482  0.4123
  585MOL0     H78925   6.818   8.331   0.952 -1.5790 -0.3029  0.2879
  585MOL0     H78926   6.985   8.126   0.883 -4.2185  1.7502  0.8534
  585MOL0     H78927   7.228   8.049   0.758  1.6552 -0.4503  1.6741
  585MOL0     H78928   7.267   8.134   0.601  0.4380  0.3046  0.4986
  585MOL0     H78929   7.386   8.300   0.729 -0.9156 -0.6902 -1.0920
  585MOL0     H78930   7.342   8.235   0.875 -0.7604  0.7356 -1.3451
  585MOL0     H78931   7.479   8.067   0.669 -0.6944 -1.0401  0.1385
  585MOL0     H78932   7.469   8.019   0.835  1.7522  1.4659  1.7510
  585MOL0     H78933   7.606   8.257   0.848 -1.9787 -1.1064  0.0430
  585MOL0     H78934   7.667   8.211   0.695  1.4132  1.3980  0.2864
  585MOL0     H78935   7.865   8.292   0.775  1.3034  0.0167 -1.6507
  585MOL0     H78936   8.106   8.280   0.769 -2.3561  2.2702 -1.0390
  585MOL0     H78937   8.510   8.199   0.905  2.5276  2.2896  0.5704
  585MOL0     H78938   8.744   8.182   0.946 -2.4670  1.8200 -2.0308
  585MOL0     H78939   8.885   7.772   1.090 -1.7399 -0.9741 -1.8440
  585MOL0     H78940   8.958   7.770   0.927  0.1334  0.7319  0.5127
  585MOL0     H78941   9.172   7.852   0.999  0.8877 -2.6045  0.2382
  585MOL0     H78942   9.092   7.928   1.136 -3.5386 -1.5005  1.7893
  585MOL0     H78943   9.088   7.725   1.253  0.7781  0.0987 -0.2125
  585MOL0     H78944   9.094   7.624   1.106  2.1639 -0.3746 -2.2206
  585MOL0     H78945   9.334   7.685   1.078  1.5831 -1.0242  0.9274
  585MOL0     H78946   9.320   7.596   1.218  1.4457  0.9717  1.8941
  585MOL0     H78947   9.275   7.841   1.330  0.5117 -0.4313 -0.7457
  585MOL0     H78948   9.369   7.889   1.193  0.9971  0.3854 -0.8534
  585MOL0     H78949   9.514   7.840   1.393  0.8560 -0.1965 -0.8900
  585MOL0     H78950   9.459   7.669   1.385  1.5754 -0.4832 -0.0089
  585MOL0     H78951   9.608   7.778   1.153 -0.7321 -0.3966 -0.7004
  585MOL0     H78952   9.565   7.623   1.184  2.5994 -0.1436 -0.2047
  585MOL0     H78953   9.803   7.661   1.249  0.3876 -2.0666  0.0181
  585MOL0     H78954   9.746   7.771   1.383 -0.4656  1.4567 -1.9774
  585MOL0     H78955   8.713   7.749   0.956 -0.6991  0.3863  3.3590
  585MOL0     H78956   8.475   7.767   0.898 -0.1472  0.2822 -2.4001
  585MOL0     H78957   8.107   7.882   0.883  1.3132  0.6728 -3.9576
  585MOL0     H78958   7.873   7.871   0.914  0.2135  0.7185 -0.5229
  585MOL0     H78959   5.907   8.357   1.546 -1.1375  1.3356  0.4006
  585MOL0     H78960   5.817   8.375   1.792 -0.2438  0.7738 -0.1005
  585MOL0     H78961   5.978   8.130   2.317  2.2676  1.4947 -0.2969
  585MOL0     H78962   5.838   8.147   2.515 -2.5591  0.5845 -0.6570
  585MOL0     H78963   5.779   8.224   2.702 -0.1292  2.1558  0.1913
  585MOL0     H78964   5.607   8.201   2.659 -0.0510 -0.7489 -0.7821
  585MOL0     H78965   5.652   8.269   2.892 -1.6913  0.2102 -0.0972
  585MOL0     H78966   5.529   8.369   2.806 -0.4165  0.1579  0.7294
  585MOL0     H78967   5.675   8.514   2.937 -1.8813 -2.7799  0.3849
  585MOL0     H78968   5.675   8.546   2.767  0.0400  1.6039  1.7445
  585MOL0     H78969   5.912   8.453   2.728 -0.5471  0.0082 -1.1489
  585MOL0     H78970   5.904   8.571   2.864 -0.0642 -1.5457  3.9552
  585MOL0     H78971   5.986   8.274   3.123 -1.4466 -1.0293 -0.6894
  585MOL0     H78972   5.738   8.544   2.401  1.7655  0.4880  1.6275
  585MOL0     H78973   5.924   8.662   2.259  0.6383  1.3563 -0.7529
  585MOL0     H78974   5.980   8.577   2.123  0.0819  0.1530  0.3573
  585MOL0     H78975   5.811   8.603   2.128 -2.1852 -1.7023  1.3651
  586MOL0     O78976  10.630   8.955   3.214 -0.0968  0.9729  0.5048
  586MOL0     C78977  10.643   8.873   3.119  0.5657  0.7664  0.6277
  586MOL0     O78978  10.556   8.852   3.011  0.2433 -0.2617 -1.1650
  586MOL0     C78979  10.438   8.920   2.990 -0.3011 -0.8274  0.3336
  586MOL0     C78980  10.389   8.915   2.856  0.2083  0.6051 -0.1448
  586MOL0     C78981  10.274   8.987   2.805  0.6584  0.0591  0.8482
  586MOL0     C78982  10.205   9.072   2.899 -0.0046 -0.1399  0.0232
  586MOL0     O78983  10.093   9.142   2.878  0.2056 -0.3140 -0.0909
  586MOL0     C78984  10.030   9.130   2.745  0.3807  0.7860  0.1972
  586MOL0     C78985   9.895   9.217   2.725 -0.2264 -0.1060 -0.0003
  586MOL0     C78986   9.922   9.365   2.688 -0.0491 -0.5194  0.7309
  586MOL0     C78987   9.970   9.380   2.542  0.3922  1.0869 -0.5778
  586MOL0     C78988   9.947   9.518   2.486  0.2441  0.4119 -0.3438
  586MOL0     C78989  10.044   9.548   2.363  0.8246  0.2245 -0.0768
  586MOL0     C78990  10.023   9.698   2.342  0.0430  0.4138  0.9977
  586MOL0     C78991  10.151   9.779   2.289 -1.3497  0.6245  0.3794
  586MOL0     N78992  10.245   9.818   2.396 -0.0870  0.3339 -0.2331
  586MOL0     C78993  10.290   9.729   2.491  0.0133  0.0305  0.9815
  586MOL0     C78994  10.392   9.782   2.564 -0.7710 -0.0582  0.2280
  586MOL0     C78995  10.466   9.710   2.675 -1.3331  0.8646  0.2123
  586MOL0     C78996  10.611   9.698   2.620  1.0202  0.8278 -0.1132
  586MOL0     C78997  10.705   9.610   2.704 -1.1183  0.4515 -0.3697
  586MOL0     C78998  10.847   9.607   2.643 -0.1122  0.5713 -0.0040
  586MOL0     O78999  10.902   9.736   2.675 -0.0235  0.1235  0.0170
  586MOL0     C79000  11.030   9.771   2.627  0.3751  0.1943  0.2598
  586MOL0     C79001  11.123   9.688   2.563 -0.2799  0.0661  0.0974
  586MOL0     C79002  11.250   9.750   2.518  0.4434 -0.5632  0.3147
  586MOL0     C79003  11.259   9.897   2.526 -0.1241  0.2253 -0.3081
  586MOL0     C79004  11.369   9.962   2.450  0.3088 -0.5141  1.2365
  586MOL0     O79005  11.445   9.872   2.390 -0.9501 -0.5703 -0.4182
  586MOL0     C79006  11.555   9.911   2.319  0.0424 -0.9342 -0.3234
  586MOL0     C79007  11.664   9.818   2.307  0.2777  0.7490  0.1252
  586MOL0     C79008  11.775   9.839   2.228  0.6579 -0.0408  0.0085
  586MOL0     C79009  11.796   9.954   2.159 -0.1293  0.3576  0.4018
  586MOL0     O79010  11.921   9.981   2.103 -0.6319  0.3286 -0.9136
  586MOL0     C79011  11.927  10.111   2.047 -0.0603 -0.5255 -0.2300
  586MOL0     C79012  12.051  10.133   1.960  1.1697  0.7543  0.3674
  586MOL0     C79013  12.181  10.152   2.048  0.0459 -0.2808 -0.5067
  586MOL0     C79014  12.200  10.037   2.143 -0.0238 -0.4953 -0.0119
  586MOL0     C79015  12.341  10.023   2.209  0.6080 -0.5720 -0.7701
  586MOL0     C79016  12.451   9.984   2.108  0.3727 -0.5233 -0.1521
  586MOL0     C79017  12.598  10.012   2.162  0.1633  0.8657  0.2417
  586MOL0     C79018  12.713   9.935   2.100 -1.0075 -0.2124 -0.5976
  586MOL0    Cl79019  12.760  10.024   1.946  0.5872  0.0324 -0.6887
  586MOL0     C79020  11.683  10.043   2.172  0.9908  0.1419 -0.1547
  586MOL0     C79021  11.568  10.028   2.250  0.2904 -0.5514  0.2972
  586MOL0     O79022  11.385  10.086   2.462  0.1654  0.1914  0.0251
  586MOL0     C79023  11.159   9.972   2.591  0.4157 -0.6031  0.2620
  586MOL0     C79024  11.041   9.912   2.630  0.4115 -0.6011 -0.6157
  586MOL0     N79025  10.418   9.902   2.497  0.1331 -0.8005  0.6011
  586MOL0     N79026  10.325   9.926   2.409  0.1389  0.6097  0.6108
  586MOL0     C79027  10.258   9.070   3.030 -0.1040  0.5228  0.5872
  586MOL0     C79028  10.375   9.000   3.076  1.0186 -0.8989  0.8811
  586MOL0     C79029  10.760   8.785   3.117  0.6588  0.0061 -0.5265
  586MOL0     C79030  10.736   8.652   3.092 -0.2763 -0.1387  0.0344
  586MOL0     C79031  10.841   8.558   3.077 -0.4559  0.5340  0.6909
  586MOL0     C79032  10.978   8.599   3.085 -0.4450 -0.7874  0.0073
  586MOL0     O79033  11.091   8.521   3.060  1.0364  0.1361  0.1265
  586MOL0     C79034  11.083   8.428   2.958  0.6843 -0.1405  0.2015
  586MOL0     C79035  11.066   8.303   3.030 -0.3917  1.2095  0.5460
  586MOL0     C79036  11.191   8.253   3.104  1.0977  0.1939  0.2526
  586MOL0     C79037  11.320   8.267   3.027 -0.0785 -0.1321  0.0783
  586MOL0     C79038  11.340   8.148   2.938 -1.0976 -0.6674 -1.0784
  586MOL0     C79039  11.353   8.068   2.849  0.2131  0.3132 -0.1558
  586MOL0     C79040  10.993   8.734   3.117 -1.0802  0.4411 -0.3496
  586MOL0     C79041  10.896   8.823   3.135 -0.3586  1.0931  0.0655
  586MOL0     C79042  10.934   8.963   3.151  0.4983 -0.5834 -0.0755
  586MOL0     H79043  10.455   8.856   2.794 -0.0898 -1.6798  1.5764
  586MOL0     H79044  10.235   8.964   2.706 -1.1036 -2.2896  1.9831
  586MOL0     H79045  10.099   9.167   2.669  1.6958  2.2232  2.0036
  586MOL0     H79046   9.992   9.027   2.742 -0.8372  1.2427 -1.0631
  586MOL0     H79047   9.840   9.209   2.820 -1.1170  1.9981 -0.2867
  586MOL0     H79048   9.826   9.181   2.649 -0.8821  0.0868  0.4908
  586MOL0     H79049  10.001   9.405   2.752  0.6379  0.1085 -0.4885
  586MOL0     H79050   9.824   9.411   2.703 -0.8138 -2.4676  2.2972
  586MOL0     H79051  10.076   9.360   2.526  0.6594  1.5426  0.5182
  586MOL0     H79052   9.916   9.305   2.483  1.5392  0.3508 -0.7081
  586MOL0     H79053   9.840   9.532   2.472  0.0736  1.9666  2.0252
  586MOL0     H79054   9.982   9.587   2.562  2.9141 -2.1835  0.9913
  586MOL0     H79055  10.150   9.528   2.383  0.8416  0.2154 -0.1738
  586MOL0     H79056  10.012   9.496   2.272  0.0510  0.6399 -0.0486
  586MOL0     H79057   9.968   9.747   2.423  1.7883  0.4774  2.1942
  586MOL0     H79058   9.957   9.709   2.255  1.5779 -0.1101 -0.2860
  586MOL0     H79059  10.203   9.712   2.221 -5.1654 -2.4557  0.1460
  586MOL0     H79060  10.125   9.874   2.242  1.9399  0.7710 -1.4275
  586MOL0     H79061  10.244   9.632   2.508 -0.1473 -0.0726 -0.0223
  586MOL0     H79062  10.461   9.765   2.770  0.2210  3.6881 -1.2085
  586MOL0     H79063  10.430   9.607   2.684  3.2408 -1.1289 -1.5340
  586MOL0     H79064  10.597   9.656   2.520 -1.8921  3.7534 -1.1014
  586MOL0     H79065  10.651   9.800   2.612 -2.2864  2.1471 -2.0033
  586MOL0     H79066  10.665   9.508   2.705  1.1995 -0.5257  1.3424
  586MOL0     H79067  10.698   9.627   2.812 -0.5289 -2.1696  0.1501
  586MOL0     H79068  10.844   9.600   2.534  2.0560  2.3778 -0.2545
  586MOL0     H79069  10.917   9.534   2.683 -0.5670 -0.1737 -0.5341
  586MOL0     H79070  11.122   9.579   2.563 -3.6024 -0.0131 -1.1048
  586MOL0     H79071  11.341   9.699   2.488  2.0314 -0.5933  4.4712
  586MOL0     H79072  11.668   9.724   2.361  0.6322  2.2288  2.8009
  586MOL0     H79073  11.855   9.766   2.228  1.4731  0.8168 -1.2810
  586MOL0     H79074  11.842  10.129   1.980 -0.7449 -0.6154  0.6018
  586MOL0     H79075  11.934  10.185   2.127 -0.7879 -0.7493  0.0474
  586MOL0     H79076  12.065  10.046   1.895 -0.4918  0.0795  0.8516
  586MOL0     H79077  12.029  10.220   1.898  0.3561  0.1947 -0.1536
  586MOL0     H79078  12.264  10.168   1.979  1.8622 -0.7799  1.4294
  586MOL0     H79079  12.170  10.246   2.104  1.8757  0.5942 -1.5176
  586MOL0     H79080  12.160   9.945   2.100 -1.8556 -0.1946  0.9413
  586MOL0     H79081  12.134  10.050   2.230  1.6143 -2.5799  1.6584
  586MOL0     H79082  12.341   9.950   2.291 -3.0888  0.3603  0.2207
  586MOL0     H79083  12.366  10.122   2.247  1.5213 -1.3674  0.7683
  586MOL0     H79084  12.438   9.879   2.081 -2.2591 -0.1404 -0.6297
  586MOL0     H79085  12.441  10.041   2.015  0.2285  0.1369  0.2631
  586MOL0     H79086  12.589   9.985   2.267 -1.1316 -1.3261 -0.3822
  586MOL0     H79087  12.626  10.117   2.145  3.3734 -0.0613 -0.9136
  586MOL0     H79088  12.803   9.924   2.163  0.1277 -0.5660 -2.2159
  586MOL0     H79089  12.690   9.830   2.083  0.2484 -0.3920 -1.3391
  586MOL0     H79090  11.684  10.141   2.127  0.0496  1.2181  2.0179
  586MOL0     H79091  11.500  10.113   2.251  0.6188 -0.1988 -2.1252
  586MOL0     H79092  11.164  10.078   2.610  0.9271 -0.2556 -1.6428
  586MOL0     H79093  10.962   9.967   2.680 -0.4087 -0.7710 -1.6653
  586MOL0     H79094  10.201   9.126   3.104 -0.3875 -0.5412  1.2007
  586MOL0     H79095  10.410   9.001   3.179  1.1892  1.4351  0.8559
  586MOL0     H79096  10.632   8.619   3.093 -1.3053  2.5678  3.8983
  586MOL0     H79097  10.814   8.455   3.058 -0.9802  0.5900  1.1197
  586MOL0     H79098  11.166   8.436   2.887 -1.0747  2.4029 -1.7104
  586MOL0     H79099  10.994   8.446   2.897  1.6512  2.7460 -0.4772
  586MOL0     H79100  11.044   8.222   2.960 -2.2811  2.3392 -0.2531
  586MOL0     H79101  10.978   8.309   3.094 -0.4850  2.1631  0.3537
  586MOL0     H79102  11.175   8.160   3.160 -0.8062 -0.2149 -0.8855
  586MOL0     H79103  11.197   8.321   3.190  0.0585  1.4614 -0.6217
  586MOL0     H79104  11.329   8.366   2.980 -1.0027  0.1988  0.5537
  586MOL0     H79105  11.412   8.259   3.085  0.0046 -1.7493 -0.2483
  586MOL0     H79106  11.364   7.994   2.772 -0.4787  1.7876 -1.7423
  586MOL0     H79107  11.094   8.771   3.123 -1.6692  2.0721 -0.0073
  586MOL0     H79108  11.041   8.985   3.164 -0.1460  4.8977 -1.5645
  586MOL0     H79109  10.919   9.020   3.059  2.1148  0.3974  0.2163
  586MOL0     H79110  10.869   9.000   3.231 -1.1390 -0.1243 -1.5568
  587MOL0     O79111   9.404   3.444   5.855  0.3521 -0.4453  0.0259
  587MOL0     C79112   9.455   3.560   5.833  0.8897 -0.0631 -0.4777
  587MOL0     O79113   9.382   3.681   5.832 -0.8492  0.6075  0.0326
  587MOL0     C79114   9.256   3.698   5.858 -0.8797 -0.4414 -0.4876
  587MOL0     C79115   9.160   3.604   5.838 -0.1618  0.1256  0.6023
  587MOL0     C79116   9.029   3.626   5.876 -0.0377  0.4658 -0.4834
  587MOL0     C79117   8.996   3.742   5.943 -0.2307  0.3344  1.2867
  587MOL0     O79118   8.853   3.758   5.975 -0.8000 -0.2543 -0.0471
  587MOL0     C79119   8.754   3.653   5.958 -0.0142 -0.7022  0.5470
  587MOL0     C79120   8.613   3.707   5.998  0.3009 -0.2986 -0.1305
  587MOL0     C79121   8.568   3.830   5.913  0.5365  0.6173  0.8845
  587MOL0     C79122   8.435   3.881   5.974 -0.1906 -0.0075  0.0418
  587MOL0     C79123   8.372   3.979   5.880  0.4621  0.6440 -0.4128
  587MOL0     C79124   8.281   4.081   5.949  1.0361  0.1405 -0.3207
  587MOL0     C79125   8.142   4.015   5.983 -0.3692  0.2878  0.1332
  587MOL0     C79126   8.050   4.009   5.857 -0.1827  0.0328 -0.2862
  587MOL0     N79127   7.918   3.960   5.892 -0.8660 -0.1633  0.7887
  587MOL0     C79128   7.822   4.032   5.956 -0.2500  0.2816 -0.1019
  587MOL0     C79129   7.738   3.942   6.011  0.6418  1.2521  0.2590
  587MOL0     C79130   7.609   3.969   6.088  0.2451 -0.0820  0.4662
  587MOL0     C79131   7.639   3.983   6.240  0.8814 -0.4894  0.1272
  587MOL0     C79132   7.513   3.975   6.331  0.6915 -0.6684 -0.3593
  587MOL0     C79133   7.556   3.908   6.472  0.1734 -0.5443  0.3068
  587MOL0     O79134   7.625   4.013   6.547  0.2224 -0.1187  0.1512
  587MOL0     C79135   7.747   3.973   6.593  0.0221 -0.5184  0.7892
  587MOL0     C79136   7.834   4.083   6.587 -0.3557  0.5585  0.5549
  587MOL0     C79137   7.962   4.059   6.627  0.3082  0.3598 -0.5484
  587MOL0     C79138   8.010   3.934   6.686  1.2765 -0.3057 -0.8203
  587MOL0     C79139   8.151   3.912   6.722  0.6488 -0.0529 -0.3216
  587MOL0     O79140   8.234   4.011   6.674 -0.0987 -0.2095 -0.3413
  587MOL0     C79141   8.368   4.015   6.708  0.3223 -0.4278 -0.2465
  587MOL0     C79142   8.432   4.130   6.671  0.7854 -0.5487  0.0733
  587MOL0     C79143   8.568   4.147   6.691 -0.3499  0.1011  0.2669
  587MOL0     C79144   8.641   4.053   6.768 -0.2199 -0.1644  0.2656
  587MOL0     O79145   8.772   4.084   6.777  0.6673 -0.0378  0.3548
  587MOL0     C79146   8.841   4.061   6.892  0.6907 -0.7091 -0.4276
  587MOL0     C79147   8.997   4.083   6.893  0.5360 -0.3813 -0.6202
  587MOL0     C79148   9.075   4.028   6.781  0.5510 -0.4384  0.2663
  587MOL0     C79149   9.222   4.083   6.776 -0.8761  0.0764  0.4575
  587MOL0     C79150   9.283   4.067   6.633 -0.2029 -0.0590  0.4033
  587MOL0     C79151   9.424   4.126   6.612  0.4727 -0.5416  0.4834
  587MOL0     C79152   9.528   4.074   6.711 -0.6503  0.2887 -0.5027
  587MOL0     C79153   9.667   4.041   6.656  0.1074  0.1757  0.2815
  587MOL0    Cl79154   9.792   4.039   6.788 -0.0016 -0.1335  0.4625
  587MOL0     C79155   8.573   3.947   6.824  0.1999  0.2635  0.3945
  587MOL0     C79156   8.437   3.930   6.797  0.9771  0.1149  0.5878
  587MOL0     O79157   8.175   3.796   6.753  0.4858 -0.2373 -0.0421
  587MOL0     C79158   7.913   3.833   6.703 -0.2829 -0.1590 -0.8771
  587MOL0     C79159   7.781   3.855   6.658 -0.7327  0.2311 -0.1222
  587MOL0     N79160   7.784   3.817   5.979 -0.1874  0.4915 -0.5137
  587MOL0     N79161   7.890   3.823   5.912 -0.2837  0.8338 -0.3753
  587MOL0     C79162   9.098   3.837   5.970  1.0300  0.4974  0.1212
  587MOL0     C79163   9.224   3.811   5.929  0.0783 -1.3121  0.0065
  587MOL0     C79164   9.601   3.571   5.811 -0.2269 -0.9268 -0.3858
  587MOL0     C79165   9.670   3.695   5.821 -0.4575  0.8049  0.2124
  587MOL0     C79166   9.813   3.700   5.810 -0.2938  0.6152 -0.2926
  587MOL0     C79167   9.886   3.593   5.775 -0.1986 -0.7011 -0.5925
  587MOL0     O79168  10.014   3.606   5.741 -0.2567  0.1586  0.3705
  587MOL0     C79169  10.028   3.652   5.608 -0.8921 -0.4132  0.2877
  587MOL0     C79170  10.145   3.747   5.588  1.3006  0.2865  0.1878
  587MOL0     C79171  10.175   3.758   5.428  1.0514  0.3281  0.5205
  587MOL0     C79172  10.071   3.841   5.349 -0.7804 -0.0651 -0.5955
  587MOL0     C79173  10.124   3.910   5.231 -0.5047 -0.4701  0.1787
  587MOL0     C79174  10.160   3.974   5.132  0.7061  0.5119 -0.6589
  587MOL0     C79175   9.829   3.470   5.756  1.4672  0.0190 -0.3907
  587MOL0     C79176   9.685   3.458   5.771  0.9149  0.2773  0.1304
  587MOL0     C79177   9.621   3.329   5.728  0.3263  0.4925  0.1033
  587MOL0     H79178   9.193   3.510   5.797 -0.9228 -0.3654  1.0771
  587MOL0     H79179   8.952   3.551   5.864  0.0507 -0.2850  2.7582
  587MOL0     H79180   8.741   3.604   5.861 -1.0697 -1.7593  1.1935
  587MOL0     H79181   8.779   3.575   6.031  1.6590 -1.0456 -0.3450
  587MOL0     H79182   8.625   3.731   6.104  0.2517  1.3300 -0.4612
  587MOL0     H79183   8.544   3.623   5.988 -1.8051  1.3093  0.0676
  587MOL0     H79184   8.552   3.797   5.810  1.5213 -0.6020  1.0912
  587MOL0     H79185   8.644   3.908   5.907  1.1536 -0.0471 -0.3200
  587MOL0     H79186   8.363   3.801   5.994 -5.8089  4.6990  1.7328
  587MOL0     H79187   8.456   3.935   6.067 -0.3972  0.2183 -0.0421
  587MOL0     H79188   8.460   4.031   5.841  0.3744 -0.2925 -1.9869
  587MOL0     H79189   8.312   3.936   5.799 -0.4341 -0.1163  0.6264
  587MOL0     H79190   8.331   4.116   6.040  3.0253  0.5226 -1.4880
  587MOL0     H79191   8.265   4.163   5.878 -0.3471 -0.9000 -1.2733
  587MOL0     H79192   8.094   4.052   6.074  0.2804 -0.2801  0.7251
  587MOL0     H79193   8.169   3.913   6.012 -0.6947  0.2721  0.3922
  587MOL0     H79194   8.033   4.106   5.809  0.7541  0.8090  0.8949
  587MOL0     H79195   8.101   3.944   5.786  0.6542  0.9105 -0.5127
  587MOL0     H79196   7.825   4.137   5.984  1.4445  0.2461 -0.0080
  587MOL0     H79197   7.564   4.058   6.043 -0.5218  0.6965  2.6589
  587MOL0     H79198   7.541   3.885   6.067  0.0073  0.2974 -0.2921
  587MOL0     H79199   7.696   3.891   6.259  0.2418 -0.6005  1.6669
  587MOL0     H79200   7.707   4.068   6.249 -1.2801  1.5571 -1.7347
  587MOL0     H79201   7.431   3.912   6.296  0.0610 -0.2302  0.3050
  587MOL0     H79202   7.473   4.075   6.352 -0.4049 -0.7246 -2.0358
  587MOL0     H79203   7.622   3.821   6.464 -2.0324 -2.4849  1.9737
  587MOL0     H79204   7.467   3.871   6.522 -1.4120 -0.4245 -2.2869
  587MOL0     H79205   7.817   4.179   6.540  0.8022  1.4999  1.9989
  587MOL0     H79206   8.023   4.149   6.619  2.9445 -1.4101 -2.0342
  587MOL0     H79207   8.369   4.203   6.621 -1.2449 -2.4363 -0.3099
  587MOL0     H79208   8.607   4.233   6.636  0.6172  0.1461  0.9926
  587MOL0     H79209   8.803   4.132   6.966  3.4467  1.3965 -0.8666
  587MOL0     H79210   8.820   3.958   6.923 -0.3524  0.2866  2.4591
  587MOL0     H79211   9.026   4.189   6.893  2.9963 -0.9074 -3.6102
  587MOL0     H79212   9.035   4.045   6.989  0.7883  1.4388  0.0343
  587MOL0     H79213   9.078   3.919   6.785 -0.7847 -0.5571 -1.0036
  587MOL0     H79214   9.031   4.051   6.683  2.5704  0.3645 -0.4939
  587MOL0     H79215   9.279   4.050   6.863  1.0207 -0.0465 -0.7943
  587MOL0     H79216   9.220   4.192   6.789  3.2511  0.2662  0.7251
  587MOL0     H79217   9.226   4.127   6.562 -0.1779  0.2287  0.6241
  587MOL0     H79218   9.274   3.963   6.600  0.4931 -0.6756  2.0755
  587MOL0     H79219   9.459   4.114   6.509 -1.6054 -0.8402 -0.2192
  587MOL0     H79220   9.420   4.234   6.627  0.8488 -0.7527  2.2983
  587MOL0     H79221   9.488   3.986   6.762 -3.6732  1.2480 -1.0658
  587MOL0     H79222   9.546   4.148   6.790  1.4036  0.2828 -0.8979
  587MOL0     H79223   9.669   3.944   6.605 -1.9284  0.8408 -1.2011
  587MOL0     H79224   9.707   4.110   6.580 -0.4684  1.3115  0.9767
  587MOL0     H79225   8.630   3.873   6.878  1.8710  0.9779 -0.3447
  587MOL0     H79226   8.377   3.845   6.827 -1.1048  1.3778  0.2521
  587MOL0     H79227   7.949   3.746   6.757  0.4870 -0.6086 -2.0745
  587MOL0     H79228   7.705   3.779   6.673 -0.2371 -0.2766 -0.1676
  587MOL0     H79229   9.084   3.929   6.026  2.6780  0.1855  1.1394
  587MOL0     H79230   9.287   3.898   5.943 -5.7710  3.3311  2.1124
  587MOL0     H79231   9.617   3.781   5.858  0.4811  1.3719  0.2807
  587MOL0     H79232   9.874   3.786   5.837 -1.0223  1.0909 -0.1379
  587MOL0     H79233   9.941   3.713   5.584  0.9345  1.7333 -1.2476
  587MOL0     H79234  10.038   3.569   5.538 -0.5174  0.5272 -0.8059
  587MOL0     H79235  10.227   3.690   5.634  1.6178  1.5055  1.1868
  587MOL0     H79236  10.124   3.839   5.644 -1.8334 -2.2202  3.6471
  587MOL0     H79237  10.192   3.658   5.387  0.8400 -1.5877  4.6357
  587MOL0     H79238  10.268   3.814   5.417  0.7567  0.7893  0.3235
  587MOL0     H79239   9.982   3.787   5.314 -0.8131  0.5832 -1.5344
  587MOL0     H79240  10.033   3.909   5.426 -2.2309 -0.8074 -0.6106
  587MOL0     H79241  10.191   4.037   5.050  3.1734 -0.3138 -0.4489
  587MOL0     H79242   9.880   3.377   5.735 -2.5247 -2.3419 -0.6217
  587MOL0     H79243   9.585   3.286   5.823 -2.4856  0.1930 -0.9785
  587MOL0     H79244   9.537   3.364   5.666 -2.2773  0.1145  3.1250
  587MOL0     H79245   9.677   3.256   5.669 -1.2350  0.4978 -1.4840
  588MOL0     O79246   8.659   4.864   9.988  0.9764  0.8016  0.1968
  588MOL0     C79247   8.617   4.783  10.071  0.3562 -0.0479 -0.3856
  588MOL0     O79248   8.680   4.679  10.123  0.4974  0.5265  0.6349
  588MOL0     C79249   8.817   4.685  10.122 -0.2807 -0.2875 -0.4346
  588MOL0     C79250   8.880   4.785  10.194 -0.1994 -0.4594 -0.3149
  588MOL0     C79251   9.016   4.788  10.187 -0.0779  0.2943  0.7809
  588MOL0     C79252   9.097   4.690  10.131  0.8226  0.7715 -0.6468
  588MOL0     O79253   9.230   4.692  10.158 -0.2071 -1.0890 -0.1701
  588MOL0     C79254   9.317   4.602  10.082 -0.2302 -0.1610  0.0904
  588MOL0     C79255   9.334   4.470  10.152  0.3459 -0.3616 -0.4190
  588MOL0     C79256   9.420   4.493  10.280 -0.7294 -0.6702 -0.0301
  588MOL0     C79257   9.464   4.361  10.334 -0.0784 -0.9027 -0.1653
  588MOL0     C79258   9.510   4.374  10.484 -0.0071 -0.4941 -0.4643
  588MOL0     C79259   9.636   4.467  10.489 -0.0077 -1.0855 -0.5350
  588MOL0     C79260   9.720   4.438  10.613 -0.4007  0.3447  0.2422
  588MOL0     C79261   9.853   4.507  10.601 -0.5979 -0.0346 -0.6838
  588MOL0     N79262   9.937   4.459  10.712  0.1983 -0.4000 -0.3289
  588MOL0     C79263  10.052   4.386  10.702  0.1513 -0.3429  0.3156
  588MOL0     C79264  10.087   4.366  10.828  0.2338  0.0918  0.5566
  588MOL0     C79265  10.211   4.289  10.860 -0.2507  0.8770 -0.1120
  588MOL0     C79266  10.305   4.364  10.956 -0.5354  0.1557 -0.0508
  588MOL0     C79267  10.437   4.295  10.954 -0.4473 -0.2450 -0.6015
  588MOL0     C79268  10.542   4.364  11.048 -0.0268  0.3909 -0.4970
  588MOL0     O79269  10.630   4.252  11.080 -0.1907  0.3101 -1.0119
  588MOL0     C79270  10.726   4.257  11.179 -0.1274 -0.2240  0.1048
  588MOL0     C79271  10.763   4.367  11.260  0.0866 -0.9385  0.1373
  588MOL0     C79272  10.863   4.358  11.358  0.2450 -0.3993 -0.5158
  588MOL0     C79273  10.943   4.242  11.378  0.6378  0.4432  0.4287
  588MOL0     C79274  11.043   4.230  11.486 -0.8099 -0.6151  0.5386
  588MOL0     O79275  11.125   4.130  11.478 -0.2301 -0.3739  0.3450
  588MOL0     C79276  11.225   4.110  11.567 -0.2078  0.2159  0.4934
  588MOL0     C79277  11.300   4.202  11.640 -0.0051 -0.3642  0.8815
  588MOL0     C79278  11.411   4.172  11.713 -0.2323  0.5526  0.4605
  588MOL0     C79279  11.439   4.034  11.727  0.2455  1.0136 -1.2437
  588MOL0     O79280  11.556   4.006  11.795  0.3245  0.0690  0.0459
  588MOL0     C79281  11.585   3.872  11.835 -0.3754  0.3755 -0.2277
  588MOL0     C79282  11.668   3.790  11.735 -0.4785 -0.4161  0.6197
  588MOL0     C79283  11.788   3.870  11.688  0.8653  0.2018  0.2786
  588MOL0     C79284  11.878   3.781  11.614 -0.4549  0.5002  0.8582
  588MOL0     C79285  11.982   3.861  11.532 -0.8729 -0.2616 -0.0989
  588MOL0     C79286  12.059   3.771  11.434  0.5292 -0.4479  0.3955
  588MOL0     C79287  12.142   3.855  11.341  0.0595 -0.3220  0.7611
  588MOL0     C79288  12.212   3.762  11.231  0.5373  0.1003  0.3167
  588MOL0    Cl79289  12.334   3.865  11.152  0.2934 -0.1837  0.0076
  588MOL0     C79290  11.362   3.938  11.659  0.2135  0.2837 -0.3818
  588MOL0     C79291  11.249   3.973  11.591  0.1256  0.2721  0.1677
  588MOL0     O79292  11.041   4.317  11.572 -0.3520  0.3974 -0.5417
  588MOL0     C79293  10.909   4.139  11.291 -0.1112 -0.1955 -0.1509
  588MOL0     C79294  10.801   4.142  11.198  0.0830 -0.0272  0.0882
  588MOL0     N79295  10.004   4.433  10.918  0.4188  0.3986 -0.5203
  588MOL0     N79296   9.904   4.477  10.841  0.2451 -0.4106 -0.6957
  588MOL0     C79297   9.024   4.591  10.049 -0.2516 -0.1218 -0.7229
  588MOL0     C79298   8.887   4.592  10.040 -0.6768  0.0025  0.5332
  588MOL0     C79299   8.476   4.787  10.111 -0.6427 -0.0559  0.9139
  588MOL0     C79300   8.395   4.682  10.064  0.6601  0.3404 -0.5116
  588MOL0     C79301   8.256   4.677  10.088 -0.2323  0.6903 -0.0902
  588MOL0     C79302   8.198   4.795  10.149 -0.4777 -0.0315  0.1041
  588MOL0     O79303   8.057   4.795  10.158  0.2621  0.5269 -0.3043
  588MOL0     C79304   7.979   4.919  10.173  0.2556 -0.7405  0.3384
  588MOL0     C79305   7.959   4.959  10.320 -0.4692  0.0144  0.2522
  588MOL0     C79306   7.916   5.103  10.323  0.6186 -0.9326 -0.1873
  588MOL0     C79307   7.893   5.154  10.466 -0.6506  0.1310  0.1978
  588MOL0     C79308   7.782   5.258  10.473 -0.9167  0.5822  0.0302
  588MOL0     C79309   7.699   5.343  10.480  0.4679 -0.6807  0.1034
  588MOL0     C79310   8.273   4.905  10.189  0.1243  0.9013 -0.2448
  588MOL0     C79311   8.414   4.894  10.173  0.7258 -0.1697 -0.5159
  588MOL0     C79312   8.479   5.022  10.216  0.0052 -0.6514 -0.4741
  588MOL0     H79313   8.829   4.864  10.248  1.5291  3.8116 -4.1984
  588MOL0     H79314   9.068   4.867  10.241  1.5398 -0.5761  0.5536
  588MOL0     H79315   9.263   4.591   9.987  1.1248  1.5064 -0.9284
  588MOL0     H79316   9.412   4.654  10.066 -1.1180  2.3014  2.1230
  588MOL0     H79317   9.380   4.400  10.083  0.1804 -2.7274  1.7228
  588MOL0     H79318   9.242   4.417  10.180  1.3573 -0.4917  3.1042
  588MOL0     H79319   9.358   4.551  10.349  0.3713  2.0712 -1.1681
  588MOL0     H79320   9.517   4.540  10.259 -0.6211 -0.7096  0.3834
  588MOL0     H79321   9.373   4.299  10.331 -1.1348  0.6179 -1.6954
  588MOL0     H79322   9.542   4.326  10.266 -0.6339  1.2376 -2.0056
  588MOL0     H79323   9.428   4.413  10.545 -2.2363 -1.0577 -2.9055
  588MOL0     H79324   9.525   4.268  10.505  1.8302 -0.8303 -3.0624
  588MOL0     H79325   9.688   4.434  10.399 -0.9301 -1.9642 -0.7648
  588MOL0     H79326   9.615   4.573  10.472  0.8655 -0.7089  0.5746
  588MOL0     H79327   9.731   4.330  10.626 -0.2144 -0.1108 -2.9916
  588MOL0     H79328   9.673   4.472  10.706 -0.3435 -0.6154  0.6411
  588MOL0     H79329   9.907   4.468  10.514  0.2117 -0.6654  0.0879
  588MOL0     H79330   9.863   4.616  10.596  0.9431 -0.0953  0.3663
  588MOL0     H79331  10.089   4.354  10.605 -2.1743 -3.0225  0.1755
  588MOL0     H79332  10.178   4.199  10.914  1.7256 -0.0663 -0.3873
  588MOL0     H79333  10.261   4.256  10.769  2.1080 -0.7835  1.6531
  588MOL0     H79334  10.308   4.463  10.909  0.7853 -0.3323 -1.0551
  588MOL0     H79335  10.265   4.369  11.058 -5.0177  5.1599 -1.5598
  588MOL0     H79336  10.476   4.288  10.852  2.2004  0.6906  0.2501
  588MOL0     H79337  10.429   4.189  10.979  0.6206 -1.1727 -3.6688
  588MOL0     H79338  10.504   4.423  11.132  0.5837  1.1079 -0.7076
  588MOL0     H79339  10.591   4.427  10.973 -4.9774  2.6380 -2.3173
  588MOL0     H79340  10.707   4.459  11.255  0.5583 -0.6540  0.0035
  588MOL0     H79341  10.895   4.432  11.430 -3.8787  1.3323 -0.1926
  588MOL0     H79342  11.278   4.308  11.624 -1.0433 -0.8131 -0.9891
  588MOL0     H79343  11.454   4.254  11.770 -0.5581 -0.1587  1.7637
  588MOL0     H79344  11.641   3.859  11.928 -0.6674 -1.1198 -0.2289
  588MOL0     H79345  11.485   3.832  11.855 -1.1617  2.7032  0.7942
  588MOL0     H79346  11.711   3.700  11.780 -0.6001 -2.2691 -2.6796
  588MOL0     H79347  11.601   3.769  11.651 -1.4256  3.0887  0.3426
  588MOL0     H79348  11.738   3.944  11.625 -2.0148 -1.2421  0.6732
  588MOL0     H79349  11.840   3.923  11.768 -0.1260 -2.0622  2.6166
  588MOL0     H79350  11.834   3.710  11.543  4.0017 -4.6098  2.4734
  588MOL0     H79351  11.919   3.705  11.681 -1.3232 -0.0293  0.8138
  588MOL0     H79352  12.052   3.892  11.610 -1.5520 -2.3384  1.4367
  588MOL0     H79353  11.941   3.953  11.491 -0.6253 -0.3084 -0.4607
  588MOL0     H79354  12.124   3.710  11.497  0.2599 -1.2401 -0.0797
  588MOL0     H79355  11.983   3.712  11.382 -2.2167  1.3641  2.1236
  588MOL0     H79356  12.222   3.911  11.391  0.7297 -0.5680 -0.0041
  588MOL0     H79357  12.074   3.920  11.286 -0.3471 -1.2984  0.0735
  588MOL0     H79358  12.246   3.664  11.267 -3.9530 -2.2762 -1.1589
  588MOL0     H79359  12.131   3.728  11.167 -1.6350 -0.9381  3.3632
  588MOL0     H79360  11.369   3.829  11.663  1.3891  0.2879 -1.4401
  588MOL0     H79361  11.190   3.895  11.544  1.1326 -1.9633  2.3701
  588MOL0     H79362  10.973   4.051  11.285 -0.0883 -0.2956  1.2595
  588MOL0     H79363  10.780   4.055  11.136 -2.2423  0.7885 -0.3530
  588MOL0     H79364   9.072   4.504  10.007 -2.2556 -0.5037 -2.4135
  588MOL0     H79365   8.839   4.501  10.007  0.4516 -1.1161  1.8468
  588MOL0     H79366   8.434   4.598  10.008  1.3395 -1.1559  2.0376
  588MOL0     H79367   8.190   4.598  10.054 -0.1463  1.9226 -3.5667
  588MOL0     H79368   7.881   4.899  10.129 -0.2589  0.5561  0.8496
  588MOL0     H79369   8.028   5.000  10.119 -0.0139 -1.9079 -1.7660
  588MOL0     H79370   8.052   4.952  10.377  0.2625 -0.7555 -0.9849
  588MOL0     H79371   7.880   4.902  10.370 -3.7134  3.7711 -0.0848
  588MOL0     H79372   7.826   5.122  10.264  0.3035 -0.1726  0.5225
  588MOL0     H79373   7.997   5.163  10.279 -0.4183 -0.7947 -2.0338
  588MOL0     H79374   7.862   5.068  10.525 -1.1038  0.1198 -0.0539
  588MOL0     H79375   7.986   5.195  10.507  0.9100 -2.5052 -0.5174
  588MOL0     H79376   7.610   5.400  10.500 -0.1486 -1.3746 -0.5663
  588MOL0     H79377   8.222   4.982  10.245  0.7786  1.3827 -0.2968
  588MOL0     H79378   8.558   4.993  10.286  0.5081  0.1125 -0.7043
  588MOL0     H79379   8.523   5.063  10.124  0.5758 -0.9981 -0.3584
  588MOL0     H79380   8.412   5.092  10.267  2.8253  1.8712  0.0604
  589MOL0     O79381   2.747   0.869   5.190  0.1155  0.4635  0.1547
  589MOL0     C79382   2.740   0.869   5.312  0.5284  0.0073 -0.3224
  589MOL0     O79383   2.628   0.842   5.383  0.3480 -0.7480  0.2599
  589MOL0     C79384   2.503   0.816   5.320 -0.9817 -0.9309  0.2559
  589MOL0     C79385   2.460   0.684   5.306 -0.3432 -0.9198 -0.9077
  589MOL0     C79386   2.332   0.667   5.250 -0.3480  0.2614  0.1041
  589MOL0     C79387   2.240   0.768   5.231 -0.5139 -0.0136  0.6107
  589MOL0     O79388   2.104   0.744   5.187  0.1990  0.5674 -0.0378
  589MOL0     C79389   1.996   0.798   5.262 -0.2427  0.0703 -0.6054
  589MOL0     C79390   1.980   0.727   5.402  0.8100  0.6163  0.2847
  589MOL0     C79391   2.036   0.820   5.512 -0.3788 -0.3084 -0.2812
  589MOL0     C79392   2.108   0.732   5.616  0.3475  0.2530 -0.5332
  589MOL0     C79393   2.204   0.812   5.704  0.0329  0.2887 -0.5207
  589MOL0     C79394   2.342   0.852   5.641 -0.4033 -0.1258  0.4567
  589MOL0     C79395   2.443   0.916   5.743 -0.6222  0.1387  0.5133
  589MOL0     C79396   2.590   0.897   5.698  0.1731 -0.1189 -0.5107
  589MOL0     N79397   2.671   0.954   5.808  0.2748 -1.3288 -0.4626
  589MOL0     C79398   2.810   0.938   5.815 -0.0145  0.7414 -0.1954
  589MOL0     C79399   2.862   1.034   5.896  0.0757  0.0112 -0.8667
  589MOL0     C79400   2.993   1.033   5.961  0.5638  0.2756  0.8393
  589MOL0     C79401   3.016   1.164   6.038  0.6804 -0.3109  0.3255
  589MOL0     C79402   3.146   1.169   6.110 -1.0631  0.3209  0.4185
  589MOL0     C79403   3.168   1.292   6.200  0.2378 -0.4192 -0.8522
  589MOL0     O79404   3.301   1.298   6.241 -0.3526 -0.0168 -0.1318
  589MOL0     C79405   3.340   1.244   6.367  0.1197 -0.1602  0.2996
  589MOL0     C79406   3.260   1.151   6.426 -0.4548  0.5727  0.2892
  589MOL0     C79407   3.296   1.094   6.548 -0.4802 -0.1129  0.2598
  589MOL0     C79408   3.418   1.130   6.603 -0.1605  0.7162  0.2919
  589MOL0     C79409   3.444   1.067   6.736 -0.3914 -1.1009  0.5696
  589MOL0     O79410   3.357   0.967   6.775 -0.0549 -0.7878 -0.5444
  589MOL0     C79411   3.369   0.924   6.906 -0.4222  0.5689 -0.1001
  589MOL0     C79412   3.268   0.960   6.995  0.0141 -0.5824 -0.2594
  589MOL0     C79413   3.272   0.903   7.124 -0.8143  0.1712 -0.8392
  589MOL0     C79414   3.376   0.820   7.163  0.2492  0.6893  0.1690
  589MOL0     O79415   3.374   0.779   7.294  0.6575 -0.4424 -1.1238
  589MOL0     C79416   3.461   0.677   7.339  0.5135  0.2841  0.3995
  589MOL0     C79417   3.456   0.662   7.489 -1.0296  0.2635 -0.2552
  589MOL0     C79418   3.319   0.689   7.549 -0.4069 -0.1064  0.8616
  589MOL0     C79419   3.317   0.689   7.706 -0.0397 -0.4159 -0.1229
  589MOL0     C79420   3.186   0.626   7.770 -0.4871 -0.4961  0.0678
  589MOL0     C79421   3.173   0.480   7.763 -0.0866  0.9832 -0.1862
  589MOL0     C79422   3.056   0.433   7.858 -0.9323  0.7829 -0.3809
  589MOL0     C79423   2.920   0.500   7.823 -0.3168 -0.0328  0.3002
  589MOL0    Cl79424   2.793   0.413   7.911 -0.4370 -0.0427 -0.1535
  589MOL0     C79425   3.483   0.790   7.069 -1.3962 -0.1204 -0.2746
  589MOL0     C79426   3.474   0.846   6.936 -0.2497 -0.0447 -0.8726
  589MOL0     O79427   3.530   1.108   6.809  0.2782  0.5184 -1.3466
  589MOL0     C79428   3.499   1.226   6.547  0.7048 -0.5192  0.0196
  589MOL0     C79429   3.458   1.285   6.424  0.3703 -0.1460 -0.0163
  589MOL0     N79430   2.754   1.113   5.934  0.1737 -0.8247  1.0810
  589MOL0     N79431   2.645   1.076   5.871 -0.5416 -0.3361 -0.3893
  589MOL0     C79432   2.290   0.896   5.238  0.2229 -0.0423  0.2029
  589MOL0     C79433   2.424   0.918   5.273 -0.8444 -0.4785  0.1693
  589MOL0     C79434   2.856   0.896   5.394 -0.9382  0.8560  0.1540
  589MOL0     C79435   2.889   1.026   5.441 -0.3580  0.7155 -0.1045
  589MOL0     C79436   3.009   1.044   5.516 -0.0336  0.3379 -0.2754
  589MOL0     C79437   3.097   0.938   5.548 -0.2425 -0.0492 -0.5253
  589MOL0     O79438   3.211   0.963   5.629  0.1560 -0.1972 -0.5617
  589MOL0     C79439   3.336   0.926   5.560 -0.5968 -0.0570  0.0847
  589MOL0     C79440   3.372   0.998   5.427 -0.4158  0.1715  0.0945
  589MOL0     C79441   3.487   0.923   5.359 -0.0721  0.3758 -0.7790
  589MOL0     C79442   3.445   0.814   5.259 -0.3024 -0.0093  0.0075
  589MOL0     C79443   3.359   0.707   5.306  0.5083  0.1163  0.1372
  589MOL0     C79444   3.286   0.611   5.326 -0.6997 -0.0931 -0.4833
  589MOL0     C79445   3.059   0.811   5.509  0.5849 -0.3810 -0.0979
  589MOL0     C79446   2.942   0.792   5.440  1.1980  0.4453  0.7918
  589MOL0     C79447   2.899   0.646   5.409 -0.6578 -0.6109  0.3966
  589MOL0     H79448   2.521   0.602   5.342  0.2439  0.1870  0.7080
  589MOL0     H79449   2.290   0.569   5.230  1.8247 -1.0920  1.8353
  589MOL0     H79450   2.007   0.904   5.283 -1.6906 -0.5019  4.2336
  589MOL0     H79451   1.895   0.794   5.221 -0.9104 -0.9604  1.0156
  589MOL0     H79452   2.022   0.626   5.413 -2.6726 -0.8567  1.4671
  589MOL0     H79453   1.873   0.710   5.410  0.8038 -0.1600 -1.0868
  589MOL0     H79454   1.962   0.892   5.549  0.1761 -0.4991  1.2952
  589MOL0     H79455   2.123   0.877   5.476 -0.6045  2.4496  3.0320
  589MOL0     H79456   2.029   0.687   5.676  0.4311  1.1907  0.2999
  589MOL0     H79457   2.177   0.660   5.571  1.1895 -1.1016  2.6427
  589MOL0     H79458   2.150   0.891   5.757  1.6262  0.6230  0.7096
  589MOL0     H79459   2.222   0.746   5.789 -1.2414 -0.3228 -0.7043
  589MOL0     H79460   2.382   0.755   5.608 -2.8019 -1.4057  1.0914
  589MOL0     H79461   2.334   0.920   5.556 -1.4748 -0.3819  0.3435
  589MOL0     H79462   2.430   0.877   5.844 -0.0479 -0.3448  0.4106
  589MOL0     H79463   2.419   1.020   5.766  0.7574 -0.0141  3.0415
  589MOL0     H79464   2.606   0.792   5.674 -2.4634 -0.5829 -0.5947
  589MOL0     H79465   2.598   0.947   5.601  0.0069 -1.3143 -1.1593
  589MOL0     H79466   2.867   0.855   5.775 -1.7803 -0.7240  0.1734
  589MOL0     H79467   2.992   0.946   6.027  1.3620 -3.4865 -3.5909
  589MOL0     H79468   3.078   1.025   5.892 -0.3740  0.1160 -0.3133
  589MOL0     H79469   3.002   1.253   5.976  1.9199  2.1277  3.3109
  589MOL0     H79470   2.933   1.180   6.108  0.4417  3.7550 -0.6351
  589MOL0     H79471   3.220   1.174   6.029 -0.0015  0.9026  1.3964
  589MOL0     H79472   3.168   1.074   6.159 -3.2427 -0.8925 -0.7787
  589MOL0     H79473   3.101   1.294   6.286 -0.0507  1.0378 -1.0863
  589MOL0     H79474   3.150   1.383   6.142  3.1502  0.0989 -1.0870
  589MOL0     H79475   3.174   1.111   6.373  0.6529  0.2471 -1.3090
  589MOL0     H79476   3.229   1.018   6.589  0.3572 -1.3320 -0.5574
  589MOL0     H79477   3.183   1.014   6.957  1.5003  0.8264 -1.7660
  589MOL0     H79478   3.193   0.941   7.188 -0.1552  0.1215  0.0198
  589MOL0     H79479   3.427   0.580   7.301 -0.5397 -0.8865  3.8856
  589MOL0     H79480   3.563   0.700   7.309  1.1104 -3.2886 -0.7225
  589MOL0     H79481   3.483   0.557   7.501 -0.6278  0.3524 -0.3728
  589MOL0     H79482   3.526   0.725   7.546 -1.2270  0.0240  0.2616
  589MOL0     H79483   3.300   0.791   7.512  0.0557  0.5482  2.3412
  589MOL0     H79484   3.245   0.623   7.504  1.4014 -0.4559 -1.8827
  589MOL0     H79485   3.335   0.790   7.742 -1.4715  0.1331 -0.8533
  589MOL0     H79486   3.393   0.616   7.735 -0.7788 -1.6746 -1.2342
  589MOL0     H79487   3.110   0.686   7.717 -0.7492 -1.4130 -0.6277
  589MOL0     H79488   3.187   0.660   7.874  1.6961 -1.7534  0.5044
  589MOL0     H79489   3.151   0.447   7.661  0.1025  0.8111 -0.1720
  589MOL0     H79490   3.260   0.426   7.803  0.9967  2.4494 -0.4865
  589MOL0     H79491   3.081   0.435   7.964  1.6272 -1.1313 -0.8730
  589MOL0     H79492   3.049   0.324   7.848 -0.6584  0.8466 -1.3734
  589MOL0     H79493   2.921   0.609   7.836 -2.0560 -0.0019  0.3569
  589MOL0     H79494   2.899   0.481   7.717  1.0360 -1.3518  0.2341
  589MOL0     H79495   3.568   0.727   7.094 -1.0278 -0.0833 -1.3719
  589MOL0     H79496   3.557   0.819   6.873  0.6807 -0.6452  0.5568
  589MOL0     H79497   3.586   1.267   6.597 -0.3993 -0.1460  1.7306
  589MOL0     H79498   3.516   1.354   6.363 -1.1493  0.5640 -0.6936
  589MOL0     H79499   2.236   0.989   5.225 -0.5136 -0.3158  1.1825
  589MOL0     H79500   2.471   1.016   5.284  2.5801 -2.0950  1.3956
  589MOL0     H79501   2.840   1.120   5.414  1.9093  2.5353  1.7102
  589MOL0     H79502   3.038   1.146   5.541 -1.4930  1.1890 -1.8112
  589MOL0     H79503   3.317   0.821   5.536 -2.2743 -0.2945  2.1886
  589MOL0     H79504   3.417   0.926   5.634 -0.1377  2.2690 -0.3523
  589MOL0     H79505   3.400   1.102   5.447 -1.7374  0.2649  1.6510
  589MOL0     H79506   3.283   0.992   5.364  0.2608  0.0318 -0.8740
  589MOL0     H79507   3.550   0.871   5.432  0.7307  0.2124 -1.5668
  589MOL0     H79508   3.554   0.988   5.302  0.5671 -1.5271 -2.3175
  589MOL0     H79509   3.387   0.861   5.179 -0.9330  0.1904  0.5682
  589MOL0     H79510   3.535   0.766   5.219  1.5113  1.5454  2.0033
  589MOL0     H79511   3.232   0.522   5.352  1.2963 -1.0704  0.4950
  589MOL0     H79512   3.115   0.721   5.529 -1.7954 -1.3274  2.9775
  589MOL0     H79513   2.811   0.610   5.463 -1.1365  2.4505  1.9146
  589MOL0     H79514   2.888   0.637   5.301 -1.4202  0.5661  0.3544
  589MOL0     H79515   2.975   0.576   5.445  0.0415 -0.1774 -0.2051
  590MOL0     O79516   1.966   3.577   4.764 -0.1107 -0.3932 -0.1398
  590MOL0     C79517   1.927   3.462   4.800  0.6135 -0.7829  0.1888
  590MOL0     O79518   2.014   3.349   4.824 -0.1826 -0.4505  0.2911
  590MOL0     C79519   2.151   3.362   4.817  0.2957  0.2914  0.0605
  590MOL0     C79520   2.217   3.424   4.706  0.9255  0.2192  0.2627
  590MOL0     C79521   2.360   3.422   4.689 -0.0136 -0.2414 -1.8131
  590MOL0     C79522   2.435   3.372   4.796 -0.2666 -0.4963 -0.3803
  590MOL0     O79523   2.574   3.383   4.783  0.1652 -0.3753 -0.4884
  590MOL0     C79524   2.654   3.367   4.907 -0.8186 -1.2454 -0.0823
  590MOL0     C79525   2.752   3.485   4.919  0.1572 -0.1015 -0.0673
  590MOL0     C79526   2.875   3.447   4.847  0.1478  0.5997 -0.3899
  590MOL0     C79527   2.986   3.378   4.933  0.1437  0.9010  0.6761
  590MOL0     C79528   3.100   3.350   4.835 -0.2154 -0.0755  0.1269
  590MOL0     C79529   3.206   3.246   4.884  0.0408 -0.0734 -0.2265
  590MOL0     C79530   3.334   3.225   4.792 -0.3538  0.9698 -0.8769
  590MOL0     C79531   3.382   3.359   4.735  0.3497  0.6615  0.5843
  590MOL0     N79532   3.516   3.348   4.677 -0.3216  0.5345  0.5326
  590MOL0     C79533   3.552   3.319   4.544  0.1746  0.5990  0.6490
  590MOL0     C79534   3.687   3.340   4.535 -0.6391 -0.0216 -0.0662
  590MOL0     C79535   3.770   3.296   4.420  0.3887  1.3211  1.0871
  590MOL0     C79536   3.741   3.145   4.387 -0.6659 -0.0398 -0.6641
  590MOL0     C79537   3.808   3.106   4.246 -0.1382  0.2728 -0.3663
  590MOL0     C79538   3.750   2.964   4.223  0.5200 -0.8722 -0.2266
  590MOL0     O79539   3.788   2.863   4.325  0.4584 -0.4049 -0.3486
  590MOL0     C79540   3.919   2.826   4.332 -0.2037 -0.0023 -0.3232
  590MOL0     C79541   4.001   2.809   4.223 -0.5607  0.1728  0.2767
  590MOL0     C79542   4.132   2.778   4.234  0.0150 -0.0103 -0.8496
  590MOL0     C79543   4.190   2.755   4.365  0.1907  0.1964  0.1764
  590MOL0     C79544   4.342   2.731   4.369  0.3589 -0.4001 -0.0693
  590MOL0     O79545   4.414   2.740   4.256 -0.6597 -0.2049  0.6142
  590MOL0     C79546   4.552   2.753   4.255 -0.0127 -0.2105 -0.7573
  590MOL0     C79547   4.621   2.831   4.343 -0.0831  0.2054  0.1126
  590MOL0     C79548   4.766   2.827   4.352 -0.8645  0.6412  0.1892
  590MOL0     C79549   4.834   2.735   4.266  0.5322 -0.5409 -1.1154
  590MOL0     O79550   4.974   2.724   4.287  0.1175  0.4779  0.7308
  590MOL0     C79551   5.017   2.593   4.338 -0.7404  0.1445 -0.0267
  590MOL0     C79552   5.104   2.508   4.232  0.1725 -0.0935  0.0899
  590MOL0     C79553   5.200   2.591   4.149 -0.2411  0.6910 -0.3133
  590MOL0     C79554   5.331   2.604   4.238  0.1869  0.8438 -0.4463
  590MOL0     C79555   5.450   2.659   4.155  0.5317 -0.1860  0.1075
  590MOL0     C79556   5.530   2.528   4.116 -0.3088  0.0885 -0.7968
  590MOL0     C79557   5.656   2.554   4.023 -0.0766  0.5366  0.5989
  590MOL0     C79558   5.751   2.437   4.045 -0.4665  0.2251 -0.4224
  590MOL0    Cl79559   5.715   2.294   3.941  0.0488  0.4246  0.1661
  590MOL0     C79560   4.762   2.650   4.175  0.3236 -0.6917  0.0441
  590MOL0     C79561   4.624   2.670   4.165  0.8204  0.3670 -0.4091
  590MOL0     O79562   4.387   2.739   4.486 -0.9743  0.1471  0.7001
  590MOL0     C79563   4.107   2.772   4.482  0.5809 -1.0984 -0.7267
  590MOL0     C79564   3.970   2.810   4.469  0.1521  0.0177  0.6413
  590MOL0     N79565   3.732   3.385   4.664  0.2136 -0.4234 -0.4068
  590MOL0     N79566   3.624   3.390   4.740 -0.7080 -0.9465 -0.2931
  590MOL0     C79567   2.373   3.294   4.898  0.3194 -0.2997 -0.1529
  590MOL0     C79568   2.239   3.283   4.909  0.5502 -0.4458  0.2547
  590MOL0     C79569   1.783   3.434   4.809 -0.1709 -0.4073  0.0522
  590MOL0     C79570   1.700   3.518   4.734  0.1195  0.5291 -0.4945
  590MOL0     C79571   1.559   3.502   4.722 -0.5171  0.9069 -0.4600
  590MOL0     C79572   1.495   3.403   4.799 -0.6015 -0.0758  0.3925
  590MOL0     O79573   1.360   3.389   4.802 -0.1899 -0.4576 -0.1398
  590MOL0     C79574   1.278   3.398   4.687  0.3773 -1.2863  0.8348
  590MOL0     C79575   1.120   3.383   4.716 -1.0031 -0.0010  0.0029
  590MOL0     C79576   1.051   3.516   4.727 -0.5245  0.4096  0.2157
  590MOL0     C79577   0.917   3.499   4.799 -0.2182  0.3777  0.1237
  590MOL0     C79578   0.897   3.532   4.944 -0.5205  0.1681  0.2044
  590MOL0     C79579   0.884   3.568   5.060 -0.9193 -1.0135 -0.5827
  590MOL0     C79580   1.572   3.332   4.896  0.1689 -0.2212 -0.2428
  590MOL0     C79581   1.714   3.344   4.898 -0.7777  0.2724  0.4400
  590MOL0     C79582   1.775   3.257   4.998  0.2038  0.9035 -0.1572
  590MOL0     H79583   2.160   3.452   4.618  1.7535  3.0892  0.5310
  590MOL0     H79584   2.415   3.452   4.601 -1.8237  0.4918 -2.7433
  590MOL0     H79585   2.585   3.369   4.992 -2.8290 -0.7125 -1.6177
  590MOL0     H79586   2.710   3.273   4.908 -0.1347 -0.8403  0.0835
  590MOL0     H79587   2.773   3.501   5.025  0.3463 -1.9889  0.2076
  590MOL0     H79588   2.708   3.573   4.869  1.9780  0.4329 -0.8255
  590MOL0     H79589   2.911   3.534   4.791  1.0040  1.5307  1.4972
  590MOL0     H79590   2.854   3.378   4.765 -0.6527  0.1762  0.1589
  590MOL0     H79591   3.029   3.452   5.001  1.6176  0.8613 -0.1765
  590MOL0     H79592   2.949   3.295   4.994 -1.1187  1.8418  1.2469
  590MOL0     H79593   3.069   3.307   4.739  0.9421 -2.2891  0.6995
  590MOL0     H79594   3.154   3.443   4.818 -0.1860 -0.1001  0.0864
  590MOL0     H79595   3.240   3.270   4.985  0.5452 -3.1393  0.4399
  590MOL0     H79596   3.159   3.148   4.897  0.8445 -0.3426  0.7377
  590MOL0     H79597   3.325   3.138   4.727 -1.9667 -0.3419  0.9974
  590MOL0     H79598   3.411   3.187   4.860 -2.2674  1.2796  1.6190
  590MOL0     H79599   3.311   3.374   4.654 -1.8836 -3.2459  1.5706
  590MOL0     H79600   3.377   3.444   4.803  0.3633  0.2771  1.0775
  590MOL0     H79601   3.477   3.303   4.467 -1.4622  0.2615  2.2390
  590MOL0     H79602   3.739   3.344   4.326 -1.4184 -2.9150 -0.7200
  590MOL0     H79603   3.872   3.321   4.449  0.8790 -0.9463  1.4399
  590MOL0     H79604   3.770   3.078   4.468  2.8792 -1.3377 -2.7597
  590MOL0     H79605   3.634   3.124   4.386 -0.5937 -0.4576 -0.0452
  590MOL0     H79606   3.916   3.108   4.265 -0.1459  2.5152 -0.3533
  590MOL0     H79607   3.773   3.153   4.153 -3.2013 -3.6009 -1.4712
  590MOL0     H79608   3.768   2.936   4.119  1.3442  2.6507 -1.1592
  590MOL0     H79609   3.642   2.960   4.240  0.5428 -2.1196 -0.2525
  590MOL0     H79610   3.963   2.825   4.122 -0.6434 -2.5095 -0.1773
  590MOL0     H79611   4.179   2.769   4.136  0.0414 -3.0757 -0.6481
  590MOL0     H79612   4.558   2.886   4.412  1.4030 -0.6707  2.2802
  590MOL0     H79613   4.828   2.895   4.410  0.5556 -0.5045  0.0643
  590MOL0     H79614   5.069   2.619   4.430 -0.5771  1.8076 -0.5629
  590MOL0     H79615   4.931   2.531   4.366 -2.0095  0.5283 -2.7322
  590MOL0     H79616   5.151   2.426   4.287 -2.6171 -1.2913  0.9088
  590MOL0     H79617   5.034   2.473   4.156 -1.6549  1.0875  1.1390
  590MOL0     H79618   5.240   2.537   4.063  1.4268  0.0835  0.7881
  590MOL0     H79619   5.147   2.683   4.123 -2.2482 -0.0147  1.0379
  590MOL0     H79620   5.355   2.504   4.275 -0.3459  0.3734 -1.3389
  590MOL0     H79621   5.311   2.664   4.327  2.4778  1.9121 -0.5646
  590MOL0     H79622   5.511   2.733   4.208 -1.9651  1.5928  0.7003
  590MOL0     H79623   5.420   2.700   4.059  0.5038  2.3060  1.1032
  590MOL0     H79624   5.555   2.494   4.218 -2.6890 -1.9332 -0.7800
  590MOL0     H79625   5.460   2.455   4.073 -0.7630  0.1715 -0.2216
  590MOL0     H79626   5.702   2.646   4.062  2.3784 -0.4443  0.2087
  590MOL0     H79627   5.625   2.573   3.920 -2.1883 -1.8216  0.6994
  590MOL0     H79628   5.852   2.462   4.012 -0.8719 -2.1638 -4.1908
  590MOL0     H79629   5.762   2.391   4.143  0.8454 -0.1936 -0.7458
  590MOL0     H79630   4.822   2.582   4.115  1.1958  1.1829 -1.3151
  590MOL0     H79631   4.560   2.614   4.097 -0.2531  1.5660 -0.4151
  590MOL0     H79632   4.155   2.770   4.579 -0.7420 -0.3394 -0.0241
  590MOL0     H79633   3.908   2.828   4.556  0.9677 -0.7189  1.3981
  590MOL0     H79634   2.431   3.237   4.970 -1.1827 -1.1247  0.4557
  590MOL0     H79635   2.212   3.223   4.995  0.3605 -1.7592 -0.6963
  590MOL0     H79636   1.745   3.602   4.682  0.7628  1.7210  1.8562
  590MOL0     H79637   1.502   3.568   4.656 -1.0066  2.0682  1.0611
  590MOL0     H79638   1.305   3.328   4.607 -0.1091 -0.9586  0.3784
  590MOL0     H79639   1.279   3.497   4.641  1.0776 -2.5483 -2.0855
  590MOL0     H79640   1.111   3.319   4.804  1.3589 -0.1550  0.1891
  590MOL0     H79641   1.080   3.327   4.630 -1.8113 -1.0323  1.0126
  590MOL0     H79642   1.034   3.552   4.625  1.3687 -3.8288 -1.8802
  590MOL0     H79643   1.107   3.594   4.779 -1.3284  2.7617 -2.1960
  590MOL0     H79644   0.856   3.571   4.744  1.9950  1.9703 -0.3681
  590MOL0     H79645   0.883   3.397   4.778 -1.6258  0.6418  0.9524
  590MOL0     H79646   0.884   3.599   5.162 -0.3675 -0.2931 -0.7941
  590MOL0     H79647   1.516   3.277   4.971  0.8341  0.7789  1.0175
  590MOL0     H79648   1.852   3.198   4.948 -0.5091 -0.5548  0.3988
  590MOL0     H79649   1.813   3.320   5.078  1.4309 -0.9621  0.7912
  590MOL0     H79650   1.709   3.176   5.029 -0.2483 -1.1642 -5.5016
  591MOL0     O79651   8.920   9.033   5.135 -0.3273  0.0605  0.5900
  591MOL0     C79652   8.896   9.157   5.144 -0.0759  0.9523  0.4502
  591MOL0     O79653   8.984   9.259   5.117 -0.1009  0.4282 -0.0444
  591MOL0     C79654   9.102   9.242   5.057 -0.3622  0.4207 -0.0145
  591MOL0     C79655   9.221   9.203   5.130  0.6942  1.0666 -0.2599
  591MOL0     C79656   9.338   9.180   5.063  1.0706  0.2720  0.2461
  591MOL0     C79657   9.347   9.190   4.932  0.6490 -0.2669  0.4635
  591MOL0     O79658   9.461   9.159   4.864 -0.4792  0.0139  0.4317
  591MOL0     C79659   9.573   9.226   4.917 -0.2721  0.3864 -0.3383
  591MOL0     C79660   9.674   9.253   4.805 -0.5673  0.4230 -0.3015
  591MOL0     C79661   9.696   9.399   4.755 -0.6157  0.1084 -0.1918
  591MOL0     C79662   9.825   9.413   4.673 -0.0522  0.0389  0.6239
  591MOL0     C79663   9.859   9.563   4.655  0.4806 -0.4364  1.0830
  591MOL0     C79664   9.998   9.590   4.600 -0.5649  0.2337  0.0385
  591MOL0     C79665  10.008   9.737   4.546  0.1360  0.0598  0.9081
  591MOL0     C79666   9.989   9.840   4.651 -0.2185 -0.0448 -0.2570
  591MOL0     N79667  10.103   9.860   4.742  0.3138 -1.2999  0.0876
  591MOL0     C79668  10.094   9.815   4.872 -1.1816 -0.3587 -0.3786
  591MOL0     C79669  10.219   9.824   4.928  0.0731 -0.9334 -0.2120
  591MOL0     C79670  10.274   9.778   5.065  0.5382  0.4373  0.0209
  591MOL0     C79671  10.417   9.732   5.050 -0.3414 -0.5978  0.1106
  591MOL0     C79672  10.477   9.655   5.175 -0.2464 -0.3529 -0.0305
  591MOL0     C79673  10.501   9.745   5.296  0.3139 -0.9421  0.4094
  591MOL0     O79674  10.582   9.680   5.392  0.1599  0.5262  1.6737
  591MOL0     C79675  10.516   9.642   5.507  0.5846 -0.2422 -0.3000
  591MOL0     C79676  10.438   9.730   5.585  0.0937 -0.2685 -0.4533
  591MOL0     C79677  10.356   9.666   5.685  1.0765 -0.4446 -0.0561
  591MOL0     C79678  10.367   9.532   5.716  0.9748 -0.2055 -0.5321
  591MOL0     C79679  10.281   9.467   5.824 -0.5526  0.3981  0.0548
  591MOL0     O79680  10.300   9.329   5.843 -0.2055  0.1767 -0.0120
  591MOL0     C79681  10.235   9.258   5.942  0.1643  0.6713  0.0055
  591MOL0     C79682  10.236   9.119   5.919  0.0930 -0.4424  0.0036
  591MOL0     C79683  10.173   9.026   6.006 -0.1527 -0.0827  0.9318
  591MOL0     C79684  10.117   9.065   6.129  0.1991 -0.2813  0.1295
  591MOL0     O79685  10.054   8.972   6.213  0.0565  0.1252 -0.1413
  591MOL0     C79686   9.994   9.036   6.328  0.4936  0.2964 -0.2943
  591MOL0     C79687   9.910   8.927   6.387  0.5707  0.2866 -0.3321
  591MOL0     C79688   9.770   8.907   6.322  0.3092 -0.3291 -0.9200
  591MOL0     C79689   9.669   8.823   6.405 -0.5871 -0.0408 -0.4605
  591MOL0     C79690   9.538   8.768   6.331 -0.6297 -0.1492  0.8079
  591MOL0     C79691   9.423   8.740   6.430 -0.6149 -0.2350  0.2406
  591MOL0     C79692   9.305   8.667   6.365 -0.3889  0.1966 -0.5592
  591MOL0     C79693   9.174   8.655   6.441 -0.5154  0.3966 -0.0396
  591MOL0    Cl79694   9.026   8.623   6.350 -0.1269  0.6521  0.1376
  591MOL0     C79695  10.122   9.202   6.156  0.0789  0.1138  0.0180
  591MOL0     C79696  10.170   9.292   6.061  0.1121  0.0899  0.2097
  591MOL0     O79697  10.195   9.531   5.883 -0.2623  0.1658 -0.4818
  591MOL0     C79698  10.454   9.454   5.640 -0.0292  0.3063 -0.7095
  591MOL0     C79699  10.530   9.506   5.543 -0.6225 -0.6649  1.0569
  591MOL0     N79700  10.295   9.893   4.829  0.1620 -0.0268 -0.8590
  591MOL0     N79701  10.231   9.905   4.721  0.1873  0.0523  0.5585
  591MOL0     C79702   9.233   9.239   4.855  0.6705  0.8052  0.6715
  591MOL0     C79703   9.112   9.269   4.915  0.3077 -0.3640  0.0151
  591MOL0     C79704   8.765   9.194   5.209  0.1793 -0.0023 -0.5093
  591MOL0     C79705   8.754   9.323   5.273 -0.4167 -0.1401  0.0208
  591MOL0     C79706   8.633   9.374   5.322  0.1875  0.0712 -0.3587
  591MOL0     C79707   8.513   9.305   5.301 -0.4761 -0.0131  0.2154
  591MOL0     O79708   8.388   9.339   5.346 -0.2391 -0.6466  1.0216
  591MOL0     C79709   8.332   9.472   5.358 -1.0071  0.9995  0.3640
  591MOL0     C79710   8.289   9.534   5.226 -0.4805 -0.0114 -0.1295
  591MOL0     C79711   8.153   9.477   5.181  0.5170 -0.1822  0.1413
  591MOL0     C79712   8.127   9.503   5.033  0.0460 -0.4089 -0.2601
  591MOL0     C79713   7.995   9.467   4.998  0.0749  0.1411  0.0227
  591MOL0     C79714   7.887   9.433   4.969 -0.2970  0.7747  0.3861
  591MOL0     C79715   8.518   9.181   5.246  0.1052  0.5111 -0.0607
  591MOL0     C79716   8.641   9.119   5.208  0.1460  0.1357 -0.0076
  591MOL0     C79717   8.633   8.985   5.146 -0.1583 -0.1570  0.1642
  591MOL0     H79718   9.201   9.184   5.235 -0.5250 -2.4638 -1.0154
  591MOL0     H79719   9.414   9.134   5.126  0.2040 -1.8721 -0.1800
  591MOL0     H79720   9.545   9.316   4.974 -2.4359  0.6035 -1.6353
  591MOL0     H79721   9.614   9.156   4.991 -1.5157 -0.4647 -0.4378
  591MOL0     H79722   9.649   9.202   4.711  3.8868  0.0094 -1.5108
  591MOL0     H79723   9.770   9.210   4.834 -2.0291 -1.6816  1.7954
  591MOL0     H79724   9.699   9.460   4.846  0.8077  0.7791 -0.6694
  591MOL0     H79725   9.605   9.441   4.710 -2.1223 -1.1691  1.4939
  591MOL0     H79726   9.917   9.378   4.720 -0.3643 -1.6417  0.0287
  591MOL0     H79727   9.824   9.356   4.579 -0.4557 -0.6998  1.0675
  591MOL0     H79728   9.785   9.597   4.582  0.6051  1.0437  1.6143
  591MOL0     H79729   9.843   9.613   4.751 -0.9562 -2.0751  1.7637
  591MOL0     H79730  10.065   9.570   4.684  1.2044  0.2117 -1.3284
  591MOL0     H79731  10.033   9.523   4.521  3.0829  1.0690  0.7622
  591MOL0     H79732   9.936   9.766   4.469  1.3772  1.2651  0.1434
  591MOL0     H79733  10.099   9.764   4.491  0.8152  0.4194  2.1605
  591MOL0     H79734   9.984   9.937   4.600  0.5706  0.6006  0.8518
  591MOL0     H79735   9.900   9.822   4.711  0.5780  1.3709  1.4177
  591MOL0     H79736  10.013   9.778   4.933  1.5165  1.0607  4.6511
  591MOL0     H79737  10.256   9.860   5.135  0.2968 -0.4936  1.0947
  591MOL0     H79738  10.217   9.695   5.109  0.5365  1.5901  2.3710
  591MOL0     H79739  10.419   9.659   4.968  0.3740  1.4174 -1.7640
  591MOL0     H79740  10.492   9.807   5.023  2.7253 -3.5835 -0.3085
  591MOL0     H79741  10.568   9.603   5.143 -0.8538 -2.0380  0.8202
  591MOL0     H79742  10.422   9.567   5.210  1.2904 -0.3631  2.6733
  591MOL0     H79743  10.403   9.778   5.330 -0.3574  1.0344 -2.9364
  591MOL0     H79744  10.542   9.838   5.256 -3.7482  1.1680  0.6997
  591MOL0     H79745  10.423   9.836   5.564 -1.4558 -0.4432 -0.3711
  591MOL0     H79746  10.291   9.730   5.743  2.4061 -0.3729  1.4088
  591MOL0     H79747  10.280   9.085   5.825  0.5546  1.3004 -0.4483
  591MOL0     H79748  10.184   8.920   5.987  5.4849  0.4097 -0.3621
  591MOL0     H79749  10.073   9.072   6.394 -0.7586  3.0069 -0.1227
  591MOL0     H79750   9.921   9.111   6.297 -0.6340 -0.5611  0.2263
  591MOL0     H79751   9.963   8.831   6.385  0.3986  0.1999 -1.9412
  591MOL0     H79752   9.884   8.961   6.488  0.7341 -1.5494  0.3702
  591MOL0     H79753   9.708   8.994   6.298 -1.2403 -0.7163  1.3401
  591MOL0     H79754   9.785   8.851   6.229  1.2986 -1.8032  0.0861
  591MOL0     H79755   9.640   8.876   6.496  0.1697 -0.1997 -0.1191
  591MOL0     H79756   9.731   8.743   6.448 -0.0581 -0.3068 -1.6936
  591MOL0     H79757   9.564   8.680   6.271 -2.0287  0.9315 -1.5184
  591MOL0     H79758   9.509   8.849   6.264 -2.3660 -0.4630  1.1277
  591MOL0     H79759   9.474   8.671   6.498 -1.1446 -1.7319 -0.8205
  591MOL0     H79760   9.382   8.827   6.482 -0.3051  0.4241 -0.6000
  591MOL0     H79761   9.338   8.563   6.354  1.4355  0.7123 -0.2806
  591MOL0     H79762   9.286   8.722   6.272  3.8962 -1.6300 -2.8191
  591MOL0     H79763   9.194   8.598   6.532  1.7027  1.8329  0.4506
  591MOL0     H79764   9.148   8.756   6.474 -0.5519 -0.1034  1.5386
  591MOL0     H79765  10.090   9.251   6.247  0.6962  2.5684 -1.0071
  591MOL0     H79766  10.168   9.397   6.087  1.5584 -0.3356  2.3303
  591MOL0     H79767  10.466   9.349   5.661 -1.2430  0.5258  1.4047
  591MOL0     H79768  10.590   9.441   5.480 -0.0975  2.1519 -1.5785
  591MOL0     H79769   9.247   9.247   4.748  0.2735  0.6964  0.6103
  591MOL0     H79770   9.026   9.299   4.857 -0.1496 -2.6608 -0.5577
  591MOL0     H79771   8.845   9.377   5.296 -2.6656  4.4040 -0.6822
  591MOL0     H79772   8.638   9.468   5.377  1.6802 -1.0225  1.4919
  591MOL0     H79773   8.405   9.542   5.402  2.6057 -1.0246 -1.9236
  591MOL0     H79774   8.248   9.475   5.428 -1.8600 -0.7854 -0.5404
  591MOL0     H79775   8.376   9.520   5.161 -0.6038  0.8630 -0.4921
  591MOL0     H79776   8.276   9.642   5.237  3.4316  0.5763  0.0070
  591MOL0     H79777   8.084   9.537   5.242 -0.8633 -0.1448 -1.4030
  591MOL0     H79778   8.148   9.374   5.217  2.8582 -0.0070  1.2248
  591MOL0     H79779   8.144   9.609   5.012  4.4216 -0.7535  0.4764
  591MOL0     H79780   8.205   9.448   4.979  0.8458  0.6484 -0.2262
  591MOL0     H79781   7.788   9.427   4.930 -0.4676  2.8417  0.3750
  591MOL0     H79782   8.426   9.123   5.238  1.1695 -1.3654  0.6294
  591MOL0     H79783   8.528   8.964   5.125 -0.5278  0.8159  0.9295
  591MOL0     H79784   8.680   8.977   5.048 -1.7847  1.8624 -0.8549
  591MOL0     H79785   8.677   8.903   5.205 -1.0840  0.3919  1.6923
  592MOL0     O79786  11.222   0.595   9.055  0.1601  0.0424  0.7476
  592MOL0     C79787  11.312   0.644   8.988  0.5020  0.3143  0.1697
  592MOL0     O79788  11.288   0.734   8.882  0.5050  0.2413  0.0614
  592MOL0     C79789  11.158   0.760   8.829  1.0608 -0.2567 -0.7413
  592MOL0     C79790  11.126   0.888   8.784  0.1933  0.3692 -0.2466
  592MOL0     C79791  11.005   0.903   8.711 -0.2338 -0.9055 -0.0970
  592MOL0     C79792  10.904   0.802   8.703  0.0568 -0.1605  0.1094
  592MOL0     O79793  10.790   0.824   8.625 -0.7931 -0.0845 -0.7939
  592MOL0     C79794  10.686   0.720   8.645 -0.3479  0.2966  0.4598
  592MOL0     C79795  10.557   0.774   8.578 -0.0114  0.9547 -0.0901
  592MOL0     C79796  10.497   0.896   8.645  0.1592 -0.5944 -0.3154
  592MOL0     C79797  10.376   0.948   8.557  0.3884  0.1759  0.5459
  592MOL0     C79798  10.328   1.077   8.611  0.2351 -0.2484  0.6552
  592MOL0     C79799  10.210   1.122   8.523 -0.0787  0.5280 -0.8882
  592MOL0     C79800  10.137   1.250   8.578 -0.1110  0.3791 -1.0091
  592MOL0     C79801  10.067   1.225   8.715  0.6676  0.9169 -0.1044
  592MOL0     N79802   9.962   1.133   8.702 -0.3181  0.1235 -0.3140
  592MOL0     C79803   9.854   1.131   8.616  0.7785  0.3167 -0.8728
  592MOL0     C79804   9.772   1.036   8.670 -0.6556 -0.1413 -0.0769
  592MOL0     C79805   9.641   0.988   8.623 -1.0319 -0.2471  0.6306
  592MOL0     C79806   9.524   1.078   8.685  0.1477  0.4593 -0.0166
  592MOL0     C79807   9.494   1.059   8.836  0.5614 -0.7882  0.2055
  592MOL0     C79808   9.364   1.134   8.880 -0.4967  0.3035  0.0540
  592MOL0     O79809   9.244   1.075   8.833 -0.4069  0.0792 -0.7470
  592MOL0     C79810   9.150   1.162   8.797  0.2828  0.5046  0.3347
  592MOL0     C79811   9.138   1.192   8.660  0.0930 -0.4379 -0.2339
  592MOL0     C79812   9.036   1.286   8.620  0.6127  0.5570 -0.1706
  592MOL0     C79813   8.958   1.351   8.721 -0.3353 -0.3241  0.1198
  592MOL0     C79814   8.863   1.456   8.682 -0.3137  0.4448  0.5476
  592MOL0     O79815   8.906   1.533   8.581  0.3448 -0.9871  0.5900
  592MOL0     C79816   8.820   1.627   8.539  0.6256 -0.4296 -0.1418
  592MOL0     C79817   8.863   1.758   8.499  0.4120  0.2114  0.0048
  592MOL0     C79818   8.768   1.860   8.466 -0.8991 -0.2118  0.8140
  592MOL0     C79819   8.630   1.832   8.471  0.2354  0.9013 -0.4182
  592MOL0     O79820   8.528   1.917   8.445 -0.0751 -0.5589  0.1202
  592MOL0     C79821   8.560   2.052   8.426 -0.0200 -0.0388  0.0551
  592MOL0     C79822   8.429   2.115   8.412  0.3066 -1.0995  0.7995
  592MOL0     C79823   8.361   2.092   8.276  0.6834 -0.4627 -0.2794
  592MOL0     C79824   8.208   2.076   8.297 -0.8771  1.1077  0.0503
  592MOL0     C79825   8.135   2.055   8.160 -0.3847  0.1985  0.3221
  592MOL0     C79826   8.190   1.924   8.093 -0.5524 -0.3542 -0.3879
  592MOL0     C79827   8.184   1.798   8.185  0.3181  0.0368  0.3178
  592MOL0     C79828   8.234   1.675   8.110 -0.5648  0.2787 -0.4728
  592MOL0    Cl79829   8.232   1.540   8.228 -0.2718  0.2748 -0.3000
  592MOL0     C79830   8.592   1.701   8.497  0.3919  0.3203  0.6962
  592MOL0     C79831   8.682   1.601   8.527 -0.0877 -0.0118  0.5021
  592MOL0     O79832   8.760   1.471   8.748 -0.1658  0.3051 -0.0349
  592MOL0     C79833   8.979   1.318   8.853  0.1442 -0.2864 -0.0762
  592MOL0     C79834   9.072   1.229   8.896 -0.2255  0.5083 -0.2810
  592MOL0     N79835   9.839   0.978   8.777 -0.7493 -0.4698 -0.3404
  592MOL0     N79836   9.953   1.032   8.791  0.3844 -0.0936  0.8863
  592MOL0     C79837  10.945   0.670   8.744  0.5544 -1.1448  0.0225
  592MOL0     C79838  11.061   0.656   8.808 -0.7916  0.5323  0.2047
  592MOL0     C79839  11.450   0.612   9.017  0.1219 -0.5835  0.3512
  592MOL0     C79840  11.550   0.677   8.941 -0.6458  0.0130 -0.1358
  592MOL0     C79841  11.686   0.658   8.956 -0.7546  0.2965 -0.5325
  592MOL0     C79842  11.734   0.583   9.064 -0.1540 -0.0605 -0.2662
  592MOL0     O79843  11.864   0.573   9.093  0.4987  0.4427  0.5454
  592MOL0     C79844  11.959   0.628   9.002 -0.0691 -0.6521 -0.3369
  592MOL0     C79845  12.103   0.598   9.046  0.2964 -0.4123 -0.1347
  592MOL0     C79846  12.136   0.458   9.009  0.0580 -0.0169 -0.3038
  592MOL0     C79847  12.290   0.444   9.021 -0.9912 -0.3316 -0.1726
  592MOL0     C79848  12.353   0.505   9.141  0.2240 -0.5631  0.1909
  592MOL0     C79849  12.405   0.550   9.241 -0.4185  0.9270  0.0427
  592MOL0     C79850  11.634   0.528   9.141 -0.1973  0.8426  0.0055
  592MOL0     C79851  11.496   0.531   9.118  0.0753  0.4023 -0.3174
  592MOL0     C79852  11.410   0.446   9.210 -0.0263 -0.5370  0.7067
  592MOL0     H79853  11.196   0.970   8.789  0.6531 -0.0477  0.3178
  592MOL0     H79854  10.984   1.003   8.674 -0.0139 -0.3559  1.2074
  592MOL0     H79855  10.713   0.631   8.586 -1.3936  0.4673 -0.3014
  592MOL0     H79856  10.669   0.706   8.752 -0.3644  0.4091  0.4721
  592MOL0     H79857  10.485   0.694   8.560  2.4789 -0.9533 -2.2500
  592MOL0     H79858  10.575   0.819   8.480 -1.8137  0.2957 -0.7728
  592MOL0     H79859  10.570   0.978   8.653 -1.6724  1.0542  0.5210
  592MOL0     H79860  10.456   0.874   8.744 -0.0724  0.3083 -0.1956
  592MOL0     H79861  10.409   0.965   8.454  3.9465  2.9183  1.9276
  592MOL0     H79862  10.296   0.874   8.569  0.0249  0.5619  0.4991
  592MOL0     H79863  10.290   1.050   8.710 -2.1064 -0.0796 -0.1306
  592MOL0     H79864  10.410   1.147   8.591 -0.6726  0.1000 -2.3337
  592MOL0     H79865  10.246   1.137   8.421  0.4310 -1.7141 -1.0888
  592MOL0     H79866  10.128   1.050   8.520 -0.0774  0.4179  0.8046
  592MOL0     H79867  10.065   1.287   8.504 -1.3187  2.7400  1.1910
  592MOL0     H79868  10.207   1.330   8.601  1.0375 -0.6645 -0.7456
  592MOL0     H79869  10.136   1.193   8.794 -0.4440  0.9476  0.9058
  592MOL0     H79870  10.023   1.322   8.741  1.1159  1.0816  0.0597
  592MOL0     H79871   9.835   1.192   8.528  1.5992 -0.4301 -1.5842
  592MOL0     H79872   9.659   0.986   8.515  2.6108 -1.8611  1.1448
  592MOL0     H79873   9.629   0.885   8.657  3.6050 -0.8075  1.1422
  592MOL0     H79874   9.542   1.186   8.683  1.7259  0.2557  0.9285
  592MOL0     H79875   9.435   1.048   8.629  0.6017  0.4182 -0.7315
  592MOL0     H79876   9.580   1.092   8.895  1.0190  0.2580 -0.9984
  592MOL0     H79877   9.485   0.952   8.858 -3.0483 -0.6291  0.0877
  592MOL0     H79878   9.363   1.239   8.852 -1.2282  0.3941  0.3963
  592MOL0     H79879   9.360   1.135   8.989 -0.9335  2.4619  0.0539
  592MOL0     H79880   9.198   1.136   8.589  0.8840  1.0487 -0.8003
  592MOL0     H79881   9.013   1.293   8.514 -1.6387 -1.9946  0.0489
  592MOL0     H79882   8.971   1.768   8.493  0.3701  0.8930  0.2652
  592MOL0     H79883   8.807   1.957   8.437 -0.7773 -0.6089 -0.3831
  592MOL0     H79884   8.629   2.087   8.503  0.7505 -2.0492  0.3604
  592MOL0     H79885   8.613   2.055   8.330 -1.1765  1.2449 -0.5643
  592MOL0     H79886   8.374   2.099   8.506  0.7498 -0.1891  1.2268
  592MOL0     H79887   8.437   2.224   8.404  0.7381 -1.2552 -1.4980
  592MOL0     H79888   8.369   2.174   8.204 -3.5527 -0.7112 -1.2963
  592MOL0     H79889   8.393   1.998   8.229 -0.4444 -2.3247  2.4302
  592MOL0     H79890   8.174   2.163   8.354 -3.3883 -1.3744  2.6298
  592MOL0     H79891   8.199   1.992   8.366  3.5536  1.3016  1.1376
  592MOL0     H79892   8.159   2.138   8.093 -2.3475  0.2849 -0.3143
  592MOL0     H79893   8.028   2.040   8.173 -0.2006 -1.1711  0.3866
  592MOL0     H79894   8.132   1.897   8.004 -1.3488 -0.8256  0.2569
  592MOL0     H79895   8.289   1.943   8.051 -0.8084 -1.4767 -1.5591
  592MOL0     H79896   8.081   1.775   8.214  0.6083 -1.4495  0.2350
  592MOL0     H79897   8.236   1.807   8.281  0.5880 -2.1816  0.4255
  592MOL0     H79898   8.176   1.635   8.027  1.3374 -3.1120 -0.3636
  592MOL0     H79899   8.335   1.691   8.070  0.2115 -0.4071  1.1284
  592MOL0     H79900   8.488   1.669   8.500  0.3910 -0.0549 -1.4932
  592MOL0     H79901   8.648   1.498   8.538  2.4799 -0.9422  0.4485
  592MOL0     H79902   8.919   1.374   8.923  2.1351  3.3370 -1.0386
  592MOL0     H79903   9.089   1.214   9.002 -2.4021  0.6047  0.1263
  592MOL0     H79904  10.895   0.577   8.719  0.5970 -1.6031  1.5234
  592MOL0     H79905  11.075   0.551   8.832 -2.4064 -0.0374 -1.1040
  592MOL0     H79906  11.531   0.729   8.848  1.4227  0.4221 -0.3827
  592MOL0     H79907  11.747   0.704   8.878  5.3768  0.4832  3.6493
  592MOL0     H79908  11.944   0.737   9.007 -0.2130 -0.6597 -0.5914
  592MOL0     H79909  11.942   0.594   8.900 -1.6697 -3.6972  0.8322
  592MOL0     H79910  12.098   0.602   9.155 -0.6248 -0.9497 -0.1446
  592MOL0     H79911  12.173   0.675   9.013  0.9135 -0.1807  1.6075
  592MOL0     H79912  12.101   0.422   8.912 -3.1267 -2.6356  1.6123
  592MOL0     H79913  12.087   0.389   9.078  0.1440 -0.7917 -0.9945
  592MOL0     H79914  12.298   0.335   9.014 -1.6249 -0.5982  2.4577
  592MOL0     H79915  12.341   0.478   8.930  0.0755 -1.3840  0.0049
  592MOL0     H79916  12.445   0.597   9.329 -1.2642  1.7806 -0.0109
  592MOL0     H79917  11.662   0.456   9.217 -2.7789  0.5207  0.7710
  592MOL0     H79918  11.351   0.512   9.273 -0.3818  0.8611 -1.0015
  592MOL0     H79919  11.345   0.381   9.150 -1.9569  0.5212  1.5609
  592MOL0     H79920  11.476   0.395   9.280  0.9579 -0.2962 -0.0276
  593MOL0     O79921   9.839  11.413   7.274 -0.3968 -0.4126 -0.1382
  593MOL0     C79922   9.859  11.527   7.255  0.3883 -1.0623  0.3019
  593MOL0     O79923   9.972  11.591   7.227 -0.5286  0.5039 -0.2792
  593MOL0     C79924  10.084  11.517   7.184 -0.8273 -1.3564 -0.9438
  593MOL0     C79925  10.087  11.390   7.141  0.0701  0.3829  0.4781
  593MOL0     C79926  10.211  11.344   7.098 -0.2346 -0.0222  0.7248
  593MOL0     C79927  10.330  11.408   7.112  0.0469 -0.4537  0.5220
  593MOL0     O79928  10.440  11.346   7.063 -0.4365  0.9896 -0.6467
  593MOL0     C79929  10.552  11.340   7.155 -0.1115 -0.0214  0.1962
  593MOL0     C79930  10.675  11.325   7.069 -0.3321  0.0149  0.7418
  593MOL0     C79931  10.689  11.427   6.959 -0.0111  0.0707  0.7555
  593MOL0     C79932  10.680  11.563   7.015 -0.4088 -0.0764 -0.2892
  593MOL0     C79933  10.737  11.669   6.913 -0.6712  1.0150 -0.3680
  593MOL0     C79934  10.653  11.675   6.783 -0.1227  0.5224  0.5099
  593MOL0     C79935  10.509  11.734   6.796 -0.6602  0.4166 -0.4710
  593MOL0     C79936  10.420  11.711   6.677  0.8142 -0.0038 -0.4804
  593MOL0     N79937  10.402  11.562   6.645 -0.8307  0.9420 -0.3278
  593MOL0     C79938  10.387  11.460   6.738 -0.0510 -0.7084 -0.1063
  593MOL0     C79939  10.406  11.352   6.662 -0.1873 -0.2430 -1.4111
  593MOL0     C79940  10.413  11.217   6.730 -0.8482  0.4762 -0.7919
  593MOL0     C79941  10.392  11.099   6.641  1.4387 -0.2639 -0.4073
  593MOL0     C79942  10.397  10.972   6.722  0.3500 -0.0932  0.0259
  593MOL0     C79943  10.338  10.850   6.645 -0.2079 -0.5963 -0.0824
  593MOL0     O79944  10.195  10.850   6.646 -0.0020 -0.2854  0.2597
  593MOL0     C79945  10.127  10.749   6.581 -0.4996 -0.2644  1.1245
  593MOL0     C79946   9.989  10.742   6.594 -0.4944 -1.3781 -0.7506
  593MOL0     C79947   9.929  10.633   6.545  0.5339 -0.0076 -0.6746
  593MOL0     C79948   9.991  10.530   6.484 -0.6297 -0.2365 -0.1935
  593MOL0     C79949   9.911  10.413   6.450 -0.1647 -0.4906  0.4142
  593MOL0     O79950   9.781  10.425   6.428  0.3431  0.2958  0.4152
  593MOL0     C79951   9.701  10.319   6.378 -0.6811 -0.4149  0.0076
  593MOL0     C79952   9.617  10.328   6.262  0.2420 -0.3548  0.0262
  593MOL0     C79953   9.550  10.217   6.224 -0.4000  0.3246  1.1212
  593MOL0     C79954   9.566  10.089   6.281 -0.3126 -0.2343  0.8695
  593MOL0     O79955   9.506   9.980   6.209  0.1002 -0.7303  0.5586
  593MOL0     C79956   9.524   9.852   6.259 -0.0705  0.2241  0.2240
  593MOL0     C79957   9.428   9.762   6.175  0.7273  0.1234  1.0454
  593MOL0     C79958   9.438   9.622   6.212  0.5103 -1.4998 -0.0038
  593MOL0     C79959   9.338   9.539   6.122 -0.3140  0.3413 -1.0279
  593MOL0     C79960   9.347   9.392   6.149 -0.5483 -0.1558 -0.5133
  593MOL0     C79961   9.473   9.342   6.079 -0.0575 -0.1023  0.4780
  593MOL0     C79962   9.459   9.189   6.064  0.3418 -0.1763 -0.3566
  593MOL0     C79963   9.566   9.123   5.977 -0.2298 -0.2498  0.3601
  593MOL0    Cl79964   9.741   9.159   6.043  0.1449  0.0780  0.3803
  593MOL0     C79965   9.644  10.079   6.396  0.1062  0.1459 -0.0705
  593MOL0     C79966   9.708  10.198   6.443  0.2715  0.3051  1.1013
  593MOL0     O79967   9.976  10.310   6.435  0.2157 -0.3316  0.1316
  593MOL0     C79968  10.134  10.532   6.454  0.6412 -1.2714 -0.2837
  593MOL0     C79969  10.194  10.648   6.501  0.3420  0.3790 -1.0170
  593MOL0     N79970  10.417  11.387   6.531  0.9309 -0.4783  0.7469
  593MOL0     N79971  10.430  11.514   6.522  0.2863 -0.1849 -0.5940
  593MOL0     C79972  10.318  11.540   7.172 -0.3956 -0.0823  0.0952
  593MOL0     C79973  10.199  11.585   7.209  0.3645 -0.8541  0.4933
  593MOL0     C79974   9.738  11.618   7.278  0.0152 -0.1850  0.0657
  593MOL0     C79975   9.760  11.758   7.274  0.1775 -0.5348  0.3643
  593MOL0     C79976   9.663  11.846   7.277  0.5801 -0.4969 -0.2910
  593MOL0     C79977   9.526  11.795   7.293 -0.5121  0.2716  0.3591
  593MOL0     O79978   9.424  11.880   7.312  0.8162  0.2728 -0.0963
  593MOL0     C79979   9.390  11.949   7.196 -0.7742 -0.2433  0.6403
  593MOL0     C79980   9.283  12.054   7.233 -0.2302  1.2076  1.1755
  593MOL0     C79981   9.149  12.016   7.298  0.3523 -0.1321 -0.7133
  593MOL0     C79982   9.086  11.891   7.226  0.1613 -0.1927  0.6116
  593MOL0     C79983   8.946  11.889   7.265 -0.2371 -0.7405  0.3470
  593MOL0     C79984   8.833  11.877   7.295  0.1572  0.6461  0.0827
  593MOL0     C79985   9.502  11.664   7.317 -0.6925  0.7641 -0.3540
  593MOL0     C79986   9.609  11.576   7.306  0.4562 -0.3831  0.0117
  593MOL0     C79987   9.573  11.434   7.347  0.2082  0.4145 -0.4682
  593MOL0     H79988   9.999  11.330   7.120  1.1515 -1.1641  0.1521
  593MOL0     H79989  10.220  11.249   7.047 -0.8759 -0.1384  0.8165
  593MOL0     H79990  10.565  11.434   7.210  2.9732  2.4437 -4.1658
  593MOL0     H79991  10.535  11.255   7.222 -0.5180 -1.0123 -1.1361
  593MOL0     H79992  10.654  11.232   7.015 -0.9368 -0.2048  1.3365
  593MOL0     H79993  10.771  11.325   7.122 -0.9254  3.3245  1.9838
  593MOL0     H79994  10.611  11.415   6.884  1.2469  0.4871 -0.6620
  593MOL0     H79995  10.780  11.402   6.903  0.2641 -0.7570  1.5487
  593MOL0     H79996  10.581  11.592   7.050 -0.5092  2.4771 -2.3659
  593MOL0     H79997  10.748  11.560   7.101  0.6218  0.9104 -1.0384
  593MOL0     H79998  10.759  11.768   6.954  2.0696  0.1990  0.3600
  593MOL0     H79999  10.837  11.636   6.883 -1.7587 -2.5994 -0.6013
  593MOL0     H80000  10.691  11.747   6.709 -0.2208  1.2225  1.1270
  593MOL0     H80001  10.660  11.584   6.723 -2.3859  1.6556 -1.6817
  593MOL0     H80002  10.516  11.843   6.791 -1.6638  0.4708 -1.0655
  593MOL0     H80003  10.461  11.696   6.886  0.6215  1.0850  0.5287
  593MOL0     H80004  10.318  11.743   6.699  1.1048  0.1611  0.6909
  593MOL0     H80005  10.451  11.761   6.584 -0.1713 -0.5183 -1.1101
  593MOL0     H80006  10.392  11.456   6.846  1.4468 -3.7859 -0.1730
  593MOL0     H80007  10.507  11.216   6.787 -2.1112  1.0838  1.4485
  593MOL0     H80008  10.327  11.228   6.797  0.2049  0.5516  0.5972
  593MOL0     H80009  10.291  11.102   6.599  0.3517 -1.0021  1.9669
  593MOL0     H80010  10.447  11.099   6.546 -0.0389  4.8399 -1.5624
  593MOL0     H80011  10.345  10.979   6.818 -1.5231  1.0227 -1.0057
  593MOL0     H80012  10.501  10.945   6.741  0.8697  0.6686 -1.4922
  593MOL0     H80013  10.362  10.756   6.696 -2.3106 -1.1204  0.0105
  593MOL0     H80014  10.376  10.851   6.543 -1.8882  2.0690 -0.8016
  593MOL0     H80015   9.947  10.820   6.658  4.0576  1.9577 -1.3506
  593MOL0     H80016   9.821  10.633   6.546  0.4536 -2.4307  0.8959
  593MOL0     H80017   9.597  10.426   6.222  0.2965  0.3168  1.5712
  593MOL0     H80018   9.474  10.212   6.147 -0.3503 -1.2471  1.1243
  593MOL0     H80019   9.629   9.820   6.260  0.5027  1.8792  2.6140
  593MOL0     H80020   9.485   9.847   6.362  2.4478 -3.5323  1.2008
  593MOL0     H80021   9.330   9.805   6.201  1.2362  1.8675  0.2556
  593MOL0     H80022   9.441   9.761   6.066 -1.0635  0.2381  0.7968
  593MOL0     H80023   9.542   9.588   6.214  0.8435 -0.4818  0.5995
  593MOL0     H80024   9.409   9.615   6.317  1.9187 -0.8170  0.4606
  593MOL0     H80025   9.351   9.564   6.017 -1.7915 -0.8240 -1.5427
  593MOL0     H80026   9.235   9.561   6.153 -0.3068 -0.5181 -0.3605
  593MOL0     H80027   9.262   9.333   6.111  0.7142 -1.3515 -1.5969
  593MOL0     H80028   9.360   9.376   6.257 -0.9199  1.9773 -0.1206
  593MOL0     H80029   9.492   9.394   5.985  0.7777  1.6569  1.5480
  593MOL0     H80030   9.552   9.367   6.151  1.1151  2.4706 -1.5283
  593MOL0     H80031   9.358   9.166   6.029  0.0375 -1.6918  1.3913
  593MOL0     H80032   9.462   9.132   6.157 -0.1854 -0.7140 -0.6605
  593MOL0     H80033   9.550   9.015   5.983 -1.1845 -0.1331  0.0057
  593MOL0     H80034   9.569   9.157   5.873 -1.4555  0.0957  0.4161
  593MOL0     H80035   9.661   9.979   6.433 -1.0854 -0.3215 -0.7192
  593MOL0     H80036   9.766  10.179   6.533 -0.7300  0.3392  1.7785
  593MOL0     H80037  10.180  10.460   6.387  0.5312 -1.5837 -0.0263
  593MOL0     H80038  10.300  10.653   6.479  0.4919 -1.7211 -0.9619
  593MOL0     H80039  10.402  11.609   7.174  1.3301 -1.7066 -4.3234
  593MOL0     H80040  10.173  11.680   7.255  0.4327 -0.5712 -0.0444
  593MOL0     H80041   9.861  11.796   7.270  0.5248 -1.4909 -0.3676
  593MOL0     H80042   9.677  11.952   7.255  2.5605 -0.5847  0.3339
  593MOL0     H80043   9.362  11.885   7.112 -0.4000  0.2791  0.1124
  593MOL0     H80044   9.470  12.013   7.158 -0.1183 -0.4166  1.6964
  593MOL0     H80045   9.263  12.111   7.142  2.3106 -0.0683 -0.2832
  593MOL0     H80046   9.337  12.121   7.300  2.9925  2.7074 -2.5276
  593MOL0     H80047   9.075  12.097   7.296  1.4288  0.9359  0.5328
  593MOL0     H80048   9.162  11.971   7.397  0.6047 -0.5116 -0.9146
  593MOL0     H80049   9.103  11.892   7.117  4.4906 -0.1544  1.1155
  593MOL0     H80050   9.129  11.797   7.264  0.5239 -1.0181 -1.6632
  593MOL0     H80051   8.736  11.862   7.338  1.4763 -0.7467  2.8612
  593MOL0     H80052   9.399  11.633   7.329 -0.1392 -0.8148  0.7732
  593MOL0     H80053   9.618  11.354   7.287 -0.5490 -2.6331  2.7520
  593MOL0     H80054   9.595  11.407   7.450  0.1025 -1.1119 -0.8185
  593MOL0     H80055   9.465  11.419   7.336 -0.2643 -0.2445  3.6257
  594MOL0     O80056   9.930   5.250   4.174 -0.6621 -0.3424  0.8715
  594MOL0     C80057   9.934   5.167   4.082 -0.8129  0.0003 -0.4948
  594MOL0     O80058  10.040   5.153   3.998 -0.8188 -0.2145 -0.2279
  594MOL0     C80059  10.121   5.264   3.972  0.3723 -0.3162 -0.3380
  594MOL0     C80060  10.247   5.230   3.926 -1.5176  0.2076 -0.3875
  594MOL0     C80061  10.338   5.332   3.892  0.7605 -0.3550 -0.7191
  594MOL0     C80062  10.304   5.467   3.911 -0.5281 -0.1916  0.5773
  594MOL0     O80063  10.402   5.558   3.885  0.6573 -0.8789 -0.4130
  594MOL0     C80064  10.455   5.625   4.007 -0.1457  0.5716 -0.2528
  594MOL0     C80065  10.574   5.542   4.055 -0.1057  0.7878  0.1327
  594MOL0     C80066  10.691   5.555   3.953 -0.8311 -0.5013 -0.1437
  594MOL0     C80067  10.821   5.486   3.995 -1.0806 -0.0331  0.4140
  594MOL0     C80068  10.888   5.545   4.121 -0.1900  1.3468  0.1222
  594MOL0     C80069  10.932   5.690   4.115  1.0468  0.0562  0.2907
  594MOL0     C80070  11.043   5.735   4.198  0.5373 -0.1936  0.1503
  594MOL0     C80071  11.012   5.725   4.350 -0.4118 -0.2155  0.1124
  594MOL0     N80072  11.133   5.749   4.433  0.1325 -0.6988  1.1121
  594MOL0     C80073  11.214   5.866   4.425  0.4344 -0.6246  0.3069
  594MOL0     C80074  11.311   5.853   4.512 -0.0580 -0.2490  0.2612
  594MOL0     C80075  11.431   5.945   4.539 -0.2632  0.7248  0.0465
  594MOL0     C80076  11.556   5.866   4.570 -0.3510 -0.2174  0.4112
  594MOL0     C80077  11.676   5.965   4.588 -0.3028  0.1303 -1.1999
  594MOL0     C80078  11.806   5.892   4.623 -0.5659 -0.0588  0.5308
  594MOL0     O80079  11.921   5.975   4.605  0.2871 -0.5951 -0.2352
  594MOL0     C80080  11.925   6.092   4.679 -0.1980 -0.0193  0.6780
  594MOL0     C80081  11.907   6.213   4.611  1.2089 -0.2329  0.1211
  594MOL0     C80082  11.928   6.330   4.675  0.4086 -0.7313 -0.0434
  594MOL0     C80083  11.954   6.343   4.810  1.0786 -0.1170  0.5529
  594MOL0     C80084  11.966   6.472   4.882 -1.5065  0.4113 -0.6602
  594MOL0     O80085  11.958   6.479   5.019 -0.0964 -0.3228  0.4105
  594MOL0     C80086  11.970   6.596   5.087 -0.4063  0.0826  0.6783
  594MOL0     C80087  11.874   6.692   5.084  0.1129  0.0106 -0.0974
  594MOL0     C80088  11.890   6.799   5.173  0.1597  0.2815  0.5778
  594MOL0     C80089  12.003   6.813   5.252  0.8699 -0.5897 -0.4856
  594MOL0     O80090  11.994   6.924   5.334  0.1126  0.4965 -0.0749
  594MOL0     C80091  12.096   6.927   5.436 -0.6241 -0.3764  0.3479
  594MOL0     C80092  12.058   7.045   5.518  0.2902 -0.5468  0.1581
  594MOL0     C80093  12.120   7.067   5.653 -0.0223  1.2199  0.1659
  594MOL0     C80094  12.102   6.947   5.757 -0.3667  0.2144  1.2875
  594MOL0     C80095  12.221   6.955   5.855 -0.0110 -0.2065  0.6329
  594MOL0     C80096  12.214   6.821   5.941  0.2361  0.4706 -0.5325
  594MOL0     C80097  12.321   6.826   6.041 -0.0467 -0.0077 -0.6348
  594MOL0     C80098  12.351   6.687   6.107  0.5911 -0.5725 -0.3999
  594MOL0    Cl80099  12.489   6.736   6.219  0.5730 -0.1508 -0.1296
  594MOL0     C80100  12.103   6.723   5.243 -0.3266  0.3110 -0.3118
  594MOL0     C80101  12.090   6.609   5.160  0.3838  0.1772  0.4821
  594MOL0     O80102  11.965   6.575   4.809 -0.7103 -0.0565 -0.9556
  594MOL0     C80103  11.966   6.220   4.872 -0.3872  0.4833 -0.1583
  594MOL0     C80104  11.952   6.099   4.811 -0.5405  0.6273  0.2242
  594MOL0     N80105  11.302   5.720   4.569  1.2774 -0.0124  0.5751
  594MOL0     N80106  11.199   5.663   4.524  0.0510  0.6297  0.0996
  594MOL0     C80107  10.176   5.500   3.957 -0.5980  0.2832  0.3939
  594MOL0     C80108  10.084   5.399   3.990 -0.5988 -0.6192 -0.7082
  594MOL0     C80109   9.838   5.057   4.078  1.4456  0.8906 -0.4731
  594MOL0     C80110   9.806   4.994   3.959 -0.0927  0.8520  0.0590
  594MOL0     C80111   9.715   4.886   3.941 -0.4008 -0.5828  0.9248
  594MOL0     C80112   9.641   4.843   4.065 -0.6031  0.4320  0.2942
  594MOL0     O80113   9.559   4.725   4.076 -0.4131  0.3133  0.6904
  594MOL0     C80114   9.526   4.657   3.955  0.7506  0.0515  0.6561
  594MOL0     C80115   9.408   4.556   3.990  0.3980  0.7296 -0.1510
  594MOL0     C80116   9.472   4.438   4.075  0.9263  0.1072  0.5780
  594MOL0     C80117   9.381   4.312   4.065  0.7203  0.5752  0.0826
  594MOL0     C80118   9.380   4.218   4.180 -1.0154  0.6647  0.6191
  594MOL0     C80119   9.374   4.147   4.277 -0.0625  0.1183  0.2633
  594MOL0     C80120   9.659   4.918   4.178 -0.3736  0.2105 -0.0246
  594MOL0     C80121   9.762   5.015   4.188 -0.7716 -0.2451  0.9282
  594MOL0     C80122   9.775   5.074   4.323 -0.3236 -0.1774  0.4305
  594MOL0     H80123  10.267   5.125   3.905 -2.6738  0.7630 -5.5531
  594MOL0     H80124  10.422   5.315   3.826  2.8276  2.9898  0.7485
  594MOL0     H80125  10.482   5.730   3.994 -1.7039  0.8138 -2.0186
  594MOL0     H80126  10.374   5.628   4.081 -0.9233 -0.9061 -0.9961
  594MOL0     H80127  10.549   5.437   4.074 -0.9828  0.9161 -0.2392
  594MOL0     H80128  10.609   5.591   4.146  2.4623  1.0654 -0.9291
  594MOL0     H80129  10.716   5.659   3.931  1.0686 -1.3831 -2.6830
  594MOL0     H80130  10.657   5.512   3.858  0.3930  0.6186 -1.1176
  594MOL0     H80131  10.803   5.381   4.021  1.3878  0.0506  2.9590
  594MOL0     H80132  10.902   5.492   3.921  0.3152  2.1502  2.0200
  594MOL0     H80133  10.830   5.527   4.212 -1.4966 -1.4094 -1.1569
  594MOL0     H80134  10.975   5.489   4.156  0.0694  1.0673 -0.9361
  594MOL0     H80135  10.958   5.711   4.011  0.5492 -1.9013 -0.2658
  594MOL0     H80136  10.848   5.759   4.128  1.4288  0.7716 -0.9229
  594MOL0     H80137  11.052   5.839   4.163 -0.6587 -0.4603 -1.0555
  594MOL0     H80138  11.137   5.680   4.189  0.2258 -0.6486 -0.3567
  594MOL0     H80139  10.936   5.798   4.378 -1.3656 -0.3239 -2.0500
  594MOL0     H80140  10.982   5.627   4.387  3.8395 -1.1232  1.7518
  594MOL0     H80141  11.200   5.951   4.359 -0.4849 -0.8338  0.2122
  594MOL0     H80142  11.456   6.000   4.448 -1.5925  0.2237 -0.6521
  594MOL0     H80143  11.404   6.010   4.622 -1.1157  2.8607 -1.8179
  594MOL0     H80144  11.545   5.797   4.654  0.2349 -0.3163  0.4164
  594MOL0     H80145  11.574   5.808   4.479  1.5385  1.2233 -0.2159
  594MOL0     H80146  11.662   6.037   4.669  2.1026 -2.1915  1.4534
  594MOL0     H80147  11.685   6.019   4.493 -0.9860  2.3271 -0.0906
  594MOL0     H80148  11.819   5.817   4.545  0.3018  2.2742 -1.6800
  594MOL0     H80149  11.797   5.858   4.727 -2.6969  1.1770  0.8061
  594MOL0     H80150  11.903   6.229   4.503  1.1080  3.5326  0.5323
  594MOL0     H80151  11.915   6.419   4.615 -2.3002 -1.0061  0.0050
  594MOL0     H80152  11.780   6.672   5.035 -0.6369  0.8259  0.9691
  594MOL0     H80153  11.818   6.881   5.175 -0.2325 -0.0095 -0.8046
  594MOL0     H80154  12.115   6.831   5.486  1.5439 -0.0629  0.2548
  594MOL0     H80155  12.191   6.950   5.386 -1.4606  1.5614 -0.4237
  594MOL0     H80156  12.100   7.125   5.456 -2.6036  0.8612 -0.1152
  594MOL0     H80157  11.950   7.056   5.524  0.4541  1.9302 -0.3749
  594MOL0     H80158  12.227   7.087   5.642 -0.1597  2.8903  1.4214
  594MOL0     H80159  12.075   7.158   5.694 -0.3161  0.0943  2.4916
  594MOL0     H80160  12.117   6.851   5.706  0.1478  1.4957 -1.1333
  594MOL0     H80161  12.009   6.946   5.814  1.0901  0.9974  3.8613
  594MOL0     H80162  12.214   7.048   5.911 -2.2743 -1.2033  2.1572
  594MOL0     H80163  12.313   6.956   5.795 -0.7900  0.7537 -0.5990
  594MOL0     H80164  12.123   6.809   6.001  1.1540  3.5633  1.7727
  594MOL0     H80165  12.225   6.731   5.881  2.0397 -0.6162  1.3062
  594MOL0     H80166  12.296   6.903   6.115  1.3363  1.0914 -1.2766
  594MOL0     H80167  12.414   6.867   6.003 -0.3864  0.9903 -0.4269
  594MOL0     H80168  12.264   6.644   6.159  1.5615  0.7934  2.5503
  594MOL0     H80169  12.380   6.620   6.025 -0.3325 -0.9566 -0.4374
  594MOL0     H80170  12.201   6.742   5.287  0.5712  1.6387 -2.6772
  594MOL0     H80171  12.165   6.531   5.151 -0.5928 -0.5759 -1.9320
  594MOL0     H80172  11.979   6.230   4.979  1.0140 -2.0526 -0.0146
  594MOL0     H80173  11.951   6.008   4.870 -0.9875  1.1801  1.0854
  594MOL0     H80174  10.136   5.601   3.964 -2.9015 -0.4677 -0.7800
  594MOL0     H80175   9.989   5.431   4.030  0.6505 -1.6113  3.6684
  594MOL0     H80176   9.848   5.032   3.867  0.1048 -2.2563 -1.2533
  594MOL0     H80177   9.708   4.844   3.841 -0.6129  2.1828 -0.3153
  594MOL0     H80178   9.613   4.599   3.924 -1.2179 -3.1677  0.6758
  594MOL0     H80179   9.495   4.710   3.864 -1.1327 -1.6872  0.1933
  594MOL0     H80180   9.376   4.517   3.893  0.8002 -2.3067  0.8359
  594MOL0     H80181   9.320   4.596   4.041 -3.5827 -5.0178 -1.5070
  594MOL0     H80182   9.486   4.464   4.180  0.3698  2.1761  0.1918
  594MOL0     H80183   9.569   4.404   4.037 -0.2249 -2.1567 -0.5780
  594MOL0     H80184   9.282   4.344   4.030  2.1901  3.1806 -2.0589
  594MOL0     H80185   9.413   4.250   3.981 -0.8800 -1.2855  0.7800
  594MOL0     H80186   9.368   4.097   4.372  2.3234  0.2561  0.5360
  594MOL0     H80187   9.593   4.882   4.256 -0.2393  0.3716  0.1624
  594MOL0     H80188   9.718   5.009   4.390  0.0066 -2.3859 -1.3221
  594MOL0     H80189   9.877   5.055   4.358 -0.8730 -2.7532  0.8857
  594MOL0     H80190   9.744   5.179   4.325 -0.8570 -0.3483  1.4575
  595MOL0     O80191   2.037   5.108   1.979  0.3228 -0.6204  0.9485
  595MOL0     C80192   2.062   5.185   2.070 -0.5006 -0.6175  0.1660
  595MOL0     O80193   2.140   5.292   2.066 -0.3419  0.0737 -0.8026
  595MOL0     C80194   2.255   5.314   1.989 -0.3337  0.3462 -0.2764
  595MOL0     C80195   2.327   5.432   2.001 -0.3340  0.1972  0.2300
  595MOL0     C80196   2.444   5.468   1.931 -0.4054  0.1890  0.3317
  595MOL0     C80197   2.494   5.379   1.842  0.1491 -0.2593  0.6409
  595MOL0     O80198   2.610   5.395   1.773 -0.1260 -0.2016  0.6545
  595MOL0     C80199   2.619   5.342   1.641  0.0215 -0.2103  0.2606
  595MOL0     C80200   2.740   5.410   1.581 -0.7446  0.5555  0.7684
  595MOL0     C80201   2.865   5.376   1.670 -0.6155 -0.8118 -0.7179
  595MOL0     C80202   2.983   5.451   1.623 -0.3761 -0.3698 -0.1158
  595MOL0     C80203   3.112   5.431   1.704  0.1028  0.1164 -0.4501
  595MOL0     C80204   3.162   5.290   1.715 -1.1499  1.1430 -0.5017
  595MOL0     C80205   3.300   5.277   1.785 -0.5160 -0.4283 -0.0376
  595MOL0     C80206   3.359   5.133   1.782 -0.4031  0.8476 -0.1690
  595MOL0     N80207   3.332   5.057   1.658 -0.0561 -0.6786 -0.5376
  595MOL0     C80208   3.426   5.067   1.553  0.5009  0.7525 -0.7388
  595MOL0     C80209   3.381   4.980   1.462  0.2917 -0.8481 -0.1593
  595MOL0     C80210   3.456   4.930   1.342  0.1102 -0.2650 -0.2742
  595MOL0     C80211   3.503   4.786   1.362 -0.0068  0.0558  0.1044
  595MOL0     C80212   3.561   4.740   1.220 -0.8864  0.6590 -0.1565
  595MOL0     C80213   3.692   4.676   1.236  0.3092 -0.3074 -0.4554
  595MOL0     O80214   3.791   4.773   1.270 -0.8636 -0.3597 -0.2475
  595MOL0     C80215   3.920   4.765   1.226 -1.3111 -0.2656  0.1248
  595MOL0     C80216   3.981   4.894   1.248  0.2372  0.2509  0.2417
  595MOL0     C80217   4.118   4.915   1.200  0.4042  0.3570 -0.1337
  595MOL0     C80218   4.181   4.806   1.144  0.4715  0.1025 -0.1703
  595MOL0     C80219   4.324   4.823   1.098  0.7371 -0.2784 -1.4622
  595MOL0     O80220   4.399   4.917   1.160  0.3901  0.3354 -0.4634
  595MOL0     C80221   4.537   4.911   1.150 -0.4768 -0.6912  0.2700
  595MOL0     C80222   4.605   5.029   1.108  0.3235 -0.1090  1.1493
  595MOL0     C80223   4.732   5.031   1.068  0.0798  0.2566 -0.0587
  595MOL0     C80224   4.816   4.929   1.095  0.2026  0.5327 -0.0974
  595MOL0     O80225   4.946   4.947   1.070 -0.1042  0.2215 -0.8820
  595MOL0     C80226   5.037   4.907   1.171  0.0098 -0.2844 -0.2379
  595MOL0     C80227   5.095   5.030   1.249 -0.0666 -0.1845  0.1204
  595MOL0     C80228   5.162   4.979   1.381 -0.1698  0.3618 -0.5053
  595MOL0     C80229   5.279   5.068   1.424 -0.6788 -0.0681 -0.4252
  595MOL0     C80230   5.343   5.035   1.566 -0.1949 -0.0261  0.5061
  595MOL0     C80231   5.433   5.147   1.609 -0.2165 -0.4121 -0.3176
  595MOL0     C80232   5.570   5.132   1.542 -0.2131 -0.5902  0.4068
  595MOL0     C80233   5.666   5.093   1.654 -0.2392 -0.4147  0.3459
  595MOL0    Cl80234   5.818   5.057   1.584  0.4330  0.3915 -0.1377
  595MOL0     C80235   4.753   4.807   1.129  0.1776 -0.2421  0.3831
  595MOL0     C80236   4.617   4.797   1.168 -0.3401 -1.1348 -0.0583
  595MOL0     O80237   4.365   4.757   1.006 -0.2186  0.2620  0.5001
  595MOL0     C80238   4.113   4.684   1.126  0.1278  0.8400 -0.4517
  595MOL0     C80239   3.980   4.665   1.160  0.4384  0.0828  1.3819
  595MOL0     N80240   3.256   4.932   1.505 -0.7866  0.1355 -0.9667
  595MOL0     N80241   3.236   4.968   1.634 -0.2706 -0.6786  0.7873
  595MOL0     C80242   2.421   5.261   1.817 -0.2918 -1.6451  0.2601
  595MOL0     C80243   2.308   5.235   1.889  0.9877  0.1155 -1.1046
  595MOL0     C80244   1.990   5.178   2.197  0.0003  0.5603  0.2285
  595MOL0     C80245   2.053   5.222   2.313  0.6224  0.1112  0.3535
  595MOL0     C80246   2.010   5.198   2.448 -0.1727 -0.0892  0.8807
  595MOL0     C80247   1.885   5.135   2.461  0.1770 -0.6521  0.2649
  595MOL0     O80248   1.841   5.113   2.585  0.4306  0.4747  0.8780
  595MOL0     C80249   1.918   5.099   2.699 -0.2680 -0.8736  0.1618
  595MOL0     C80250   1.826   5.046   2.811  0.3122 -0.1918 -0.3891
  595MOL0     C80251   1.720   4.942   2.765  0.2296  0.4737 -0.1944
  595MOL0     C80252   1.779   4.810   2.703 -0.0862 -0.8220 -0.7970
  595MOL0     C80253   1.674   4.708   2.679 -0.4213 -0.5209 -0.3966
  595MOL0     C80254   1.576   4.639   2.676  0.0486  0.0993  0.3917
  595MOL0     C80255   1.825   5.083   2.347 -0.1741  0.1598 -0.0873
  595MOL0     C80256   1.871   5.100   2.214 -0.6999 -0.0284  0.1341
  595MOL0     C80257   1.797   5.041   2.098 -0.4359 -0.2221 -0.2403
  595MOL0     H80258   2.289   5.501   2.076  2.5509 -0.8281  2.8404
  595MOL0     H80259   2.483   5.567   1.952 -1.0001  1.1215 -2.4982
  595MOL0     H80260   2.629   5.233   1.645  2.0784 -0.0878 -0.3226
  595MOL0     H80261   2.539   5.378   1.576  1.8799  3.6536 -0.1433
  595MOL0     H80262   2.732   5.519   1.587  2.4659  0.7981  2.2996
  595MOL0     H80263   2.752   5.388   1.475  1.2300  0.8116  0.9113
  595MOL0     H80264   2.899   5.273   1.655  2.0718  0.0957 -1.5112
  595MOL0     H80265   2.854   5.403   1.775  2.1015  2.6787 -1.1408
  595MOL0     H80266   3.001   5.428   1.517 -0.1180  0.7502 -0.3322
  595MOL0     H80267   2.960   5.558   1.620 -0.2428 -0.3508 -0.5860
  595MOL0     H80268   3.193   5.489   1.658  0.5839  2.7439  3.2409
  595MOL0     H80269   3.106   5.476   1.804  1.9888  0.0713 -0.2639
  595MOL0     H80270   3.092   5.222   1.763 -1.0988 -0.2185 -2.2591
  595MOL0     H80271   3.162   5.252   1.612  0.2277  1.6551 -0.7181
  595MOL0     H80272   3.302   5.321   1.885  0.4371 -1.3473  0.3674
  595MOL0     H80273   3.365   5.341   1.724 -3.2658 -1.5367 -4.6323
  595MOL0     H80274   3.467   5.139   1.800  0.1128  0.1408 -2.6580
  595MOL0     H80275   3.318   5.073   1.865 -0.1526 -3.6096 -2.9068
  595MOL0     H80276   3.524   5.113   1.552  1.3818 -1.0300 -0.1956
  595MOL0     H80277   3.404   4.946   1.248  3.7330  1.1450 -2.2499
  595MOL0     H80278   3.542   4.996   1.324 -0.3650  0.3573 -0.3253
  595MOL0     H80279   3.577   4.778   1.443 -2.5831 -0.7256  2.5235
  595MOL0     H80280   3.418   4.723   1.388  0.7484 -0.5914  1.0542
  595MOL0     H80281   3.567   4.818   1.144  0.1355  1.1290  0.3818
  595MOL0     H80282   3.493   4.664   1.181  0.3116 -1.1765  1.1508
  595MOL0     H80283   3.711   4.638   1.135 -1.8027  1.6019 -1.6723
  595MOL0     H80284   3.691   4.590   1.303  1.3670 -0.2093 -0.3034
  595MOL0     H80285   3.920   4.968   1.299 -0.2090 -0.2057  0.3723
  595MOL0     H80286   4.166   5.011   1.217  0.4704  0.3693 -0.3982
  595MOL0     H80287   4.556   5.126   1.109  3.8899  1.9191  4.3802
  595MOL0     H80288   4.770   5.118   1.016 -0.4416 -0.3504 -1.5034
  595MOL0     H80289   4.986   4.841   1.242 -1.4334  0.6955 -0.2991
  595MOL0     H80290   5.117   4.850   1.124  0.6995 -1.4839  2.2322
  595MOL0     H80291   5.159   5.095   1.190  2.1013  1.3725  3.8513
  595MOL0     H80292   5.007   5.090   1.275 -0.5272 -0.7117 -0.1823
  595MOL0     H80293   5.094   4.965   1.465  1.6683 -0.8632  0.8527
  595MOL0     H80294   5.198   4.876   1.371  1.3883  0.6163  1.7987
  595MOL0     H80295   5.244   5.172   1.428  1.9748  0.9050 -0.4260
  595MOL0     H80296   5.349   5.063   1.340  0.5843  1.1078  0.5078
  595MOL0     H80297   5.393   4.938   1.561  0.4788  0.2570  1.4944
  595MOL0     H80298   5.266   5.030   1.644  1.5086  0.7538  2.3075
  595MOL0     H80299   5.395   5.248   1.589  2.2566  0.6609  0.0135
  595MOL0     H80300   5.442   5.132   1.716  1.5062  0.6853 -0.2720
  595MOL0     H80301   5.613   5.229   1.514 -0.2519 -1.1331 -1.6824
  595MOL0     H80302   5.575   5.050   1.470 -1.8355 -5.2487  5.0032
  595MOL0     H80303   5.670   5.170   1.732 -2.4176 -1.7318  1.8872
  595MOL0     H80304   5.621   5.003   1.698  1.5174 -1.5918 -0.1568
  595MOL0     H80305   4.818   4.721   1.140 -2.1053 -2.0694  0.4384
  595MOL0     H80306   4.567   4.707   1.201 -0.9393 -0.7094  0.2208
  595MOL0     H80307   4.164   4.597   1.087 -2.8953  0.0116 -3.0221
  595MOL0     H80308   3.937   4.566   1.163  1.4141 -0.6070 -2.2118
  595MOL0     H80309   2.463   5.180   1.758  0.1570  0.1397 -1.9761
  595MOL0     H80310   2.271   5.136   1.865  2.3828 -1.2223  1.7629
  595MOL0     H80311   2.151   5.266   2.297  1.3181 -1.7234 -0.7802
  595MOL0     H80312   2.064   5.235   2.534 -0.9728  0.0766  1.3221
  595MOL0     H80313   1.960   5.194   2.733  0.0998 -0.5487 -1.1423
  595MOL0     H80314   2.001   5.034   2.670  1.3844  2.8332 -4.9443
  595MOL0     H80315   1.775   5.133   2.854 -2.7992 -1.8072 -0.4595
  595MOL0     H80316   1.887   5.005   2.891  3.0928  0.7838 -1.8683
  595MOL0     H80317   1.655   4.989   2.689  2.3282  1.0954 -1.6840
  595MOL0     H80318   1.662   4.921   2.855  0.6813 -0.5417 -0.1391
  595MOL0     H80319   1.834   4.840   2.614 -0.7424  1.6677 -0.4373
  595MOL0     H80320   1.842   4.771   2.783 -0.0170 -1.3079 -1.0841
  595MOL0     H80321   1.487   4.579   2.675  0.4391 -0.5019 -1.1611
  595MOL0     H80322   1.738   5.026   2.377  1.3369 -2.5106 -0.3933
  595MOL0     H80323   1.704   5.003   2.140 -0.6748 -3.0066 -3.0008
  595MOL0     H80324   1.767   5.105   2.015 -1.6580 -0.7902 -0.2432
  595MOL0     H80325   1.856   4.954   2.069  0.2014  0.0920  0.0667
  596MOL0     O80326   7.825   7.322   6.323  0.0352  0.5822  0.9475
  596MOL0     C80327   7.890   7.255   6.401 -0.3263 -0.1430 -0.0117
  596MOL0     O80328   8.013   7.277   6.449 -1.3761 -0.0275 -0.2960
  596MOL0     C80329   8.078   7.394   6.411  0.1990 -0.4702 -0.0527
  596MOL0     C80330   8.016   7.529   6.391  0.5573  0.8466  0.2888
  596MOL0     C80331   8.096   7.634   6.349  0.1427  1.1605  0.5563
  596MOL0     C80332   8.229   7.614   6.328 -0.0426 -0.4739  0.0509
  596MOL0     O80333   8.308   7.721   6.276 -0.2889  0.4901  0.6389
  596MOL0     C80334   8.329   7.718   6.129 -0.0242 -0.0316 -0.4384
  596MOL0     C80335   8.452   7.818   6.110  0.0839 -0.0306  0.0179
  596MOL0     C80336   8.590   7.741   6.092  0.3379  0.0159  0.3208
  596MOL0     C80337   8.673   7.737   6.226 -0.4084  0.3098  0.1778
  596MOL0     C80338   8.801   7.651   6.227 -0.8385 -0.7841 -0.4943
  596MOL0     C80339   8.908   7.708   6.136 -0.2433  0.0786 -0.2623
  596MOL0     C80340   9.044   7.641   6.150 -0.3091 -0.0318  0.0831
  596MOL0     C80341   9.150   7.685   6.046 -0.2593  0.1588 -0.3544
  596MOL0     N80342   9.098   7.664   5.909 -0.4300  0.2027 -0.1882
  596MOL0     C80343   9.139   7.549   5.838 -0.1984 -0.8774 -0.0155
  596MOL0     C80344   9.088   7.570   5.706  0.9828 -0.5036  0.7481
  596MOL0     C80345   9.101   7.482   5.592  0.4837  0.9134  0.8051
  596MOL0     C80346   9.227   7.516   5.519 -0.5399 -0.0382  0.3883
  596MOL0     C80347   9.255   7.409   5.410  1.2068  0.0102  0.8358
  596MOL0     C80348   9.352   7.470   5.304 -0.4950 -0.1175  0.5391
  596MOL0     O80349   9.469   7.508   5.388 -0.6030  0.3864  0.0777
  596MOL0     C80350   9.555   7.604   5.343 -0.3659 -0.1476  1.4163
  596MOL0     C80351   9.652   7.665   5.428  0.3115  0.2481 -0.0215
  596MOL0     C80352   9.741   7.767   5.384 -0.7007  0.6583  0.3265
  596MOL0     C80353   9.753   7.808   5.247 -0.3684  0.2198 -0.1831
  596MOL0     C80354   9.843   7.910   5.196 -0.2251 -0.2274 -0.5254
  596MOL0     O80355   9.829   7.949   5.065  0.0446 -0.0418  0.5547
  596MOL0     C80356   9.935   8.010   4.994 -0.1059 -0.2381  0.1090
  596MOL0     C80357   9.890   8.112   4.906 -0.3144 -0.8764  0.2957
  596MOL0     C80358   9.993   8.189   4.854  0.4119 -0.3382  0.3179
  596MOL0     C80359  10.129   8.164   4.862  0.1152 -0.0251  0.6975
  596MOL0     O80360  10.219   8.246   4.800 -0.1304  0.3309  0.1388
  596MOL0     C80361  10.325   8.207   4.713  0.5316  0.0399  0.5310
  596MOL0     C80362  10.284   8.187   4.562 -0.0817 -0.1577 -0.3203
  596MOL0     C80363  10.407   8.202   4.470 -0.7664 -1.1301  0.0230
  596MOL0     C80364  10.379   8.168   4.326 -0.0939 -0.1211  0.8729
  596MOL0     C80365  10.491   8.222   4.235  0.2469  0.2321  0.2636
  596MOL0     C80366  10.485   8.369   4.218  0.2810 -0.1790 -0.3057
  596MOL0     C80367  10.528   8.425   4.083 -0.2758  0.0558  0.0984
  596MOL0     C80368  10.523   8.576   4.086 -0.0746 -0.3468 -0.3364
  596MOL0    Cl80369  10.620   8.626   3.945  0.1081 -0.4964 -0.0563
  596MOL0     C80370  10.165   8.060   4.950 -0.6756 -0.0112 -0.0443
  596MOL0     C80371  10.073   7.984   5.008 -0.2204  0.3085 -0.7916
  596MOL0     O80372   9.925   7.960   5.277 -0.3433  0.1025 -0.4540
  596MOL0     C80373   9.661   7.744   5.167 -0.9461  0.3935  0.1305
  596MOL0     C80374   9.569   7.645   5.208 -0.5205 -0.6537  0.4046
  596MOL0     N80375   9.033   7.702   5.712 -0.1998  0.0375 -0.5560
  596MOL0     N80376   9.036   7.753   5.828 -0.3260  0.4381  0.7287
  596MOL0     C80377   8.293   7.494   6.349  0.1706 -0.7328 -0.3166
  596MOL0     C80378   8.219   7.386   6.402 -0.2785  0.5177  0.9359
  596MOL0     C80379   7.826   7.134   6.453 -0.3895  0.1102 -0.2916
  596MOL0     C80380   7.857   7.096   6.589  0.7162 -0.4961  0.8892
  596MOL0     C80381   7.806   6.985   6.644  0.2375  0.4595 -0.6652
  596MOL0     C80382   7.717   6.906   6.572 -0.7964  0.2717  0.1126
  596MOL0     O80383   7.670   6.783   6.626  0.7755 -0.2934 -0.0584
  596MOL0     C80384   7.744   6.711   6.732  1.1259  0.8602  0.3982
  596MOL0     C80385   7.852   6.619   6.679 -0.1535 -0.4578 -0.4040
  596MOL0     C80386   7.930   6.553   6.792  0.3300 -1.0649  0.6409
  596MOL0     C80387   8.028   6.642   6.873 -0.7523 -0.6619 -0.2675
  596MOL0     C80388   8.031   6.606   7.013  0.6032  0.0861  1.0122
  596MOL0     C80389   8.013   6.579   7.132 -0.4407 -0.0082  0.1974
  596MOL0     C80390   7.685   6.945   6.439 -0.0557 -0.1607  0.1499
  596MOL0     C80391   7.734   7.059   6.378 -0.0122  0.4173 -0.2105
  596MOL0     C80392   7.693   7.092   6.230  0.6237 -0.3198 -0.6562
  596MOL0     H80393   7.909   7.543   6.398  0.1601 -1.4532 -0.3208
  596MOL0     H80394   8.046   7.726   6.319 -1.4086  0.0329 -0.4665
  596MOL0     H80395   8.365   7.618   6.101  0.1547 -0.3539  0.8611
  596MOL0     H80396   8.240   7.733   6.067 -0.1118 -0.4431 -0.4145
  596MOL0     H80397   8.463   7.888   6.193  0.7213  0.5996 -0.5866
  596MOL0     H80398   8.422   7.879   6.025 -1.9811  0.0289  0.7281
  596MOL0     H80399   8.657   7.785   6.018  0.1603  0.8449  0.6429
  596MOL0     H80400   8.570   7.642   6.049  1.6235  0.7817 -2.2191
  596MOL0     H80401   8.701   7.840   6.248 -2.0032  0.4340  1.8178
  596MOL0     H80402   8.613   7.697   6.308  2.8181 -0.9337  2.1081
  596MOL0     H80403   8.855   7.646   6.322 -0.3437 -2.6277 -0.8253
  596MOL0     H80404   8.776   7.548   6.197 -0.6337 -0.8182 -0.5490
  596MOL0     H80405   8.870   7.687   6.036  1.3829 -5.1620 -0.0501
  596MOL0     H80406   8.908   7.816   6.154 -0.6769 -0.3652  3.1161
  596MOL0     H80407   9.021   7.534   6.151 -0.3984 -0.0222  1.7274
  596MOL0     H80408   9.086   7.661   6.249  1.6552 -2.5283 -0.1352
  596MOL0     H80409   9.161   7.794   6.052  0.3751  0.0096  2.0070
  596MOL0     H80410   9.242   7.628   6.060  0.1728  0.5843 -1.3775
  596MOL0     H80411   9.187   7.457   5.869 -0.5511 -2.3110 -3.2761
  596MOL0     H80412   9.083   7.379   5.624 -3.1087  1.2378  0.1992
  596MOL0     H80413   9.009   7.482   5.533 -1.1970 -4.4217  2.8206
  596MOL0     H80414   9.227   7.618   5.479  0.8047 -0.0294  0.3525
  596MOL0     H80415   9.308   7.499   5.591  0.6562 -2.0504 -1.3109
  596MOL0     H80416   9.159   7.394   5.360 -0.2481  1.5140  2.9724
  596MOL0     H80417   9.286   7.314   5.454 -1.3087 -1.7312 -0.8909
  596MOL0     H80418   9.315   7.561   5.256  1.4727  0.7166  0.5129
  596MOL0     H80419   9.385   7.405   5.223  0.2205 -0.0637  0.7820
  596MOL0     H80420   9.661   7.627   5.529  0.5523 -0.1549 -0.1922
  596MOL0     H80421   9.815   7.806   5.454 -0.3666  0.4954  0.0661
  596MOL0     H80422   9.785   8.126   4.881 -0.8453 -0.5310  2.5017
  596MOL0     H80423   9.968   8.259   4.776  0.4008 -2.8924 -2.1347
  596MOL0     H80424  10.397   8.289   4.701  1.0527 -0.2947  1.2770
  596MOL0     H80425  10.373   8.117   4.751  2.6218  1.9293  2.6855
  596MOL0     H80426  10.231   8.092   4.551 -0.3343  0.0461 -0.8759
  596MOL0     H80427  10.207   8.258   4.534 -1.8974 -1.3034  1.5093
  596MOL0     H80428  10.439   8.307   4.469 -0.6282 -1.1043  2.1807
  596MOL0     H80429  10.485   8.137   4.510 -0.2965 -0.9945 -0.6481
  596MOL0     H80430  10.284   8.212   4.295  0.0821  0.8135  1.6391
  596MOL0     H80431  10.363   8.059   4.321  1.0621 -0.2779 -2.9371
  596MOL0     H80432  10.477   8.175   4.137  1.1251  0.2683  0.1147
  596MOL0     H80433  10.591   8.203   4.275  0.1518  2.5955  1.8273
  596MOL0     H80434  10.379   8.395   4.233  0.7096  1.9014 -0.5880
  596MOL0     H80435  10.534   8.429   4.295 -0.7840  2.6016 -1.6267
  596MOL0     H80436  10.465   8.392   4.000  0.2362  2.6302 -1.4236
  596MOL0     H80437  10.625   8.386   4.050 -1.7866 -1.4016 -3.0452
  596MOL0     H80438  10.423   8.620   4.074  0.4014  0.7233 -0.5400
  596MOL0     H80439  10.578   8.605   4.175 -0.9349  0.8664 -0.1659
  596MOL0     H80440  10.272   8.040   4.953 -1.1268 -3.1790 -1.4855
  596MOL0     H80441  10.117   7.898   5.057 -1.3080 -0.1718 -0.6245
  596MOL0     H80442   9.674   7.748   5.060  0.7019 -0.1076  0.2836
  596MOL0     H80443   9.506   7.589   5.138 -1.0631 -0.6937  0.9163
  596MOL0     H80444   8.397   7.469   6.329  1.3809  1.0172  3.0408
  596MOL0     H80445   8.266   7.291   6.430  1.0839  0.0456 -2.5034
  596MOL0     H80446   7.921   7.160   6.649 -1.5039  1.1442  1.6581
  596MOL0     H80447   7.845   6.974   6.745 -0.0769 -1.1129 -0.7006
  596MOL0     H80448   7.662   6.656   6.780  2.4248 -1.4450  0.0870
  596MOL0     H80449   7.779   6.775   6.814 -0.3414  0.9839  0.9602
  596MOL0     H80450   7.926   6.663   6.612  0.9310  0.2235  1.1621
  596MOL0     H80451   7.801   6.542   6.621 -1.3762 -0.9871  1.3027
  596MOL0     H80452   7.971   6.464   6.744 -4.4543 -1.9361 -2.6411
  596MOL0     H80453   7.860   6.522   6.871  0.4321  2.0099  2.0733
  596MOL0     H80454   8.128   6.662   6.833  0.6680  0.1222  3.2369
  596MOL0     H80455   7.986   6.743   6.875 -2.4850 -1.3346  1.6786
  596MOL0     H80456   7.981   6.577   7.235 -1.1962  3.9761  0.1602
  596MOL0     H80457   7.615   6.871   6.400 -1.0418  0.5136  0.6006
  596MOL0     H80458   7.776   7.124   6.167 -0.6438 -0.9642 -2.7711
  596MOL0     H80459   7.647   7.003   6.186 -2.0027  1.3827 -1.6105
  596MOL0     H80460   7.610   7.163   6.226  1.2442  0.3639 -2.0433
  597MOL0     O80461   3.256   4.189   2.197  0.3564  0.7503 -0.3296
  597MOL0     C80462   3.216   4.218   2.086 -0.1187 -0.1749 -0.2432
  597MOL0     O80463   3.230   4.342   2.029 -0.0437  0.6519 -0.0997
  597MOL0     C80464   3.282   4.436   2.112 -1.3991  0.0246  0.4795
  597MOL0     C80465   3.422   4.456   2.116  0.2817 -1.0096 -0.0600
  597MOL0     C80466   3.483   4.557   2.194 -0.1086 -0.5051 -0.1975
  597MOL0     C80467   3.407   4.628   2.287 -0.0982 -0.2443 -0.1038
  597MOL0     O80468   3.476   4.696   2.384 -0.2773 -0.6373 -0.1065
  597MOL0     C80469   3.432   4.831   2.431 -0.1986 -0.0466 -0.9252
  597MOL0     C80470   3.463   4.848   2.584  0.4376  0.3275  0.1757
  597MOL0     C80471   3.404   4.984   2.627 -0.5978  0.4456  0.1844
  597MOL0     C80472   3.465   5.029   2.757  0.1842  0.4591  0.1318
  597MOL0     C80473   3.380   5.147   2.822  0.3347 -0.7270 -0.5241
  597MOL0     C80474   3.440   5.185   2.960  0.8206 -0.1545  0.0258
  597MOL0     C80475   3.404   5.101   3.083  0.3560 -0.5383  0.3284
  597MOL0     C80476   3.248   5.122   3.112 -0.7513  0.5417 -0.7938
  597MOL0     N80477   3.200   5.036   3.225  1.0576 -0.2364 -0.6900
  597MOL0     C80478   3.264   5.014   3.349  0.8636 -0.1002 -0.8906
  597MOL0     C80479   3.173   4.923   3.417 -0.2841  0.0314  0.6253
  597MOL0     C80480   3.193   4.866   3.555  0.6151  1.2928  0.4669
  597MOL0     C80481   3.137   4.946   3.678  0.1815  0.7064  0.2271
  597MOL0     C80482   3.147   4.887   3.818  0.3036  0.2899 -0.5561
  597MOL0     C80483   3.011   4.824   3.851 -0.0288  0.5457  0.0672
  597MOL0     O80484   3.024   4.746   3.970  0.6816  0.0302 -0.1472
  597MOL0     C80485   2.910   4.705   4.036  0.2206 -0.6427  0.4641
  597MOL0     C80486   2.922   4.645   4.153  0.9179 -0.4536 -0.0409
  597MOL0     C80487   2.814   4.618   4.241 -0.5431  0.8040  0.9358
  597MOL0     C80488   2.679   4.629   4.184 -0.0515 -0.1263  0.0562
  597MOL0     C80489   2.556   4.588   4.256 -1.4032 -1.3525  0.1144
  597MOL0     O80490   2.588   4.538   4.379  0.3051 -0.0999 -0.1378
  597MOL0     C80491   2.498   4.482   4.466 -0.1354 -0.2480  0.4376
  597MOL0     C80492   2.372   4.420   4.431  0.9731 -0.3370  0.0100
  597MOL0     C80493   2.287   4.375   4.528  0.0970 -0.4894  0.4788
  597MOL0     C80494   2.322   4.369   4.664 -0.9953 -0.9348 -0.2209
  597MOL0     O80495   2.246   4.313   4.756  1.5223  0.2000 -0.1424
  597MOL0     C80496   2.139   4.239   4.708 -0.0948 -0.1785 -0.6850
  597MOL0     C80497   2.061   4.181   4.829 -0.3658 -0.8413 -0.3542
  597MOL0     C80498   1.939   4.108   4.789  0.7746  1.4353  1.2185
  597MOL0     C80499   1.972   3.965   4.730 -0.7986  0.0910  0.7364
  597MOL0     C80500   1.839   3.889   4.706 -0.0753 -0.5831  0.5935
  597MOL0     C80501   1.723   3.966   4.628  0.5390 -0.3228 -0.4170
  597MOL0     C80502   1.594   3.879   4.596 -0.5303 -0.8594  0.6231
  597MOL0     C80503   1.496   3.956   4.511 -0.1008  0.0443 -0.8119
  597MOL0    Cl80504   1.416   4.090   4.592 -0.0896 -0.0612  0.1632
  597MOL0     C80505   2.446   4.428   4.699  1.1286 -0.4851 -0.5486
  597MOL0     C80506   2.532   4.480   4.598  0.3017  0.3154 -0.3317
  597MOL0     O80507   2.446   4.589   4.206  0.6508 -0.1859 -0.2473
  597MOL0     C80508   2.673   4.673   4.052 -0.2326  0.1911  0.3129
  597MOL0     C80509   2.790   4.714   3.978  0.3619 -0.6023  0.5327
  597MOL0     N80510   3.059   4.908   3.342 -0.6124 -0.2789 -0.2548
  597MOL0     N80511   3.086   4.971   3.226  0.3029  0.2190  1.1553
  597MOL0     C80512   3.266   4.597   2.296  0.2630  0.0533  0.1059
  597MOL0     C80513   3.205   4.499   2.213  0.1441 -0.4613  0.7139
  597MOL0     C80514   3.130   4.126   2.010 -0.1720 -0.9495  0.1884
  597MOL0     C80515   3.039   4.044   2.078 -0.0160 -0.0162 -0.4886
  597MOL0     C80516   2.952   3.968   2.008  0.1409  0.8707  0.2450
  597MOL0     C80517   2.946   3.968   1.870 -0.0207  0.2378  0.4674
  597MOL0     O80518   2.856   3.894   1.807 -1.1221  0.6402  0.2431
  597MOL0     C80519   2.808   3.936   1.676  0.0567  0.0032  0.3543
  597MOL0     C80520   2.746   4.082   1.656 -0.3112 -1.2487  0.2663
  597MOL0     C80521   2.680   4.100   1.519 -0.0172 -0.2703  1.0979
  597MOL0     C80522   2.706   4.253   1.477  0.7961  0.6752  0.0406
  597MOL0     C80523   2.621   4.295   1.362  0.8342  0.2061  0.0269
  597MOL0     C80524   2.560   4.350   1.270 -0.3102 -0.6789  0.4365
  597MOL0     C80525   3.050   4.039   1.801 -0.3175 -0.4414 -0.8036
  597MOL0     C80526   3.144   4.102   1.870 -1.2971  0.0689  0.0472
  597MOL0     C80527   3.250   4.179   1.790  0.5086  0.0417  0.0919
  597MOL0     H80528   3.474   4.402   2.038 -0.0079  0.4270 -1.2892
  597MOL0     H80529   3.589   4.575   2.195 -0.3792  1.3793  1.8803
  597MOL0     H80530   3.480   4.912   2.375 -0.2838  2.2063  2.0322
  597MOL0     H80531   3.324   4.829   2.415 -0.3687 -1.4807  0.1937
  597MOL0     H80532   3.571   4.835   2.596 -0.0845 -1.7629  4.3325
  597MOL0     H80533   3.418   4.767   2.641  0.9738 -1.0484 -1.2903
  597MOL0     H80534   3.295   4.985   2.631 -0.6052  0.0662  0.1429
  597MOL0     H80535   3.429   5.064   2.556  2.4296  1.1806  1.8880
  597MOL0     H80536   3.457   4.946   2.829 -4.9463 -0.7521 -1.3994
  597MOL0     H80537   3.572   5.047   2.744  0.2743 -1.3094 -2.2824
  597MOL0     H80538   3.397   5.235   2.760  0.6042 -1.3106 -1.2897
  597MOL0     H80539   3.274   5.122   2.822 -0.0967  0.9348 -1.5153
  597MOL0     H80540   3.549   5.194   2.957  0.8041 -0.1138 -0.6760
  597MOL0     H80541   3.405   5.287   2.980  2.3508  0.1415  1.3564
  597MOL0     H80542   3.465   5.141   3.165 -1.3424 -1.0090  1.8916
  597MOL0     H80543   3.416   4.992   3.079 -0.6967 -0.6347 -0.5778
  597MOL0     H80544   3.237   5.226   3.144 -3.7380 -0.0368  0.4202
  597MOL0     H80545   3.184   5.104   3.026 -0.4408  0.0065 -0.9198
  597MOL0     H80546   3.357   5.050   3.392  1.1355  0.0674 -1.6021
  597MOL0     H80547   3.148   4.766   3.556  0.7413  1.2138 -0.5899
  597MOL0     H80548   3.298   4.838   3.571  0.1943 -0.6010  0.1931
  597MOL0     H80549   3.186   5.044   3.676  3.6437 -0.9035 -1.5084
  597MOL0     H80550   3.032   4.966   3.651  0.5239  1.6403 -0.4729
  597MOL0     H80551   3.171   4.953   3.902  1.9058 -3.3523  2.0947
  597MOL0     H80552   3.222   4.808   3.812 -1.3098 -1.2938 -0.7583
  597MOL0     H80553   2.973   4.756   3.774  2.2876  0.0003 -0.6759
  597MOL0     H80554   2.931   4.897   3.868 -1.4902 -1.3832  2.1736
  597MOL0     H80555   3.026   4.621   4.175  1.3882 -0.6042 -2.1651
  597MOL0     H80556   2.834   4.569   4.336  1.5408  0.0869  0.1920
  597MOL0     H80557   2.338   4.422   4.327  2.3338 -2.4091 -0.5339
  597MOL0     H80558   2.187   4.343   4.501  0.1780  2.1473 -3.9588
  597MOL0     H80559   2.059   4.287   4.650 -1.7895 -1.1710  0.7345
  597MOL0     H80560   2.177   4.153   4.653 -0.3107 -0.9548  0.3458
  597MOL0     H80561   2.130   4.114   4.881  1.1871  0.7639 -0.2642
  597MOL0     H80562   2.021   4.261   4.892  0.7809 -0.3248 -0.2637
  597MOL0     H80563   1.866   4.103   4.871 -0.3424 -0.1603  0.1793
  597MOL0     H80564   1.898   4.170   4.709 -1.3459 -3.7224 -2.2086
  597MOL0     H80565   2.040   3.911   4.797 -0.4186 -1.2951 -0.7149
  597MOL0     H80566   2.021   3.977   4.633 -1.5157 -1.0650  0.2066
  597MOL0     H80567   1.805   3.848   4.801  0.4212 -0.3938  0.8607
  597MOL0     H80568   1.863   3.802   4.644 -0.9856  0.4286 -1.2540
  597MOL0     H80569   1.687   4.043   4.697 -1.0093 -2.9143  1.9065
  597MOL0     H80570   1.763   4.010   4.537 -0.2860 -0.8776 -1.0716
  597MOL0     H80571   1.554   3.846   4.692  3.2958  0.4314  2.9023
  597MOL0     H80572   1.619   3.796   4.529 -1.1781 -1.0161  0.5651
  597MOL0     H80573   1.552   3.999   4.427  1.4147  0.4849  0.3748
  597MOL0     H80574   1.413   3.892   4.481  0.6805 -1.8637  0.8833
  597MOL0     H80575   2.471   4.429   4.805 -1.0807  1.9644  0.0671
  597MOL0     H80576   2.627   4.526   4.621  0.3022  0.8513 -1.3095
  597MOL0     H80577   2.585   4.663   3.989 -0.4477 -0.9292  0.7698
  597MOL0     H80578   2.779   4.734   3.872 -0.8294  1.4885  0.9946
  597MOL0     H80579   3.204   4.648   2.368 -0.3787 -0.3788 -0.1341
  597MOL0     H80580   3.098   4.483   2.221 -0.1815  1.2401  0.1078
  597MOL0     H80581   3.042   4.037   2.187  1.9780 -0.6724 -0.5529
  597MOL0     H80582   2.882   3.892   2.043  0.2544  0.8317  0.3882
  597MOL0     H80583   2.732   3.865   1.643  0.5569 -0.6687  0.6217
  597MOL0     H80584   2.889   3.914   1.607  0.4873 -5.1650  2.1079
  597MOL0     H80585   2.829   4.154   1.661  0.2618 -1.7193 -1.6705
  597MOL0     H80586   2.678   4.098   1.740  0.6517  1.1258  0.6872
  597MOL0     H80587   2.573   4.075   1.526  0.5513 -3.3260  0.4721
  597MOL0     H80588   2.717   4.021   1.453 -1.9624 -1.2938  1.1510
  597MOL0     H80589   2.687   4.306   1.571 -2.4377 -0.4299  0.1087
  597MOL0     H80590   2.810   4.267   1.446  0.6057  1.2396 -0.3711
  597MOL0     H80591   2.503   4.394   1.191  0.1800 -0.9779 -0.0878
  597MOL0     H80592   3.046   4.059   1.694  1.9159 -1.2032 -1.0690
  597MOL0     H80593   3.294   4.109   1.719  2.4529  0.4909  0.7977
  597MOL0     H80594   3.201   4.268   1.751  2.4433  1.3794  0.5969
  597MOL0     H80595   3.334   4.197   1.857  0.1079  1.7563  0.1772
  598MOL0     O80596   9.816   6.808   0.049 -0.0082 -0.1709  0.3930
  598MOL0     C80597   9.751   6.794  -0.052  1.1196 -0.0357 -1.0040
  598MOL0     O80598   9.785   6.823  -0.178 -0.4460 -0.0334  0.5858
  598MOL0     C80599   9.921   6.819  -0.208 -0.1073 -0.5419  0.8559
  598MOL0     C80600  10.004   6.926  -0.195  0.1941  0.5122  0.2647
  598MOL0     C80601  10.145   6.916  -0.218  0.3100  0.3280  0.0230
  598MOL0     C80602  10.205   6.791  -0.238  0.9783  0.1856  0.3807
  598MOL0     O80603  10.343   6.790  -0.253 -0.5112 -0.3916  0.4355
  598MOL0     C80604  10.416   6.700  -0.171 -0.6279 -0.3877  0.7567
  598MOL0     C80605  10.560   6.730  -0.211 -0.7987 -0.7761 -0.7536
  598MOL0     C80606  10.611   6.862  -0.138  0.1547 -0.2629 -0.4513
  598MOL0     C80607  10.773   6.867  -0.158 -0.2091  0.1729  0.3853
  598MOL0     C80608  10.830   6.998  -0.110 -0.3952 -0.0332  0.3304
  598MOL0     C80609  10.980   7.011  -0.129 -0.1010 -0.1933  0.0879
  598MOL0     C80610  11.038   6.972  -0.270  0.0224  0.3559 -0.6495
  598MOL0     C80611  11.171   7.032  -0.310 -0.5675 -0.9291  1.0509
  598MOL0     N80612  11.270   7.012  -0.209  1.0504 -0.2533  0.1069
  598MOL0     C80613  11.289   7.098  -0.099 -0.5943 -0.6528  0.6498
  598MOL0     C80614  11.372   7.028  -0.020 -1.2300  0.2012  0.2458
  598MOL0     C80615  11.422   7.057   0.114 -0.6926 -0.0131 -0.0810
  598MOL0     C80616  11.572   7.075   0.115 -1.5452 -0.3122  0.6914
  598MOL0     C80617  11.607   7.220   0.133  0.6324 -0.2420  1.3871
  598MOL0     C80618  11.752   7.265   0.119  0.7778 -0.3323 -0.1948
  598MOL0     O80619  11.816   7.214   0.239  0.1259  0.3941  0.0111
  598MOL0     C80620  11.955   7.212   0.245  0.1345 -0.6029 -0.4268
  598MOL0     C80621  12.013   7.150   0.355 -0.0743  0.4252 -0.6008
  598MOL0     C80622  12.149   7.138   0.370  0.1316  1.0756 -0.4284
  598MOL0     C80623  12.239   7.184   0.273  0.2063 -0.7511 -1.0616
  598MOL0     C80624  12.386   7.167   0.286  0.9971  0.2215 -0.3638
  598MOL0     O80625  12.408   7.065   0.365 -0.5603  0.3598  0.0756
  598MOL0     C80626  12.539   7.020   0.392  0.0982 -0.7175  1.4090
  598MOL0     C80627  12.645   7.025   0.297 -0.5542  0.2815  1.0513
  598MOL0     C80628  12.776   6.997   0.335  0.4093  0.0697  0.2614
  598MOL0     C80629  12.807   6.954   0.470  0.1767  0.7938  0.1871
  598MOL0     O80630  12.931   6.912   0.498  0.1395  0.2438  0.1725
  598MOL0     C80631  12.972   6.853   0.623  0.6853  0.1585 -0.6782
  598MOL0     C80632  13.026   6.977   0.696  0.5409 -0.3742  0.8052
  598MOL0     C80633  13.090   6.927   0.825 -0.3439  0.5450  0.2840
  598MOL0     C80634  13.132   7.046   0.916 -0.2531 -0.2147  0.7648
  598MOL0     C80635  13.219   6.997   1.021 -0.5672  0.3701  0.0254
  598MOL0     C80636  13.253   7.105   1.127  0.6055 -0.4438  0.0307
  598MOL0     C80637  13.120   7.189   1.158 -0.0560  0.7447 -0.5017
  598MOL0     C80638  13.121   7.263   1.300  0.6467  0.5700  0.4369
  598MOL0    Cl80639  12.945   7.300   1.328  0.0148 -0.4163 -0.1282
  598MOL0     C80640  12.705   6.964   0.566  0.0560  0.0363  0.6798
  598MOL0     C80641  12.567   7.000   0.529 -0.0358  0.1932 -0.5645
  598MOL0     O80642  12.465   7.247   0.233  0.3071 -0.1907  0.0690
  598MOL0     C80643  12.183   7.252   0.163 -0.6912 -0.2433  0.5389
  598MOL0     C80644  12.045   7.263   0.149  0.1137 -0.3456  0.0412
  598MOL0     N80645  11.395   6.903  -0.073 -0.2162 -0.0722 -0.3819
  598MOL0     N80646  11.343   6.899  -0.190 -0.2415  0.0962 -0.3957
  598MOL0     C80647  10.128   6.677  -0.237  0.5149  0.6473  0.9603
  598MOL0     C80648   9.984   6.693  -0.218  0.6189  0.9172 -0.2031
  598MOL0     C80649   9.606   6.773  -0.023 -1.0337  0.1483  0.0167
  598MOL0     C80650   9.547   6.814   0.092  0.0336  0.2196 -0.0665
  598MOL0     C80651   9.407   6.802   0.113  0.2800 -0.0562 -0.6626
  598MOL0     C80652   9.333   6.737   0.024  0.0647 -0.5377 -0.1567
  598MOL0     O80653   9.200   6.733   0.043  0.0419 -0.5039 -0.2662
  598MOL0     C80654   9.105   6.709  -0.067 -0.0823 -0.1547 -0.7081
  598MOL0     C80655   8.967   6.738  -0.006  0.2184 -0.0189  0.7975
  598MOL0     C80656   8.847   6.703  -0.098 -0.2786 -0.2272 -0.6311
  598MOL0     C80657   8.863   6.762  -0.237  0.1116 -0.1557 -0.4175
  598MOL0     C80658   8.731   6.753  -0.299  0.1337 -0.1361 -1.2973
  598MOL0     C80659   8.630   6.742  -0.357  0.5809 -0.6589  0.1538
  598MOL0     C80660   9.389   6.689  -0.098 -0.0329  0.8132 -0.2475
  598MOL0     C80661   9.522   6.706  -0.122  0.1796 -0.3321  0.5908
  598MOL0     C80662   9.572   6.642  -0.248  1.6388 -0.3874  0.0285
  598MOL0     H80663   9.957   7.023  -0.191 -1.3066 -0.1438  5.0374
  598MOL0     H80664  10.204   7.005  -0.234  0.4984  0.4464  1.2992
  598MOL0     H80665  10.393   6.722  -0.067  1.6707 -1.9866  1.6966
  598MOL0     H80666  10.387   6.597  -0.198  0.2358 -0.4190 -0.1232
  598MOL0     H80667  10.587   6.735  -0.317  2.5038 -0.9851 -0.0270
  598MOL0     H80668  10.615   6.642  -0.176 -0.0047 -0.2165 -0.5721
  598MOL0     H80669  10.568   6.861  -0.038 -0.3836  2.0921 -0.6049
  598MOL0     H80670  10.571   6.953  -0.184  2.0509  0.8839  0.0303
  598MOL0     H80671  10.820   6.790  -0.096 -1.7222 -0.1403  1.1864
  598MOL0     H80672  10.797   6.864  -0.265 -1.7004  2.3384 -0.0729
  598MOL0     H80673  10.780   7.074  -0.170 -1.0370 -0.8646 -0.2165
  598MOL0     H80674  10.798   7.013  -0.007 -3.5325 -1.6831 -0.2657
  598MOL0     H80675  11.007   7.114  -0.106 -2.5460  0.3910  0.6649
  598MOL0     H80676  11.033   6.951  -0.055  2.1129 -2.2649 -2.9729
  598MOL0     H80677  10.964   6.993  -0.348 -0.8161  0.4277  0.1476
  598MOL0     H80678  11.042   6.863  -0.278 -0.7970  0.3432 -0.9612
  598MOL0     H80679  11.197   6.981  -0.404 -0.5529  0.2222  0.4068
  598MOL0     H80680  11.163   7.139  -0.327  0.5561 -0.6666  2.0586
  598MOL0     H80681  11.245   7.196  -0.083  0.0556 -0.2469 -0.0042
  598MOL0     H80682  11.368   7.143   0.156  0.0167  0.7797 -0.7580
  598MOL0     H80683  11.395   6.981   0.188  0.0857 -2.7541 -2.4361
  598MOL0     H80684  11.613   7.027   0.205  0.9674 -0.3374 -0.3823
  598MOL0     H80685  11.614   7.034   0.023 -2.3097  0.1575  0.1165
  598MOL0     H80686  11.560   7.252   0.226  0.0286  1.4076  0.5627
  598MOL0     H80687  11.555   7.270   0.050  0.3281 -0.2954  1.5481
  598MOL0     H80688  11.758   7.374   0.121 -0.5827 -0.2394 -0.1245
  598MOL0     H80689  11.786   7.212   0.030  3.6975 -2.4059  1.9728
  598MOL0     H80690  11.942   7.125   0.434 -0.3519 -1.9276 -1.5086
  598MOL0     H80691  12.190   7.083   0.454  0.5041  0.7687 -0.8035
  598MOL0     H80692  12.623   7.057   0.196 -2.1181 -0.6781  1.0574
  598MOL0     H80693  12.862   6.999   0.270 -0.7350  0.5724 -1.3020
  598MOL0     H80694  12.889   6.811   0.681  1.7854  0.4397  1.1574
  598MOL0     H80695  13.043   6.772   0.602  0.9255  0.0390  0.5174
  598MOL0     H80696  13.104   7.025   0.635  0.6367 -0.1571  1.0987
  598MOL0     H80697  12.951   7.055   0.713 -1.0962 -0.4291 -4.3150
  598MOL0     H80698  13.022   6.869   0.889 -1.1255 -1.0418 -1.8742
  598MOL0     H80699  13.169   6.857   0.799 -0.7018  0.9991 -2.3264
  598MOL0     H80700  13.036   7.081   0.956 -2.0763  0.9831 -4.0012
  598MOL0     H80701  13.181   7.126   0.861 -2.9204  0.0082 -1.5051
  598MOL0     H80702  13.314   6.957   0.983 -0.8687 -0.0274 -0.3253
  598MOL0     H80703  13.170   6.917   1.078  1.1513 -0.5187  0.3252
  598MOL0     H80704  13.293   7.066   1.222 -0.5005 -0.9077  0.3148
  598MOL0     H80705  13.333   7.172   1.094  2.2779 -2.2076  0.3166
  598MOL0     H80706  13.032   7.124   1.166  0.9002 -0.6851 -1.3025
  598MOL0     H80707  13.096   7.268   1.086  1.1474  0.7383 -0.9385
  598MOL0     H80708  13.162   7.192   1.373  0.0941 -1.5890 -1.2407
  598MOL0     H80709  13.184   7.352   1.296 -0.2876  1.2362  0.2666
  598MOL0     H80710  12.729   6.956   0.672 -0.3562  1.3415  0.8842
  598MOL0     H80711  12.500   7.013   0.613  0.4978  3.1368 -0.4822
  598MOL0     H80712  12.249   7.291   0.087 -2.3752  2.0914  0.1897
  598MOL0     H80713  12.014   7.280   0.047  1.6451 -0.0654 -0.3940
  598MOL0     H80714  10.164   6.577  -0.256  2.3686  0.9798  2.4866
  598MOL0     H80715   9.921   6.604  -0.217 -1.0270  2.0396  0.6956
  598MOL0     H80716   9.603   6.858   0.174 -0.5208 -2.3017  1.8045
  598MOL0     H80717   9.365   6.836   0.207  1.6040  1.2440 -0.5044
  598MOL0     H80718   9.106   6.603  -0.094  1.7928 -0.1704 -0.7573
  598MOL0     H80719   9.122   6.771  -0.155 -3.4351  1.9714  0.0067
  598MOL0     H80720   8.973   6.844   0.022  1.2072 -0.3876  2.0238
  598MOL0     H80721   8.967   6.677   0.084  2.4892 -1.5381 -0.1500
  598MOL0     H80722   8.753   6.736  -0.053 -1.6992 -1.6387 -2.4334
  598MOL0     H80723   8.843   6.595  -0.116 -1.3110 -0.4631  0.8109
  598MOL0     H80724   8.894   6.867  -0.239  0.2240 -0.1515  0.7125
  598MOL0     H80725   8.941   6.705  -0.289  1.3693  1.4641 -0.4143
  598MOL0     H80726   8.541   6.758  -0.414 -0.9467 -1.3601  2.2105
  598MOL0     H80727   9.342   6.617  -0.164  3.2695 -3.0009  1.1773
  598MOL0     H80728   9.654   6.574  -0.226  0.5942 -1.1247  1.8648
  598MOL0     H80729   9.496   6.576  -0.291  2.7882 -1.2725 -0.7084
  598MOL0     H80730   9.597   6.720  -0.321 -1.9068  1.0393  0.0875
  599MOL0     O80731   8.857   6.377   7.592 -0.1873  0.4874 -0.0468
  599MOL0     C80732   8.787   6.428   7.678 -0.5688  1.0090  0.3540
  599MOL0     O80733   8.838   6.504   7.779  0.1653 -0.0158  0.6434
  599MOL0     C80734   8.971   6.528   7.798 -0.0292  0.1483 -0.5596
  599MOL0     C80735   9.033   6.482   7.917  0.5986 -0.1554  0.4122
  599MOL0     C80736   9.168   6.488   7.944  0.3453 -0.2139  0.0084
  599MOL0     C80737   9.251   6.545   7.843  0.1150  0.5692 -0.5471
  599MOL0     O80738   9.389   6.566   7.861  0.2278 -0.2517 -0.5559
  599MOL0     C80739   9.432   6.580   7.997  0.2691  0.5566 -0.9719
  599MOL0     C80740   9.577   6.623   7.985  0.1514  0.6794 -0.2393
  599MOL0     C80741   9.660   6.517   7.919 -0.1989  0.3023  0.4100
  599MOL0     C80742   9.807   6.516   7.976  0.6980  1.0267  0.7265
  599MOL0     C80743   9.895   6.450   7.876 -1.0591  0.5664  0.2366
  599MOL0     C80744  10.037   6.409   7.923  0.4394  0.5487 -0.2997
  599MOL0     C80745  10.119   6.514   7.973 -0.0582 -0.1447 -0.0385
  599MOL0     C80746  10.259   6.477   8.000  0.1772 -0.5283 -1.1333
  599MOL0     N80747  10.332   6.451   7.875  0.5072  0.0348  0.1455
  599MOL0     C80748  10.408   6.544   7.806 -0.7604  0.1214  0.5027
  599MOL0     C80749  10.478   6.468   7.718  1.4588  0.4006  0.7489
  599MOL0     C80750  10.594   6.513   7.633 -0.5070 -0.1630 -0.6802
  599MOL0     C80751  10.547   6.536   7.492 -0.7413  0.8011  0.6466
  599MOL0     C80752  10.646   6.620   7.412 -0.9946 -0.1203 -0.9556
  599MOL0     C80753  10.769   6.534   7.359  0.4250 -0.0828  0.1838
  599MOL0     O80754  10.844   6.481   7.461  0.1126  0.4669  0.3750
  599MOL0     C80755  10.985   6.480   7.452  0.8295 -0.3799  0.4979
  599MOL0     C80756  11.047   6.408   7.557 -0.3581 -0.2505 -1.1074
  599MOL0     C80757  11.183   6.388   7.566  0.6388 -0.7339  0.8296
  599MOL0     C80758  11.268   6.451   7.466  0.2200  1.0902 -0.2237
  599MOL0     C80759  11.412   6.448   7.481 -0.2968 -0.8776  0.5937
  599MOL0     O80760  11.466   6.360   7.573  0.3297  0.5406  0.0075
  599MOL0     C80761  11.608   6.366   7.607  0.7027 -0.6000  0.4944
  599MOL0     C80762  11.702   6.378   7.510 -0.5796  0.9781 -0.5012
  599MOL0     C80763  11.838   6.379   7.553 -0.6475  0.0533 -0.3628
  599MOL0     C80764  11.873   6.380   7.685  0.2205 -0.4097 -0.3131
  599MOL0     O80765  12.006   6.403   7.720  0.5285  0.3559 -0.2184
  599MOL0     C80766  12.045   6.383   7.850 -0.8314 -0.3239  0.8784
  599MOL0     C80767  12.191   6.396   7.863  0.1441  0.1939  0.0818
  599MOL0     C80768  12.233   6.369   8.010 -1.0876 -0.6908  0.6129
  599MOL0     C80769  12.369   6.300   7.991  0.1413 -0.1078  0.4142
  599MOL0     C80770  12.465   6.393   7.923 -1.1543 -0.3690  0.4302
  599MOL0     C80771  12.615   6.354   7.933 -0.3850  0.2443 -0.3244
  599MOL0     C80772  12.693   6.443   7.840 -1.5813 -0.7174  0.4883
  599MOL0     C80773  12.840   6.390   7.804 -0.1906 -0.3926 -0.3090
  599MOL0    Cl80774  12.925   6.510   7.723  0.2602  0.4318  0.0029
  599MOL0     C80775  11.778   6.361   7.781  1.4591 -0.5607  0.2616
  599MOL0     C80776  11.639   6.355   7.740  0.6108  0.7777 -1.0282
  599MOL0     O80777  11.478   6.519   7.408 -0.6681  0.2003  0.6390
  599MOL0     C80778  11.206   6.520   7.362  0.1325 -1.5547  0.5504
  599MOL0     C80779  11.064   6.538   7.356 -0.0652  0.1115  1.0221
  599MOL0     N80780  10.420   6.334   7.713  0.4712 -0.4540  0.2881
  599MOL0     N80781  10.348   6.327   7.818 -0.3606 -0.0373  0.6209
  599MOL0     C80782   9.193   6.586   7.725 -1.4690 -0.2000 -0.4451
  599MOL0     C80783   9.059   6.584   7.705 -1.0536 -0.8227  0.2290
  599MOL0     C80784   8.661   6.353   7.708  0.1687 -0.6787  0.8638
  599MOL0     C80785   8.631   6.318   7.840 -0.5241  0.1783 -0.1509
  599MOL0     C80786   8.511   6.245   7.853  0.3906 -0.2579 -0.3139
  599MOL0     C80787   8.434   6.197   7.749  0.4613 -0.1554  0.0486
  599MOL0     O80788   8.309   6.151   7.763  0.3052  0.2057  0.0477
  599MOL0     C80789   8.245   6.121   7.889 -0.2867  0.1481 -0.6389
  599MOL0     C80790   8.097   6.081   7.882 -0.4250  0.2336 -0.1087
  599MOL0     C80791   8.009   6.199   7.845  0.4761 -0.4597 -0.0516
  599MOL0     C80792   7.945   6.176   7.708  0.4038  0.8584  0.5681
  599MOL0     C80793   7.833   6.086   7.708 -0.1821  0.2359 -0.2461
  599MOL0     C80794   7.733   6.023   7.718  0.0283  0.3245 -0.1878
  599MOL0     C80795   8.468   6.226   7.628 -0.9839 -0.3765 -0.4097
  599MOL0     C80796   8.584   6.305   7.600  0.5034 -0.5452 -0.4381
  599MOL0     C80797   8.591   6.363   7.459 -0.2667  0.1531  0.4884
  599MOL0     H80798   8.967   6.436   7.991  1.6044 -2.1555  0.1325
  599MOL0     H80799   9.203   6.454   8.041  0.3904 -4.7660 -1.3706
  599MOL0     H80800   9.374   6.668   8.028  0.5322  0.0386  1.1322
  599MOL0     H80801   9.424   6.488   8.056  1.4951  1.4386  0.6414
  599MOL0     H80802   9.620   6.649   8.081  0.9071 -2.1349  0.2959
  599MOL0     H80803   9.589   6.717   7.931  1.0439  0.0002 -1.2682
  599MOL0     H80804   9.650   6.555   7.816 -2.4544 -1.7889 -0.2263
  599MOL0     H80805   9.609   6.421   7.923  0.6890 -0.3115 -1.5575
  599MOL0     H80806   9.832   6.622   7.986  1.2500  0.7217  3.2738
  599MOL0     H80807   9.817   6.467   8.074 -1.6707  1.3631  1.1986
  599MOL0     H80808   9.848   6.356   7.843 -0.9712  0.4533  0.4335
  599MOL0     H80809   9.912   6.505   7.783  2.2384 -0.1737  0.2824
  599MOL0     H80810  10.021   6.330   7.998 -3.0354  1.0302 -0.3511
  599MOL0     H80811  10.080   6.356   7.837 -0.8545 -3.0865  1.0804
  599MOL0     H80812  10.073   6.552   8.065  0.3912  2.3525 -0.7975
  599MOL0     H80813  10.113   6.588   7.893 -0.9602  2.5568  2.3672
  599MOL0     H80814  10.312   6.551   8.060 -0.6833 -0.2380 -0.7244
  599MOL0     H80815  10.275   6.382   8.054 -1.4441 -0.3006 -0.1925
  599MOL0     H80816  10.423   6.649   7.828  1.3653 -0.0958  0.3056
  599MOL0     H80817  10.636   6.606   7.673 -0.2450 -0.2727 -0.6927
  599MOL0     H80818  10.665   6.430   7.640 -2.2125 -1.6076  0.0148
  599MOL0     H80819  10.528   6.447   7.433  0.9358  0.9004 -0.0989
  599MOL0     H80820  10.458   6.600   7.488  0.3564  2.3054 -1.2364
  599MOL0     H80821  10.688   6.700   7.473  0.7446  0.2185 -2.4854
  599MOL0     H80822  10.596   6.656   7.321 -0.4333 -1.4999 -1.8509
  599MOL0     H80823  10.815   6.602   7.287 -2.6494  2.4219  0.3433
  599MOL0     H80824  10.738   6.440   7.313  1.1349  0.1442 -0.7924
  599MOL0     H80825  10.984   6.369   7.636  0.6810 -1.4126 -0.8093
  599MOL0     H80826  11.216   6.336   7.655  0.0789 -1.3164  0.7024
  599MOL0     H80827  11.689   6.399   7.404 -2.4285  1.7519 -0.1480
  599MOL0     H80828  11.919   6.403   7.485  0.0279  0.4630  0.5586
  599MOL0     H80829  12.004   6.462   7.913 -2.7492  1.4429 -2.3557
  599MOL0     H80830  12.009   6.287   7.890  1.3862 -1.9779 -0.7839
  599MOL0     H80831  12.235   6.327   7.790 -0.8684  1.8936 -2.2452
  599MOL0     H80832  12.224   6.498   7.842 -1.4014  1.1566  2.0087
  599MOL0     H80833  12.232   6.457   8.076  1.4708 -0.5195  0.5216
  599MOL0     H80834  12.166   6.289   8.045 -0.4956 -2.2604 -1.6415
  599MOL0     H80835  12.374   6.202   7.942  2.9012 -0.2128  0.7611
  599MOL0     H80836  12.390   6.276   8.096  2.1430 -2.2444 -0.3886
  599MOL0     H80837  12.440   6.494   7.958 -0.6950  0.1371 -0.6608
  599MOL0     H80838  12.454   6.387   7.815  5.9748  0.5956 -0.8102
  599MOL0     H80839  12.659   6.363   8.032  0.4345 -1.7832 -0.4428
  599MOL0     H80840  12.613   6.247   7.909 -0.2324 -0.4206  2.3068
  599MOL0     H80841  12.710   6.542   7.884 -2.1200 -1.1876  1.7918
  599MOL0     H80842  12.645   6.449   7.742 -1.1578 -0.2236  0.2998
  599MOL0     H80843  12.900   6.368   7.893  1.9588 -0.6145 -1.7508
  599MOL0     H80844  12.830   6.302   7.741 -1.8294  1.4584 -2.8216
  599MOL0     H80845  11.803   6.378   7.885 -2.2383  1.7738  0.9704
  599MOL0     H80846  11.559   6.349   7.813  0.9743  2.3321 -0.4776
  599MOL0     H80847  11.266   6.558   7.281 -3.1434 -1.5886 -2.1421
  599MOL0     H80848  11.022   6.602   7.279 -5.3488  0.7343  3.9934
  599MOL0     H80849   9.264   6.630   7.656 -1.1612  1.6916  1.0029
  599MOL0     H80850   9.011   6.611   7.612  0.5967  1.1099 -0.1473
  599MOL0     H80851   8.683   6.345   7.931  2.5137  0.0074 -1.7007
  599MOL0     H80852   8.482   6.229   7.957  0.7520 -1.4972 -0.3865
  599MOL0     H80853   8.266   6.190   7.971 -4.3729  0.8528  0.0510
  599MOL0     H80854   8.299   6.033   7.925  1.4336  1.4711  0.1181
  599MOL0     H80855   8.064   6.063   7.985 -3.8563  1.8237 -0.7935
  599MOL0     H80856   8.102   5.990   7.821  2.5669  1.1590 -1.4413
  599MOL0     H80857   8.052   6.300   7.850  1.6506 -0.9051 -0.7525
  599MOL0     H80858   7.943   6.216   7.931  1.2132  2.1073  0.1059
  599MOL0     H80859   7.909   6.272   7.671  0.4929  0.9982  0.8368
  599MOL0     H80860   8.017   6.143   7.632  2.4030  0.1338  2.6598
  599MOL0     H80861   7.643   5.965   7.725  0.4036 -0.3303 -0.6276
  599MOL0     H80862   8.407   6.190   7.546  0.1349 -1.1585 -0.9207
  599MOL0     H80863   8.574   6.471   7.454 -1.3255  0.2259  3.6032
  599MOL0     H80864   8.686   6.324   7.422 -1.8204 -2.1585 -1.3162
  599MOL0     H80865   8.517   6.315   7.395  0.4979  0.5970 -0.7705
  600MOL0     O80866   7.050   0.543   0.601  0.0977 -0.3146 -0.1691
  600MOL0     C80867   7.062   0.457   0.689 -0.8423 -1.2152  0.5659
  600MOL0     O80868   7.163   0.454   0.779  0.6096 -0.0964 -0.0803
  600MOL0     C80869   7.250   0.554   0.817  0.2371 -0.2737  0.4557
  600MOL0     C80870   7.353   0.511   0.886 -0.1342  0.0025  0.0806
  600MOL0     C80871   7.430   0.605   0.968  0.4771 -0.8682 -0.3020
  600MOL0     C80872   7.409   0.748   0.970  0.3733  1.6871 -0.3485
  600MOL0     O80873   7.458   0.842   1.056  0.0432 -0.1611 -0.1758
  600MOL0     C80874   7.576   0.815   1.128 -0.2116  0.5532 -0.4129
  600MOL0     C80875   7.635   0.956   1.160  0.4256  0.9136  0.6833
  600MOL0     C80876   7.783   0.946   1.191  0.1188 -0.9725  0.3020
  600MOL0     C80877   7.848   1.079   1.225  0.3438 -1.1673  0.3209
  600MOL0     C80878   8.004   1.058   1.225 -0.0320 -0.2525 -0.0137
  600MOL0     C80879   8.066   1.197   1.236  0.6777 -0.2643 -0.8299
  600MOL0     C80880   8.212   1.189   1.276 -0.4213 -0.2657 -0.2398
  600MOL0     C80881   8.295   1.304   1.208 -1.1636 -0.3894 -0.2565
  600MOL0     N80882   8.435   1.279   1.230  0.4669 -0.0701 -0.8167
  600MOL0     C80883   8.536   1.295   1.137  0.2248 -0.3762  0.6436
  600MOL0     C80884   8.649   1.261   1.205  0.3469 -0.8418  0.0717
  600MOL0     C80885   8.787   1.268   1.155  0.2530 -0.4440  0.0623
  600MOL0     C80886   8.866   1.132   1.169  0.5656 -0.4826  0.6155
  600MOL0     C80887   9.016   1.161   1.167  0.5850 -0.1383  0.0854
  600MOL0     C80888   9.082   1.204   1.035  0.5328  0.0012  1.1261
  600MOL0     O80889   9.128   1.091   0.947 -0.0966 -0.4054  0.0914
  600MOL0     C80890   9.261   1.035   0.956 -0.5979 -0.7390 -0.5371
  600MOL0     C80891   9.365   1.103   1.018  0.3505 -0.5975  0.0626
  600MOL0     C80892   9.490   1.045   1.042 -0.0509  0.2281  0.3548
  600MOL0     C80893   9.521   0.921   0.979  1.1786  1.2767 -0.1491
  600MOL0     C80894   9.659   0.864   0.981  1.2557 -0.0295  0.0030
  600MOL0     O80895   9.748   0.916   1.064  0.2623  0.5773  0.3332
  600MOL0     C80896   9.871   0.882   1.036  0.4689 -0.2546  0.1448
  600MOL0     C80897   9.936   0.764   1.076 -0.1627 -0.1660  0.7251
  600MOL0     C80898  10.071   0.751   1.065 -0.4785 -0.2281  1.2459
  600MOL0     C80899  10.152   0.857   1.018  0.6563  0.5009  0.1846
  600MOL0     O80900  10.293   0.861   1.012 -0.1833  0.4675 -0.3832
  600MOL0     C80901  10.372   0.746   0.976  0.9217  0.1397 -0.8792
  600MOL0     C80902  10.476   0.775   0.871  0.9752 -0.1430 -0.5796
  600MOL0     C80903  10.414   0.833   0.741 -1.1477 -0.6480 -0.5735
  600MOL0     C80904  10.530   0.873   0.651 -0.4162  0.1226  0.6632
  600MOL0     C80905  10.512   0.998   0.568 -0.1795  0.0284 -0.6180
  600MOL0     C80906  10.409   0.985   0.455  0.5358  0.1093 -0.4913
  600MOL0     C80907  10.422   1.089   0.348 -0.3588  1.1757 -0.3010
  600MOL0     C80908  10.324   1.058   0.233 -0.3587  0.5132  0.1225
  600MOL0    Cl80909  10.315   1.201   0.132 -0.3002  0.1298  0.2574
  600MOL0     C80910  10.083   0.968   0.958 -0.0051  0.2160  0.4176
  600MOL0     C80911   9.944   0.985   0.975 -1.5834 -0.7689  0.5910
  600MOL0     O80912   9.673   0.766   0.915 -0.5583 -0.0301 -0.6294
  600MOL0     C80913   9.407   0.850   0.929 -0.6848  0.5589  0.2253
  600MOL0     C80914   9.285   0.902   0.920 -0.0079 -0.2171 -0.3144
  600MOL0     N80915   8.611   1.237   1.338  0.8455  1.2276 -0.4294
  600MOL0     N80916   8.480   1.241   1.353 -0.1209  0.6146 -0.3559
  600MOL0     C80917   7.314   0.781   0.873  0.5139  0.2190  0.2975
  600MOL0     C80918   7.239   0.686   0.799 -0.2922 -0.3182  0.1457
  600MOL0     C80919   6.961   0.362   0.710 -1.2725  0.0679 -0.8165
  600MOL0     C80920   6.857   0.357   0.619 -0.0478  0.2569  0.4594
  600MOL0     C80921   6.731   0.293   0.644 -0.4796 -0.2278 -0.0043
  600MOL0     C80922   6.714   0.213   0.754 -0.6918 -0.9133  0.4744
  600MOL0     O80923   6.611   0.128   0.767 -0.1431  0.1039 -0.0335
  600MOL0     C80924   6.592   0.059   0.894  0.2280  0.3129 -0.7234
  600MOL0     C80925   6.465  -0.033   0.879 -0.6874 -0.7658 -0.4316
  600MOL0     C80926   6.471  -0.143   0.996 -0.6819  0.4639 -0.5666
  600MOL0     C80927   6.331  -0.193   1.019  0.3610 -0.3894 -0.3453
  600MOL0     C80928   6.348  -0.316   1.098  0.1055  0.5543  0.8213
  600MOL0     C80929   6.373  -0.415   1.161  0.3313 -0.6493  0.1049
  600MOL0     C80930   6.818   0.214   0.849 -0.0677 -0.0304  0.2596
  600MOL0     C80931   6.942   0.284   0.830  0.7750  0.2693 -0.0714
  600MOL0     C80932   7.037   0.264   0.944  0.3037 -0.0403  0.0581
  600MOL0     H80933   7.377   0.406   0.877 -1.6982 -0.2293 -2.7279
  600MOL0     H80934   7.506   0.566   1.036 -0.0235  0.1932  0.8937
  600MOL0     H80935   7.556   0.775   1.228 -0.5177 -1.7096 -1.3018
  600MOL0     H80936   7.649   0.751   1.077 -0.8430 -0.7566  0.2636
  600MOL0     H80937   7.579   1.010   1.237  0.0499 -0.2133  1.2327
  600MOL0     H80938   7.616   1.004   1.064 -0.8630 -1.5693 -0.4084
  600MOL0     H80939   7.829   0.888   1.110 -0.7089 -2.1133  0.6313
  600MOL0     H80940   7.788   0.880   1.277 -0.9564  3.0573  3.8090
  600MOL0     H80941   7.820   1.145   1.142 -0.3960 -0.5654  1.0349
  600MOL0     H80942   7.821   1.112   1.325  0.3783 -1.5167  0.4475
  600MOL0     H80943   8.023   0.992   1.311 -1.1610  2.0590  2.1447
  600MOL0     H80944   8.027   1.009   1.130 -0.0991 -3.3545  1.4625
  600MOL0     H80945   8.058   1.250   1.140  1.4664  1.4069 -0.0060
  600MOL0     H80946   8.009   1.262   1.303  1.5062  0.8533 -1.1793
  600MOL0     H80947   8.259   1.094   1.250  0.8852  0.7634 -1.8783
  600MOL0     H80948   8.220   1.209   1.383  1.0085  0.6816 -0.4897
  600MOL0     H80949   8.278   1.309   1.100 -0.0814 -1.9324 -0.5226
  600MOL0     H80950   8.271   1.400   1.257 -0.0056 -0.7382  1.0527
  600MOL0     H80951   8.535   1.330   1.034  2.5952 -4.6251 -1.0986
  600MOL0     H80952   8.792   1.305   1.052  1.2218 -1.0923 -0.1444
  600MOL0     H80953   8.836   1.338   1.223 -3.6932 -0.9763  3.8760
  600MOL0     H80954   8.846   1.079   1.263  0.6586 -1.4417  0.1025
  600MOL0     H80955   8.857   1.065   1.084 -0.3543 -0.6302  0.8149
  600MOL0     H80956   9.071   1.076   1.208  2.2841  1.6837  1.8568
  600MOL0     H80957   9.038   1.245   1.234  1.3538 -2.4187  2.8504
  600MOL0     H80958   9.158   1.282   1.044 -0.7650  1.5069 -0.0818
  600MOL0     H80959   9.011   1.260   0.972 -0.9626 -0.9749  1.8679
  600MOL0     H80960   9.345   1.208   1.038 -0.9446 -1.1536  1.9244
  600MOL0     H80961   9.565   1.098   1.100 -0.4549 -0.7502  1.8656
  600MOL0     H80962   9.869   0.683   1.101 -1.2446 -0.3200 -2.3115
  600MOL0     H80963  10.125   0.660   1.087  1.7727  0.4650 -0.9849
  600MOL0     H80964  10.402   0.686   1.062 -2.9503  1.5502  1.7205
  600MOL0     H80965  10.301   0.673   0.935 -0.6568  1.7155 -1.0992
  600MOL0     H80966  10.554   0.838   0.915 -0.8363  0.2044  2.4048
  600MOL0     H80967  10.523   0.677   0.859 -1.2530 -1.2114 -0.9080
  600MOL0     H80968  10.359   0.756   0.687 -0.6725 -1.2653 -0.1848
  600MOL0     H80969  10.357   0.923   0.767  0.1559 -0.0774  0.4342
  600MOL0     H80970  10.568   0.790   0.591 -0.9831 -2.3174  3.4388
  600MOL0     H80971  10.619   0.896   0.711  2.1917 -5.9007 -0.2095
  600MOL0     H80972  10.610   1.032   0.534  1.9678 -2.8607  2.1467
  600MOL0     H80973  10.487   1.082   0.633  0.8424  1.0630 -1.5064
  600MOL0     H80974  10.423   0.889   0.405  1.9543 -1.2824  2.3921
  600MOL0     H80975  10.306   0.984   0.492 -0.6756 -0.4313 -3.5496
  600MOL0     H80976  10.522   1.088   0.304 -0.0956  2.3226  0.2270
  600MOL0     H80977  10.399   1.187   0.390  0.1907  1.0746  0.2536
  600MOL0     H80978  10.367   0.972   0.181  1.1818  1.7421 -0.7472
  600MOL0     H80979  10.227   1.034   0.275 -0.1518 -0.9779 -0.1955
  600MOL0     H80980  10.140   1.044   0.906 -0.4691 -0.7754 -1.6220
  600MOL0     H80981   9.898   1.080   0.949 -1.8991 -0.8240  0.9429
  600MOL0     H80982   9.421   0.753   0.881  2.5010  1.6918 -1.4013
  600MOL0     H80983   9.204   0.851   0.869  0.8523 -1.6288 -0.3463
  600MOL0     H80984   7.287   0.885   0.857 -2.4967 -0.5527 -0.3188
  600MOL0     H80985   7.164   0.724   0.729  0.9437 -1.0221 -1.6483
  600MOL0     H80986   6.862   0.423   0.532  0.3489  2.8574  2.3326
  600MOL0     H80987   6.650   0.301   0.573 -1.3389  1.2274  1.0931
  600MOL0     H80988   6.581   0.137   0.970  0.8627 -0.2794 -0.0120
  600MOL0     H80989   6.675  -0.007   0.920 -1.6152 -0.8165  2.8844
  600MOL0     H80990   6.462  -0.076   0.778  0.8040 -1.7354 -0.1070
  600MOL0     H80991   6.375   0.028   0.882  1.7822  3.1993  1.1129
  600MOL0     H80992   6.510  -0.103   1.090 -1.9821 -1.8338  1.0306
  600MOL0     H80993   6.533  -0.232   0.980 -2.8501 -2.1146  3.6354
  600MOL0     H80994   6.271  -0.119   1.072  1.6253 -1.1732  2.3634
  600MOL0     H80995   6.284  -0.219   0.924 -1.1456 -2.2052  0.8421
  600MOL0     H80996   6.383  -0.508   1.214  1.6887 -0.3068  0.4664
  600MOL0     H80997   6.810   0.146   0.933 -0.7461 -2.0103 -1.3221
  600MOL0     H80998   7.023   0.349   1.012  2.0824  0.7789 -0.5534
  600MOL0     H80999   7.010   0.173   0.999 -2.5025  0.4984 -0.2520
  600MOL0     H81000   7.143   0.254   0.918  0.0041 -1.8302 -0.6146
  601MOL0     O81001   4.226   7.360   1.392 -0.7400 -0.5526 -0.0397
  601MOL0     C81002   4.218   7.445   1.305  0.2003 -0.2837 -0.1901
  601MOL0     O81003   4.241   7.429   1.175  0.4826  0.2046 -0.3330
  601MOL0     C81004   4.270   7.304   1.131  0.1031  0.4642 -0.8268
  601MOL0     C81005   4.194   7.263   1.033 -0.2191 -0.2192  0.1446
  601MOL0     C81006   4.216   7.141   0.965  0.8304  0.4783 -1.0134
  601MOL0     C81007   4.314   7.056   1.002  0.0962  0.6166 -0.5834
  601MOL0     O81008   4.346   6.934   0.945  0.4019 -1.1920 -0.4696
  601MOL0     C81009   4.287   6.908   0.812  0.5780  0.6248 -0.1506
  601MOL0     C81010   4.375   6.808   0.739 -0.7372 -0.2635  0.1581
  601MOL0     C81011   4.367   6.667   0.797 -0.7856 -0.2147  0.0805
  601MOL0     C81012   4.298   6.560   0.710  0.6475  0.8348  0.0547
  601MOL0     C81013   4.367   6.533   0.582  0.3003 -0.3600 -0.3676
  601MOL0     C81014   4.299   6.431   0.482 -0.0040  0.5383 -0.3318
  601MOL0     C81015   4.329   6.287   0.536 -0.0291  0.4593 -0.0459
  601MOL0     C81016   4.469   6.232   0.507  0.5554 -0.4344 -0.0876
  601MOL0     N81017   4.475   6.088   0.540  0.1068 -0.7905 -0.4121
  601MOL0     C81018   4.454   5.994   0.442  0.4268  0.3182  0.6844
  601MOL0     C81019   4.530   5.891   0.492  0.6492 -0.8995  0.4505
  601MOL0     C81020   4.556   5.760   0.433  0.0947  0.6238  0.5260
  601MOL0     C81021   4.711   5.752   0.406 -0.1806  0.1802  0.3486
  601MOL0     C81022   4.762   5.853   0.312  0.0224 -0.2013  0.3154
  601MOL0     C81023   4.899   5.809   0.265 -1.0814 -1.3155  0.2215
  601MOL0     O81024   4.940   5.905   0.171 -0.3786 -0.4228 -0.3906
  601MOL0     C81025   5.071   5.891   0.119 -0.1594  1.0830  0.0055
  601MOL0     C81026   5.112   5.986   0.025 -0.2675  0.2804  1.0497
  601MOL0     C81027   5.242   5.975  -0.035 -0.2057 -0.3161  0.3220
  601MOL0     C81028   5.329   5.860  -0.004  0.1958  0.2782 -0.7482
  601MOL0     C81029   5.467   5.842  -0.056  0.3454 -0.2296  0.3339
  601MOL0     O81030   5.523   5.931  -0.150 -0.4063 -0.3720  0.4860
  601MOL0     C81031   5.658   5.931  -0.172 -0.3577 -0.2679 -0.5764
  601MOL0     C81032   5.707   5.840  -0.260  0.7830  0.6791 -0.2939
  601MOL0     C81033   5.843   5.828  -0.273 -0.0021  0.4574 -0.6866
  601MOL0     C81034   5.926   5.903  -0.184  0.2751 -0.0075  0.4164
  601MOL0     O81035   6.063   5.884  -0.180 -0.1014  0.6549  0.3729
  601MOL0     C81036   6.152   5.877  -0.297  0.9892  0.0527  0.3188
  601MOL0     C81037   6.154   6.015  -0.363  0.9023  0.0799  0.0766
  601MOL0     C81038   6.199   6.006  -0.513 -0.5523 -0.4771  0.1832
  601MOL0     C81039   6.222   6.140  -0.579  0.7563  0.1777 -0.9982
  601MOL0     C81040   6.357   6.197  -0.547  0.6725  0.4007 -0.2136
  601MOL0     C81041   6.385   6.335  -0.604 -0.0482 -0.3307 -0.2187
  601MOL0     C81042   6.541   6.346  -0.590  0.2261  0.0126  0.2597
  601MOL0     C81043   6.584   6.467  -0.663 -0.0056  0.0435  0.1440
  601MOL0    Cl81044   6.768   6.484  -0.667 -0.0852  0.4862 -0.0784
  601MOL0     C81045   5.871   5.986  -0.082 -0.2900  0.1823 -0.2827
  601MOL0     C81046   5.736   6.009  -0.080 -0.2493  0.4344 -0.3307
  601MOL0     O81047   5.528   5.746  -0.009  0.7066  0.3889 -0.3455
  601MOL0     C81048   5.282   5.768   0.093 -0.9713 -0.3553 -0.2932
  601MOL0     C81049   5.159   5.779   0.156 -0.0607  1.5533  0.0682
  601MOL0     N81050   4.585   5.933   0.618  0.2800  0.8298 -0.8763
  601MOL0     N81051   4.552   6.046   0.644  0.7950 -0.4958 -0.0974
  601MOL0     C81052   4.388   7.092   1.117  0.1701  0.4585  0.4261
  601MOL0     C81053   4.370   7.215   1.184  0.2190  0.5427 -0.7285
  601MOL0     C81054   4.193   7.585   1.352 -0.0307 -0.1365  0.2978
  601MOL0     C81055   4.071   7.605   1.423  0.2017  0.0244  0.8902
  601MOL0     C81056   4.027   7.733   1.461  0.1737 -0.7709  0.1874
  601MOL0     C81057   4.112   7.843   1.429 -0.3613 -0.1041  0.5242
  601MOL0     O81058   4.058   7.965   1.460  0.9793 -0.7225 -0.2799
  601MOL0     C81059   4.115   8.030   1.575 -0.2534  0.0825 -0.2744
  601MOL0     C81060   4.120   8.178   1.557  0.0120  0.5404  0.0577
  601MOL0     C81061   4.235   8.238   1.642  0.3673 -0.8798  0.4351
  601MOL0     C81062   4.236   8.392   1.636  0.2372  0.7370 -0.0462
  601MOL0     C81063   4.291   8.425   1.507  0.7462 -0.4102 -0.1399
  601MOL0     C81064   4.322   8.475   1.403  1.4931  0.3861  0.8648
  601MOL0     C81065   4.230   7.828   1.352 -0.4031  0.5392  0.4407
  601MOL0     C81066   4.271   7.696   1.309 -0.3993  0.4597  0.6426
  601MOL0     C81067   4.404   7.690   1.238 -0.6261  0.2564  0.1667
  601MOL0     H81068   4.125   7.334   0.988  0.2697  1.5585  2.0687
  601MOL0     H81069   4.147   7.109   0.887  1.7185  1.4438 -2.2390
  601MOL0     H81070   4.183   6.875   0.815 -0.8223  3.9706 -3.8415
  601MOL0     H81071   4.292   6.997   0.750 -0.6447  1.9564  1.5600
  601MOL0     H81072   4.476   6.849   0.728 -1.1567  0.4406 -1.3215
  601MOL0     H81073   4.335   6.800   0.637 -2.3046  2.1225  0.5016
  601MOL0     H81074   4.320   6.670   0.895  1.5971 -1.3170  1.3392
  601MOL0     H81075   4.468   6.635   0.823  0.0147  2.3567  0.4200
  601MOL0     H81076   4.291   6.472   0.775 -0.3264  0.7535 -0.1502
  601MOL0     H81077   4.196   6.589   0.684  0.1340 -1.0947 -0.2276
  601MOL0     H81078   4.386   6.624   0.525 -1.3476  0.2583  0.0107
  601MOL0     H81079   4.470   6.499   0.593  0.0423 -1.8312 -2.0590
  601MOL0     H81080   4.192   6.448   0.465 -0.4025 -1.3089  0.0577
  601MOL0     H81081   4.341   6.437   0.381  0.7368  1.2459  0.0086
  601MOL0     H81082   4.250   6.219   0.504 -0.2467  0.9297 -0.5254
  601MOL0     H81083   4.317   6.292   0.644  1.5422  2.3017  0.0968
  601MOL0     H81084   4.479   6.239   0.398 -4.2652  1.5885 -0.6261
  601MOL0     H81085   4.548   6.290   0.555 -1.0268  1.5408  0.2047
  601MOL0     H81086   4.406   6.001   0.346 -1.7976  2.4435  1.8588
  601MOL0     H81087   4.519   5.676   0.493 -2.3527  1.0796 -0.2114
  601MOL0     H81088   4.505   5.749   0.337  1.8761 -1.8498 -0.2239
  601MOL0     H81089   4.765   5.753   0.502 -0.7509 -1.1540  0.7132
  601MOL0     H81090   4.718   5.658   0.350 -3.9070  0.8078 -1.4903
  601MOL0     H81091   4.769   5.956   0.348  1.0335 -1.2809  3.4574
  601MOL0     H81092   4.696   5.851   0.225 -0.0258  0.1032  0.3419
  601MOL0     H81093   4.893   5.710   0.220 -0.2049  0.1804 -3.5060
  601MOL0     H81094   4.961   5.814   0.355  0.7311 -0.1826 -1.0263
  601MOL0     H81095   5.033   6.050  -0.012 -2.6040 -2.0776  1.6498
  601MOL0     H81096   5.276   6.039  -0.116  0.4174  0.0234  0.8430
  601MOL0     H81097   5.629   5.778  -0.302  1.8861  1.8991 -4.7227
  601MOL0     H81098   5.880   5.767  -0.355 -2.4480  2.6944 -3.7220
  601MOL0     H81099   6.244   5.840  -0.252 -1.2713 -4.1314  2.0618
  601MOL0     H81100   6.119   5.802  -0.369  2.4755 -2.7698  2.4194
  601MOL0     H81101   6.053   6.055  -0.358 -0.0969 -2.2130 -0.1982
  601MOL0     H81102   6.218   6.087  -0.312 -0.9635  0.4824  1.9894
  601MOL0     H81103   6.281   5.937  -0.534 -2.4078 -2.7957  0.1373
  601MOL0     H81104   6.121   5.957  -0.571 -0.4303  0.2653 -0.6447
  601MOL0     H81105   6.148   6.213  -0.544  0.7585 -0.2398 -0.1057
  601MOL0     H81106   6.204   6.129  -0.686 -0.0199  0.5356 -0.9168
  601MOL0     H81107   6.423   6.128  -0.600 -1.4759 -0.6876 -1.5675
  601MOL0     H81108   6.365   6.195  -0.438  0.4046  3.1373 -0.0737
  601MOL0     H81109   6.338   6.337  -0.703 -0.1241 -1.9844 -0.2580
  601MOL0     H81110   6.332   6.411  -0.546 -1.8099 -2.4270  1.0845
  601MOL0     H81111   6.591   6.261  -0.637  1.2473  1.9842 -2.4960
  601MOL0     H81112   6.569   6.346  -0.484  4.9432  0.1273 -0.7549
  601MOL0     H81113   6.553   6.463  -0.767  1.5548 -0.6780 -0.3290
  601MOL0     H81114   6.519   6.547  -0.625 -2.1489 -1.4233 -0.2510
  601MOL0     H81115   5.944   6.032  -0.017  0.6212 -2.9969  1.1741
  601MOL0     H81116   5.701   6.069   0.004  3.2143  0.9477  0.9132
  601MOL0     H81117   5.336   5.679   0.122 -0.9175  0.0770  1.0069
  601MOL0     H81118   5.126   5.710   0.232 -0.1968  2.5134  0.9053
  601MOL0     H81119   4.457   7.018   1.156 -1.7022 -3.0807 -2.3461
  601MOL0     H81120   4.422   7.246   1.274  0.4407 -0.2004 -0.5958
  601MOL0     H81121   4.017   7.514   1.446 -0.7402 -0.1358 -1.6876
  601MOL0     H81122   3.941   7.741   1.526  0.8900  0.5564  1.0292
  601MOL0     H81123   4.217   7.993   1.588 -0.2235 -0.3847 -1.6692
  601MOL0     H81124   4.059   7.997   1.664 -1.4494  0.3894 -0.8948
  601MOL0     H81125   4.029   8.236   1.572 -0.1617  0.9774 -2.2857
  601MOL0     H81126   4.135   8.193   1.450 -0.4419 -0.2138 -0.1224
  601MOL0     H81127   4.330   8.191   1.615  1.2000  1.1411 -0.3564
  601MOL0     H81128   4.214   8.208   1.745  2.7883 -4.3188  0.0754
  601MOL0     H81129   4.133   8.428   1.648 -0.3976 -0.3340 -1.9012
  601MOL0     H81130   4.301   8.427   1.717 -0.9207  0.1445  1.2047
  601MOL0     H81131   4.350   8.517   1.308  1.3357 -2.8329 -0.7511
  601MOL0     H81132   4.283   7.911   1.308 -4.7389  1.5948 -3.6307
  601MOL0     H81133   4.476   7.769   1.258  2.2443 -1.7070 -1.5916
  601MOL0     H81134   4.471   7.604   1.248 -1.9869 -0.7782  0.7261
  601MOL0     H81135   4.378   7.701   1.132 -1.6889 -2.7343  0.0117
  602MOL0     O81136   2.424  10.826   7.410 -0.0153  0.0791 -0.6455
  602MOL0     C81137   2.387  10.714   7.458  0.2002 -1.0560 -0.2545
  602MOL0     O81138   2.441  10.653   7.565  0.0590 -0.5972  0.3575
  602MOL0     C81139   2.569  10.686   7.589  0.3618  0.8572  0.8196
  602MOL0     C81140   2.611  10.764   7.702 -0.6930  0.2893 -0.1801
  602MOL0     C81141   2.740  10.793   7.727 -0.6480  0.2689 -0.9278
  602MOL0     C81142   2.845  10.728   7.651  0.2879  0.0182 -0.1725
  602MOL0     O81143   2.977  10.761   7.659 -0.1688 -0.1199  0.1272
  602MOL0     C81144   3.018  10.860   7.758  0.7713 -0.2492 -0.3981
  602MOL0     C81145   3.146  10.924   7.733 -0.3018 -0.8535 -0.3204
  602MOL0     C81146   3.195  11.024   7.838 -0.2439  0.3649 -0.6371
  602MOL0     C81147   3.342  11.083   7.815 -0.1106  1.1623  0.1874
  602MOL0     C81148   3.390  11.156   7.939  0.0467 -1.1777 -0.6514
  602MOL0     C81149   3.539  11.160   7.943 -0.3390 -0.3210 -0.1835
  602MOL0     C81150   3.589  11.232   8.068  0.2389  0.5033  0.5670
  602MOL0     C81151   3.739  11.226   8.068  0.7455  0.2854  0.9201
  602MOL0     N81152   3.808  11.286   7.961  0.3791  0.4421 -0.1752
  602MOL0     C81153   3.857  11.413   7.951  0.3046  0.0729  0.5674
  602MOL0     C81154   3.911  11.427   7.830 -0.0940 -0.4761 -0.5325
  602MOL0     C81155   3.986  11.548   7.776  0.2345 -0.2513  0.1501
  602MOL0     C81156   4.137  11.522   7.795 -1.6898  0.6901 -0.7833
  602MOL0     C81157   4.224  11.599   7.692 -0.8754 -0.2997 -0.5089
  602MOL0     C81158   4.201  11.755   7.693 -0.5269  0.1607 -0.8930
  602MOL0     O81159   4.065  11.785   7.649  0.0363 -0.5432 -0.0406
  602MOL0     C81160   4.007  11.902   7.702 -0.3313  0.2943  0.1795
  602MOL0     C81161   4.067  12.028   7.688  0.6322 -0.0179 -0.4485
  602MOL0     C81162   3.995  12.147   7.708  0.3243  0.1162  0.3221
  602MOL0     C81163   3.862  12.149   7.742  1.3248 -0.1358  0.2378
  602MOL0     C81164   3.791  12.275   7.759 -0.3457 -1.3401  1.0385
  602MOL0     O81165   3.883  12.380   7.771  0.4295 -1.0047 -0.7101
  602MOL0     C81166   3.850  12.514   7.803 -1.0234 -0.1327  0.0672
  602MOL0     C81167   3.959  12.594   7.821  0.2424 -0.7777  0.2397
  602MOL0     C81168   3.956  12.729   7.855  0.2945 -0.4749  0.1785
  602MOL0     C81169   3.828  12.792   7.863  0.2365 -0.7070 -0.8561
  602MOL0     O81170   3.834  12.929   7.882  0.5656 -0.2452 -0.4848
  602MOL0     C81171   3.709  13.007   7.857 -0.3404 -0.2859 -1.2002
  602MOL0     C81172   3.717  13.146   7.920 -0.4219  0.0906 -0.0846
  602MOL0     C81173   3.618  13.242   7.857 -0.8484  0.7083  0.3613
  602MOL0     C81174   3.615  13.376   7.933  0.1018  0.0442 -0.3991
  602MOL0     C81175   3.732  13.465   7.904 -0.0375 -0.6626  0.4181
  602MOL0     C81176   3.762  13.589   7.995  0.1938  0.1625  0.2945
  602MOL0     C81177   3.890  13.662   7.943  0.5075  0.1886 -0.6401
  602MOL0     C81178   3.875  13.740   7.813  0.3378  1.0462 -0.5732
  602MOL0    Cl81179   3.732  13.847   7.821  0.0333 -0.3000  0.1474
  602MOL0     C81180   3.714  12.711   7.853  0.8160  0.3222 -0.3894
  602MOL0     C81181   3.726  12.571   7.824 -0.3012  0.2328  0.0072
  602MOL0     O81182   3.672  12.285   7.769 -0.0426  0.2464  0.0647
  602MOL0     C81183   3.804  12.022   7.753  0.2517 -0.4060 -0.4389
  602MOL0     C81184   3.868  11.903   7.740 -0.2734  0.4492 -0.3172
  602MOL0     N81185   3.908  11.300   7.771  0.7513  0.2292 -0.3536
  602MOL0     N81186   3.844  11.221   7.849 -0.9604  0.5491 -0.0460
  602MOL0     C81187   2.803  10.651   7.546 -0.5612  0.3606  0.5621
  602MOL0     C81188   2.668  10.628   7.513 -0.5815 -0.2688  0.8270
  602MOL0     C81189   2.269  10.646   7.408 -1.1463 -0.5659 -0.4251
  602MOL0     C81190   2.162  10.593   7.479  0.3947  0.1131 -0.4153
  602MOL0     C81191   2.049  10.529   7.424  1.0854  0.3593 -0.4820
  602MOL0     C81192   2.041  10.513   7.287 -0.0572  0.2389  0.2692
  602MOL0     O81193   1.949  10.433   7.222 -0.6637  0.3256  0.7626
  602MOL0     C81194   1.988  10.298   7.195 -0.4292  0.8846 -0.4026
  602MOL0     C81195   1.927  10.196   7.285  0.3218  0.2307 -0.3641
  602MOL0     C81196   1.781  10.160   7.262  0.9536 -0.1724 -0.1419
  602MOL0     C81197   1.730  10.137   7.126  0.7222 -0.3409 -0.6352
  602MOL0     C81198   1.808  10.030   7.072  0.1524 -0.2840  0.2780
  602MOL0     C81199   1.877   9.952   7.015  0.4129  0.2465 -0.4039
  602MOL0     C81200   2.151  10.559   7.211 -0.5113 -1.1341  0.7521
  602MOL0     C81201   2.262  10.627   7.265 -0.7902  1.0552  1.1701
  602MOL0     C81202   2.371  10.653   7.166  0.2301 -0.1581 -0.2019
  602MOL0     H81203   2.527  10.813   7.751 -2.9670 -0.6149 -2.8329
  602MOL0     H81204   2.766  10.860   7.809  0.7895 -1.1728 -0.1635
  602MOL0     H81205   2.951  10.945   7.775  0.1207 -0.7579 -0.3793
  602MOL0     H81206   3.029  10.808   7.854 -0.5418 -1.2313 -0.7633
  602MOL0     H81207   3.139  10.979   7.638  3.7973  2.3372  0.9497
  602MOL0     H81208   3.226  10.849   7.726  1.4421  0.7461  1.4356
  602MOL0     H81209   3.198  10.970   7.933  0.3851  0.2592 -0.7088
  602MOL0     H81210   3.119  11.099   7.861 -0.2963 -0.3076  1.6502
  602MOL0     H81211   3.403  10.994   7.799 -0.1138  0.7435  2.1785
  602MOL0     H81212   3.342  11.146   7.726  1.6908 -1.2780 -1.6841
  602MOL0     H81213   3.346  11.257   7.934 -2.3350 -2.0728  0.6892
  602MOL0     H81214   3.350  11.109   8.029  1.4884  1.7054  1.6569
  602MOL0     H81215   3.572  11.056   7.956  0.1976 -0.2539 -0.9473
  602MOL0     H81216   3.577  11.212   7.855 -2.3323  2.5649  0.5381
  602MOL0     H81217   3.573  11.181   8.164 -0.7858 -3.3907 -1.4752
  602MOL0     H81218   3.541  11.331   8.067 -2.5725 -0.7284 -1.3642
  602MOL0     H81219   3.779  11.273   8.159  3.2158  1.6923 -0.7647
  602MOL0     H81220   3.755  11.117   8.069 -0.4919  0.0562 -0.5939
  602MOL0     H81221   3.868  11.487   8.030 -1.8976  2.1467 -0.9129
  602MOL0     H81222   3.973  11.542   7.668  2.8100 -2.5250 -0.1565
  602MOL0     H81223   3.940  11.636   7.821 -2.3080 -1.1535 -0.5644
  602MOL0     H81224   4.156  11.547   7.900 -0.3308 -1.4831 -0.4486
  602MOL0     H81225   4.159  11.415   7.785 -1.7015  0.6847 -0.7511
  602MOL0     H81226   4.206  11.569   7.589 -0.1901  1.4073 -1.1742
  602MOL0     H81227   4.328  11.573   7.711 -1.1380 -0.9591  0.0630
  602MOL0     H81228   4.265  11.799   7.616  1.1163 -1.5262 -0.5418
  602MOL0     H81229   4.222  11.799   7.791 -0.4309 -1.5570 -0.1166
  602MOL0     H81230   4.168  12.048   7.655 -0.3802  3.5822 -1.8141
  602MOL0     H81231   4.044  12.243   7.690  2.0339 -0.9804 -1.2444
  602MOL0     H81232   4.049  12.534   7.823  0.5655 -0.2845  0.8517
  602MOL0     H81233   4.044  12.792   7.848 -0.6695  0.8426 -0.3701
  602MOL0     H81234   3.703  13.013   7.748  2.2264  0.4857 -1.3561
  602MOL0     H81235   3.627  12.954   7.908 -0.6749 -0.5196 -1.9605
  602MOL0     H81236   3.692  13.131   8.025 -2.2200  0.6137 -0.4075
  602MOL0     H81237   3.819  13.181   7.905  0.5334 -1.3982  2.4326
  602MOL0     H81238   3.644  13.270   7.754  0.0013  5.6450  1.6884
  602MOL0     H81239   3.521  13.191   7.848 -0.5334 -0.0492  1.0633
  602MOL0     H81240   3.605  13.358   8.041  0.9812 -0.3814 -0.3784
  602MOL0     H81241   3.519  13.428   7.926  1.0407  1.9352  0.1249
  602MOL0     H81242   3.723  13.510   7.805  0.6067 -0.2890  0.5219
  602MOL0     H81243   3.817  13.397   7.910  0.6892  0.3228  2.4164
  602MOL0     H81244   3.678  13.659   7.995  0.6991  0.7884  0.8664
  602MOL0     H81245   3.800  13.555   8.093  0.5385 -3.8611 -1.0552
  602MOL0     H81246   3.970  13.589   7.931 -1.5872 -2.4748  0.5523
  602MOL0     H81247   3.929  13.735   8.015  2.1478 -0.8691 -0.4107
  602MOL0     H81248   3.955  13.809   7.785  1.3177  0.2822  0.2528
  602MOL0     H81249   3.874  13.670   7.729  0.8934 -1.2835  1.2459
  602MOL0     H81250   3.612  12.743   7.871 -0.2368 -1.6479 -2.3280
  602MOL0     H81251   3.633  12.515   7.826 -1.5816  2.1976 -0.5176
  602MOL0     H81252   3.698  12.008   7.774 -0.4679  2.4110 -1.6826
  602MOL0     H81253   3.811  11.812   7.749  0.8907 -0.1530  1.7195
  602MOL0     H81254   2.876  10.613   7.474 -0.6359  1.0854  0.0870
  602MOL0     H81255   2.631  10.573   7.428  1.8864  0.2441 -0.6805
  602MOL0     H81256   2.165  10.588   7.588  1.8223  0.0902 -0.4385
  602MOL0     H81257   1.982  10.472   7.489 -0.0569  2.3662  0.2018
  602MOL0     H81258   2.095  10.285   7.212 -0.3908  0.3565 -1.0105
  602MOL0     H81259   1.978  10.276   7.089 -0.6987 -0.4223 -0.1241
  602MOL0     H81260   1.932  10.227   7.390 -5.9938 -4.4295  1.9130
  602MOL0     H81261   1.988  10.105   7.282  1.8958  1.1628  1.0696
  602MOL0     H81262   1.711  10.230   7.310  0.4942 -1.3038  0.8915
  602MOL0     H81263   1.769  10.067   7.318  1.5207  0.3879  0.9582
  602MOL0     H81264   1.631  10.090   7.128  1.6495 -2.3785  1.1190
  602MOL0     H81265   1.727  10.230   7.068  0.5060 -0.3065 -0.5685
  602MOL0     H81266   1.948   9.888   6.967  1.9805  1.5924  0.0347
  602MOL0     H81267   2.154  10.529   7.107  3.0927 -1.5475  0.8378
  602MOL0     H81268   2.460  10.608   7.212 -0.0955  1.2965  1.9891
  602MOL0     H81269   2.346  10.613   7.067  4.0478  0.3535 -1.5757
  602MOL0     H81270   2.390  10.760   7.159  1.3303 -0.1603  1.8614
  603MOL0     O81271   3.637   0.364   7.939  0.0628  0.4986  0.5791
  603MOL0     C81272   3.547   0.353   8.015  0.3328 -0.3867 -1.3919
  603MOL0     O81273   3.549   0.404   8.145 -0.2051  0.0619 -0.4770
  603MOL0     C81274   3.651   0.479   8.196  0.1184  0.1012 -0.8687
  603MOL0     C81275   3.730   0.567   8.126  0.9058 -0.7723  0.6656
  603MOL0     C81276   3.827   0.636   8.189 -0.0965  0.8449  0.1408
  603MOL0     C81277   3.843   0.636   8.324  0.9179  0.4565 -0.3231
  603MOL0     O81278   3.943   0.710   8.376 -0.6595  0.2468 -0.9721
  603MOL0     C81279   4.005   0.663   8.501 -0.3139  0.0289  0.1731
  603MOL0     C81280   4.116   0.758   8.536  0.1639 -1.4945 -0.2372
  603MOL0     C81281   4.073   0.898   8.593  0.0042  0.5149 -0.3991
  603MOL0     C81282   4.191   1.000   8.597  0.2070 -0.0940 -0.5182
  603MOL0     C81283   4.150   1.129   8.659  0.4052 -0.2088  0.2597
  603MOL0     C81284   4.258   1.246   8.631  0.2609  0.5216  0.4387
  603MOL0     C81285   4.217   1.379   8.697  0.1798  0.0747  0.7267
  603MOL0     C81286   4.083   1.432   8.646 -0.3008 -0.2972  0.0753
  603MOL0     N81287   4.073   1.433   8.502  0.0649  0.2961  0.8852
  603MOL0     C81288   4.148   1.511   8.420  0.6628 -0.3579 -0.2883
  603MOL0     C81289   4.101   1.493   8.297 -0.8492 -1.0431  0.0633
  603MOL0     C81290   4.127   1.581   8.177  0.1113 -0.4842 -0.1559
  603MOL0     C81291   4.227   1.523   8.082  0.2205 -0.9013 -0.5792
  603MOL0     C81292   4.218   1.602   7.954 -0.0968 -0.2457  0.0137
  603MOL0     C81293   4.337   1.586   7.871 -0.8429  0.4215  0.0002
  603MOL0     O81294   4.322   1.623   7.733 -0.3507 -0.0831 -0.3804
  603MOL0     C81295   4.432   1.643   7.654 -0.1343  0.0108 -0.6112
  603MOL0     C81296   4.566   1.627   7.695  0.7445  0.6047 -0.0280
  603MOL0     C81297   4.664   1.642   7.604 -0.5999 -0.5647 -0.3580
  603MOL0     C81298   4.631   1.669   7.472 -0.0794  0.2176 -0.0990
  603MOL0     C81299   4.736   1.691   7.380  1.0223  0.0219  0.4414
  603MOL0     O81300   4.871   1.706   7.430  0.0401 -0.6182 -0.0899
  603MOL0     C81301   4.956   1.787   7.365 -0.7851  0.1300  0.8799
  603MOL0     C81302   4.918   1.912   7.305 -0.8353  0.5320 -0.2096
  603MOL0     C81303   5.024   1.986   7.234  0.3866 -0.0405 -0.1753
  603MOL0     C81304   5.161   1.955   7.241 -0.6156 -0.1980  0.6190
  603MOL0     O81305   5.267   2.029   7.181 -0.8614 -0.7353  0.4387
  603MOL0     C81306   5.247   2.077   7.048  0.4462 -0.1562 -1.6739
  603MOL0     C81307   5.219   1.955   6.948  0.0985 -0.2096 -0.2662
  603MOL0     C81308   5.351   1.878   6.921  0.5093 -0.2051 -0.3760
  603MOL0     C81309   5.339   1.777   6.808 -0.0779  0.2777 -0.1733
  603MOL0     C81310   5.469   1.724   6.756 -0.0718 -0.8052 -0.7194
  603MOL0     C81311   5.527   1.811   6.650 -0.4558 -0.2652  0.1824
  603MOL0     C81312   5.677   1.775   6.644 -0.2403  0.3635  0.0331
  603MOL0     C81313   5.734   1.808   6.504  0.0949  0.1816  0.1247
  603MOL0    Cl81314   5.910   1.825   6.506  0.4643  0.1842  0.4682
  603MOL0     C81315   5.194   1.826   7.306  0.2300 -0.1196 -0.5009
  603MOL0     C81316   5.096   1.745   7.376  0.1069 -0.6486  0.4515
  603MOL0     O81317   4.695   1.709   7.262 -0.0354 -0.6957  0.2902
  603MOL0     C81318   4.499   1.702   7.440 -0.4463 -0.1231 -0.0357
  603MOL0     C81319   4.397   1.685   7.529  0.0335  0.4270 -0.7387
  603MOL0     N81320   4.010   1.384   8.302  0.4031 -0.0394 -0.4981
  603MOL0     N81321   3.999   1.344   8.426  0.5081 -0.4642  0.5743
  603MOL0     C81322   3.754   0.550   8.401 -0.7361 -0.4048 -0.6357
  603MOL0     C81323   3.652   0.478   8.332  0.1295 -0.6449  0.1437
  603MOL0     C81324   3.416   0.273   7.994  0.2512 -0.2951  0.9705
  603MOL0     C81325   3.315   0.290   8.089  0.1919 -0.1555 -0.3279
  603MOL0     C81326   3.203   0.205   8.078 -0.2625 -0.1204 -0.7249
  603MOL0     C81327   3.183   0.105   7.983 -0.0614 -0.2412 -0.0023
  603MOL0     O81328   3.061   0.047   7.997  0.4988  0.0125 -0.0348
  603MOL0     C81329   3.000  -0.022   7.885  0.0768  0.6538 -0.1337
  603MOL0     C81330   2.848  -0.032   7.913  0.0637 -0.6029  0.2402
  603MOL0     C81331   2.815  -0.155   7.984 -0.5940 -0.0093  0.8211
  603MOL0     C81332   2.665  -0.173   8.012  0.3974  0.2675 -1.2568
  603MOL0     C81333   2.614  -0.313   8.028 -0.0292 -0.1993  0.3391
  603MOL0     C81334   2.566  -0.421   8.054  0.1131 -0.3521  0.5349
  603MOL0     C81335   3.285   0.091   7.885 -0.1548 -0.1034  0.1909
  603MOL0     C81336   3.398   0.174   7.886  0.2477  0.5316 -0.5916
  603MOL0     C81337   3.505   0.136   7.787 -0.0623  0.7638  0.7718
  603MOL0     H81338   3.719   0.583   8.019  2.1053  1.1877  0.7753
  603MOL0     H81339   3.896   0.696   8.132 -1.2669 -0.4364 -2.8705
  603MOL0     H81340   3.939   0.647   8.586 -1.2470 -0.2735 -0.5849
  603MOL0     H81341   4.044   0.566   8.469  1.4467  1.5554 -2.7716
  603MOL0     H81342   4.170   0.782   8.444 -0.8463  0.7135 -0.2941
  603MOL0     H81343   4.178   0.712   8.614 -0.7954 -0.5332  1.1359
  603MOL0     H81344   4.028   0.877   8.691  0.3877 -0.5708 -0.4391
  603MOL0     H81345   3.996   0.936   8.526  1.7927 -0.7189 -3.3832
  603MOL0     H81346   4.268   0.964   8.666  0.7080  2.2454  0.2452
  603MOL0     H81347   4.229   1.009   8.495 -1.6669  0.2443 -1.2320
  603MOL0     H81348   4.055   1.149   8.609  1.2089  1.8807 -0.5540
  603MOL0     H81349   4.125   1.117   8.765  3.0919  1.3467  1.1862
  603MOL0     H81350   4.356   1.205   8.657  0.4056  0.3969 -0.3037
  603MOL0     H81351   4.272   1.265   8.525 -1.7213  1.2703  0.2648
  603MOL0     H81352   4.295   1.456   8.693  1.3052 -0.9324  2.0972
  603MOL0     H81353   4.204   1.361   8.804  1.2858 -3.9609  0.3178
  603MOL0     H81354   4.002   1.370   8.686 -0.4257  0.3966  0.9320
  603MOL0     H81355   4.065   1.533   8.684  1.1287  0.7263 -1.7806
  603MOL0     H81356   4.212   1.597   8.439  2.0711 -0.5308 -3.5601
  603MOL0     H81357   4.030   1.586   8.126  0.6548 -1.0163 -1.3098
  603MOL0     H81358   4.159   1.681   8.205  0.7626 -0.8486  0.4322
  603MOL0     H81359   4.323   1.539   8.132 -0.8436  2.0525  0.7029
  603MOL0     H81360   4.211   1.418   8.055  1.5586 -0.3349 -3.9510
  603MOL0     H81361   4.190   1.707   7.968 -0.9829 -0.6132  1.2218
  603MOL0     H81362   4.124   1.563   7.914 -0.3996 -2.8003  2.8264
  603MOL0     H81363   4.351   1.478   7.862 -0.8374  0.5853 -2.6829
  603MOL0     H81364   4.426   1.630   7.918 -0.3638 -0.3237 -0.1915
  603MOL0     H81365   4.591   1.604   7.798  0.0133 -2.2160 -0.4108
  603MOL0     H81366   4.769   1.629   7.628 -0.8319 -0.5068  0.7614
  603MOL0     H81367   4.815   1.946   7.313 -1.3105 -1.1491  1.6977
  603MOL0     H81368   4.996   2.072   7.174  1.3046  0.7989  0.5550
  603MOL0     H81369   5.166   2.151   7.041  1.4158  0.8947 -2.1562
  603MOL0     H81370   5.340   2.129   7.023  0.0605  0.0216 -2.7999
  603MOL0     H81371   5.144   1.893   6.997 -0.2905 -0.8437 -1.6249
  603MOL0     H81372   5.181   1.989   6.851 -0.1187 -3.1672 -1.3037
  603MOL0     H81373   5.427   1.948   6.886 -0.1729  0.4397 -0.6111
  603MOL0     H81374   5.390   1.834   7.012  0.3956  2.0166  0.8284
  603MOL0     H81375   5.291   1.830   6.726  2.3147  0.2261 -1.7225
  603MOL0     H81376   5.269   1.702   6.847 -2.0986  3.4805  2.9139
  603MOL0     H81377   5.448   1.632   6.701 -0.5785 -0.1034 -1.7177
  603MOL0     H81378   5.536   1.722   6.843 -1.2645  2.0527  0.3880
  603MOL0     H81379   5.472   1.795   6.557 -0.8757  0.7920  0.2403
  603MOL0     H81380   5.508   1.916   6.670 -2.6745  0.0773 -2.9766
  603MOL0     H81381   5.692   1.668   6.660  0.7200  0.8070  2.6953
  603MOL0     H81382   5.732   1.827   6.723  1.0147 -1.0224  0.1037
  603MOL0     H81383   5.701   1.740   6.426 -1.6840  2.6395 -1.3885
  603MOL0     H81384   5.688   1.906   6.489 -3.0643 -1.1238  0.6637
  603MOL0     H81385   5.295   1.791   7.285  0.7542 -0.3516  2.0612
  603MOL0     H81386   5.124   1.652   7.423  2.1011  0.2168  1.1007
  603MOL0     H81387   4.468   1.752   7.349 -0.1058  0.5055  0.1852
  603MOL0     H81388   4.293   1.685   7.500  0.1784  1.3969 -1.2673
  603MOL0     H81389   3.753   0.550   8.509 -2.1152  2.0751 -0.5509
  603MOL0     H81390   3.573   0.419   8.379 -1.3030  0.1888 -1.0980
  603MOL0     H81391   3.318   0.371   8.160  1.2124 -2.9745  3.1214
  603MOL0     H81392   3.120   0.223   8.146  2.0294  0.7869  2.0763
  603MOL0     H81393   3.043  -0.122   7.878  1.2079  1.0181  1.2761
  603MOL0     H81394   3.012   0.038   7.794 -1.6717 -0.2494 -1.0297
  603MOL0     H81395   2.791  -0.027   7.819  1.3511 -1.2867 -0.6041
  603MOL0     H81396   2.819   0.049   7.980  1.3184  0.6065 -0.6326
  603MOL0     H81397   2.874  -0.155   8.077 -1.3269  0.2022  1.2891
  603MOL0     H81398   2.858  -0.239   7.928 -0.0200  0.6936  0.1758
  603MOL0     H81399   2.641  -0.112   8.100 -0.4527  1.3813 -2.2383
  603MOL0     H81400   2.622  -0.147   7.915 -1.5220 -1.9565 -1.0766
  603MOL0     H81401   2.519  -0.518   8.053 -1.4612  0.3668 -1.2103
  603MOL0     H81402   3.277   0.012   7.811 -1.6831 -0.9134  1.1821
  603MOL0     H81403   3.511   0.221   7.719  3.4640 -1.2627 -1.7817
  603MOL0     H81404   3.597   0.107   7.838 -1.9129 -2.5410  2.6086
  603MOL0     H81405   3.484   0.048   7.725  0.7010  1.4897 -0.5597
  604MOL0     O81406  10.403   2.334   9.752 -0.0901 -0.0870 -0.7732
  604MOL0     C81407  10.361   2.231   9.811 -1.5598 -0.4127  1.0035
  604MOL0     O81408  10.440   2.168   9.897  0.4759 -0.0535 -0.4821
  604MOL0     C81409  10.565   2.227   9.930 -0.0319 -0.1766 -0.2961
  604MOL0     C81410  10.587   2.315  10.032 -0.7990 -0.2999 -0.5313
  604MOL0     C81411  10.716   2.353  10.070  0.1659 -0.7939 -0.0846
  604MOL0     C81412  10.832   2.305  10.005 -0.6390 -0.0145 -0.9493
  604MOL0     O81413  10.957   2.350  10.042 -0.7163  0.2361  0.7244
  604MOL0     C81414  11.054   2.348   9.936 -0.5047 -0.2396 -0.1831
  604MOL0     C81415  11.180   2.410   9.999  0.8638  0.4679  0.4228
  604MOL0     C81416  11.165   2.558  10.015 -0.1508  0.0303 -0.2020
  604MOL0     C81417  11.302   2.635   9.991  0.5294 -0.4454 -0.5426
  604MOL0     C81418  11.291   2.784  10.012 -0.1392  0.5039 -0.5780
  604MOL0     C81419  11.403   2.858   9.940  0.3784  0.7547  0.1205
  604MOL0     C81420  11.397   3.010   9.995  0.1086  0.8038  0.1188
  604MOL0     C81421  11.517   3.052  10.080 -0.0626  0.1506  0.0809
  604MOL0     N81422  11.639   3.088  10.009 -0.1549  0.1672 -0.0548
  604MOL0     C81423  11.686   3.210   9.967  0.2471 -1.1642  0.1950
  604MOL0     C81424  11.799   3.180   9.898  0.1217 -0.5308 -0.5943
  604MOL0     C81425  11.886   3.281   9.834 -0.1895  0.0247  0.0673
  604MOL0     C81426  12.017   3.223   9.773  0.0401  0.6729 -0.3809
  604MOL0     C81427  12.082   3.322   9.695 -0.1725 -0.5313  0.1496
  604MOL0     C81428  12.221   3.292   9.655 -0.4472 -0.1683  0.3999
  604MOL0     O81429  12.238   3.165   9.598 -0.4082  0.6094 -0.6664
  604MOL0     C81430  12.350   3.145   9.522  0.0616 -0.1089 -0.6677
  604MOL0     C81431  12.356   3.045   9.426 -0.2064 -0.5175  0.1171
  604MOL0     C81432  12.482   3.009   9.374 -0.3038  0.4555 -0.6603
  604MOL0     C81433  12.599   3.084   9.398  0.0035  0.6421 -0.7675
  604MOL0     C81434  12.731   3.026   9.346 -0.4232 -1.7089  0.0392
  604MOL0     O81435  12.730   2.904   9.290 -0.4822  0.0639 -0.1208
  604MOL0     C81436  12.821   2.846   9.209 -0.1419  0.0998 -0.3665
  604MOL0     C81437  12.777   2.717   9.159  0.6605 -0.5455 -0.1197
  604MOL0     C81438  12.856   2.643   9.071  0.7093 -0.0413 -0.1400
  604MOL0     C81439  12.982   2.690   9.036 -0.4913  0.5996 -0.1346
  604MOL0     O81440  13.068   2.624   8.951  0.3079  0.0761  0.5112
  604MOL0     C81441  13.020   2.522   8.861 -0.9778  0.2666 -0.3565
  604MOL0     C81442  13.144   2.485   8.789  0.1112  0.9328  0.3752
  604MOL0     C81443  13.167   2.590   8.673 -0.0576  0.2074 -0.1219
  604MOL0     C81444  13.310   2.593   8.618 -0.1220  0.1993 -0.5148
  604MOL0     C81445  13.322   2.678   8.484 -0.6588 -0.3520 -0.1965
  604MOL0     C81446  13.469   2.670   8.435 -1.5303 -0.9895  0.2169
  604MOL0     C81447  13.486   2.754   8.299  0.1101  0.8737  0.1237
  604MOL0     C81448  13.622   2.759   8.242  0.6413  0.5451 -0.1610
  604MOL0    Cl81449  13.714   2.882   8.320  0.2771  0.0658  0.0295
  604MOL0     C81450  13.028   2.812   9.083 -0.2725  0.1117  0.1463
  604MOL0     C81451  12.951   2.898   9.167  0.8290  0.2843  0.0059
  604MOL0     O81452  12.830   3.095   9.357 -0.7338 -0.5703  0.4055
  604MOL0     C81453  12.590   3.191   9.497 -0.3028  0.2580  0.5975
  604MOL0     C81454  12.470   3.216   9.559  0.5732 -1.2441  0.9998
  604MOL0     N81455  11.828   3.042   9.906 -0.6202 -0.0583 -0.6218
  604MOL0     N81456  11.730   2.991   9.966 -0.3277  0.6551  0.4125
  604MOL0     C81457  10.806   2.207   9.903  0.3879 -1.1068  0.9454
  604MOL0     C81458  10.678   2.167   9.865  0.1758  0.2131 -0.3038
  604MOL0     C81459  10.225   2.197   9.794  0.2752 -0.2298 -1.3822
  604MOL0     C81460  10.130   2.300   9.798 -0.5279 -0.0136 -1.4910
  604MOL0     C81461   9.996   2.272   9.796  1.0685 -0.0165  1.0689
  604MOL0     C81462   9.957   2.137   9.759 -0.7927 -1.1499 -0.8701
  604MOL0     O81463   9.836   2.099   9.710 -0.3223 -0.9356  0.3477
  604MOL0     C81464   9.736   2.198   9.681  0.2613  0.1281  0.7507
  604MOL0     C81465   9.612   2.139   9.607  0.3289  0.2632  0.5869
  604MOL0     C81466   9.521   2.045   9.691  1.1525  0.2212  0.4477
  604MOL0     C81467   9.575   1.902   9.683  0.4539  0.1032  0.4865
  604MOL0     C81468   9.477   1.803   9.726 -1.0166 -0.0997 -0.2299
  604MOL0     C81469   9.391   1.712   9.744 -0.0356 -0.8269 -0.7603
  604MOL0     C81470  10.046   2.044   9.744 -0.7634  0.0448  0.0798
  604MOL0     C81471  10.184   2.071   9.768  0.0279 -0.0302  0.3643
  604MOL0     C81472  10.282   1.955   9.746  0.3894  0.5707 -0.1712
  604MOL0     H81473  10.500   2.359  10.080 -0.4807  0.0248 -0.2424
  604MOL0     H81474  10.724   2.430  10.147 -0.0888 -0.9123  0.0612
  604MOL0     H81475  11.075   2.243   9.915 -5.3546 -2.2446  3.1440
  604MOL0     H81476  11.020   2.409   9.851 -2.7974 -1.3663 -0.1542
  604MOL0     H81477  11.266   2.382   9.938 -1.9724 -3.1420 -2.4133
  604MOL0     H81478  11.206   2.371  10.098  2.7791  0.3426 -0.0910
  604MOL0     H81479  11.124   2.597  10.108  0.4088 -1.3703  0.6529
  604MOL0     H81480  11.102   2.595   9.933 -0.4541  0.3762  0.1840
  604MOL0     H81481  11.376   2.589  10.057  0.3560  0.3179  0.1929
  604MOL0     H81482  11.331   2.627   9.886 -0.7759  1.0345 -1.0602
  604MOL0     H81483  11.194   2.816   9.973 -1.6800  1.5815  3.6442
  604MOL0     H81484  11.282   2.804  10.119 -4.1679 -0.8084 -0.5193
  604MOL0     H81485  11.501   2.818   9.970 -1.2001 -2.4114  1.5055
  604MOL0     H81486  11.381   2.850   9.834 -1.0816  0.4852  0.4260
  604MOL0     H81487  11.308   3.026  10.057 -1.0643  0.3213 -1.3610
  604MOL0     H81488  11.374   3.071   9.907  0.3395 -1.7037 -1.8018
  604MOL0     H81489  11.491   3.140  10.139 -0.3549 -0.2318  0.5331
  604MOL0     H81490  11.543   2.978  10.158 -0.5066  0.5697  0.6308
  604MOL0     H81491  11.649   3.312   9.977  1.9437 -0.6678  2.0147
  604MOL0     H81492  11.836   3.308   9.741 -2.0460 -1.8685  0.4274
  604MOL0     H81493  11.913   3.365   9.898 -2.1757  0.1171  0.8344
  604MOL0     H81494  12.082   3.193   9.856 -0.9428  1.9419  0.9038
  604MOL0     H81495  11.986   3.130   9.724  1.9623  0.1752 -0.7009
  604MOL0     H81496  12.082   3.412   9.758 -3.3401  0.0089 -0.4644
  604MOL0     H81497  12.033   3.338   9.599  1.0857 -1.8636 -0.7554
  604MOL0     H81498  12.282   3.306   9.744 -0.9142  0.6121  0.6096
  604MOL0     H81499  12.257   3.373   9.590 -0.5470  1.3016  2.1055
  604MOL0     H81500  12.276   2.981   9.391 -1.3547 -0.0205  1.7283
  604MOL0     H81501  12.489   2.918   9.314  1.1945 -0.5933  0.9967
  604MOL0     H81502  12.682   2.682   9.198  3.0412 -2.0414  5.1494
  604MOL0     H81503  12.819   2.546   9.041 -0.7601  0.1674  0.8787
  604MOL0     H81504  12.972   2.434   8.906 -0.4718 -0.0516 -0.4208
  604MOL0     H81505  12.943   2.566   8.798  0.1808  4.0187  0.5986
  604MOL0     H81506  13.236   2.489   8.849  2.5535 -0.0967 -2.9912
  604MOL0     H81507  13.133   2.386   8.746 -1.0443  1.3304 -0.2789
  604MOL0     H81508  13.104   2.557   8.590 -2.4665 -0.9239  2.0193
  604MOL0     H81509  13.134   2.691   8.698 -1.0797 -0.1421 -0.0061
  604MOL0     H81510  13.350   2.492   8.612  1.1042  0.6856 -0.8334
  604MOL0     H81511  13.377   2.640   8.691  0.3744 -0.4494 -0.5451
  604MOL0     H81512  13.279   2.777   8.502 -0.9582 -0.3871 -0.6888
  604MOL0     H81513  13.257   2.629   8.411 -0.7981  0.2948 -0.5227
  604MOL0     H81514  13.527   2.717   8.515 -0.6106 -2.0371  0.1863
  604MOL0     H81515  13.516   2.572   8.443  1.7039  0.5616  2.9371
  604MOL0     H81516  13.465   2.861   8.314  0.3882  0.6173  2.8673
  604MOL0     H81517  13.421   2.709   8.223 -1.8093  1.5912  1.2463
  604MOL0     H81518  13.683   2.668   8.246  1.3427  1.0128 -0.0565
  604MOL0     H81519  13.607   2.776   8.135 -0.4629  0.8619  0.0409
  604MOL0     H81520  13.129   2.840   9.055 -0.1795  0.5888  0.9347
  604MOL0     H81521  12.995   2.997   9.181 -0.0595  0.8654 -1.1528
  604MOL0     H81522  12.674   3.254   9.524  1.4932 -0.9868 -1.6737
  604MOL0     H81523  12.477   3.290   9.638  0.5614 -0.1024 -0.0571
  604MOL0     H81524  10.878   2.164   9.835  0.0342 -0.9937  0.4881
  604MOL0     H81525  10.666   2.086   9.793 -0.8421  3.2036 -3.7903
  604MOL0     H81526  10.153   2.402   9.828  0.4794 -1.1159  2.0235
  604MOL0     H81527   9.928   2.356   9.792  0.0628 -0.5919  3.8109
  604MOL0     H81528   9.786   2.277   9.625 -3.0117  1.8161 -0.0243
  604MOL0     H81529   9.686   2.245   9.766 -5.0012 -2.1663 -0.6528
  604MOL0     H81530   9.646   2.081   9.521 -1.0873  2.0833 -1.2872
  604MOL0     H81531   9.550   2.220   9.568  1.6826  1.6531  1.1975
  604MOL0     H81532   9.422   2.045   9.644  1.1279  0.0947  0.4999
  604MOL0     H81533   9.512   2.089   9.791 -2.7759  2.8925 -0.8357
  604MOL0     H81534   9.602   1.881   9.579  0.0193  4.2084 -0.6483
  604MOL0     H81535   9.672   1.876   9.727  0.0414 -5.0522 -0.9693
  604MOL0     H81536   9.321   1.632   9.756  0.9004 -1.4851  0.5020
  604MOL0     H81537  10.013   1.940   9.736  1.9009 -0.7339 -2.4370
  604MOL0     H81538  10.334   1.936   9.841  0.5177  0.4647 -0.2617
  604MOL0     H81539  10.237   1.861   9.712  0.2208  0.1371  1.1729
  604MOL0     H81540  10.362   1.979   9.676  0.9120 -0.2271  0.1308
  605MOL0     O81541   0.012   9.115   3.686  0.0602 -0.6429  0.3686
  605MOL0     C81542  -0.062   9.103   3.785  0.8855  0.7749  0.3452
  605MOL0     O81543  -0.040   9.163   3.903  0.5875 -0.4969 -0.1924
  605MOL0     C81544   0.087   9.207   3.922  0.3017 -0.2498 -0.4275
  605MOL0     C81545   0.177   9.144   4.003  0.8579  0.7341 -0.6439
  605MOL0     C81546   0.302   9.203   4.027  0.4973  0.6665  0.4767
  605MOL0     C81547   0.340   9.312   3.954 -0.5470 -0.3171 -0.0036
  605MOL0     O81548   0.475   9.342   3.968  0.2024  0.4280  0.2061
  605MOL0     C81549   0.539   9.449   3.898 -0.0805 -0.3617 -0.5346
  605MOL0     C81550   0.684   9.471   3.944 -0.7948 -0.1941 -0.2487
  605MOL0     C81551   0.757   9.578   3.869 -1.5015 -0.3870  0.5502
  605MOL0     C81552   0.907   9.566   3.878 -0.8653  0.1745 -0.0303
  605MOL0     C81553   0.957   9.450   3.787 -0.3387  0.5573 -1.0841
  605MOL0     C81554   1.109   9.473   3.783  0.2759 -0.2767 -0.0296
  605MOL0     C81555   1.180   9.338   3.746  1.3236  0.3704  0.3745
  605MOL0     C81556   1.319   9.348   3.682 -0.0362  0.2569  0.0774
  605MOL0     N81557   1.428   9.407   3.764 -0.1917  0.8081 -0.4172
  605MOL0     C81558   1.566   9.403   3.741 -0.6183 -0.6786  0.5564
  605MOL0     C81559   1.628   9.436   3.862  1.3669 -0.1096  1.0714
  605MOL0     C81560   1.776   9.436   3.883 -0.7682  0.0063  0.0511
  605MOL0     C81561   1.821   9.561   3.963  0.6569 -0.9162  0.2312
  605MOL0     C81562   1.940   9.531   4.061  0.2046 -0.1175 -0.1601
  605MOL0     C81563   2.025   9.646   4.100  0.3969  0.1568  0.0339
  605MOL0     O81564   2.084   9.732   3.997 -0.1100  0.0454 -0.2709
  605MOL0     C81565   2.218   9.733   3.989  0.2414 -0.1949 -0.3085
  605MOL0     C81566   2.288   9.841   4.050 -0.5877 -1.4993  0.1222
  605MOL0     C81567   2.433   9.845   4.050 -0.3502 -1.0290  0.1406
  605MOL0     C81568   2.505   9.758   3.974 -0.4828 -0.8081  0.4761
  605MOL0     C81569   2.655   9.787   3.971  0.1486  0.3643 -0.1250
  605MOL0     O81570   2.730   9.674   3.932 -0.0346  0.0695 -0.1493
  605MOL0     C81571   2.866   9.667   3.954 -0.0879 -0.1452 -0.4082
  605MOL0     C81572   2.934   9.638   3.845 -0.1710 -0.0598  1.3232
  605MOL0     C81573   3.072   9.622   3.840 -0.0137 -0.2191  0.2976
  605MOL0     C81574   3.148   9.642   3.952 -0.1272  0.1221  0.3426
  605MOL0     O81575   3.289   9.627   3.933  0.3349  0.3534 -0.3648
  605MOL0     C81576   3.378   9.683   4.033  0.8482  0.5786  0.4107
  605MOL0     C81577   3.507   9.713   3.958  0.4271 -0.2293  0.7689
  605MOL0     C81578   3.603   9.790   4.044  0.2975 -0.4271  0.8688
  605MOL0     C81579   3.731   9.802   3.950  0.3872 -0.6481 -0.0571
  605MOL0     C81580   3.842   9.871   4.023 -0.5674 -0.0607 -0.1324
  605MOL0     C81581   3.967   9.885   3.928 -0.4384  0.5821 -0.0359
  605MOL0     C81582   3.963   9.983   3.816  0.8823  0.0169 -1.1563
  605MOL0     C81583   4.103  10.002   3.753 -0.5720  0.0528  0.5667
  605MOL0    Cl81584   4.209  10.118   3.846 -0.6056  0.2678  0.2735
  605MOL0     C81585   3.087   9.669   4.068 -0.1589 -1.1217  0.6968
  605MOL0     C81586   2.946   9.671   4.074 -0.3238  0.0277 -0.0764
  605MOL0     O81587   2.702   9.888   4.026  0.7091  0.4395 -0.0889
  605MOL0     C81588   2.440   9.640   3.937  0.4295 -0.1576  0.1718
  605MOL0     C81589   2.298   9.626   3.930  0.7355 -0.2923 -0.5902
  605MOL0     N81590   1.518   9.473   3.939 -0.4442 -0.6809 -0.3212
  605MOL0     N81591   1.400   9.464   3.879  0.6699  0.0002 -0.3930
  605MOL0     C81592   0.244   9.385   3.879  0.3037  0.0886  0.1745
  605MOL0     C81593   0.125   9.332   3.865  0.4450  0.4346  0.2477
  605MOL0     C81594  -0.188   9.022   3.763  0.2095 -0.1861  0.6902
  605MOL0     C81595  -0.226   8.986   3.626 -0.4299 -0.0824 -0.6791
  605MOL0     C81596  -0.336   8.922   3.594 -0.5401 -0.4051  0.7419
  605MOL0     C81597  -0.417   8.880   3.701 -0.3329  0.2907  0.3514
  605MOL0     O81598  -0.544   8.822   3.692  0.5248 -0.0892 -0.7423
  605MOL0     C81599  -0.573   8.754   3.572 -0.1183  0.8912  0.5738
  605MOL0     C81600  -0.685   8.821   3.498  0.5492  0.2973  0.0400
  605MOL0     C81601  -0.818   8.814   3.566  0.2213 -0.0832  0.1572
  605MOL0     C81602  -0.885   8.672   3.595  0.8017  0.6262  0.4025
  605MOL0     C81603  -0.908   8.612   3.461  0.3227  0.0182 -0.6630
  605MOL0     C81604  -0.918   8.551   3.361  0.1947 -0.0338  0.8463
  605MOL0     C81605  -0.383   8.897   3.834 -0.8872  0.8006  0.3591
  605MOL0     C81606  -0.270   8.981   3.868  0.5601  0.9796 -0.0717
  605MOL0     C81607  -0.252   9.011   4.006 -0.0287  0.0751  0.1857
  605MOL0     H81608   0.164   9.048   4.053  0.7981  0.6612 -0.7978
  605MOL0     H81609   0.376   9.148   4.084  0.7803 -0.8754 -1.2839
  605MOL0     H81610   0.524   9.443   3.789 -0.0104 -2.0610 -0.4772
  605MOL0     H81611   0.487   9.541   3.927  1.1577 -0.4144  2.1085
  605MOL0     H81612   0.740   9.378   3.925  0.8173  0.6597  0.1502
  605MOL0     H81613   0.691   9.476   4.053 -0.8816 -0.1596 -0.2453
  605MOL0     H81614   0.722   9.676   3.902 -0.4886  1.3901 -3.0868
  605MOL0     H81615   0.724   9.599   3.767 -0.7877  1.0545  0.5840
  605MOL0     H81616   0.945   9.661   3.838 -0.2017  0.5108  1.3576
  605MOL0     H81617   0.952   9.562   3.978  4.1981  3.6278 -1.7391
  605MOL0     H81618   0.939   9.361   3.848  1.7527  1.5109  1.0901
  605MOL0     H81619   0.922   9.448   3.683  2.5234 -1.4611 -2.1336
  605MOL0     H81620   1.134   9.553   3.714 -0.5096 -0.8348 -0.9845
  605MOL0     H81621   1.152   9.493   3.882  0.0258 -3.6799  0.8925
  605MOL0     H81622   1.115   9.278   3.681  0.7526  3.2205 -1.9178
  605MOL0     H81623   1.186   9.278   3.837  0.6727  1.8767  1.4590
  605MOL0     H81624   1.356   9.253   3.642 -0.0969  1.1147 -2.1542
  605MOL0     H81625   1.312   9.408   3.591 -0.3305 -1.4898 -1.1095
  605MOL0     H81626   1.615   9.384   3.645  1.3424 -0.5582  1.4813
  605MOL0     H81627   1.794   9.352   3.951  0.6126  2.2607  2.6982
  605MOL0     H81628   1.828   9.419   3.789 -0.5558  3.1734 -0.5145
  605MOL0     H81629   1.844   9.643   3.894  1.4230 -2.1059 -0.9586
  605MOL0     H81630   1.736   9.594   4.023 -1.3651 -1.9570 -1.9037
  605MOL0     H81631   2.006   9.468   4.000  1.0628  1.4945 -0.9383
  605MOL0     H81632   1.913   9.478   4.153  1.4703  1.5984  1.2786
  605MOL0     H81633   2.105   9.607   4.164  0.5868 -5.2047 -2.8396
  605MOL0     H81634   1.959   9.710   4.158  0.0150  0.7875 -1.0683
  605MOL0     H81635   2.232   9.917   4.105  0.9008 -0.1327 -0.1834
  605MOL0     H81636   2.483   9.918   4.113  0.2466  0.2473 -1.7548
  605MOL0     H81637   2.878   9.626   3.753  0.7543  0.5690  0.6521
  605MOL0     H81638   3.128   9.587   3.753  1.8734  1.0639  0.9230
  605MOL0     H81639   3.336   9.774   4.075  0.8522  0.9242 -0.3215
  605MOL0     H81640   3.393   9.610   4.113  1.1478  0.6116  0.3871
  605MOL0     H81641   3.536   9.614   3.922  0.3651 -0.2692  0.8284
  605MOL0     H81642   3.472   9.773   3.873  0.0530  2.0744  2.4502
  605MOL0     H81643   3.569   9.891   4.067  1.1290 -0.0852  0.6527
  605MOL0     H81644   3.633   9.740   4.136 -1.6772  0.5072  2.0875
  605MOL0     H81645   3.710   9.872   3.868  2.8709 -1.6049 -1.6372
  605MOL0     H81646   3.765   9.703   3.917  2.2334  0.6960 -2.5916
  605MOL0     H81647   3.878   9.815   4.110  0.7598 -1.5706 -1.5845
  605MOL0     H81648   3.811   9.971   4.054  0.5279  1.8815 -4.4488
  605MOL0     H81649   4.052   9.909   3.993  2.2094 -1.1346 -2.6169
  605MOL0     H81650   3.997   9.790   3.884  1.5061  1.1161  0.0076
  605MOL0     H81651   3.937  10.081   3.857 -0.5806 -2.5275  5.0655
  605MOL0     H81652   3.897   9.945   3.737 -1.3654 -2.7505  1.8096
  605MOL0     H81653   4.136   9.898   3.739 -1.2154  0.0154 -0.7866
  605MOL0     H81654   4.084  10.042   3.653  2.9881 -2.2916 -1.2537
  605MOL0     H81655   3.132   9.685   4.165  0.3595 -0.3081  0.3260
  605MOL0     H81656   2.906   9.699   4.171  1.8764 -1.3962  1.3352
  605MOL0     H81657   2.490   9.555   3.891  0.8211  0.1565  0.0125
  605MOL0     H81658   2.257   9.538   3.881  0.3862 -1.3944  1.5440
  605MOL0     H81659   0.272   9.482   3.839  1.9004 -0.2489  0.4463
  605MOL0     H81660   0.064   9.374   3.786  0.1913 -0.4302 -0.0250
  605MOL0     H81661  -0.153   9.018   3.552  1.7432  1.9250  2.0793
  605MOL0     H81662  -0.366   8.907   3.491 -0.1050  0.1061  0.5369
  605MOL0     H81663  -0.604   8.650   3.585  0.7171  0.3972 -1.0544
  605MOL0     H81664  -0.500   8.737   3.492 -2.2637 -2.9509 -0.8489
  605MOL0     H81665  -0.696   8.772   3.401 -1.5615  1.1670 -0.2301
  605MOL0     H81666  -0.652   8.924   3.480  2.1431 -0.2704 -0.4192
  605MOL0     H81667  -0.898   8.864   3.512 -1.1647 -0.6678  1.5906
  605MOL0     H81668  -0.821   8.871   3.659  0.2860  0.7337 -0.3337
  605MOL0     H81669  -0.831   8.602   3.661  0.7462  0.6330  0.4546
  605MOL0     H81670  -0.984   8.681   3.639  0.1676  1.8606 -1.2050
  605MOL0     H81671  -0.917   8.502   3.266 -0.3052 -0.7532  1.2026
  605MOL0     H81672  -0.444   8.864   3.918  0.3309  0.2278  1.0356
  605MOL0     H81673  -0.310   8.946   4.071 -0.8313  0.7464  0.1554
  605MOL0     H81674  -0.147   9.004   4.035 -0.2192  0.4949  1.0117
  605MOL0     H81675  -0.282   9.114   4.028  2.1741  0.8598 -0.1551
  606MOL0     O81676   3.072   5.606   3.341  0.0020 -0.6877 -0.9993
  606MOL0     C81677   3.021   5.501   3.374 -0.4262 -0.4583 -0.4636
  606MOL0     O81678   3.098   5.388   3.406  0.2752 -0.2567  0.2913
  606MOL0     C81679   3.239   5.388   3.391  0.3876  0.4196 -0.8360
  606MOL0     C81680   3.319   5.324   3.486  1.1776  0.2980  1.3258
  606MOL0     C81681   3.457   5.310   3.485  0.4915  0.2620  0.5859
  606MOL0     C81682   3.523   5.358   3.365  0.5818 -0.5593  0.0929
  606MOL0     O81683   3.652   5.337   3.354  0.5619 -0.6448  1.0212
  606MOL0     C81684   3.725   5.361   3.230 -0.3717  0.1634  0.6358
  606MOL0     C81685   3.870   5.337   3.276 -0.1315  0.8012 -0.3839
  606MOL0     C81686   3.965   5.281   3.166  0.6404 -0.4550 -1.0120
  606MOL0     C81687   4.030   5.394   3.080  0.6041  0.3197  0.1305
  606MOL0     C81688   4.139   5.339   2.985 -0.0495 -0.8668 -0.2001
  606MOL0     C81689   4.271   5.319   3.055  1.0796  0.5660  0.6265
  606MOL0     C81690   4.399   5.301   2.954  1.3172  0.6729 -0.0955
  606MOL0     C81691   4.533   5.280   3.029 -0.1019 -0.8041 -0.4048
  606MOL0     N81692   4.562   5.405   3.104 -0.4688  0.2760  0.2294
  606MOL0     C81693   4.559   5.527   3.050  0.9938 -0.6361 -0.1007
  606MOL0     C81694   4.560   5.613   3.145  0.2020 -0.8996  0.2507
  606MOL0     C81695   4.581   5.759   3.138  0.3593 -0.8155  0.6157
  606MOL0     C81696   4.579   5.810   2.996  0.0928 -0.5753  0.5830
  606MOL0     C81697   4.620   5.955   2.983  0.9174  0.1482 -0.2129
  606MOL0     C81698   4.774   5.987   3.012 -0.7245 -0.8208 -0.5040
  606MOL0     O81699   4.788   6.113   3.081  0.4832  0.2079  0.0985
  606MOL0     C81700   4.912   6.160   3.124  0.1213  0.6405  0.4678
  606MOL0     C81701   4.919   6.288   3.185  0.2083  0.2869  0.1887
  606MOL0     C81702   5.038   6.346   3.218  0.0229  0.0337 -0.7136
  606MOL0     C81703   5.165   6.277   3.191  0.3991 -0.4374  0.6189
  606MOL0     C81704   5.285   6.340   3.206 -0.4380 -0.0529  0.4016
  606MOL0     O81705   5.399   6.265   3.211  1.1293  0.2863  0.1339
  606MOL0     C81706   5.506   6.335   3.262 -0.0642 -0.4240  0.3689
  606MOL0     C81707   5.535   6.333   3.395 -0.2035  0.2562 -0.6997
  606MOL0     C81708   5.646   6.396   3.449  0.4240  0.2136 -0.3700
  606MOL0     C81709   5.732   6.468   3.369 -0.0047  0.6600  0.0533
  606MOL0     O81710   5.846   6.525   3.417  0.4130 -0.4436  0.6773
  606MOL0     C81711   5.833   6.574   3.545 -0.2783 -0.5968 -0.3963
  606MOL0     C81712   5.933   6.686   3.565  0.2536 -0.3385  0.1952
  606MOL0     C81713   6.017   6.665   3.694  0.7322 -0.0079  1.6006
  606MOL0     C81714   6.125   6.565   3.679 -0.5674  0.4191 -0.0888
  606MOL0     C81715   6.213   6.553   3.804 -0.7017  0.3234 -0.2106
  606MOL0     C81716   6.243   6.401   3.829 -0.0192 -0.5783 -0.0684
  606MOL0     C81717   6.277   6.367   3.975  0.1830  0.0183 -0.3259
  606MOL0     C81718   6.395   6.435   4.027 -0.2191 -0.1409  0.3311
  606MOL0    Cl81719   6.437   6.390   4.196  0.2279 -0.3665  0.1367
  606MOL0     C81720   5.695   6.484   3.225 -0.1424 -0.3208 -0.8766
  606MOL0     C81721   5.580   6.417   3.175  0.1913 -0.4250  0.0834
  606MOL0     O81722   5.282   6.456   3.244  0.0778  0.1082 -0.1065
  606MOL0     C81723   5.154   6.154   3.134  0.7643  0.2314 -0.7066
  606MOL0     C81724   5.038   6.088   3.111  0.0681  0.6684  1.0990
  606MOL0     N81725   4.563   5.552   3.264 -0.1500  0.4036  0.7790
  606MOL0     N81726   4.558   5.425   3.238 -0.0228 -0.6815 -0.3904
  606MOL0     C81727   3.446   5.414   3.268  0.5362  0.2964 -0.4466
  606MOL0     C81728   3.311   5.429   3.270  0.2880  0.9765  0.4802
  606MOL0     C81729   2.872   5.483   3.378 -0.8636  0.5146  0.1698
  606MOL0     C81730   2.815   5.361   3.408  0.2796 -0.5005  0.2924
  606MOL0     C81731   2.678   5.343   3.381 -0.0763  0.3450 -0.5428
  606MOL0     C81732   2.594   5.434   3.320  0.3279 -0.8816 -0.9358
  606MOL0     O81733   2.460   5.419   3.291  0.6354  0.5481  0.0960
  606MOL0     C81734   2.406   5.283   3.271  0.6030 -0.1099 -0.7205
  606MOL0     C81735   2.428   5.230   3.127 -0.3539 -0.2583 -0.5353
  606MOL0     C81736   2.332   5.280   3.022 -0.7357 -0.3558 -0.5429
  606MOL0     C81737   2.389   5.387   2.932 -0.9793  0.9942  0.1773
  606MOL0     C81738   2.327   5.407   2.800 -0.2099 -1.0341  0.2187
  606MOL0     C81739   2.280   5.439   2.691 -0.3408 -1.5058  0.3877
  606MOL0     C81740   2.651   5.564   3.304 -0.1187  0.7527 -0.1780
  606MOL0     C81741   2.781   5.583   3.327 -1.2833  0.4536  0.0785
  606MOL0     C81742   2.822   5.734   3.311 -0.5499 -0.4108  0.7590
  606MOL0     H81743   3.257   5.287   3.568 -1.5132  0.6861 -0.4040
  606MOL0     H81744   3.503   5.262   3.571  1.5225 -0.3559 -0.2781
  606MOL0     H81745   3.687   5.285   3.161 -2.3899  0.6411  1.1411
  606MOL0     H81746   3.717   5.466   3.200 -0.0096  0.0422  0.1097
  606MOL0     H81747   3.876   5.266   3.359  2.2170  2.6805  1.1858
  606MOL0     H81748   3.902   5.433   3.317  1.1920 -0.9420  3.0201
  606MOL0     H81749   3.925   5.201   3.102  3.7074 -3.5811  0.6206
  606MOL0     H81750   4.051   5.234   3.214  0.5858  0.1110 -0.3456
  606MOL0     H81751   3.958   5.443   3.014  0.9620 -2.2256 -2.3508
  606MOL0     H81752   4.084   5.470   3.139  3.8697 -0.3634 -1.7313
  606MOL0     H81753   4.095   5.249   2.939 -0.8880 -0.3406 -0.4587
  606MOL0     H81754   4.167   5.418   2.916 -0.1355  0.1204  0.8663
  606MOL0     H81755   4.290   5.400   3.126  0.2423  0.4573  0.9815
  606MOL0     H81756   4.259   5.226   3.111  1.4755 -0.3456 -0.7697
  606MOL0     H81757   4.407   5.380   2.879  0.4098  1.2630  0.4067
  606MOL0     H81758   4.388   5.205   2.903 -0.3798  0.8082 -0.0458
  606MOL0     H81759   4.521   5.214   3.116  1.7093  1.4295  1.7035
  606MOL0     H81760   4.623   5.261   2.969  0.9038 -1.9693  1.3747
  606MOL0     H81761   4.571   5.547   2.944 -2.8110  1.3310 -0.3096
  606MOL0     H81762   4.487   5.788   3.186  0.2020 -0.1173 -0.0985
  606MOL0     H81763   4.656   5.807   3.201 -1.2402  0.3826  1.6828
  606MOL0     H81764   4.652   5.751   2.941 -1.0455 -2.8437  1.3588
  606MOL0     H81765   4.489   5.801   2.935  1.5541  1.0989 -2.0000
  606MOL0     H81766   4.561   6.006   3.060  1.0446  1.4610 -0.9539
  606MOL0     H81767   4.589   5.996   2.886 -1.0856 -1.3771 -0.2837
  606MOL0     H81768   4.828   5.984   2.917 -1.2035  2.0639 -0.9590
  606MOL0     H81769   4.815   5.904   3.070  0.7659  1.0692  1.2946
  606MOL0     H81770   4.822   6.334   3.204 -0.4143 -0.4482 -1.0739
  606MOL0     H81771   5.032   6.435   3.279 -1.8914  1.4020 -2.7571
  606MOL0     H81772   5.464   6.278   3.457  1.9891 -2.6253 -0.5420
  606MOL0     H81773   5.658   6.390   3.557 -1.8592 -0.9270 -0.1322
  606MOL0     H81774   5.735   6.620   3.560 -1.8288 -3.5364 -0.6659
  606MOL0     H81775   5.848   6.513   3.635 -2.5732  0.4541  0.7862
  606MOL0     H81776   6.002   6.693   3.481 -1.4747 -0.6006 -1.3236
  606MOL0     H81777   5.883   6.782   3.574  0.6556 -0.0220 -0.8727
  606MOL0     H81778   6.064   6.762   3.712 -0.3688  0.9229 -0.2148
  606MOL0     H81779   5.957   6.621   3.773 -2.5856  1.4625  0.0995
  606MOL0     H81780   6.189   6.584   3.592  2.5207 -4.4661  0.7265
  606MOL0     H81781   6.087   6.466   3.652 -0.3181  0.3409 -0.1520
  606MOL0     H81782   6.155   6.591   3.889 -0.6815  1.5431 -0.7155
  606MOL0     H81783   6.296   6.625   3.801 -0.5174  0.1226  0.0488
  606MOL0     H81784   6.160   6.333   3.804  0.8381 -2.7903  2.5916
  606MOL0     H81785   6.320   6.367   3.760  0.7290 -0.1864  0.5514
  606MOL0     H81786   6.296   6.260   3.987  0.2840  0.1380  0.7584
  606MOL0     H81787   6.189   6.385   4.037 -1.3386 -0.5583 -2.2301
  606MOL0     H81788   6.476   6.393   3.966 -0.9247 -0.9323 -0.0824
  606MOL0     H81789   6.395   6.543   4.007  3.2721 -0.4565 -2.5572
  606MOL0     H81790   5.764   6.545   3.168  3.0511 -2.6998  0.1022
  606MOL0     H81791   5.553   6.424   3.070  0.3076 -1.5928 -0.0374
  606MOL0     H81792   5.248   6.105   3.110  1.9964  1.6635  0.9997
  606MOL0     H81793   5.042   5.983   3.086  0.3627  0.3277  2.5082
  606MOL0     H81794   3.496   5.448   3.178 -0.6527  1.3087 -0.7453
  606MOL0     H81795   3.271   5.464   3.175  1.4173 -2.8093 -1.5703
  606MOL0     H81796   2.868   5.273   3.443 -0.3677 -0.2387  2.0327
  606MOL0     H81797   2.642   5.246   3.414 -1.5962  0.3729 -2.0109
  606MOL0     H81798   2.304   5.287   3.311  1.5353  2.3848  1.7666
  606MOL0     H81799   2.463   5.217   3.336 -0.8239  1.1069  1.9523
  606MOL0     H81800   2.427   5.121   3.127  1.4879 -0.3414 -2.4434
  606MOL0     H81801   2.534   5.255   3.112 -0.1934  1.6640  2.7609
  606MOL0     H81802   2.238   5.316   3.065 -0.8053 -1.3842  0.2263
  606MOL0     H81803   2.294   5.194   2.966 -4.9423  0.9776 -0.1221
  606MOL0     H81804   2.384   5.476   2.995 -2.5807  0.7187  0.4892
  606MOL0     H81805   2.492   5.371   2.899 -1.4134 -0.5548 -0.5449
  606MOL0     H81806   2.244   5.457   2.591 -1.0562 -0.0892  0.8747
  606MOL0     H81807   2.583   5.643   3.273 -0.3099  1.1109  1.0769
  606MOL0     H81808   2.898   5.775   3.378 -1.0033  0.4856  0.7366
  606MOL0     H81809   2.842   5.747   3.204 -0.9353  0.0902  0.7468
  606MOL0     H81810   2.731   5.791   3.333 -1.6129 -1.6583 -0.1871
  607MOL0     O81811  11.183  11.007   9.218  0.5844  0.5763 -0.0519
  607MOL0     C81812  11.084  11.075   9.242  0.4670 -0.0398 -0.5552
  607MOL0     O81813  11.068  11.211   9.205 -0.1848 -0.2382 -0.0653
  607MOL0     C81814  11.174  11.286   9.150 -1.0257  0.1324 -0.4005
  607MOL0     C81815  11.189  11.413   9.200 -0.9720  0.6881 -0.9494
  607MOL0     C81816  11.292  11.493   9.158  0.2868  0.6808  0.2054
  607MOL0     C81817  11.389  11.449   9.066  0.5603  0.0555  0.2030
  607MOL0     O81818  11.493  11.535   9.034 -0.2321 -1.2427 -0.4742
  607MOL0     C81819  11.582  11.565   9.139  0.6746  0.4844 -0.6083
  607MOL0     C81820  11.680  11.447   9.154 -0.0514  0.2169  0.1215
  607MOL0     C81821  11.792  11.470   9.259  0.4272  0.0577 -0.2892
  607MOL0     C81822  11.897  11.576   9.206  0.1675 -0.6622  0.1449
  607MOL0     C81823  11.999  11.623   9.310  0.5099  0.5328  1.0244
  607MOL0     C81824  11.933  11.707   9.410 -1.1379  1.0420  0.1208
  607MOL0     C81825  12.038  11.726   9.534  1.1390  0.5915 -0.2772
  607MOL0     C81826  12.180  11.755   9.493 -0.7657  0.1013  0.4643
  607MOL0     N81827  12.252  11.777   9.622  0.8155 -0.5016 -0.6005
  607MOL0     C81828  12.282  11.903   9.669  0.6957  0.5787 -0.5317
  607MOL0     C81829  12.290  11.884   9.805  0.6482 -0.2836 -0.4465
  607MOL0     C81830  12.310  11.998   9.906 -0.1499  0.4454 -0.1092
  607MOL0     C81831  12.451  12.019   9.942 -0.1709  0.4612 -0.9846
  607MOL0     C81832  12.518  11.912  10.022 -0.9964 -0.2251 -0.3037
  607MOL0     C81833  12.659  11.901   9.958  0.4378  0.7597 -0.1366
  607MOL0     O81834  12.754  11.837  10.044  0.0563 -0.1683 -0.2586
  607MOL0     C81835  12.882  11.830   9.999 -0.4147 -1.0799  0.6937
  607MOL0     C81836  12.928  11.866   9.868  0.1465  0.1338 -0.7225
  607MOL0     C81837  13.061  11.840   9.826 -0.0702 -0.4531 -0.2831
  607MOL0     C81838  13.160  11.810   9.921 -0.3811 -0.1124  0.6612
  607MOL0     C81839  13.296  11.781   9.878 -0.1275 -0.8335 -0.2180
  607MOL0     O81840  13.379  11.727   9.966 -0.3630  0.1492 -0.7502
  607MOL0     C81841  13.506  11.706   9.923  0.0775  0.4747 -0.3416
  607MOL0     C81842  13.534  11.582   9.869 -0.0665  1.2871 -0.5494
  607MOL0     C81843  13.653  11.563   9.800  0.7578  0.1578  1.3422
  607MOL0     C81844  13.738  11.668   9.780 -0.6124 -0.6815  0.5934
  607MOL0     O81845  13.847  11.677   9.697  0.3742 -0.0967  0.2279
  607MOL0     C81846  13.875  11.562   9.616  0.2695 -1.1674 -0.2008
  607MOL0     C81847  14.008  11.593   9.563  0.1921  0.4392  0.9733
  607MOL0     C81848  14.115  11.536   9.663 -0.9353  0.4279  1.0239
  607MOL0     C81849  14.260  11.579   9.623  0.2587 -0.2162  0.7782
  607MOL0     C81850  14.363  11.469   9.673 -0.4580 -0.0750  0.3201
  607MOL0     C81851  14.498  11.471   9.613  0.3919 -0.1008 -0.0284
  607MOL0     C81852  14.591  11.356   9.661 -0.0964  0.2837  0.6055
  607MOL0     C81853  14.719  11.377   9.578 -0.1050  0.0893  1.0988
  607MOL0    Cl81854  14.841  11.246   9.614  0.0026  0.2405  0.0657
  607MOL0     C81855  13.709  11.788   9.841 -0.9943 -0.3848 -0.2931
  607MOL0     C81856  13.598  11.802   9.927  0.2520 -0.3152  1.2285
  607MOL0     O81857  13.330  11.816   9.765  0.5690 -0.0048  0.6100
  607MOL0     C81858  13.119  11.788  10.054  0.1242  1.0434  0.4786
  607MOL0     C81859  12.982  11.795  10.088 -0.2806 -1.2146  0.4785
  607MOL0     N81860  12.273  11.753   9.835 -0.2482  0.3511 -0.3607
  607MOL0     N81861  12.243  11.689   9.729  0.8206  0.2263 -0.1154
  607MOL0     C81862  11.372  11.325   9.009 -0.1528  0.2484 -0.7525
  607MOL0     C81863  11.274  11.233   9.063 -1.3155  0.3036  0.1648
  607MOL0     C81864  10.976  11.011   9.321 -0.2932  0.2665 -0.1064
  607MOL0     C81865  10.858  11.089   9.332 -0.2009 -0.2046  0.2295
  607MOL0     C81866  10.747  11.040   9.397  1.3068  0.2135  0.3431
  607MOL0     C81867  10.740  10.906   9.428 -0.7108 -0.0789 -0.6135
  607MOL0     O81868  10.636  10.844   9.490 -0.8877  0.1926  0.1784
  607MOL0     C81869  10.543  10.929   9.556  0.8409  0.4021 -0.9081
  607MOL0     C81870  10.428  10.977   9.465 -0.5221  0.5566  0.2323
  607MOL0     C81871  10.352  11.100   9.530 -0.5377  0.1464 -0.5536
  607MOL0     C81872  10.236  11.154   9.439  0.2018  0.2802  1.6137
  607MOL0     C81873  10.142  11.232   9.513 -0.4214 -0.6034 -0.2710
  607MOL0     C81874  10.049  11.301   9.560  0.1735  0.1357  0.5209
  607MOL0     C81875  10.861  10.828   9.414 -0.0564  0.3906 -0.9855
  607MOL0     C81876  10.980  10.872   9.362 -0.1322  0.1403  0.6730
  607MOL0     C81877  11.103  10.776   9.364 -0.1695  0.4577  0.0605
  607MOL0     H81878  11.116  11.458   9.265 -1.7187  0.9637 -1.9629
  607MOL0     H81879  11.289  11.589   9.207 -0.0721  0.2230  1.1089
  607MOL0     H81880  11.638  11.653   9.107  1.7398  0.3247  0.7035
  607MOL0     H81881  11.525  11.584   9.231 -5.5176 -3.0003 -3.0915
  607MOL0     H81882  11.726  11.417   9.060  1.5928 -2.5510  1.7036
  607MOL0     H81883  11.629  11.359   9.194 -1.0316 -0.6850 -2.8976
  607MOL0     H81884  11.840  11.375   9.282  2.1599  1.1053  0.6414
  607MOL0     H81885  11.742  11.508   9.348  0.1952 -2.8855  0.9380
  607MOL0     H81886  11.952  11.533   9.122  2.4420  3.8632 -1.0036
  607MOL0     H81887  11.852  11.659   9.152 -0.3882  1.3924  3.5126
  607MOL0     H81888  12.048  11.535   9.353  0.3831 -0.4566 -0.7743
  607MOL0     H81889  12.072  11.680   9.254  0.2861  0.4382  0.6344
  607MOL0     H81890  11.926  11.800   9.353 -0.5578  1.3393  0.5289
  607MOL0     H81891  11.832  11.680   9.443 -0.8021 -0.2587  0.1059
  607MOL0     H81892  12.014  11.641   9.598 -1.9690 -0.4376 -2.5498
  607MOL0     H81893  12.011  11.808   9.600  2.8618  1.7446 -0.9338
  607MOL0     H81894  12.235  11.674   9.445 -1.4059  1.8166 -3.4824
  607MOL0     H81895  12.193  11.836   9.421  2.7751  1.2822  2.1696
  607MOL0     H81896  12.288  11.994   9.610  1.3571 -1.3199 -3.5987
  607MOL0     H81897  12.277  12.097   9.872 -0.9437 -0.5713 -2.5091
  607MOL0     H81898  12.257  11.977   9.999  0.7242  0.8515  0.4983
  607MOL0     H81899  12.502  12.034   9.847  0.1315 -1.9246 -1.2437
  607MOL0     H81900  12.437  12.111  10.000  3.0344  0.4737 -0.0453
  607MOL0     H81901  12.462  11.818  10.025 -1.7339  0.2050 -0.2682
  607MOL0     H81902  12.529  11.941  10.127 -2.9738 -3.5991  1.0050
  607MOL0     H81903  12.699  11.999   9.933 -0.0411  0.3305 -2.8824
  607MOL0     H81904  12.644  11.830   9.875 -0.5558  2.8832 -1.8738
  607MOL0     H81905  12.865  11.895   9.785  1.6282  1.6452 -1.3756
  607MOL0     H81906  13.070  11.864   9.720  0.4733  0.4741 -0.0342
  607MOL0     H81907  13.477  11.490   9.879 -1.1280  1.9369 -0.5440
  607MOL0     H81908  13.668  11.464   9.759 -3.5464 -0.3042  0.3578
  607MOL0     H81909  13.880  11.471   9.676 -0.4094 -0.5759  0.7792
  607MOL0     H81910  13.801  11.563   9.535  0.7297  0.6300 -0.6400
  607MOL0     H81911  14.016  11.558   9.459  0.3389  0.7067  0.8959
  607MOL0     H81912  14.026  11.700   9.562 -1.0061  0.6800 -0.7290
  607MOL0     H81913  14.094  11.570   9.765 -1.3655  2.2218  0.3692
  607MOL0     H81914  14.106  11.429   9.640  1.5587  0.8011 -2.3766
  607MOL0     H81915  14.275  11.681   9.658  0.8589 -0.4933  1.3605
  607MOL0     H81916  14.268  11.576   9.514 -2.6146 -1.1778  0.4994
  607MOL0     H81917  14.320  11.368   9.667 -4.2611  1.1092  3.4772
  607MOL0     H81918  14.375  11.482   9.780 -0.5572 -1.0367  0.4570
  607MOL0     H81919  14.489  11.480   9.505  1.8779 -0.7998 -0.2363
  607MOL0     H81920  14.538  11.567   9.647 -3.2178  1.1954  1.1083
  607MOL0     H81921  14.537  11.262   9.642  0.6833 -0.6890  2.8585
  607MOL0     H81922  14.622  11.369   9.765  0.8984  1.0804  0.2205
  607MOL0     H81923  14.711  11.376   9.469  1.7548 -0.7981  0.9383
  607MOL0     H81924  14.766  11.473   9.599  0.6412  0.3955 -1.6477
  607MOL0     H81925  13.782  11.867   9.830 -1.9202  0.3183 -1.6489
  607MOL0     H81926  13.578  11.887   9.990 -2.0573 -0.4169  0.7169
  607MOL0     H81927  13.191  11.751  10.126  1.3375  1.2645 -0.5862
  607MOL0     H81928  12.948  11.766  10.187  0.4042 -4.9109 -0.2168
  607MOL0     H81929  11.451  11.296   8.941 -0.4477 -1.7163 -0.3156
  607MOL0     H81930  11.266  11.130   9.032 -0.8590  0.8782 -2.0231
  607MOL0     H81931  10.846  11.184   9.282  0.3307 -0.3548 -0.2092
  607MOL0     H81932  10.660  11.105   9.395  1.0776 -0.0778 -1.3563
  607MOL0     H81933  10.589  11.009   9.615  1.8798 -0.1069 -0.9948
  607MOL0     H81934  10.505  10.872   9.640  1.1122  0.3822 -0.7998
  607MOL0     H81935  10.355  10.898   9.449  0.0965  0.3103 -1.6217
  607MOL0     H81936  10.465  11.005   9.366 -2.5148  0.3558 -0.6146
  607MOL0     H81937  10.421  11.181   9.554 -1.4032  1.0422 -1.0107
  607MOL0     H81938  10.316  11.066   9.628  2.7985  0.2567  0.8438
  607MOL0     H81939  10.281  11.209   9.356  0.0188 -1.7181  0.1267
  607MOL0     H81940  10.182  11.067   9.400 -0.4504  0.5638  1.8772
  607MOL0     H81941   9.970  11.365   9.596  0.5843  0.4553  0.8758
  607MOL0     H81942  10.860  10.732   9.464 -0.8640  0.9093  0.0374
  607MOL0     H81943  11.084  10.698   9.439 -1.9057  0.5035 -0.2855
  607MOL0     H81944  11.108  10.735   9.263  0.4298 -3.0742  1.3861
  607MOL0     H81945  11.202  10.816   9.385 -0.0341 -0.0776  0.4648
  608MOL0     O81946   4.402   5.263   3.960 -0.1987  0.1794  0.2227
  608MOL0     C81947   4.466   5.178   3.904  0.5111  0.2508 -1.0260
  608MOL0     O81948   4.420   5.087   3.820  0.5393  0.5404 -0.7053
  608MOL0     C81949   4.302   5.097   3.752  0.0617 -1.0563 -0.0574
  608MOL0     C81950   4.205   5.193   3.756  0.7166 -0.6089 -0.6689
  608MOL0     C81951   4.085   5.189   3.686  0.4470  0.6095 -0.1929
  608MOL0     C81952   4.057   5.082   3.604 -0.7373  0.0423  0.6375
  608MOL0     O81953   3.935   5.076   3.536 -0.5079 -0.0156 -0.4899
  608MOL0     C81954   3.913   4.974   3.440 -0.9073 -0.3222 -0.1669
  608MOL0     C81955   3.784   4.901   3.469 -0.3453 -0.4786 -0.8897
  608MOL0     C81956   3.730   4.805   3.363 -1.1623  1.2430 -0.0842
  608MOL0     C81957   3.632   4.875   3.270  0.9211  0.1421 -0.6980
  608MOL0     C81958   3.545   4.760   3.211 -0.2415 -0.5080 -0.1101
  608MOL0     C81959   3.603   4.679   3.088 -0.8067  0.4910  0.1423
  608MOL0     C81960   3.501   4.582   3.020 -0.9974  0.8618 -0.1147
  608MOL0     C81961   3.516   4.570   2.868  0.5242 -0.2397  0.1456
  608MOL0     N81962   3.655   4.528   2.825  0.5530 -0.9007 -0.1824
  608MOL0     C81963   3.706   4.403   2.829  0.2176  0.2276 -0.8847
  608MOL0     C81964   3.833   4.420   2.782 -0.6019  0.2801 -0.2206
  608MOL0     C81965   3.934   4.305   2.766 -0.1893 -0.2997 -0.3979
  608MOL0     C81966   4.060   4.306   2.851 -0.0201  0.1048 -0.5931
  608MOL0     C81967   4.169   4.387   2.793  0.4079 -0.0986 -0.5827
  608MOL0     C81968   4.303   4.365   2.870  1.0183  0.5164 -0.5910
  608MOL0     O81969   4.401   4.432   2.797  0.0873  0.3562 -0.1887
  608MOL0     C81970   4.518   4.472   2.866  0.6947 -0.0459  0.9715
  608MOL0     C81971   4.589   4.574   2.809 -0.3834  0.2523 -0.7121
  608MOL0     C81972   4.719   4.606   2.849  0.5031  0.1789 -0.7230
  608MOL0     C81973   4.785   4.545   2.950  0.9125 -0.3292 -0.9476
  608MOL0     C81974   4.921   4.577   2.990  0.7533 -0.6617 -0.3452
  608MOL0     O81975   4.997   4.655   2.905  0.5665  0.3425  0.4245
  608MOL0     C81976   5.121   4.715   2.942 -0.7424  0.1886  0.2314
  608MOL0     C81977   5.197   4.763   2.837  0.6290  0.3171  0.3508
  608MOL0     C81978   5.322   4.826   2.861 -1.4304 -0.1429  0.3016
  608MOL0     C81979   5.380   4.836   2.988  0.2978 -0.7585  0.2526
  608MOL0     O81980   5.501   4.893   3.008  0.6125  0.6400 -0.1193
  608MOL0     C81981   5.595   4.891   2.903 -0.4671  0.2528 -0.6887
  608MOL0     C81982   5.739   4.909   2.953  0.1182 -1.0296  0.5529
  608MOL0     C81983   5.833   4.915   2.823  0.6910  0.5815 -0.6411
  608MOL0     C81984   5.915   5.030   2.823  0.7839  0.9453  0.5360
  608MOL0     C81985   5.961   5.050   2.676  0.3367  0.0315 -0.2127
  608MOL0     C81986   5.855   5.126   2.599  0.4517 -1.6711  0.1525
  608MOL0     C81987   5.892   5.180   2.462  0.3122 -0.1395  0.2804
  608MOL0     C81988   5.781   5.273   2.412  0.0366 -0.7374 -0.8955
  608MOL0    Cl81989   5.635   5.164   2.373  0.0342 -0.1999  0.5306
  608MOL0     C81990   5.305   4.789   3.090 -0.3007  0.6817  0.9685
  608MOL0     C81991   5.181   4.724   3.075  0.6068  0.1859  1.2440
  608MOL0     O81992   4.955   4.538   3.102 -1.1523  0.1355  0.2657
  608MOL0     C81993   4.703   4.441   3.015 -0.6245 -0.7811 -0.4962
  608MOL0     C81994   4.574   4.404   2.974 -0.1278  0.2132  0.2354
  608MOL0     N81995   3.853   4.550   2.741  0.0506 -0.6737  0.6313
  608MOL0     N81996   3.742   4.607   2.762 -0.4784  0.0713 -1.0536
  608MOL0     C81997   4.161   4.986   3.592 -0.7653 -0.4491  0.9257
  608MOL0     C81998   4.280   5.002   3.657 -0.7615  0.3732  0.3227
  608MOL0     C81999   4.600   5.143   3.957  1.2455 -0.5433  0.1909
  608MOL0     C82000   4.647   5.007   3.941  0.1464  0.1120 -0.5881
  608MOL0     C82001   4.775   4.973   3.990 -0.0409  0.0173 -0.0113
  608MOL0     C82002   4.846   5.069   4.059  0.8293  0.1741  0.0151
  608MOL0     O82003   4.970   5.035   4.111  0.1324 -0.4905 -0.2144
  608MOL0     C82004   4.978   5.034   4.257  0.3293 -0.2263  0.0309
  608MOL0     C82005   5.073   5.142   4.293 -0.0634 -0.9416 -0.3758
  608MOL0     C82006   5.084   5.174   4.450 -0.5109  0.1473  0.0306
  608MOL0     C82007   5.212   5.255   4.481  0.1332 -1.1983 -0.1289
  608MOL0     C82008   5.199   5.409   4.467 -0.7402  0.1510 -0.5111
  608MOL0     C82009   5.168   5.531   4.488 -0.0233 -0.2820 -0.7923
  608MOL0     C82010   4.800   5.193   4.073 -0.2870  0.3248 -0.1003
  608MOL0     C82011   4.678   5.239   4.027 -0.0396 -0.0352 -0.2279
  608MOL0     C82012   4.645   5.376   4.053 -0.0424 -0.4262  0.0497
  608MOL0     H82013   4.222   5.281   3.816 -2.2890 -0.9224  0.8330
  608MOL0     H82014   4.016   5.269   3.710  0.1125 -0.0990  1.3665
  608MOL0     H82015   3.902   5.023   3.342 -0.4885 -3.1783 -1.7492
  608MOL0     H82016   3.983   4.891   3.429 -0.3515  0.1255 -0.0778
  608MOL0     H82017   3.707   4.978   3.480  0.7531  0.7357 -1.3878
  608MOL0     H82018   3.795   4.838   3.558 -0.1566 -4.9544 -3.7642
  608MOL0     H82019   3.676   4.725   3.413 -0.4602  0.5745 -0.3775
  608MOL0     H82020   3.817   4.759   3.314 -0.2391  3.7571 -0.9615
  608MOL0     H82021   3.569   4.938   3.332  0.6761 -2.2431  1.6367
  608MOL0     H82022   3.682   4.944   3.201 -1.8733  1.9260 -1.1080
  608MOL0     H82023   3.513   4.691   3.289  0.3348  0.3386  0.9127
  608MOL0     H82024   3.450   4.796   3.171  0.8839  0.9032 -1.7079
  608MOL0     H82025   3.633   4.750   3.010 -1.5807 -1.2737 -1.8588
  608MOL0     H82026   3.696   4.630   3.120  1.2653  3.8039 -0.3099
  608MOL0     H82027   3.401   4.626   3.030 -1.2502  0.7905 -2.0389
  608MOL0     H82028   3.522   4.489   3.074  0.8461  0.7360 -0.9979
  608MOL0     H82029   3.441   4.499   2.831 -1.1274  1.5715 -0.1093
  608MOL0     H82030   3.494   4.667   2.822 -0.6959 -1.4357 -1.9424
  608MOL0     H82031   3.669   4.314   2.879  0.8786  0.1476 -0.5110
  608MOL0     H82032   3.888   4.207   2.783 -1.7289  0.4531  0.0331
  608MOL0     H82033   3.958   4.300   2.660  1.1237 -1.5238 -0.0660
  608MOL0     H82034   4.049   4.324   2.959  1.3027 -2.8972  0.1406
  608MOL0     H82035   4.090   4.201   2.844  0.2931  0.1397  0.0698
  608MOL0     H82036   4.141   4.492   2.804 -0.4510 -0.4612  0.9932
  608MOL0     H82037   4.171   4.368   2.685 -0.0540 -1.6436 -0.3551
  608MOL0     H82038   4.320   4.257   2.873 -0.0236  0.2988 -1.5979
  608MOL0     H82039   4.292   4.411   2.969  2.1736 -0.7196  0.1421
  608MOL0     H82040   4.550   4.637   2.729  0.8772  0.8063 -0.9128
  608MOL0     H82041   4.767   4.675   2.781  2.4722 -1.5898 -1.2050
  608MOL0     H82042   5.163   4.761   2.734  1.5653  2.3620 -0.0523
  608MOL0     H82043   5.383   4.868   2.781 -1.8465  2.9974  1.4815
  608MOL0     H82044   5.603   4.796   2.849 -1.3751  0.2955 -0.9207
  608MOL0     H82045   5.573   4.965   2.825 -1.5694 -0.3755 -1.0039
  608MOL0     H82046   5.742   4.990   3.025  0.0318 -0.8231  0.3274
  608MOL0     H82047   5.768   4.820   3.009  2.0224 -0.3961  0.6139
  608MOL0     H82048   5.898   4.827   2.812  2.0303  1.6146 -1.3514
  608MOL0     H82049   5.768   4.922   2.736 -0.0998 -1.4848 -0.2740
  608MOL0     H82050   6.001   5.002   2.885  0.3884 -0.8226  0.3462
  608MOL0     H82051   5.869   5.124   2.855  0.3347  1.1771 -0.7130
  608MOL0     H82052   5.987   4.958   2.623 -1.3356  0.9860 -2.9222
  608MOL0     H82053   6.049   5.115   2.677  0.0902  0.5823 -3.2737
  608MOL0     H82054   5.771   5.058   2.587 -5.3413  3.8938  3.1595
  608MOL0     H82055   5.818   5.211   2.657 -0.2736 -0.9029 -1.3709
  608MOL0     H82056   5.919   5.105   2.387  1.7841  0.9399 -0.3213
  608MOL0     H82057   5.980   5.244   2.478 -0.0756  1.2807 -2.6541
  608MOL0     H82058   5.752   5.355   2.479  0.6048  3.2068 -4.9566
  608MOL0     H82059   5.814   5.342   2.334  0.0942  3.3234  2.3531
  608MOL0     H82060   5.350   4.803   3.188  0.8173  0.7051  0.4705
  608MOL0     H82061   5.132   4.691   3.166  1.4667 -0.7337  1.3889
  608MOL0     H82062   4.758   4.377   3.084 -1.6194 -0.0316  1.0581
  608MOL0     H82063   4.531   4.312   3.012 -2.1517  0.6393 -0.8830
  608MOL0     H82064   4.140   4.906   3.522 -4.2454  2.1813 -1.3898
  608MOL0     H82065   4.352   4.923   3.642  0.7291  1.6134  0.6224
  608MOL0     H82066   4.589   4.930   3.890  1.1063  0.8881 -2.9701
  608MOL0     H82067   4.810   4.874   3.963  2.7361  1.1103 -0.7453
  608MOL0     H82068   5.021   4.942   4.298  1.6409  1.5247  2.9008
  608MOL0     H82069   4.879   5.039   4.302  0.5991 -0.5432  0.6793
  608MOL0     H82070   5.017   5.223   4.246 -0.2472  0.9287  2.7485
  608MOL0     H82071   5.172   5.145   4.248 -0.2909 -1.5988 -0.9399
  608MOL0     H82072   5.099   5.074   4.492 -1.1848 -1.0235 -2.2856
  608MOL0     H82073   4.993   5.218   4.492 -0.8754  0.0363 -0.6175
  608MOL0     H82074   5.234   5.233   4.586 -0.7147 -2.9173 -0.2717
  608MOL0     H82075   5.295   5.213   4.423 -0.0227 -1.8379  0.1050
  608MOL0     H82076   5.145   5.636   4.497  0.0063 -0.1461 -2.1235
  608MOL0     H82077   4.870   5.267   4.110  3.5701  0.4071 -6.0938
  608MOL0     H82078   4.605   5.401   4.152  0.7980  1.7150 -0.1011
  608MOL0     H82079   4.733   5.441   4.051 -0.8116  0.6298 -0.4155
  608MOL0     H82080   4.583   5.422   3.975  0.2902  1.0166  0.6006
  609MOL0     O82081   7.717   2.916  11.215  0.2341 -0.0466  0.1499
  609MOL0     C82082   7.660   2.835  11.291  0.1131 -0.2145  0.3458
  609MOL0     O82083   7.701   2.788  11.412  0.9147 -0.9754  0.0838
  609MOL0     C82084   7.806   2.858  11.466  0.2089  1.0035  0.2297
  609MOL0     C82085   7.926   2.889  11.399  0.6188 -0.0992  0.8745
  609MOL0     C82086   8.030   2.960  11.462 -0.0503  0.9675 -0.9034
  609MOL0     C82087   8.013   3.005  11.598  1.2458 -0.3283 -0.5385
  609MOL0     O82088   8.099   3.075  11.684  0.1533  0.3796 -0.1068
  609MOL0     C82089   8.223   3.101  11.622  0.2605 -0.1108 -0.1760
  609MOL0     C82090   8.307   3.192  11.712  0.0960 -0.7776 -0.2097
  609MOL0     C82091   8.446   3.203  11.653 -0.2264  0.0800 -0.1197
  609MOL0     C82092   8.538   3.084  11.684 -0.6966 -0.2586  0.7780
  609MOL0     C82093   8.658   3.073  11.591 -0.7411  0.4514 -0.4896
  609MOL0     C82094   8.784   3.127  11.662  1.6015 -0.1185 -0.0831
  609MOL0     C82095   8.915   3.112  11.582  0.7140 -0.4517  0.5460
  609MOL0     C82096   8.935   2.978  11.523  0.6968 -0.9028 -0.4233
  609MOL0     N82097   9.073   2.966  11.480  1.1572 -0.4400  0.2360
  609MOL0     C82098   9.174   2.891  11.537  0.6868 -0.2626  0.4144
  609MOL0     C82099   9.294   2.918  11.474  0.4102 -0.0453  0.2185
  609MOL0     C82100   9.439   2.882  11.510 -0.1122 -0.3102  0.4168
  609MOL0     C82101   9.475   2.926  11.651 -0.5560 -0.1948 -0.6724
  609MOL0     C82102   9.610   2.875  11.708  0.6376  0.2319 -0.5023
  609MOL0     C82103   9.664   2.960  11.831 -0.5151  0.7703  0.1615
  609MOL0     O82104   9.771   2.899  11.899 -0.3374  0.0921  0.5228
  609MOL0     C82105   9.887   2.904  11.828  0.8059  0.0473 -0.1472
  609MOL0     C82106   9.974   2.806  11.873  0.2737  0.4324  0.4250
  609MOL0     C82107  10.098   2.791  11.815  0.5066  0.0422  0.1376
  609MOL0     C82108  10.153   2.877  11.720  0.3085  0.0154  0.3508
  609MOL0     C82109  10.294   2.867  11.672  0.4576 -0.1654  0.0743
  609MOL0     O82110  10.337   2.968  11.591 -0.1244 -0.3459  0.8226
  609MOL0     C82111  10.451   2.950  11.520 -0.4358  0.2385  0.2741
  609MOL0     C82112  10.459   2.955  11.382 -0.8673  1.2295 -0.6196
  609MOL0     C82113  10.575   2.928  11.309 -0.0165 -0.1098 -1.0640
  609MOL0     C82114  10.695   2.900  11.380  0.1430  0.1323 -0.5372
  609MOL0     O82115  10.818   2.870  11.322 -0.1014 -0.2375  0.6180
  609MOL0     C82116  10.828   2.864  11.182  0.4157  1.0951  0.2003
  609MOL0     C82117  10.977   2.829  11.166  0.2794 -0.3716  0.1465
  609MOL0     C82118  11.026   2.813  11.018 -0.0881  0.1606  0.8580
  609MOL0     C82119  11.177   2.824  11.008 -0.5435 -0.2483  0.0893
  609MOL0     C82120  11.229   2.808  10.860  0.3067  0.1559 -1.0630
  609MOL0     C82121  11.352   2.888  10.824  0.2172  0.0137 -0.5597
  609MOL0     C82122  11.483   2.821  10.851  0.1799  0.1575  0.6970
  609MOL0     C82123  11.600   2.904  10.781 -0.0029 -0.5547 -0.5976
  609MOL0    Cl82124  11.749   2.811  10.825  0.4643 -0.0860 -0.0948
  609MOL0     C82125  10.693   2.923  11.521 -0.7595 -0.0622  0.8003
  609MOL0     C82126  10.568   2.948  11.589  0.2504 -0.7668  0.6614
  609MOL0     O82127  10.352   2.767  11.696  0.0885  1.1548  0.0128
  609MOL0     C82128  10.071   2.990  11.692  0.8247 -0.2382  0.9217
  609MOL0     C82129   9.935   2.996  11.739 -0.0588  0.6426  0.7834
  609MOL0     N82130   9.262   2.999  11.361  0.6153  0.4410 -0.2696
  609MOL0     N82131   9.139   3.033  11.376 -0.0151 -0.4040 -0.4635
  609MOL0     C82132   7.897   2.975  11.667 -0.0955  0.7185 -0.3308
  609MOL0     C82133   7.797   2.904  11.611 -0.3349  0.5726  1.8193
  609MOL0     C82134   7.538   2.788  11.246  0.2205  1.1640  0.8473
  609MOL0     C82135   7.435   2.745  11.338 -0.2527 -0.0419 -0.3489
  609MOL0     C82136   7.311   2.705  11.300  0.4580 -0.7361 -0.0063
  609MOL0     C82137   7.268   2.710  11.167 -0.7940  0.0398  0.1232
  609MOL0     O82138   7.142   2.675  11.147  0.1883 -0.1830  0.7103
  609MOL0     C82139   7.071   2.691  11.026 -0.5144 -1.1181 -0.2537
  609MOL0     C82140   7.092   2.575  10.932 -0.0487  0.7983  0.9113
  609MOL0     C82141   7.000   2.460  10.977  0.1535  0.4129  0.3520
  609MOL0     C82142   7.069   2.343  11.057 -0.7269  1.0371 -1.1513
  609MOL0     C82143   7.174   2.268  10.993 -1.2731 -0.0646  1.2513
  609MOL0     C82144   7.266   2.200  10.959 -0.3372 -0.1686 -0.1077
  609MOL0     C82145   7.363   2.745  11.068  0.0671  0.4024  0.1835
  609MOL0     C82146   7.496   2.781  11.110  0.2252 -0.0298  0.2051
  609MOL0     C82147   7.593   2.814  10.993  0.6578  0.5391 -0.9385
  609MOL0     H82148   7.937   2.865  11.294 -0.7604  0.9734  0.4586
  609MOL0     H82149   8.126   2.974  11.412  1.9893 -1.3031  2.0034
  609MOL0     H82150   8.250   2.996  11.611 -0.2111 -0.3754  1.1085
  609MOL0     H82151   8.210   3.158  11.529  0.3588 -1.3940 -1.0000
  609MOL0     H82152   8.297   3.160  11.817  1.3307  2.0404  0.8540
  609MOL0     H82153   8.265   3.292  11.721  2.2433  0.1422  0.3258
  609MOL0     H82154   8.499   3.290  11.692 -0.6964  0.8679 -1.1921
  609MOL0     H82155   8.431   3.215  11.545 -0.5754 -2.3381 -0.4036
  609MOL0     H82156   8.568   3.077  11.789  0.9865 -0.1474  0.3247
  609MOL0     H82157   8.471   2.997  11.677 -1.8431  0.6281  0.4757
  609MOL0     H82158   8.670   2.967  11.568  1.0402  0.4448  0.3151
  609MOL0     H82159   8.633   3.116  11.493 -3.2912 -0.9359 -0.5361
  609MOL0     H82160   8.777   3.236  11.671 -0.4114 -0.0800 -1.3697
  609MOL0     H82161   8.797   3.070  11.755  1.1770 -1.0236 -0.5651
  609MOL0     H82162   8.999   3.129  11.650  0.4041  0.9641  0.6170
  609MOL0     H82163   8.909   3.189  11.504 -3.6183  0.2413  1.2679
  609MOL0     H82164   8.914   2.903  11.600  1.0557 -1.3248 -0.7251
  609MOL0     H82165   8.863   2.956  11.445 -0.6926  0.0765  0.5448
  609MOL0     H82166   9.157   2.835  11.629 -2.6967 -1.1912 -0.6705
  609MOL0     H82167   9.450   2.773  11.505  2.4297 -0.0787 -0.0622
  609MOL0     H82168   9.499   2.932  11.434 -0.8672  4.3190  2.5295
  609MOL0     H82169   9.466   3.033  11.667  0.7457 -0.2818  0.8328
  609MOL0     H82170   9.401   2.880  11.718 -0.9567  0.0705 -0.9300
  609MOL0     H82171   9.675   2.880  11.621  0.5967 -0.3768 -0.5714
  609MOL0     H82172   9.597   2.768  11.727  2.6111 -0.3032 -1.8512
  609MOL0     H82173   9.590   2.973  11.911  1.6918  0.7023  2.3502
  609MOL0     H82174   9.687   3.066  11.818  0.4716  0.7337  1.3659
  609MOL0     H82175   9.936   2.739  11.950 -2.0166  1.7908  0.5672
  609MOL0     H82176  10.157   2.715  11.865  2.9191  0.3660 -2.0003
  609MOL0     H82177  10.364   2.994  11.347 -1.1210 -0.0735 -1.4750
  609MOL0     H82178  10.570   2.913  11.202  2.7504 -2.7703 -0.9602
  609MOL0     H82179  10.770   2.786  11.132  1.6559  0.3259 -0.1054
  609MOL0     H82180  10.799   2.957  11.134 -0.7536 -0.2859 -1.9258
  609MOL0     H82181  11.036   2.907  11.214 -0.2500  1.9181 -2.6642
  609MOL0     H82182  11.000   2.744  11.232  0.3508  0.1632  0.8289
  609MOL0     H82183  11.003   2.719  10.967 -2.2962  1.7983 -1.4181
  609MOL0     H82184  10.976   2.879  10.946 -0.6914 -2.1956 -1.0160
  609MOL0     H82185  11.211   2.752  11.083 -2.5113  0.6107  1.9232
  609MOL0     H82186  11.216   2.918  11.050 -1.6942  0.0662  0.5007
  609MOL0     H82187  11.152   2.866  10.808  0.3239 -0.0971 -1.3731
  609MOL0     H82188  11.227   2.704  10.828 -1.7878 -0.6315  1.2719
  609MOL0     H82189  11.345   2.916  10.718 -1.6755  1.5247 -0.0845
  609MOL0     H82190  11.338   2.985  10.872 -2.8601  0.6174 -2.4134
  609MOL0     H82191  11.480   2.724  10.799  1.9866  0.2545  0.3395
  609MOL0     H82192  11.503   2.810  10.958  0.2747  0.7515  0.7395
  609MOL0     H82193  11.596   2.913  10.672 -2.3264  2.8298 -0.4047
  609MOL0     H82194  11.616   3.003  10.824 -3.0865 -1.9867  4.6556
  609MOL0     H82195  10.785   2.913  11.577 -0.4897  2.2558  0.8960
  609MOL0     H82196  10.561   2.963  11.696  0.1719 -0.4453  0.6128
  609MOL0     H82197  10.111   3.074  11.635 -0.7408 -0.3808 -0.4871
  609MOL0     H82198   9.863   3.073  11.713 -1.1159  0.2076  2.2518
  609MOL0     H82199   7.888   3.018  11.767 -1.2525 -1.4225  0.5473
  609MOL0     H82200   7.695   2.908  11.647 -1.2053  2.9860 -0.6167
  609MOL0     H82201   7.470   2.755  11.441  1.0710 -1.2595 -0.6503
  609MOL0     H82202   7.243   2.685  11.382 -1.0265  0.8022 -0.7935
  609MOL0     H82203   7.100   2.785  10.978  0.8572  0.9696  4.1386
  609MOL0     H82204   6.964   2.706  11.045 -0.4801 -1.2737  0.0603
  609MOL0     H82205   7.197   2.542  10.935  0.0735  0.9554 -0.8113
  609MOL0     H82206   7.071   2.601  10.828  2.9995  0.8526  0.2177
  609MOL0     H82207   6.958   2.421  10.883  1.9300  0.8933 -0.6916
  609MOL0     H82208   6.918   2.502  11.036 -0.1781  0.6839 -0.2964
  609MOL0     H82209   7.114   2.379  11.150  1.1650 -3.0339 -0.2685
  609MOL0     H82210   6.989   2.283  11.102  0.3025 -0.1665 -0.8664
  609MOL0     H82211   7.339   2.132  10.920 -2.1419 -1.8513 -0.7109
  609MOL0     H82212   7.342   2.742  10.962  2.3364  1.4314 -0.3739
  609MOL0     H82213   7.690   2.769  11.018  0.0109  0.4454  1.6755
  609MOL0     H82214   7.553   2.761  10.906  0.6091 -0.8656 -0.0908
  609MOL0     H82215   7.615   2.920  10.979 -1.5957  1.5117  1.9398
  610MOL0     O82216  10.694   6.395   7.013 -0.1055  0.6279 -0.4016
  610MOL0     C82217  10.694   6.271   7.028 -0.3739 -0.5181  0.6549
  610MOL0     O82218  10.810   6.195   7.011 -0.3173  0.4774 -0.1502
  610MOL0     C82219  10.926   6.255   6.974 -0.6055 -0.7859 -1.3005
  610MOL0     C82220  11.033   6.226   7.063 -0.9008  0.8170  0.3223
  610MOL0     C82221  11.165   6.276   7.046 -0.4565  0.7532 -0.3513
  610MOL0     C82222  11.190   6.352   6.935  0.5349  0.4207  0.0302
  610MOL0     O82223  11.325   6.382   6.919  0.0811  0.2455 -0.0529
  610MOL0     C82224  11.405   6.276   6.860 -0.0319  1.2666  0.0498
  610MOL0     C82225  11.514   6.328   6.773 -0.0497  0.0800  0.7260
  610MOL0     C82226  11.454   6.402   6.651 -0.8216 -0.1812  0.0555
  610MOL0     C82227  11.557   6.474   6.562  0.4386  0.5730  0.1242
  610MOL0     C82228  11.616   6.602   6.627 -0.1442  0.2332 -0.8226
  610MOL0     C82229  11.751   6.650   6.562 -0.4949 -0.6574  0.3366
  610MOL0     C82230  11.825   6.761   6.640  0.2511 -0.7952 -0.6333
  610MOL0     C82231  11.767   6.906   6.653  0.7542  0.0162 -0.1824
  610MOL0     N82232  11.829   7.002   6.748 -0.4108 -0.5253  0.4087
  610MOL0     C82233  11.894   6.982   6.875  0.5235 -0.3693  0.2825
  610MOL0     C82234  11.972   7.090   6.881 -0.3912 -0.5319 -0.4044
  610MOL0     C82235  12.066   7.119   6.995  0.4725  1.2191  0.3218
  610MOL0     C82236  11.995   7.198   7.105 -0.2246  0.5510  0.0276
  610MOL0     C82237  11.984   7.351   7.069  0.5592 -0.5697 -0.0676
  610MOL0     C82238  11.865   7.417   7.136 -0.4539 -0.5761 -0.2675
  610MOL0     O82239  11.884   7.427   7.275 -0.1407 -0.8569 -0.6662
  610MOL0     C82240  11.793   7.498   7.348 -1.2285  1.0853 -0.7606
  610MOL0     C82241  11.818   7.485   7.485 -0.3217  0.4326  0.3077
  610MOL0     C82242  11.728   7.529   7.573  1.6935 -0.1060  1.2387
  610MOL0     C82243  11.618   7.611   7.527  0.8911 -0.2300 -0.3144
  610MOL0     C82244  11.522   7.654   7.633 -0.0039  0.3825  1.0147
  610MOL0     O82245  11.537   7.595   7.750 -0.1679  0.5607 -0.4594
  610MOL0     C82246  11.440   7.600   7.841 -0.0662 -0.7100 -0.8087
  610MOL0     C82247  11.472   7.640   7.966  0.4957  0.1017 -0.6113
  610MOL0     C82248  11.373   7.660   8.059 -0.4710 -0.3219 -0.7464
  610MOL0     C82249  11.235   7.625   8.034 -0.1289 -0.3098 -0.9329
  610MOL0     O82250  11.137   7.625   8.130  0.1839 -0.1203  0.5492
  610MOL0     C82251  11.148   7.728   8.234  1.0510  0.0035 -0.2439
  610MOL0     C82252  11.168   7.649   8.368  0.8254 -0.5052  0.4146
  610MOL0     C82253  11.199   7.748   8.484 -0.4436  0.5689 -0.9649
  610MOL0     C82254  11.250   7.657   8.611 -0.2320 -0.9009  0.1579
  610MOL0     C82255  11.226   7.717   8.751 -0.0625 -0.8623 -0.3785
  610MOL0     C82256  11.300   7.641   8.856 -0.1893  0.0435  0.7531
  610MOL0     C82257  11.269   7.695   9.006 -0.0628 -1.5194  0.2242
  610MOL0     C82258  11.356   7.622   9.108  0.9215 -0.7621 -0.8481
  610MOL0    Cl82259  11.258   7.475   9.127  0.0511  0.4778 -0.3866
  610MOL0     C82260  11.207   7.580   7.904 -0.1552  0.2194  0.0432
  610MOL0     C82261  11.307   7.574   7.804 -0.5871 -0.5412  0.0477
  610MOL0     O82262  11.433   7.736   7.600 -0.6110  0.0839 -0.3529
  610MOL0     C82263  11.606   7.637   7.390  0.3702 -0.6405 -0.2015
  610MOL0     C82264  11.689   7.579   7.296 -0.7501 -0.0955 -0.2378
  610MOL0     N82265  11.952   7.174   6.769 -0.4933  0.8183 -0.3034
  610MOL0     N82266  11.860   7.122   6.700 -0.0907  0.0984  0.5242
  610MOL0     C82267  11.093   6.387   6.851  0.9793  0.0041  0.1902
  610MOL0     C82268  10.957   6.347   6.865  0.0458 -0.2612 -0.1448
  610MOL0     C82269  10.587   6.198   7.090 -0.4751  1.0008  0.0113
  610MOL0     C82270  10.625   6.077   7.166 -0.8027 -0.5840  0.3147
  610MOL0     C82271  10.526   6.017   7.251  0.9826 -1.0308  0.6519
  610MOL0     C82272  10.387   6.061   7.242 -0.2056 -0.7116 -0.1351
  610MOL0     O82273  10.280   6.004   7.318 -0.0937  0.2915 -0.6416
  610MOL0     C82274  10.256   6.059   7.444  0.4560 -0.5209 -0.7240
  610MOL0     C82275  10.175   6.189   7.437 -0.6227 -0.1253  0.2805
  610MOL0     C82276  10.090   6.200   7.561 -0.5789 -0.2148  1.2927
  610MOL0     C82277   9.993   6.312   7.555  0.1489  0.2604  0.8906
  610MOL0     C82278  10.071   6.438   7.574  0.6454 -0.7273  0.1444
  610MOL0     C82279  10.149   6.538   7.588  0.4544 -0.3125  0.5014
  610MOL0     C82280  10.356   6.161   7.154 -0.5544 -0.6093 -0.7432
  610MOL0     C82281  10.452   6.232   7.089 -0.2979 -0.7984  0.4025
  610MOL0     C82282  10.415   6.354   6.999 -0.2155  0.1233  0.1191
  610MOL0     H82283  11.009   6.150   7.137  1.1472 -1.7203 -1.4208
  610MOL0     H82284  11.244   6.246   7.113 -2.3175  0.2161  1.7318
  610MOL0     H82285  11.446   6.204   6.931 -1.1609 -0.4332 -0.9542
  610MOL0     H82286  11.336   6.219   6.797 -0.4073  1.2799  0.4410
  610MOL0     H82287  11.559   6.236   6.733  1.0478  1.2210 -0.7862
  610MOL0     H82288  11.579   6.395   6.830 -0.7266 -0.5410  2.2762
  610MOL0     H82289  11.391   6.481   6.692 -0.2790  0.5118 -0.4370
  610MOL0     H82290  11.394   6.335   6.589 -3.3216  1.3954  0.6300
  610MOL0     H82291  11.636   6.406   6.529 -0.5442  0.4123 -2.0875
  610MOL0     H82292  11.515   6.506   6.466  0.6445 -3.1641 -1.3835
  610MOL0     H82293  11.540   6.680   6.635 -0.7877 -0.6041  4.5427
  610MOL0     H82294  11.639   6.574   6.730  0.7281  2.5820 -0.3069
  610MOL0     H82295  11.819   6.565   6.550 -2.5323 -2.3114 -0.1151
  610MOL0     H82296  11.732   6.692   6.463  2.4561 -0.6391 -0.3118
  610MOL0     H82297  11.929   6.768   6.605  0.3080  0.8156 -0.2155
  610MOL0     H82298  11.840   6.724   6.742  4.7858 -2.4497 -1.6429
  610MOL0     H82299  11.783   6.948   6.553 -0.6836 -0.1147 -0.4965
  610MOL0     H82300  11.659   6.904   6.671  0.2062  1.0868 -2.8335
  610MOL0     H82301  11.870   6.889   6.926 -2.2658 -0.1184 -0.3764
  610MOL0     H82302  12.105   7.027   7.038 -3.5455 -0.0948  1.5904
  610MOL0     H82303  12.152   7.177   6.959  1.3354  0.7963  1.6621
  610MOL0     H82304  11.899   7.153   7.132  0.2752 -1.3322 -1.2179
  610MOL0     H82305  12.060   7.192   7.193  0.8541  2.7238 -0.5359
  610MOL0     H82306  11.975   7.360   6.960 -2.1856 -0.4805  0.0923
  610MOL0     H82307  12.076   7.404   7.095 -0.5336  2.3069 -1.5771
  610MOL0     H82308  11.775   7.358   7.116  0.4525 -2.3048  0.5168
  610MOL0     H82309  11.863   7.517   7.093  3.1727  0.0206  0.5970
  610MOL0     H82310  11.901   7.423   7.518 -0.2581 -0.6484 -1.7299
  610MOL0     H82311  11.735   7.525   7.681 -0.0041  1.9787  1.5091
  610MOL0     H82312  11.575   7.652   7.997  0.5176 -2.2785  0.4948
  610MOL0     H82313  11.420   7.698   8.150  3.9846  1.4003 -3.4027
  610MOL0     H82314  11.231   7.799   8.226  1.1170  0.4781  3.2386
  610MOL0     H82315  11.053   7.782   8.227  0.7742 -0.5257 -0.7709
  610MOL0     H82316  11.075   7.597   8.396  0.0171  0.4777 -0.3460
  610MOL0     H82317  11.248   7.575   8.363  1.0195 -0.9245  4.9450
  610MOL0     H82318  11.272   7.829   8.471 -1.2413  1.3554 -0.5724
  610MOL0     H82319  11.109   7.802   8.511  2.4266  3.6418  4.1314
  610MOL0     H82320  11.358   7.645   8.612 -0.1700 -0.3583  1.6397
  610MOL0     H82321  11.185   7.569   8.609  0.3184 -1.3060 -0.9737
  610MOL0     H82322  11.118   7.723   8.771 -0.5109  0.8837 -2.7733
  610MOL0     H82323  11.273   7.816   8.758  4.0594 -2.5328 -1.6042
  610MOL0     H82324  11.260   7.540   8.845  0.3929  0.0442 -2.5580
  610MOL0     H82325  11.407   7.635   8.837 -0.0970 -0.0456  1.3004
  610MOL0     H82326  11.165   7.671   9.030 -1.1995  1.7609 -0.9576
  610MOL0     H82327  11.292   7.800   9.023 -0.3171 -1.7643  2.3282
  610MOL0     H82328  11.454   7.599   9.067  1.0818 -2.8395  0.5375
  610MOL0     H82329  11.356   7.682   9.200 -2.4559  3.0834 -2.9837
  610MOL0     H82330  11.104   7.552   7.883 -0.9309  2.6837  0.2654
  610MOL0     H82331  11.293   7.542   7.701  0.7816 -0.3193 -0.2198
  610MOL0     H82332  11.520   7.697   7.360 -0.5025 -2.4720 -1.5755
  610MOL0     H82333  11.673   7.599   7.191  0.1276 -0.9112 -0.5425
  610MOL0     H82334  11.114   6.445   6.762 -1.0824  2.0152  0.9270
  610MOL0     H82335  10.884   6.386   6.795  0.2520 -0.7763 -0.6526
  610MOL0     H82336  10.726   6.042   7.182  0.0756  1.2876 -0.7703
  610MOL0     H82337  10.552   5.959   7.339 -1.8251 -3.2816  0.1212
  610MOL0     H82338  10.354   6.085   7.486  1.1403 -1.0995 -1.9080
  610MOL0     H82339  10.207   5.985   7.509 -0.0885  0.6078  0.1896
  610MOL0     H82340  10.119   6.175   7.345 -2.1679  1.1749  0.9652
  610MOL0     H82341  10.230   6.283   7.423 -1.8561  0.8175  1.4431
  610MOL0     H82342  10.159   6.221   7.644  0.1460  2.3639  0.1238
  610MOL0     H82343  10.027   6.111   7.572  2.2189 -2.2130  2.6829
  610MOL0     H82344   9.956   6.338   7.456  0.5786  0.2140  0.7167
  610MOL0     H82345   9.911   6.299   7.627 -1.3376 -5.3417 -1.2971
  610MOL0     H82346  10.198   6.626   7.624  0.9783 -0.6319  0.5847
  610MOL0     H82347  10.254   6.192   7.140 -1.1439 -1.7507  0.7106
  610MOL0     H82348  10.312   6.354   6.961 -0.5319  1.5466  0.9072
  610MOL0     H82349  10.428   6.440   7.064  0.3605 -0.0159  0.1926
  610MOL0     H82350  10.481   6.368   6.912  1.4348  3.3940  1.7330
  611MOL0     O82351  10.385   5.572   8.330 -0.4712  0.3599  0.4174
  611MOL0     C82352  10.435   5.598   8.218 -0.2963 -1.1418 -0.2661
  611MOL0     O82353  10.366   5.570   8.094 -0.5997  0.2046  0.1438
  611MOL0     C82354  10.232   5.535   8.089 -0.2739 -0.6984  0.1181
  611MOL0     C82355  10.146   5.627   8.034  0.5507 -0.2539 -0.2799
  611MOL0     C82356  10.004   5.609   8.033 -0.4174 -0.2789 -0.0189
  611MOL0     C82357   9.952   5.499   8.098 -0.7472  0.5715  0.1643
  611MOL0     O82358   9.819   5.475   8.106  0.5706 -0.5673  0.1348
  611MOL0     C82359   9.711   5.577   8.103 -0.5175 -0.1288  0.7690
  611MOL0     C82360   9.572   5.511   8.122  0.4710  0.1405  1.4060
  611MOL0     C82361   9.559   5.441   8.250 -0.1807  0.2091 -0.8645
  611MOL0     C82362   9.622   5.512   8.372 -0.4798 -0.5514 -0.1524
  611MOL0     C82363   9.552   5.464   8.505 -1.0643 -0.6615  0.5597
  611MOL0     C82364   9.635   5.348   8.571 -0.4975  0.1837  0.2636
  611MOL0     C82365   9.541   5.304   8.686  0.7343 -0.7533  1.0001
  611MOL0     C82366   9.577   5.179   8.762 -1.2141 -0.1859 -0.1158
  611MOL0     N82367   9.461   5.129   8.832 -0.2179 -1.5110  0.1699
  611MOL0     C82368   9.351   5.066   8.779  0.4788 -0.8982  0.4476
  611MOL0     C82369   9.271   5.054   8.896 -0.0327 -0.3924 -0.3320
  611MOL0     C82370   9.137   4.977   8.906 -0.6316  1.0729  0.0740
  611MOL0     C82371   9.169   4.827   8.907  0.2713  1.2715 -0.2274
  611MOL0     C82372   9.059   4.727   8.886 -0.6886  0.0341  0.4326
  611MOL0     C82373   9.002   4.740   8.750  0.3406  0.0641 -0.4494
  611MOL0     O82374   9.083   4.776   8.639 -0.1063 -0.1197 -0.7019
  611MOL0     C82375   9.014   4.829   8.524 -0.8185 -0.4762  0.2652
  611MOL0     C82376   9.088   4.913   8.446  0.6721  0.2776 -0.2427
  611MOL0     C82377   9.024   4.975   8.327 -0.3585  0.1064  0.9182
  611MOL0     C82378   8.895   4.931   8.278 -0.5141  0.1767  0.4283
  611MOL0     C82379   8.844   4.979   8.148 -0.3742  0.5525  0.3389
  611MOL0     O82380   8.757   4.898   8.084 -0.4203  1.1072  0.2948
  611MOL0     C82381   8.690   4.953   7.983  0.4750  1.2087 -0.1425
  611MOL0     C82382   8.662   4.875   7.872 -0.4834  0.1859  0.5046
  611MOL0     C82383   8.596   4.925   7.764 -1.1240 -0.1183  0.6908
  611MOL0     C82384   8.531   5.052   7.777  0.9988 -0.1136  0.4370
  611MOL0     O82385   8.445   5.089   7.687  0.0558 -0.0206  0.7285
  611MOL0     C82386   8.425   5.229   7.655  0.2667 -0.0595 -0.0844
  611MOL0     C82387   8.559   5.308   7.636  0.0133  0.9275  0.0363
  611MOL0     C82388   8.537   5.456   7.600 -0.0130 -0.1947 -0.3318
  611MOL0     C82389   8.667   5.538   7.608 -0.5342 -0.3680  0.5704
  611MOL0     C82390   8.636   5.688   7.626  0.4407 -0.4728  0.2847
  611MOL0     C82391   8.753   5.777   7.649  0.1429  0.6184  0.4554
  611MOL0     C82392   8.693   5.917   7.651 -0.1128 -0.1018  0.6611
  611MOL0     C82393   8.798   6.023   7.624  0.0724 -0.7364 -0.3880
  611MOL0    Cl82394   8.831   6.065   7.448 -0.1679  0.4786 -0.3125
  611MOL0     C82395   8.543   5.131   7.901  1.2666  0.8651  0.9977
  611MOL0     C82396   8.629   5.078   7.997  0.0390  1.0196 -0.0060
  611MOL0     O82397   8.892   5.086   8.105  0.3576 -0.1650 -0.1396
  611MOL0     C82398   8.834   4.840   8.362  0.1084  0.1824  0.7897
  611MOL0     C82399   8.890   4.789   8.486 -0.0450 -0.0881 -0.6413
  611MOL0     N82400   9.340   5.106   9.007 -0.3660  0.4574  0.1649
  611MOL0     N82401   9.445   5.158   8.966  0.0539  0.4514  0.7635
  611MOL0     C82402  10.045   5.394   8.141 -0.4281 -0.3082 -0.2603
  611MOL0     C82403  10.183   5.419   8.142 -0.6669 -0.2985  0.7575
  611MOL0     C82404  10.567   5.671   8.197 -0.5007 -0.2985 -0.0349
  611MOL0     C82405  10.613   5.698   8.062 -0.2792  0.0432 -0.6797
  611MOL0     C82406  10.736   5.771   8.035  0.0593 -0.7828 -0.3796
  611MOL0     C82407  10.822   5.807   8.139  0.0996  0.0405 -0.1530
  611MOL0     O82408  10.943   5.860   8.115 -0.2992  0.3274  0.3888
  611MOL0     C82409  10.934   6.002   8.077  0.0611  0.3709 -1.0945
  611MOL0     C82410  11.068   6.050   8.025 -1.0428  0.9269  0.5176
  611MOL0     C82411  11.075   6.182   7.937  0.2540  0.4187  0.0019
  611MOL0     C82412  11.202   6.250   7.943 -0.5023  0.0759 -1.5128
  611MOL0     C82413  11.312   6.172   7.912  0.1024  0.3811 -0.0375
  611MOL0     C82414  11.406   6.107   7.875 -0.3019 -0.2036  0.8351
  611MOL0     C82415  10.787   5.774   8.273  1.1625  0.6257  0.4571
  611MOL0     C82416  10.661   5.710   8.300  1.0094  0.9786  0.4227
  611MOL0     C82417  10.619   5.695   8.446  0.4330  0.6826 -0.9713
  611MOL0     H82418  10.191   5.717   7.994 -0.8080  0.4152 -0.3255
  611MOL0     H82419   9.938   5.686   7.995 -0.5531 -1.2516 -1.8671
  611MOL0     H82420   9.725   5.650   8.183 -2.7106  1.7313 -0.4146
  611MOL0     H82421   9.712   5.629   8.006  1.6121 -0.8852  0.3249
  611MOL0     H82422   9.555   5.437   8.043  1.2284  0.4639  0.9283
  611MOL0     H82423   9.492   5.585   8.116 -0.2318 -0.7126 -3.3856
  611MOL0     H82424   9.589   5.338   8.233 -0.5347 -0.1453  0.5482
  611MOL0     H82425   9.453   5.426   8.271 -0.0925 -0.7512 -1.0917
  611MOL0     H82426   9.727   5.482   8.381 -1.3420 -4.8258 -1.6429
  611MOL0     H82427   9.610   5.618   8.349 -0.3744 -0.7803 -1.3249
  611MOL0     H82428   9.548   5.554   8.567 -1.2653 -0.9551  0.9788
  611MOL0     H82429   9.449   5.429   8.495 -1.2580 -0.5835  2.0259
  611MOL0     H82430   9.653   5.274   8.492 -1.0931  1.6189 -1.2742
  611MOL0     H82431   9.729   5.390   8.609 -0.8543 -0.1882  1.6085
  611MOL0     H82432   9.439   5.280   8.654 -0.2496  0.3701  3.0729
  611MOL0     H82433   9.533   5.385   8.759 -0.5109  2.2366 -2.1628
  611MOL0     H82434   9.611   5.102   8.692 -2.2553 -1.3544  0.6258
  611MOL0     H82435   9.659   5.211   8.828 -0.5364 -0.8894 -0.6005
  611MOL0     H82436   9.317   5.032   8.682 -0.8141 -1.7746  1.1748
  611MOL0     H82437   9.083   5.010   8.996 -1.8410  0.5383 -0.4334
  611MOL0     H82438   9.091   4.993   8.808 -0.1657 -3.1540 -1.0367
  611MOL0     H82439   9.260   4.810   8.849  0.3149 -1.1717  0.4475
  611MOL0     H82440   9.201   4.808   9.010 -1.4117 -0.9218 -0.0476
  611MOL0     H82441   8.980   4.729   8.962 -0.2304  3.2440  0.9447
  611MOL0     H82442   9.119   4.635   8.891 -0.9644 -0.1313  0.7786
  611MOL0     H82443   8.914   4.806   8.753 -0.8865 -1.5427  0.8172
  611MOL0     H82444   8.950   4.646   8.730 -1.4730  0.1132  3.2201
  611MOL0     H82445   9.182   4.958   8.474 -0.3056  1.9572  0.4819
  611MOL0     H82446   9.076   5.058   8.280 -0.7424 -0.9728 -1.5417
  611MOL0     H82447   8.713   4.781   7.860 -1.7874 -0.1294 -5.7395
  611MOL0     H82448   8.588   4.860   7.678  1.3028  0.6155 -0.2091
  611MOL0     H82449   8.379   5.231   7.556 -0.7516 -2.4370  0.2609
  611MOL0     H82450   8.367   5.282   7.732  1.6179  0.8971  0.3054
  611MOL0     H82451   8.618   5.320   7.727 -0.4614  1.1460  0.3164
  611MOL0     H82452   8.620   5.267   7.555 -1.8541  0.6349 -1.3059
  611MOL0     H82453   8.496   5.471   7.500 -0.4856  1.6719  0.1157
  611MOL0     H82454   8.466   5.494   7.673  1.3834 -0.2229  1.0992
  611MOL0     H82455   8.716   5.518   7.513 -0.9754  0.0650  0.2447
  611MOL0     H82456   8.736   5.512   7.689  0.6859 -2.9664 -1.1871
  611MOL0     H82457   8.572   5.693   7.715 -0.3752 -1.0616 -0.2534
  611MOL0     H82458   8.572   5.722   7.544  1.5366  1.4900  0.1586
  611MOL0     H82459   8.800   5.755   7.745  0.0262 -1.6231  0.0685
  611MOL0     H82460   8.830   5.753   7.574 -1.3984  0.4641 -1.1349
  611MOL0     H82461   8.644   5.925   7.749 -1.8755 -0.4201 -0.1577
  611MOL0     H82462   8.610   5.924   7.581  0.5095 -4.5984 -0.8720
  611MOL0     H82463   8.771   6.122   7.662  1.1074  0.4751 -2.6489
  611MOL0     H82464   8.892   5.989   7.670 -0.6694 -1.3632  0.6972
  611MOL0     H82465   8.485   5.222   7.916 -1.2447  0.0553 -2.5267
  611MOL0     H82466   8.652   5.141   8.082  0.6086  0.6955  0.0839
  611MOL0     H82467   8.736   4.811   8.325 -0.3535  0.4356  1.7737
  611MOL0     H82468   8.840   4.712   8.545  1.8935  1.0187  2.7178
  611MOL0     H82469  10.004   5.307   8.190  0.1989  0.2144  1.2647
  611MOL0     H82470  10.261   5.354   8.180  3.0884  1.8336 -2.5381
  611MOL0     H82471  10.550   5.673   7.978  0.1032  0.2610 -1.0361
  611MOL0     H82472  10.773   5.783   7.934  1.1002  0.5686  0.1383
  611MOL0     H82473  10.919   6.057   8.171 -1.3569 -0.7693 -0.6187
  611MOL0     H82474  10.855   6.020   8.004  1.7406  0.4968 -2.9667
  611MOL0     H82475  11.098   5.971   7.956 -1.7535  0.9333  0.1867
  611MOL0     H82476  11.132   6.056   8.113 -1.2947  0.5160  0.7305
  611MOL0     H82477  10.998   6.257   7.957  1.5464  2.1696 -1.3254
  611MOL0     H82478  11.055   6.150   7.835  2.2474  0.2185 -0.3632
  611MOL0     H82479  11.196   6.333   7.872 -1.2064  1.0396 -0.3807
  611MOL0     H82480  11.209   6.273   8.050 -0.0263  0.0412 -1.5327
  611MOL0     H82481  11.468   6.033   7.829 -2.0851 -0.3290 -1.5216
  611MOL0     H82482  10.849   5.816   8.351  0.2916  4.1083 -0.5646
  611MOL0     H82483  10.525   5.745   8.471 -0.0491  0.5033 -2.3535
  611MOL0     H82484  10.605   5.590   8.476  1.2738  1.6108  3.4244
  611MOL0     H82485  10.697   5.726   8.516  0.6778 -2.4649  0.3426
  612MOL0     O82486   5.680   5.069   8.766  0.5110  0.6201  0.6169
  612MOL0     C82487   5.608   5.144   8.838  0.0361  0.4400  0.7787
  612MOL0     O82488   5.641   5.247   8.916 -0.0425  0.0465 -0.3494
  612MOL0     C82489   5.778   5.261   8.958  0.8221 -0.1111 -0.1759
  612MOL0     C82490   5.816   5.397   8.983 -0.4849  0.3296  0.7400
  612MOL0     C82491   5.948   5.421   9.036  0.1824 -0.1469 -0.5385
  612MOL0     C82492   6.034   5.309   9.059 -0.1552  0.0129 -0.1932
  612MOL0     O82493   6.164   5.348   9.097 -0.9047 -0.2846  0.3708
  612MOL0     C82494   6.270   5.244   9.100 -0.0290 -0.6787 -0.3453
  612MOL0     C82495   6.276   5.150   9.228  1.0020 -0.6965  0.5392
  612MOL0     C82496   6.308   5.232   9.348  0.5441 -0.4434 -0.0080
  612MOL0     C82497   6.183   5.291   9.412 -0.2789 -1.1340 -0.0363
  612MOL0     C82498   6.209   5.360   9.545  1.2427 -0.7555 -1.2916
  612MOL0     C82499   6.081   5.414   9.620 -0.0632 -0.1329 -0.2181
  612MOL0     C82500   6.110   5.505   9.742  0.7176  0.2239  0.2082
  612MOL0     C82501   5.988   5.555   9.824 -0.3732  0.1834 -0.5980
  612MOL0     N82502   5.933   5.685   9.785 -0.2412 -0.0931 -0.2988
  612MOL0     C82503   5.936   5.792   9.865  0.5851 -0.2913 -0.4829
  612MOL0     C82504   5.884   5.891   9.794 -0.1716  0.2771  0.1669
  612MOL0     C82505   5.850   6.019   9.842  1.3625 -0.4603 -0.2368
  612MOL0     C82506   5.693   6.031   9.861  1.3085  0.3354 -0.1674
  612MOL0     C82507   5.641   6.157   9.935  0.0759 -0.5010  0.5531
  612MOL0     C82508   5.487   6.154   9.941 -0.4903  1.0928 -0.1075
  612MOL0     O82509   5.433   6.033   9.989 -0.2175  0.0381  0.4937
  612MOL0     C82510   5.295   6.029  10.009 -0.2172  0.1203  0.0001
  612MOL0     C82511   5.246   6.028  10.139  0.3262  0.3255  0.1754
  612MOL0     C82512   5.106   6.024  10.159 -0.7636  0.3833 -0.1552
  612MOL0     C82513   5.015   6.024  10.053 -0.3836  0.7085 -0.1085
  612MOL0     C82514   4.867   6.016  10.077 -0.6775 -0.4519 -0.7109
  612MOL0     O82515   4.789   5.982   9.971 -0.0121  0.7637 -0.4724
  612MOL0     C82516   4.659   5.939   9.995 -0.3789 -0.0785  0.3171
  612MOL0     C82517   4.601   5.889  10.105  0.3111  0.0738 -0.5926
  612MOL0     C82518   4.459   5.847  10.102 -0.5156 -0.4996 -0.1622
  612MOL0     C82519   4.384   5.854   9.986  0.0005  0.4978 -0.0517
  612MOL0     O82520   4.245   5.823  10.000 -0.0728 -0.1337 -0.4004
  612MOL0     C82521   4.165   5.776   9.886  0.1968  0.2286 -0.2847
  612MOL0     C82522   4.033   5.722   9.947 -1.4785 -0.0232 -0.0488
  612MOL0     C82523   3.941   5.831   9.988  0.3958 -0.4541 -0.2677
  612MOL0     C82524   3.802   5.791  10.013 -0.8956  0.2216 -0.1684
  612MOL0     C82525   3.735   5.923  10.042 -0.0784  1.0429  0.3971
  612MOL0     C82526   3.578   5.890  10.068  0.7936  0.8357 -0.5944
  612MOL0     C82527   3.517   6.014  10.122  0.2767  0.1910  0.0493
  612MOL0     C82528   3.559   6.034  10.267  0.0807  0.7780  0.1175
  612MOL0    Cl82529   3.461   6.165  10.327  0.1187  0.1368  0.4949
  612MOL0     C82530   4.452   5.890   9.868 -1.1525  0.3613 -0.4863
  612MOL0     C82531   4.585   5.938   9.876  0.0754 -0.2399  0.0052
  612MOL0     O82532   4.827   6.038  10.190 -0.1095 -0.3679 -0.4164
  612MOL0     C82533   5.071   6.032   9.920  0.6627 -0.5727 -0.3438
  612MOL0     C82534   5.211   6.039   9.903  0.1973 -0.1254 -1.1321
  612MOL0     N82535   5.858   5.847   9.669 -0.9637 -0.6768  0.0210
  612MOL0     N82536   5.890   5.717   9.664  0.5355 -0.2145  0.2096
  612MOL0     C82537   5.997   5.176   9.027 -0.4689 -0.0716  0.6995
  612MOL0     C82538   5.875   5.152   8.981  0.4396  0.5635  0.1684
  612MOL0     C82539   5.460   5.115   8.827 -0.6946 -0.3217 -0.3480
  612MOL0     C82540   5.419   4.979   8.815  0.3318  0.0764  1.4902
  612MOL0     C82541   5.290   4.939   8.822 -0.0380  0.6953 -0.1471
  612MOL0     C82542   5.190   5.031   8.843 -0.2482  0.3458  0.4964
  612MOL0     O82543   5.059   4.986   8.837  0.2669  0.3515 -0.6771
  612MOL0     C82544   4.945   5.050   8.906  0.1586 -0.5986  0.0790
  612MOL0     C82545   4.892   4.951   9.013  0.5406 -0.4124 -0.5708
  612MOL0     C82546   4.992   4.918   9.123  0.4072  0.6376 -0.7795
  612MOL0     C82547   4.945   4.817   9.222 -0.2390 -0.1261  0.8297
  612MOL0     C82548   4.837   4.887   9.296 -0.6103  0.1636  0.6432
  612MOL0     C82549   4.752   4.929   9.367 -0.0650  0.0540 -0.7465
  612MOL0     C82550   5.226   5.169   8.835  0.0210 -0.9574 -0.6247
  612MOL0     C82551   5.360   5.215   8.828 -0.3890  0.5158  0.3732
  612MOL0     C82552   5.379   5.366   8.849  0.5896  0.8241 -0.3562
  612MOL0     H82553   5.746   5.479   8.972 -0.6566 -0.0145 -0.9505
  612MOL0     H82554   5.974   5.523   9.065  0.7250  0.3413 -2.5662
  612MOL0     H82555   6.273   5.192   9.003  1.8667 -2.8870  0.7816
  612MOL0     H82556   6.369   5.291   9.097 -0.2272 -0.2889 -0.7953
  612MOL0     H82557   6.350   5.070   9.218  2.4726  0.5310  1.2920
  612MOL0     H82558   6.175   5.106   9.233  1.0244 -0.7292  0.7402
  612MOL0     H82559   6.392   5.302   9.341  0.4949 -0.4318 -0.4827
  612MOL0     H82560   6.337   5.149   9.413 -1.5621  1.1312  3.2593
  612MOL0     H82561   6.130   5.352   9.337 -2.6713 -3.3249 -0.2395
  612MOL0     H82562   6.116   5.206   9.425  1.3499 -2.1163  2.5734
  612MOL0     H82563   6.262   5.297   9.618 -1.2689 -3.2224 -1.4112
  612MOL0     H82564   6.254   5.458   9.530 -1.1131  0.8207  1.0223
  612MOL0     H82565   6.008   5.468   9.559 -1.2233  0.7485  1.8498
  612MOL0     H82566   6.030   5.322   9.650  0.0483 -0.8502 -2.0965
  612MOL0     H82567   6.166   5.594   9.713 -0.6824  0.2019 -2.9994
  612MOL0     H82568   6.178   5.445   9.804 -0.6423 -2.5666 -0.8268
  612MOL0     H82569   5.924   5.468   9.806  1.1339 -1.1633  0.1594
  612MOL0     H82570   6.017   5.550   9.930  0.8832 -1.8177 -0.9700
  612MOL0     H82571   5.971   5.788   9.967 -0.6313 -2.5599 -0.1026
  612MOL0     H82572   5.884   6.014   9.946 -2.4102 -3.3755  1.0753
  612MOL0     H82573   5.895   6.103   9.788  1.2423 -2.3769 -3.5270
  612MOL0     H82574   5.645   6.033   9.762  0.4702 -2.6284  0.0886
  612MOL0     H82575   5.652   5.936   9.898  2.1698 -0.9839 -2.3990
  612MOL0     H82576   5.676   6.245   9.881 -0.8908 -1.4093 -1.6896
  612MOL0     H82577   5.678   6.174  10.037 -1.2454  2.8827  0.5776
  612MOL0     H82578   5.448   6.184   9.843  0.8615  2.5205 -0.2430
  612MOL0     H82579   5.471   6.232  10.016 -0.3421  1.7055 -0.7029
  612MOL0     H82580   5.316   6.043  10.221 -0.6211 -1.9321  1.5001
  612MOL0     H82581   5.070   6.032  10.261  1.3687  0.1548  0.6662
  612MOL0     H82582   4.657   5.881  10.198  0.7390  0.2801 -0.8315
  612MOL0     H82583   4.419   5.829  10.201 -2.3290 -0.5140 -0.8690
  612MOL0     H82584   4.150   5.862   9.819 -2.6351  1.6437  1.9693
  612MOL0     H82585   4.225   5.701   9.833  0.2679 -1.0821  1.5700
  612MOL0     H82586   3.984   5.659   9.872 -2.8595 -3.1222  3.1308
  612MOL0     H82587   4.078   5.659  10.025  0.2646  1.5477  0.2695
  612MOL0     H82588   3.972   5.889  10.076 -0.9023  2.2092 -1.4384
  612MOL0     H82589   3.938   5.898   9.902  1.7234  1.1068  0.8244
  612MOL0     H82590   3.804   5.720  10.096 -0.5802  2.6841  2.0386
  612MOL0     H82591   3.768   5.737   9.924  3.4661 -0.3922 -1.7288
  612MOL0     H82592   3.745   5.987   9.954  3.6223 -0.9285 -0.8394
  612MOL0     H82593   3.774   5.979  10.127 -2.7088  3.3777  0.2264
  612MOL0     H82594   3.527   5.852   9.979  0.7613  1.3609 -0.8030
  612MOL0     H82595   3.570   5.808  10.140 -1.0971 -0.1984 -1.8854
  612MOL0     H82596   3.409   6.003  10.111  0.6434 -2.2099 -1.9924
  612MOL0     H82597   3.540   6.100  10.058  2.4835 -1.5587 -1.6880
  612MOL0     H82598   3.548   5.940  10.321 -0.6893  0.4489 -0.5913
  612MOL0     H82599   3.664   6.065  10.268  0.3817 -0.2093  0.1407
  612MOL0     H82600   4.408   5.885   9.769  2.2995 -0.7388 -2.1163
  612MOL0     H82601   4.632   5.981   9.788 -0.7151  0.3657 -0.1314
  612MOL0     H82602   5.008   6.045   9.833 -0.3912  1.3379  0.6539
  612MOL0     H82603   5.248   6.049   9.802  2.6761  2.4020 -0.1224
  612MOL0     H82604   6.068   5.095   9.043 -2.5734 -2.1171  0.1761
  612MOL0     H82605   5.850   5.049   8.959 -0.6061  0.8377 -0.0040
  612MOL0     H82606   5.486   4.901   8.781 -1.3440 -0.3716 -1.0280
  612MOL0     H82607   5.260   4.835   8.818  2.0631 -0.0886  1.7909
  612MOL0     H82608   4.869   5.077   8.833 -1.2622  0.1759  1.7635
  612MOL0     H82609   4.988   5.130   8.968  4.1961 -3.2314  1.0814
  612MOL0     H82610   4.862   4.861   8.959 -1.8305  0.4328 -0.7564
  612MOL0     H82611   4.803   5.006   9.043  1.6615  1.7138 -0.9359
  612MOL0     H82612   5.016   5.012   9.174  1.2464 -0.7391  1.5269
  612MOL0     H82613   5.083   4.882   9.073  0.3453  2.5969 -2.4547
  612MOL0     H82614   4.906   4.731   9.168  0.7221 -0.9523  1.4184
  612MOL0     H82615   5.029   4.794   9.289  0.2331  2.2494  1.1443
  612MOL0     H82616   4.672   4.950   9.435 -0.1275 -4.1726  0.7834
  612MOL0     H82617   5.150   5.246   8.823  0.4356 -0.6885 -1.6498
  612MOL0     H82618   5.380   5.387   8.957 -0.7982 -2.8479  0.5379
  612MOL0     H82619   5.477   5.396   8.810  0.2851 -0.1252 -1.9532
  612MOL0     H82620   5.301   5.424   8.800 -0.1314 -0.7888 -1.1957
  613MOL0     O82621   7.175   7.727   8.691 -0.0065  0.9877  0.3032
  613MOL0     C82622   7.141   7.609   8.705 -0.7440 -0.0434 -0.3146
  613MOL0     O82623   7.182   7.506   8.622  0.0974 -0.1642 -0.7501
  613MOL0     C82624   7.255   7.546   8.512  0.1166 -0.7447 -0.3895
  613MOL0     C82625   7.392   7.580   8.534  1.2850 -0.0890 -0.3990
  613MOL0     C82626   7.473   7.622   8.432  0.1810 -0.3346 -0.0940
  613MOL0     C82627   7.422   7.639   8.305 -1.2618 -0.0366 -0.1073
  613MOL0     O82628   7.513   7.662   8.204  0.4122  0.2518 -0.0431
  613MOL0     C82629   7.479   7.753   8.100 -0.6017  0.1527  0.5620
  613MOL0     C82630   7.596   7.834   8.048 -0.1501 -0.7466 -0.1379
  613MOL0     C82631   7.728   7.752   8.043 -0.7972  0.4736  1.0717
  613MOL0     C82632   7.846   7.845   8.024 -0.5667 -0.6236 -0.9272
  613MOL0     C82633   7.979   7.778   8.028 -0.8276 -1.2430 -0.2269
  613MOL0     C82634   8.103   7.870   8.034 -0.4194 -0.3375 -0.2007
  613MOL0     C82635   8.235   7.795   8.048 -0.1977 -0.2593 -0.3094
  613MOL0     C82636   8.251   7.725   8.188  1.6438 -0.5113 -0.7289
  613MOL0     N82637   8.374   7.671   8.212 -0.3960 -0.0468 -0.0323
  613MOL0     C82638   8.407   7.536   8.231 -0.1159  0.0532  0.8264
  613MOL0     C82639   8.537   7.537   8.275  0.5222  0.2148 -0.1306
  613MOL0     C82640   8.611   7.415   8.301 -0.4969 -0.6393  0.7670
  613MOL0     C82641   8.750   7.426   8.226  0.6725 -0.5066 -0.3155
  613MOL0     C82642   8.832   7.303   8.252 -0.3570 -0.2988  0.2138
  613MOL0     C82643   8.971   7.330   8.200  0.2330 -1.2423  0.2419
  613MOL0     O82644   8.962   7.352   8.061  0.3118  0.1669 -0.0322
  613MOL0     C82645   9.065   7.399   7.985 -0.5632 -0.6683  0.3454
  613MOL0     C82646   9.173   7.479   8.032 -0.1010  0.2373  0.7874
  613MOL0     C82647   9.274   7.528   7.949 -0.3208 -0.1849  1.3863
  613MOL0     C82648   9.268   7.487   7.809 -1.0163  0.3845 -0.9787
  613MOL0     C82649   9.357   7.538   7.706  0.9376 -0.3879 -0.4990
  613MOL0     O82650   9.466   7.590   7.759 -0.2987  0.6275  0.1387
  613MOL0     C82651   9.567   7.640   7.679 -0.2273 -0.3275  0.4742
  613MOL0     C82652   9.630   7.755   7.732  0.2923 -0.5593 -0.4921
  613MOL0     C82653   9.744   7.815   7.672  0.2079  0.2394 -0.4350
  613MOL0     C82654   9.804   7.747   7.566 -0.6292  0.1535  0.2582
  613MOL0     O82655   9.915   7.795   7.506 -0.0387 -0.1188  0.6544
  613MOL0     C82656  10.015   7.876   7.577 -0.2239  0.1490 -0.7489
  613MOL0     C82657  10.157   7.839   7.535  0.3898  0.3107 -0.1840
  613MOL0     C82658  10.250   7.890   7.642  0.4204 -0.5053 -0.9439
  613MOL0     C82659  10.401   7.871   7.622  0.2817  0.3091  0.2170
  613MOL0     C82660  10.483   7.955   7.721 -0.3246 -0.0498 -0.1568
  613MOL0     C82661  10.636   7.946   7.686  0.3246 -0.3665  0.2027
  613MOL0     C82662  10.664   8.060   7.586 -0.6132 -0.0314  0.3301
  613MOL0     C82663  10.714   8.199   7.647 -0.0046  0.6924 -0.4410
  613MOL0    Cl82664  10.751   8.329   7.519  0.4555  0.1732 -0.1388
  613MOL0     C82665   9.730   7.637   7.509  0.0557  0.4096  0.0119
  613MOL0     C82666   9.618   7.581   7.572  0.1015 -0.3721 -0.0166
  613MOL0     O82667   9.331   7.540   7.583 -0.0168  0.1167 -0.1857
  613MOL0     C82668   9.174   7.386   7.774  0.2104 -0.7438  0.4060
  613MOL0     C82669   9.066   7.359   7.854  0.2811 -0.0689 -0.5562
  613MOL0     N82670   8.577   7.663   8.311  0.3011  0.3785 -0.1947
  613MOL0     N82671   8.473   7.741   8.278  0.3002  0.0276  0.3336
  613MOL0     C82672   7.281   7.605   8.274 -0.1282  0.1765 -0.1011
  613MOL0     C82673   7.203   7.559   8.383  0.3400  0.3622  0.1029
  613MOL0     C82674   7.054   7.561   8.813  1.1940 -0.1222  1.2824
  613MOL0     C82675   6.997   7.427   8.808 -0.2962 -0.1505  0.1648
  613MOL0     C82676   6.918   7.377   8.912 -0.8574  0.5002 -0.2968
  613MOL0     C82677   6.877   7.458   9.014 -1.4132  0.0659  0.0984
  613MOL0     O82678   6.807   7.395   9.111  0.3795  0.0240  0.0613
  613MOL0     C82679   6.672   7.441   9.135 -0.9761 -0.4943 -0.0186
  613MOL0     C82680   6.628   7.360   9.257  0.3360 -0.0437 -0.2728
  613MOL0     C82681   6.665   7.430   9.379  0.0613 -0.3870 -0.2105
  613MOL0     C82682   6.588   7.394   9.511  0.3276 -0.4452  0.2565
  613MOL0     C82683   6.627   7.272   9.573  0.7476 -0.4487 -0.0163
  613MOL0     C82684   6.658   7.176   9.648  0.0210  0.2467 -0.1937
  613MOL0     C82685   6.926   7.588   9.022  1.9376 -0.1390 -0.5381
  613MOL0     C82686   7.014   7.639   8.925  0.1493 -0.6416  0.3305
  613MOL0     C82687   7.045   7.795   8.935  0.5893  0.4900 -0.2701
  613MOL0     H82688   7.423   7.567   8.637  1.9408 -1.5640 -0.7637
  613MOL0     H82689   7.578   7.644   8.442 -0.3059  1.4339  1.6782
  613MOL0     H82690   7.461   7.686   8.016  3.4257 -0.7613  0.2124
  613MOL0     H82691   7.399   7.822   8.130  1.1249  1.5874  2.1856
  613MOL0     H82692   7.602   7.919   8.116 -0.2111 -1.4121  0.7164
  613MOL0     H82693   7.580   7.865   7.945  4.9104  0.3337 -0.8505
  613MOL0     H82694   7.726   7.670   7.970  2.0449  1.8338 -0.6658
  613MOL0     H82695   7.745   7.706   8.141  0.3983  0.3955  0.8333
  613MOL0     H82696   7.826   7.903   7.933 -3.6347  1.1033  0.6790
  613MOL0     H82697   7.844   7.915   8.108  2.5287 -2.3812  0.8015
  613MOL0     H82698   7.970   7.725   8.123 -2.6753 -1.7170 -0.6187
  613MOL0     H82699   7.994   7.699   7.955 -2.2710 -1.1259 -0.6830
  613MOL0     H82700   8.101   7.935   7.946 -3.3441  0.8994  0.6492
  613MOL0     H82701   8.098   7.942   8.116 -0.5299 -1.1856  0.5515
  613MOL0     H82702   8.316   7.866   8.026 -0.9003  0.3911 -0.8838
  613MOL0     H82703   8.223   7.723   7.966 -0.5605  0.1386 -0.6155
  613MOL0     H82704   8.242   7.805   8.263  2.2538 -0.8372 -0.2888
  613MOL0     H82705   8.171   7.650   8.196  1.2273 -0.2065 -1.9042
  613MOL0     H82706   8.337   7.460   8.197  2.6830 -1.1427 -2.9438
  613MOL0     H82707   8.621   7.409   8.410  0.6143  0.4637  0.7455
  613MOL0     H82708   8.552   7.328   8.270 -2.9392  0.4924  1.9096
  613MOL0     H82709   8.727   7.441   8.120 -0.9036 -0.2592  0.0315
  613MOL0     H82710   8.799   7.514   8.269  1.6165 -0.5703 -1.2199
  613MOL0     H82711   8.785   7.221   8.198 -0.0119  0.2958 -1.0112
  613MOL0     H82712   8.838   7.273   8.357 -0.5031 -1.6518 -0.1488
  613MOL0     H82713   9.039   7.245   8.215  1.9303 -0.0121 -0.0779
  613MOL0     H82714   9.012   7.420   8.249 -1.7862  0.7092 -1.4368
  613MOL0     H82715   9.188   7.489   8.139  2.1849  1.8173  0.3853
  613MOL0     H82716   9.362   7.581   7.985 -0.5676  1.3817 -0.1446
  613MOL0     H82717   9.590   7.792   7.826  3.0382 -0.2291  0.6452
  613MOL0     H82718   9.793   7.901   7.716  2.0769 -0.8728 -0.2451
  613MOL0     H82719   9.994   7.974   7.533  0.4552 -0.1830 -1.8592
  613MOL0     H82720  10.001   7.877   7.686 -1.5107 -1.5899 -0.8624
  613MOL0     H82721  10.165   7.732   7.518  1.0601  0.2275  0.5810
  613MOL0     H82722  10.185   7.887   7.441 -0.3430  0.2265 -0.4477
  613MOL0     H82723  10.233   7.996   7.662  0.3595 -0.5423 -0.7917
  613MOL0     H82724  10.228   7.858   7.744 -4.2450  1.5719 -1.0502
  613MOL0     H82725  10.426   7.902   7.520 -0.3910  0.2402  0.0314
  613MOL0     H82726  10.423   7.765   7.639 -0.4602  0.4020  1.8688
  613MOL0     H82727  10.469   7.923   7.824  2.6189 -4.3162 -0.8402
  613MOL0     H82728  10.460   8.062   7.713 -1.3846  0.1301  3.5361
  613MOL0     H82729  10.694   7.968   7.777 -2.0386 -1.7548  2.1598
  613MOL0     H82730  10.666   7.847   7.650  1.4693  1.1636 -3.5228
  613MOL0     H82731  10.577   8.068   7.520  1.1388  1.8285 -1.9153
  613MOL0     H82732  10.745   8.035   7.516 -1.4124 -1.6338 -0.0802
  613MOL0     H82733  10.634   8.239   7.709  0.2604 -0.1771  0.4702
  613MOL0     H82734  10.798   8.167   7.709 -1.0400 -1.3652 -0.0187
  613MOL0     H82735   9.769   7.594   7.418  1.5527  1.0810  0.2924
  613MOL0     H82736   9.576   7.489   7.534 -0.6046  0.5306 -1.5119
  613MOL0     H82737   9.181   7.346   7.673  0.6312  1.4649 -0.5132
  613MOL0     H82738   8.986   7.293   7.820  0.0161 -0.8299  1.4143
  613MOL0     H82739   7.242   7.592   8.174  1.8226  0.6473 -0.9745
  613MOL0     H82740   7.102   7.526   8.362  0.2762  0.0109  0.9024
  613MOL0     H82741   7.026   7.374   8.717  1.3706 -1.3078  1.3107
  613MOL0     H82742   6.881   7.275   8.919  5.1733 -1.9527  1.5620
  613MOL0     H82743   6.610   7.431   9.046 -2.0633  4.5366 -0.1405
  613MOL0     H82744   6.676   7.550   9.148  0.6518 -0.5816  0.5378
  613MOL0     H82745   6.663   7.257   9.252  0.3509  0.0075 -1.4713
  613MOL0     H82746   6.519   7.362   9.245  0.3616  0.8723 -0.4105
  613MOL0     H82747   6.639   7.534   9.357  1.2295 -0.2626 -1.0540
  613MOL0     H82748   6.774   7.425   9.381  0.3179  2.9353 -0.4759
  613MOL0     H82749   6.603   7.475   9.583 -0.5917  0.0635 -0.0972
  613MOL0     H82750   6.481   7.386   9.487 -0.5478 -2.0317  3.9681
  613MOL0     H82751   6.699   7.101   9.712  2.6576  0.9396 -0.9649
  613MOL0     H82752   6.893   7.659   9.097  0.9011  0.8562 -1.8958
  613MOL0     H82753   7.014   7.861   8.853  2.2357  1.4858 -0.1428
  613MOL0     H82754   6.991   7.836   9.021 -0.5836  0.9711 -1.2150
  613MOL0     H82755   7.152   7.815   8.949  1.0679 -1.0414 -1.5399
  614MOL0     O82756  10.727   5.059  10.968  0.0912 -0.0179 -0.6756
  614MOL0     C82757  10.736   5.169  11.016  0.6503 -0.3835  0.1096
  614MOL0     O82758  10.850   5.214  11.079 -0.2451 -0.2034 -0.3103
  614MOL0     C82759  10.963   5.144  11.033 -0.3329 -0.1276  0.1367
  614MOL0     C82760  11.064   5.209  10.956  0.3315  0.3559  0.0779
  614MOL0     C82761  11.174   5.135  10.914  0.5498 -0.7314 -0.6401
  614MOL0     C82762  11.189   4.992  10.937  0.2841  1.0402 -0.3386
  614MOL0     O82763  11.293   4.917  10.893 -0.4331  0.3570 -0.0876
  614MOL0     C82764  11.389   4.978  10.806  0.0193  0.3416 -0.4942
  614MOL0     C82765  11.465   4.882  10.715  0.4339 -0.1997  0.4135
  614MOL0     C82766  11.606   4.922  10.678  0.6290  0.0263  0.3736
  614MOL0     C82767  11.721   4.889  10.777 -0.7212 -0.1222 -0.6044
  614MOL0     C82768  11.838   4.982  10.743  1.1191  1.6792 -0.1694
  614MOL0     C82769  11.954   4.963  10.849 -0.0826 -0.1259 -0.5814
  614MOL0     C82770  12.074   5.061  10.840  0.3627  0.3977 -0.5166
  614MOL0     C82771  12.176   5.044  10.958  0.6403 -0.4800 -0.7360
  614MOL0     N82772  12.298   5.129  10.936 -1.0440  0.3596  0.2875
  614MOL0     C82773  12.364   5.180  11.040 -0.9566 -0.4712  0.2537
  614MOL0     C82774  12.491   5.203  10.995  0.3906  0.8648  0.7183
  614MOL0     C82775  12.598   5.262  11.074 -0.3456 -0.6763  0.2177
  614MOL0     C82776  12.715   5.321  10.993 -0.4784  0.1253 -0.0879
  614MOL0     C82777  12.809   5.208  10.930  0.6626 -0.4183  0.0536
  614MOL0     C82778  12.906   5.258  10.818 -0.1135 -0.0306 -0.8405
  614MOL0     O82779  13.010   5.344  10.869 -0.7147  0.1006  0.3739
  614MOL0     C82780  13.089   5.418  10.787  0.2873  0.3115 -0.0734
  614MOL0     C82781  13.171   5.506  10.862 -0.1033  0.8621 -0.4518
  614MOL0     C82782  13.259   5.590  10.804  0.7108  0.3099  0.0691
  614MOL0     C82783  13.268   5.586  10.669 -0.2250  0.5239  0.9998
  614MOL0     C82784  13.355   5.678  10.599 -0.0497  0.6266  0.4205
  614MOL0     O82785  13.389   5.652  10.464 -0.0815 -0.1845 -0.4056
  614MOL0     C82786  13.494   5.716  10.404 -0.3630  0.0664  0.7493
  614MOL0     C82787  13.582   5.621  10.340  0.0461  0.0005 -0.2455
  614MOL0     C82788  13.684   5.665  10.253  1.5592 -0.5536 -0.5441
  614MOL0     C82789  13.719   5.799  10.244  0.2102 -0.6674 -0.7403
  614MOL0     O82790  13.820   5.840  10.151  0.8963 -0.3583 -0.7844
  614MOL0     C82791  13.818   5.972  10.092 -0.2876  0.4554 -0.3673
  614MOL0     C82792  13.898   5.979   9.964  0.2166  0.2082  0.6122
  614MOL0     C82793  13.935   6.124   9.939 -0.9298 -0.0844  0.3555
  614MOL0     C82794  14.018   6.134   9.808  0.1909 -0.4867  0.6258
  614MOL0     C82795  14.069   6.286   9.773 -0.3323  0.2225  0.0965
  614MOL0     C82796  13.951   6.363   9.726  0.9916 -0.7183  0.2088
  614MOL0     C82797  13.992   6.510   9.709  0.1189  0.4602  0.3104
  614MOL0     C82798  13.896   6.586   9.616 -0.3552  0.5121  0.9329
  614MOL0    Cl82799  13.960   6.574   9.447 -0.3048 -0.0947  0.7489
  614MOL0     C82800  13.645   5.893  10.325  1.4400  0.9047  0.0965
  614MOL0     C82801  13.531   5.853  10.396 -0.0990  0.3862  0.5355
  614MOL0     O82802  13.415   5.763  10.659 -0.4304 -0.4106 -0.8776
  614MOL0     C82803  13.181   5.509  10.592 -0.4388  1.5456  0.2125
  614MOL0     C82804  13.089   5.419  10.656 -0.4263  0.2299 -0.0757
  614MOL0     N82805  12.494   5.171  10.864 -1.7571 -0.3624  0.4473
  614MOL0     N82806  12.379   5.122  10.829  0.5674 -0.5717 -0.1551
  614MOL0     C82807  11.094   4.932  11.021  0.0402 -0.2712 -0.2925
  614MOL0     C82808  10.985   5.009  11.069  0.4541  0.3822  0.1314
  614MOL0     C82809  10.602   5.236  11.031 -0.3592  0.4288 -0.7113
  614MOL0     C82810  10.584   5.315  11.150  0.9349 -0.4973 -0.4014
  614MOL0     C82811  10.462   5.399  11.170 -1.0439  0.1274 -0.5339
  614MOL0     C82812  10.372   5.403  11.077  0.1322  0.8865  1.0128
  614MOL0     O82813  10.264   5.488  11.077 -0.0532 -0.3954  0.5042
  614MOL0     C82814  10.212   5.543  11.198 -0.7500 -0.4987  0.1186
  614MOL0     C82815  10.136   5.441  11.278  0.1899 -0.1148  0.3951
  614MOL0     C82816  10.003   5.407  11.210 -0.9179 -0.1638  0.5578
  614MOL0     C82817  10.007   5.329  11.074 -0.1736  0.0602 -0.1907
  614MOL0     C82818   9.884   5.309  10.997 -0.3466 -0.4195  0.3406
  614MOL0     C82819   9.782   5.276  10.938 -0.0670 -0.8700  0.3594
  614MOL0     C82820  10.388   5.323  10.963 -0.0107 -0.1406  0.4097
  614MOL0     C82821  10.503   5.248  10.936  0.4561 -0.2314  0.1179
  614MOL0     C82822  10.514   5.173  10.803 -0.3872 -0.0687  0.0383
  614MOL0     H82823  11.065   5.315  10.932  0.0218  0.7027  1.5563
  614MOL0     H82824  11.255   5.188  10.864  1.4360 -0.2987  1.1635
  614MOL0     H82825  11.355   5.064  10.748  1.8087  1.2831 -0.2424
  614MOL0     H82826  11.459   5.016  10.881 -0.6415 -0.6806  0.6642
  614MOL0     H82827  11.406   4.863  10.626  0.7086  2.7953 -0.5410
  614MOL0     H82828  11.467   4.787  10.768 -1.3522 -1.5038 -1.7276
  614MOL0     H82829  11.603   5.026  10.644  2.2992 -0.2170 -0.6222
  614MOL0     H82830  11.628   4.869  10.585  1.8801  0.9340  0.1316
  614MOL0     H82831  11.683   4.894  10.880 -0.1212  0.9704 -0.4281
  614MOL0     H82832  11.755   4.786  10.763 -0.6905 -0.1232 -0.5203
  614MOL0     H82833  11.869   4.973  10.638  0.5748 -0.5953 -0.1958
  614MOL0     H82834  11.802   5.085  10.755 -0.5585  1.0829  0.1726
  614MOL0     H82835  11.915   4.957  10.951  0.4330 -1.6239 -0.4431
  614MOL0     H82836  11.994   4.863  10.828 -1.4530 -1.2697  1.8868
  614MOL0     H82837  12.036   5.164  10.840  1.5292  0.8527  0.2328
  614MOL0     H82838  12.122   5.059  10.742  1.0358  1.7642 -0.2366
  614MOL0     H82839  12.118   5.070  11.047  0.0696 -0.0617 -1.2325
  614MOL0     H82840  12.208   4.940  10.973  0.3597 -0.5054 -0.2800
  614MOL0     H82841  12.334   5.203  11.142  0.8868 -1.2223  0.9975
  614MOL0     H82842  12.549   5.347  11.123 -2.4470 -0.5640 -1.8585
  614MOL0     H82843  12.628   5.205  11.162 -0.8621  1.7531  2.1090
  614MOL0     H82844  12.671   5.376  10.909 -1.9688 -1.1020 -0.1396
  614MOL0     H82845  12.783   5.391  11.043 -0.4458  1.5926 -2.0317
  614MOL0     H82846  12.741   5.138  10.881 -1.1641  0.5414  1.1029
  614MOL0     H82847  12.866   5.156  11.009  3.1210  2.9520  0.6992
  614MOL0     H82848  12.839   5.301  10.743 -1.7115 -0.4884  0.2764
  614MOL0     H82849  12.944   5.180  10.751 -2.7451 -0.2613 -2.1889
  614MOL0     H82850  13.177   5.492  10.969  0.5300 -1.3759 -0.7282
  614MOL0     H82851  13.322   5.651  10.868  2.1269 -0.7123 -0.2972
  614MOL0     H82852  13.573   5.513  10.345  0.7118 -0.0209  1.6914
  614MOL0     H82853  13.730   5.591  10.188  0.8260 -0.8706 -0.7046
  614MOL0     H82854  13.718   6.003  10.061  0.5055  1.4034 -2.1234
  614MOL0     H82855  13.853   6.038  10.172  1.0759 -1.8018  1.0100
  614MOL0     H82856  13.993   5.926   9.963  1.2045  1.4628 -4.9481
  614MOL0     H82857  13.856   5.949   9.867  1.2834  2.4517 -0.6455
  614MOL0     H82858  13.842   6.180   9.944  0.8382  3.5922 -2.4939
  614MOL0     H82859  13.994   6.158  10.025 -0.0902 -0.4303 -0.0660
  614MOL0     H82860  13.952   6.101   9.727 -0.1218 -0.1365  0.7350
  614MOL0     H82861  14.103   6.066   9.816  1.4325  0.5488 -2.1563
  614MOL0     H82862  14.154   6.287   9.704  0.4739  0.9701  1.0766
  614MOL0     H82863  14.105   6.316   9.872 -0.5523 -0.3389  0.3551
  614MOL0     H82864  13.927   6.322   9.628 -0.0177 -0.7494  0.4602
  614MOL0     H82865  13.861   6.360   9.788  1.2767  0.5438  0.7194
  614MOL0     H82866  14.093   6.520   9.669 -0.7305  0.8830 -1.8869
  614MOL0     H82867  13.996   6.559   9.807 -0.4209 -0.4671  0.8091
  614MOL0     H82868  13.793   6.553   9.630 -0.0483  0.4318  3.3996
  614MOL0     H82869  13.897   6.691   9.646 -0.6708  0.7020  0.2819
  614MOL0     H82870  13.669   5.998  10.315 -0.3983  1.3259 -0.2587
  614MOL0     H82871  13.468   5.933  10.435  0.8815 -0.2442  3.7769
  614MOL0     H82872  13.192   5.498  10.485 -0.9805 -0.2919  0.3132
  614MOL0     H82873  13.043   5.338  10.600 -0.5242  0.6987 -0.6883
  614MOL0     H82874  11.101   4.827  11.045 -0.8626  0.0329  1.5032
  614MOL0     H82875  10.912   4.951  11.124  1.3906  0.1638  1.1844
  614MOL0     H82876  10.653   5.324  11.234 -1.8953  0.8398  1.9786
  614MOL0     H82877  10.457   5.472  11.250 -1.4043  1.4499 -1.7281
  614MOL0     H82878  10.152   5.632  11.177 -1.0786 -0.8270 -0.3318
  614MOL0     H82879  10.295   5.584  11.258 -0.7267 -0.2186 -0.1039
  614MOL0     H82880  10.107   5.475  11.378 -0.7690  0.1930  0.0266
  614MOL0     H82881  10.202   5.354  11.278  0.9348  0.4125 -0.8426
  614MOL0     H82882   9.939   5.494  11.196  2.3872  1.9916 -3.2202
  614MOL0     H82883   9.945   5.349  11.282 -2.6962 -0.6400 -1.1849
  614MOL0     H82884  10.079   5.360  10.999 -0.9108  0.9025 -0.5638
  614MOL0     H82885  10.039   5.228  11.102 -1.4804 -0.4092 -0.2853
  614MOL0     H82886   9.687   5.262  10.891 -1.1619  0.9695  1.8859
  614MOL0     H82887  10.302   5.329  10.897  1.2578  0.2907 -1.2828
  614MOL0     H82888  10.618   5.176  10.769 -0.4992  2.3044 -0.2686
  614MOL0     H82889  10.469   5.073  10.799  1.2299 -0.8377  0.0890
  614MOL0     H82890  10.458   5.231  10.729 -0.9209  0.3731  0.7852
  615MOL0     O82891   4.899   5.872   8.135  0.1699 -0.6570  0.7205
  615MOL0     C82892   4.829   5.892   8.032  0.0277  0.5967  0.0907
  615MOL0     O82893   4.865   5.947   7.921 -0.2612 -0.2042  0.7351
  615MOL0     C82894   5.004   5.961   7.908  0.0353  0.2395 -0.1014
  615MOL0     C82895   5.070   6.084   7.945 -0.0131 -0.7772 -0.2506
  615MOL0     C82896   5.201   6.098   7.923  0.5386 -0.6727 -0.9482
  615MOL0     C82897   5.275   5.983   7.877  0.0891  0.7363  1.1926
  615MOL0     O82898   5.408   5.984   7.839  0.0850 -0.6233  0.5105
  615MOL0     C82899   5.440   6.050   7.711  0.1427 -1.1685  0.1372
  615MOL0     C82900   5.525   5.950   7.628 -0.6027 -0.5249  0.6442
  615MOL0     C82901   5.627   6.024   7.526 -0.5575  0.7624 -0.7651
  615MOL0     C82902   5.752   5.935   7.513  0.4447  0.3734  0.3965
  615MOL0     C82903   5.852   5.996   7.417 -0.5205 -0.0099 -0.6460
  615MOL0     C82904   6.006   5.966   7.433 -0.6735 -0.8594  0.5204
  615MOL0     C82905   6.062   6.070   7.530 -0.4684 -0.3442 -0.4657
  615MOL0     C82906   6.102   6.192   7.442 -0.0555 -1.4511  0.5248
  615MOL0     N82907   6.150   6.297   7.531 -0.8560  1.0493 -0.5202
  615MOL0     C82908   6.150   6.437   7.511 -1.0291  0.1239  0.0445
  615MOL0     C82909   6.174   6.488   7.633 -0.0973 -0.6148 -0.3518
  615MOL0     C82910   6.178   6.639   7.675  0.4555  0.7538 -0.6408
  615MOL0     C82911   6.291   6.709   7.611 -1.2220 -0.7974  0.2626
  615MOL0     C82912   6.286   6.864   7.637  0.2508  0.5323  0.4114
  615MOL0     C82913   6.232   6.936   7.511 -0.3457 -0.5205  0.3422
  615MOL0     O82914   6.213   7.072   7.565  0.3437  0.0559  0.4438
  615MOL0     C82915   6.209   7.189   7.487 -0.0696 -0.3842  0.5636
  615MOL0     C82916   6.227   7.311   7.552  0.2168 -0.3181  0.9007
  615MOL0     C82917   6.187   7.426   7.477  0.1618 -0.1141  0.5133
  615MOL0     C82918   6.145   7.436   7.346 -0.3834  0.7561  0.4264
  615MOL0     C82919   6.113   7.563   7.280  0.3731  0.0426  0.9357
  615MOL0     O82920   6.127   7.677   7.349  0.1078 -0.1828 -0.4540
  615MOL0     C82921   6.088   7.795   7.298  0.3244 -0.0896 -0.5824
  615MOL0     C82922   5.963   7.820   7.237 -0.1191 -0.0262 -0.3933
  615MOL0     C82923   5.927   7.946   7.193  0.4250  0.2725 -0.2368
  615MOL0     C82924   6.000   8.057   7.239 -0.3995 -0.2947  0.3560
  615MOL0     O82925   5.973   8.184   7.204 -0.7978 -0.6523 -0.4786
  615MOL0     C82926   5.843   8.216   7.142  0.9945 -0.1276 -0.4597
  615MOL0     C82927   5.805   8.358   7.140  0.0490 -1.0786  0.0442
  615MOL0     C82928   5.817   8.428   7.283 -0.8285 -0.3248  0.4153
  615MOL0     C82929   5.792   8.581   7.264  0.5227  0.1588  0.3973
  615MOL0     C82930   5.825   8.661   7.396  0.0812  0.3813  0.5611
  615MOL0     C82931   5.737   8.780   7.421 -0.1514 -0.9856  0.7613
  615MOL0     C82932   5.755   8.837   7.561 -0.3348  0.5091 -0.1797
  615MOL0     C82933   5.672   8.952   7.607 -0.0340 -0.6507 -0.0532
  615MOL0    Cl82934   5.740   9.113   7.548 -0.5329 -0.3699 -0.0176
  615MOL0     C82935   6.119   8.043   7.310  0.3472  1.2506 -0.3080
  615MOL0     C82936   6.163   7.908   7.329 -0.2161 -0.5657  0.2786
  615MOL0     O82937   6.070   7.558   7.162  0.6319 -0.5476 -0.4821
  615MOL0     C82938   6.135   7.317   7.284  0.4323  0.2263 -0.8585
  615MOL0     C82939   6.176   7.195   7.350  0.7013 -0.4445 -0.1735
  615MOL0     N82940   6.197   6.393   7.722 -0.0291  0.6832  0.3387
  615MOL0     N82941   6.184   6.279   7.664  0.7365  0.5283  0.3855
  615MOL0     C82942   5.212   5.852   7.869  0.2759  0.5763 -0.8581
  615MOL0     C82943   5.075   5.849   7.877  0.5357 -0.1859  0.3875
  615MOL0     C82944   4.681   5.868   8.051 -0.7011 -0.5285 -0.3108
  615MOL0     C82945   4.588   5.917   7.955 -0.5643  0.1384  0.1224
  615MOL0     C82946   4.447   5.899   7.957  0.0800 -0.0874  0.2951
  615MOL0     C82947   4.398   5.823   8.065  0.3175 -0.1173  0.1236
  615MOL0     O82948   4.263   5.796   8.058 -0.3760  0.2904 -0.1521
  615MOL0     C82949   4.204   5.743   8.178 -0.2119 -0.4848 -0.0430
  615MOL0     C82950   4.045   5.734   8.141  0.2486  0.2016 -0.8274
  615MOL0     C82951   3.965   5.765   8.267  0.2201  0.4154  0.4066
  615MOL0     C82952   3.814   5.725   8.257  1.2626  0.6748 -0.2579
  615MOL0     C82953   3.735   5.815   8.167  0.7409 -0.5880  0.2410
  615MOL0     C82954   3.682   5.917   8.126  0.1528 -0.4702  0.5634
  615MOL0     C82955   4.487   5.776   8.161 -0.3591 -0.5917  0.4756
  615MOL0     C82956   4.624   5.784   8.152 -0.4990  0.0997  1.2466
  615MOL0     C82957   4.703   5.704   8.253 -0.4176  0.5915  0.5142
  615MOL0     H82958   5.008   6.161   7.991  0.1390 -0.7976 -0.0102
  615MOL0     H82959   5.258   6.187   7.950  2.1595 -2.4760  2.1571
  615MOL0     H82960   5.348   6.071   7.657  0.6221 -0.4448 -0.4090
  615MOL0     H82961   5.498   6.141   7.728 -0.2276 -1.0992  1.0672
  615MOL0     H82962   5.464   5.874   7.579 -1.5499 -0.5887  1.8817
  615MOL0     H82963   5.584   5.900   7.705 -3.5401 -0.7958  2.8920
  615MOL0     H82964   5.666   6.115   7.572 -0.7405  0.6279 -0.3305
  615MOL0     H82965   5.568   6.036   7.435 -2.9676 -1.9119  0.2914
  615MOL0     H82966   5.792   5.916   7.613  1.3152 -0.8965 -0.1630
  615MOL0     H82967   5.727   5.836   7.474  0.4693  1.0125 -1.2994
  615MOL0     H82968   5.829   5.975   7.312  2.0523  0.3038 -1.3547
  615MOL0     H82969   5.831   6.103   7.424 -0.0603  0.2134 -2.2400
  615MOL0     H82970   6.030   5.864   7.465  0.6544 -0.9540 -0.6901
  615MOL0     H82971   6.071   5.969   7.345 -0.0280 -2.6563  0.8864
  615MOL0     H82972   6.152   6.026   7.573 -0.1688  2.9905  2.8746
  615MOL0     H82973   5.993   6.093   7.612  0.4215 -3.0732  1.2112
  615MOL0     H82974   6.176   6.171   7.364 -1.3100 -2.9211 -0.3420
  615MOL0     H82975   6.012   6.236   7.397 -0.5181 -0.8443  1.9776
  615MOL0     H82976   6.128   6.492   7.419 -1.4970 -0.6194 -0.2983
  615MOL0     H82977   6.086   6.686   7.642  0.2138  0.9513  0.2871
  615MOL0     H82978   6.180   6.641   7.784  0.0587 -0.0532 -0.6107
  615MOL0     H82979   6.384   6.679   7.661 -1.4832 -0.8744  0.7053
  615MOL0     H82980   6.301   6.686   7.505  2.6889  0.3381  0.2259
  615MOL0     H82981   6.389   6.899   7.653  0.0438  0.3835  2.2859
  615MOL0     H82982   6.230   6.876   7.730 -0.1667  0.5126  0.1609
  615MOL0     H82983   6.144   6.884   7.471  1.6132 -2.9185 -1.1741
  615MOL0     H82984   6.306   6.943   7.430  1.4845 -1.1376  1.8762
  615MOL0     H82985   6.260   7.305   7.655 -0.3601  0.3488  1.1257
  615MOL0     H82986   6.192   7.506   7.550  1.5209 -0.2480  0.5854
  615MOL0     H82987   5.911   7.729   7.209  2.5217 -2.5814  2.2173
  615MOL0     H82988   5.834   7.956   7.138  0.8118 -1.0686 -1.1802
  615MOL0     H82989   5.848   8.183   7.038 -2.8894  1.9840 -1.5032
  615MOL0     H82990   5.764   8.159   7.191 -0.6915  3.6104  1.5893
  615MOL0     H82991   5.852   8.417   7.061 -1.0478  0.3502  0.4202
  615MOL0     H82992   5.698   8.357   7.117  0.0168  0.9681 -0.0621
  615MOL0     H82993   5.731   8.389   7.340 -1.6038  1.8738  0.8487
  615MOL0     H82994   5.909   8.405   7.337 -1.4716 -2.2298  0.8005
  615MOL0     H82995   5.694   8.602   7.221  1.6759  1.6984 -1.6684
  615MOL0     H82996   5.860   8.618   7.187  1.2821  0.6226  1.2568
  615MOL0     H82997   5.928   8.696   7.389 -0.9879  3.6414 -0.5105
  615MOL0     H82998   5.814   8.597   7.485 -1.6942  1.6513  1.3109
  615MOL0     H82999   5.778   8.855   7.353  3.8677 -1.9328  1.8319
  615MOL0     H83000   5.633   8.750   7.405  0.2990 -3.4521  1.8825
  615MOL0     H83001   5.857   8.872   7.577 -0.7265  0.1928  4.0182
  615MOL0     H83002   5.729   8.756   7.629  0.7397  1.9416  2.0407
  615MOL0     H83003   5.569   8.947   7.570 -0.0637 -0.0383 -0.0624
  615MOL0     H83004   5.648   8.944   7.713 -1.5042  1.3595 -0.1767
  615MOL0     H83005   6.186   8.124   7.337 -0.1039  1.2979  0.7272
  615MOL0     H83006   6.262   7.887   7.367 -0.9721 -0.9329  2.1722
  615MOL0     H83007   6.106   7.300   7.181 -1.0813  0.1316 -0.4412
  615MOL0     H83008   6.172   7.112   7.280 -0.0996  2.2700 -3.6177
  615MOL0     H83009   5.274   5.764   7.855 -1.3500 -0.7419 -0.1538
  615MOL0     H83010   5.027   5.757   7.844 -0.0473  0.0734  0.5000
  615MOL0     H83011   4.625   5.986   7.880 -0.3483  2.1734  1.9922
  615MOL0     H83012   4.384   5.921   7.871  0.9270 -0.1084 -0.3406
  615MOL0     H83013   4.212   5.821   8.254  0.0933  1.7796 -2.2701
  615MOL0     H83014   4.242   5.642   8.198 -0.2988 -0.6962 -0.9138
  615MOL0     H83015   4.021   5.632   8.108 -0.0386  0.0426 -0.1436
  615MOL0     H83016   4.011   5.806   8.065 -0.1596 -0.2067 -1.0389
  615MOL0     H83017   3.988   5.868   8.295  0.2470  1.2174 -2.2453
  615MOL0     H83018   4.013   5.700   8.340 -0.0584 -1.4342 -0.9771
  615MOL0     H83019   3.812   5.626   8.212 -1.3203  1.8966 -3.1546
  615MOL0     H83020   3.764   5.723   8.354 -1.3562 -0.5927 -1.5519
  615MOL0     H83021   3.653   6.019   8.108 -2.6746 -1.3685 -0.5867
  615MOL0     H83022   4.441   5.716   8.238 -1.3967 -0.9554 -0.4021
  615MOL0     H83023   4.744   5.770   8.330 -0.2672  0.1051  0.8572
  615MOL0     H83024   4.653   5.621   8.305  1.3708 -0.5018  0.5672
  615MOL0     H83025   4.786   5.657   8.199  0.4487  1.4090  1.1078
  616MOL0     O83026   2.334   6.809   3.827  0.4164 -0.3077 -0.2434
  616MOL0     C83027   2.354   6.713   3.762 -0.2470 -0.3662 -0.0055
  616MOL0     O83028   2.471   6.639   3.779 -0.6783  0.4023  0.1515
  616MOL0     C83029   2.549   6.672   3.886  0.0426 -0.1766  0.1485
  616MOL0     C83030   2.505   6.642   4.017 -0.4620  0.3675 -0.0500
  616MOL0     C83031   2.584   6.676   4.123  0.5136 -0.4084 -0.2184
  616MOL0     C83032   2.711   6.726   4.102 -0.9660  0.6506  0.1649
  616MOL0     O83033   2.801   6.772   4.195  0.4813  0.1584 -0.5052
  616MOL0     C83034   2.758   6.894   4.255  0.0733 -0.1674  0.0899
  616MOL0     C83035   2.870   6.944   4.352 -0.3392 -0.4080  1.0281
  616MOL0     C83036   2.836   7.086   4.377  0.3563  0.9633 -1.0921
  616MOL0     C83037   2.900   7.135   4.502 -0.7572 -0.2147 -0.3078
  616MOL0     C83038   2.887   7.062   4.633 -1.3098  0.2715  0.0030
  616MOL0     C83039   2.762   7.102   4.700  1.1814  0.0422  0.1820
  616MOL0     C83040   2.779   7.099   4.853  0.3224  0.0796 -0.3992
  616MOL0     C83041   2.832   7.238   4.893  0.9269  0.6587 -0.8351
  616MOL0     N83042   2.854   7.248   5.036  0.0899  0.6186 -0.3450
  616MOL0     C83043   2.755   7.276   5.127 -0.6528 -0.7812 -0.1423
  616MOL0     C83044   2.813   7.250   5.248  0.6573  0.8879  0.0418
  616MOL0     C83045   2.747   7.253   5.383 -0.4733  0.2173 -0.3953
  616MOL0     C83046   2.679   7.388   5.405 -0.7299 -0.6419 -0.1077
  616MOL0     C83047   2.610   7.394   5.536  0.4286  0.7439 -0.1540
  616MOL0     C83048   2.510   7.505   5.558 -0.0709  0.4559 -0.4547
  616MOL0     O83049   2.443   7.485   5.687 -0.4640  0.5363  0.2518
  616MOL0     C83050   2.304   7.472   5.670 -1.1321  0.2009 -0.1514
  616MOL0     C83051   2.224   7.579   5.632  0.0240  0.1415  0.1900
  616MOL0     C83052   2.084   7.562   5.614  1.2909  0.2105 -0.3981
  616MOL0     C83053   2.028   7.431   5.634  0.2341 -0.6683 -0.7580
  616MOL0     C83054   1.887   7.392   5.613  0.0925  1.0599 -0.0587
  616MOL0     O83055   1.803   7.494   5.600  0.6875 -0.5773 -0.2170
  616MOL0     C83056   1.660   7.480   5.613 -0.6380  0.2084  0.5673
  616MOL0     C83057   1.593   7.389   5.522 -1.0471 -0.3983 -0.3361
  616MOL0     C83058   1.453   7.387   5.533  0.7564  0.1296 -0.1412
  616MOL0     C83059   1.384   7.462   5.629 -0.6836 -0.4672  1.0631
  616MOL0     O83060   1.250   7.458   5.638  0.1801  0.4628 -0.7866
  616MOL0     C83061   1.209   7.330   5.700 -0.0539  0.6674 -0.4872
  616MOL0     C83062   1.067   7.335   5.760 -0.0768 -0.1128  0.4120
  616MOL0     C83063   0.960   7.372   5.659  0.2458  0.1114  0.0419
  616MOL0     C83064   0.824   7.401   5.739  0.5687  0.7860  0.7638
  616MOL0     C83065   0.730   7.470   5.639 -0.9131  0.4718 -0.2468
  616MOL0     C83066   0.589   7.482   5.694 -0.5525 -0.0527 -0.6952
  616MOL0     C83067   0.578   7.575   5.821 -0.5384  0.1112  0.0397
  616MOL0     C83068   0.447   7.572   5.886  0.6464  0.2008  0.5630
  616MOL0    Cl83069   0.418   7.410   5.971  0.3835 -0.0286  0.2837
  616MOL0     C83070   1.460   7.540   5.724 -0.7565 -0.0122  0.3063
  616MOL0     C83071   1.598   7.544   5.712 -0.0643 -0.1691  0.1918
  616MOL0     O83072   1.851   7.273   5.630 -0.1033 -1.0350  0.2349
  616MOL0     C83073   2.112   7.331   5.670  0.6053  0.1759 -0.3927
  616MOL0     C83074   2.248   7.349   5.699 -0.0096 -0.3613  0.8976
  616MOL0     N83075   2.937   7.194   5.229  0.6112  0.1875  0.0700
  616MOL0     N83076   2.960   7.188   5.095 -0.1540  0.8330 -0.4611
  616MOL0     C83077   2.751   6.750   3.968 -0.0678 -0.3066 -0.2082
  616MOL0     C83078   2.668   6.730   3.861 -0.0676 -0.2637 -0.0758
  616MOL0     C83079   2.290   6.699   3.637 -0.3238 -0.2846  1.5490
  616MOL0     C83080   2.378   6.705   3.524 -0.3707 -0.0826  0.5937
  616MOL0     C83081   2.324   6.690   3.392  0.0622  0.4941  1.0632
  616MOL0     C83082   2.184   6.675   3.377 -0.3750 -0.3655 -0.1294
  616MOL0     O83083   2.129   6.649   3.252  0.4556  0.2619 -0.3479
  616MOL0     C83084   2.201   6.674   3.128 -0.1268 -0.8783 -0.8878
  616MOL0     C83085   2.096   6.693   3.021  0.1302 -0.3340 -0.2593
  616MOL0     C83086   1.996   6.807   3.047 -0.6715 -0.2695 -0.4058
  616MOL0     C83087   1.889   6.802   2.939  0.4741 -0.4083  0.3907
  616MOL0     C83088   1.841   6.943   2.914 -0.4193  0.3326 -0.0448
  616MOL0     C83089   1.815   7.055   2.886  0.3699  0.0739  0.4944
  616MOL0     C83090   2.097   6.688   3.489  0.3180  0.1143 -0.5847
  616MOL0     C83091   2.146   6.699   3.620 -0.8740  0.2987  0.1103
  616MOL0     C83092   2.060   6.725   3.740 -0.2787 -0.1194 -0.6126
  616MOL0     H83093   2.408   6.594   4.018  0.6550 -2.0135  0.6987
  616MOL0     H83094   2.545   6.670   4.224 -0.0773 -1.6018 -0.5005
  616MOL0     H83095   2.741   6.968   4.175  0.3385 -0.1287  0.0678
  616MOL0     H83096   2.669   6.888   4.317 -0.0342 -0.0187 -0.0469
  616MOL0     H83097   2.958   6.939   4.287 -2.0049  1.2919 -1.5766
  616MOL0     H83098   2.867   6.875   4.436 -1.0975 -0.2887  1.1084
  616MOL0     H83099   2.727   7.098   4.382 -0.2447 -2.8054 -1.5738
  616MOL0     H83100   2.878   7.151   4.300  2.1947 -3.0835 -3.8775
  616MOL0     H83101   3.006   7.118   4.477 -1.1122 -2.4767 -0.4549
  616MOL0     H83102   2.875   7.241   4.513  0.3276  0.0653 -0.4179
  616MOL0     H83103   2.891   6.953   4.619 -2.2581  0.2951 -0.5075
  616MOL0     H83104   2.981   7.081   4.687  0.3674 -2.8464 -1.5624
  616MOL0     H83105   2.722   7.199   4.670  1.1154  0.7008  2.2463
  616MOL0     H83106   2.693   7.022   4.668  1.1935  0.6762 -1.5703
  616MOL0     H83107   2.855   7.028   4.889  0.9126  1.3846  1.0305
  616MOL0     H83108   2.686   7.078   4.906  0.5067  0.6625  0.1704
  616MOL0     H83109   2.929   7.233   4.843  1.1435  1.3670 -0.4902
  616MOL0     H83110   2.794   7.333   4.857 -1.7481 -0.7377 -1.9673
  616MOL0     H83111   2.655   7.315   5.109  0.4595  1.9845 -0.8796
  616MOL0     H83112   2.671   7.174   5.383 -1.8026  1.4392 -0.8176
  616MOL0     H83113   2.820   7.223   5.458 -1.3431 -0.0474  0.3710
  616MOL0     H83114   2.751   7.469   5.393 -1.3052  0.3145  2.2440
  616MOL0     H83115   2.604   7.402   5.327  0.4566  0.6510 -1.0675
  616MOL0     H83116   2.678   7.430   5.614 -0.7942  0.1976  1.2131
  616MOL0     H83117   2.569   7.297   5.564  4.2909 -0.6229  1.3812
  616MOL0     H83118   2.441   7.520   5.474 -1.5404  0.6920  0.7426
  616MOL0     H83119   2.570   7.597   5.557 -0.0186  0.4447 -2.7265
  616MOL0     H83120   2.256   7.683   5.629 -1.4786  0.6694  1.1320
  616MOL0     H83121   2.028   7.645   5.571 -0.7080 -2.2514 -2.9163
  616MOL0     H83122   1.661   7.335   5.457 -1.3277 -0.3181 -0.6956
  616MOL0     H83123   1.410   7.316   5.463  0.7088  2.1078 -2.2142
  616MOL0     H83124   1.217   7.240   5.639  1.3159 -0.0862  0.7128
  616MOL0     H83125   1.280   7.308   5.781  0.5708  2.1828 -0.5839
  616MOL0     H83126   1.027   7.241   5.797 -2.9073  0.3021 -1.3072
  616MOL0     H83127   1.080   7.405   5.843 -2.1058 -0.1746  0.8263
  616MOL0     H83128   1.005   7.453   5.601  0.9385 -0.3446 -0.0745
  616MOL0     H83129   0.940   7.296   5.583 -2.4587 -0.2668  1.0333
  616MOL0     H83130   0.861   7.459   5.824  3.2555  0.1312  0.1400
  616MOL0     H83131   0.780   7.305   5.771 -0.6960  1.2920  0.5973
  616MOL0     H83132   0.731   7.415   5.545 -0.5804  1.6135 -0.9290
  616MOL0     H83133   0.777   7.564   5.610  1.0856 -0.9447 -1.8374
  616MOL0     H83134   0.520   7.522   5.618 -1.0973  2.6749  1.0840
  616MOL0     H83135   0.552   7.384   5.725  1.7556 -0.3684  1.3043
  616MOL0     H83136   0.584   7.679   5.790  1.3012 -0.7151 -2.7511
  616MOL0     H83137   0.650   7.552   5.900 -1.7799 -0.6543  0.9939
  616MOL0     H83138   0.445   7.654   5.958 -1.0027 -0.1406  0.9380
  616MOL0     H83139   0.371   7.591   5.810  0.7624 -0.2435  0.3306
  616MOL0     H83140   1.392   7.588   5.793 -0.2555 -0.5643  1.2088
  616MOL0     H83141   1.651   7.611   5.778 -3.5762 -1.0376  4.3381
  616MOL0     H83142   2.080   7.228   5.686  1.0099 -0.0883 -1.2220
  616MOL0     H83143   2.309   7.263   5.722  1.2774  0.4045  0.4558
  616MOL0     H83144   2.855   6.773   3.948 -0.1841  3.1569  2.3456
  616MOL0     H83145   2.716   6.757   3.767  0.0882 -0.2658  0.0027
  616MOL0     H83146   2.485   6.698   3.538  0.1661  2.1809 -1.6258
  616MOL0     H83147   2.390   6.677   3.307  0.4341 -1.3099  1.5728
  616MOL0     H83148   2.267   6.591   3.099 -1.3354 -1.0039 -3.5928
  616MOL0     H83149   2.261   6.765   3.137  2.2643 -2.3618 -1.0239
  616MOL0     H83150   2.035   6.602   3.013  0.0494 -0.2490 -0.6386
  616MOL0     H83151   2.143   6.711   2.924  2.4819  4.0628  1.4041
  616MOL0     H83152   2.055   6.898   3.062  0.3169 -0.8979 -0.3787
  616MOL0     H83153   1.946   6.786   3.142 -0.8485 -0.6476 -0.5799
  616MOL0     H83154   1.932   6.764   2.847  0.2358  1.8667 -0.7327
  616MOL0     H83155   1.801   6.738   2.954 -2.0265  2.3555 -1.2751
  616MOL0     H83156   1.777   7.154   2.867 -0.5866 -0.5505 -1.0465
  616MOL0     H83157   1.994   6.696   3.454 -0.1890  4.0022  1.2310
  616MOL0     H83158   2.080   6.644   3.810 -2.1999 -0.6102 -0.5698
  616MOL0     H83159   2.068   6.823   3.786 -0.1234 -0.0245 -0.8377
  616MOL0     H83160   1.956   6.717   3.707  0.4725 -0.0549 -3.2686
  617MOL0     O83161   3.666   7.956   6.277  0.8739 -0.1964  0.0990
  617MOL0     C83162   3.581   7.942   6.191 -0.3866 -0.6389 -0.2052
  617MOL0     O83163   3.607   7.926   6.058 -0.8070 -0.5113 -0.8430
  617MOL0     C83164   3.728   7.933   6.011  0.4745 -0.5010  0.1557
  617MOL0     C83165   3.806   7.818   5.988  0.8335 -0.5357 -0.0739
  617MOL0     C83166   3.931   7.831   5.943  0.5047  0.7524  0.3571
  617MOL0     C83167   3.990   7.952   5.911 -0.0348  1.1876 -0.5149
  617MOL0     O83168   4.109   7.955   5.855  0.4906  0.2529 -0.3425
  617MOL0     C83169   4.192   8.077   5.858 -1.0174  0.5192 -0.1004
  617MOL0     C83170   4.332   8.061   5.803 -0.2089  0.5884  0.8100
  617MOL0     C83171   4.427   8.183   5.792  0.2292  0.0752  0.3959
  617MOL0     C83172   4.518   8.163   5.665 -0.6184 -0.3305  0.3784
  617MOL0     C83173   4.620   8.273   5.668 -0.1245 -0.3747 -0.4249
  617MOL0     C83174   4.649   8.315   5.527 -0.3016 -0.2242 -0.2129
  617MOL0     C83175   4.758   8.426   5.507 -1.0352  0.6746 -0.3107
  617MOL0     C83176   4.752   8.489   5.365  0.1773 -0.1178 -0.1335
  617MOL0     N83177   4.830   8.615   5.370  0.0939  0.2589  0.0162
  617MOL0     C83178   4.965   8.612   5.379  0.3607 -0.0249 -0.6499
  617MOL0     C83179   4.997   8.744   5.383 -0.1626 -1.1543  0.0638
  617MOL0     C83180   5.139   8.803   5.386 -0.1412  0.9022  0.7291
  617MOL0     C83181   5.211   8.733   5.270 -0.5047 -0.6341  1.1553
  617MOL0     C83182   5.359   8.788   5.257 -0.3942  0.0220  0.2528
  617MOL0     C83183   5.457   8.733   5.368  1.4398  0.2677 -0.5455
  617MOL0     O83184   5.562   8.664   5.306 -1.2381  0.0525  0.1893
  617MOL0     C83185   5.666   8.614   5.381  0.3275  0.6601  0.0118
  617MOL0     C83186   5.755   8.540   5.316  0.2074  0.3120 -0.0390
  617MOL0     C83187   5.863   8.497   5.384 -0.8877 -0.3764 -0.5994
  617MOL0     C83188   5.880   8.512   5.522 -0.4904 -0.1007 -0.1150
  617MOL0     C83189   5.993   8.445   5.585 -0.4807  0.6155  0.7049
  617MOL0     O83190   6.067   8.364   5.511 -0.2741 -0.0248  0.2284
  617MOL0     C83191   6.184   8.317   5.556  0.1160 -1.0315 -0.9320
  617MOL0     C83192   6.219   8.272   5.685 -0.1190  0.4307 -0.4291
  617MOL0     C83193   6.349   8.215   5.709  0.2195  0.4350  0.5009
  617MOL0     C83194   6.442   8.203   5.600  0.7362  0.0871  0.5283
  617MOL0     O83195   6.553   8.132   5.620  0.3579  0.4762 -0.1154
  617MOL0     C83196   6.664   8.156   5.527 -0.4017 -0.0518 -0.0129
  617MOL0     C83197   6.747   8.275   5.592  0.1087 -0.5993  1.1270
  617MOL0     C83198   6.814   8.226   5.726  0.4074  0.2845 -0.0842
  617MOL0     C83199   6.971   8.210   5.710 -0.1091  0.6991  0.8234
  617MOL0     C83200   7.028   8.117   5.825 -0.7820 -1.1013 -0.2560
  617MOL0     C83201   7.177   8.083   5.788  0.3174  0.0849 -0.8150
  617MOL0     C83202   7.255   7.983   5.883  0.6128  0.5900 -1.1531
  617MOL0     C83203   7.225   7.985   6.039 -0.2326  0.9152  0.5086
  617MOL0    Cl83204   7.315   8.120   6.126 -0.0980 -0.2384  0.0611
  617MOL0     C83205   6.401   8.255   5.479 -0.0973 -0.0162  0.1986
  617MOL0     C83206   6.281   8.314   5.461 -0.4568  0.8662 -0.1471
  617MOL0     O83207   6.016   8.473   5.703  0.0233 -0.2321 -0.8662
  617MOL0     C83208   5.786   8.588   5.594 -0.4333 -0.3602  0.0538
  617MOL0     C83209   5.679   8.639   5.527  0.9277  0.6323  1.2851
  617MOL0     N83210   4.888   8.819   5.353 -0.3482 -0.9579 -0.2443
  617MOL0     N83211   4.785   8.741   5.360  0.3012  0.4749 -0.1712
  617MOL0     C83212   3.914   8.068   5.937  0.3109  0.2266  0.3240
  617MOL0     C83213   3.783   8.064   5.994 -0.6944  0.9800 -0.5660
  617MOL0     C83214   3.442   7.928   6.241  0.1333 -0.5060 -0.4814
  617MOL0     C83215   3.354   7.841   6.168  0.3028  1.1795  0.4108
  617MOL0     C83216   3.234   7.800   6.217  0.3889  0.4903 -0.5411
  617MOL0     C83217   3.199   7.832   6.349 -0.1060 -0.1955 -0.0182
  617MOL0     O83218   3.078   7.796   6.397 -0.1585  0.1184  0.1069
  617MOL0     C83219   3.037   7.825   6.532  0.1168 -0.7746 -0.1131
  617MOL0     C83220   2.905   7.760   6.568 -0.2346  0.5164  0.6137
  617MOL0     C83221   2.789   7.827   6.500  0.8135  0.1774 -0.0659
  617MOL0     C83222   2.667   7.731   6.516 -0.6379  0.5737 -0.1856
  617MOL0     C83223   2.561   7.792   6.442  0.2515 -0.4980 -0.5925
  617MOL0     C83224   2.472   7.845   6.380  0.5477 -0.5373 -0.4434
  617MOL0     C83225   3.280   7.915   6.422 -0.3976 -0.2641  1.0188
  617MOL0     C83226   3.401   7.966   6.367 -0.3537 -0.9338  0.4302
  617MOL0     C83227   3.469   8.071   6.461  0.0833  0.1139  0.2787
  617MOL0     H83228   3.752   7.730   6.020 -1.9745  1.3238  0.6402
  617MOL0     H83229   3.985   7.737   5.939 -0.7517  0.0373 -0.6194
  617MOL0     H83230   4.132   8.156   5.812 -2.9572  0.1350  1.6020
  617MOL0     H83231   4.197   8.109   5.963  1.4582 -1.5905  0.5387
  617MOL0     H83232   4.303   8.028   5.703 -1.7004 -3.4228  2.3822
  617MOL0     H83233   4.382   7.980   5.857  0.7603 -0.3838 -1.4484
  617MOL0     H83234   4.496   8.182   5.877  1.2097  0.5135 -0.3760
  617MOL0     H83235   4.361   8.270   5.789 -0.2138 -0.2450  0.7288
  617MOL0     H83236   4.568   8.066   5.671  2.6400  1.2267  0.0395
  617MOL0     H83237   4.459   8.165   5.573 -0.7432 -1.8405  0.4073
  617MOL0     H83238   4.592   8.366   5.717  2.1001  1.0952 -1.7490
  617MOL0     H83239   4.716   8.243   5.711  1.6681 -1.7150 -4.7919
  617MOL0     H83240   4.677   8.225   5.472  0.8696 -1.1407  1.7877
  617MOL0     H83241   4.559   8.364   5.487 -0.4048  0.6079  0.9830
  617MOL0     H83242   4.860   8.394   5.530 -0.7418  0.1947 -2.1627
  617MOL0     H83243   4.728   8.507   5.575  0.0470  0.1685  0.8020
  617MOL0     H83244   4.786   8.415   5.292  2.3232 -0.9788  1.6265
  617MOL0     H83245   4.645   8.509   5.356 -0.8410 -2.3891  3.9504
  617MOL0     H83246   5.022   8.523   5.405 -2.5555 -1.8905 -0.2248
  617MOL0     H83247   5.131   8.911   5.373  0.6963  0.8951  0.1369
  617MOL0     H83248   5.193   8.782   5.479  0.6161 -2.3469 -0.3134
  617MOL0     H83249   5.214   8.624   5.274  5.0688 -0.7652  0.3565
  617MOL0     H83250   5.159   8.765   5.179  1.3009 -0.3527  0.1825
  617MOL0     H83251   5.346   8.897   5.252  1.4673  0.3156  1.0259
  617MOL0     H83252   5.396   8.766   5.156 -0.3487  1.5237 -0.0798
  617MOL0     H83253   5.406   8.668   5.440  2.0069 -0.2734 -0.6200
  617MOL0     H83254   5.480   8.827   5.419 -0.5518 -0.8414  2.6979
  617MOL0     H83255   5.748   8.530   5.208 -2.0157  0.2989  0.0687
  617MOL0     H83256   5.937   8.436   5.333 -0.2926 -1.2845  1.2687
  617MOL0     H83257   6.153   8.274   5.771  1.1106 -0.4349  0.5689
  617MOL0     H83258   6.392   8.183   5.804  3.1512  3.2017  0.2637
  617MOL0     H83259   6.732   8.071   5.516  0.1227  0.3739 -0.0820
  617MOL0     H83260   6.629   8.171   5.424  1.4782  0.0676 -0.6791
  617MOL0     H83261   6.823   8.313   5.523 -1.0694  2.7059  1.4984
  617MOL0     H83262   6.673   8.355   5.596  1.3966  0.7942 -0.9389
  617MOL0     H83263   6.796   8.306   5.799 -0.7927  1.2710 -1.4110
  617MOL0     H83264   6.772   8.128   5.748  0.3397 -0.9245 -4.6365
  617MOL0     H83265   7.013   8.311   5.721 -2.7172  1.7371  2.0702
  617MOL0     H83266   6.982   8.169   5.609 -1.5613  2.4849 -0.1185
  617MOL0     H83267   6.977   8.021   5.840 -2.1885 -0.8727 -2.8234
  617MOL0     H83268   7.028   8.163   5.924  1.4281 -0.8495 -0.3366
  617MOL0     H83269   7.171   8.039   5.688  1.3909  1.3289 -1.4621
  617MOL0     H83270   7.232   8.177   5.774 -0.2435  0.4727 -0.4716
  617MOL0     H83271   7.364   7.977   5.872  0.6984 -0.3501  0.0249
  617MOL0     H83272   7.216   7.884   5.856 -0.7276  0.4165  1.1215
  617MOL0     H83273   7.117   7.995   6.052 -0.5166 -0.8150 -0.2686
  617MOL0     H83274   7.256   7.888   6.079 -0.1505  1.2610  1.2972
  617MOL0     H83275   6.453   8.249   5.384 -2.2949 -1.4668 -1.0082
  617MOL0     H83276   6.259   8.339   5.358  0.3038  0.6640 -0.3646
  617MOL0     H83277   5.808   8.616   5.696  1.5976  1.5765 -0.8158
  617MOL0     H83278   5.602   8.696   5.579 -1.2123 -1.1320  0.1799
  617MOL0     H83279   3.960   8.164   5.914  0.4893  0.0302 -0.1597
  617MOL0     H83280   3.716   8.144   6.023 -2.8130 -1.8408  3.2286
  617MOL0     H83281   3.391   7.802   6.074  0.3649 -1.1961  1.3425
  617MOL0     H83282   3.181   7.720   6.166  0.5968 -0.1896  0.2828
  617MOL0     H83283   3.026   7.926   6.574 -0.2902 -2.2420  3.6530
  617MOL0     H83284   3.111   7.782   6.599 -0.3780 -0.5434  0.5907
  617MOL0     H83285   2.905   7.781   6.675  2.8808  0.5783  0.6728
  617MOL0     H83286   2.910   7.651   6.563 -0.7223  0.4217  1.7990
  617MOL0     H83287   2.811   7.854   6.397 -0.6481  1.6757 -0.0234
  617MOL0     H83288   2.761   7.912   6.564 -3.2068 -3.5427  3.8756
  617MOL0     H83289   2.696   7.633   6.479 -0.5204  1.0707 -1.4673
  617MOL0     H83290   2.636   7.718   6.620  0.4982  1.8815  0.3588
  617MOL0     H83291   2.400   7.901   6.324  0.2733 -1.1594 -0.7245
  617MOL0     H83292   3.257   7.936   6.527  1.0930  0.3498  1.2525
  617MOL0     H83293   3.394   8.136   6.507  0.5918  1.3168 -0.5549
  617MOL0     H83294   3.530   8.020   6.536  2.5386  1.2716 -0.8185
  617MOL0     H83295   3.532   8.132   6.397 -0.4927 -0.0794 -0.4873
  618MOL0     O83296   5.655   7.711   0.251 -0.3743  0.5291  0.4347
  618MOL0     C83297   5.546   7.742   0.294  0.0922 -0.0097 -1.4936
  618MOL0     O83298   5.527   7.841   0.376  1.3155 -0.0307  0.4286
  618MOL0     C83299   5.629   7.933   0.401  0.3403  0.3528 -0.3075
  618MOL0     C83300   5.739   7.893   0.476  0.5399 -0.1647 -0.2402
  618MOL0     C83301   5.844   7.974   0.504 -0.8113 -0.8009 -0.8718
  618MOL0     C83302   5.832   8.112   0.471 -0.2267  0.2854 -0.3140
  618MOL0     O83303   5.935   8.203   0.508 -0.6329  0.3646  0.1296
  618MOL0     C83304   6.067   8.145   0.514  0.3922 -0.6942 -0.4161
  618MOL0     C83305   6.155   8.271   0.546 -0.1404  0.1906  0.5034
  618MOL0     C83306   6.303   8.233   0.582 -0.0120  0.7832  0.5676
  618MOL0     C83307   6.383   8.169   0.467 -0.7952  0.5006 -0.4712
  618MOL0     C83308   6.530   8.158   0.509  0.2909  0.2370 -0.4563
  618MOL0     C83309   6.615   8.077   0.412 -0.1946  0.5106 -0.9458
  618MOL0     C83310   6.753   8.051   0.468 -0.1948 -0.0441 -0.4943
  618MOL0     C83311   6.860   8.045   0.352 -0.4985  0.1673 -0.3833
  618MOL0     N83312   6.869   8.180   0.291  0.1041 -0.9721 -0.4273
  618MOL0     C83313   6.967   8.275   0.339  0.4993 -0.5172  0.0798
  618MOL0     C83314   6.962   8.386   0.259  0.0763  0.8590  1.0100
  618MOL0     C83315   7.049   8.502   0.268 -0.2500 -0.3639  0.5399
  618MOL0     C83316   7.177   8.512   0.175  0.1466 -0.0820  0.3493
  618MOL0     C83317   7.147   8.553   0.036 -0.2209  0.0539 -0.0094
  618MOL0     C83318   7.151   8.704   0.016 -0.4816 -0.2749 -0.8653
  618MOL0     O83319   7.055   8.766   0.105 -0.0622  0.9053  0.1569
  618MOL0     C83320   6.924   8.792   0.075 -0.1931 -0.3786 -0.0188
  618MOL0     C83321   6.869   8.882   0.177  1.1129  0.0397  0.5224
  618MOL0     C83322   6.734   8.925   0.153 -0.1252  1.4134  0.6421
  618MOL0     C83323   6.656   8.860   0.051  0.2255 -0.5748 -0.6318
  618MOL0     C83324   6.523   8.910   0.014 -0.5611 -0.1270  0.4881
  618MOL0     O83325   6.434   8.812  -0.022 -0.2982  0.2973  0.5159
  618MOL0     C83326   6.306   8.841  -0.069  0.4440 -0.0079 -0.3370
  618MOL0     C83327   6.199   8.902   0.005  0.0989  0.1353 -0.5031
  618MOL0     C83328   6.069   8.905  -0.037  0.2421 -0.5563 -1.4210
  618MOL0     C83329   6.034   8.872  -0.166 -0.8996 -0.7394 -0.1116
  618MOL0     O83330   5.905   8.892  -0.206  0.3361  0.0870  0.1852
  618MOL0     C83331   5.833   8.784  -0.256 -0.0759 -0.1083 -0.0915
  618MOL0     C83332   5.730   8.819  -0.367 -0.0252  0.7419  0.4874
  618MOL0     C83333   5.630   8.706  -0.402  0.5692 -0.2724 -0.2214
  618MOL0     C83334   5.499   8.742  -0.496 -0.5269 -0.2413 -0.1396
  618MOL0     C83335   5.405   8.624  -0.518  0.0768 -0.4116 -0.3263
  618MOL0     C83336   5.271   8.685  -0.576 -0.6243 -0.0372 -0.3904
  618MOL0     C83337   5.195   8.563  -0.625  0.0105  0.2330  0.3432
  618MOL0     C83338   5.061   8.598  -0.686  0.3369  1.0835 -1.1990
  618MOL0    Cl83339   4.979   8.465  -0.778 -0.4094 -0.1069  0.3183
  618MOL0     C83340   6.145   8.819  -0.245 -0.7449  0.4222  0.1296
  618MOL0     C83341   6.269   8.800  -0.192  0.6106 -0.2872  0.2532
  618MOL0     O83342   6.491   9.025   0.043  0.1386 -0.1243  0.6154
  618MOL0     C83343   6.715   8.762  -0.029  1.0847 -0.6550 -0.2604
  618MOL0     C83344   6.849   8.728  -0.017  0.3795  0.7126  0.3707
  618MOL0     N83345   6.872   8.349   0.162 -0.9176  0.1150 -0.2206
  618MOL0     N83346   6.810   8.240   0.178  0.6704  0.2644 -0.1445
  618MOL0     C83347   5.727   8.163   0.404 -0.6159 -0.4343 -0.0310
  618MOL0     C83348   5.628   8.072   0.373  0.9124 -0.1290 -0.2116
  618MOL0     C83349   5.432   7.654   0.250  0.4218 -0.2303 -0.4293
  618MOL0     C83350   5.460   7.543   0.171 -0.2381  0.2937  0.0291
  618MOL0     C83351   5.369   7.440   0.157 -0.6062  0.3631  0.2907
  618MOL0     C83352   5.256   7.440   0.234 -0.4379 -0.0218  0.2192
  618MOL0     O83353   5.193   7.319   0.253 -0.0072  0.1686 -0.5578
  618MOL0     C83354   5.057   7.325   0.310 -0.2918 -0.0901 -0.1674
  618MOL0     C83355   4.997   7.177   0.307  0.2846  0.7150  0.0631
  618MOL0     C83356   5.075   7.076   0.392  0.5155  0.1404 -0.8686
  618MOL0     C83357   5.033   6.932   0.356 -0.2012 -1.3051 -0.6771
  618MOL0     C83358   4.895   6.904   0.391 -0.8410  0.2236 -0.3393
  618MOL0     C83359   4.795   6.871   0.442 -0.4769 -0.4700 -1.0346
  618MOL0     C83360   5.216   7.557   0.295 -0.3623  0.9509  1.0283
  618MOL0     C83361   5.301   7.668   0.305 -0.2502  0.1233  0.2231
  618MOL0     C83362   5.245   7.787   0.369  0.2490 -0.6164 -0.5940
  618MOL0     H83363   5.737   7.792   0.514  1.0706  0.6949  2.2647
  618MOL0     H83364   5.918   7.926   0.568 -1.3991 -0.5427  0.0149
  618MOL0     H83365   6.072   8.061   0.584 -0.2435 -1.2832 -1.0597
  618MOL0     H83366   6.090   8.095   0.420 -2.0744 -1.8338 -0.5081
  618MOL0     H83367   6.128   8.319   0.641  0.7727 -2.5097  2.2435
  618MOL0     H83368   6.154   8.353   0.474  0.4478 -0.4740 -0.2737
  618MOL0     H83369   6.294   8.165   0.667 -4.4758 -0.9625 -1.0548
  618MOL0     H83370   6.353   8.326   0.610 -0.2750  1.5654 -1.3785
  618MOL0     H83371   6.334   8.072   0.455 -1.5795  0.8052  0.1424
  618MOL0     H83372   6.372   8.228   0.376  0.2937  3.4461  1.1736
  618MOL0     H83373   6.579   8.255   0.523  4.5308 -1.6648 -0.3870
  618MOL0     H83374   6.541   8.100   0.600  1.7838 -0.8624 -1.2894
  618MOL0     H83375   6.556   7.986   0.396 -1.9249  1.8662 -2.7222
  618MOL0     H83376   6.618   8.119   0.311 -0.4503  2.2696 -0.2602
  618MOL0     H83377   6.760   7.957   0.523 -2.1694  0.5422  0.8881
  618MOL0     H83378   6.788   8.132   0.533 -0.8784  0.9896 -1.3850
  618MOL0     H83379   6.961   8.019   0.384  0.3692  0.0175 -3.0256
  618MOL0     H83380   6.827   7.975   0.275 -1.0095  0.8695 -0.8131
  618MOL0     H83381   7.022   8.245   0.428  1.2018 -1.6662 -0.7133
  618MOL0     H83382   6.981   8.585   0.250  0.6213  0.5278  1.2611
  618MOL0     H83383   7.078   8.521   0.372 -2.2702 -0.1932  1.1038
  618MOL0     H83384   7.256   8.567   0.226 -1.3419 -0.9567  3.9318
  618MOL0     H83385   7.200   8.405   0.174 -4.0725 -1.1643  0.2245
  618MOL0     H83386   7.067   8.496  -0.012 -1.3630  2.0617 -0.5920
  618MOL0     H83387   7.236   8.523  -0.021 -0.2890  0.0329 -0.1052
  618MOL0     H83388   7.131   8.736  -0.087 -2.0414  0.1180 -0.4734
  618MOL0     H83389   7.255   8.732   0.035 -0.7539  0.7969 -0.8981
  618MOL0     H83390   6.921   8.910   0.268 -0.3484  0.3920  1.2778
  618MOL0     H83391   6.674   8.982   0.224  0.4433  0.7719  1.6578
  618MOL0     H83392   6.230   8.932   0.104 -2.3524  0.4932  0.2199
  618MOL0     H83393   5.992   8.963   0.012  1.3944  1.8603 -2.3306
  618MOL0     H83394   5.895   8.705  -0.298  0.8635  2.0952 -3.2711
  618MOL0     H83395   5.770   8.745  -0.175 -0.4361 -2.2588 -1.3374
  618MOL0     H83396   5.671   8.896  -0.315  1.2567  1.3766  1.0332
  618MOL0     H83397   5.775   8.865  -0.455 -0.8348  2.0325  0.7107
  618MOL0     H83398   5.697   8.632  -0.447  0.5908  0.6911 -1.8237
  618MOL0     H83399   5.585   8.663  -0.312 -0.9742 -0.8307 -1.2205
  618MOL0     H83400   5.522   8.784  -0.594 -0.4399 -0.2986 -0.1444
  618MOL0     H83401   5.453   8.818  -0.432  1.5469 -0.2362  1.4953
  618MOL0     H83402   5.381   8.590  -0.417  1.8290  0.5133  0.4582
  618MOL0     H83403   5.457   8.556  -0.585  1.3513  0.7843 -0.6019
  618MOL0     H83404   5.237   8.741  -0.488 -0.0867  1.1225 -0.8986
  618MOL0     H83405   5.281   8.761  -0.655 -2.0703 -1.2379 -1.7993
  618MOL0     H83406   5.184   8.481  -0.553  3.2934 -1.4792 -0.9200
  618MOL0     H83407   5.254   8.520  -0.706 -1.2116 -0.3649 -0.2571
  618MOL0     H83408   4.989   8.618  -0.606  1.6399 -2.2398  1.0071
  618MOL0     H83409   5.087   8.682  -0.750  4.6656  0.4987 -0.5417
  618MOL0     H83410   6.127   8.787  -0.348  1.1896 -0.8064  0.1147
  618MOL0     H83411   6.343   8.764  -0.263 -0.2410 -1.7441  0.0555
  618MOL0     H83412   6.653   8.709  -0.101  2.3935  0.4727 -2.3472
  618MOL0     H83413   6.873   8.645  -0.083  0.0345  1.4861 -0.7497
  618MOL0     H83414   5.720   8.262   0.360  1.6954 -0.5968 -0.8866
  618MOL0     H83415   5.540   8.103   0.317  0.5995  0.5654  0.6400
  618MOL0     H83416   5.548   7.520   0.112 -1.6736 -3.8382 -0.8964
  618MOL0     H83417   5.401   7.356   0.096 -1.7600 -2.6451  3.4670
  618MOL0     H83418   4.988   7.388   0.253  0.5629  0.1429 -0.9581
  618MOL0     H83419   5.063   7.358   0.414 -3.7760  0.6672 -0.0924
  618MOL0     H83420   5.014   7.136   0.207  1.4187 -3.0844  1.6397
  618MOL0     H83421   4.889   7.193   0.319  0.2112  1.7429 -1.6797
  618MOL0     H83422   5.069   7.089   0.501  1.3117  1.1482 -0.9208
  618MOL0     H83423   5.180   7.100   0.371  1.3528 -1.2877  1.2572
  618MOL0     H83424   5.041   6.922   0.247  0.9390  2.8117 -1.1533
  618MOL0     H83425   5.101   6.868   0.413 -0.1208 -0.3803  0.3031
  618MOL0     H83426   4.705   6.846   0.495  1.6671 -2.0441  2.1777
  618MOL0     H83427   5.124   7.564   0.351  0.5984 -2.7296  3.3846
  618MOL0     H83428   5.294   7.805   0.465 -0.4510 -0.8230 -0.2013
  618MOL0     H83429   5.274   7.880   0.319  1.3941 -1.0780 -0.8166
  618MOL0     H83430   5.137   7.794   0.384  0.2975  2.5891 -0.9215
  619MOL0     O83431   1.080   9.761   9.967 -0.2721 -0.0939  0.0220
  619MOL0     C83432   1.062   9.866   9.901  0.4009  0.0423  0.4048
  619MOL0     O83433   1.162   9.952   9.854  0.4236 -0.0963  0.8750
  619MOL0     C83434   1.292   9.914   9.838  0.3280 -0.5524  0.8084
  619MOL0     C83435   1.345   9.786   9.842  0.8811  0.0218  0.6463
  619MOL0     C83436   1.481   9.767   9.808  0.2749  0.1313 -0.3274
  619MOL0     C83437   1.576   9.873   9.776 -0.4086  0.6739 -0.8564
  619MOL0     O83438   1.701   9.842   9.731  0.1046  0.1761 -0.8424
  619MOL0     C83439   1.775   9.754   9.811 -0.6950  0.0414  0.7111
  619MOL0     C83440   1.817   9.823   9.948  0.1919  0.3311  0.1232
  619MOL0     C83441   1.940   9.764  10.023  1.4648  0.3931  0.2154
  619MOL0     C83442   1.906   9.615  10.060  0.1122  0.4470 -0.3661
  619MOL0     C83443   1.796   9.604  10.169  0.8841 -0.8685 -0.3761
  619MOL0     C83444   1.845   9.668  10.302  0.6903  0.9902 -0.0632
  619MOL0     C83445   1.980   9.628  10.353  0.6375 -0.0716 -0.7784
  619MOL0     C83446   1.995   9.473  10.375  1.8254  0.1341 -0.0682
  619MOL0     N83447   2.122   9.440  10.435  0.1127 -0.3917  0.0679
  619MOL0     C83448   2.149   9.432  10.571 -0.9291 -0.3721  0.8599
  619MOL0     C83449   2.277   9.384  10.583 -0.4621 -0.3157  0.6337
  619MOL0     C83450   2.359   9.364  10.717  0.2859 -0.4788  0.5931
  619MOL0     C83451   2.365   9.503  10.793 -0.0740  0.0263 -0.2698
  619MOL0     C83452   2.442   9.613  10.719  0.3305  0.5321 -0.3502
  619MOL0     C83453   2.567   9.559  10.647  0.5509 -0.1172 -1.0080
  619MOL0     O83454   2.647   9.671  10.593  0.8982 -0.4130  0.1366
  619MOL0     C83455   2.772   9.653  10.539 -0.0975  0.5286  0.7283
  619MOL0     C83456   2.801   9.748  10.449 -0.8564 -1.0212  0.4926
  619MOL0     C83457   2.924   9.734  10.374 -0.1885 -0.2108  0.1217
  619MOL0     C83458   3.007   9.622  10.390 -0.6861  0.6793  0.2750
  619MOL0     C83459   3.136   9.608  10.314 -0.1191  0.2221 -0.3614
  619MOL0     O83460   3.158   9.694  10.213  0.3569 -0.3486 -0.4549
  619MOL0     C83461   3.289   9.726  10.185  0.2817 -0.3059 -0.3550
  619MOL0     C83462   3.349   9.681  10.071 -0.3901  0.2430  0.4164
  619MOL0     C83463   3.480   9.702  10.042 -0.0412  0.2839  0.3543
  619MOL0     C83464   3.568   9.766  10.137 -0.2346  1.0394 -0.1958
  619MOL0     O83465   3.703   9.767  10.125  0.3439 -0.4688  0.1643
  619MOL0     C83466   3.760   9.682  10.023 -0.8379  0.3610 -0.2959
  619MOL0     C83467   3.916   9.660  10.058  0.3025 -0.0950 -0.5703
  619MOL0     C83468   3.938   9.625  10.205  0.2060 -0.3967 -0.6961
  619MOL0     C83469   4.058   9.530  10.220 -0.2513 -0.4998 -1.2414
  619MOL0     C83470   4.106   9.516  10.375  0.5277  0.1837 -0.2010
  619MOL0     C83471   4.004   9.429  10.451  0.1221 -0.3927 -0.3440
  619MOL0     C83472   4.039   9.417  10.598 -0.0231  0.6520 -0.2688
  619MOL0     C83473   4.175   9.351  10.637 -0.7637 -0.2529 -0.2985
  619MOL0    Cl83474   4.169   9.199  10.540 -0.3164  0.1848 -0.3440
  619MOL0     C83475   3.511   9.811  10.255 -0.1229 -0.4526  0.2392
  619MOL0     C83476   3.374   9.795  10.274 -0.2958 -0.2340 -0.3068
  619MOL0     O83477   3.220   9.537  10.374  0.2281  0.3007  0.0530
  619MOL0     C83478   2.980   9.538  10.495  0.3728  0.9818  0.7425
  619MOL0     C83479   2.860   9.555  10.577 -0.3958  0.0797  0.0184
  619MOL0     N83480   2.328   9.367  10.454 -0.3833  0.0655 -0.0979
  619MOL0     N83481   2.235   9.397  10.365  0.6526 -0.0084 -1.3643
  619MOL0     C83482   1.524  10.004   9.787  0.5033  0.6764 -0.7041
  619MOL0     C83483   1.381  10.016   9.812 -1.2012 -1.2219  1.2713
  619MOL0     C83484   0.928   9.910   9.876 -0.4734  0.1104  0.3080
  619MOL0     C83485   0.854   9.834   9.779 -0.2657  0.2206 -0.1857
  619MOL0     C83486   0.723   9.877   9.753 -0.4957  0.3379 -0.0010
  619MOL0     C83487   0.675   9.997   9.799 -0.0853 -1.1266  0.1015
  619MOL0     O83488   0.543  10.027   9.772  0.3485  0.6520  0.0491
  619MOL0     C83489   0.512  10.144   9.696 -0.5770  0.1326  1.2866
  619MOL0     C83490   0.473  10.266   9.781  0.3087 -0.3826  0.1300
  619MOL0     C83491   0.321  10.284   9.769 -0.1625  0.0320 -0.5292
  619MOL0     C83492   0.268  10.404   9.850  0.1614 -1.0814  0.0344
  619MOL0     C83493   0.288  10.388   9.995  0.6201 -0.5464  0.2575
  619MOL0     C83494   0.307  10.390  10.117  0.2837  0.8799  0.8147
  619MOL0     C83495   0.749  10.071   9.898  0.6455 -0.0320  0.3558
  619MOL0     C83496   0.875  10.033   9.932  0.1890  0.0540 -0.1464
  619MOL0     C83497   0.954  10.115  10.035  0.4786  0.0031 -0.4477
  619MOL0     H83498   1.283   9.697   9.852  0.4489 -0.0014 -1.7358
  619MOL0     H83499   1.518   9.665   9.815  0.4122  0.2790  1.5668
  619MOL0     H83500   1.718   9.664   9.835  1.4164 -1.0054  2.0549
  619MOL0     H83501   1.861   9.724   9.751 -1.8555 -0.1602 -0.9248
  619MOL0     H83502   1.731   9.838  10.013  0.2702  0.4520  0.2008
  619MOL0     H83503   1.843   9.927   9.923 -0.6508  0.4978 -0.0666
  619MOL0     H83504   1.961   9.837  10.101  1.2701  0.3220  0.3366
  619MOL0     H83505   2.025   9.777   9.956 -0.8408  0.9237 -2.8507
  619MOL0     H83506   1.867   9.564   9.972 -1.8715 -1.0277  1.2613
  619MOL0     H83507   1.998   9.567  10.094  0.1676  0.0968 -1.0000
  619MOL0     H83508   1.705   9.656  10.140  1.9422  0.5799 -1.2733
  619MOL0     H83509   1.773   9.499  10.191 -2.7879 -0.1674 -0.2411
  619MOL0     H83510   1.841   9.773  10.273  1.0800  1.0961  0.2632
  619MOL0     H83511   1.771   9.650  10.381  1.6405 -0.9243  0.4660
  619MOL0     H83512   1.995   9.665  10.455  1.7666 -1.8504 -0.2467
  619MOL0     H83513   2.063   9.671  10.295  0.1975  0.0069 -1.3553
  619MOL0     H83514   1.917   9.432  10.440  0.3334  3.2057  0.2374
  619MOL0     H83515   1.981   9.433  10.274  0.7663 -0.5757  0.3354
  619MOL0     H83516   2.086   9.452  10.657 -1.3952  1.3466  0.1662
  619MOL0     H83517   2.300   9.295  10.778  0.4148 -1.2516 -0.1506
  619MOL0     H83518   2.456   9.319  10.693 -0.2410 -0.3516 -2.1556
  619MOL0     H83519   2.267   9.540  10.824  0.5511  1.9524 -0.5095
  619MOL0     H83520   2.427   9.489  10.882  0.0915  0.9701 -0.2328
  619MOL0     H83521   2.469   9.695  10.785 -3.1537  2.5110 -1.1436
  619MOL0     H83522   2.362   9.659  10.660  0.0806  1.9710  1.0602
  619MOL0     H83523   2.529   9.492  10.569 -7.0049  0.3780  1.4744
  619MOL0     H83524   2.617   9.498  10.722  0.0970  0.6591 -0.0488
  619MOL0     H83525   2.737   9.834  10.431 -1.1490 -0.4238  3.7255
  619MOL0     H83526   2.955   9.803  10.296  2.8964 -0.0315  1.3798
  619MOL0     H83527   3.292   9.612  10.009 -1.5332 -0.9377  2.6670
  619MOL0     H83528   3.520   9.669   9.947 -0.3507  1.1189 -0.0787
  619MOL0     H83529   3.709   9.586  10.019  0.3343 -0.3450  0.9148
  619MOL0     H83530   3.752   9.730   9.925 -0.0689  1.6638  0.2388
  619MOL0     H83531   3.956   9.584   9.989  0.8687  1.8107 -2.4563
  619MOL0     H83532   3.958   9.753  10.020 -2.6928  0.7562 -2.1165
  619MOL0     H83533   3.953   9.709  10.273  2.0807 -1.0729 -0.2204
  619MOL0     H83534   3.848   9.572  10.236  0.4158 -0.6371 -0.4902
  619MOL0     H83535   4.147   9.568  10.171  0.6669 -0.7477  0.1681
  619MOL0     H83536   4.038   9.429  10.181  1.8918 -1.4744  0.0143
  619MOL0     H83537   4.107   9.611  10.430 -1.9004  0.5731 -0.7369
  619MOL0     H83538   4.204   9.467  10.369  1.6706  2.5041 -3.3907
  619MOL0     H83539   3.905   9.472  10.438  0.0221  0.7504  3.2993
  619MOL0     H83540   3.999   9.332  10.400 -0.0815  0.9068 -2.9964
  619MOL0     H83541   3.953   9.367  10.644  0.5376  0.2898  0.3977
  619MOL0     H83542   4.031   9.514  10.648  1.6271  0.9242 -0.4718
  619MOL0     H83543   4.264   9.409  10.612 -0.9690  0.0301 -0.3878
  619MOL0     H83544   4.180   9.324  10.743 -2.5247 -0.0783 -0.1343
  619MOL0     H83545   3.567   9.859  10.335 -1.3158  1.8708 -0.2137
  619MOL0     H83546   3.336   9.825  10.371  0.4016 -0.3173 -0.0047
  619MOL0     H83547   3.043   9.451  10.510  0.3052  0.5339 -1.2800
  619MOL0     H83548   2.849   9.498  10.668 -0.5559 -1.4819 -0.9489
  619MOL0     H83549   1.588  10.091   9.781 -1.9378  2.6626  0.0809
  619MOL0     H83550   1.345  10.117   9.800  1.4852 -0.1760  1.4097
  619MOL0     H83551   0.907   9.755   9.727  0.5046 -3.0984  4.9158
  619MOL0     H83552   0.652   9.826   9.688 -0.3090 -1.1256  0.9078
  619MOL0     H83553   0.432  10.114   9.627  0.1718 -2.6983  1.5461
  619MOL0     H83554   0.602  10.168   9.638 -0.9117  1.8388  1.4123
  619MOL0     H83555   0.523  10.352   9.736  1.8178 -0.1257  2.1696
  619MOL0     H83556   0.505  10.253   9.885  1.9255 -0.2328 -0.3156
  619MOL0     H83557   0.264  10.193   9.790  1.1400 -1.2706 -2.3058
  619MOL0     H83558   0.308  10.302   9.662 -0.2745  1.1410 -0.3386
  619MOL0     H83559   0.303  10.501   9.812  0.2903 -0.4004  1.8196
  619MOL0     H83560   0.163  10.429   9.831  0.1159  0.7611  2.3500
  619MOL0     H83561   0.316  10.381  10.223 -1.3213  2.5049  1.1336
  619MOL0     H83562   0.717  10.170   9.930  0.9695  1.0364 -2.3434
  619MOL0     H83563   0.885  10.153  10.111  1.4611  0.2379  0.3617
  619MOL0     H83564   1.034  10.061  10.087  0.6619  0.2791 -0.4416
  619MOL0     H83565   0.981  10.211   9.989 -2.1229  1.7725  1.4270
  620MOL0     O83566   2.245  10.527   4.223 -0.5052 -0.6455 -0.2042
  620MOL0     C83567   2.175  10.432   4.181  0.4831 -0.1390  0.6592
  620MOL0     O83568   2.222  10.311   4.126  0.1513 -0.1477  0.0461
  620MOL0     C83569   2.352  10.315   4.086 -0.0509  0.3241  0.2525
  620MOL0     C83570   2.435  10.205   4.118 -0.0110 -1.1777  0.2707
  620MOL0     C83571   2.564  10.203   4.081  0.0895 -0.5469 -0.8843
  620MOL0     C83572   2.614  10.300   4.004 -0.0797 -0.3346  0.9191
  620MOL0     O83573   2.746  10.295   3.984 -0.2327  0.2393  0.4323
  620MOL0     C83574   2.835  10.317   4.095  0.5307  0.2567 -0.0672
  620MOL0     C83575   2.971  10.326   4.034  1.4052 -0.3012 -0.2166
  620MOL0     C83576   3.078  10.319   4.141 -0.6495 -0.1207  0.4842
  620MOL0     C83577   3.223  10.312   4.079 -0.3224 -0.4180  0.2406
  620MOL0     C83578   3.332  10.274   4.181  0.4184 -1.0686  0.1803
  620MOL0     C83579   3.438  10.176   4.131 -0.4853  0.3872 -0.7238
  620MOL0     C83580   3.554  10.163   4.234  0.5717  0.0138  0.5721
  620MOL0     C83581   3.640  10.285   4.247 -0.2302 -0.2610 -0.1235
  620MOL0     N83582   3.772  10.244   4.295 -0.1866 -0.1768 -0.4499
  620MOL0     C83583   3.880  10.217   4.219  0.6566 -0.0543  0.6929
  620MOL0     C83584   3.971  10.168   4.311  0.0824  0.1941  0.0857
  620MOL0     C83585   4.101  10.108   4.269 -0.3711 -0.4982 -0.7721
  620MOL0     C83586   4.211  10.102   4.376  0.1582  0.6170 -0.2013
  620MOL0     C83587   4.259  10.240   4.396  0.6365 -0.3333 -0.2652
  620MOL0     C83588   4.389  10.249   4.475 -0.3593 -0.3679  0.9723
  620MOL0     O83589   4.504  10.210   4.395 -0.4339 -0.3004  0.5072
  620MOL0     C83590   4.606  10.160   4.467  1.8996 -0.1835  0.3518
  620MOL0     C83591   4.645  10.036   4.425  0.4340  0.3523  0.0365
  620MOL0     C83592   4.761   9.982   4.481 -0.1556  0.9474 -0.1760
  620MOL0     C83593   4.837  10.042   4.579  1.0882  0.2489 -0.2521
  620MOL0     C83594   4.971   9.997   4.609  0.3831  0.3583 -0.3343
  620MOL0     O83595   5.014   9.877   4.554  0.0253  0.0795  0.4625
  620MOL0     C83596   5.140   9.834   4.578 -0.4350  0.1893 -0.5397
  620MOL0     C83597   5.187   9.829   4.711 -0.3475  0.5859  0.1717
  620MOL0     C83598   5.311   9.778   4.743 -0.2691 -0.3721  0.6136
  620MOL0     C83599   5.393   9.730   4.643  0.3245 -0.1405  0.3035
  620MOL0     O83600   5.528   9.712   4.658  0.1079  0.8919 -0.3817
  620MOL0     C83601   5.578   9.742   4.790  0.1934 -0.2077  0.1033
  620MOL0     C83602   5.728   9.732   4.806  0.0784  0.3232  0.5329
  620MOL0     C83603   5.809   9.861   4.773 -0.0307  0.3670 -0.3241
  620MOL0     C83604   5.768   9.990   4.851 -0.9078 -0.4928  0.2071
  620MOL0     C83605   5.862  10.109   4.829 -0.8703  0.4301  0.0161
  620MOL0     C83606   5.815  10.191   4.719  0.6179 -0.7786  0.8004
  620MOL0     C83607   5.922  10.285   4.661  0.1528 -0.1927 -0.8308
  620MOL0     C83608   6.033  10.221   4.591  0.0168 -0.0854  0.7469
  620MOL0    Cl83609   6.195  10.229   4.667 -0.5348  0.3414 -0.2756
  620MOL0     C83610   5.351   9.735   4.507  0.4639 -0.3555  0.5761
  620MOL0     C83611   5.222   9.783   4.477  0.4863 -0.2557  0.5248
  620MOL0     O83612   5.038  10.064   4.684  0.2967  0.5515  0.6276
  620MOL0     C83613   4.788  10.167   4.622  0.2252 -0.2568  0.3229
  620MOL0     C83614   4.672  10.226   4.556 -0.3094 -0.2724 -0.4322
  620MOL0     N83615   3.917  10.179   4.442  0.6526  0.3704  0.2123
  620MOL0     N83616   3.806  10.223   4.425  0.2436  0.7623 -0.3678
  620MOL0     C83617   2.533  10.410   3.960 -0.6655  0.0636  0.2339
  620MOL0     C83618   2.404  10.414   3.996 -0.2121  0.6195  0.1046
  620MOL0     C83619   2.029  10.449   4.171 -0.0757 -0.5576 -0.3306
  620MOL0     C83620   1.958  10.422   4.057  0.6104 -0.0505  0.6096
  620MOL0     C83621   1.817  10.427   4.052 -0.6243  1.4750 -1.0889
  620MOL0     C83622   1.740  10.468   4.158  0.3907  0.2812  0.1950
  620MOL0     O83623   1.602  10.482   4.158 -0.2840  0.0377 -0.6487
  620MOL0     C83624   1.525  10.488   4.040  0.7976  0.0711 -0.4262
  620MOL0     C83625   1.386  10.519   4.074  0.1302  0.7628  0.0364
  620MOL0     C83626   1.314  10.395   4.111 -0.6439 -0.1056  0.1184
  620MOL0     C83627   1.187  10.429   4.189  0.6369  0.6990 -0.7547
  620MOL0     C83628   1.092  10.481   4.091 -0.0152 -0.2460  0.7285
  620MOL0     C83629   1.023  10.526   4.003 -0.6454 -1.0208  0.7577
  620MOL0     C83630   1.810  10.514   4.271  0.0679  0.1058  0.1111
  620MOL0     C83631   1.951  10.498   4.279 -0.3356  0.1016  0.1613
  620MOL0     C83632   2.011  10.552   4.403  0.5968  0.0484 -0.4729
  620MOL0     H83633   2.398  10.128   4.185 -0.9196 -2.9763 -2.1431
  620MOL0     H83634   2.626  10.128   4.130 -1.3831 -0.7858  0.7158
  620MOL0     H83635   2.806  10.407   4.150 -0.7474 -0.5988  0.6966
  620MOL0     H83636   2.830  10.233   4.164  1.9191 -1.7401 -2.2364
  620MOL0     H83637   2.984  10.418   3.976 -0.1722 -0.3669 -0.7023
  620MOL0     H83638   2.978  10.248   3.957 -1.7496 -0.3987 -0.5096
  620MOL0     H83639   3.051  10.227   4.194 -0.4192 -0.7554 -0.4821
  620MOL0     H83640   3.078  10.402   4.212  2.0031  0.0608  0.3766
  620MOL0     H83641   3.218  10.239   3.997  2.9634  2.2106 -2.6302
  620MOL0     H83642   3.259  10.402   4.027  1.7830 -1.3007  0.0775
  620MOL0     H83643   3.378  10.367   4.215 -0.8478 -1.0445  1.9267
  620MOL0     H83644   3.273  10.231   4.262 -1.0241 -0.1336 -0.3251
  620MOL0     H83645   3.394  10.082   4.096  0.8538  1.1129 -5.0089
  620MOL0     H83646   3.471  10.206   4.031 -1.2381 -2.4084 -1.9045
  620MOL0     H83647   3.613  10.081   4.191 -1.3385  0.0011 -2.3076
  620MOL0     H83648   3.525  10.124   4.332 -1.9752 -0.4607 -0.2844
  620MOL0     H83649   3.659  10.331   4.149  2.0409  1.3828  1.0107
  620MOL0     H83650   3.596  10.370   4.301  0.6228 -0.0586  0.2647
  620MOL0     H83651   3.891  10.222   4.111  1.8098  0.4961  0.8119
  620MOL0     H83652   4.090  10.012   4.219 -0.1007  1.4514 -4.9727
  620MOL0     H83653   4.143  10.170   4.190 -0.6020  2.6744  1.3921
  620MOL0     H83654   4.171  10.059   4.469  0.9682 -1.0799 -0.6060
  620MOL0     H83655   4.302  10.049   4.347  1.0356  2.0776 -0.2182
  620MOL0     H83656   4.183  10.295   4.451  0.2931 -2.0449  1.0186
  620MOL0     H83657   4.281  10.305   4.310 -1.8040  0.9937  0.0393
  620MOL0     H83658   4.381  10.180   4.560 -0.8040  0.2622  1.4477
  620MOL0     H83659   4.419  10.347   4.515  0.9230  0.1045 -1.0284
  620MOL0     H83660   4.602  10.003   4.331  0.3897  3.7170 -1.2834
  620MOL0     H83661   4.799   9.887   4.446  1.0088  0.7105  1.6164
  620MOL0     H83662   5.118   9.869   4.785 -1.9566  2.1481 -2.0263
  620MOL0     H83663   5.353   9.790   4.842 -0.2524 -3.0490  0.9905
  620MOL0     H83664   5.539   9.839   4.823 -2.8052  0.1089 -3.6144
  620MOL0     H83665   5.535   9.669   4.860  1.3249 -2.3511 -1.3250
  620MOL0     H83666   5.755   9.705   4.908 -1.0505 -1.7538  0.3354
  620MOL0     H83667   5.766   9.642   4.757 -1.0401 -0.0262  0.2605
  620MOL0     H83668   5.913   9.842   4.801  0.1336  0.2151 -1.0206
  620MOL0     H83669   5.812   9.883   4.666  1.0561  0.5877 -0.2608
  620MOL0     H83670   5.772   9.971   4.958  1.0544 -0.7101  0.1290
  620MOL0     H83671   5.668  10.014   4.814  0.1404  1.2703 -1.7907
  620MOL0     H83672   5.966  10.083   4.811  0.1716  1.3687  3.8653
  620MOL0     H83673   5.874  10.176   4.915  2.0942 -0.3966  0.3434
  620MOL0     H83674   5.764  10.132   4.642  1.4655 -0.6884  0.1577
  620MOL0     H83675   5.735  10.256   4.756 -1.1433 -0.5771 -2.9430
  620MOL0     H83676   5.968  10.330   4.750  0.9009 -0.3245 -1.1433
  620MOL0     H83677   5.872  10.363   4.603 -0.8020  1.8185  2.4117
  620MOL0     H83678   6.009  10.116   4.575  2.4813 -0.1268 -4.7392
  620MOL0     H83679   6.044  10.259   4.489  1.5709  0.5059  1.1137
  620MOL0     H83680   5.419   9.696   4.431 -2.0449 -0.5562 -1.7306
  620MOL0     H83681   5.192   9.768   4.374 -0.8628 -2.9734  1.2083
  620MOL0     H83682   4.830  10.214   4.710  2.1979 -3.3903  1.2139
  620MOL0     H83683   4.627  10.321   4.584  1.4784  0.0055  1.8461
  620MOL0     H83684   2.568  10.494   3.900 -2.0024 -0.2797 -1.0745
  620MOL0     H83685   2.337  10.494   3.967  0.8429  0.9921 -1.4687
  620MOL0     H83686   2.000  10.370   3.972 -3.0991 -2.3463 -0.0391
  620MOL0     H83687   1.762  10.397   3.964 -1.7156  0.0947  0.0176
  620MOL0     H83688   1.529  10.389   3.994  2.3411 -0.2243  0.2932
  620MOL0     H83689   1.569  10.560   3.970 -0.9193  2.3050  0.6732
  620MOL0     H83690   1.336  10.566   3.989  0.5939 -1.5696 -1.6171
  620MOL0     H83691   1.385  10.593   4.155 -0.4739  1.0045 -0.1858
  620MOL0     H83692   1.382  10.342   4.178 -1.4766 -0.8477  0.3928
  620MOL0     H83693   1.287  10.346   4.017 -1.0967  1.6798 -0.7319
  620MOL0     H83694   1.155  10.338   4.241 -3.5097  0.9159 -2.5495
  620MOL0     H83695   1.204  10.506   4.266  4.2046 -1.5729  1.0033
  620MOL0     H83696   0.956  10.551   3.923 -1.1070  0.8421  1.6566
  620MOL0     H83697   1.759  10.559   4.356 -0.0914  1.2564 -0.5681
  620MOL0     H83698   2.094  10.498   4.451  0.4496  2.1986  2.4805
  620MOL0     H83699   2.067  10.643   4.379 -0.2504  0.1896 -2.0354
  620MOL0     H83700   1.940  10.570   4.484  0.7039  0.7445 -0.5261
  621MOL0     O83701   5.999   1.627  10.753 -0.5666  0.2772  0.9572
  621MOL0     C83702   5.966   1.745  10.712  0.5703  1.3089  0.0595
  621MOL0     O83703   6.033   1.856  10.743 -0.0980  0.1745 -0.2454
  621MOL0     C83704   6.155   1.843  10.810  0.8680 -0.0669 -0.0029
  621MOL0     C83705   6.196   1.756  10.921  0.2352  0.0690 -0.1252
  621MOL0     C83706   6.317   1.779  10.985 -0.2456 -0.4341 -0.5081
  621MOL0     C83707   6.397   1.883  10.946 -0.0540 -0.1621 -0.7739
  621MOL0     O83708   6.527   1.885  10.993 -0.4766 -0.1218  0.4270
  621MOL0     C83709   6.557   1.989  11.085  0.6262 -0.7708 -0.7727
  621MOL0     C83710   6.701   1.960  11.133 -0.9758 -0.5281 -0.3135
  621MOL0     C83711   6.798   2.057  11.047 -0.1783  0.0869 -0.0882
  621MOL0     C83712   6.819   2.029  10.900  0.8099 -0.1460 -0.7608
  621MOL0     C83713   6.957   2.074  10.845 -0.2034  0.0401 -0.5443
  621MOL0     C83714   7.003   1.990  10.725 -0.8942 -0.2057  0.5103
  621MOL0     C83715   6.924   2.009  10.595  0.1137 -0.9443 -0.0735
  621MOL0     C83716   7.005   1.982  10.464  0.5236 -0.5512  1.4838
  621MOL0     N83717   6.928   1.955  10.342  0.3073 -0.2278  0.0249
  621MOL0     C83718   6.809   2.013  10.308  0.3789  0.7044 -0.9091
  621MOL0     C83719   6.786   1.966  10.181  0.4170  0.1970 -0.1575
  621MOL0     C83720   6.649   1.999  10.108  0.0234 -0.1191  1.1468
  621MOL0     C83721   6.617   1.888  10.005  0.3519  0.0112  0.1661
  621MOL0     C83722   6.568   1.767  10.074  0.3551  0.1554 -0.8327
  621MOL0     C83723   6.541   1.639   9.995  0.0015 -0.1023  0.1463
  621MOL0     O83724   6.527   1.532  10.094 -1.0715  0.2532  0.7341
  621MOL0     C83725   6.421   1.442  10.069 -0.0063 -0.3803  0.0758
  621MOL0     C83726   6.442   1.305  10.033 -0.9843  0.5343 -0.7475
  621MOL0     C83727   6.339   1.213   9.998  0.6373 -0.6372 -0.2225
  621MOL0     C83728   6.204   1.255  10.004 -0.4194  0.3722  0.6296
  621MOL0     C83729   6.092   1.172   9.945 -0.0885  0.1579  1.1256
  621MOL0     O83730   6.121   1.051   9.883 -0.1605  0.4755  0.4358
  621MOL0     C83731   6.027   1.007   9.798  0.2054 -0.2939  0.0152
  621MOL0     C83732   5.972   0.879   9.808  0.2270  0.0206  0.9064
  621MOL0     C83733   5.892   0.826   9.702 -0.4027  0.2086 -0.5255
  621MOL0     C83734   5.857   0.902   9.583 -0.1215 -0.0467 -0.0804
  621MOL0     O83735   5.785   0.865   9.479  0.8983  0.4670 -0.0645
  621MOL0     C83736   5.670   0.787   9.514 -0.7011  0.8192  0.4037
  621MOL0     C83737   5.556   0.822   9.423 -0.1095  0.4417  0.5009
  621MOL0     C83738   5.599   0.814   9.275 -0.1654 -0.4566 -0.4126
  621MOL0     C83739   5.477   0.842   9.196 -0.6810  0.0998 -0.6262
  621MOL0     C83740   5.513   0.825   9.055  0.2313  0.6170  0.1859
  621MOL0     C83741   5.404   0.855   8.953 -0.6457  0.6787  0.2944
  621MOL0     C83742   5.381   1.002   8.929 -0.0819  0.9988 -0.3468
  621MOL0     C83743   5.241   1.046   8.878  0.5880 -0.3698 -0.3648
  621MOL0    Cl83744   5.245   0.998   8.704 -0.0708  0.0311  0.1178
  621MOL0     C83745   5.916   1.035   9.576 -0.4119 -0.1484  0.4800
  621MOL0     C83746   5.998   1.083   9.677  1.2764 -0.3084 -0.4798
  621MOL0     O83747   5.982   1.225   9.944  0.1990  0.2195  0.7129
  621MOL0     C83748   6.181   1.394  10.056  0.9745  0.2014 -0.0456
  621MOL0     C83749   6.291   1.472  10.093  1.3499  0.4021 -0.9743
  621MOL0     N83750   6.879   1.880  10.145  0.3297  0.5386  0.2075
  621MOL0     N83751   6.973   1.881  10.231  0.5234 -1.4994  0.1207
  621MOL0     C83752   6.359   1.969  10.838  0.4241  0.0489  0.3255
  621MOL0     C83753   6.242   1.949  10.767 -0.5181  1.3171 -0.7916
  621MOL0     C83754   5.837   1.757  10.626 -0.3097 -1.3769  0.6367
  621MOL0     C83755   5.832   1.878  10.547  0.4912  0.3137 -0.1685
  621MOL0     C83756   5.712   1.902  10.475  0.2712 -0.2591 -0.3443
  621MOL0     C83757   5.610   1.808  10.463  0.2976 -0.2042  0.0199
  621MOL0     O83758   5.499   1.839  10.393  0.4231 -0.2965  0.1074
  621MOL0     C83759   5.416   1.734  10.334  0.4899  1.1984  0.1134
  621MOL0     C83760   5.425   1.743  10.181  0.3050 -0.2361 -0.7159
  621MOL0     C83761   5.569   1.722  10.115 -0.1386 -0.5100 -0.7805
  621MOL0     C83762   5.576   1.756   9.966 -0.7195 -0.7453  0.0445
  621MOL0     C83763   5.701   1.696   9.911 -0.9948 -0.1941  0.4612
  621MOL0     C83764   5.785   1.626   9.857  0.3084 -0.3720  0.8294
  621MOL0     C83765   5.625   1.691  10.534  0.3355  0.4543  0.3078
  621MOL0     C83766   5.733   1.659  10.617  0.0358  0.4366 -0.4054
  621MOL0     C83767   5.728   1.535  10.706 -0.4626  0.8156 -0.4061
  621MOL0     H83768   6.138   1.667  10.945  0.7464 -0.4841 -0.8643
  621MOL0     H83769   6.359   1.719  11.065 -2.8290 -3.2249 -1.0436
  621MOL0     H83770   6.539   2.090  11.046 -4.5588 -1.0270  0.2059
  621MOL0     H83771   6.482   1.975  11.164 -1.9795  0.7522 -2.7849
  621MOL0     H83772   6.720   1.854  11.113  1.5738  0.2297 -2.5040
  621MOL0     H83773   6.731   1.979  11.237 -0.1292  1.9553 -0.9453
  621MOL0     H83774   6.896   2.037  11.091 -0.3609 -0.2287  0.1873
  621MOL0     H83775   6.767   2.161  11.058  4.3128  1.4686  1.5809
  621MOL0     H83776   6.819   1.920  10.891  0.3240 -0.3293  1.0134
  621MOL0     H83777   6.731   2.067  10.848 -0.2449 -0.5008  0.6874
  621MOL0     H83778   6.946   2.181  10.827 -3.1687 -0.3630 -1.7009
  621MOL0     H83779   7.024   2.074  10.931  0.4492 -3.2861 -0.9176
  621MOL0     H83780   7.109   2.011  10.705 -1.3343  3.9131  1.5835
  621MOL0     H83781   7.002   1.885  10.754 -0.8729  0.1415  1.8393
  621MOL0     H83782   6.882   2.109  10.600  2.7743  0.5050 -3.2074
  621MOL0     H83783   6.845   1.933  10.590 -0.5641 -0.2647  0.1151
  621MOL0     H83784   7.065   2.070  10.443  0.0809 -0.5326  0.2263
  621MOL0     H83785   7.070   1.894  10.468  0.3217 -1.0800 -2.5103
  621MOL0     H83786   6.750   2.077  10.372 -1.7155 -2.1254  0.2004
  621MOL0     H83787   6.565   1.993  10.178  0.5101  0.5321  1.8067
  621MOL0     H83788   6.647   2.095  10.055  0.5614 -0.8405 -0.2171
  621MOL0     H83789   6.540   1.927   9.937 -0.3633 -2.8543 -0.8021
  621MOL0     H83790   6.699   1.862   9.937 -0.1325 -0.0740 -0.3948
  621MOL0     H83791   6.482   1.803  10.131  2.8258  4.9875  0.3336
  621MOL0     H83792   6.650   1.733  10.138  0.6264  1.2039 -0.6173
  621MOL0     H83793   6.618   1.617   9.921  2.0948 -1.0577  2.4760
  621MOL0     H83794   6.449   1.658   9.939  0.2533  0.6122 -0.0437
  621MOL0     H83795   6.546   1.275  10.029 -0.4515  2.1324  0.4251
  621MOL0     H83796   6.367   1.111   9.972  0.3138 -0.4028 -1.5506
  621MOL0     H83797   6.008   0.806   9.880 -2.3028  1.4126  3.8253
  621MOL0     H83798   5.887   0.718   9.688 -1.3538  0.4922 -2.8303
  621MOL0     H83799   5.700   0.682   9.518 -0.7083  0.8419  1.5040
  621MOL0     H83800   5.640   0.816   9.615 -2.1779  1.6922 -0.2499
  621MOL0     H83801   5.476   0.752   9.447 -3.0446  3.5391  0.5624
  621MOL0     H83802   5.527   0.927   9.432  1.1595  0.9329 -0.7113
  621MOL0     H83803   5.671   0.894   9.252 -0.9525 -0.2054 -2.1658
  621MOL0     H83804   5.647   0.716   9.277  2.5743  0.7240  3.5280
  621MOL0     H83805   5.441   0.944   9.217 -0.3117 -0.1682  1.5543
  621MOL0     H83806   5.399   0.770   9.225 -1.4085 -0.0487 -2.8024
  621MOL0     H83807   5.543   0.720   9.048 -4.0008 -0.9996  2.6183
  621MOL0     H83808   5.597   0.892   9.035  0.0158  0.6606 -0.6170
  621MOL0     H83809   5.426   0.807   8.857  0.1120  3.7815 -1.1940
  621MOL0     H83810   5.317   0.802   8.994  2.0729 -3.5390  1.2282
  621MOL0     H83811   5.452   1.023   8.849 -0.9472 -3.9455 -2.8523
  621MOL0     H83812   5.411   1.068   9.010  1.1763  2.1078 -1.6595
  621MOL0     H83813   5.171   0.994   8.945  0.3067 -2.2023 -1.9734
  621MOL0     H83814   5.220   1.152   8.889 -2.1700 -0.9726  1.3419
  621MOL0     H83815   5.906   1.088   9.482  1.9446 -0.8439 -0.2478
  621MOL0     H83816   6.036   1.184   9.660 -2.9379  1.3205 -1.5880
  621MOL0     H83817   6.075   1.413  10.065  0.2047 -0.8102 -4.6589
  621MOL0     H83818   6.271   1.578  10.106  0.0212  0.2109 -1.2956
  621MOL0     H83819   6.438   2.027  10.792 -1.0851  1.6566 -0.3103
  621MOL0     H83820   6.219   2.014  10.683 -3.3897 -0.3510 -1.4269
  621MOL0     H83821   5.906   1.957  10.556 -0.0831  0.8647 -0.2200
  621MOL0     H83822   5.711   1.989  10.410 -0.9955 -0.3572 -0.4816
  621MOL0     H83823   5.313   1.749  10.368  0.4793  0.7142  0.3075
  621MOL0     H83824   5.444   1.631  10.356  1.4843  0.6182 -3.3949
  621MOL0     H83825   5.387   1.841  10.151  2.5888  1.1468  0.6731
  621MOL0     H83826   5.363   1.663  10.138 -1.3718  1.2756 -1.2175
  621MOL0     H83827   5.597   1.618  10.132 -1.3655 -0.7218  0.0879
  621MOL0     H83828   5.637   1.796  10.158  0.8753 -0.6117 -2.1298
  621MOL0     H83829   5.489   1.720   9.912 -0.9085 -0.3755  0.0991
  621MOL0     H83830   5.592   1.864   9.958  0.6390 -0.8546  0.8634
  621MOL0     H83831   5.867   1.568   9.820  1.2246  2.1949 -1.4406
  621MOL0     H83832   5.542   1.621  10.546 -1.6211  2.9008  2.2964
  621MOL0     H83833   5.715   1.551  10.814 -0.1118 -1.4640  0.0288
  621MOL0     H83834   5.644   1.469  10.686  1.6817 -1.4218 -2.7866
  621MOL0     H83835   5.814   1.472  10.679 -0.7454  0.3070 -0.1285
  622MOL0     O83836   4.799   9.266   5.302  0.4061  0.0307 -0.0264
  622MOL0     C83837   4.830   9.237   5.419  0.9591 -1.2141 -0.1744
  622MOL0     O83838   4.962   9.232   5.470  0.0118 -0.3844  0.6072
  622MOL0     C83839   5.071   9.247   5.389 -0.0741  0.5661 -1.2376
  622MOL0     C83840   5.181   9.294   5.461 -1.2967 -0.0805  0.8459
  622MOL0     C83841   5.307   9.296   5.392  0.7568 -0.4328  0.1525
  622MOL0     C83842   5.322   9.260   5.255  0.7783 -0.3291 -0.9425
  622MOL0     O83843   5.441   9.269   5.183 -0.2669  0.1882 -0.2788
  622MOL0     C83844   5.553   9.215   5.255  0.0152 -0.0882  0.0638
  622MOL0     C83845   5.624   9.109   5.172 -0.1118 -0.5971  0.2117
  622MOL0     C83846   5.714   9.014   5.258 -0.0821  0.7107  0.0569
  622MOL0     C83847   5.799   8.918   5.183 -0.6845  0.3909  0.5683
  622MOL0     C83848   5.918   8.889   5.273  0.7670 -0.7768 -0.1905
  622MOL0     C83849   6.004   8.797   5.197 -0.4583  0.3782 -0.7768
  622MOL0     C83850   6.141   8.754   5.260  0.1164 -0.2222  0.4965
  622MOL0     C83851   6.213   8.653   5.171  0.4148  0.0446  0.2900
  622MOL0     N83852   6.351   8.639   5.216 -0.8272 -0.3806 -1.1697
  622MOL0     C83853   6.449   8.711   5.152 -0.5530  1.2509 -0.6980
  622MOL0     C83854   6.567   8.663   5.209 -1.1294  0.7749  0.0663
  622MOL0     C83855   6.706   8.699   5.157 -0.1500  0.2063  0.0416
  622MOL0     C83856   6.819   8.682   5.260 -0.4616 -0.3600  0.2583
  622MOL0     C83857   6.855   8.537   5.302 -0.7334  0.2741  0.5449
  622MOL0     C83858   6.943   8.477   5.190  0.1709 -0.2477 -0.1989
  622MOL0     O83859   7.076   8.529   5.173 -0.3075  0.9832  0.0744
  622MOL0     C83860   7.180   8.467   5.252  0.2057  0.3807  0.0424
  622MOL0     C83861   7.307   8.492   5.199  0.3924 -0.4419 -0.5466
  622MOL0     C83862   7.421   8.441   5.266  0.1509  0.6399 -0.2894
  622MOL0     C83863   7.402   8.378   5.394 -0.3082 -0.6127  0.0520
  622MOL0     C83864   7.517   8.318   5.470 -0.3346  0.5605 -0.2338
  622MOL0     O83865   7.492   8.248   5.589 -0.6976 -0.1257 -0.1911
  622MOL0     C83866   7.594   8.198   5.667 -0.2537 -0.6259  0.5631
  622MOL0     C83867   7.730   8.176   5.634  0.4513  0.1916 -0.1617
  622MOL0     C83868   7.818   8.129   5.732 -0.2170 -0.0345 -0.8707
  622MOL0     C83869   7.766   8.085   5.860  0.0061  0.2467 -0.0718
  622MOL0     O83870   7.846   8.012   5.941  0.4481 -0.1841 -0.4301
  622MOL0     C83871   7.881   8.085   6.060 -0.8308  0.6375 -1.0424
  622MOL0     C83872   8.001   8.019   6.116 -0.1011 -0.0426 -0.1638
  622MOL0     C83873   8.125   8.043   6.031 -0.4614  0.5199  0.4164
  622MOL0     C83874   8.179   8.180   6.004 -0.9697 -0.5735  0.1183
  622MOL0     C83875   8.295   8.173   5.897  0.1705 -0.2475 -0.2571
  622MOL0     C83876   8.240   8.133   5.753  0.5080  0.0528  0.0912
  622MOL0     C83877   8.173   8.255   5.679 -0.8015  0.2402 -0.3119
  622MOL0     C83878   8.145   8.248   5.524  0.6943  0.1365  0.2794
  622MOL0    Cl83879   8.295   8.254   5.432 -0.0011  0.6551 -0.0016
  622MOL0     C83880   7.633   8.115   5.886 -0.2758 -0.2930 -0.8002
  622MOL0     C83881   7.550   8.163   5.791  0.6407 -0.3942  0.7118
  622MOL0     O83882   7.629   8.337   5.416  0.4392  0.3409 -0.1489
  622MOL0     C83883   7.272   8.368   5.440  0.4431 -0.6266  0.2962
  622MOL0     C83884   7.157   8.398   5.365 -0.0963  0.7483  0.2233
  622MOL0     N83885   6.533   8.580   5.318 -0.4013 -0.8438 -0.6077
  622MOL0     N83886   6.407   8.575   5.321 -0.8281  0.0165 -0.4186
  622MOL0     C83887   5.210   9.222   5.190  0.5548  0.1020 -0.4685
  622MOL0     C83888   5.081   9.208   5.254 -0.0652  0.5973  0.8572
  622MOL0     C83889   4.717   9.201   5.503 -0.4225 -0.1110  0.0119
  622MOL0     C83890   4.654   9.083   5.480  0.8608  0.8258 -0.4042
  622MOL0     C83891   4.543   9.055   5.570 -0.1635  0.4878  0.2692
  622MOL0     C83892   4.500   9.147   5.662 -0.5833 -0.0798 -0.0280
  622MOL0     O83893   4.392   9.137   5.745  0.4358  0.5022  0.4024
  622MOL0     C83894   4.305   9.022   5.744 -0.4413  0.2842  0.2899
  622MOL0     C83895   4.300   8.950   5.878 -0.0399 -0.3511 -0.2629
  622MOL0     C83896   4.237   8.799   5.881  0.1190 -0.5321  0.5378
  622MOL0     C83897   4.089   8.817   5.912 -1.1435  0.2999  0.3124
  622MOL0     C83898   4.016   8.699   5.867  0.1481  0.3057  0.0944
  622MOL0     C83899   3.989   8.582   5.846 -0.6015  0.2348  0.8171
  622MOL0     C83900   4.574   9.260   5.673 -0.3567 -0.0665  0.0799
  622MOL0     C83901   4.676   9.292   5.599 -0.0037 -0.5964  0.4401
  622MOL0     C83902   4.746   9.419   5.628 -0.5095 -1.1855  0.3219
  622MOL0     H83903   5.175   9.315   5.568  1.3698 -0.6166  1.1756
  622MOL0     H83904   5.398   9.321   5.447 -0.7916  1.5370  1.9649
  622MOL0     H83905   5.620   9.300   5.268 -2.1828  1.7590 -0.0272
  622MOL0     H83906   5.518   9.188   5.355 -0.4682  0.4027  0.0351
  622MOL0     H83907   5.685   9.156   5.094 -0.6603 -0.9587 -0.4504
  622MOL0     H83908   5.555   9.038   5.126  2.0784 -1.6655 -1.6668
  622MOL0     H83909   5.648   8.957   5.323 -0.7499  2.8419  1.3225
  622MOL0     H83910   5.782   9.076   5.318 -1.4639  1.1605  1.1923
  622MOL0     H83911   5.745   8.825   5.166 -1.1046 -0.3158  4.8086
  622MOL0     H83912   5.831   8.964   5.088 -0.1209 -0.3957  0.3603
  622MOL0     H83913   5.966   8.981   5.305  1.4139 -0.9510 -0.6415
  622MOL0     H83914   5.879   8.838   5.362  0.4338  0.6109  0.4779
  622MOL0     H83915   5.948   8.705   5.177  0.5347  0.0511 -2.2371
  622MOL0     H83916   6.032   8.833   5.098 -0.2176  2.4025 -0.0192
  622MOL0     H83917   6.145   8.699   5.355  2.3102 -0.0926  0.5325
  622MOL0     H83918   6.207   8.840   5.272  2.9479 -2.2586  0.5843
  622MOL0     H83919   6.163   8.560   5.201 -1.2199  0.8047 -0.0215
  622MOL0     H83920   6.206   8.676   5.064  1.5395 -1.2960 -0.1140
  622MOL0     H83921   6.439   8.777   5.067 -2.7449  0.8028 -0.8536
  622MOL0     H83922   6.732   8.651   5.063 -2.7889 -1.5753  0.0968
  622MOL0     H83923   6.707   8.807   5.141  3.3889  0.1348 -0.9753
  622MOL0     H83924   6.904   8.740   5.223 -0.4235  2.1115  3.7979
  622MOL0     H83925   6.788   8.735   5.350  2.2410  3.3628 -0.7555
  622MOL0     H83926   6.770   8.470   5.288  0.3146 -1.1415  0.8002
  622MOL0     H83927   6.891   8.528   5.405 -2.8651  2.1859  1.5558
  622MOL0     H83928   6.891   8.496   5.096  0.0987  0.3639 -0.0370
  622MOL0     H83929   6.954   8.370   5.209 -0.7346  0.0303  2.4064
  622MOL0     H83930   7.314   8.550   5.107 -0.4742  0.9994  0.2584
  622MOL0     H83931   7.519   8.461   5.224  1.1390  2.7841  2.6332
  622MOL0     H83932   7.772   8.195   5.536 -2.4329 -1.4018 -1.8634
  622MOL0     H83933   7.921   8.104   5.711 -0.2543 -1.3649  0.3238
  622MOL0     H83934   7.903   8.191   6.046  0.2628  0.4429 -0.8754
  622MOL0     H83935   7.798   8.071   6.131  0.8429  1.2962  1.1821
  622MOL0     H83936   8.029   8.056   6.215  0.2568 -0.3120 -0.1624
  622MOL0     H83937   7.989   7.911   6.123  0.0130 -0.1401 -1.2801
  622MOL0     H83938   8.203   7.995   6.091 -4.2733 -4.2993  2.2038
  622MOL0     H83939   8.109   7.987   5.938 -0.0216  0.3305  0.4533
  622MOL0     H83940   8.223   8.230   6.091 -0.1686 -0.8597 -0.1123
  622MOL0     H83941   8.105   8.248   5.960 -0.2733 -1.1028 -1.9672
  622MOL0     H83942   8.362   8.093   5.929 -1.0325 -1.1392  0.1402
  622MOL0     H83943   8.347   8.268   5.884  1.7850 -1.5112 -4.2667
  622MOL0     H83944   8.319   8.087   5.692  1.2651 -1.3788  2.0394
  622MOL0     H83945   8.174   8.046   5.757  0.9247 -0.2135  2.0660
  622MOL0     H83946   8.237   8.340   5.703  0.1174 -0.8307  1.2148
  622MOL0     H83947   8.077   8.278   5.725 -1.0139  3.6945 -2.1636
  622MOL0     H83948   8.096   8.151   5.509  0.4398  0.3689 -0.4284
  622MOL0     H83949   8.071   8.325   5.500 -0.0818  1.3467  5.3647
  622MOL0     H83950   7.606   8.100   5.990 -0.2087 -0.2759 -0.7800
  622MOL0     H83951   7.445   8.177   5.816  0.3511  2.1740 -1.4837
  622MOL0     H83952   7.245   8.317   5.531  0.4241 -2.4359 -0.6821
  622MOL0     H83953   7.062   8.376   5.413  0.3933 -1.9626  0.1263
  622MOL0     H83954   5.218   9.198   5.085  2.0537 -0.6595 -0.2114
  622MOL0     H83955   5.004   9.183   5.182  1.7418  0.0646 -0.9843
  622MOL0     H83956   4.676   9.009   5.403  0.2611 -0.2595  0.4398
  622MOL0     H83957   4.502   8.955   5.577 -5.3253  2.4273  2.6084
  622MOL0     H83958   4.335   8.954   5.663 -0.2036  1.5147 -0.6773
  622MOL0     H83959   4.209   9.060   5.707  1.9341  3.5625 -3.3116
  622MOL0     H83960   4.248   9.010   5.954 -0.7206 -0.9422 -0.2491
  622MOL0     H83961   4.406   8.939   5.902  0.6401  1.1664 -2.2799
  622MOL0     H83962   4.290   8.727   5.944  2.5138 -0.1804 -0.9208
  622MOL0     H83963   4.253   8.759   5.780 -1.2315 -1.7527  0.7871
  622MOL0     H83964   4.067   8.851   6.013  0.9375  2.6561  0.0891
  622MOL0     H83965   4.055   8.882   5.830  1.8723 -1.2871 -2.4266
  622MOL0     H83966   3.960   8.485   5.811  0.1087  0.8164 -1.6185
  622MOL0     H83967   4.546   9.330   5.751 -2.9184 -0.2450 -0.6076
  622MOL0     H83968   4.840   9.388   5.675 -0.7663  0.4161  2.0173
  622MOL0     H83969   4.758   9.476   5.536 -2.1019  0.8092  1.2602
  622MOL0     H83970   4.689   9.477   5.701  0.4609  1.2857 -0.7647
  623MOL0     O83971   7.388   5.962   7.810  0.4966 -0.1554  0.0928
  623MOL0     C83972   7.277   5.949   7.752 -0.0693 -0.0786 -0.3871
  623MOL0     O83973   7.265   5.953   7.617  0.0874 -0.0352 -0.7739
  623MOL0     C83974   7.373   5.984   7.547 -0.3476 -0.4394  0.8033
  623MOL0     C83975   7.458   5.877   7.508 -0.5433  0.3801 -0.5120
  623MOL0     C83976   7.576   5.907   7.448 -0.5028 -0.2679  0.2183
  623MOL0     C83977   7.615   6.031   7.409  0.9823 -0.6153  0.3675
  623MOL0     O83978   7.727   6.032   7.335  0.0613  0.1275 -0.3136
  623MOL0     C83979   7.792   6.159   7.334 -0.4361  0.0920  0.6026
  623MOL0     C83980   7.747   6.249   7.217  0.0332 -0.1477 -1.3956
  623MOL0     C83981   7.743   6.174   7.089 -0.2683  0.3948 -0.1491
  623MOL0     C83982   7.707   6.280   6.975  0.4233  0.1267 -1.1827
  623MOL0     C83983   7.739   6.240   6.833  0.3513  0.3041  0.2118
  623MOL0     C83984   7.626   6.149   6.783 -0.4161 -0.0798  0.0875
  623MOL0     C83985   7.628   6.143   6.636 -0.9596 -0.0085  1.0455
  623MOL0     C83986   7.506   6.053   6.587 -0.4025 -0.0668  0.2254
  623MOL0     N83987   7.379   6.134   6.607  0.5485  0.0336  0.0658
  623MOL0     C83988   7.356   6.245   6.529 -0.9822 -0.4595 -0.2049
  623MOL0     C83989   7.238   6.301   6.577 -1.1832  1.0699 -0.4506
  623MOL0     C83990   7.167   6.426   6.521  0.3444  1.2284 -1.0994
  623MOL0     C83991   7.052   6.484   6.601 -0.4739  0.6454 -0.6611
  623MOL0     C83992   6.981   6.604   6.537 -1.3927  0.1255 -0.6181
  623MOL0     C83993   7.085   6.717   6.485  0.3269  0.0684 -0.2475
  623MOL0     O83994   7.190   6.753   6.582  0.0173  0.3702  0.1896
  623MOL0     C83995   7.244   6.876   6.563 -0.7681  0.0731 -0.3252
  623MOL0     C83996   7.360   6.888   6.644 -0.4041  0.4471 -0.2440
  623MOL0     C83997   7.426   7.002   6.657 -0.1547 -0.2546 -0.0032
  623MOL0     C83998   7.386   7.118   6.589 -0.0913  0.0537 -0.0837
  623MOL0     C83999   7.449   7.248   6.616 -0.5218 -0.0212 -0.6749
  623MOL0     O84000   7.544   7.245   6.717 -0.2327  0.2431  0.9920
  623MOL0     C84001   7.597   7.367   6.742 -0.6815  0.0293  0.3014
  623MOL0     C84002   7.707   7.419   6.668 -0.4379 -0.4363 -0.2297
  623MOL0     C84003   7.749   7.550   6.685 -0.4991 -0.2789 -0.5353
  623MOL0     C84004   7.699   7.626   6.794  0.2592  1.1085 -0.3330
  623MOL0     O84005   7.767   7.743   6.818 -0.0892 -0.6162  1.0055
  623MOL0     C84006   7.760   7.842   6.716  0.0206  0.2277 -0.4791
  623MOL0     C84007   7.859   7.958   6.738  0.0151 -0.2494  0.9929
  623MOL0     C84008   7.856   8.080   6.649  1.5659 -0.8556  1.0533
  623MOL0     C84009   7.715   8.157   6.667  0.2352 -0.1307 -0.1930
  623MOL0     C84010   7.712   8.305   6.616  0.9783  1.0684  0.3661
  623MOL0     C84011   7.711   8.318   6.462  0.1322  0.0246  0.5441
  623MOL0     C84012   7.576   8.286   6.395  0.0187  0.5960 -0.2164
  623MOL0     C84013   7.584   8.328   6.257  0.1462  0.1043  0.2489
  623MOL0    Cl84014   7.561   8.504   6.243 -0.0954  0.2124  0.1454
  623MOL0     C84015   7.596   7.569   6.868 -0.2863 -0.2085 -0.5732
  623MOL0     C84016   7.547   7.445   6.845 -0.1090  0.0287 -0.5867
  623MOL0     O84017   7.409   7.351   6.561 -1.2173  0.3464 -0.2603
  623MOL0     C84018   7.271   7.107   6.500 -0.3944 -0.3849 -0.5575
  623MOL0     C84019   7.202   6.986   6.492 -0.5459 -0.2398 -1.2198
  623MOL0     N84020   7.214   6.231   6.690  0.2604  0.5402 -1.1712
  623MOL0     N84021   7.295   6.136   6.709  0.4393  0.1731 -0.0723
  623MOL0     C84022   7.534   6.137   7.431  0.0983 -0.4372 -0.4927
  623MOL0     C84023   7.405   6.115   7.495  0.1495 -0.1703 -0.0748
  623MOL0     C84024   7.159   5.936   7.845  0.1372  0.5830  0.6012
  623MOL0     C84025   7.124   5.815   7.902 -0.0017 -0.2316  0.6328
  623MOL0     C84026   6.999   5.794   7.973 -0.3670  0.8683 -0.3148
  623MOL0     C84027   6.911   5.902   7.983  1.0941 -0.7155  0.3440
  623MOL0     O84028   6.787   5.899   8.036  0.1913 -0.3831  0.2776
  623MOL0     C84029   6.756   5.804   8.140  1.3894 -0.3815 -0.0916
  623MOL0     C84030   6.663   5.698   8.073 -0.0064  0.0070 -0.0433
  623MOL0     C84031   6.597   5.606   8.177  0.4162  0.6084  0.1931
  623MOL0     C84032   6.557   5.472   8.103  0.3069 -0.4989  0.1839
  623MOL0     C84033   6.499   5.372   8.200  0.9502 -0.2094 -1.2720
  623MOL0     C84034   6.458   5.293   8.285 -0.5961  0.3670  0.1517
  623MOL0     C84035   6.945   6.024   7.923  0.7521  0.4208 -0.0006
  623MOL0     C84036   7.063   6.043   7.853  0.4603 -0.6643 -0.0037
  623MOL0     C84037   7.077   6.185   7.805  0.1828  0.0219 -0.4075
  623MOL0     H84038   7.452   5.777   7.551  0.3133  1.3730  2.1889
  623MOL0     H84039   7.649   5.827   7.435  1.1320  0.9319  1.5746
  623MOL0     H84040   7.772   6.212   7.428  1.3028  2.3363 -0.2128
  623MOL0     H84041   7.901   6.151   7.325 -0.6859 -1.9161 -1.8181
  623MOL0     H84042   7.826   6.323   7.206 -1.0619  1.2461 -0.2249
  623MOL0     H84043   7.659   6.312   7.231  1.5857  1.6128  1.1675
  623MOL0     H84044   7.666   6.097   7.096  0.3005 -0.2119 -0.5218
  623MOL0     H84045   7.840   6.127   7.073  0.7603  1.9195  1.2219
  623MOL0     H84046   7.604   6.317   6.985 -0.1675 -1.6227 -0.4517
  623MOL0     H84047   7.766   6.370   6.996 -1.1863  1.0190 -0.2090
  623MOL0     H84048   7.741   6.336   6.781  0.5797  0.1576 -0.0530
  623MOL0     H84049   7.834   6.185   6.835 -1.4058 -3.5914 -4.1665
  623MOL0     H84050   7.642   6.051   6.827  1.0044  0.8283  1.7398
  623MOL0     H84051   7.538   6.207   6.813 -1.1279  0.9542 -3.4914
  623MOL0     H84052   7.715   6.088   6.598 -1.8300 -1.8009  1.5596
  623MOL0     H84053   7.627   6.241   6.588  0.8891 -1.4212 -2.2627
  623MOL0     H84054   7.529   6.023   6.484 -1.4796 -0.0819 -0.0156
  623MOL0     H84055   7.501   5.965   6.651 -0.4964  1.1081  1.8861
  623MOL0     H84056   7.430   6.269   6.453 -1.1842 -2.5717 -1.1385
  623MOL0     H84057   7.233   6.505   6.486 -0.5992  0.1457 -6.0167
  623MOL0     H84058   7.123   6.383   6.431 -3.2313  1.3078  0.4458
  623MOL0     H84059   6.991   6.396   6.624 -0.9515  0.3760 -2.7716
  623MOL0     H84060   7.084   6.513   6.701 -1.2210  3.7636 -1.2287
  623MOL0     H84061   6.923   6.646   6.619  0.9708 -0.8695  1.7161
  623MOL0     H84062   6.923   6.581   6.447  1.1805  1.2512 -2.6991
  623MOL0     H84063   7.020   6.804   6.475 -3.2350 -2.2695  0.3184
  623MOL0     H84064   7.126   6.684   6.389 -0.7465  1.9455 -1.4106
  623MOL0     H84065   7.394   6.801   6.701  2.1012  0.4309 -1.6207
  623MOL0     H84066   7.515   7.009   6.719  1.2732 -0.5523 -1.9064
  623MOL0     H84067   7.761   7.362   6.593  0.4089 -0.0949  0.1073
  623MOL0     H84068   7.838   7.586   6.634  0.4490 -1.1751  0.4243
  623MOL0     H84069   7.776   7.796   6.618  0.1141  0.3048 -0.4998
  623MOL0     H84070   7.652   7.862   6.715 -0.1742 -0.7081 -2.2513
  623MOL0     H84071   7.850   7.998   6.839 -0.2426  0.9890  0.5058
  623MOL0     H84072   7.957   7.912   6.723  1.0435  1.3129  2.6050
  623MOL0     H84073   7.942   8.144   6.668  0.6851  0.0613  2.0110
  623MOL0     H84074   7.867   8.039   6.548  1.5086 -1.7108  1.3853
  623MOL0     H84075   7.699   8.158   6.775  4.1877  1.6981  0.5451
  623MOL0     H84076   7.640   8.090   6.623  1.3547 -1.3465 -0.2782
  623MOL0     H84077   7.804   8.346   6.658  0.8837  1.0947  0.5487
  623MOL0     H84078   7.633   8.360   6.669  0.9671 -0.3159  1.8439
  623MOL0     H84079   7.730   8.423   6.437  1.3852 -0.4635 -0.7127
  623MOL0     H84080   7.788   8.257   6.413 -1.4384 -1.0573 -0.6785
  623MOL0     H84081   7.503   8.359   6.434 -1.0433 -0.6056  0.1281
  623MOL0     H84082   7.546   8.182   6.408  1.7897  0.0059 -0.6090
  623MOL0     H84083   7.681   8.295   6.218 -0.2529  0.7249 -1.3486
  623MOL0     H84084   7.508   8.277   6.198  1.4199 -2.0445  0.3403
  623MOL0     H84085   7.551   7.626   6.948  2.5778  1.3786  0.0372
  623MOL0     H84086   7.466   7.403   6.903 -1.5979 -0.1970 -2.6958
  623MOL0     H84087   7.230   7.190   6.444  1.6251 -0.7548 -2.7428
  623MOL0     H84088   7.109   6.971   6.438 -0.0829 -1.9147 -1.6153
  623MOL0     H84089   7.550   6.241   7.405 -0.0447 -0.5598 -1.0714
  623MOL0     H84090   7.342   6.202   7.508 -0.5426 -0.8196  1.0173
  623MOL0     H84091   7.195   5.732   7.904  1.9331  1.3560  1.9444
  623MOL0     H84092   6.970   5.704   8.027 -0.9426  2.2564  1.8107
  623MOL0     H84093   6.706   5.851   8.225 -0.6282  1.1220 -1.9779
  623MOL0     H84094   6.850   5.765   8.181  1.0877 -1.7791 -0.6842
  623MOL0     H84095   6.735   5.645   8.009  1.4928 -0.3150  1.8119
  623MOL0     H84096   6.585   5.725   8.001  0.6269  1.8640 -0.0898
  623MOL0     H84097   6.500   5.641   8.214  0.3297 -0.1041  0.6624
  623MOL0     H84098   6.673   5.596   8.255  1.8183  2.7233 -0.8076
  623MOL0     H84099   6.473   5.494   8.037  1.1874  1.8236 -0.2600
  623MOL0     H84100   6.644   5.433   8.050  1.1787  0.3496  0.9438
  623MOL0     H84101   6.443   5.211   8.353  0.5482 -0.8813 -1.0401
  623MOL0     H84102   6.874   6.106   7.926  1.0278  0.9504 -3.6649
  623MOL0     H84103   7.141   6.235   7.879  0.1456  0.1774 -0.4820
  623MOL0     H84104   7.128   6.179   7.709 -3.2146 -2.1793 -2.2852
  623MOL0     H84105   6.976   6.226   7.800  1.0596  3.0734  2.8981
  624MOL0     O84106   5.128   4.104   0.673  0.1438  0.7018 -0.2945
  624MOL0     C84107   5.072   4.019   0.603 -0.5231 -0.1509  0.0610
  624MOL0     O84108   5.129   3.952   0.498  0.2501  0.6613 -0.6908
  624MOL0     C84109   5.262   3.978   0.484  0.1528 -0.6358  1.3908
  624MOL0     C84110   5.302   4.059   0.374  0.1520  0.5560  0.2442
  624MOL0     C84111   5.431   4.107   0.366  0.1679  0.1526 -0.6671
  624MOL0     C84112   5.524   4.064   0.461 -0.0556  0.4178 -0.3252
  624MOL0     O84113   5.650   4.135   0.468 -0.0312 -0.3931  0.0460
  624MOL0     C84114   5.758   4.098   0.557 -0.2022 -0.3463 -0.2124
  624MOL0     C84115   5.836   3.980   0.484 -0.3044 -0.0853 -0.7065
  624MOL0     C84116   5.969   3.961   0.556  0.5019  0.1824 -0.0494
  624MOL0     C84117   5.965   3.953   0.707 -0.1939 -0.3889 -0.0352
  624MOL0     C84118   6.098   3.906   0.758 -0.0263  0.0991 -0.0566
  624MOL0     C84119   6.102   3.873   0.902  0.7299 -0.1233 -0.2312
  624MOL0     C84120   6.187   3.976   0.982  0.6020  0.7092  0.0777
  624MOL0     C84121   6.175   3.952   1.128 -0.8708 -0.2204 -0.5460
  624MOL0     N84122   6.222   3.817   1.163  0.2316  0.2455 -0.3089
  624MOL0     C84123   6.152   3.699   1.187 -0.1019 -1.2516 -0.3425
  624MOL0     C84124   6.247   3.610   1.221  0.1416 -1.1091 -0.1277
  624MOL0     C84125   6.219   3.469   1.271  0.1115  0.4598 -0.1075
  624MOL0     C84126   6.337   3.367   1.256 -0.0286 -0.3775  0.0944
  624MOL0     C84127   6.331   3.262   1.139 -0.0563  0.4955  0.3419
  624MOL0     C84128   6.432   3.150   1.177 -0.2807 -0.5290 -0.4624
  624MOL0     O84129   6.549   3.218   1.232 -0.0097  0.7141  0.8804
  624MOL0     C84130   6.663   3.135   1.242 -0.1620  0.3319 -0.5966
  624MOL0     C84131   6.761   3.200   1.312 -0.7176 -0.5838  0.1932
  624MOL0     C84132   6.885   3.142   1.338  0.4231 -0.5288 -0.1466
  624MOL0     C84133   6.915   3.014   1.273 -0.1568  0.3766  0.0640
  624MOL0     C84134   7.050   2.950   1.268 -1.0752  0.2627  0.1359
  624MOL0     O84135   7.070   2.852   1.173  0.5105  0.0623 -0.8326
  624MOL0     C84136   7.177   2.772   1.177  0.3855 -0.0163 -0.6980
  624MOL0     C84137   7.247   2.747   1.292 -1.0041 -0.4210  1.1745
  624MOL0     C84138   7.362   2.669   1.292 -0.6031 -0.1305  0.0027
  624MOL0     C84139   7.411   2.615   1.172  0.7715  0.8505  0.4049
  624MOL0     O84140   7.521   2.537   1.172 -0.2429 -1.2690 -0.2758
  624MOL0     C84141   7.586   2.491   1.052 -0.0735  0.1729 -0.0511
  624MOL0     C84142   7.698   2.411   1.099  0.5224  0.2576  0.4917
  624MOL0     C84143   7.788   2.365   0.980 -0.0181 -0.3430  0.6234
  624MOL0     C84144   7.864   2.477   0.916  0.6198  0.2047 -0.1495
  624MOL0     C84145   7.979   2.419   0.824 -0.4643 -0.2725 -0.1504
  624MOL0     C84146   8.043   2.514   0.732 -0.7314 -0.5077  0.3802
  624MOL0     C84147   8.145   2.595   0.814  0.0550 -0.1265 -0.3882
  624MOL0     C84148   8.245   2.658   0.718  0.2424 -0.1873  0.6163
  624MOL0    Cl84149   8.337   2.785   0.826 -0.4920 -0.8205 -0.2525
  624MOL0     C84150   7.324   2.629   1.059  0.0317 -0.0315  0.7977
  624MOL0     C84151   7.208   2.702   1.062  0.2827  0.2552  0.5278
  624MOL0     O84152   7.134   2.993   1.346  0.0579 -0.4331 -0.2560
  624MOL0     C84153   6.809   2.946   1.213  0.1092 -0.5760  0.0567
  624MOL0     C84154   6.684   3.001   1.199 -0.1382  0.0070 -0.2577
  624MOL0     N84155   6.372   3.670   1.199  0.1643 -0.4913  0.2586
  624MOL0     N84156   6.355   3.794   1.177 -0.0807  0.6181 -0.7434
  624MOL0     C84157   5.484   3.979   0.571 -0.4270 -0.0856  0.0975
  624MOL0     C84158   5.349   3.931   0.580  0.4040  0.4080  1.2540
  624MOL0     C84159   4.930   3.992   0.632  0.5652  0.8824  0.8146
  624MOL0     C84160   4.874   3.869   0.583 -0.3060  0.3692  0.3422
  624MOL0     C84161   4.739   3.847   0.599 -0.7522 -0.3847  0.6216
  624MOL0     C84162   4.661   3.932   0.674  0.2131 -0.4038 -1.0200
  624MOL0     O84163   4.529   3.913   0.724  1.1272  0.0991 -0.5673
  624MOL0     C84164   4.460   3.792   0.695 -0.5333  0.1167  0.1274
  624MOL0     C84165   4.324   3.790   0.762  0.4125  0.3931 -1.0458
  624MOL0     C84166   4.328   3.799   0.919  0.0222 -0.6295  0.1973
  624MOL0     C84167   4.192   3.769   0.979 -0.5356  0.2994 -1.0066
  624MOL0     C84168   4.156   3.629   0.974 -0.1288  0.6649  0.6939
  624MOL0     C84169   4.105   3.516   0.984  0.1014  0.7663 -0.1562
  624MOL0     C84170   4.720   4.040   0.740  0.4530  0.3289  0.0335
  624MOL0     C84171   4.847   4.072   0.704  0.7889 -0.5027  0.5218
  624MOL0     C84172   4.891   4.203   0.765  0.1775  0.1408  0.7481
  624MOL0     H84173   5.232   4.102   0.303  1.8897  1.1349 -1.2009
  624MOL0     H84174   5.451   4.187   0.295  4.4929  0.4506  0.6174
  624MOL0     H84175   5.822   4.186   0.566 -0.5618 -0.1915  1.0278
  624MOL0     H84176   5.726   4.072   0.658  2.3536 -2.4144  0.1409
  624MOL0     H84177   5.859   4.000   0.379  3.5051 -2.4298 -0.4877
  624MOL0     H84178   5.777   3.888   0.488  0.7608 -0.8698 -2.3353
  624MOL0     H84179   6.039   4.044   0.543  0.7960 -0.0424  0.0615
  624MOL0     H84180   6.013   3.874   0.505  3.0013  0.9276  0.6604
  624MOL0     H84181   5.952   4.053   0.750 -0.3678 -1.0518  1.5076
  624MOL0     H84182   5.880   3.889   0.732  0.0447 -1.5371 -1.9451
  624MOL0     H84183   6.128   3.814   0.706  1.8501  1.0109 -0.6660
  624MOL0     H84184   6.180   3.974   0.736  0.4297 -0.9244 -1.7464
  624MOL0     H84185   6.000   3.868   0.940  0.8927 -2.7459  0.0759
  624MOL0     H84186   6.149   3.775   0.920 -0.9273 -0.8350  0.4031
  624MOL0     H84187   6.147   4.075   0.958 -0.1659  0.8804  1.8967
  624MOL0     H84188   6.294   3.978   0.961  0.6194 -2.2616 -0.5994
  624MOL0     H84189   6.239   4.031   1.169 -1.0128 -0.5139  0.2626
  624MOL0     H84190   6.078   3.973   1.174 -0.0233  0.8478  0.8588
  624MOL0     H84191   6.044   3.697   1.183 -0.2798 -0.9057  2.5254
  624MOL0     H84192   6.177   3.480   1.372 -1.0581 -2.5918 -0.1497
  624MOL0     H84193   6.138   3.407   1.232  1.7672 -1.3099 -0.8766
  624MOL0     H84194   6.433   3.419   1.255  0.5533 -1.4312 -0.4301
  624MOL0     H84195   6.334   3.300   1.343  0.1864 -1.6242 -0.8357
  624MOL0     H84196   6.358   3.323   1.053 -3.0558  0.2979 -0.8765
  624MOL0     H84197   6.227   3.231   1.125 -0.4929  2.4541 -1.0880
  624MOL0     H84198   6.440   3.081   1.092 -1.3112 -0.4407 -0.6446
  624MOL0     H84199   6.368   3.094   1.246  2.3331 -2.2707  0.7296
  624MOL0     H84200   6.751   3.303   1.344 -3.0508 -0.9557  0.8828
  624MOL0     H84201   6.962   3.187   1.400 -0.8026  0.0806  0.9955
  624MOL0     H84202   7.222   2.785   1.390  1.3115  0.2553  1.5785
  624MOL0     H84203   7.426   2.651   1.378 -1.6537  0.7369  0.9787
  624MOL0     H84204   7.521   2.428   0.990 -0.7182  1.3835 -0.6406
  624MOL0     H84205   7.635   2.567   0.991  2.0837 -0.4769  0.7971
  624MOL0     H84206   7.753   2.475   1.169  1.3493 -1.0603  1.0875
  624MOL0     H84207   7.671   2.323   1.158 -1.7391 -0.3050 -1.2526
  624MOL0     H84208   7.857   2.296   1.030 -1.5296 -2.6169 -0.3077
  624MOL0     H84209   7.734   2.310   0.902  1.9139 -2.2246  0.5211
  624MOL0     H84210   7.917   2.543   0.986  0.9445 -2.8042  2.7218
  624MOL0     H84211   7.801   2.537   0.851  1.2125  0.5278 -0.4326
  624MOL0     H84212   7.936   2.348   0.753 -1.6271  0.2369  0.0120
  624MOL0     H84213   8.052   2.371   0.889 -1.7948  0.2846  1.8629
  624MOL0     H84214   8.091   2.458   0.652  0.0871  0.3936  0.2187
  624MOL0     H84215   7.976   2.578   0.674 -0.4706  0.1464  0.7852
  624MOL0     H84216   8.197   2.514   0.864  0.6771 -1.2408 -2.6938
  624MOL0     H84217   8.086   2.666   0.872 -1.6235 -1.5820 -0.2424
  624MOL0     H84218   8.311   2.579   0.681  1.4264  0.3393  1.5327
  624MOL0     H84219   8.192   2.714   0.640  1.7262  0.8162  0.2810
  624MOL0     H84220   7.352   2.594   0.960 -3.3255 -0.8437  0.0164
  624MOL0     H84221   7.161   2.721   0.966  1.1212 -1.4707 -0.2726
  624MOL0     H84222   6.829   2.848   1.171 -1.4937 -0.4804 -1.0040
  624MOL0     H84223   6.603   2.956   1.142  1.4895 -0.1706 -2.5700
  624MOL0     H84224   5.559   3.940   0.640  0.2594  2.7845  1.0913
  624MOL0     H84225   5.319   3.861   0.658 -0.4330 -0.3941  0.2473
  624MOL0     H84226   4.923   3.795   0.520  1.3940  3.7034 -2.6750
  624MOL0     H84227   4.693   3.763   0.549 -0.8617 -1.0006  1.7152
  624MOL0     H84228   4.503   3.697   0.730 -1.8512  0.2686  2.3119
  624MOL0     H84229   4.459   3.792   0.586 -0.4765 -0.5083  0.1200
  624MOL0     H84230   4.275   3.700   0.723 -5.0482  1.4649  2.1692
  624MOL0     H84231   4.272   3.882   0.732 -0.2306  0.4305  0.1164
  624MOL0     H84232   4.357   3.901   0.944  1.8608 -0.9507 -0.4716
  624MOL0     H84233   4.410   3.732   0.950 -0.0772  0.7323  3.8872
  624MOL0     H84234   4.184   3.809   1.080 -2.5443  1.6689 -1.6404
  624MOL0     H84235   4.114   3.827   0.928  0.1280  1.5316 -0.6628
  624MOL0     H84236   4.072   3.414   0.983  2.2997 -0.0121 -1.7172
  624MOL0     H84237   4.658   4.096   0.809 -1.3794 -0.4569 -0.9034
  624MOL0     H84238   4.961   4.171   0.843 -1.1300 -3.4523  0.6033
  624MOL0     H84239   4.921   4.275   0.689 -1.2573  0.1614  0.1852
  624MOL0     H84240   4.807   4.241   0.824 -2.2285 -1.8421 -1.1820
  625MOL0     O84241  10.800   0.247  10.699  1.2413  0.3964  1.0768
  625MOL0     C84242  10.830   0.357  10.657 -1.1674  0.4699 -0.4086
  625MOL0     O84243  10.756   0.451  10.594  0.3316  0.8565 -0.4455
  625MOL0     C84244  10.632   0.425  10.538  0.0327 -0.0974 -0.2443
  625MOL0     C84245  10.601   0.492  10.416  0.7477  0.9417 -0.0595
  625MOL0     C84246  10.475   0.482  10.365  0.0755  0.4884  0.5484
  625MOL0     C84247  10.377   0.418  10.424 -0.5768  0.0688 -0.7187
  625MOL0     O84248  10.252   0.419  10.381  0.0704 -0.0492  0.0192
  625MOL0     C84249  10.210   0.446  10.245  0.6815 -0.3748 -0.7299
  625MOL0     C84250  10.216   0.316  10.157  0.1726 -0.7865 -0.6039
  625MOL0     C84251  10.134   0.199  10.209 -0.3413  0.0004 -0.3431
  625MOL0     C84252   9.985   0.229  10.233 -0.2662  0.1367  0.4683
  625MOL0     C84253   9.889   0.114  10.296  0.2314  0.2226  0.1867
  625MOL0     C84254   9.944   0.037  10.428 -0.8687  0.9321  0.1633
  625MOL0     C84255   9.988   0.135  10.544  0.7148 -0.3592 -0.2145
  625MOL0     C84256   9.871   0.187  10.633 -0.2858  0.3711 -0.2052
  625MOL0     N84257   9.931   0.269  10.743  0.1402 -0.0835 -0.2091
  625MOL0     C84258  10.000   0.386  10.718 -0.3975  0.7683 -1.2586
  625MOL0     C84259  10.022   0.435  10.849 -0.7136 -1.3139  0.9535
  625MOL0     C84260  10.107   0.550  10.883 -1.0903  0.2822 -0.3841
  625MOL0     C84261  10.072   0.668  10.790 -0.1568 -0.6266 -0.1371
  625MOL0     C84262  10.169   0.778  10.816  0.0565 -0.0864  0.5477
  625MOL0     C84263  10.311   0.750  10.766  0.5938 -0.2032  0.4102
  625MOL0     O84264  10.382   0.876  10.764  0.4744  0.4730  0.0942
  625MOL0     C84265  10.503   0.873  10.708 -1.8850 -0.3701 -0.0118
  625MOL0     C84266  10.563   1.004  10.707 -0.7006  0.1887 -0.6883
  625MOL0     C84267  10.694   1.035  10.666 -0.0337 -0.1812  1.1200
  625MOL0     C84268  10.775   0.931  10.622  0.2583  0.8286 -0.4266
  625MOL0     C84269  10.916   0.940  10.584  0.3282 -0.7737  1.3019
  625MOL0     O84270  10.989   1.060  10.604 -0.3474  0.3516 -0.0081
  625MOL0     C84271  11.124   1.059  10.572 -0.0653  0.4821  0.3825
  625MOL0     C84272  11.220   1.051  10.666 -0.2371 -0.8713  0.2209
  625MOL0     C84273  11.360   1.029  10.642  0.3313 -0.3298  0.0736
  625MOL0     C84274  11.400   1.019  10.508 -0.8167  0.1070  0.5348
  625MOL0     O84275  11.532   1.014  10.468 -0.2872 -0.2846 -0.2414
  625MOL0     C84276  11.577   0.971  10.340 -0.2088 -0.0599 -1.0508
  625MOL0     C84277  11.722   0.929  10.349 -0.3579  0.5334  0.2911
  625MOL0     C84278  11.747   0.805  10.435 -0.1261 -0.0207 -0.3418
  625MOL0     C84279  11.880   0.741  10.411 -0.1324 -0.1824 -0.0543
  625MOL0     C84280  12.002   0.820  10.459 -0.3899  0.4036  0.0207
  625MOL0     C84281  12.128   0.727  10.465  0.0890  0.3217 -0.2867
  625MOL0     C84282  12.259   0.802  10.486 -0.2600  0.7545 -0.2887
  625MOL0     C84283  12.380   0.712  10.480  0.9801 -0.3033  0.0581
  625MOL0    Cl84284  12.518   0.799  10.541  0.3386 -0.3176 -0.4254
  625MOL0     C84285  11.307   1.013  10.407  0.8912 -0.2174 -0.2717
  625MOL0     C84286  11.167   1.038  10.438 -0.3068  0.3765 -0.2842
  625MOL0     O84287  10.970   0.839  10.531  0.3832 -0.0195 -0.3321
  625MOL0     C84288  10.708   0.804  10.606 -0.2352 -0.2980  0.2293
  625MOL0     C84289  10.586   0.770  10.653 -0.4400 -1.0055  0.4540
  625MOL0     N84290   9.953   0.358  10.935  0.4591  0.7610 -0.7922
  625MOL0     N84291   9.900   0.261  10.879  0.1646  0.0200  0.5596
  625MOL0     C84292  10.402   0.363  10.546  0.5378  0.8185  0.4188
  625MOL0     C84293  10.525   0.361  10.614 -0.4479 -0.6161  0.0521
  625MOL0     C84294  10.967   0.402  10.699 -0.1149 -0.0522 -0.1334
  625MOL0     C84295  10.988   0.543  10.728 -0.0196  0.0521 -0.2223
  625MOL0     C84296  11.120   0.585  10.775  0.8169 -0.6232  0.2965
  625MOL0     C84297  11.219   0.487  10.797  0.9992 -0.0936 -0.7867
  625MOL0     O84298  11.327   0.545  10.852 -0.1071  0.6716  0.3216
  625MOL0     C84299  11.438   0.466  10.898  0.2035  0.8062 -1.5431
  625MOL0     C84300  11.549   0.549  10.948 -0.5406  0.1621 -0.6027
  625MOL0     C84301  11.645   0.483  11.053  0.5463 -0.4141  0.6814
  625MOL0     C84302  11.717   0.599  11.113 -1.1271 -1.0162 -0.1898
  625MOL0     C84303  11.852   0.559  11.158 -0.8368  0.6230 -0.4068
  625MOL0     C84304  11.949   0.506  11.204  0.1440  0.7710  0.7171
  625MOL0     C84305  11.196   0.354  10.779 -0.4610 -0.1354  1.0564
  625MOL0     C84306  11.068   0.307  10.734 -1.0416 -0.6600 -1.0986
  625MOL0     C84307  11.069   0.159  10.703 -1.1492 -0.0562 -0.0204
  625MOL0     H84308  10.662   0.562  10.360 -1.6980  1.7385 -1.9465
  625MOL0     H84309  10.448   0.541  10.277  0.2611 -2.2133 -1.4564
  625MOL0     H84310  10.107   0.482  10.253  0.2777 -1.5429 -0.4196
  625MOL0     H84311  10.263   0.530  10.200 -1.2428  0.5491 -1.4085
  625MOL0     H84312  10.324   0.298  10.155  0.3549  0.2619 -2.1354
  625MOL0     H84313  10.188   0.341  10.055  0.2826  3.4768  0.2213
  625MOL0     H84314  10.172   0.167  10.306 -3.3683  0.2928  1.0306
  625MOL0     H84315  10.136   0.114  10.139  0.1119  0.5144 -0.9596
  625MOL0     H84316   9.987   0.314  10.301  0.5290  0.6767 -0.1997
  625MOL0     H84317   9.945   0.268  10.139 -0.4079 -1.3592 -0.1174
  625MOL0     H84318   9.784   0.132  10.324 -0.0667 -1.5633  0.3205
  625MOL0     H84319   9.880   0.032  10.225 -2.1234  1.3432 -0.9189
  625MOL0     H84320   9.878  -0.048  10.449  0.1883 -0.8012 -2.9490
  625MOL0     H84321  10.028  -0.018  10.386  0.7418  3.9453 -0.8661
  625MOL0     H84322  10.034   0.223  10.497  0.9500  0.5008  1.5160
  625MOL0     H84323  10.060   0.086  10.611 -0.4123 -0.8022  0.7170
  625MOL0     H84324   9.805   0.256  10.581 -0.5505 -0.4982 -1.0592
  625MOL0     H84325   9.814   0.099  10.664  0.2390  0.4473  1.0734
  625MOL0     H84326  10.027   0.429  10.622 -1.2952  0.2556 -1.7533
  625MOL0     H84327  10.100   0.580  10.988 -0.2785  0.0277 -0.2480
  625MOL0     H84328  10.213   0.534  10.859 -0.6644  3.0920 -0.7218
  625MOL0     H84329  10.074   0.642  10.684  3.9243 -0.0111 -0.3902
  625MOL0     H84330   9.976   0.698  10.832 -0.6276 -1.3601 -0.6720
  625MOL0     H84331  10.172   0.793  10.925  1.8285 -4.2026  1.2690
  625MOL0     H84332  10.134   0.871  10.771  2.2357  0.9521  0.8560
  625MOL0     H84333  10.294   0.709  10.666 -1.3928  1.2196  0.1105
  625MOL0     H84334  10.364   0.676  10.826 -0.5950 -1.0005  0.4929
  625MOL0     H84335  10.503   1.086  10.746  1.1332  2.3280 -2.0704
  625MOL0     H84336  10.728   1.137  10.679 -0.0253  0.3388 -2.1484
  625MOL0     H84337  11.185   1.063  10.768  2.8550  0.8392  1.2059
  625MOL0     H84338  11.428   1.025  10.726  1.3030 -3.8541 -0.7098
  625MOL0     H84339  11.518   0.896  10.286  0.3007 -2.3737  1.3829
  625MOL0     H84340  11.590   1.064  10.285  0.1921  1.4227  1.3993
  625MOL0     H84341  11.766   0.910  10.251  2.2067 -1.8491  1.7520
  625MOL0     H84342  11.775   1.011  10.400 -1.6803  0.7567  1.3915
  625MOL0     H84343  11.737   0.819  10.543  0.0411 -4.2534  0.4013
  625MOL0     H84344  11.675   0.727  10.411 -0.1849 -0.0432 -0.1025
  625MOL0     H84345  11.880   0.710  10.307 -2.6962  1.4669 -0.6345
  625MOL0     H84346  11.886   0.652  10.475  0.5134  1.0433  1.6842
  625MOL0     H84347  11.990   0.857  10.561  1.5500  1.4679 -0.0866
  625MOL0     H84348  12.012   0.907  10.393  5.7064 -0.3266 -0.6124
  625MOL0     H84349  12.117   0.655  10.547  0.3405  2.4740  1.7551
  625MOL0     H84350  12.147   0.675  10.371 -0.8108  0.4493 -0.5498
  625MOL0     H84351  12.264   0.847  10.586 -0.8955  0.7868 -0.2666
  625MOL0     H84352  12.268   0.882  10.413 -0.8918  0.8010 -0.3188
  625MOL0     H84353  12.383   0.618  10.535  1.6185 -1.3974 -1.7511
  625MOL0     H84354  12.397   0.687  10.375  1.2246  3.1902 -0.8765
  625MOL0     H84355  11.336   1.005  10.303  1.9534 -1.7840  0.1144
  625MOL0     H84356  11.098   1.033  10.354  2.7984 -0.0641 -3.0194
  625MOL0     H84357  10.768   0.726  10.562 -1.0650 -0.4912 -0.6084
  625MOL0     H84358  10.545   0.670  10.653 -1.3288 -0.6621  1.3304
  625MOL0     H84359  10.328   0.310  10.605  2.7487 -3.2219 -0.1032
  625MOL0     H84360  10.538   0.311  10.710 -3.2821  2.6101  2.3654
  625MOL0     H84361  10.908   0.616  10.717  0.2357  0.3471 -0.1568
  625MOL0     H84362  11.122   0.693  10.777 -0.5600 -0.5064 -1.5409
  625MOL0     H84363  11.473   0.400  10.818  1.2351 -0.8124  0.1500
  625MOL0     H84364  11.399   0.403  10.978 -0.5806 -3.4431 -4.8828
  625MOL0     H84365  11.497   0.634  10.994  0.6682  0.2678  0.6474
  625MOL0     H84366  11.603   0.597  10.865 -1.6551  1.7090 -0.4863
  625MOL0     H84367  11.713   0.418  10.996  1.5354 -0.7877  2.2234
  625MOL0     H84368  11.595   0.416  11.123  0.7123 -0.6815  0.5469
  625MOL0     H84369  11.734   0.683  11.044  3.0183  2.9029  4.7786
  625MOL0     H84370  11.671   0.640  11.203  1.7657 -0.5140  1.1940
  625MOL0     H84371  12.041   0.464  11.241  1.2441  0.7573 -1.8656
  625MOL0     H84372  11.272   0.276  10.779  1.8135  1.8297 -1.9379
  625MOL0     H84373  11.154   0.108  10.750  0.0574 -0.0314 -2.0901
  625MOL0     H84374  10.978   0.105  10.731 -1.8199  1.7396  1.4877
  625MOL0     H84375  11.086   0.138  10.597  0.2934  0.6273  0.0549
  626MOL0     O84376   5.353  10.363   2.834  0.0605 -0.2262 -0.8143
  626MOL0     C84377   5.274  10.271   2.843 -0.5311 -0.6976  0.0498
  626MOL0     O84378   5.307  10.143   2.847  0.5586 -0.1264  0.2338
  626MOL0     C84379   5.434  10.117   2.888 -0.2478 -0.4409 -0.0666
  626MOL0     C84380   5.526  10.092   2.781  0.1661  0.1600  0.4070
  626MOL0     C84381   5.655  10.076   2.809  0.2447  0.0160 -0.3739
  626MOL0     C84382   5.698  10.075   2.942  0.1624  0.0220 -0.3736
  626MOL0     O84383   5.826  10.058   2.973  0.0638 -0.5855  0.8407
  626MOL0     C84384   5.937  10.076   2.884  0.1949  0.6034  0.1383
  626MOL0     C84385   6.062  10.078   2.963  0.5068 -0.7765 -0.4059
  626MOL0     C84386   6.042  10.173   3.078 -0.3220 -0.4574 -0.1960
  626MOL0     C84387   6.175  10.209   3.153  0.6592 -0.4226  0.5023
  626MOL0     C84388   6.160  10.343   3.224 -0.2263 -0.0742  0.3763
  626MOL0     C84389   6.288  10.376   3.303 -0.2282  0.1446 -0.0853
  626MOL0     C84390   6.339  10.266   3.396  0.1609 -0.6622  0.9650
  626MOL0     C84391   6.489  10.249   3.405 -0.5703 -0.1471 -0.4919
  626MOL0     N84392   6.539  10.144   3.314  1.0075  0.2791  0.6899
  626MOL0     C84393   6.559  10.168   3.176 -0.6648  0.6185  0.2196
  626MOL0     C84394   6.558  10.045   3.130 -0.3383  0.0211 -0.5509
  626MOL0     C84395   6.533  10.019   2.985  0.1929  0.5416 -0.5803
  626MOL0     C84396   6.644  10.060   2.884  0.1309 -0.4290  0.3581
  626MOL0     C84397   6.791  10.013   2.903 -0.1016  0.0841  0.5813
  626MOL0     C84398   6.869  10.098   3.015 -0.2936 -0.3931  0.3833
  626MOL0     O84399   6.998  10.030   3.048  1.2153  0.7510  0.8740
  626MOL0     C84400   7.105  10.119   3.058 -0.1226  0.4001  1.1442
  626MOL0     C84401   7.221  10.078   2.992  0.1141 -0.3551  0.2921
  626MOL0     C84402   7.341  10.148   3.008 -0.1287  0.3809 -0.6868
  626MOL0     C84403   7.337  10.266   3.086 -0.4771  0.2521 -1.0184
  626MOL0     C84404   7.469  10.345   3.113  0.6853  1.0653 -0.6176
  626MOL0     O84405   7.591  10.287   3.082  0.6099 -0.0084 -0.6303
  626MOL0     C84406   7.715  10.347   3.111  0.2548 -0.9009  0.4135
  626MOL0     C84407   7.827  10.323   3.032 -0.2588  0.0357 -0.1702
  626MOL0     C84408   7.954  10.379   3.053 -0.8883 -0.4290 -0.5640
  626MOL0     C84409   7.979  10.443   3.178  0.4853  0.4351  0.7380
  626MOL0     O84410   8.107  10.478   3.210 -0.3632 -0.1039  0.0839
  626MOL0     C84411   8.126  10.518   3.349 -0.1926 -0.4116  0.0728
  626MOL0     C84412   8.272  10.507   3.374 -0.5318 -0.6369 -0.2161
  626MOL0     C84413   8.348  10.628   3.315  0.4511  0.1658  0.3766
  626MOL0     C84414   8.501  10.607   3.351 -0.3841 -0.1739 -0.1565
  626MOL0     C84415   8.581  10.722   3.310 -0.8496 -1.1357 -1.2096
  626MOL0     C84416   8.720  10.724   3.367  0.2083 -0.6926 -0.3675
  626MOL0     C84417   8.801  10.853   3.354  0.1713 -0.3481 -0.2500
  626MOL0     C84418   8.956  10.835   3.346  0.0203  0.2763 -0.3316
  626MOL0    Cl84419   8.991  10.752   3.198 -0.2396 -0.4429 -0.4632
  626MOL0     C84420   7.867  10.469   3.260 -0.2671  0.1976 -1.0356
  626MOL0     C84421   7.736  10.425   3.228 -0.3221 -0.4503  0.3262
  626MOL0     O84422   7.461  10.460   3.149 -0.4149  0.2808 -0.6349
  626MOL0     C84423   7.222  10.310   3.145 -0.0067 -0.2190 -0.3583
  626MOL0     C84424   7.105  10.240   3.133 -0.4505  0.4238 -0.7004
  626MOL0     N84425   6.538   9.956   3.230 -0.0016  0.2034  0.0979
  626MOL0     N84426   6.529  10.007   3.343 -0.0194  0.1600 -0.4693
  626MOL0     C84427   5.607  10.092   3.047  0.0842 -0.0916  0.0214
  626MOL0     C84428   5.472  10.107   3.024 -0.9128 -0.8586  0.2776
  626MOL0     C84429   5.135  10.313   2.829  0.0782 -0.3871 -0.6344
  626MOL0     C84430   5.040  10.216   2.837  0.6988  0.3408  0.7711
  626MOL0     C84431   4.901  10.240   2.811 -0.9195  0.4953 -0.1655
  626MOL0     C84432   4.852  10.365   2.806 -0.2317 -0.5509 -0.3168
  626MOL0     O84433   4.721  10.393   2.770  0.3937 -0.3630 -0.3064
  626MOL0     C84434   4.625  10.304   2.836 -0.3817  0.7687 -0.6363
  626MOL0     C84435   4.500  10.375   2.873 -0.3247 -0.4320  0.3775
  626MOL0     C84436   4.422  10.422   2.753  0.3671 -0.5241  0.3013
  626MOL0     C84437   4.313  10.522   2.789 -0.5561 -0.6164  0.0966
  626MOL0     C84438   4.365  10.656   2.817 -0.5126 -0.4429 -0.7110
  626MOL0     C84439   4.421  10.760   2.855  0.0448  0.9146 -0.1871
  626MOL0     C84440   4.941  10.467   2.806  0.1656  0.6807 -0.0573
  626MOL0     C84441   5.086  10.445   2.818  0.3347 -0.4226  0.3698
  626MOL0     C84442   5.171  10.571   2.784  0.4120 -0.3419  0.3202
  626MOL0     H84443   5.484  10.071   2.683 -1.3081 -0.4724  1.1465
  626MOL0     H84444   5.715  10.066   2.719  1.2727 -0.4866  0.3390
  626MOL0     H84445   5.935   9.989   2.817 -1.8931 -2.2149  3.5262
  626MOL0     H84446   5.925  10.162   2.818  1.4814  0.4967 -0.2625
  626MOL0     H84447   6.146  10.114   2.901  1.9240 -0.6472  1.5062
  626MOL0     H84448   6.102   9.985   3.003  0.3397 -0.3518  0.7748
  626MOL0     H84449   5.966  10.151   3.154 -0.9550 -1.2540 -1.0406
  626MOL0     H84450   6.016  10.272   3.041  2.1717  1.0393  1.6836
  626MOL0     H84451   6.202  10.117   3.205 -3.6578 -0.8379  2.4757
  626MOL0     H84452   6.254  10.238   3.084 -0.5955 -0.0312 -0.8136
  626MOL0     H84453   6.143  10.420   3.147  1.5680  1.5224  1.4695
  626MOL0     H84454   6.077  10.340   3.295  1.0311 -2.2929  1.8562
  626MOL0     H84455   6.369  10.388   3.231 -0.3243  0.7619 -0.0963
  626MOL0     H84456   6.272  10.477   3.343  1.9678  0.5544 -0.1438
  626MOL0     H84457   6.289  10.170   3.379 -2.1982  0.7698 -0.5835
  626MOL0     H84458   6.305  10.302   3.494 -1.0166 -1.7723  0.9899
  626MOL0     H84459   6.531  10.350   3.401 -2.5452  0.8992  2.2068
  626MOL0     H84460   6.509  10.212   3.506  0.0298 -0.2407 -0.6383
  626MOL0     H84461   6.560  10.254   3.110  1.2729 -1.1442 -2.2681
  626MOL0     H84462   6.521   9.913   2.960 -0.3405  0.5136 -0.2039
  626MOL0     H84463   6.446  10.081   2.964  0.5741  1.6346  0.9051
  626MOL0     H84464   6.610  10.023   2.787 -1.1259  4.1903 -1.1859
  626MOL0     H84465   6.650  10.169   2.885 -0.2665 -0.4086  0.8921
  626MOL0     H84466   6.847  10.014   2.809 -0.9690  2.4747  0.0254
  626MOL0     H84467   6.778   9.908   2.930  3.4587 -1.4739 -2.8556
  626MOL0     H84468   6.818  10.086   3.112 -0.4209 -1.3161  0.2079
  626MOL0     H84469   6.877  10.205   2.992 -0.7333 -0.9617 -2.8074
  626MOL0     H84470   7.212   9.987   2.935  0.5055  1.0386 -2.1326
  626MOL0     H84471   7.426  10.103   2.958  0.0032  0.2057 -0.3090
  626MOL0     H84472   7.828  10.261   2.943  0.0993  2.2421 -1.7947
  626MOL0     H84473   8.041  10.377   2.988 -0.6294  1.9125 -0.3555
  626MOL0     H84474   8.109  10.626   3.362  1.9164 -0.0280  0.1391
  626MOL0     H84475   8.086  10.446   3.420 -0.3442 -1.6574 -1.2414
  626MOL0     H84476   8.298  10.511   3.481 -1.1363  0.2576 -0.0871
  626MOL0     H84477   8.305  10.408   3.341  2.5544 -0.8726  2.9647
  626MOL0     H84478   8.329  10.622   3.208 -0.6509  0.1874  0.5572
  626MOL0     H84479   8.304  10.722   3.349  0.3051  0.3074 -0.1956
  626MOL0     H84480   8.555  10.525   3.303 -1.0615 -0.4823 -0.4022
  626MOL0     H84481   8.504  10.597   3.460  0.8444  1.1775 -0.0305
  626MOL0     H84482   8.530  10.815   3.335  0.4017 -0.7676  0.1207
  626MOL0     H84483   8.586  10.735   3.201 -0.2491  1.1336 -0.9584
  626MOL0     H84484   8.705  10.706   3.474  0.7400 -0.7592 -0.3056
  626MOL0     H84485   8.770  10.643   3.313 -0.8613  0.5295 -3.4502
  626MOL0     H84486   8.776  10.919   3.438  1.6315  3.3551 -2.4851
  626MOL0     H84487   8.774  10.908   3.263  0.0667 -0.5158 -0.3200
  626MOL0     H84488   9.008  10.932   3.348  1.6555 -0.4614  4.0527
  626MOL0     H84489   8.997  10.777   3.429 -1.6664  0.2311  0.4923
  626MOL0     H84490   7.873  10.526   3.353 -0.4782 -3.1960  1.2067
  626MOL0     H84491   7.656  10.458   3.294  0.5507 -1.6183  2.0435
  626MOL0     H84492   7.220  10.392   3.216  1.8561 -0.2978 -0.1552
  626MOL0     H84493   7.019  10.258   3.196  0.4666 -3.7455  2.1212
  626MOL0     H84494   5.657  10.116   3.140 -2.4182 -0.7388  1.6038
  626MOL0     H84495   5.403  10.118   3.107 -1.2603  0.0043 -0.1073
  626MOL0     H84496   5.052  10.108   2.845  0.6576  0.3224  0.5631
  626MOL0     H84497   4.840  10.151   2.806 -0.3498 -0.0675  1.9244
  626MOL0     H84498   4.662  10.266   2.932 -0.4835 -0.2957 -0.9987
  626MOL0     H84499   4.594  10.228   2.764  1.2286 -1.4944  0.9081
  626MOL0     H84500   4.542  10.460   2.928  3.5150 -0.9967 -1.3291
  626MOL0     H84501   4.443  10.312   2.942 -0.7563  0.8050  1.1844
  626MOL0     H84502   4.378  10.329   2.714 -0.3783  0.3329 -0.9511
  626MOL0     H84503   4.498  10.478   2.697  0.8533  2.4188  3.5834
  626MOL0     H84504   4.250  10.534   2.700 -1.6199 -2.1110  0.6155
  626MOL0     H84505   4.250  10.484   2.870  0.9761 -1.0429  1.1256
  626MOL0     H84506   4.451  10.857   2.890 -0.6636  0.6571  1.2138
  626MOL0     H84507   4.892  10.563   2.790 -0.9180  0.4039  1.4300
  626MOL0     H84508   5.253  10.543   2.717  0.5661 -2.5433  1.3319
  626MOL0     H84509   5.117  10.653   2.738 -0.1180  0.7102  2.6374
  626MOL0     H84510   5.206  10.617   2.878  0.2429 -1.6855  1.0726
  627MOL0     O84511   9.031   1.894   2.260  0.4560  0.8132  0.3442
  627MOL0     C84512   9.095   1.802   2.309 -0.6144 -0.7531  0.1439
  627MOL0     O84513   9.051   1.721   2.401  0.7104  0.4885 -0.4785
  627MOL0     C84514   8.912   1.704   2.383 -0.2373  1.0231 -0.2210
  627MOL0     C84515   8.857   1.625   2.276  0.2001 -0.6403  0.0149
  627MOL0     C84516   8.731   1.574   2.283  0.7845 -0.1982  1.0227
  627MOL0     C84517   8.643   1.611   2.386  0.3421  0.3047 -0.3203
  627MOL0     O84518   8.516   1.562   2.390  0.1512 -0.5376 -0.2344
  627MOL0     C84519   8.454   1.501   2.270 -0.8540  0.7143 -0.1360
  627MOL0     C84520   8.430   1.605   2.155  0.3092 -0.2471 -0.6719
  627MOL0     C84521   8.351   1.561   2.028  0.4918 -0.1083 -0.2565
  627MOL0     C84522   8.357   1.653   1.911 -0.1705  0.3940  0.6724
  627MOL0     C84523   8.252   1.630   1.794  0.6163  0.0655  1.6908
  627MOL0     C84524   8.294   1.507   1.691  0.6735 -0.4814 -0.0828
  627MOL0     C84525   8.415   1.540   1.601 -0.4580  0.0884 -0.4794
  627MOL0     C84526   8.380   1.634   1.488 -0.7656  0.3086 -0.0382
  627MOL0     N84527   8.507   1.677   1.416  1.1139  0.5309 -0.9497
  627MOL0     C84528   8.595   1.598   1.352 -0.0919 -0.4565 -1.5447
  627MOL0     C84529   8.699   1.667   1.339 -0.4803  0.3869 -0.0330
  627MOL0     C84530   8.817   1.610   1.276  0.1409  0.4564  1.4196
  627MOL0     C84531   8.915   1.724   1.249 -0.4550 -0.1425  0.6894
  627MOL0     C84532   9.026   1.676   1.161  0.3063 -0.6718  0.1797
  627MOL0     C84533   9.144   1.778   1.152  0.8744 -0.1057 -0.7499
  627MOL0     O84534   9.248   1.709   1.078  0.8077  0.0573 -0.2478
  627MOL0     C84535   9.362   1.777   1.048  0.1769  0.0501  0.4251
  627MOL0     C84536   9.468   1.706   1.005  0.6944 -0.0074  0.6750
  627MOL0     C84537   9.585   1.774   0.973 -0.1538 -0.7331 -0.0331
  627MOL0     C84538   9.606   1.904   1.009 -0.6475 -0.9715  0.6318
  627MOL0     C84539   9.737   1.969   0.999 -0.5850  0.6093 -0.2632
  627MOL0     O84540   9.751   2.097   1.052  0.0730  0.2992 -0.0324
  627MOL0     C84541   9.877   2.137   1.087 -0.6941 -0.2760 -0.4563
  627MOL0     C84542   9.946   2.230   1.021 -0.3558 -0.1615  0.6114
  627MOL0     C84543  10.071   2.279   1.058  0.3096  0.8967  0.0455
  627MOL0     C84544  10.127   2.218   1.180 -0.2102  0.4480  0.0840
  627MOL0     O84545  10.258   2.261   1.201  0.0207 -0.4121 -0.1724
  627MOL0     C84546  10.329   2.187   1.300 -0.3095  0.2927 -0.7843
  627MOL0     C84547  10.456   2.257   1.338 -0.4366  0.7742  0.1926
  627MOL0     C84548  10.558   2.244   1.226 -0.2411  0.1276 -0.1267
  627MOL0     C84549  10.691   2.301   1.265  0.9794  0.0882 -2.2325
  627MOL0     C84550  10.794   2.276   1.156 -0.0974  0.1908  0.2353
  627MOL0     C84551  10.913   2.195   1.213 -0.5806 -0.1533  0.1600
  627MOL0     C84552  11.027   2.215   1.120  0.1652  0.5086 -0.2405
  627MOL0     C84553  11.162   2.175   1.179  0.1337  0.9767  0.3422
  627MOL0    Cl84554  11.284   2.218   1.051  0.5042 -0.0870 -0.1229
  627MOL0     C84555  10.050   2.123   1.261 -0.3229 -0.3899 -0.0812
  627MOL0     C84556   9.926   2.086   1.209 -0.0257 -0.1213  0.1523
  627MOL0     O84557   9.819   1.908   0.938 -0.2101  0.1653 -0.4856
  627MOL0     C84558   9.495   1.983   1.050 -0.7346  0.3004 -0.4268
  627MOL0     C84559   9.369   1.924   1.069  0.2375 -0.0745  0.1654
  627MOL0     N84560   8.680   1.797   1.377 -0.0841 -0.1849 -0.2554
  627MOL0     N84561   8.568   1.798   1.438 -0.7929  0.0797  0.1797
  627MOL0     C84562   8.691   1.696   2.490 -0.1235  0.4121 -0.5679
  627MOL0     C84563   8.828   1.739   2.481 -0.8545 -0.1705 -0.6713
  627MOL0     C84564   9.230   1.790   2.251  1.0613 -0.1510 -0.0987
  627MOL0     C84565   9.324   1.730   2.334 -0.5953  0.4970 -0.0308
  627MOL0     C84566   9.460   1.746   2.303 -0.6562 -0.3338 -0.0559
  627MOL0     C84567   9.504   1.793   2.179  0.1232 -0.7384  0.9396
  627MOL0     O84568   9.635   1.800   2.151 -0.0501 -0.1890  0.3654
  627MOL0     C84569   9.684   1.924   2.108  0.2384  0.0960 -0.4413
  627MOL0     C84570   9.786   1.970   2.215 -1.2411 -0.9020  0.4882
  627MOL0     C84571   9.904   1.872   2.228 -0.4135 -0.8388  0.5947
  627MOL0     C84572  10.030   1.926   2.303  0.1327  0.5610  0.8725
  627MOL0     C84573  10.122   2.008   2.218  0.1227 -0.0459 -0.4500
  627MOL0     C84574  10.198   2.085   2.165  0.9425 -0.0182 -0.4021
  627MOL0     C84575   9.407   1.835   2.086  0.6785  0.1922  0.5532
  627MOL0     C84576   9.271   1.838   2.124 -0.4210 -0.0474 -0.4361
  627MOL0     C84577   9.186   1.893   2.020 -0.4313 -0.0750 -0.1329
  627MOL0     H84578   8.918   1.604   2.188 -0.0789 -2.5745  0.2360
  627MOL0     H84579   8.711   1.505   2.202 -0.5115  1.9710 -0.6045
  627MOL0     H84580   8.520   1.424   2.231 -0.8363  0.2485  0.8005
  627MOL0     H84581   8.361   1.445   2.282 -1.0592  1.2711  1.0985
  627MOL0     H84582   8.531   1.628   2.119  0.0555  0.1169 -1.1526
  627MOL0     H84583   8.377   1.694   2.189  3.0229  1.1355  0.1967
  627MOL0     H84584   8.247   1.555   2.063  1.2432  0.6308  2.3488
  627MOL0     H84585   8.388   1.462   2.001 -0.5546 -1.0760  1.6247
  627MOL0     H84586   8.343   1.754   1.949  0.6868  1.4129 -1.5580
  627MOL0     H84587   8.460   1.644   1.874  0.3638 -3.0186  2.5051
  627MOL0     H84588   8.154   1.603   1.835  1.0850 -1.7224  1.7179
  627MOL0     H84589   8.249   1.721   1.734  1.5255 -2.6059 -2.9111
  627MOL0     H84590   8.304   1.413   1.746 -0.6644  0.1687  1.3495
  627MOL0     H84591   8.211   1.503   1.620 -0.9587  1.4674  1.5714
  627MOL0     H84592   8.463   1.448   1.566  1.7197  0.1527  2.0065
  627MOL0     H84593   8.498   1.584   1.656  0.8993 -2.5294 -0.2647
  627MOL0     H84594   8.338   1.581   1.401 -4.3773 -1.4283  2.4975
  627MOL0     H84595   8.320   1.718   1.525 -0.4306 -0.5838  2.7135
  627MOL0     H84596   8.576   1.494   1.326  1.7157 -0.2946 -3.8874
  627MOL0     H84597   8.863   1.533   1.339 -0.1943 -1.3997 -0.5191
  627MOL0     H84598   8.781   1.574   1.179 -0.0681  1.5458  1.0818
  627MOL0     H84599   8.868   1.808   1.198 -1.0294 -1.4370 -0.9884
  627MOL0     H84600   8.963   1.762   1.340 -0.0623  2.0366 -0.3521
  627MOL0     H84601   8.981   1.675   1.062 -1.5985 -2.7898  0.9738
  627MOL0     H84602   9.062   1.577   1.190 -0.2448 -1.1322 -0.6630
  627MOL0     H84603   9.168   1.810   1.254 -2.3014  0.8348 -0.1841
  627MOL0     H84604   9.112   1.864   1.093 -1.3750  1.6351  2.6603
  627MOL0     H84605   9.466   1.598   0.994 -1.9930  0.0703 -0.3140
  627MOL0     H84606   9.674   1.719   0.943  0.9982  1.6982 -1.3276
  627MOL0     H84607   9.911   2.257   0.921  3.8469  0.7169 -0.8073
  627MOL0     H84608  10.126   2.356   1.004  3.7568 -1.2714  0.1642
  627MOL0     H84609  10.284   2.189   1.399  4.7751  0.2805  1.8466
  627MOL0     H84610  10.347   2.086   1.265 -0.8279  0.4201 -1.4393
  627MOL0     H84611  10.438   2.362   1.361 -1.2217  0.1059  2.9255
  627MOL0     H84612  10.497   2.220   1.432  0.4652 -1.1886 -0.9003
  627MOL0     H84613  10.564   2.141   1.189  0.4587  0.3476 -0.6513
  627MOL0     H84614  10.521   2.315   1.151 -2.7368 -2.0876 -1.1346
  627MOL0     H84615  10.716   2.259   1.363  0.1469  1.7414 -1.2690
  627MOL0     H84616  10.694   2.410   1.276  1.3196 -0.1479  1.7811
  627MOL0     H84617  10.838   2.371   1.124 -0.8525  0.6246  0.4712
  627MOL0     H84618  10.758   2.227   1.065  2.3753 -0.5182 -0.4489
  627MOL0     H84619  10.930   2.235   1.313 -0.1081 -1.6262  0.6814
  627MOL0     H84620  10.890   2.088   1.218 -1.9674  0.1769  3.3249
  627MOL0     H84621  11.034   2.319   1.089 -3.3153  0.8046 -0.4160
  627MOL0     H84622  10.999   2.155   1.033  0.2391  0.3536 -0.1575
  627MOL0     H84623  11.187   2.210   1.279  1.4044 -1.7111  1.0560
  627MOL0     H84624  11.172   2.066   1.187  3.2882  1.2939  2.1963
  627MOL0     H84625  10.094   2.099   1.357 -0.7728  4.1511  1.5164
  627MOL0     H84626   9.861   2.014   1.257  0.9747 -1.1366  0.0074
  627MOL0     H84627   9.521   2.084   1.080  2.6723 -0.2381 -1.1162
  627MOL0     H84628   9.289   1.979   1.118  1.1287 -1.0581  2.9202
  627MOL0     H84629   8.628   1.721   2.575  0.8271 -1.0408  0.6267
  627MOL0     H84630   8.857   1.793   2.571 -3.9824  0.4308  0.0998
  627MOL0     H84631   9.297   1.697   2.434  3.3921 -0.7613  0.8237
  627MOL0     H84632   9.530   1.724   2.383 -0.4002  2.1697  0.4793
  627MOL0     H84633   9.607   2.002   2.107 -2.4274 -2.2899  1.6988
  627MOL0     H84634   9.722   1.928   2.005 -1.3598  2.4480 -1.0240
  627MOL0     H84635   9.730   1.976   2.309 -2.1669  0.3344 -0.1213
  627MOL0     H84636   9.826   2.071   2.204 -3.0573  0.2381  3.2542
  627MOL0     H84637   9.923   1.843   2.124 -0.4870  1.7439 -0.1918
  627MOL0     H84638   9.873   1.780   2.278  0.1304 -1.5458 -0.3201
  627MOL0     H84639  10.002   1.994   2.384  0.3523  2.3557 -0.4945
  627MOL0     H84640  10.094   1.844   2.335 -0.3818 -1.2223 -2.3157
  627MOL0     H84641  10.271   2.142   2.111 -0.5219  0.6825 -1.7423
  627MOL0     H84642   9.438   1.888   1.996  0.6368 -3.0087 -1.5006
  627MOL0     H84643   9.245   1.940   1.941 -1.5792  1.5553 -0.0705
  627MOL0     H84644   9.127   1.812   1.978 -0.8245  0.1899 -0.1006
  627MOL0     H84645   9.111   1.964   2.059 -2.4666 -2.7794  1.2483
  628MOL0     O84646   4.650   8.733   1.019  0.2364  1.0950 -0.3403
  628MOL0     C84647   4.636   8.719   1.136  0.1013 -0.1131 -1.4288
  628MOL0     O84648   4.557   8.796   1.217 -0.2390  0.0990 -1.4385
  628MOL0     C84649   4.462   8.870   1.161 -0.1693 -0.2200 -0.6407
  628MOL0     C84650   4.424   8.995   1.226 -0.0032 -0.0148  1.4890
  628MOL0     C84651   4.313   9.064   1.171  1.3336 -0.7024 -0.2872
  628MOL0     C84652   4.241   9.026   1.065 -0.2349  0.4566  0.4354
  628MOL0     O84653   4.152   9.115   1.015  0.2444  0.0115  0.3271
  628MOL0     C84654   4.074   9.080   0.907  2.3302 -0.1377  0.3550
  628MOL0     C84655   3.950   9.169   0.906  0.5019 -0.6347  0.9695
  628MOL0     C84656   3.991   9.321   0.894  0.0036  0.3130  0.0762
  628MOL0     C84657   3.884   9.415   0.941  0.4675  0.9729 -0.8931
  628MOL0     C84658   3.862   9.419   1.095 -0.2890 -0.6045 -0.1014
  628MOL0     C84659   3.743   9.511   1.145 -1.1171 -0.0142  0.7482
  628MOL0     C84660   3.609   9.477   1.082  0.3936 -0.0639  0.1863
  628MOL0     C84661   3.489   9.536   1.147  0.3456  0.4624  0.5853
  628MOL0     N84662   3.486   9.678   1.117  0.3590 -0.5290  0.5328
  628MOL0     C84663   3.388   9.741   1.042  0.5228  0.1924 -0.7736
  628MOL0     C84664   3.392   9.863   1.079  0.2689  0.1499 -0.0284
  628MOL0     C84665   3.315   9.980   1.036 -0.5227 -0.5911  0.0339
  628MOL0     C84666   3.354  10.055   0.903 -0.6084 -0.0503  0.6483
  628MOL0     C84667   3.500  10.107   0.882  0.3896 -0.2876  0.1527
  628MOL0     C84668   3.546  10.194   0.997 -0.2631  0.8226  0.2126
  628MOL0     O84669   3.681  10.232   0.971  0.3824 -0.2614  0.2555
  628MOL0     C84670   3.785  10.152   0.968 -0.9305 -0.1478 -0.2263
  628MOL0     C84671   3.912  10.205   0.921  0.4247 -0.0606  0.5472
  628MOL0     C84672   4.032  10.135   0.909 -0.0244  0.7182  0.5502
  628MOL0     C84673   4.028  10.004   0.952 -0.2674 -0.5890 -0.7941
  628MOL0     C84674   4.150   9.921   0.951 -0.3562 -0.2458  1.7382
  628MOL0     O84675   4.157   9.819   1.044  0.1566  0.0672 -0.0872
  628MOL0     C84676   4.261   9.730   1.026  0.4485  0.0316 -1.0512
  628MOL0     C84677   4.391   9.763   1.054  0.4263  0.5332 -0.9811
  628MOL0     C84678   4.500   9.675   1.043 -0.9346  0.1588  1.2235
  628MOL0     C84679   4.487   9.547   1.010 -0.2546  0.7872 -0.2262
  628MOL0     O84680   4.585   9.456   1.021 -0.3886 -0.2505  0.3324
  628MOL0     C84681   4.635   9.424   1.150  0.0362  0.2254 -0.1389
  628MOL0     C84682   4.676   9.280   1.149  0.9125 -0.3546  0.4231
  628MOL0     C84683   4.739   9.226   1.273  0.2412 -0.1117  0.7983
  628MOL0     C84684   4.820   9.097   1.243 -0.1769 -0.2103 -0.0347
  628MOL0     C84685   4.909   9.075   1.364  0.0923 -0.1077 -0.9896
  628MOL0     C84686   4.990   8.938   1.346 -0.9828  0.5428  0.5207
  628MOL0     C84687   5.039   8.886   1.482  0.3101  0.3478 -0.5674
  628MOL0     C84688   5.136   8.773   1.471  0.8108 -0.2158  0.7107
  628MOL0    Cl84689   5.225   8.725   1.613  0.3059  0.2500  0.1509
  628MOL0     C84690   4.356   9.508   0.972 -0.2682 -0.4493 -1.0119
  628MOL0     C84691   4.239   9.599   0.990 -0.7092 -0.0481  0.2938
  628MOL0     O84692   4.243   9.954   0.876  0.3092 -1.0263  0.5531
  628MOL0     C84693   3.904   9.947   0.993  0.5529 -0.2475 -1.2976
  628MOL0     C84694   3.778  10.014   1.006 -1.7367  0.5547  0.3672
  628MOL0     N84695   3.494   9.874   1.171  0.7841  0.8210  0.0974
  628MOL0     N84696   3.548   9.764   1.205 -0.0213  0.0193 -0.1414
  628MOL0     C84697   4.286   8.910   1.000  0.5778  0.7975  0.1422
  628MOL0     C84698   4.385   8.833   1.055  0.7778 -0.8210  0.0418
  628MOL0     C84699   4.734   8.619   1.188  0.1484  0.2290 -0.9062
  628MOL0     C84700   4.778   8.515   1.103  0.7882  0.1180 -0.9467
  628MOL0     C84701   4.872   8.415   1.146 -0.0563  0.0026  0.2049
  628MOL0     C84702   4.920   8.410   1.275 -0.6261  0.5468  0.4883
  628MOL0     O84703   5.016   8.323   1.318  0.3942  0.0420  0.5011
  628MOL0     C84704   5.035   8.204   1.240  0.1711  0.2822 -0.2256
  628MOL0     C84705   5.085   8.093   1.342  0.0884  0.7328  0.9857
  628MOL0     C84706   5.131   7.969   1.260  0.3612  0.8090  0.4508
  628MOL0     C84707   5.195   7.868   1.332  0.4459  1.1894 -0.8142
  628MOL0     C84708   5.110   7.811   1.439  0.8436  0.0451 -0.3960
  628MOL0     C84709   5.034   7.776   1.532 -0.8641 -0.1472  0.3029
  628MOL0     C84710   4.860   8.506   1.361 -0.6019 -0.1087 -0.3936
  628MOL0     C84711   4.779   8.609   1.322  0.0147 -0.3618  0.3342
  628MOL0     C84712   4.722   8.675   1.431  0.3038  0.5007 -0.2140
  628MOL0     H84713   4.473   9.042   1.311  2.7618  3.5007 -1.7427
  628MOL0     H84714   4.289   9.156   1.224  3.0196 -1.6430  2.3184
  628MOL0     H84715   4.128   9.091   0.812 -0.6974  3.1110 -1.2169
  628MOL0     H84716   4.039   8.977   0.919  2.4485 -0.7550 -3.4327
  628MOL0     H84717   3.888   9.156   0.996 -1.6673 -0.2631 -0.3970
  628MOL0     H84718   3.889   9.141   0.820  1.4049 -3.3674  1.1444
  628MOL0     H84719   4.006   9.346   0.789 -2.0095 -1.5176 -0.7077
  628MOL0     H84720   4.088   9.340   0.942 -0.2484  0.4273  0.5452
  628MOL0     H84721   3.913   9.518   0.918 -2.1353  1.5407 -1.9263
  628MOL0     H84722   3.792   9.382   0.892  0.5083 -0.9153  0.2029
  628MOL0     H84723   3.835   9.323   1.139 -1.0630 -0.5493 -0.4465
  628MOL0     H84724   3.955   9.445   1.146 -1.5345 -1.0155  2.5959
  628MOL0     H84725   3.731   9.488   1.252 -3.6194 -3.1549 -0.0595
  628MOL0     H84726   3.760   9.618   1.132 -1.4620  0.1389  1.4894
  628MOL0     H84727   3.605   9.368   1.091  3.0109 -0.3625 -1.1151
  628MOL0     H84728   3.613   9.500   0.975 -0.3356 -1.2318 -0.1097
  628MOL0     H84729   3.396   9.485   1.118 -0.0400  1.3350  0.2804
  628MOL0     H84730   3.505   9.527   1.255 -0.0471  2.5498  0.8531
  628MOL0     H84731   3.327   9.681   0.976  0.9418 -1.2703  0.1141
  628MOL0     H84732   3.216   9.936   1.016 -0.6925  0.2979 -1.2094
  628MOL0     H84733   3.315  10.039   1.128 -0.3391 -0.0892 -0.2862
  628MOL0     H84734   3.333   9.977   0.829  0.7986 -0.0399  0.2091
  628MOL0     H84735   3.295  10.144   0.884 -0.7076 -0.0220  1.0687
  628MOL0     H84736   3.507  10.180   0.800  0.7652  2.8502  2.7571
  628MOL0     H84737   3.573  10.027   0.876 -0.0525 -0.5886 -1.6420
  628MOL0     H84738   3.557  10.140   1.091  3.6841 -0.5984 -0.8569
  628MOL0     H84739   3.484  10.281   1.021 -0.8835  0.4816 -0.1309
  628MOL0     H84740   3.921  10.312   0.904  0.6433  0.3744  2.9577
  628MOL0     H84741   4.125  10.171   0.868 -0.5935 -0.5099 -2.0791
  628MOL0     H84742   4.410   9.863   1.090 -0.1663  0.3237 -0.0527
  628MOL0     H84743   4.599   9.717   1.058 -1.4929  2.0309  0.1095
  628MOL0     H84744   4.714   9.485   1.194  3.7231 -2.9732 -1.7728
  628MOL0     H84745   4.549   9.434   1.217  0.5265  3.5230  0.1318
  628MOL0     H84746   4.582   9.227   1.133 -0.5082  2.3845 -1.1533
  628MOL0     H84747   4.740   9.265   1.062 -0.5792  2.0728 -1.2314
  628MOL0     H84748   4.800   9.308   1.313 -0.3260  1.3878 -1.2600
  628MOL0     H84749   4.666   9.220   1.354 -1.1542 -1.2684 -0.5048
  628MOL0     H84750   4.877   9.096   1.149  0.1313 -0.1376  0.1490
  628MOL0     H84751   4.752   9.012   1.251 -0.2992  0.0325  1.8219
  628MOL0     H84752   4.843   9.079   1.451 -0.4092  1.4705 -1.4158
  628MOL0     H84753   4.972   9.164   1.380 -0.4505  0.1810 -0.4226
  628MOL0     H84754   4.939   8.858   1.292 -1.6587  1.2018  0.1654
  628MOL0     H84755   5.077   8.960   1.283 -0.8581  0.7243  0.7574
  628MOL0     H84756   4.952   8.855   1.541  1.2671  0.3363  0.9078
  628MOL0     H84757   5.080   8.972   1.535  0.1453 -0.8380  1.6225
  628MOL0     H84758   5.083   8.690   1.424 -0.8264  1.4124 -0.4560
  628MOL0     H84759   5.209   8.816   1.401 -0.5760 -0.2278 -0.7828
  628MOL0     H84760   4.334   9.407   0.938  0.4364 -0.6343 -0.9349
  628MOL0     H84761   4.141   9.557   0.969  0.6629 -2.5661 -1.6824
  628MOL0     H84762   3.910   9.843   1.024 -0.1513  0.9344  3.7928
  628MOL0     H84763   3.686   9.975   1.047 -0.7790 -2.2264  0.0640
  628MOL0     H84764   4.248   8.881   0.903 -1.1286 -0.4379  1.1255
  628MOL0     H84765   4.408   8.741   1.002  3.1961  0.4667 -1.2930
  628MOL0     H84766   4.736   8.504   1.003  0.6280  0.7821 -0.9567
  628MOL0     H84767   4.911   8.347   1.071 -2.4279  0.1771 -1.2777
  628MOL0     H84768   5.107   8.221   1.160 -0.0012 -2.5672 -1.1070
  628MOL0     H84769   4.947   8.157   1.195  1.3501 -3.5133  0.9743
  628MOL0     H84770   5.012   8.061   1.417  0.0967 -0.2049  0.6032
  628MOL0     H84771   5.170   8.138   1.394 -0.4868  4.9204 -1.2904
  628MOL0     H84772   5.189   8.004   1.174 -0.8880  2.5337  0.2576
  628MOL0     H84773   5.044   7.928   1.208  0.9529  0.0628  0.0228
  628MOL0     H84774   5.210   7.785   1.262 -3.0546  0.4210 -0.8139
  628MOL0     H84775   5.289   7.903   1.378  0.3927  1.0376 -0.5846
  628MOL0     H84776   4.969   7.725   1.600  0.6061 -0.0856  1.8156
  628MOL0     H84777   4.887   8.503   1.466 -1.7029  0.3404 -0.0898
  628MOL0     H84778   4.759   8.629   1.523  1.1757 -1.2436 -1.4022
  628MOL0     H84779   4.755   8.780   1.429  0.7802  0.4715  2.5094
  628MOL0     H84780   4.613   8.670   1.430  0.3601 -1.4866 -1.5157
  629MOL0     O84781   8.095   1.063   8.718  0.7751 -0.5110 -0.3757
  629MOL0     C84782   8.191   1.001   8.765  0.0399  0.3018 -0.9741
  629MOL0     O84783   8.192   0.911   8.855 -0.2080  0.8161 -0.1635
  629MOL0     C84784   8.061   0.871   8.886  0.1857  0.6249 -0.2449
  629MOL0     C84785   8.025   0.738   8.879 -0.4144 -0.8578  0.2810
  629MOL0     C84786   7.894   0.703   8.915  0.2725 -0.4395  0.5076
  629MOL0     C84787   7.805   0.796   8.964  0.8046 -0.1046  0.1653
  629MOL0     O84788   7.679   0.762   8.973  0.5687 -0.1213 -0.2938
  629MOL0     C84789   7.612   0.784   9.098  0.4897  0.8052  0.1712
  629MOL0     C84790   7.471   0.736   9.083 -0.1612 -0.2805 -0.8917
  629MOL0     C84791   7.389   0.843   9.001  0.1520  0.4376 -0.3606
  629MOL0     C84792   7.261   0.781   8.943 -0.2004 -1.3649  0.2756
  629MOL0     C84793   7.159   0.770   9.052  0.2315  0.4457  0.0510
  629MOL0     C84794   7.039   0.714   8.967 -0.2481  0.6853 -0.9412
  629MOL0     C84795   6.927   0.679   9.069 -0.5540  0.3854 -0.8291
  629MOL0     C84796   6.795   0.608   9.014  0.5644  0.5567 -0.7926
  629MOL0     N84797   6.700   0.586   9.120  0.3423 -0.3623  0.0185
  629MOL0     C84798   6.656   0.465   9.177 -0.0274  0.1663  0.2877
  629MOL0     C84799   6.581   0.497   9.287 -0.0316 -0.2709  0.1327
  629MOL0     C84800   6.516   0.401   9.377 -0.0080 -0.3395 -0.9064
  629MOL0     C84801   6.534   0.428   9.526 -0.1624  0.0239  0.5655
  629MOL0     C84802   6.671   0.377   9.570  0.7921  0.5521 -0.9034
  629MOL0     C84803   6.787   0.458   9.528  0.2597 -0.0108  0.7144
  629MOL0     O84804   6.843   0.408   9.403  0.1347  0.0198 -0.4413
  629MOL0     C84805   6.971   0.431   9.375 -0.8145 -0.0279 -0.3238
  629MOL0     C84806   7.061   0.498   9.462 -1.0345 -0.5061 -0.2667
  629MOL0     C84807   7.200   0.510   9.437  1.1156  0.1873  0.2548
  629MOL0     C84808   7.252   0.446   9.329  0.2731  0.1553  0.3377
  629MOL0     C84809   7.400   0.430   9.312 -0.2889  0.8266  1.0891
  629MOL0     O84810   7.441   0.363   9.202 -0.1906 -0.5373  0.4242
  629MOL0     C84811   7.571   0.326   9.198 -0.7457  0.3323 -0.1801
  629MOL0     C84812   7.606   0.207   9.272 -0.0940 -0.2421  0.2650
  629MOL0     C84813   7.738   0.165   9.273  1.5772 -0.6573  0.3544
  629MOL0     C84814   7.837   0.217   9.200  0.9121 -0.3791  0.7823
  629MOL0     O84815   7.964   0.179   9.203  0.0698 -0.1729 -0.0106
  629MOL0     C84816   7.983   0.039   9.180 -1.1038 -0.2176  0.6789
  629MOL0     C84817   8.037  -0.010   9.314 -0.0570  0.5721 -0.2669
  629MOL0     C84818   8.057  -0.166   9.322 -0.8400 -0.1500 -0.0676
  629MOL0     C84819   8.125  -0.227   9.197  0.6320 -0.6065  0.0524
  629MOL0     C84820   8.124  -0.381   9.232  0.4710  0.2889 -0.8246
  629MOL0     C84821   8.189  -0.476   9.125  0.2017 -0.2777  0.2099
  629MOL0     C84822   8.103  -0.472   8.995 -0.0174 -0.4746  0.3432
  629MOL0     C84823   8.128  -0.579   8.889  0.2989  0.2711  0.2768
  629MOL0    Cl84824   8.293  -0.656   8.909  0.0968 -0.1244 -0.5856
  629MOL0     C84825   7.802   0.333   9.121  0.4243 -0.2443 -0.2400
  629MOL0     C84826   7.668   0.382   9.120  0.0954 -0.6851  0.1108
  629MOL0     O84827   7.469   0.476   9.399  0.2490  0.2155 -0.2637
  629MOL0     C84828   7.164   0.361   9.250 -0.0986 -0.8027  0.2220
  629MOL0     C84829   7.030   0.358   9.271  0.6768  0.6481 -0.1617
  629MOL0     N84830   6.588   0.641   9.296 -0.6374  0.7051  0.7224
  629MOL0     N84831   6.653   0.684   9.193 -0.8252 -0.1847 -0.2334
  629MOL0     C84832   7.843   0.926   8.971 -0.5360  0.2301 -0.0383
  629MOL0     C84833   7.976   0.960   8.947  0.1692 -0.2318  1.0611
  629MOL0     C84834   8.324   1.051   8.718  0.3907  1.0264 -0.1587
  629MOL0     C84835   8.431   0.962   8.737  0.2860 -0.7018  0.0167
  629MOL0     C84836   8.553   0.987   8.681 -0.7707  0.0766  0.3566
  629MOL0     C84837   8.577   1.099   8.603 -0.6386 -0.0364  0.0053
  629MOL0     O84838   8.702   1.127   8.562 -0.6960  0.0868  0.5210
  629MOL0     C84839   8.728   1.141   8.425 -0.0638  0.0245  0.7383
  629MOL0     C84840   8.743   1.005   8.349  0.5708 -0.7717 -0.1725
  629MOL0     C84841   8.835   0.904   8.423  0.1755 -1.1394 -0.4665
  629MOL0     C84842   8.949   0.971   8.499 -0.1679  0.3478 -0.8884
  629MOL0     C84843   9.030   1.040   8.401  0.7230 -0.3199 -0.3389
  629MOL0     C84844   9.105   1.103   8.332  0.1846  0.6878  0.0057
  629MOL0     C84845   8.471   1.186   8.586 -0.0147  0.4581  1.0654
  629MOL0     C84846   8.343   1.165   8.643 -0.3510 -0.2091  0.6037
  629MOL0     C84847   8.244   1.277   8.628  0.0444  0.5159 -0.0144
  629MOL0     H84848   8.082   0.660   8.830 -0.8953 -0.2737 -1.3007
  629MOL0     H84849   7.856   0.604   8.888  0.6182 -0.3634 -0.2985
  629MOL0     H84850   7.656   0.721   9.176  0.8945 -0.4500 -1.0246
  629MOL0     H84851   7.617   0.889   9.126  0.3364  1.9676 -3.5407
  629MOL0     H84852   7.433   0.720   9.185  4.2100  1.2142  1.2250
  629MOL0     H84853   7.468   0.633   9.047  2.1707 -1.9601  2.9732
  629MOL0     H84854   7.447   0.873   8.913  1.4826 -2.4137 -0.5835
  629MOL0     H84855   7.367   0.931   9.062 -0.0474  1.0097 -1.2457
  629MOL0     H84856   7.225   0.845   8.862 -3.2821  0.0947  2.6190
  629MOL0     H84857   7.280   0.686   8.891 -0.8072 -0.2361 -2.1411
  629MOL0     H84858   7.194   0.701   9.129  2.6497 -0.5014 -1.7744
  629MOL0     H84859   7.135   0.863   9.105  3.3080  0.1768  2.1711
  629MOL0     H84860   7.004   0.781   8.888 -1.5876  0.6383 -0.4261
  629MOL0     H84861   7.064   0.623   8.911 -2.8129 -1.8478  1.6148
  629MOL0     H84862   6.900   0.771   9.121 -0.3779  0.4052 -0.7709
  629MOL0     H84863   6.977   0.613   9.140 -1.0272  2.0185  1.0991
  629MOL0     H84864   6.742   0.658   8.931  1.9023  1.8595 -0.9137
  629MOL0     H84865   6.828   0.515   8.967 -0.1178  0.0637 -0.3219
  629MOL0     H84866   6.681   0.373   9.125  2.2387  0.7599  0.2104
  629MOL0     H84867   6.411   0.409   9.347 -0.5601  4.3621  1.3412
  629MOL0     H84868   6.560   0.303   9.358 -0.7433 -0.7668 -0.4352
  629MOL0     H84869   6.514   0.529   9.563 -2.7614 -0.5350  0.9084
  629MOL0     H84870   6.454   0.376   9.580 -1.7952  3.3893  1.6514
  629MOL0     H84871   6.682   0.275   9.532  1.6658  0.4455 -0.3711
  629MOL0     H84872   6.668   0.369   9.679 -0.7262 -0.1088 -0.9657
  629MOL0     H84873   6.851   0.445   9.616  0.8420 -2.3072  0.0145
  629MOL0     H84874   6.775   0.567   9.521 -1.7683 -0.2969 -4.3387
  629MOL0     H84875   7.030   0.535   9.560  3.3200 -0.8843  1.4906
  629MOL0     H84876   7.251   0.568   9.514  2.1113 -0.7644  0.3259
  629MOL0     H84877   7.532   0.155   9.332 -0.7126  2.9613  2.5992
  629MOL0     H84878   7.765   0.084   9.340 -0.8518 -3.0222 -1.3270
  629MOL0     H84879   7.888  -0.015   9.170 -0.6904 -1.3832  2.3919
  629MOL0     H84880   8.067   0.010   9.116 -1.6235  0.4270 -0.3033
  629MOL0     H84881   8.125   0.053   9.330 -1.2951  1.9576  1.5150
  629MOL0     H84882   7.956   0.028   9.378  0.3313 -0.0139  0.6000
  629MOL0     H84883   8.122  -0.190   9.406 -2.1242 -0.2725  0.9213
  629MOL0     H84884   7.955  -0.207   9.321 -1.2774  0.6304 -3.6743
  629MOL0     H84885   8.221  -0.179   9.177  1.8189 -2.7151  0.4237
  629MOL0     H84886   8.067  -0.214   9.105  1.5565 -1.0583 -0.6175
  629MOL0     H84887   8.018  -0.411   9.233  0.8645 -1.6430  3.2849
  629MOL0     H84888   8.163  -0.401   9.332  0.1112 -1.1796 -0.9485
  629MOL0     H84889   8.290  -0.442   9.102  0.2433 -1.3044 -1.2189
  629MOL0     H84890   8.198  -0.581   9.152  0.8352 -0.8772 -2.1344
  629MOL0     H84891   8.122  -0.376   8.946 -1.2346 -2.0102 -3.5501
  629MOL0     H84892   7.999  -0.482   9.027  0.2872  1.0256  1.9394
  629MOL0     H84893   8.058  -0.660   8.914  2.4110 -2.0653 -0.9419
  629MOL0     H84894   8.109  -0.545   8.786 -1.9071 -1.0023  0.1914
  629MOL0     H84895   7.873   0.383   9.056  2.5590  0.3057  2.3063
  629MOL0     H84896   7.641   0.459   9.048  1.5451  1.5440  1.7916
  629MOL0     H84897   7.191   0.304   9.161 -2.2329  1.1915 -1.8465
  629MOL0     H84898   6.964   0.301   9.206 -0.0557 -1.5608  2.3329
  629MOL0     H84899   7.776   1.012   8.977  0.5036  1.3013 -2.3752
  629MOL0     H84900   8.002   1.065   8.951  0.2880 -0.1482 -0.7986
  629MOL0     H84901   8.416   0.871   8.793  2.3377 -0.0369  1.7720
  629MOL0     H84902   8.628   0.911   8.696 -0.7564  0.2706  1.3577
  629MOL0     H84903   8.818   1.203   8.421  0.4659 -0.7373  0.6461
  629MOL0     H84904   8.642   1.188   8.376 -0.5699 -1.3021  0.3011
  629MOL0     H84905   8.772   1.021   8.245 -2.6005 -0.7619 -1.1512
  629MOL0     H84906   8.642   0.963   8.348 -0.7107  2.0865  0.0270
  629MOL0     H84907   8.870   0.853   8.332 -1.5089 -0.4442 -1.5528
  629MOL0     H84908   8.774   0.847   8.494  0.8162 -0.7069  0.4396
  629MOL0     H84909   8.914   1.044   8.572 -0.5249 -0.0104 -0.6979
  629MOL0     H84910   9.011   0.891   8.541 -0.8544 -2.2864 -4.3241
  629MOL0     H84911   9.164   1.164   8.268  0.0703 -0.3202 -1.0933
  629MOL0     H84912   8.485   1.275   8.525  1.4933 -0.2467  0.2982
  629MOL0     H84913   8.209   1.318   8.723 -0.0465  0.7568 -0.1508
  629MOL0     H84914   8.279   1.365   8.574  1.7955  0.6801  1.2819
  629MOL0     H84915   8.161   1.238   8.570  1.1165  2.0262 -2.7368
  630MOL0     O84916  10.761   1.103   7.020  0.2325 -0.3794 -0.0005
  630MOL0     C84917  10.754   1.134   7.135 -0.3025  0.7414 -0.1808
  630MOL0     O84918  10.859   1.120   7.227 -0.4529  0.2126 -0.1230
  630MOL0     C84919  10.969   1.043   7.188  1.3132  0.4856  1.0170
  630MOL0     C84920  10.955   0.910   7.119  0.1144  0.3467  0.3141
  630MOL0     C84921  11.065   0.840   7.082  0.0226 -0.4891  0.8190
  630MOL0     C84922  11.200   0.894   7.094  0.8308 -0.5400  0.0066
  630MOL0     O84923  11.320   0.844   7.044  0.4958  0.3422 -0.0031
  630MOL0     C84924  11.335   0.704   7.071 -0.6739 -0.7216 -0.4302
  630MOL0     C84925  11.485   0.692   7.041 -1.3189  0.3261 -0.0405
  630MOL0     C84926  11.549   0.554   7.087  0.7647  0.2366  0.5307
  630MOL0     C84927  11.705   0.555   7.100  0.2652 -0.1808  0.0641
  630MOL0     C84928  11.753   0.629   7.224  0.7435 -0.1861  0.8233
  630MOL0     C84929  11.891   0.586   7.262  0.5597  0.0326 -0.2646
  630MOL0     C84930  11.932   0.630   7.408  0.2782 -0.0624  0.6312
  630MOL0     C84931  11.867   0.550   7.515  0.3896  0.0241  0.1555
  630MOL0     N84932  11.926   0.573   7.643 -0.6286 -0.7292 -0.2306
  630MOL0     C84933  11.857   0.593   7.759  0.0020  0.2015  1.1784
  630MOL0     C84934  11.945   0.648   7.839 -1.2621 -0.0674 -0.2376
  630MOL0     C84935  11.919   0.697   7.982  0.3988  0.2321 -0.8817
  630MOL0     C84936  11.891   0.852   7.981 -1.1816 -0.1705  0.3188
  630MOL0     C84937  11.842   0.902   8.121 -0.0016  0.9468 -0.0120
  630MOL0     C84938  11.764   1.028   8.130  0.6765  0.4361 -0.6491
  630MOL0     O84939  11.694   1.071   8.010 -0.3013 -0.0860 -0.6462
  630MOL0     C84940  11.575   1.017   7.972 -0.6598 -0.7202 -0.1465
  630MOL0     C84941  11.538   1.049   7.841  0.0712 -0.0023  0.0899
  630MOL0     C84942  11.406   1.009   7.803  0.4480 -0.5485  0.5491
  630MOL0     C84943  11.318   0.942   7.884  0.9461  0.2124  1.4451
  630MOL0     C84944  11.178   0.908   7.847 -1.2333  0.0434  0.7360
  630MOL0     O84945  11.133   0.949   7.729  0.4603  0.1749 -0.1207
  630MOL0     C84946  11.001   0.967   7.714  0.9889  0.1731  0.3207
  630MOL0     C84947  10.952   0.948   7.585  0.4173  0.6750 -0.4417
  630MOL0     C84948  10.818   0.956   7.565 -0.7627  0.3039 -0.3758
  630MOL0     C84949  10.730   1.012   7.663  0.0662 -0.3992  0.5454
  630MOL0     O84950  10.598   1.020   7.621 -0.1764 -0.2466 -0.0714
  630MOL0     C84951  10.491   1.015   7.709 -0.0866  0.8217 -0.3306
  630MOL0     C84952  10.480   0.880   7.780 -0.2515 -0.2380  0.4562
  630MOL0     C84953  10.380   0.778   7.707 -0.0752  0.3633  0.1037
  630MOL0     C84954  10.407   0.638   7.763  0.1310 -0.2515 -0.6766
  630MOL0     C84955  10.344   0.527   7.683 -0.3208 -0.1901 -0.7651
  630MOL0     C84956  10.188   0.533   7.677 -1.4945 -0.0384  0.0324
  630MOL0     C84957  10.136   0.401   7.630  1.1563  0.5031 -0.7947
  630MOL0     C84958   9.983   0.413   7.628  0.2546  0.0469  0.6906
  630MOL0    Cl84959   9.908   0.266   7.594 -0.2708 -0.1267 -0.0716
  630MOL0     C84960  10.769   1.043   7.800  0.3329 -0.5197  0.3142
  630MOL0     C84961  10.907   1.016   7.818  0.4465 -0.2368 -0.6448
  630MOL0     O84962  11.110   0.851   7.931 -0.1392 -0.4913  0.3209
  630MOL0     C84963  11.368   0.908   8.010 -0.2467 -0.4881 -0.4982
  630MOL0     C84964  11.493   0.947   8.056  0.4236  0.5482 -0.5144
  630MOL0     N84965  12.067   0.649   7.774 -0.5006 -0.3863 -0.2444
  630MOL0     N84966  12.057   0.601   7.659  1.5356  0.5604  0.6803
  630MOL0     C84967  11.210   1.018   7.157  0.2783  0.4194  0.8907
  630MOL0     C84968  11.097   1.093   7.199 -0.1851  0.3698  0.2150
  630MOL0     C84969  10.631   1.192   7.181 -0.4003 -1.5008 -0.2522
  630MOL0     C84970  10.613   1.210   7.329 -0.0675  0.6001  0.3704
  630MOL0     C84971  10.491   1.249   7.375  1.1687  0.2463  0.4243
  630MOL0     C84972  10.384   1.279   7.287 -0.9696 -0.2330 -0.0812
  630MOL0     O84973  10.261   1.313   7.335  0.2272  0.2409  0.3704
  630MOL0     C84974  10.228   1.300   7.472  0.0858 -0.3876 -0.4488
  630MOL0     C84975  10.078   1.331   7.481 -0.5326 -0.0023 -0.3785
  630MOL0     C84976  10.034   1.301   7.622  0.3739  0.5341 -0.7416
  630MOL0     C84977   9.895   1.366   7.648  0.4740 -0.3267  0.2884
  630MOL0     C84978   9.829   1.310   7.767 -0.0777  0.3787  0.2935
  630MOL0     C84979   9.783   1.257   7.863 -0.8964 -0.8502  0.0735
  630MOL0     C84980  10.415   1.284   7.149 -0.3141  0.3516 -0.1618
  630MOL0     C84981  10.540   1.253   7.097 -0.4650 -1.3915  0.5155
  630MOL0     C84982  10.559   1.260   6.941 -0.4440  0.0283 -0.2824
  630MOL0     H84983  10.857   0.872   7.093  2.3716 -4.0369 -3.1560
  630MOL0     H84984  11.051   0.746   7.030  1.6266 -0.9991  1.2630
  630MOL0     H84985  11.313   0.671   7.173  1.7380 -3.1196 -0.5630
  630MOL0     H84986  11.267   0.644   7.010 -1.9861  0.6599 -0.3820
  630MOL0     H84987  11.543   0.770   7.091  0.5900 -0.7013 -0.5670
  630MOL0     H84988  11.506   0.706   6.935  2.1033  0.8880  0.6083
  630MOL0     H84989  11.522   0.482   7.009 -0.0820 -0.5296  1.4980
  630MOL0     H84990  11.504   0.517   7.179 -0.4116 -2.6814 -1.0833
  630MOL0     H84991  11.723   0.447   7.106 -2.0113 -0.5113  1.8666
  630MOL0     H84992  11.751   0.586   7.005  0.8330 -4.3787 -1.2856
  630MOL0     H84993  11.742   0.737   7.210 -0.1567 -0.3637  0.0423
  630MOL0     H84994  11.688   0.609   7.309 -1.5157 -0.1619 -0.8137
  630MOL0     H84995  11.897   0.477   7.270  1.6994 -0.0050 -1.3310
  630MOL0     H84996  11.959   0.618   7.182  2.3601 -0.8334  0.8361
  630MOL0     H84997  11.912   0.737   7.420  0.5337  0.0402  0.1759
  630MOL0     H84998  12.041   0.627   7.419  0.4522  1.3138 -0.4328
  630MOL0     H84999  11.758   0.558   7.525  0.6460  0.5873  4.5598
  630MOL0     H85000  11.885   0.444   7.494 -0.8147 -0.4515  1.3754
  630MOL0     H85001  11.750   0.579   7.770  0.1321 -3.0009 -0.2421
  630MOL0     H85002  11.829   0.645   8.016  0.3721  0.0035 -1.2980
  630MOL0     H85003  11.991   0.657   8.054  0.6619  0.8386 -0.7972
  630MOL0     H85004  11.984   0.906   7.963 -0.6126  0.0690  3.3944
  630MOL0     H85005  11.822   0.876   7.899  0.0460 -2.0388 -1.3636
  630MOL0     H85006  11.932   0.905   8.182  0.1361  0.7927 -0.2079
  630MOL0     H85007  11.779   0.833   8.179  0.4144  1.1163  0.6530
  630MOL0     H85008  11.830   1.105   8.171 -0.8566  1.4620 -0.0263
  630MOL0     H85009  11.698   1.022   8.217  3.3581 -0.9191  1.4559
  630MOL0     H85010  11.607   1.094   7.771 -0.5330 -1.5218 -1.5549
  630MOL0     H85011  11.373   1.038   7.704  2.2674 -3.8515 -1.1771
  630MOL0     H85012  11.026   0.943   7.506  1.6909 -0.6598  0.7641
  630MOL0     H85013  10.771   0.923   7.473 -2.1698  2.4329 -0.4978
  630MOL0     H85014  10.513   1.101   7.773  0.2930 -1.1618  2.3944
  630MOL0     H85015  10.400   1.032   7.651 -0.9393  1.4945  1.1594
  630MOL0     H85016  10.581   0.837   7.790  0.7067  1.7279 -0.3599
  630MOL0     H85017  10.441   0.904   7.879 -1.2216  0.9014 -0.1836
  630MOL0     H85018  10.274   0.799   7.725 -0.5351  0.8998 -2.8410
  630MOL0     H85019  10.401   0.770   7.600  0.0084 -6.1904  0.1560
  630MOL0     H85020  10.371   0.644   7.866  3.1245 -0.5759  0.5009
  630MOL0     H85021  10.516   0.624   7.769  0.2697  0.6846 -0.8487
  630MOL0     H85022  10.366   0.440   7.745 -0.2386  1.6065  1.8843
  630MOL0     H85023  10.380   0.505   7.582 -1.2845 -2.3744 -0.6985
  630MOL0     H85024  10.137   0.551   7.772 -2.6461 -0.5742 -0.4563
  630MOL0     H85025  10.163   0.608   7.602  0.7065 -0.8404 -1.6056
  630MOL0     H85026  10.169   0.322   7.697 -2.2639 -0.4512 -0.0296
  630MOL0     H85027  10.161   0.379   7.525  1.4830 -1.5368 -0.3289
  630MOL0     H85028   9.954   0.459   7.723  2.5789  1.9926  0.5518
  630MOL0     H85029   9.948   0.489   7.557  2.2809  0.6671  0.2966
  630MOL0     H85030  10.702   1.099   7.864  0.7472  1.9998 -1.2725
  630MOL0     H85031  10.941   1.039   7.918 -2.7689 -0.7390  0.6609
  630MOL0     H85032  11.300   0.867   8.084  0.8245 -1.4462 -0.0059
  630MOL0     H85033  11.514   0.928   8.161 -3.2534  1.7011  0.5538
  630MOL0     H85034  11.315   1.044   7.158  0.8762 -1.7344 -0.5396
  630MOL0     H85035  11.111   1.192   7.240 -1.9580  0.0449  1.7299
  630MOL0     H85036  10.690   1.176   7.397  1.5069  2.1393 -0.5608
  630MOL0     H85037  10.473   1.252   7.482 -2.2399  0.8260 -0.0482
  630MOL0     H85038  10.287   1.370   7.530  1.8284 -3.2393  1.4698
  630MOL0     H85039  10.261   1.202   7.509 -2.5831 -1.7228 -1.2862
  630MOL0     H85040  10.022   1.270   7.409 -0.5544 -0.4722  0.0305
  630MOL0     H85041  10.057   1.436   7.463 -1.6666  0.1113  1.4002
  630MOL0     H85042  10.106   1.353   7.687 -0.3167  1.0156 -0.3439
  630MOL0     H85043  10.029   1.196   7.652  1.3679  1.0537  1.4793
  630MOL0     H85044   9.901   1.475   7.653 -3.6413  0.0770  0.1706
  630MOL0     H85045   9.839   1.356   7.555  1.4950  1.7719 -0.6093
  630MOL0     H85046   9.743   1.216   7.954 -0.8049 -1.5473 -0.1957
  630MOL0     H85047  10.331   1.294   7.081 -0.2042  0.7093 -0.2454
  630MOL0     H85048  10.475   1.309   6.890  1.0472  2.5630 -0.4914
  630MOL0     H85049  10.655   1.307   6.916 -0.6319  2.3992  2.8984
  630MOL0     H85050  10.549   1.161   6.896  1.4625  0.7087 -2.4223
  631MOL0     O85051   2.259  10.998   3.079  0.4114 -0.5835 -0.0540
  631MOL0     C85052   2.361  11.058   3.101 -0.4780 -0.1825 -0.4754
  631MOL0     O85053   2.476  10.992   3.129 -0.0342  0.3298 -0.2697
  631MOL0     C85054   2.573  11.044   3.199  0.5324  0.3078 -0.4705
  631MOL0     C85055   2.558  11.143   3.300 -0.8996 -0.9668  0.1436
  631MOL0     C85056   2.669  11.194   3.361  0.0059 -0.5451 -0.2043
  631MOL0     C85057   2.792  11.133   3.341 -0.4156 -0.5029 -0.8098
  631MOL0     O85058   2.904  11.176   3.408 -0.3568  0.0499  0.2477
  631MOL0     C85059   2.915  11.148   3.546 -0.5959 -0.7735 -0.1887
  631MOL0     C85060   2.915  11.284   3.629 -0.7745  0.5891  0.7472
  631MOL0     C85061   2.999  11.271   3.757  0.0816  0.2440  1.4095
  631MOL0     C85062   3.001  11.409   3.819 -0.0238 -0.5282  0.6386
  631MOL0     C85063   3.073  11.423   3.953 -0.2266 -0.0965  0.5900
  631MOL0     C85064   3.086  11.559   4.013  2.0333  0.4793 -0.1715
  631MOL0     C85065   2.933  11.629   4.017  0.3920 -0.1950 -0.0852
  631MOL0     C85066   2.925  11.721   4.135  0.7100  0.1348 -0.1596
  631MOL0     N85067   3.000  11.845   4.115  0.4335 -0.0646 -0.5234
  631MOL0     C85068   2.945  11.955   4.051 -0.1402 -0.2270  0.5007
  631MOL0     C85069   3.039  12.048   4.070 -0.2999 -0.2563  0.9024
  631MOL0     C85070   3.017  12.192   4.026 -0.0158 -0.0786  0.5133
  631MOL0     C85071   3.016  12.202   3.874  0.2615 -0.5991  0.9191
  631MOL0     C85072   3.151  12.182   3.811  0.0405 -0.4242  0.1304
  631MOL0     C85073   3.269  12.276   3.856 -0.6670 -0.1262  0.7137
  631MOL0     O85074   3.361  12.281   3.749 -0.6559  0.0294  0.2258
  631MOL0     C85075   3.427  12.161   3.720 -0.1681 -0.1571  0.2091
  631MOL0     C85076   3.452  12.063   3.821 -0.1357 -0.2597  0.1106
  631MOL0     C85077   3.482  11.931   3.777  0.6773 -0.2712  0.4793
  631MOL0     C85078   3.481  11.896   3.635 -0.9668 -0.2086  0.0517
  631MOL0     C85079   3.477  11.760   3.580  0.9541 -0.3335 -0.2566
  631MOL0     O85080   3.448  11.649   3.650 -0.1196 -0.8434 -0.3468
  631MOL0     C85081   3.482  11.526   3.606 -0.4308 -0.2878  0.7013
  631MOL0     C85082   3.391  11.426   3.641 -0.1532  0.0505  1.1661
  631MOL0     C85083   3.411  11.287   3.616 -0.8492  0.0075  1.2276
  631MOL0     C85084   3.534  11.248   3.557  0.3841  0.7399 -0.8953
  631MOL0     O85085   3.539  11.110   3.531  0.8741  0.6443 -0.2881
  631MOL0     C85086   3.660  11.070   3.466 -0.0406  0.3058  0.3432
  631MOL0     C85087   3.776  11.052   3.571 -0.2408 -0.4888  0.2398
  631MOL0     C85088   3.851  10.923   3.554 -0.5556  0.4567  0.3485
  631MOL0     C85089   3.985  10.927   3.634  0.0414 -0.1470 -0.2615
  631MOL0     C85090   4.071  10.811   3.590 -0.2112  0.0721 -0.5643
  631MOL0     C85091   4.219  10.806   3.641  0.1994  0.8148  1.1944
  631MOL0     C85092   4.300  10.928   3.599  0.2998  0.2765 -0.0836
  631MOL0     C85093   4.457  10.914   3.628  1.1454 -0.2047  0.1000
  631MOL0    Cl85094   4.542  10.819   3.502 -0.2436  0.0765  0.2867
  631MOL0     C85095   3.628  11.351   3.527  0.4970  0.1584 -0.6122
  631MOL0     C85096   3.603  11.485   3.555 -0.3409  0.1570  0.0110
  631MOL0     O85097   3.488  11.756   3.458 -0.5649  0.1730 -0.2368
  631MOL0     C85098   3.461  12.002   3.547  0.3010 -0.4828  0.0788
  631MOL0     C85099   3.440  12.133   3.583  0.5631  1.0240 -0.2760
  631MOL0     N85100   3.148  12.004   4.145 -0.1304 -0.2591  0.2806
  631MOL0     N85101   3.118  11.879   4.170 -0.4338 -0.1005  0.4302
  631MOL0     C85102   2.810  11.040   3.242  0.3196  0.9716 -0.4134
  631MOL0     C85103   2.696  10.992   3.170  0.7265 -0.3575  0.3830
  631MOL0     C85104   2.344  11.206   3.095  0.4568 -0.4397  0.1602
  631MOL0     C85105   2.441  11.282   3.032 -0.1673  0.0788 -0.5181
  631MOL0     C85106   2.429  11.422   3.029  0.8337 -0.0217  0.6349
  631MOL0     C85107   2.319  11.487   3.090  0.8102 -0.6146  0.2345
  631MOL0     O85108   2.296  11.624   3.079 -0.2676 -0.2106 -0.6057
  631MOL0     C85109   2.387  11.711   3.009  0.2169 -0.2498  0.9840
  631MOL0     C85110   2.332  11.850   3.003  0.3650  0.1056  0.2025
  631MOL0     C85111   2.179  11.863   2.982  0.1692 -0.5848  0.2263
  631MOL0     C85112   2.129  11.779   2.859  1.0606 -0.2831  0.4134
  631MOL0     C85113   2.193  11.814   2.730 -0.3827  0.3773  0.6005
  631MOL0     C85114   2.259  11.837   2.624  0.2747  0.3019 -0.2209
  631MOL0     C85115   2.228  11.417   3.168 -0.3924 -0.3544  0.6821
  631MOL0     C85116   2.241  11.274   3.173 -0.2222  0.6076  0.4063
  631MOL0     C85117   2.147  11.199   3.258  0.0847  0.1053 -0.8177
  631MOL0     H85118   2.460  11.178   3.330 -1.8009 -2.4062 -1.0003
  631MOL0     H85119   2.657  11.272   3.435 -0.0803  1.3626 -2.1288
  631MOL0     H85120   2.844  11.076   3.588  1.5053 -2.3587  0.8110
  631MOL0     H85121   3.015  11.103   3.549 -0.8245 -1.2507  2.0143
  631MOL0     H85122   2.812  11.311   3.651 -0.1060  1.6996  2.8118
  631MOL0     H85123   2.948  11.369   3.569 -2.0146 -0.3369 -1.3352
  631MOL0     H85124   3.104  11.251   3.734  0.8425  2.3319  2.7224
  631MOL0     H85125   2.954  11.193   3.818 -1.4328 -2.2247 -2.4746
  631MOL0     H85126   3.064  11.465   3.749 -1.2167 -2.0912 -1.8501
  631MOL0     H85127   2.901  11.451   3.829  0.7935  2.8137 -2.8166
  631MOL0     H85128   3.029  11.351   4.022 -0.6581 -3.8144 -3.1557
  631MOL0     H85129   3.176  11.386   3.944  0.0138  0.0653  2.3075
  631MOL0     H85130   3.114  11.543   4.118  1.0632 -1.8147 -0.2077
  631MOL0     H85131   3.163  11.618   3.962  3.2227  0.9227  1.9700
  631MOL0     H85132   2.863  11.546   4.032  1.0487 -0.2510  3.5789
  631MOL0     H85133   2.929  11.686   3.924 -0.0715 -0.2247 -0.0848
  631MOL0     H85134   2.819  11.737   4.155  0.2785 -3.4060  0.9743
  631MOL0     H85135   2.961  11.676   4.228 -1.9229 -0.6932  0.5418
  631MOL0     H85136   2.848  11.974   4.007 -0.6843  1.7062  2.3296
  631MOL0     H85137   2.932  12.232   4.081 -0.0064  0.2562  0.2819
  631MOL0     H85138   3.108  12.244   4.058 -1.5900  1.0554  3.5620
  631MOL0     H85139   2.943  12.130   3.834  2.1292 -4.4711  3.8373
  631MOL0     H85140   2.972  12.299   3.851  1.2305 -0.5183 -0.7504
  631MOL0     H85141   3.139  12.194   3.703  0.5356  2.4198  0.3052
  631MOL0     H85142   3.175  12.078   3.832 -3.6361 -1.2070  1.1353
  631MOL0     H85143   3.299  12.252   3.959 -2.3363  1.3730  1.6219
  631MOL0     H85144   3.235  12.380   3.867 -0.3880  0.2097 -1.2986
  631MOL0     H85145   3.468  12.084   3.927  0.1707 -2.7203  0.6180
  631MOL0     H85146   3.497  11.868   3.864 -1.4191 -3.5979 -1.3857
  631MOL0     H85147   3.295  11.468   3.670 -0.9300 -1.0402  0.2582
  631MOL0     H85148   3.341  11.210   3.644 -2.1073  0.4695 -0.4778
  631MOL0     H85149   3.641  10.973   3.419 -4.2352  0.9660  0.2790
  631MOL0     H85150   3.688  11.150   3.396  0.6072  1.4058  1.7891
  631MOL0     H85151   3.851  11.131   3.573  3.7877 -3.5248 -4.9729
  631MOL0     H85152   3.716  11.045   3.663 -0.7461 -0.1131 -0.0547
  631MOL0     H85153   3.792  10.834   3.579  0.6815 -0.9470 -1.5082
  631MOL0     H85154   3.876  10.926   3.448  0.4553  1.2031  0.5899
  631MOL0     H85155   3.972  10.926   3.742 -1.5542  0.5043 -0.4146
  631MOL0     H85156   4.044  11.018   3.622  1.0408 -0.9215 -1.4285
  631MOL0     H85157   4.072  10.803   3.481  1.7544 -3.1218 -0.4497
  631MOL0     H85158   4.026  10.714   3.616  3.8155 -2.2250 -1.3287
  631MOL0     H85159   4.221  10.780   3.748 -1.4739  0.2956  1.1399
  631MOL0     H85160   4.255  10.716   3.589 -0.9832  0.7336  0.4801
  631MOL0     H85161   4.255  11.012   3.652 -1.2245 -0.1971 -0.5717
  631MOL0     H85162   4.297  10.946   3.491  5.1008  3.5436  0.0626
  631MOL0     H85163   4.488  11.019   3.627 -1.2048  0.5609 -2.1764
  631MOL0     H85164   4.492  10.869   3.721  1.8983  0.4487  0.1497
  631MOL0     H85165   3.726  11.337   3.483  0.4405 -1.2094 -0.3472
  631MOL0     H85166   3.670  11.567   3.532 -0.0462 -0.6518 -2.3117
  631MOL0     H85167   3.460  11.985   3.440 -1.0949 -3.0274  0.3972
  631MOL0     H85168   3.417  12.201   3.502  1.0915 -2.0247 -3.2028
  631MOL0     H85169   2.909  10.996   3.238  0.3587  0.4630  2.9117
  631MOL0     H85170   2.704  10.921   3.088 -0.5553 -0.8707  0.6766
  631MOL0     H85171   2.519  11.234   2.973  1.6468  2.8719 -0.5688
  631MOL0     H85172   2.504  11.479   2.974  1.5024 -0.2094  1.3277
  631MOL0     H85173   2.405  11.678   2.906 -0.5409  1.5813  0.2147
  631MOL0     H85174   2.486  11.710   3.054  0.2094  3.0519  1.2997
  631MOL0     H85175   2.376  11.908   2.922 -0.9865  0.6124 -0.1972
  631MOL0     H85176   2.364  11.906   3.091  1.1734  5.1173 -2.8639
  631MOL0     H85177   2.145  11.967   2.969 -0.1030 -0.7630 -0.5188
  631MOL0     H85178   2.123  11.828   3.069 -0.1159 -2.0430 -0.5084
  631MOL0     H85179   2.146  11.672   2.877 -0.0554 -0.1330  2.7170
  631MOL0     H85180   2.021  11.781   2.845  1.0737 -0.9852  0.1357
  631MOL0     H85181   2.320  11.848   2.537 -2.5986  1.0832 -2.2818
  631MOL0     H85182   2.162  11.478   3.229  0.1677  0.1241  0.8220
  631MOL0     H85183   2.121  11.265   3.342 -0.3139 -1.2735  0.1752
  631MOL0     H85184   2.060  11.165   3.202 -1.2276  2.3802 -0.2951
  631MOL0     H85185   2.196  11.113   3.305 -1.7150  0.6111  2.3274
  632MOL0     O85186   5.462  10.892   7.900 -0.0994  0.2169 -0.3045
  632MOL0     C85187   5.379  10.838   7.973  0.4235 -0.2177  0.7439
  632MOL0     O85188   5.298  10.908   8.059  0.2989 -0.9233  0.6323
  632MOL0     C85189   5.338  11.036   8.097  0.2431 -0.5586 -0.7634
  632MOL0     C85190   5.457  11.053   8.171 -0.2817 -0.1877 -0.0497
  632MOL0     C85191   5.482  11.172   8.247  0.8677  0.2961  0.0408
  632MOL0     C85192   5.393  11.279   8.249  0.1688 -0.5585 -0.4811
  632MOL0     O85193   5.423  11.383   8.331 -0.1252 -0.0990  0.0215
  632MOL0     C85194   5.358  11.502   8.322 -0.3953 -0.2453 -0.3411
  632MOL0     C85195   5.405  11.600   8.423 -0.4441  0.3045 -0.4707
  632MOL0     C85196   5.542  11.651   8.387 -0.6031 -0.5770 -0.2776
  632MOL0     C85197   5.563  11.787   8.458 -0.3877  0.0737  0.2844
  632MOL0     C85198   5.714  11.841   8.441  0.6987  0.7378 -0.4817
  632MOL0     C85199   5.799  11.776   8.548  0.6625  0.4995  0.4306
  632MOL0     C85200   5.941  11.824   8.547 -0.2202 -0.6245  0.3676
  632MOL0     C85201   5.948  11.969   8.611 -0.1873 -0.8007 -0.6012
  632MOL0     N85202   6.087  12.013   8.592  0.1636  0.2850 -0.3463
  632MOL0     C85203   6.142  12.123   8.533  1.1153  0.7327 -0.1336
  632MOL0     C85204   6.273  12.135   8.574  0.8654  0.4761  0.2665
  632MOL0     C85205   6.378  12.225   8.512 -0.9143 -0.4174 -1.1092
  632MOL0     C85206   6.477  12.142   8.434 -0.3605  0.0991  0.4854
  632MOL0     C85207   6.564  12.233   8.348 -0.8416 -0.3389  0.7648
  632MOL0     C85208   6.688  12.171   8.269 -0.5820  0.1328 -0.5409
  632MOL0     O85209   6.771  12.277   8.223  0.0737  0.1823  0.7874
  632MOL0     C85210   6.895  12.246   8.173 -0.5471  0.6421  0.8867
  632MOL0     C85211   6.985  12.169   8.248 -0.0252 -0.3943  0.5089
  632MOL0     C85212   7.113  12.150   8.200 -0.0738 -0.6802 -0.1219
  632MOL0     C85213   7.163  12.210   8.085  0.5923  0.2648  0.6790
  632MOL0     C85214   7.292  12.178   8.032 -0.0774  0.6457 -0.7290
  632MOL0     O85215   7.360  12.089   8.096  0.6084 -0.0073 -0.0158
  632MOL0     C85216   7.488  12.052   8.041  0.6051  0.0891 -0.5279
  632MOL0     C85217   7.499  11.946   7.952 -0.4912  0.3987  1.1011
  632MOL0     C85218   7.615  11.910   7.880 -0.5808 -0.0306 -0.0588
  632MOL0     C85219   7.726  11.985   7.901  0.3735  0.2774  0.2434
  632MOL0     O85220   7.844  11.967   7.834  0.2906 -0.0344  0.3130
  632MOL0     C85221   7.838  12.014   7.699 -0.6018 -0.5564  0.0335
  632MOL0     C85222   7.877  12.157   7.687 -0.6333 -0.4285 -0.0282
  632MOL0     C85223   7.826  12.217   7.551 -0.4785  0.2752 -0.5406
  632MOL0     C85224   7.888  12.355   7.529  0.1111 -0.1552  0.3539
  632MOL0     C85225   7.857  12.391   7.378  1.3887  0.3727 -0.0492
  632MOL0     C85226   7.958  12.310   7.286 -0.0971 -1.5456 -0.8050
  632MOL0     C85227   7.916  12.345   7.149 -0.4244  0.0015 -0.6895
  632MOL0     C85228   8.028  12.320   7.046  0.5304  0.0895 -0.6269
  632MOL0    Cl85229   7.960  12.330   6.886 -0.0536  0.0467 -0.1769
  632MOL0     C85230   7.726  12.095   7.999 -0.4302 -0.6575  0.3303
  632MOL0     C85231   7.602  12.122   8.061 -0.0334 -0.6002 -0.5200
  632MOL0     O85232   7.325  12.242   7.935 -0.6849  0.3302 -0.6160
  632MOL0     C85233   7.065  12.274   8.003  0.2143  0.8443  0.2488
  632MOL0     C85234   6.931  12.285   8.046 -0.2109 -0.2409 -0.0855
  632MOL0     N85235   6.294  12.038   8.672 -0.1286  1.0111 -0.0816
  632MOL0     N85236   6.179  11.980   8.684 -0.2623  0.7398 -0.4409
  632MOL0     C85237   5.279  11.266   8.177 -1.3750  0.2574 -0.6846
  632MOL0     C85238   5.250  11.145   8.107  0.1284  0.4381  0.6159
  632MOL0     C85239   5.344  10.696   7.935  0.2517  0.1356 -0.1725
  632MOL0     C85240   5.433  10.634   7.847  0.1902  0.4264 -0.1702
  632MOL0     C85241   5.419  10.499   7.810  0.5825 -1.0750  0.5777
  632MOL0     C85242   5.302  10.436   7.849  0.0217  0.6206  0.5932
  632MOL0     O85243   5.293  10.306   7.803  0.4173 -0.5924 -0.3546
  632MOL0     C85244   5.184  10.230   7.844 -0.0724 -1.1011  0.0134
  632MOL0     C85245   5.179  10.088   7.790  0.8836  0.1211  0.2972
  632MOL0     C85246   5.284   9.984   7.844 -0.7691 -1.0592 -0.4457
  632MOL0     C85247   5.298   9.857   7.754 -0.2097 -0.9135  1.1049
  632MOL0     C85248   5.341   9.741   7.831  0.2705 -0.3275 -0.0051
  632MOL0     C85249   5.376   9.657   7.904 -0.2969 -0.2452 -0.2932
  632MOL0     C85250   5.220  10.494   7.948 -0.5782 -0.9212 -0.2262
  632MOL0     C85251   5.235  10.626   7.991 -0.7423 -0.3701  0.4975
  632MOL0     C85252   5.128  10.684   8.085 -0.1072 -0.5676 -0.0571
  632MOL0     H85253   5.525  10.970   8.181  0.9836  0.5037 -2.2626
  632MOL0     H85254   5.571  11.161   8.307  2.3017  0.9691 -1.8517
  632MOL0     H85255   5.363  11.537   8.219  1.2340 -0.4761 -0.3614
  632MOL0     H85256   5.253  11.492   8.350 -1.3987  3.1460 -2.2954
  632MOL0     H85257   5.426  11.562   8.524 -1.8196  1.9459  0.4916
  632MOL0     H85258   5.334  11.680   8.445 -0.2240 -0.1739  2.4492
  632MOL0     H85259   5.557  11.663   8.279  0.9072 -2.3820 -0.3272
  632MOL0     H85260   5.626  11.590   8.421 -0.8795 -0.4349  0.6932
  632MOL0     H85261   5.492  11.863   8.425 -2.4523 -2.7005 -2.2216
  632MOL0     H85262   5.534  11.789   8.563 -2.7322 -1.7314 -0.2260
  632MOL0     H85263   5.766  11.819   8.348  1.6369  0.0556  0.1864
  632MOL0     H85264   5.706  11.950   8.453 -1.5413  0.5378  0.2795
  632MOL0     H85265   5.762  11.794   8.649 -0.6170 -1.1179  0.2876
  632MOL0     H85266   5.807  11.667   8.538 -1.9319  0.0099  2.5076
  632MOL0     H85267   5.986  11.822   8.447  0.7815  2.2508  0.6678
  632MOL0     H85268   5.999  11.763   8.617 -1.7002 -1.6553  0.7403
  632MOL0     H85269   5.878  12.041   8.566  0.5668 -1.1387 -2.3967
  632MOL0     H85270   5.935  11.969   8.720  0.6665  1.3120 -0.4525
  632MOL0     H85271   6.104  12.180   8.448  2.6458  0.1554 -1.2502
  632MOL0     H85272   6.331  12.303   8.451  0.6810 -0.1462 -2.0359
  632MOL0     H85273   6.432  12.268   8.596 -0.6341 -3.8752  0.6478
  632MOL0     H85274   6.540  12.079   8.498 -1.3066 -5.1024 -3.0687
  632MOL0     H85275   6.428  12.068   8.370 -1.9058  0.2116  1.4894
  632MOL0     H85276   6.605  12.314   8.410  2.5037 -0.3380 -1.1797
  632MOL0     H85277   6.499  12.275   8.271  0.7483 -0.7138 -0.8576
  632MOL0     H85278   6.661  12.114   8.179 -0.1753 -1.0247  0.0391
  632MOL0     H85279   6.732  12.088   8.325 -1.6728 -0.8914 -1.1572
  632MOL0     H85280   6.958  12.136   8.347  1.3114 -1.8221  0.4317
  632MOL0     H85281   7.183  12.097   8.263  1.6257 -0.3301 -1.6478
  632MOL0     H85282   7.415  11.880   7.932  0.5097  0.2281 -3.7678
  632MOL0     H85283   7.624  11.831   7.806 -0.5244 -0.6868  0.6349
  632MOL0     H85284   7.914  11.960   7.641 -0.7487  0.1697 -0.8521
  632MOL0     H85285   7.735  11.989   7.672 -1.9160 -1.2636  4.7759
  632MOL0     H85286   7.824  12.210   7.766 -1.5373 -1.0633 -0.1919
  632MOL0     H85287   7.986  12.159   7.689 -0.6319  0.1782 -0.2851
  632MOL0     H85288   7.844  12.146   7.471  0.9969 -2.9517  2.3913
  632MOL0     H85289   7.719  12.238   7.561 -0.1121  1.9598  0.2199
  632MOL0     H85290   7.995  12.351   7.549 -0.3207 -0.9477  3.0089
  632MOL0     H85291   7.833  12.423   7.596  3.7192  1.6824  1.6991
  632MOL0     H85292   7.882  12.497   7.363 -0.8513  0.7075 -1.9531
  632MOL0     H85293   7.750  12.377   7.360  1.4413  1.3355 -1.3081
  632MOL0     H85294   8.065  12.328   7.299 -0.3374  1.2783 -2.1580
  632MOL0     H85295   7.947  12.204   7.311 -1.6945 -0.6558  3.0908
  632MOL0     H85296   7.893  12.452   7.151  0.1792  0.1227 -0.2963
  632MOL0     H85297   7.826  12.284   7.132 -1.0396  0.6441  0.1854
  632MOL0     H85298   8.101  12.400   7.064 -1.5245  1.7357  0.8676
  632MOL0     H85299   8.073  12.220   7.055 -0.3383 -0.4773 -2.1762
  632MOL0     H85300   7.816  12.152   8.019 -0.8077 -0.5837  1.8866
  632MOL0     H85301   7.596  12.205   8.131  0.9743 -2.1937  1.5684
  632MOL0     H85302   7.100  12.338   7.923 -0.5314  2.2524  1.0165
  632MOL0     H85303   6.849  12.337   7.997 -1.9925 -2.1929  0.7131
  632MOL0     H85304   5.204  11.344   8.184  0.1584  1.8699 -1.3452
  632MOL0     H85305   5.147  11.134   8.074  0.3234 -0.7060  0.3299
  632MOL0     H85306   5.515  10.691   7.805 -1.5633  1.3287 -2.5790
  632MOL0     H85307   5.479  10.453   7.732  0.7174  0.8638 -0.5306
  632MOL0     H85308   5.097  10.285   7.810  1.8510  1.1819 -1.4659
  632MOL0     H85309   5.188  10.239   7.953  1.5159 -0.0890 -0.1029
  632MOL0     H85310   5.193  10.093   7.682  3.4638 -0.4124  0.5285
  632MOL0     H85311   5.080  10.046   7.808  0.6377 -0.0016 -1.2354
  632MOL0     H85312   5.237   9.940   7.932  1.2378 -1.5003  0.4624
  632MOL0     H85313   5.384  10.025   7.861 -0.2198 -2.4242 -0.2645
  632MOL0     H85314   5.202   9.823   7.712 -0.0400 -2.9023  2.1898
  632MOL0     H85315   5.375   9.884   7.682 -1.7808  0.4704 -0.1337
  632MOL0     H85316   5.416   9.576   7.962  0.7108 -0.3325 -1.0820
  632MOL0     H85317   5.134  10.447   7.995  0.6850 -1.4205  1.7121
  632MOL0     H85318   5.039  10.621   8.098 -0.1375 -0.5641 -0.2542
  632MOL0     H85319   5.152  10.702   8.190 -2.0711 -0.4427  0.4215
  632MOL0     H85320   5.106  10.786   8.052  2.1406  0.0904  0.3288
  633MOL0     O85321   1.671   1.205   6.581  0.3960 -0.3849 -1.1069
  633MOL0     C85322   1.698   1.122   6.662 -0.3989 -0.1487  0.5379
  633MOL0     O85323   1.815   1.112   6.726  0.0055  0.2689 -0.5767
  633MOL0     C85324   1.917   1.197   6.677  0.4974 -0.2398  0.9889
  633MOL0     C85325   1.975   1.174   6.551  0.0180  0.1532  1.1874
  633MOL0     C85326   2.076   1.262   6.505  1.1328 -0.3276  0.4793
  633MOL0     C85327   2.109   1.377   6.573 -0.2731 -0.6416 -0.2349
  633MOL0     O85328   2.191   1.469   6.529 -0.5639  0.3435  0.6963
  633MOL0     C85329   2.322   1.439   6.465  1.6396 -0.0071  0.5946
  633MOL0     C85330   2.442   1.413   6.563  0.4791 -0.0129 -0.1171
  633MOL0     C85331   2.568   1.416   6.481  1.5307  0.5622  0.4175
  633MOL0     C85332   2.687   1.456   6.580 -0.2302  0.4741 -0.4407
  633MOL0     C85333   2.814   1.474   6.501  0.5735 -0.6567  0.2243
  633MOL0     C85334   2.933   1.536   6.568 -1.1602  0.2476 -0.2159
  633MOL0     C85335   3.064   1.500   6.494 -0.3153 -0.3407 -0.9670
  633MOL0     C85336   3.172   1.586   6.539 -0.0486 -0.0048 -0.5140
  633MOL0     N85337   3.203   1.567   6.679  0.1658  0.0364  0.3447
  633MOL0     C85338   3.251   1.448   6.739  0.1071 -0.1666  0.2825
  633MOL0     C85339   3.266   1.483   6.868 -0.2249 -0.9733 -0.2772
  633MOL0     C85340   3.322   1.412   6.983 -0.0791  0.0900 -1.0443
  633MOL0     C85341   3.472   1.448   7.010  0.2115  0.0119 -0.0711
  633MOL0     C85342   3.515   1.394   7.144 -0.6678  0.6061  0.1481
  633MOL0     C85343   3.520   1.240   7.157  0.3875 -0.8252 -0.3235
  633MOL0     O85344   3.560   1.199   7.288 -0.1465 -0.3017 -1.1159
  633MOL0     C85345   3.459   1.173   7.380 -0.5086 -0.1702 -1.0370
  633MOL0     C85346   3.326   1.205   7.368  0.6147 -0.4267 -0.3661
  633MOL0     C85347   3.232   1.170   7.471  1.7462  0.4844 -0.6826
  633MOL0     C85348   3.264   1.107   7.595  0.4256  0.1705  0.2562
  633MOL0     C85349   3.170   1.081   7.707 -0.0325  0.0424  0.0670
  633MOL0     O85350   3.218   1.040   7.826  0.1895 -0.3089  0.1312
  633MOL0     C85351   3.124   1.022   7.931 -0.0932  0.0317 -0.0224
  633MOL0     C85352   2.995   0.977   7.919 -0.1967 -0.7920 -0.8257
  633MOL0     C85353   2.915   0.953   8.035  0.1949 -0.3828 -0.1537
  633MOL0     C85354   2.969   0.980   8.159  0.0109  0.8103 -0.5602
  633MOL0     O85355   2.886   0.960   8.266  0.2459 -0.1570 -0.6084
  633MOL0     C85356   2.948   0.919   8.397  0.5176 -0.6097  0.3214
  633MOL0     C85357   2.834   0.936   8.501  1.4311 -0.1796 -0.3282
  633MOL0     C85358   2.724   0.831   8.493 -0.6049 -0.7335 -1.0131
  633MOL0     C85359   2.777   0.690   8.502  0.1236  0.2439 -0.4233
  633MOL0     C85360   2.659   0.592   8.524  0.7204 -0.7583 -0.1572
  633MOL0     C85361   2.575   0.591   8.400  0.2124 -0.2367  0.2241
  633MOL0     C85362   2.453   0.493   8.423 -0.6940  0.3100 -0.1657
  633MOL0     C85363   2.382   0.467   8.288  0.7310 -0.7358 -0.3499
  633MOL0    Cl85364   2.299   0.308   8.295 -0.1177  0.0826  0.2574
  633MOL0     C85365   3.099   1.028   8.174 -0.1912 -1.4381  1.1774
  633MOL0     C85366   3.173   1.053   8.059 -1.0292 -0.7480 -0.3869
  633MOL0     O85367   3.059   1.108   7.680  0.8256  0.0826 -0.2186
  633MOL0     C85368   3.408   1.086   7.608 -0.4451  0.6059 -0.2263
  633MOL0     C85369   3.499   1.117   7.506 -0.5485  0.1240 -0.2071
  633MOL0     N85370   3.221   1.613   6.884 -0.3778 -0.0674 -0.7887
  633MOL0     N85371   3.189   1.660   6.773 -0.7627 -0.2576 -0.1721
  633MOL0     C85372   2.043   1.400   6.693  1.0272  1.2531  0.6513
  633MOL0     C85373   1.947   1.313   6.747 -0.1100 -0.3239 -0.3437
  633MOL0     C85374   1.605   1.023   6.696 -0.2938  0.4076  0.4141
  633MOL0     C85375   1.563   0.923   6.597 -0.3810 -0.9147 -0.1354
  633MOL0     C85376   1.495   0.802   6.640 -0.5160 -0.0883 -0.5551
  633MOL0     C85377   1.447   0.795   6.775 -0.5920 -0.0995  0.0746
  633MOL0     O85378   1.356   0.696   6.818 -0.3362 -0.9294  0.8381
  633MOL0     C85379   1.230   0.762   6.829  0.5835 -0.3114 -0.1010
  633MOL0     C85380   1.148   0.699   6.715  0.1935  0.1011  0.5131
  633MOL0     C85381   1.084   0.569   6.746 -0.3763 -0.6858  0.1461
  633MOL0     C85382   1.014   0.526   6.621  0.6862  0.0235  0.5947
  633MOL0     C85383   0.959   0.395   6.637  0.1394  0.3107  0.5776
  633MOL0     C85384   0.927   0.278   6.651  0.2643 -0.3622 -0.5388
  633MOL0     C85385   1.493   0.895   6.864  1.1610  0.0762 -0.1665
  633MOL0     C85386   1.564   1.006   6.829 -0.3253  0.7055  0.4416
  633MOL0     C85387   1.596   1.108   6.945  0.5274 -0.8935 -0.8012
  633MOL0     H85388   1.961   1.082   6.496 -0.7284  1.8009 -1.5626
  633MOL0     H85389   2.136   1.239   6.417  0.9955 -2.5727  0.9041
  633MOL0     H85390   2.318   1.358   6.391 -0.2980  1.5639 -1.1220
  633MOL0     H85391   2.341   1.524   6.400  0.7620 -2.1125 -2.6401
  633MOL0     H85392   2.441   1.325   6.628  0.3135  1.6740  2.3053
  633MOL0     H85393   2.440   1.499   6.631 -0.1962  0.5045 -0.7746
  633MOL0     H85394   2.553   1.488   6.400 -2.4333 -0.0221  0.4204
  633MOL0     H85395   2.575   1.313   6.444  0.6637 -0.3923  2.6854
  633MOL0     H85396   2.654   1.546   6.634 -1.7094  0.8448 -1.8718
  633MOL0     H85397   2.688   1.379   6.658 -1.4130  2.9425  2.1939
  633MOL0     H85398   2.840   1.372   6.473 -0.8937 -0.5540 -1.7195
  633MOL0     H85399   2.790   1.521   6.405 -1.5268 -2.3070 -0.1270
  633MOL0     H85400   2.933   1.645   6.582  4.0555  0.2477  2.3701
  633MOL0     H85401   2.933   1.503   6.672 -1.2791  0.9536  0.0157
  633MOL0     H85402   3.044   1.502   6.387 -2.1495 -2.9448 -0.7671
  633MOL0     H85403   3.083   1.400   6.534 -1.6006 -0.1374  0.2521
  633MOL0     H85404   3.255   1.568   6.470  0.3749  0.3302 -0.1078
  633MOL0     H85405   3.156   1.694   6.539  1.9446  0.3294 -0.0689
  633MOL0     H85406   3.266   1.347   6.700 -0.5104  0.1556 -0.8419
  633MOL0     H85407   3.262   1.429   7.073  1.7660 -0.1853  0.2852
  633MOL0     H85408   3.309   1.304   6.976  2.6348 -0.3280 -0.8272
  633MOL0     H85409   3.530   1.403   6.930 -2.4596 -0.9801 -1.5911
  633MOL0     H85410   3.481   1.557   7.010 -0.8079  0.1386 -2.2500
  633MOL0     H85411   3.462   1.451   7.222  0.2655  0.4048  0.9432
  633MOL0     H85412   3.617   1.422   7.171 -0.6109  0.0191  0.5530
  633MOL0     H85413   3.592   1.197   7.086 -0.0208 -1.4630 -0.3538
  633MOL0     H85414   3.424   1.196   7.130 -1.2962  2.6639 -0.6228
  633MOL0     H85415   3.278   1.240   7.277 -3.5643 -0.6112  1.5188
  633MOL0     H85416   3.129   1.180   7.440  0.6939  0.1075  2.3603
  633MOL0     H85417   2.962   0.957   7.817  0.0046 -0.7142 -0.9074
  633MOL0     H85418   2.815   0.912   8.020  0.0909 -0.0197 -0.4452
  633MOL0     H85419   2.987   0.817   8.401 -0.7137 -1.3701 -3.4580
  633MOL0     H85420   3.027   0.985   8.434  3.6756 -5.3016  3.0162
  633MOL0     H85421   2.878   0.932   8.601 -0.3909  2.4168  0.6836
  633MOL0     H85422   2.796   1.038   8.502 -1.4738 -1.1544  1.0783
  633MOL0     H85423   2.654   0.850   8.575 -0.3015  1.2365 -1.1766
  633MOL0     H85424   2.674   0.842   8.396  0.2977 -1.0479 -1.5301
  633MOL0     H85425   2.842   0.694   8.590 -0.7011  4.2232  0.1914
  633MOL0     H85426   2.830   0.656   8.412 -1.4156 -1.1217 -0.8842
  633MOL0     H85427   2.598   0.631   8.605  2.4399  2.1865 -0.1155
  633MOL0     H85428   2.682   0.491   8.558 -1.9955 -1.9438 -1.5488
  633MOL0     H85429   2.534   0.691   8.386  1.0660  0.1413  0.3320
  633MOL0     H85430   2.627   0.568   8.307 -1.2011  1.2933 -1.0030
  633MOL0     H85431   2.384   0.531   8.499 -1.5737 -1.9380  0.2600
  633MOL0     H85432   2.506   0.401   8.452  1.0888  0.6481 -2.1530
  633MOL0     H85433   2.304   0.540   8.267  1.4271 -0.2247 -1.2670
  633MOL0     H85434   2.455   0.465   8.206  1.8056 -2.3761  0.5841
  633MOL0     H85435   3.148   1.068   8.262  3.6195  1.4457 -1.9269
  633MOL0     H85436   3.270   1.100   8.077 -2.9983  2.7104  2.5299
  633MOL0     H85437   3.450   1.019   7.682  1.9098 -0.5928 -2.4743
  633MOL0     H85438   3.605   1.094   7.516 -1.0345 -4.2105 -2.4774
  633MOL0     H85439   2.071   1.489   6.750  2.4292  0.0647  1.8990
  633MOL0     H85440   1.890   1.343   6.834 -0.3471 -0.9823 -0.2682
  633MOL0     H85441   1.592   0.931   6.493  1.9857 -1.7021  0.3979
  633MOL0     H85442   1.462   0.728   6.568  0.5405 -0.1313 -1.0084
  633MOL0     H85443   1.242   0.871   6.834  0.4248 -0.3290  0.8428
  633MOL0     H85444   1.179   0.742   6.923  1.3687  0.6459  0.5528
  633MOL0     H85445   1.216   0.688   6.630 -0.4033 -3.1600  0.3341
  633MOL0     H85446   1.070   0.765   6.677 -0.2227 -0.9350 -0.4865
  633MOL0     H85447   1.024   0.590   6.835  3.8151  0.3293  3.0180
  633MOL0     H85448   1.169   0.506   6.774  1.9902  2.7707  1.3531
  633MOL0     H85449   0.930   0.596   6.612  2.3610  2.0629 -0.3445
  633MOL0     H85450   1.068   0.545   6.527 -1.6414  1.3328 -0.5727
  633MOL0     H85451   0.905   0.175   6.667 -0.5907 -0.1866 -0.5294
  633MOL0     H85452   1.465   0.874   6.967 -3.1341  1.3484 -0.9030
  633MOL0     H85453   1.511   1.110   7.015  3.4453  3.0611  3.2678
  633MOL0     H85454   1.678   1.075   7.009  0.0411 -0.6520 -0.0379
  633MOL0     H85455   1.624   1.209   6.913 -1.2810  0.2113  0.8417
  634MOL0     O85456   0.943   4.477   1.036 -0.0408 -0.3985  0.0784
  634MOL0     C85457   0.861   4.440   1.119 -0.6154 -0.0023  0.1709
  634MOL0     O85458   0.808   4.520   1.213  0.8891 -0.7997 -0.7117
  634MOL0     C85459   0.890   4.625   1.241  0.1594  0.0552 -0.4114
  634MOL0     C85460   0.883   4.748   1.176  0.8592  0.0992  0.0222
  634MOL0     C85461   0.960   4.862   1.219 -0.5592  0.3583 -0.1292
  634MOL0     C85462   1.053   4.845   1.322  0.0012 -0.0759  0.0584
  634MOL0     O85463   1.136   4.943   1.367 -0.4323 -0.7206 -0.1111
  634MOL0     C85464   1.153   5.051   1.277 -0.0896 -0.0623 -0.7105
  634MOL0     C85465   1.265   5.147   1.340 -0.1311 -0.4064  0.7147
  634MOL0     C85466   1.229   5.189   1.483 -0.3880  0.0661 -0.0987
  634MOL0     C85467   1.342   5.230   1.572 -0.5162  0.4053  0.0468
  634MOL0     C85468   1.428   5.104   1.596  0.5629 -0.4791  0.2970
  634MOL0     C85469   1.353   4.990   1.669  1.0919  0.0810 -0.3312
  634MOL0     C85470   1.448   4.870   1.709 -0.1740  0.4793 -0.5585
  634MOL0     C85471   1.357   4.759   1.748  0.1294  0.1580 -0.1679
  634MOL0     N85472   1.416   4.666   1.845 -0.2674 -0.1613  0.6226
  634MOL0     C85473   1.407   4.659   1.988  0.6613 -0.3668 -0.2067
  634MOL0     C85474   1.505   4.570   2.024 -0.0714 -0.3244  0.8681
  634MOL0     C85475   1.542   4.511   2.164  0.5018  0.0605  0.1591
  634MOL0     C85476   1.619   4.605   2.251 -0.2334  0.3333 -0.0836
  634MOL0     C85477   1.765   4.576   2.219  0.9232 -0.1771 -0.1796
  634MOL0     C85478   1.854   4.673   2.298 -0.3275 -0.0233 -0.4036
  634MOL0     O85479   1.984   4.627   2.294  0.1783  0.5434 -0.3606
  634MOL0     C85480   2.083   4.720   2.299 -1.2350  0.5845  0.2260
  634MOL0     C85481   2.140   4.751   2.174  0.5801  0.2314 -0.5215
  634MOL0     C85482   2.230   4.854   2.158 -0.2003  0.6222 -0.4468
  634MOL0     C85483   2.271   4.922   2.277  1.1781 -0.7704 -0.2808
  634MOL0     C85484   2.363   5.034   2.272  0.1745  0.6947  0.2411
  634MOL0     O85485   2.364   5.126   2.376  1.3346 -0.4154  0.5382
  634MOL0     C85486   2.472   5.212   2.378  0.1192 -0.0722 -0.6776
  634MOL0     C85487   2.501   5.305   2.273  0.2578  0.5465  0.3517
  634MOL0     C85488   2.604   5.399   2.294  0.5326 -0.3335  0.6022
  634MOL0     C85489   2.681   5.400   2.413 -0.5975 -0.2386 -0.6587
  634MOL0     O85490   2.793   5.484   2.427  0.1619  0.6194 -0.2555
  634MOL0     C85491   2.859   5.473   2.551 -0.0859 -0.7033 -0.0916
  634MOL0     C85492   2.970   5.567   2.542 -0.5466 -0.6126  0.2664
  634MOL0     C85493   2.942   5.695   2.468 -0.2594 -0.1305  1.1026
  634MOL0     C85494   3.074   5.778   2.441 -1.0338 -0.6590  1.2979
  634MOL0     C85495   3.051   5.903   2.349  0.1923  0.5150 -0.0686
  634MOL0     C85496   2.965   6.003   2.395  0.2739  0.1194  0.5333
  634MOL0     C85497   2.925   6.101   2.269 -0.7408 -0.1950 -0.2993
  634MOL0     C85498   2.821   6.211   2.285 -0.3052  0.0450  0.1774
  634MOL0    Cl85499   2.663   6.135   2.235  0.2760 -0.0302  0.4377
  634MOL0     C85500   2.643   5.311   2.515  0.0042  0.7938 -0.6938
  634MOL0     C85501   2.538   5.222   2.502  0.1852 -0.0334 -1.0020
  634MOL0     O85502   2.450   5.021   2.187  0.1448 -0.0375 -0.5681
  634MOL0     C85503   2.220   4.889   2.401  0.2831 -1.0469 -0.3651
  634MOL0     C85504   2.118   4.796   2.413 -0.6414  0.2799 -0.1709
  634MOL0     N85505   1.561   4.519   1.912  0.8494  0.7029 -0.5914
  634MOL0     N85506   1.520   4.582   1.805  0.1335  0.3545 -0.1039
  634MOL0     C85507   1.060   4.728   1.391 -0.8958 -0.4313  0.1528
  634MOL0     C85508   0.980   4.623   1.349 -0.2837 -0.1710 -0.6108
  634MOL0     C85509   0.826   4.297   1.115  0.0764  0.0850  0.0808
  634MOL0     C85510   0.709   4.247   1.181  0.0865  0.3473  0.4516
  634MOL0     C85511   0.675   4.106   1.175  0.1579  0.0867 -1.0405
  634MOL0     C85512   0.753   4.014   1.113  0.8610 -0.0453 -0.1486
  634MOL0     O85513   0.698   3.889   1.117  0.2892  0.2624 -0.2950
  634MOL0     C85514   0.787   3.772   1.101  0.5812  0.0524 -0.3915
  634MOL0     C85515   0.780   3.710   0.955  0.6178  0.3327 -1.4323
  634MOL0     C85516   0.647   3.627   0.942 -0.4697 -0.0246 -0.3570
  634MOL0     C85517   0.633   3.501   1.036 -0.7342  0.5377  0.4936
  634MOL0     C85518   0.530   3.415   0.986  0.0574 -0.1701 -0.1490
  634MOL0     C85519   0.435   3.341   0.956 -0.6301 -0.3640  0.0704
  634MOL0     C85520   0.872   4.054   1.051 -0.7880 -0.1806  0.2806
  634MOL0     C85521   0.914   4.194   1.057 -0.4752 -0.1081 -0.9203
  634MOL0     C85522   1.061   4.222   1.016  0.5703 -0.4326 -1.0271
  634MOL0     H85523   0.825   4.772   1.088  0.9144  0.8580  0.1892
  634MOL0     H85524   0.947   4.949   1.154  1.6776  0.1066 -1.0065
  634MOL0     H85525   1.181   5.024   1.175 -2.4836 -0.2551 -1.3847
  634MOL0     H85526   1.058   5.104   1.266 -0.5476  0.0187  2.4544
  634MOL0     H85527   1.270   5.240   1.282  1.4186 -1.4958 -1.0229
  634MOL0     H85528   1.363   5.098   1.332  0.1102  0.0968  0.5830
  634MOL0     H85529   1.172   5.110   1.533  1.3171 -0.1779  1.5717
  634MOL0     H85530   1.160   5.273   1.470 -0.0220  0.1287 -1.8805
  634MOL0     H85531   1.402   5.313   1.535  1.2253  0.1895  2.2047
  634MOL0     H85532   1.296   5.265   1.666 -1.5921  0.5048 -0.4955
  634MOL0     H85533   1.484   5.068   1.510  1.4353  1.7021 -0.1220
  634MOL0     H85534   1.507   5.129   1.668  0.6945 -1.9525  0.6888
  634MOL0     H85535   1.307   5.028   1.761  1.2722 -0.5742  0.0323
  634MOL0     H85536   1.270   4.942   1.615  1.0042 -1.5655  1.1693
  634MOL0     H85537   1.520   4.903   1.784 -1.1349 -0.7014  0.9583
  634MOL0     H85538   1.508   4.842   1.622  0.7529  2.4382 -0.5996
  634MOL0     H85539   1.260   4.792   1.786  0.1763 -0.0388  0.1224
  634MOL0     H85540   1.335   4.700   1.658 -5.1614 -0.2759  1.0723
  634MOL0     H85541   1.343   4.721   2.050 -2.3203 -1.7515 -1.7196
  634MOL0     H85542   1.451   4.478   2.215 -0.7555  2.3895 -0.4270
  634MOL0     H85543   1.590   4.413   2.153 -0.2265 -0.4364  1.1812
  634MOL0     H85544   1.588   4.709   2.239 -0.7597  0.0409 -1.3766
  634MOL0     H85545   1.600   4.579   2.356 -0.5877  0.2439 -0.1655
  634MOL0     H85546   1.793   4.591   2.114  2.9643 -2.8794 -0.1235
  634MOL0     H85547   1.781   4.472   2.249  0.5174 -0.5044 -1.0506
  634MOL0     H85548   1.815   4.669   2.400 -1.8435 -1.0527 -0.9873
  634MOL0     H85549   1.840   4.773   2.255 -1.3125 -1.3868 -3.5561
  634MOL0     H85550   2.094   4.699   2.090 -0.5905  1.8211 -0.9138
  634MOL0     H85551   2.270   4.877   2.059  1.3023 -2.2631 -0.5978
  634MOL0     H85552   2.450   5.302   2.177 -0.7031 -1.2116  0.8784
  634MOL0     H85553   2.659   5.449   2.215  0.1694 -1.2014 -0.2306
  634MOL0     H85554   2.794   5.525   2.622  1.3296  1.9336 -0.5934
  634MOL0     H85555   2.896   5.373   2.575 -2.3288 -1.2432  1.4629
  634MOL0     H85556   3.013   5.594   2.638  1.0083  0.9439 -0.8072
  634MOL0     H85557   3.039   5.517   2.473 -0.2861  0.5290 -0.3268
  634MOL0     H85558   2.896   5.682   2.370 -1.2185  0.9094  1.3933
  634MOL0     H85559   2.875   5.747   2.537 -0.4371 -1.0083  1.6034
  634MOL0     H85560   3.142   5.708   2.392  0.9648  2.3932 -0.6055
  634MOL0     H85561   3.120   5.813   2.534 -0.8920  1.3044  0.5321
  634MOL0     H85562   2.995   5.862   2.265 -2.9302  1.1755  1.5153
  634MOL0     H85563   3.148   5.935   2.311 -0.4873  1.9940 -0.6719
  634MOL0     H85564   2.877   5.961   2.445  0.9429 -0.6394  1.0944
  634MOL0     H85565   3.017   6.057   2.475  2.6084 -3.1997  1.4711
  634MOL0     H85566   2.888   6.038   2.187  0.0761 -1.1475  0.0424
  634MOL0     H85567   3.020   6.144   2.236 -0.8933 -0.5706 -1.2617
  634MOL0     H85568   2.815   6.256   2.384 -0.5037  3.8254 -1.4024
  634MOL0     H85569   2.842   6.295   2.218 -0.0470 -0.6710 -0.6639
  634MOL0     H85570   2.695   5.324   2.610 -0.3384 -1.0713 -0.2131
  634MOL0     H85571   2.522   5.148   2.579  1.7718  0.0287 -0.5862
  634MOL0     H85572   2.246   4.931   2.498  2.3224 -3.1621  0.0798
  634MOL0     H85573   2.060   4.795   2.504  0.1633  2.5778  0.4338
  634MOL0     H85574   1.122   4.725   1.480 -3.5811 -0.0083  2.1590
  634MOL0     H85575   0.969   4.534   1.410 -4.3646  0.6443  0.1538
  634MOL0     H85576   0.635   4.312   1.227  0.8581  0.5474  1.4329
  634MOL0     H85577   0.578   4.072   1.209 -0.0224  1.8251  0.3620
  634MOL0     H85578   0.769   3.686   1.166  0.9793 -2.8112 -3.7969
  634MOL0     H85579   0.890   3.800   1.126  0.3508 -0.7811  1.6769
  634MOL0     H85580   0.860   3.637   0.945 -1.5065 -2.3329 -0.2285
  634MOL0     H85581   0.778   3.791   0.881  0.0464 -2.3626 -4.6031
  634MOL0     H85582   0.642   3.599   0.837 -2.1228 -0.6005 -0.1557
  634MOL0     H85583   0.562   3.689   0.970 -0.4201 -0.3139  0.4644
  634MOL0     H85584   0.727   3.445   1.028 -0.7820  0.6620 -1.4703
  634MOL0     H85585   0.619   3.522   1.142 -0.2763 -1.6986  1.0590
  634MOL0     H85586   0.361   3.271   0.922  0.7562 -1.0991 -1.5459
  634MOL0     H85587   0.932   3.977   1.004 -1.4914 -2.0983  2.3414
  634MOL0     H85588   1.070   4.241   0.908 -1.1256 -3.9848 -1.9463
  634MOL0     H85589   1.117   4.298   1.071 -1.2529  1.7011 -1.9375
  634MOL0     H85590   1.117   4.129   1.028 -0.9078 -1.3810 -1.2500
  635MOL0     O85591   0.123   7.686   4.108  0.5015 -0.5433 -0.3863
  635MOL0     C85592   0.050   7.672   4.011  0.6072 -0.2856 -0.4008
  635MOL0     O85593   0.091   7.693   3.881  0.1510 -0.2892 -0.4062
  635MOL0     C85594   0.219   7.678   3.844 -0.1550  0.1493 -0.1850
  635MOL0     C85595   0.275   7.770   3.759  0.4826 -0.1537 -0.2918
  635MOL0     C85596   0.407   7.740   3.711  0.3349 -0.5606  0.0915
  635MOL0     C85597   0.484   7.629   3.749  0.4976  0.0609 -0.0676
  635MOL0     O85598   0.605   7.608   3.691  0.9945 -0.1004  0.0418
  635MOL0     C85599   0.692   7.491   3.720  0.4447 -0.2396 -0.3119
  635MOL0     C85600   0.818   7.490   3.632  0.2171  1.1481  0.3578
  635MOL0     C85601   0.910   7.613   3.641 -0.2692  0.2769  0.4161
  635MOL0     C85602   1.005   7.612   3.515  0.4722  0.1214 -0.2082
  635MOL0     C85603   1.093   7.739   3.502 -0.3516  0.9435  0.3658
  635MOL0     C85604   1.170   7.717   3.378 -0.4698  0.1202  0.5918
  635MOL0     C85605   1.264   7.822   3.334 -1.3119  0.7561  0.2055
  635MOL0     C85606   1.397   7.826   3.420 -0.5911  0.5858 -0.8353
  635MOL0     N85607   1.484   7.930   3.358 -0.0015 -0.6822  0.2333
  635MOL0     C85608   1.599   7.911   3.293  0.1643 -0.3490  0.3622
  635MOL0     C85609   1.656   8.031   3.279  0.3780 -0.2253 -0.6926
  635MOL0     C85610   1.762   8.084   3.193  0.1386 -0.5860  0.7169
  635MOL0     C85611   1.893   8.072   3.263 -0.9235 -0.3845  0.0092
  635MOL0     C85612   1.922   7.939   3.336 -0.1752  0.4672  0.3728
  635MOL0     C85613   2.067   7.924   3.375  0.5677 -0.2681 -0.5415
  635MOL0     O85614   2.130   8.039   3.443  0.0652  0.9284 -0.2381
  635MOL0     C85615   2.254   8.017   3.495 -0.1906 -0.4453  0.2056
  635MOL0     C85616   2.319   8.136   3.532  0.0871 -0.4508  0.1791
  635MOL0     C85617   2.446   8.129   3.593  0.4939  0.1584 -0.0114
  635MOL0     C85618   2.499   8.001   3.612 -1.1060  0.0091 -0.3162
  635MOL0     C85619   2.633   7.998   3.686  0.5341  0.7423 -0.0233
  635MOL0     O85620   2.719   8.096   3.648  0.0716 -0.2882  0.4299
  635MOL0     C85621   2.858   8.102   3.675 -0.1875  0.3075 -0.3947
  635MOL0     C85622   2.930   7.986   3.721  0.3510 -0.2051 -1.0658
  635MOL0     C85623   3.064   8.000   3.757 -0.3127  0.2497 -0.0502
  635MOL0     C85624   3.135   8.121   3.729 -0.2645  0.1652 -0.2515
  635MOL0     O85625   3.266   8.120   3.775  0.8244  0.2088 -0.5752
  635MOL0     C85626   3.366   8.194   3.709  0.0869  0.8123  0.5324
  635MOL0     C85627   3.498   8.168   3.790  0.4609  0.0889 -0.7248
  635MOL0     C85628   3.611   8.224   3.710  0.1535 -0.1244 -0.2585
  635MOL0     C85629   3.739   8.202   3.783  0.7813 -0.1036  0.3101
  635MOL0     C85630   3.874   8.239   3.712 -0.0014 -0.4052  1.2892
  635MOL0     C85631   3.907   8.385   3.741  0.8519 -0.6294 -0.4400
  635MOL0     C85632   4.036   8.433   3.683  0.2016  0.0130  0.6633
  635MOL0     C85633   4.151   8.405   3.773  0.4815 -0.1516  0.0040
  635MOL0    Cl85634   4.217   8.243   3.742  0.1789  0.2200 -0.1175
  635MOL0     C85635   3.063   8.236   3.689 -0.7051 -0.7336  0.1775
  635MOL0     C85636   2.929   8.227   3.668 -0.2157 -0.6765 -0.4301
  635MOL0     O85637   2.664   7.895   3.747 -0.3861  0.5394  0.9501
  635MOL0     C85638   2.430   7.884   3.590 -0.1438  0.3122  0.1885
  635MOL0     C85639   2.315   7.894   3.521 -0.6488  0.3081 -0.6794
  635MOL0     N85640   1.578   8.124   3.346  0.3784 -0.6356 -0.1865
  635MOL0     N85641   1.471   8.064   3.390  0.0154  0.4377  0.4390
  635MOL0     C85642   0.427   7.542   3.842 -0.1718 -0.0029 -0.1109
  635MOL0     C85643   0.293   7.568   3.881  0.9432 -0.2543 -0.1446
  635MOL0     C85644  -0.084   7.641   4.047  0.1748 -0.8371  0.4005
  635MOL0     C85645  -0.135   7.678   4.178  0.1330 -0.0055  0.1996
  635MOL0     C85646  -0.273   7.653   4.211 -0.3825 -0.5020  0.0065
  635MOL0     C85647  -0.360   7.585   4.130 -0.5431  1.2985 -0.7722
  635MOL0     O85648  -0.483   7.547   4.185 -0.1044  0.2873 -0.1608
  635MOL0     C85649  -0.574   7.508   4.080 -0.3661 -0.5832  0.5214
  635MOL0     C85650  -0.714   7.460   4.147 -0.5285 -0.1893 -0.9508
  635MOL0     C85651  -0.792   7.378   4.046 -0.0729  0.3189 -0.2747
  635MOL0     C85652  -0.899   7.285   4.113  1.3360  0.3136  0.1640
  635MOL0     C85653  -0.992   7.230   4.016 -0.1788  0.8162  0.4021
  635MOL0     C85654  -1.058   7.178   3.933  0.5644  0.1209 -0.3087
  635MOL0     C85655  -0.305   7.537   4.011  0.2557 -0.5407  0.1738
  635MOL0     C85656  -0.175   7.569   3.967 -0.2559  0.1567  0.1545
  635MOL0     C85657  -0.127   7.512   3.839  0.1632 -0.2891  0.6175
  635MOL0     H85658   0.223   7.858   3.723  2.0317  1.5065  1.3265
  635MOL0     H85659   0.455   7.804   3.639 -0.0147 -0.6567 -0.2289
  635MOL0     H85660   0.731   7.516   3.819 -1.3811  1.1213  0.1167
  635MOL0     H85661   0.643   7.394   3.728 -1.1278  0.5022 -0.6156
  635MOL0     H85662   0.783   7.475   3.529 -0.9359 -0.4457  0.9487
  635MOL0     H85663   0.881   7.404   3.655  2.2825  2.0532 -1.5431
  635MOL0     H85664   0.968   7.603   3.733 -0.5961  0.9840  0.7036
  635MOL0     H85665   0.852   7.706   3.641 -2.9035 -1.1851 -2.2479
  635MOL0     H85666   1.065   7.522   3.531 -0.7523 -0.6963 -0.1641
  635MOL0     H85667   0.940   7.590   3.431 -1.7844  0.1359  1.4484
  635MOL0     H85668   1.032   7.830   3.499  1.1822  1.9935 -0.6014
  635MOL0     H85669   1.154   7.729   3.592  2.0540 -1.6956 -1.4175
  635MOL0     H85670   1.229   7.626   3.391 -0.6448  0.0563  0.9370
  635MOL0     H85671   1.106   7.701   3.291 -1.3264  0.7689  1.0901
  635MOL0     H85672   1.208   7.916   3.338  0.6768  1.9648  1.6995
  635MOL0     H85673   1.288   7.799   3.230  3.9797  0.0736  1.3145
  635MOL0     H85674   1.378   7.843   3.527 -0.3094  0.9288 -0.8373
  635MOL0     H85675   1.451   7.732   3.404  1.8575  2.4339 -4.8138
  635MOL0     H85676   1.634   7.821   3.243  0.1912 -2.0704  3.2802
  635MOL0     H85677   1.768   8.028   3.099  1.4703 -1.2838  1.2001
  635MOL0     H85678   1.749   8.192   3.175  1.1012 -0.6075 -0.2011
  635MOL0     H85679   1.961   8.094   3.179 -0.0634 -0.5940  0.6358
  635MOL0     H85680   1.890   8.150   3.340  0.1235 -0.5871  0.2740
  635MOL0     H85681   1.905   7.859   3.264  1.2440 -0.7035  1.2728
  635MOL0     H85682   1.868   7.927   3.430  0.5944 -0.3604  0.7276
  635MOL0     H85683   2.112   7.902   3.278 -2.7288  2.6022 -2.9855
  635MOL0     H85684   2.077   7.832   3.434  0.5251  0.3672  0.4974
  635MOL0     H85685   2.263   8.229   3.522 -0.3999 -0.6937  0.6088
  635MOL0     H85686   2.494   8.222   3.621  2.7431 -0.9558  0.0583
  635MOL0     H85687   2.881   7.890   3.735  0.5063  0.0849  2.0045
  635MOL0     H85688   3.117   7.910   3.790 -1.0487 -0.4324 -0.6889
  635MOL0     H85689   3.375   8.154   3.608  1.9885  0.3853  0.8388
  635MOL0     H85690   3.345   8.301   3.706 -1.5072  0.6424  2.8574
  635MOL0     H85691   3.501   8.214   3.890  1.5973 -2.7589  0.6641
  635MOL0     H85692   3.514   8.061   3.809 -0.0235  0.1225 -0.0682
  635MOL0     H85693   3.622   8.208   3.602  1.0025  1.7368 -0.4815
  635MOL0     H85694   3.593   8.331   3.715 -0.3378 -0.2549  3.1723
  635MOL0     H85695   3.739   8.102   3.828  1.3337  0.6904  2.1961
  635MOL0     H85696   3.735   8.267   3.871 -0.7695 -0.4595  0.5405
  635MOL0     H85697   3.863   8.225   3.604  1.0804 -1.6861  1.3191
  635MOL0     H85698   3.960   8.194   3.763 -0.6353 -3.9783 -0.5177
  635MOL0     H85699   3.821   8.443   3.707 -0.0429 -1.6768 -0.0249
  635MOL0     H85700   3.910   8.392   3.850  1.0724 -0.3029 -0.4669
  635MOL0     H85701   4.031   8.540   3.664  1.9995  0.0414  0.1459
  635MOL0     H85702   4.052   8.386   3.586  0.6514  1.2653  0.1105
  635MOL0     H85703   4.229   8.479   3.751 -1.2865  1.2303 -2.1055
  635MOL0     H85704   4.120   8.426   3.876 -0.7195  2.6273 -0.8114
  635MOL0     H85705   3.105   8.335   3.702  0.6396 -1.3310  0.5608
  635MOL0     H85706   2.868   8.313   3.644  0.3331  0.4190  1.8454
  635MOL0     H85707   2.478   7.792   3.622 -0.7821  0.7428  2.5812
  635MOL0     H85708   2.271   7.798   3.495 -0.0037 -0.7797  1.8189
  635MOL0     H85709   0.488   7.456   3.868  2.5224  2.0204  0.7163
  635MOL0     H85710   0.240   7.511   3.957 -1.1785  0.8756 -0.6840
  635MOL0     H85711  -0.079   7.735   4.251 -1.2093  1.5470  0.0778
  635MOL0     H85712  -0.321   7.694   4.300 -2.4296  0.9631 -1.6705
  635MOL0     H85713  -0.526   7.418   4.039 -1.9700 -0.8773 -0.8233
  635MOL0     H85714  -0.593   7.588   4.008  3.3652 -0.2532 -0.2963
  635MOL0     H85715  -0.773   7.549   4.171  3.2704  2.4186 -0.4009
  635MOL0     H85716  -0.691   7.402   4.236 -1.1144 -0.4678 -0.9795
  635MOL0     H85717  -0.719   7.315   3.995 -0.7036  0.8786 -1.9229
  635MOL0     H85718  -0.824   7.450   3.970 -0.2296  0.4249 -0.1093
  635MOL0     H85719  -0.841   7.206   4.162  0.8553 -0.4738 -0.5267
  635MOL0     H85720  -0.957   7.344   4.185 -1.7054 -2.3819  0.1599
  635MOL0     H85721  -1.106   7.109   3.867 -2.9186  1.5685  0.5189
  635MOL0     H85722  -0.359   7.477   3.938 -2.7044  0.2901  1.5123
  635MOL0     H85723  -0.205   7.450   3.792 -0.3497  0.9686 -0.2383
  635MOL0     H85724  -0.123   7.604   3.781  0.2683  1.0278  2.6286
  635MOL0     H85725  -0.031   7.461   3.853 -1.3653 -3.5002  0.2861
  636MOL0     O85726   6.484   2.261  10.285 -0.2683  0.8144  0.4228
  636MOL0     C85727   6.534   2.239  10.394 -1.1055 -0.2270 -0.2530
  636MOL0     O85728   6.475   2.174  10.493  0.5171  0.3456 -0.2891
  636MOL0     C85729   6.369   2.090  10.457 -0.0521 -0.0268  0.0161
  636MOL0     C85730   6.240   2.150  10.433  0.7341 -0.3342 -0.6459
  636MOL0     C85731   6.138   2.078  10.384  1.0217 -0.3508  0.4802
  636MOL0     C85732   6.166   1.947  10.346  0.5346 -0.1796  1.3188
  636MOL0     O85733   6.050   1.876  10.291 -0.3523 -0.1483 -0.4926
  636MOL0     C85734   6.063   1.738  10.261  0.0031  0.2340  0.4501
  636MOL0     C85735   5.920   1.686  10.232  0.5176  0.3580 -0.1206
  636MOL0     C85736   5.913   1.545  10.307 -1.1359 -0.1429  0.2277
  636MOL0     C85737   5.814   1.436  10.266  0.4037  0.1022 -0.2790
  636MOL0     C85738   5.852   1.306  10.341 -0.4404  0.3513 -0.4016
  636MOL0     C85739   5.757   1.192  10.308 -0.3009  0.2698  0.0869
  636MOL0     C85740   5.615   1.205  10.365 -0.2282  0.0446  0.4159
  636MOL0     C85741   5.613   1.200  10.525  0.9800  0.4802  0.9170
  636MOL0     N85742   5.680   1.086  10.586 -0.6823 -0.0252  0.4955
  636MOL0     C85743   5.624   0.972  10.625 -0.2560  0.3364 -0.1232
  636MOL0     C85744   5.728   0.902  10.679 -0.2205 -0.5235  0.8085
  636MOL0     C85745   5.716   0.764  10.735 -1.0103  0.2695  0.6127
  636MOL0     C85746   5.606   0.680  10.676  0.0855  0.3104 -0.4732
  636MOL0     C85747   5.605   0.531  10.727 -0.2155 -0.3020 -0.0617
  636MOL0     C85748   5.723   0.450  10.670 -0.7471 -0.1564  0.4825
  636MOL0     O85749   5.719   0.315  10.692  0.7134  0.2291 -0.4325
  636MOL0     C85750   5.832   0.241  10.685 -0.2104  0.0530  0.0601
  636MOL0     C85751   5.828   0.103  10.710 -0.2477 -1.0808 -0.0033
  636MOL0     C85752   5.945   0.022  10.714  0.2121  0.4303 -0.2478
  636MOL0     C85753   6.070   0.083  10.697 -0.0764  0.4933 -0.6267
  636MOL0     C85754   6.196   0.001  10.732  0.0272 -0.9735 -0.4687
  636MOL0     O85755   6.307   0.063  10.683  0.0411  0.1470  0.6818
  636MOL0     C85756   6.432   0.017  10.719 -0.0028  1.1634  0.1943
  636MOL0     C85757   6.502  -0.107  10.681  0.0560 -0.1229  0.4506
  636MOL0     C85758   6.640  -0.131  10.711  0.1783  1.1980 -0.1697
  636MOL0     C85759   6.722  -0.034  10.774  0.2294 -0.1977  0.4642
  636MOL0     O85760   6.852  -0.047  10.822 -0.1366 -0.7998 -0.0941
  636MOL0     C85761   6.890  -0.179  10.847  0.2774 -0.2344  0.6735
  636MOL0     C85762   7.023  -0.173  10.921 -0.2501 -0.3686  0.1797
  636MOL0     C85763   7.135  -0.185  10.814  0.7440  0.7087 -0.2078
  636MOL0     C85764   7.268  -0.139  10.871  1.0614  0.7621  0.4117
  636MOL0     C85765   7.357  -0.111  10.755 -0.2765  0.1206 -0.0070
  636MOL0     C85766   7.494  -0.075  10.810  0.3862 -0.2563  1.1097
  636MOL0     C85767   7.584  -0.055  10.689  0.1856  0.0567  0.4624
  636MOL0     C85768   7.724   0.006  10.707  0.6392 -0.2805  0.2239
  636MOL0    Cl85769   7.718   0.178  10.739 -0.5713  0.1406 -0.1969
  636MOL0     C85770   6.662   0.089  10.796  0.9977  0.2932  0.5221
  636MOL0     C85771   6.523   0.109  10.772  0.4844 -0.0259  0.0048
  636MOL0     O85772   6.185  -0.090  10.811  0.2394 -0.0802 -0.3584
  636MOL0     C85773   6.074   0.218  10.663  0.0118 -0.7687  0.3335
  636MOL0     C85774   5.956   0.295  10.645  0.1614 -0.4394 -0.3440
  636MOL0     N85775   5.833   0.978  10.684  0.5871 -0.6549 -0.9086
  636MOL0     N85776   5.813   1.091  10.627 -0.5617  0.0360  0.7913
  636MOL0     C85777   6.288   1.882  10.364 -0.2329 -0.6587  0.6691
  636MOL0     C85778   6.390   1.956  10.415 -0.2175 -0.1897  0.2736
  636MOL0     C85779   6.666   2.307  10.422  0.0681  1.5371 -0.6886
  636MOL0     C85780   6.750   2.328  10.307 -0.5509  0.3212  1.2783
  636MOL0     C85781   6.882   2.373  10.318 -0.5630 -0.0577  0.4614
  636MOL0     C85782   6.929   2.413  10.448 -0.3555 -0.5779  0.4345
  636MOL0     O85783   7.053   2.461  10.477  0.4508 -0.1717  0.2267
  636MOL0     C85784   7.160   2.424  10.390  0.5745 -0.3779  0.8036
  636MOL0     C85785   7.286   2.479  10.454  0.7878 -0.1749  0.8909
  636MOL0     C85786   7.300   2.436  10.608  0.3290 -0.2977  0.8310
  636MOL0     C85787   7.409   2.530  10.673 -0.4393 -0.6105  0.3743
  636MOL0     C85788   7.549   2.503  10.629  0.3662 -0.0996 -0.1782
  636MOL0     C85789   7.647   2.491  10.557 -0.6203 -0.3800 -0.4650
  636MOL0     C85790   6.840   2.398  10.558 -0.3772  1.0993  0.4822
  636MOL0     C85791   6.711   2.343  10.547 -0.4737  0.9665 -0.4330
  636MOL0     C85792   6.641   2.303  10.679  0.0015  0.1941  0.6888
  636MOL0     H85793   6.213   2.254  10.448 -2.2865 -0.7696 -2.2718
  636MOL0     H85794   6.038   2.121  10.386 -0.6561 -3.6131 -2.1659
  636MOL0     H85795   6.127   1.723  10.175 -0.3136  1.4795 -0.0274
  636MOL0     H85796   6.101   1.685  10.349 -4.0437 -6.0140 -0.8964
  636MOL0     H85797   5.905   1.670  10.125  1.1846  2.3126 -0.5412
  636MOL0     H85798   5.846   1.758  10.268  1.4668  0.3661  1.9665
  636MOL0     H85799   5.870   1.562  10.406 -3.4443 -0.3265 -0.6828
  636MOL0     H85800   6.013   1.502  10.312 -0.2667  1.5440 -1.2843
  636MOL0     H85801   5.716   1.467  10.304  0.9738  0.7333  0.7203
  636MOL0     H85802   5.812   1.424  10.157  0.7305 -3.4433  0.0141
  636MOL0     H85803   5.948   1.264  10.310 -0.2591  0.0686  0.4965
  636MOL0     H85804   5.859   1.300  10.450  0.7564 -2.8934 -0.5603
  636MOL0     H85805   5.741   1.176  10.201  0.8418  1.0492 -0.2094
  636MOL0     H85806   5.796   1.100  10.353  0.7711  0.8513  0.3872
  636MOL0     H85807   5.556   1.120  10.332 -1.9899  0.7666  1.5178
  636MOL0     H85808   5.568   1.300  10.338 -0.5533  0.3002  1.7758
  636MOL0     H85809   5.671   1.282  10.569 -2.2983  3.2269  0.6159
  636MOL0     H85810   5.508   1.205  10.554 -0.4404 -1.8579 -3.1063
  636MOL0     H85811   5.517   0.955  10.614 -0.0480  0.6603 -3.8245
  636MOL0     H85812   5.813   0.715  10.724 -0.7779  0.3164  2.1409
  636MOL0     H85813   5.695   0.774  10.842  0.9847  0.4549  1.0236
  636MOL0     H85814   5.512   0.727  10.706 -2.6647 -4.0400 -1.2990
  636MOL0     H85815   5.606   0.679  10.567  0.6863  0.0279 -0.4758
  636MOL0     H85816   5.512   0.479  10.702 -0.3121  0.5816 -1.6507
  636MOL0     H85817   5.613   0.525  10.836  0.0426  1.7585  0.0835
  636MOL0     H85818   5.816   0.488  10.713  1.7774 -2.9571 -2.0023
  636MOL0     H85819   5.718   0.469  10.562 -0.2973  1.8353  0.7765
  636MOL0     H85820   5.735   0.068  10.752 -0.1550  0.4228  1.5534
  636MOL0     H85821   5.934  -0.084  10.737  1.1240  0.3629 -0.1087
  636MOL0     H85822   6.441  -0.182  10.631  1.0129 -0.6738  0.0965
  636MOL0     H85823   6.671  -0.230  10.681 -2.4769  0.3633 -0.4050
  636MOL0     H85824   6.814  -0.217  10.915 -1.8265  0.3195 -1.2219
  636MOL0     H85825   6.895  -0.253  10.767 -0.1811 -2.3884  2.5562
  636MOL0     H85826   7.033  -0.072  10.961  0.9943 -0.4505  0.1156
  636MOL0     H85827   7.020  -0.249  11.000  0.6914 -0.0824  0.5062
  636MOL0     H85828   7.161  -0.289  10.791  3.4164  1.5312 -1.3205
  636MOL0     H85829   7.116  -0.125  10.724  0.9840  1.9296  0.5359
  636MOL0     H85830   7.300  -0.223  10.934 -3.8778 -3.1360 -1.5791
  636MOL0     H85831   7.247  -0.046  10.924  2.4237  2.0983 -1.2634
  636MOL0     H85832   7.312  -0.033  10.693 -1.9468  2.2528  3.5374
  636MOL0     H85833   7.374  -0.201  10.696 -1.2878  1.2755 -2.1742
  636MOL0     H85834   7.479   0.016  10.868  0.0104  1.2637 -1.2424
  636MOL0     H85835   7.520  -0.166  10.866 -0.4461 -1.3987 -0.2883
  636MOL0     H85836   7.548   0.020  10.618  0.8313 -0.3658 -0.3317
  636MOL0     H85837   7.598  -0.149  10.634  0.1796  0.8282 -0.9066
  636MOL0     H85838   7.761  -0.042  10.798 -3.1199  0.0752  2.1605
  636MOL0     H85839   7.776  -0.012  10.613 -1.2819 -0.6257 -0.8376
  636MOL0     H85840   6.723   0.170  10.835  0.0000  0.5552  1.6157
  636MOL0     H85841   6.481   0.209  10.783  0.7240 -0.0698  1.6673
  636MOL0     H85842   6.173   0.262  10.665 -0.6383  0.8700  3.7189
  636MOL0     H85843   5.971   0.396  10.607  2.2281 -1.1022 -1.4525
  636MOL0     H85844   6.299   1.774  10.362  0.3496 -0.6046  0.8775
  636MOL0     H85845   6.488   1.916  10.438  2.3597  5.5457  0.9597
  636MOL0     H85846   6.717   2.295  10.209  2.5647 -0.1805  0.2838
  636MOL0     H85847   6.953   2.377  10.236  1.1091  0.2332  1.8611
  636MOL0     H85848   7.145   2.477  10.296  1.3431  1.6130  1.7361
  636MOL0     H85849   7.162   2.315  10.381  0.3594 -0.6370  3.0892
  636MOL0     H85850   7.296   2.586  10.440 -2.9785  0.0207 -1.8415
  636MOL0     H85851   7.359   2.435  10.385 -0.4344  0.4070 -0.8404
  636MOL0     H85852   7.330   2.331  10.611 -0.4558 -0.5457  0.3106
  636MOL0     H85853   7.199   2.445  10.650 -1.2921  1.5740 -2.9418
  636MOL0     H85854   7.378   2.633  10.656  0.4610  0.8060  5.4790
  636MOL0     H85855   7.413   2.517  10.782  0.6924  3.4294  0.9681
  636MOL0     H85856   7.724   2.485  10.483 -0.3624  1.3983 -0.3872
  636MOL0     H85857   6.889   2.410  10.655  2.3155  0.9707 -0.7808
  636MOL0     H85858   6.603   2.200  10.675  1.5231 -0.3630 -0.0788
  636MOL0     H85859   6.708   2.302  10.765  2.4598  0.6425 -1.1166
  636MOL0     H85860   6.559   2.369  10.708 -1.4191 -0.2134 -2.0869
  637MOL0     O85861   7.926   8.520   0.005 -0.2064  0.8339  0.1080
  637MOL0     C85862   7.902   8.398  -0.023  0.8475 -0.3495 -0.5371
  637MOL0     O85863   8.002   8.306  -0.051 -0.4957  0.2636 -0.6481
  637MOL0     C85864   8.127   8.358  -0.041 -0.1293  0.4682  0.2820
  637MOL0     C85865   8.219   8.300   0.045  0.4800  0.1796 -0.2206
  637MOL0     C85866   8.347   8.350   0.051  0.4926  0.5351 -1.1809
  637MOL0     C85867   8.393   8.440  -0.038 -0.0681 -0.1074  0.7460
  637MOL0     O85868   8.526   8.482  -0.026 -0.2948  0.0162 -0.0581
  637MOL0     C85869   8.587   8.569  -0.127 -0.1741  0.1067 -0.2883
  637MOL0     C85870   8.720   8.631  -0.080 -0.0359 -0.3504 -0.9205
  637MOL0     C85871   8.807   8.517  -0.017  0.8227 -0.0789  1.2851
  637MOL0     C85872   8.957   8.537  -0.058 -0.2916  0.6684  0.3898
  637MOL0     C85873   9.048   8.458   0.035  0.1832 -0.4758  0.9300
  637MOL0     C85874   9.195   8.498   0.020 -0.9290  0.2628 -0.2731
  637MOL0     C85875   9.294   8.411   0.110 -0.2705 -0.2424  0.2237
  637MOL0     C85876   9.279   8.439   0.259  0.1761 -0.7664 -0.0036
  637MOL0     N85877   9.402   8.391   0.336  0.5999 -0.8131  0.4834
  637MOL0     C85878   9.530   8.450   0.319 -0.3632 -0.2019 -0.3285
  637MOL0     C85879   9.600   8.384   0.412  0.8748  0.4442 -0.0391
  637MOL0     C85880   9.745   8.403   0.456 -0.1817  0.2137 -0.0927
  637MOL0     C85881   9.821   8.502   0.371 -0.2088 -0.5492 -0.3508
  637MOL0     C85882   9.785   8.654   0.402  0.8028  0.0066 -0.1197
  637MOL0     C85883   9.791   8.751   0.283  0.3524 -0.0676  0.0983
  637MOL0     O85884   9.695   8.712   0.182  0.4634  0.3570  0.2951
  637MOL0     C85885   9.585   8.785   0.163 -0.3171 -0.0784  0.2546
  637MOL0     C85886   9.531   8.799   0.037  0.0143 -0.3499  0.8061
  637MOL0     C85887   9.402   8.833   0.010 -0.4717  0.2000  0.0294
  637MOL0     C85888   9.321   8.865   0.120 -0.2384  0.0268  0.7730
  637MOL0     C85889   9.181   8.901   0.114 -0.5945 -0.8735  0.1644
  637MOL0     O85890   9.114   8.932   0.222 -0.4064  0.4381  0.7995
  637MOL0     C85891   8.981   8.950   0.203  0.0550 -0.1080 -0.5969
  637MOL0     C85892   8.935   9.077   0.166 -0.2200 -0.2003 -0.8175
  637MOL0     C85893   8.797   9.098   0.157  0.0811  0.2273 -0.4441
  637MOL0     C85894   8.709   8.996   0.201  0.8761  0.2933 -0.2191
  637MOL0     O85895   8.577   9.012   0.208 -0.4682 -0.1692  0.0841
  637MOL0     C85896   8.524   9.151   0.207 -0.1550  0.7651 -0.4660
  637MOL0     C85897   8.386   9.157   0.274 -1.0430  0.4485  0.4815
  637MOL0     C85898   8.293   9.066   0.207 -0.4180  0.3444 -0.7057
  637MOL0     C85899   8.149   9.074   0.259 -0.1418 -0.4916 -0.3638
  637MOL0     C85900   8.058   8.994   0.169  0.1152 -0.3794  0.3337
  637MOL0     C85901   7.927   8.955   0.239  0.4344 -0.3994 -0.1759
  637MOL0     C85902   7.829   8.888   0.140  0.4824 -0.1002  0.3054
  637MOL0     C85903   7.694   8.838   0.191  0.1970 -0.1841 -0.3544
  637MOL0    Cl85904   7.589   8.795   0.064  0.0665 -0.1746 -0.6358
  637MOL0     C85905   8.759   8.873   0.241 -0.4670  0.7322 -0.7689
  637MOL0     C85906   8.895   8.850   0.236 -0.6160 -0.7477 -0.0953
  637MOL0     O85907   9.132   8.902   0.001  0.2827 -0.2685 -0.8211
  637MOL0     C85908   9.372   8.866   0.248 -0.1184  0.2232 -0.5700
  637MOL0     C85909   9.507   8.815   0.271  0.7594 -0.0376 -0.4821
  637MOL0     N85910   9.515   8.292   0.476  0.3617  0.5753  0.3153
  637MOL0     N85911   9.395   8.295   0.435 -0.7524  0.7063 -0.3227
  637MOL0     C85912   8.302   8.495  -0.135 -0.4528 -0.7153 -0.3156
  637MOL0     C85913   8.164   8.453  -0.133 -1.0618  0.3504 -1.1555
  637MOL0     C85914   7.759   8.356  -0.022 -0.6236  0.1535 -0.1062
  637MOL0     C85915   7.661   8.440   0.037 -0.0490 -0.5568  0.0063
  637MOL0     C85916   7.522   8.410   0.053  0.4446 -0.9535  0.0503
  637MOL0     C85917   7.476   8.283   0.001 -0.8535 -0.3993  0.3327
  637MOL0     O85918   7.349   8.241   0.034  0.8238  0.3963  1.1319
  637MOL0     C85919   7.302   8.111  -0.009 -0.0760 -0.5785 -0.0190
  637MOL0     C85920   7.165   8.081   0.038  1.0350  0.4097 -0.3232
  637MOL0     C85921   7.106   7.942   0.013  0.1431 -0.1052 -0.0528
  637MOL0     C85922   7.191   7.829   0.078  0.4172 -0.6238  1.2397
  637MOL0     C85923   7.207   7.846   0.219 -0.4940  0.3771  0.1673
  637MOL0     C85924   7.224   7.858   0.337 -0.2473  0.3145  0.3380
  637MOL0     C85925   7.568   8.202  -0.076 -0.4620 -0.3394 -0.6075
  637MOL0     C85926   7.700   8.242  -0.088  0.0635 -0.4633  0.4176
  637MOL0     C85927   7.784   8.177  -0.195  0.6471  0.9654  0.4156
  637MOL0     H85928   8.175   8.227   0.112 -1.9757  1.7008 -0.0352
  637MOL0     H85929   8.413   8.330   0.134 -2.7219 -0.2538  1.4033
  637MOL0     H85930   8.615   8.511  -0.216 -1.5613 -0.2388 -0.5197
  637MOL0     H85931   8.525   8.658  -0.136 -0.0951  0.5479  2.5017
  637MOL0     H85932   8.697   8.710  -0.008  1.8249  1.5541 -2.2837
  637MOL0     H85933   8.761   8.683  -0.167 -1.3420  1.1996 -0.6571
  637MOL0     H85934   8.755   8.425  -0.048  0.0488 -0.0921  2.5262
  637MOL0     H85935   8.795   8.512   0.092 -2.6120 -2.6678  0.9748
  637MOL0     H85936   8.977   8.509  -0.162  0.8087  0.1475  0.7200
  637MOL0     H85937   8.977   8.645  -0.057  1.2724  0.4088  0.2871
  637MOL0     H85938   9.027   8.477   0.141  1.8720 -1.7647  1.5614
  637MOL0     H85939   9.043   8.349   0.025  3.9716 -0.7670  0.6845
  637MOL0     H85940   9.216   8.494  -0.087 -1.0922 -3.4842 -0.2937
  637MOL0     H85941   9.192   8.603   0.050 -2.3411  0.4715 -1.0826
  637MOL0     H85942   9.396   8.445   0.088  0.6402 -3.0680 -0.3241
  637MOL0     H85943   9.285   8.307   0.078 -1.5283 -0.2404  0.5030
  637MOL0     H85944   9.274   8.549   0.260  1.2078 -0.6390 -2.3776
  637MOL0     H85945   9.186   8.393   0.293 -0.1379 -1.4948 -1.7307
  637MOL0     H85946   9.558   8.534   0.256 -2.0182 -0.2456 -1.1827
  637MOL0     H85947   9.749   8.430   0.562  0.7871  1.3120 -0.4010
  637MOL0     H85948   9.798   8.307   0.453 -1.3284 -0.5489  1.8099
  637MOL0     H85949   9.930   8.490   0.370 -0.1164  0.1887 -1.4407
  637MOL0     H85950   9.795   8.479   0.267 -1.5404 -3.4829  0.5343
  637MOL0     H85951   9.851   8.678   0.486  0.1299 -2.0559  1.0891
  637MOL0     H85952   9.687   8.647   0.451  2.0112 -3.6242  2.2194
  637MOL0     H85953   9.891   8.739   0.242  0.7968 -2.5200  1.6788
  637MOL0     H85954   9.776   8.856   0.308 -2.5922 -0.0463 -1.3758
  637MOL0     H85955   9.599   8.769  -0.043 -1.4240 -1.2686 -0.1042
  637MOL0     H85956   9.354   8.814  -0.085  2.6323  1.4042 -1.9387
  637MOL0     H85957   8.999   9.163   0.147 -0.1137 -0.3007 -0.9139
  637MOL0     H85958   8.764   9.196   0.124 -1.3738  1.2123  3.3868
  637MOL0     H85959   8.603   9.215   0.247 -0.9612  1.0083  0.7842
  637MOL0     H85960   8.500   9.162   0.100 -1.4120  1.0399 -0.1703
  637MOL0     H85961   8.396   9.134   0.380 -1.9829  1.0128  0.7030
  637MOL0     H85962   8.369   9.264   0.262 -1.1611  0.4445  0.6244
  637MOL0     H85963   8.298   9.086   0.100 -3.9653  1.7161 -0.7398
  637MOL0     H85964   8.330   8.965   0.226  1.4713  1.3922  1.9927
  637MOL0     H85965   8.125   9.180   0.248 -2.1570 -0.9332 -0.8082
  637MOL0     H85966   8.139   9.034   0.360 -2.3167 -1.3446 -0.8559
  637MOL0     H85967   8.118   8.906   0.142  2.2627  1.4158 -1.1200
  637MOL0     H85968   8.041   9.059   0.084  0.9146 -1.2824 -0.5434
  637MOL0     H85969   7.955   8.885   0.319 -0.3680  0.5360  0.9712
  637MOL0     H85970   7.881   9.040   0.291 -0.0381 -1.4324  1.1574
  637MOL0     H85971   7.882   8.799   0.104  0.6466  0.8926 -2.1301
  637MOL0     H85972   7.814   8.954   0.054  1.1685  0.2625  0.4545
  637MOL0     H85973   7.722   8.761   0.264  0.6045 -1.3054 -1.6515
  637MOL0     H85974   7.641   8.914   0.250  2.0092  0.1146  0.9866
  637MOL0     H85975   8.687   8.802   0.281 -2.1163  1.2981 -2.5397
  637MOL0     H85976   8.938   8.756   0.268 -0.2796 -1.4748 -2.4740
  637MOL0     H85977   9.328   8.889   0.345  1.4623 -1.8737  0.7391
  637MOL0     H85978   9.546   8.816   0.372  0.7367  2.4486 -0.4363
  637MOL0     H85979   8.324   8.571  -0.208 -2.3175  0.9441  0.7597
  637MOL0     H85980   8.092   8.488  -0.206 -2.0633 -0.4161 -0.5666
  637MOL0     H85981   7.698   8.523   0.097 -0.2328 -0.2479 -0.3076
  637MOL0     H85982   7.457   8.472   0.113 -0.8252 -0.5010 -1.7169
  637MOL0     H85983   7.360   8.030   0.036 -1.6586 -1.0662  1.2077
  637MOL0     H85984   7.311   8.107  -0.118  3.3026  1.9790 -0.0002
  637MOL0     H85985   7.090   8.147  -0.006 -0.8129  1.1189  3.4859
  637MOL0     H85986   7.144   8.092   0.145  0.0029 -0.7033 -0.3872
  637MOL0     H85987   7.100   7.919  -0.094  1.3757 -0.2339 -0.1156
  637MOL0     H85988   7.008   7.939   0.061  0.5622  0.8671  0.8792
  637MOL0     H85989   7.150   7.729   0.060  0.0381 -0.3581  0.5342
  637MOL0     H85990   7.287   7.833   0.026 -0.6556 -0.1034 -0.8554
  637MOL0     H85991   7.240   7.864   0.443  2.0372  0.4618  0.0358
  637MOL0     H85992   7.538   8.111  -0.127 -2.8309  0.5485 -0.9536
  637MOL0     H85993   7.712   8.134  -0.265  0.5197  3.5833 -1.1606
  637MOL0     H85994   7.843   8.248  -0.253 -0.2412  1.0863 -0.3733
  637MOL0     H85995   7.841   8.092  -0.155  1.1733  0.9165 -0.4097
  638MOL0     O85996   2.150   7.335  10.751  0.4176  0.0723  0.2849
  638MOL0     C85997   2.078   7.298  10.845  0.1335  0.4566 -0.4050
  638MOL0     O85998   2.115   7.297  10.974 -0.4283  0.4420  0.2261
  638MOL0     C85999   2.144   7.412  11.039  0.4845  1.4362 -0.7989
  638MOL0     C86000   2.051   7.518  11.047 -0.1610  0.2825 -0.3640
  638MOL0     C86001   2.089   7.644  11.096  0.0228 -0.2089 -0.1714
  638MOL0     C86002   2.219   7.657  11.145 -0.5080  0.3302 -0.2631
  638MOL0     O86003   2.251   7.773  11.197  0.3299 -0.9676 -0.0888
  638MOL0     C86004   2.378   7.825  11.144  1.2266  0.3490  0.4228
  638MOL0     C86005   2.389   7.952  11.207  0.7018  0.0598 -0.1134
  638MOL0     C86006   2.520   8.019  11.179 -0.5300 -0.0659 -0.3429
  638MOL0     C86007   2.516   8.165  11.226 -0.0637 -0.7121  0.1540
  638MOL0     C86008   2.650   8.235  11.222 -0.5509 -0.4110  0.0945
  638MOL0     C86009   2.643   8.375  11.287  0.6930  0.2341 -0.1089
  638MOL0     C86010   2.781   8.441  11.277 -0.1191 -0.3034 -1.0837
  638MOL0     C86011   2.876   8.380  11.385 -0.4324  0.1415 -0.3102
  638MOL0     N86012   3.023   8.410  11.356 -0.2849  0.0160  1.3144
  638MOL0     C86013   3.116   8.306  11.341 -0.1223 -0.5039 -0.0652
  638MOL0     C86014   3.229   8.376  11.301 -0.2634  0.1360 -0.2287
  638MOL0     C86015   3.365   8.325  11.314  0.9024 -0.1009  0.3828
  638MOL0     C86016   3.400   8.327  11.470  0.6603 -0.2354  0.0882
  638MOL0     C86017   3.531   8.251  11.501  0.3180 -0.5827  0.0403
  638MOL0     C86018   3.578   8.280  11.640  0.1246  0.5637 -0.5251
  638MOL0     O86019   3.474   8.223  11.730 -0.5527  0.7290  0.4784
  638MOL0     C86020   3.530   8.115  11.802 -0.4401 -0.9701  0.5589
  638MOL0     C86021   3.599   8.126  11.921 -0.6040  0.3048 -0.5171
  638MOL0     C86022   3.646   8.016  11.994  0.2513 -0.1921  0.0997
  638MOL0     C86023   3.638   7.889  11.923  0.3442 -0.3030 -0.5409
  638MOL0     C86024   3.706   7.771  11.985 -0.2031  0.4972  0.6056
  638MOL0     O86025   3.730   7.780  12.119  0.7659 -0.0039 -0.1624
  638MOL0     C86026   3.751   7.668  12.199  0.0479 -0.5229  0.4690
  638MOL0     C86027   3.691   7.546  12.180  0.4398  0.5094  0.2049
  638MOL0     C86028   3.704   7.432  12.262  0.2856  0.0937 -0.3054
  638MOL0     C86029   3.790   7.449  12.376  0.1357  0.2457 -0.6693
  638MOL0     O86030   3.839   7.351  12.461  0.3862  0.1595  0.0532
  638MOL0     C86031   3.773   7.230  12.474  0.7625  0.1381 -0.1619
  638MOL0     C86032   3.838   7.117  12.394  0.6084  0.5033  0.3984
  638MOL0     C86033   3.742   7.004  12.357  0.1584 -0.1282  0.2194
  638MOL0     C86034   3.710   6.918  12.479 -0.0600 -0.2278  0.1885
  638MOL0     C86035   3.610   6.800  12.444  0.4802 -1.1278  0.0378
  638MOL0     C86036   3.689   6.678  12.400  0.4876  0.1299  0.8012
  638MOL0     C86037   3.742   6.602  12.518 -0.5721  0.0844  0.0387
  638MOL0     C86038   3.821   6.485  12.467 -1.1077  0.2911  0.7105
  638MOL0    Cl86039   3.916   6.442  12.618 -0.1083  0.0693 -0.0249
  638MOL0     C86040   3.859   7.571  12.397  0.2316  0.9390  0.8352
  638MOL0     C86041   3.837   7.678  12.310 -1.0050 -0.2862  0.6555
  638MOL0     O86042   3.716   7.671  11.920  0.6785 -0.7565  0.8810
  638MOL0     C86043   3.570   7.882  11.797 -1.1095 -0.4854 -0.4595
  638MOL0     C86044   3.506   7.997  11.745  0.5125 -0.4473  0.6001
  638MOL0     N86045   3.197   8.509  11.274 -0.5934  0.0561 -0.8194
  638MOL0     N86046   3.068   8.523  11.301 -0.1208 -0.4049 -0.1059
  638MOL0     C86047   2.311   7.552  11.147 -0.4181  0.0659 -0.7481
  638MOL0     C86048   2.270   7.430  11.098 -1.0810 -1.1493 -0.3982
  638MOL0     C86049   1.955   7.210  10.807  1.6491  0.1764 -0.8104
  638MOL0     C86050   1.899   7.125  10.915  0.2735 -0.1709 -0.1322
  638MOL0     C86051   1.794   7.033  10.899 -0.5677  0.1642  0.4582
  638MOL0     C86052   1.737   7.026  10.773  0.3233  0.0018 -1.0024
  638MOL0     O86053   1.641   6.932  10.762 -0.7796 -0.0386  0.2216
  638MOL0     C86054   1.539   6.957  10.659  0.6560  0.3767 -1.2388
  638MOL0     C86055   1.423   6.855  10.682  0.7665 -0.2485  0.0484
  638MOL0     C86056   1.467   6.714  10.633  0.5401 -0.3329  0.6263
  638MOL0     C86057   1.351   6.628  10.569 -0.0911  0.1129  0.3953
  638MOL0     C86058   1.416   6.549  10.465  0.3638 -0.9213  0.2329
  638MOL0     C86059   1.488   6.489  10.393  0.0099  0.2909  0.5441
  638MOL0     C86060   1.789   7.103  10.669  0.1225 -0.3439  0.6070
  638MOL0     C86061   1.894   7.199  10.679  0.2483 -0.0917  0.1709
  638MOL0     C86062   1.939   7.279  10.556 -0.5391 -0.1132 -0.5820
  638MOL0     H86063   1.947   7.509  11.020  0.2028  1.7520 -2.5894
  638MOL0     H86064   2.018   7.726  11.105 -1.7075 -1.6072 -0.4193
  638MOL0     H86065   2.474   7.775  11.161  1.4566  1.2155  1.8088
  638MOL0     H86066   2.368   7.846  11.037  1.9796 -1.4703 -0.0588
  638MOL0     H86067   2.386   7.936  11.316 -0.1368 -0.4618 -0.2068
  638MOL0     H86068   2.299   8.005  11.174 -1.0554 -2.3403  0.5437
  638MOL0     H86069   2.543   8.003  11.073  3.4948 -1.7204  0.5822
  638MOL0     H86070   2.603   7.963  11.225 -1.1761  0.3227  1.3785
  638MOL0     H86071   2.443   8.208  11.157 -1.2266 -1.3119  0.9814
  638MOL0     H86072   2.491   8.181  11.332  1.2108  4.1660 -0.0237
  638MOL0     H86073   2.732   8.186  11.275  1.1609  1.3777 -0.7953
  638MOL0     H86074   2.673   8.235  11.115  0.8262  1.8907  0.3332
  638MOL0     H86075   2.574   8.432  11.224  0.4188  1.0384  0.8868
  638MOL0     H86076   2.602   8.368  11.388  1.1114 -0.7942  0.0026
  638MOL0     H86077   2.782   8.548  11.301 -0.1749 -0.8206  1.4040
  638MOL0     H86078   2.826   8.424  11.179 -0.9037  2.4770 -2.0353
  638MOL0     H86079   2.848   8.407  11.487 -2.6843 -1.8128 -0.3042
  638MOL0     H86080   2.861   8.272  11.396 -0.5264  0.2109  0.2532
  638MOL0     H86081   3.116   8.204  11.380  1.3569 -0.4547  0.1256
  638MOL0     H86082   3.352   8.224  11.276 -3.4189 -0.0839  1.2980
  638MOL0     H86083   3.444   8.377  11.259 -0.8768  3.1585  0.6404
  638MOL0     H86084   3.407   8.432  11.499 -0.8177 -0.4688  1.4371
  638MOL0     H86085   3.319   8.275  11.522  0.2209 -0.5782 -0.9232
  638MOL0     H86086   3.612   8.298  11.444 -0.2243  1.3852  0.8011
  638MOL0     H86087   3.523   8.145  11.478  0.5790 -0.0155 -3.2148
  638MOL0     H86088   3.593   8.386  11.662 -1.0144  0.1377  3.0357
  638MOL0     H86089   3.670   8.221  11.644  0.1831  0.6854 -0.0594
  638MOL0     H86090   3.621   8.227  11.955 -2.1612  0.2208  0.8128
  638MOL0     H86091   3.699   8.027  12.088  0.5659 -2.0398  0.1744
  638MOL0     H86092   3.633   7.546  12.088  2.2019  0.5561 -0.9739
  638MOL0     H86093   3.661   7.334  12.241  0.8660 -0.1278 -0.4695
  638MOL0     H86094   3.755   7.202  12.579 -3.0185  1.7169 -0.2262
  638MOL0     H86095   3.668   7.233  12.444  1.4220  1.5468 -2.5869
  638MOL0     H86096   3.875   7.164  12.303 -0.4328  3.2221  1.2623
  638MOL0     H86097   3.919   7.079  12.456 -1.2524 -0.0076  2.6844
  638MOL0     H86098   3.650   7.051  12.321  0.3382 -0.9220 -1.3827
  638MOL0     H86099   3.791   6.946  12.277 -1.7273 -0.2797 -0.8847
  638MOL0     H86100   3.656   6.979  12.552 -2.0019 -0.4040 -1.0255
  638MOL0     H86101   3.805   6.878  12.517 -0.2845 -0.1808  0.8167
  638MOL0     H86102   3.550   6.825  12.357  2.4352  0.7909 -0.8627
  638MOL0     H86103   3.545   6.788  12.531  0.7699  1.5204  0.7085
  638MOL0     H86104   3.615   6.614  12.350  3.4589 -2.4668 -0.6326
  638MOL0     H86105   3.764   6.710  12.327 -0.8765 -0.8794 -1.1424
  638MOL0     H86106   3.660   6.555  12.573 -1.2264 -0.6372 -1.4889
  638MOL0     H86107   3.797   6.670  12.583  0.0300  0.6728 -1.0477
  638MOL0     H86108   3.761   6.397  12.442 -1.5423  0.5582  0.7829
  638MOL0     H86109   3.895   6.507  12.390 -0.4951  2.3585  1.8070
  638MOL0     H86110   3.937   7.585  12.472  3.8565  3.4451 -2.9139
  638MOL0     H86111   3.883   7.775  12.326  2.0113 -1.3971 -0.6196
  638MOL0     H86112   3.570   7.784  11.750  2.4941 -1.9498  2.2298
  638MOL0     H86113   3.446   7.995  11.655 -1.4012  0.2973  1.8045
  638MOL0     H86114   2.410   7.561  11.190  0.2372  0.3508 -2.2640
  638MOL0     H86115   2.344   7.353  11.115 -0.1152  0.3189  2.9899
  638MOL0     H86116   1.939   7.133  11.015  0.2106  0.4010 -0.1463
  638MOL0     H86117   1.762   6.965  10.977 -0.1260 -0.7928 -0.1789
  638MOL0     H86118   1.578   6.957  10.557  1.6346  2.3592 -0.9153
  638MOL0     H86119   1.493   7.055  10.676 -2.4156 -1.3027  1.1212
  638MOL0     H86120   1.330   6.888  10.634  1.2436 -0.5843 -1.1481
  638MOL0     H86121   1.389   6.857  10.786  0.5744  1.2245 -0.0327
  638MOL0     H86122   1.498   6.663  10.725  0.0603 -0.1293  0.9074
  638MOL0     H86123   1.550   6.717  10.562 -0.4782 -1.1537 -0.6368
  638MOL0     H86124   1.296   6.556  10.630  1.8493 -1.1851  0.7062
  638MOL0     H86125   1.277   6.694  10.523 -1.2812 -0.7862  0.9532
  638MOL0     H86126   1.537   6.424  10.323 -0.7384  0.4007 -0.0906
  638MOL0     H86127   1.741   7.081  10.574  0.7401 -4.6036  1.0866
  638MOL0     H86128   2.024   7.232  10.507  0.8718  0.5504  1.1478
  638MOL0     H86129   1.850   7.279  10.492 -1.0722 -2.4977  0.0724
  638MOL0     H86130   1.971   7.380  10.582  3.4746 -1.1659 -0.8308
  639MOL0     O86131   2.011   3.126   1.930  0.2577 -0.3038 -0.2278
  639MOL0     C86132   2.096   3.218   1.938  0.1374  0.4650 -0.2414
  639MOL0     O86133   2.226   3.206   1.962 -0.0816 -0.3762 -0.5454
  639MOL0     C86134   2.293   3.083   1.983  0.4564 -0.2594 -0.9050
  639MOL0     C86135   2.437   3.093   1.988  0.1556 -0.1090 -0.7060
  639MOL0     C86136   2.506   2.983   2.033 -1.0076 -0.9477 -0.4313
  639MOL0     C86137   2.445   2.867   2.067  0.4900 -0.0022 -0.1412
  639MOL0     O86138   2.510   2.755   2.114  0.2993 -0.3338 -0.0528
  639MOL0     C86139   2.496   2.627   2.043  0.0672  0.6199 -0.1286
  639MOL0     C86140   2.567   2.516   2.125 -0.0789  0.0523 -0.9048
  639MOL0     C86141   2.536   2.508   2.272  1.1026 -0.1981 -0.0603
  639MOL0     C86142   2.389   2.535   2.308 -0.7243  0.2254  0.3491
  639MOL0     C86143   2.363   2.504   2.455 -0.1841  0.2380  0.1595
  639MOL0     C86144   2.227   2.556   2.508 -0.7406 -0.3947 -0.4604
  639MOL0     C86145   2.215   2.540   2.661  0.0063  0.2261 -0.8533
  639MOL0     C86146   2.222   2.398   2.711 -1.0854  0.7200  1.0097
  639MOL0     N86147   2.179   2.381   2.850 -0.4312 -0.4634  0.2378
  639MOL0     C86148   2.236   2.305   2.951 -1.1821  0.4784 -0.4854
  639MOL0     C86149   2.147   2.300   3.049  0.0328  0.4802  0.1466
  639MOL0     C86150   2.167   2.232   3.181  0.3956 -0.1609 -0.8119
  639MOL0     C86151   2.275   2.304   3.256 -0.5550 -0.1460  1.0520
  639MOL0     C86152   2.306   2.246   3.390  1.0783 -0.0988 -0.6281
  639MOL0     C86153   2.384   2.346   3.472  0.1784 -0.2988  0.6312
  639MOL0     O86154   2.512   2.357   3.416  0.3296  0.2101  0.2263
  639MOL0     C86155   2.601   2.257   3.442  0.1752  0.5734 -0.1333
  639MOL0     C86156   2.690   2.242   3.331 -1.1896  0.8515  0.4088
  639MOL0     C86157   2.782   2.136   3.342 -0.5565  0.3705  0.6018
  639MOL0     C86158   2.807   2.059   3.460  0.3355 -1.3723  0.3773
  639MOL0     C86159   2.929   1.966   3.479 -0.1417  0.4694 -0.0589
  639MOL0     O86160   2.965   1.931   3.606  0.5910 -0.1525 -0.1298
  639MOL0     C86161   3.091   1.877   3.603 -0.3488  0.5301  0.3223
  639MOL0     C86162   3.117   1.745   3.549  0.7748  0.0076  0.7454
  639MOL0     C86163   3.244   1.686   3.554  0.5052 -0.2965  0.2844
  639MOL0     C86164   3.353   1.760   3.611 -1.1144  0.6079  0.7919
  639MOL0     O86165   3.484   1.712   3.631  0.2936  0.2297  0.3577
  639MOL0     C86166   3.526   1.623   3.533 -0.0333  0.2356  0.9001
  639MOL0     C86167   3.500   1.481   3.572 -0.0477  0.1102 -0.2550
  639MOL0     C86168   3.624   1.409   3.625  0.0889  0.4545  0.2694
  639MOL0     C86169   3.585   1.270   3.667  1.4887  0.1281 -0.2068
  639MOL0     C86170   3.699   1.216   3.762 -0.0146  0.4663  0.2973
  639MOL0     C86171   3.674   1.065   3.792  0.7442 -0.0353 -0.6968
  639MOL0     C86172   3.785   0.994   3.870  0.0105  0.1805  1.1277
  639MOL0     C86173   3.730   0.859   3.927  0.2852 -0.1259  0.2120
  639MOL0    Cl86174   3.600   0.873   4.042  0.0372 -0.1370 -0.0423
  639MOL0     C86175   3.324   1.887   3.674 -0.7595 -0.1806  0.2414
  639MOL0     C86176   3.196   1.942   3.664  0.1874 -0.4157 -0.3487
  639MOL0     O86177   2.980   1.926   3.370 -0.2572 -0.3529  0.0034
  639MOL0     C86178   2.715   2.077   3.571  0.1805 -0.4508 -0.6452
  639MOL0     C86179   2.613   2.174   3.561 -1.1275  0.0108 -0.1098
  639MOL0     N86180   2.030   2.354   3.008 -0.1944 -0.0582  0.5816
  639MOL0     N86181   2.046   2.390   2.887  0.2887 -0.8486  0.4332
  639MOL0     C86182   2.308   2.858   2.066  0.0026  0.4278 -0.3695
  639MOL0     C86183   2.234   2.965   2.037  0.5444 -0.3984  0.3341
  639MOL0     C86184   2.052   3.353   1.897 -0.4198 -0.9971 -0.4293
  639MOL0     C86185   2.141   3.449   1.837 -0.5514 -0.6555  0.0223
  639MOL0     C86186   2.103   3.578   1.799 -0.0436 -0.1065 -1.0313
  639MOL0     C86187   1.973   3.623   1.819  0.3785  0.7756 -0.6834
  639MOL0     O86188   1.921   3.744   1.791 -0.0376 -0.2884 -0.3047
  639MOL0     C86189   2.010   3.847   1.754  0.4171  0.3975 -0.5826
  639MOL0     C86190   2.073   3.904   1.885  0.1525  0.7401  0.0273
  639MOL0     C86191   2.167   4.027   1.860 -0.4276 -1.3250 -0.1407
  639MOL0     C86192   2.289   3.995   1.766 -0.4130 -0.0953  0.4268
  639MOL0     C86193   2.335   4.131   1.736 -1.0368  0.2330 -0.2751
  639MOL0     C86194   2.382   4.250   1.724  0.0088  0.3361 -0.9657
  639MOL0     C86195   1.882   3.533   1.871 -0.1623 -0.2671  0.4075
  639MOL0     C86196   1.920   3.408   1.930  0.0800 -0.1855  0.5576
  639MOL0     C86197   1.810   3.322   1.998  0.2684  0.6161  0.3966
  639MOL0     H86198   2.486   3.184   1.956 -0.7925  2.0265  3.2279
  639MOL0     H86199   2.613   2.984   2.050 -1.0712 -1.8331  0.0819
  639MOL0     H86200   2.388   2.612   2.044 -0.0015  1.0451  0.8524
  639MOL0     H86201   2.539   2.637   1.943  0.8352  0.7470  0.2077
  639MOL0     H86202   2.675   2.534   2.122  0.1693 -1.1104 -0.0818
  639MOL0     H86203   2.545   2.414   2.094 -5.8233 -0.5881  3.4743
  639MOL0     H86204   2.594   2.573   2.339  2.5700 -1.9624  0.4802
  639MOL0     H86205   2.575   2.414   2.311  2.1069 -0.6467 -2.0392
  639MOL0     H86206   2.362   2.638   2.283 -0.5239  0.3393  0.6138
  639MOL0     H86207   2.330   2.465   2.247 -0.8644 -0.3398  1.1157
  639MOL0     H86208   2.370   2.396   2.470  2.6827  0.5341  1.5728
  639MOL0     H86209   2.443   2.549   2.514  0.8603 -1.3127 -0.0338
  639MOL0     H86210   2.231   2.664   2.491  0.2825 -0.4601 -0.7057
  639MOL0     H86211   2.150   2.499   2.457 -0.2886 -1.7576  0.3174
  639MOL0     H86212   2.117   2.580   2.688  0.5177 -0.9281  3.5366
  639MOL0     H86213   2.302   2.591   2.703 -0.7733 -0.7157  2.1498
  639MOL0     H86214   2.158   2.341   2.642 -0.0352 -1.1203  1.4978
  639MOL0     H86215   2.326   2.365   2.705  0.7994  5.9030 -0.0078
  639MOL0     H86216   2.335   2.265   2.967 -1.1470  0.9607  0.6516
  639MOL0     H86217   2.071   2.242   3.232 -0.4071  1.6440 -2.5516
  639MOL0     H86218   2.201   2.130   3.159  0.3038 -0.4750  0.3981
  639MOL0     H86219   2.356   2.299   3.183 -0.5704 -0.0621  1.0289
  639MOL0     H86220   2.229   2.403   3.259 -0.2633 -0.0314  2.2611
  639MOL0     H86221   2.355   2.149   3.381  1.1064 -0.2319  0.7001
  639MOL0     H86222   2.214   2.223   3.445 -0.5731 -1.0377 -3.5797
  639MOL0     H86223   2.380   2.316   3.577  2.2436  1.6326  1.3651
  639MOL0     H86224   2.334   2.443   3.463  0.8608  0.0496  0.4801
  639MOL0     H86225   2.689   2.305   3.243  0.3811 -0.6604 -0.7542
  639MOL0     H86226   2.852   2.114   3.262 -0.5829 -0.1175  0.7076
  639MOL0     H86227   3.034   1.688   3.508 -0.3932  1.4110  1.0585
  639MOL0     H86228   3.247   1.581   3.526  0.3725 -0.0890 -0.5363
  639MOL0     H86229   3.480   1.636   3.434 -0.5777  2.5251  1.3887
  639MOL0     H86230   3.634   1.631   3.516 -0.4093 -0.9387 -3.2620
  639MOL0     H86231   3.424   1.483   3.650 -0.0480 -0.1113 -0.2491
  639MOL0     H86232   3.464   1.421   3.487  0.8470  0.6937 -1.0586
  639MOL0     H86233   3.700   1.400   3.547  0.4867 -1.1685  0.7902
  639MOL0     H86234   3.663   1.468   3.708 -2.6688  3.3793 -0.3644
  639MOL0     H86235   3.585   1.201   3.582  0.1734  0.1695 -0.2616
  639MOL0     H86236   3.484   1.262   3.708  2.2740 -0.5570  1.7177
  639MOL0     H86237   3.685   1.267   3.858 -0.0532  2.8395 -0.8848
  639MOL0     H86238   3.795   1.237   3.712  0.5329 -3.4464 -0.6024
  639MOL0     H86239   3.583   1.052   3.851  1.8944 -1.5637  0.8129
  639MOL0     H86240   3.652   1.017   3.696 -0.8539 -0.7137 -0.0286
  639MOL0     H86241   3.832   1.053   3.949 -0.4597 -0.3985  1.8435
  639MOL0     H86242   3.865   0.956   3.806 -0.4452 -0.9433  1.2186
  639MOL0     H86243   3.690   0.799   3.845 -2.0961  0.0023  1.2195
  639MOL0     H86244   3.817   0.808   3.969  0.0666  0.0497  0.8914
  639MOL0     H86245   3.410   1.934   3.722  2.2272 -5.0618  0.4048
  639MOL0     H86246   3.174   2.035   3.716  0.2827  1.3956 -3.3638
  639MOL0     H86247   2.732   2.010   3.654  2.8399  2.1192  1.0964
  639MOL0     H86248   2.544   2.191   3.642 -0.2551  2.5590  0.1835
  639MOL0     H86249   2.254   2.777   2.114 -3.2578  1.6027 -1.7372
  639MOL0     H86250   2.125   2.967   2.044  0.5003  2.8530  0.3411
  639MOL0     H86251   2.246   3.427   1.821 -0.7855 -0.6300 -1.7036
  639MOL0     H86252   2.175   3.648   1.758 -1.1065  1.4226 -0.4164
  639MOL0     H86253   1.962   3.930   1.700  0.4530  1.8372  1.4868
  639MOL0     H86254   2.083   3.807   1.683 -0.2680 -0.2455 -0.9331
  639MOL0     H86255   2.122   3.817   1.931 -0.2326 -0.2483 -1.3352
  639MOL0     H86256   2.000   3.945   1.955  0.0637  3.2244 -1.4214
  639MOL0     H86257   2.208   4.065   1.953 -2.2548 -0.7593  0.4726
  639MOL0     H86258   2.100   4.103   1.818 -2.7609 -3.2898 -0.2571
  639MOL0     H86259   2.358   3.923   1.812 -2.5858 -1.3411  1.9575
  639MOL0     H86260   2.260   3.949   1.671  0.8992  0.2832 -0.1692
  639MOL0     H86261   2.406   4.355   1.719  2.8045 -0.1960 -0.5499
  639MOL0     H86262   1.780   3.568   1.880 -0.5544 -1.5498  1.1765
  639MOL0     H86263   1.725   3.382   2.033  1.0659 -0.4622  4.7962
  639MOL0     H86264   1.772   3.252   1.923  1.4090 -1.7876  1.9099
  639MOL0     H86265   1.850   3.263   2.081  1.1948  1.2053  0.3819
  640MOL0     O86266   1.394   4.883  11.146 -0.1511  0.2005 -0.0025
  640MOL0     C86267   1.345   4.813  11.236  0.2551  0.5508  0.3857
  640MOL0     O86268   1.411   4.757  11.339 -0.2802 -0.3822  0.3480
  640MOL0     C86269   1.539   4.796  11.378  0.5552  0.2288  0.1537
  640MOL0     C86270   1.596   4.913  11.352 -1.3327  0.5749  0.3535
  640MOL0     C86271   1.722   4.946  11.405  0.7344  0.3442  0.1505
  640MOL0     C86272   1.785   4.851  11.493 -0.5027 -0.0841 -0.3483
  640MOL0     O86273   1.913   4.888  11.536  0.4891 -0.0918 -0.4486
  640MOL0     C86274   2.030   4.814  11.501  0.5509 -0.3255 -1.2950
  640MOL0     C86275   2.135   4.814  11.620  0.3075  0.0187 -0.2742
  640MOL0     C86276   2.089   4.742  11.747 -0.3926  0.1868  0.4584
  640MOL0     C86277   2.210   4.699  11.833  0.2054 -0.8208 -0.7473
  640MOL0     C86278   2.169   4.620  11.957  1.3065 -0.1829  0.2718
  640MOL0     C86279   2.290   4.552  12.027 -0.4068 -0.3854 -0.2136
  640MOL0     C86280   2.257   4.501  12.167 -0.3907  0.8245  0.2324
  640MOL0     C86281   2.394   4.495  12.240  0.1731  0.1621 -0.6396
  640MOL0     N86282   2.463   4.371  12.197 -0.1952 -0.4135  0.3974
  640MOL0     C86283   2.447   4.257  12.258  1.1480  1.0876  0.9777
  640MOL0     C86284   2.541   4.177  12.194  0.2818 -0.5527  0.7458
  640MOL0     C86285   2.584   4.031  12.215  0.1808  0.5936 -0.9352
  640MOL0     C86286   2.575   3.985  12.366  0.2671  0.3161 -0.3582
  640MOL0     C86287   2.686   4.056  12.449 -0.5090 -0.2829  1.2447
  640MOL0     C86288   2.766   3.971  12.540  0.0159 -0.7656  0.1357
  640MOL0     O86289   2.857   4.060  12.601  0.5234  0.3113  0.2537
  640MOL0     C86290   2.962   4.008  12.681 -0.3163  0.0448 -0.1646
  640MOL0     C86291   2.982   3.876  12.711 -1.0738  0.4897 -0.3067
  640MOL0     C86292   3.085   3.823  12.794  0.2694 -0.5327  0.3552
  640MOL0     C86293   3.183   3.912  12.828 -0.4258 -0.1059  0.6060
  640MOL0     C86294   3.297   3.861  12.905  0.0093  0.6939  0.0049
  640MOL0     O86295   3.399   3.952  12.934 -0.5406 -0.0088 -0.0055
  640MOL0     C86296   3.510   3.900  12.998  0.7527  0.5625 -0.6707
  640MOL0     C86297   3.533   3.926  13.131 -0.9423  0.5489 -0.1522
  640MOL0     C86298   3.627   3.853  13.206  1.2549 -0.8353  0.4931
  640MOL0     C86299   3.714   3.768  13.141 -1.0701  0.1907 -0.4923
  640MOL0     O86300   3.796   3.684  13.212 -0.5388  0.0062  0.4558
  640MOL0     C86301   3.750   3.634  13.344  0.6339  0.3511 -0.6213
  640MOL0     C86302   3.860   3.551  13.409  0.5008  0.5573  0.2162
  640MOL0     C86303   3.795   3.478  13.523  0.1296 -0.1655  0.0856
  640MOL0     C86304   3.901   3.416  13.616 -0.9281 -0.2588  0.7677
  640MOL0     C86305   3.839   3.395  13.748 -0.1138  0.0901 -0.2053
  640MOL0     C86306   3.944   3.328  13.846  0.0022  0.0554 -0.2104
  640MOL0     C86307   3.882   3.281  13.974  0.3689  0.8789  0.0565
  640MOL0     C86308   3.985   3.224  14.069 -0.4780 -0.0213 -0.5355
  640MOL0    Cl86309   4.099   3.359  14.110 -0.2270 -0.1205  0.4803
  640MOL0     C86310   3.697   3.748  12.997  0.2326  0.2466 -0.2739
  640MOL0     C86311   3.588   3.809  12.926 -0.0206 -0.8573 -0.3634
  640MOL0     O86312   3.295   3.753  12.960  0.0430 -0.0934  0.2145
  640MOL0     C86313   3.166   4.053  12.793 -0.5014  0.4477  0.3293
  640MOL0     C86314   3.062   4.100  12.721 -0.6704  0.3937 -1.0165
  640MOL0     N86315   2.612   4.259  12.107 -0.3176  0.0693 -0.1324
  640MOL0     N86316   2.561   4.373  12.103  0.2208 -0.0064  0.4742
  640MOL0     C86317   1.726   4.732  11.519  0.3660 -0.3696 -0.3390
  640MOL0     C86318   1.602   4.698  11.461 -0.2745  0.2242 -0.4209
  640MOL0     C86319   1.205   4.769  11.225  0.2516 -0.2424  0.1908
  640MOL0     C86320   1.128   4.748  11.335 -0.4295 -0.0937 -0.0943
  640MOL0     C86321   0.986   4.726  11.325 -0.0985 -0.2586  0.2718
  640MOL0     C86322   0.934   4.700  11.203  0.8694 -0.2435 -0.1071
  640MOL0     O86323   0.803   4.662  11.208 -0.5107  0.3747 -1.2169
  640MOL0     C86324   0.720   4.647  11.092 -0.0241  0.2227 -0.3792
  640MOL0     C86325   0.583   4.604  11.152  0.4281  0.5631 -0.1847
  640MOL0     C86326   0.472   4.614  11.039 -0.5551  1.2518 -0.2237
  640MOL0     C86327   0.333   4.559  11.086 -0.2853 -0.7485  0.2590
  640MOL0     C86328   0.232   4.555  10.991  0.1553 -0.2849  0.4981
  640MOL0     C86329   0.165   4.564  10.890  0.2022 -0.0698  0.5702
  640MOL0     C86330   1.009   4.709  11.085 -0.1966  0.0536  0.0690
  640MOL0     C86331   1.143   4.756  11.097  0.0750  0.4844  1.0482
  640MOL0     C86332   1.209   4.764  10.967 -0.2002 -0.2834  0.6165
  640MOL0     H86333   1.550   4.993  11.295 -1.1623  1.2934  1.2108
  640MOL0     H86334   1.775   5.038  11.383  5.2774 -1.3798  2.4815
  640MOL0     H86335   1.995   4.716  11.469  0.5399 -0.7559 -0.0358
  640MOL0     H86336   2.080   4.866  11.419  0.9520  0.3260 -0.6619
  640MOL0     H86337   2.155   4.919  11.644  3.0412  0.5337 -3.8624
  640MOL0     H86338   2.228   4.775  11.579  1.7011  1.8351  0.9775
  640MOL0     H86339   2.033   4.655  11.711  4.6059 -2.4632 -1.9946
  640MOL0     H86340   2.025   4.812  11.801 -1.0646  1.9681 -2.3916
  640MOL0     H86341   2.272   4.636  11.768 -0.5856 -1.4219 -0.9281
  640MOL0     H86342   2.270   4.786  11.861 -0.4274 -0.1750 -1.3685
  640MOL0     H86343   2.120   4.690  12.026  1.2560  0.3094 -0.2550
  640MOL0     H86344   2.093   4.548  11.926 -0.1008  2.5207 -3.2565
  640MOL0     H86345   2.328   4.473  11.962  1.7646  1.2711 -1.1101
  640MOL0     H86346   2.378   4.616  12.041  3.1704 -5.1237  1.4480
  640MOL0     H86347   2.203   4.405  12.169  0.4125  0.3404 -0.4748
  640MOL0     H86348   2.182   4.566  12.213  0.4098  2.7329 -1.0490
  640MOL0     H86349   2.452   4.583  12.210 -0.1556  1.5952  2.4937
  640MOL0     H86350   2.370   4.497  12.346  1.6363 -0.2541 -0.2793
  640MOL0     H86351   2.369   4.241  12.332  0.7432  3.1963  1.0587
  640MOL0     H86352   2.524   3.959  12.159 -1.1904  1.1736 -0.2651
  640MOL0     H86353   2.685   4.013  12.179  0.7231 -3.0552  1.8678
  640MOL0     H86354   2.480   4.007  12.415 -0.5478  2.7147 -2.7666
  640MOL0     H86355   2.596   3.880  12.386  1.4241  0.3455 -1.2988
  640MOL0     H86356   2.644   4.142  12.502 -2.4810 -1.7588  2.1884
  640MOL0     H86357   2.765   4.087  12.380  0.0498  0.0569  2.0198
  640MOL0     H86358   2.835   3.905  12.486  0.2114 -0.6487  0.2412
  640MOL0     H86359   2.703   3.911  12.607 -0.1458 -0.6565  0.0824
  640MOL0     H86360   2.905   3.807  12.681 -1.1241  0.4424 -0.0700
  640MOL0     H86361   3.077   3.725  12.840 -0.8887  0.3865  2.2445
  640MOL0     H86362   3.473   4.004  13.177 -0.4251  0.2701  1.0271
  640MOL0     H86363   3.614   3.867  13.313  1.0931  2.4520  0.1483
  640MOL0     H86364   3.719   3.709  13.417 -1.9830  0.7503 -2.0418
  640MOL0     H86365   3.660   3.575  13.327  2.4048 -3.0521  0.8204
  640MOL0     H86366   3.901   3.485  13.332 -1.0714  0.5657 -0.6722
  640MOL0     H86367   3.933   3.625  13.443  0.4641  0.5439  0.3223
  640MOL0     H86368   3.735   3.548  13.582  1.1447  1.2386 -0.4915
  640MOL0     H86369   3.723   3.408  13.479 -0.2986  1.5190 -2.0636
  640MOL0     H86370   3.978   3.494  13.626 -4.2240  3.5357 -0.9157
  640MOL0     H86371   3.940   3.326  13.567 -2.6972  0.0494 -1.3351
  640MOL0     H86372   3.752   3.329  13.740 -1.1209  1.1681  1.2391
  640MOL0     H86373   3.819   3.487  13.804  1.4996  0.5084 -0.2794
  640MOL0     H86374   3.996   3.246  13.794  1.0068  2.1494 -2.7235
  640MOL0     H86375   4.021   3.402  13.870 -1.0846  1.7012 -1.5629
  640MOL0     H86376   3.815   3.197  13.951  0.6327  0.3157  1.2614
  640MOL0     H86377   3.825   3.361  14.022  0.3411  0.8613  0.0531
  640MOL0     H86378   3.942   3.186  14.163  0.9127  3.1239  1.5391
  640MOL0     H86379   4.047   3.151  14.016  0.9172  1.5191 -1.0951
  640MOL0     H86380   3.765   3.671  12.961  0.0307 -0.0580 -0.0100
  640MOL0     H86381   3.572   3.798  12.819 -3.7342  1.7751 -0.2783
  640MOL0     H86382   3.251   4.111  12.827 -0.4280  0.0068  0.9169
  640MOL0     H86383   3.054   4.206  12.699  2.7212  1.3626  1.5378
  640MOL0     H86384   1.769   4.665  11.593  1.1512 -0.0715 -0.5199
  640MOL0     H86385   1.552   4.602  11.467  1.3799 -0.6371  0.0048
  640MOL0     H86386   1.174   4.774  11.430 -1.3113  1.6101 -0.0883
  640MOL0     H86387   0.937   4.710  11.421 -1.1826  0.3218 -0.1720
  640MOL0     H86388   0.761   4.565  11.032 -0.0562  0.3374 -0.5579
  640MOL0     H86389   0.724   4.739  11.034 -0.0143 -1.4630 -3.2717
  640MOL0     H86390   0.561   4.672  11.234 -0.0427  0.6275 -0.3618
  640MOL0     H86391   0.591   4.506  11.198 -1.5433 -1.6240 -3.9572
  640MOL0     H86392   0.503   4.556  10.952 -3.9387  2.0536 -2.1291
  640MOL0     H86393   0.457   4.718  11.008 -0.9810  1.0927 -0.5452
  640MOL0     H86394   0.333   4.456  11.123  0.2704 -0.8283  0.0404
  640MOL0     H86395   0.309   4.620  11.174  0.3551  0.2619 -0.2487
  640MOL0     H86396   0.094   4.547  10.812  0.4787 -0.6118  0.4306
  640MOL0     H86397   0.979   4.679  10.985  3.6886 -0.5438 -1.0650
  640MOL0     H86398   1.314   4.732  10.971 -0.2120 -0.3684  4.9752
  640MOL0     H86399   1.159   4.717  10.883 -2.5768 -2.0487  2.8615
  640MOL0     H86400   1.210   4.871  10.945  3.3821 -0.7969 -2.8216
  641MOL0     O86401   6.204   8.777   4.840 -0.8253 -0.5381  0.5604
  641MOL0     C86402   6.261   8.836   4.748  0.3181 -0.6552  0.6339
  641MOL0     O86403   6.204   8.912   4.650  0.2379  0.2587 -0.2466
  641MOL0     C86404   6.069   8.926   4.670  0.4036 -0.1258 -0.8228
  641MOL0     C86405   6.022   9.004   4.781  0.2055  0.6669  0.1139
  641MOL0     C86406   5.890   9.009   4.815 -0.0223 -0.0461 -0.1863
  641MOL0     C86407   5.799   8.945   4.725  0.2035  0.5071  0.4203
  641MOL0     O86408   5.666   8.958   4.754 -0.0544 -0.0783 -0.4394
  641MOL0     C86409   5.569   8.852   4.729 -0.2163  0.6595 -0.6642
  641MOL0     C86410   5.448   8.882   4.808 -0.3685 -0.3947 -0.2937
  641MOL0     C86411   5.362   8.759   4.814  0.6989 -0.2358 -0.7952
  641MOL0     C86412   5.222   8.783   4.878  0.0881  0.6360 -0.3967
  641MOL0     C86413   5.120   8.826   4.772  0.4768 -0.5020  0.4499
  641MOL0     C86414   4.997   8.884   4.834  0.0298 -1.3520 -0.5183
  641MOL0     C86415   4.902   8.787   4.918  0.2820  0.1139  0.4532
  641MOL0     C86416   4.840   8.668   4.832 -0.6711  0.3883  0.1065
  641MOL0     N86417   4.738   8.605   4.912  0.1169  0.1636 -0.6208
  641MOL0     C86418   4.600   8.624   4.899  0.0713 -0.3797  0.9674
  641MOL0     C86419   4.543   8.541   4.989  0.4718 -0.6641 -0.3276
  641MOL0     C86420   4.394   8.528   5.030 -0.4520  0.4722  0.0028
  641MOL0     C86421   4.366   8.387   5.077 -0.1249 -0.2946 -0.5021
  641MOL0     C86422   4.210   8.359   5.079  0.4810 -0.2366 -0.3381
  641MOL0     C86423   4.179   8.214   5.098 -0.7250  0.4988 -0.7736
  641MOL0     O86424   4.210   8.171   5.229 -0.7831  0.1724  0.4871
  641MOL0     C86425   4.107   8.182   5.315  0.4480  1.1003 -0.1795
  641MOL0     C86426   3.986   8.122   5.288  0.5379 -0.4519  0.2362
  641MOL0     C86427   3.870   8.161   5.369 -1.0366  0.1523 -0.9096
  641MOL0     C86428   3.889   8.250   5.483  1.0184  0.5766  0.0814
  641MOL0     C86429   3.782   8.306   5.567  0.3407  0.1786 -0.0317
  641MOL0     O86430   3.658   8.310   5.512  0.4648 -0.0335 -0.0356
  641MOL0     C86431   3.555   8.313   5.605  0.7914 -0.0820  0.0337
  641MOL0     C86432   3.520   8.198   5.673  0.5310 -1.0073 -0.8031
  641MOL0     C86433   3.401   8.190   5.739  0.0398 -1.0258 -0.0433
  641MOL0     C86434   3.331   8.310   5.770  1.3858 -0.4368 -0.6224
  641MOL0     O86435   3.209   8.286   5.836  0.1840  0.2294  0.1084
  641MOL0     C86436   3.187   8.368   5.963  0.1712  1.2783 -0.0265
  641MOL0     C86437   3.098   8.287   6.057  0.2825  0.8461 -0.2682
  641MOL0     C86438   3.103   8.323   6.203 -0.8472  0.6213  0.6658
  641MOL0     C86439   3.013   8.229   6.287 -0.4074 -0.2322  0.0110
  641MOL0     C86440   3.035   8.267   6.443 -0.2634  0.8600 -0.0212
  641MOL0     C86441   2.916   8.219   6.528  0.1407 -0.4807  0.0323
  641MOL0     C86442   2.933   8.215   6.680 -0.5546  0.5626  1.2698
  641MOL0     C86443   2.946   8.355   6.754 -0.6589 -0.0511 -0.2418
  641MOL0    Cl86444   3.040   8.334   6.908  0.0823  0.3900  0.1716
  641MOL0     C86445   3.361   8.433   5.706  0.8756 -0.1625  0.3400
  641MOL0     C86446   3.465   8.426   5.610  0.3138 -0.2043 -0.0658
  641MOL0     O86447   3.808   8.337   5.681  0.2713  0.7074 -0.1038
  641MOL0     C86448   4.017   8.301   5.504  0.0271  1.0879 -0.9775
  641MOL0     C86449   4.117   8.274   5.415  0.1888 -0.6494 -0.3280
  641MOL0     N86450   4.648   8.477   5.059 -0.3513 -0.4103 -0.8753
  641MOL0     N86451   4.758   8.508   5.011  0.2225  0.0000 -0.0026
  641MOL0     C86452   5.845   8.867   4.614 -0.2488  0.2037 -0.1376
  641MOL0     C86453   5.983   8.860   4.594 -0.2986  0.5995 -0.3479
  641MOL0     C86454   6.405   8.813   4.751 -0.3656  0.1044 -0.5883
  641MOL0     C86455   6.458   8.689   4.785  0.2207 -0.3503 -0.0044
  641MOL0     C86456   6.591   8.651   4.774  0.7958 -0.2818 -0.0312
  641MOL0     C86457   6.690   8.740   4.742  0.7947 -0.2991 -0.0425
  641MOL0     O86458   6.822   8.705   4.735  0.8656 -0.9617  0.8763
  641MOL0     C86459   6.918   8.805   4.693  0.1184  0.5684  0.8915
  641MOL0     C86460   7.064   8.754   4.726 -0.2936  0.0283  0.0020
  641MOL0     C86461   7.116   8.655   4.625  0.8407  0.2649 -0.2811
  641MOL0     C86462   7.153   8.727   4.500  0.0601 -0.2369 -0.1550
  641MOL0     C86463   7.266   8.816   4.501 -0.7318  0.0946 -0.0476
  641MOL0     C86464   7.367   8.887   4.485 -0.4808  0.4120 -0.4209
  641MOL0     C86465   6.638   8.872   4.715 -0.4416  0.3286 -0.0078
  641MOL0     C86466   6.504   8.910   4.715  0.6502  0.1070  0.7273
  641MOL0     C86467   6.469   9.051   4.683 -0.4876 -0.3804  0.8004
  641MOL0     H86468   6.084   9.060   4.851 -0.1990  1.3863 -0.0910
  641MOL0     H86469   5.848   9.065   4.898 -2.5918  0.7845 -1.9163
  641MOL0     H86470   5.535   8.844   4.626 -2.1812 -1.5052  0.0667
  641MOL0     H86471   5.615   8.758   4.760 -1.6959  0.1123 -0.0681
  641MOL0     H86472   5.397   8.962   4.753  1.0971 -1.0981 -2.8090
  641MOL0     H86473   5.466   8.937   4.901  0.4115 -2.8782  1.1109
  641MOL0     H86474   5.410   8.685   4.878 -0.4147 -0.3535 -0.0677
  641MOL0     H86475   5.353   8.717   4.714  0.4172 -0.1200 -0.8217
  641MOL0     H86476   5.183   8.694   4.929 -2.0737  0.0602 -2.8357
  641MOL0     H86477   5.236   8.851   4.963  1.0520 -1.5943  1.3345
  641MOL0     H86478   5.153   8.917   4.721 -1.7804  1.1602  1.8286
  641MOL0     H86479   5.113   8.739   4.705 -1.4400 -2.4396  2.9760
  641MOL0     H86480   5.024   8.966   4.901 -0.0950 -2.0315  0.3781
  641MOL0     H86481   4.946   8.944   4.758  0.8665 -4.1972 -3.5733
  641MOL0     H86482   4.835   8.871   4.942  2.9371  2.4709  0.2211
  641MOL0     H86483   4.943   8.749   5.012  1.1366  0.5157  0.2537
  641MOL0     H86484   4.808   8.697   4.731  0.3850  3.2179  0.4768
  641MOL0     H86485   4.914   8.589   4.823 -3.2564 -2.1181 -0.8382
  641MOL0     H86486   4.542   8.683   4.829  1.1364 -1.3412 -0.7872
  641MOL0     H86487   4.365   8.594   5.112 -4.6576  0.8439 -1.5253
  641MOL0     H86488   4.325   8.557   4.950 -0.9993  0.3767  0.4390
  641MOL0     H86489   4.411   8.315   5.008 -0.0433 -2.7869  1.9485
  641MOL0     H86490   4.412   8.380   5.176  1.3871  1.5869 -1.0288
  641MOL0     H86491   4.163   8.395   4.988  2.2786  0.9798 -0.8320
  641MOL0     H86492   4.161   8.414   5.160  2.5516 -1.0584  1.6010
  641MOL0     H86493   4.232   8.150   5.027  0.2006  0.2861  0.0927
  641MOL0     H86494   4.074   8.203   5.072 -1.2523 -0.8257  1.6506
  641MOL0     H86495   3.977   8.056   5.202 -1.0172  0.1082 -0.0614
  641MOL0     H86496   3.767   8.135   5.349 -2.2836  4.2414 -0.6444
  641MOL0     H86497   3.586   8.112   5.672  0.1382 -1.4797  2.5643
  641MOL0     H86498   3.359   8.102   5.787  0.6382 -0.3715  1.7510
  641MOL0     H86499   3.279   8.409   6.006 -0.4865  1.3873  1.3188
  641MOL0     H86500   3.133   8.458   5.931  0.4058  1.2535 -0.4964
  641MOL0     H86501   2.998   8.309   6.018  0.2699  2.8663  0.7724
  641MOL0     H86502   3.126   8.182   6.050  1.3960  1.0191  1.0767
  641MOL0     H86503   3.210   8.313   6.226 -0.5265 -1.9098 -1.4088
  641MOL0     H86504   3.060   8.423   6.198 -0.5313  0.6878 -1.7224
  641MOL0     H86505   3.034   8.122   6.277  0.9919  0.1526 -1.5407
  641MOL0     H86506   2.909   8.252   6.260  0.3540  3.0586 -0.5775
  641MOL0     H86507   3.034   8.376   6.446  0.3889  1.0611 -3.2827
  641MOL0     H86508   3.130   8.235   6.487 -0.9325  1.6956  2.1611
  641MOL0     H86509   2.832   8.282   6.497  0.1447 -0.8611 -0.7753
  641MOL0     H86510   2.899   8.114   6.503  0.2894 -0.5173  0.0887
  641MOL0     H86511   3.014   8.150   6.715  1.7993  0.9874 -2.7731
  641MOL0     H86512   2.841   8.165   6.712 -1.6854  2.1827  0.6400
  641MOL0     H86513   3.006   8.419   6.688 -1.0876  0.3476 -0.2547
  641MOL0     H86514   2.854   8.409   6.780 -0.2582  0.2055  0.6711
  641MOL0     H86515   3.287   8.512   5.711 -0.6580 -1.6115  1.4130
  641MOL0     H86516   3.478   8.501   5.533 -0.2011 -0.0489 -0.0032
  641MOL0     H86517   4.047   8.377   5.575  0.9792  0.7659 -1.0159
  641MOL0     H86518   4.210   8.329   5.428  0.6208 -0.4545 -3.4049
  641MOL0     H86519   5.775   8.814   4.550 -0.1332 -1.2427  0.8825
  641MOL0     H86520   6.036   8.800   4.521  2.6865  0.7924  1.4985
  641MOL0     H86521   6.392   8.609   4.818  0.7470 -0.9769 -0.4476
  641MOL0     H86522   6.632   8.557   4.811 -1.1183 -0.8941  0.6417
  641MOL0     H86523   6.904   8.893   4.756  2.3495 -0.4194  2.9150
  641MOL0     H86524   6.901   8.830   4.588  1.2053  0.3843  0.6544
  641MOL0     H86525   7.066   8.707   4.825  1.2982 -0.3653 -0.2007
  641MOL0     H86526   7.115   8.850   4.729 -1.7818  0.8879 -0.9674
  641MOL0     H86527   7.045   8.575   4.603  0.7495  0.4811 -0.7855
  641MOL0     H86528   7.200   8.605   4.674 -1.7048 -3.3046  0.8804
  641MOL0     H86529   7.200   8.653   4.435  2.9013  0.2732  1.1849
  641MOL0     H86530   7.074   8.794   4.463  0.2349  0.7306  1.1687
  641MOL0     H86531   7.452   8.951   4.472 -1.4211  3.2979  4.8264
  641MOL0     H86532   6.710   8.944   4.676 -0.9994  0.5968 -0.5665
  641MOL0     H86533   6.548   9.118   4.718 -0.9993  0.9359 -0.4647
  641MOL0     H86534   6.463   9.060   4.574  4.4668 -0.3105  0.2910
  641MOL0     H86535   6.383   9.090   4.737  0.6027 -1.4647  3.4806
  642MOL0     O86536   4.819  10.222   2.151 -0.8820  0.8816 -0.1472
  642MOL0     C86537   4.825  10.314   2.235  0.6477 -0.1058  0.0116
  642MOL0     O86538   4.905  10.321   2.352 -0.3300  0.8316 -0.6394
  642MOL0     C86539   4.989  10.219   2.392 -0.3764  0.7181  0.8827
  642MOL0     C86540   5.116  10.265   2.446  0.8679 -0.1405  0.2562
  642MOL0     C86541   5.211  10.174   2.478  0.9500 -1.0665  0.6714
  642MOL0     C86542   5.186  10.046   2.456 -0.1292  0.1475 -0.4666
  642MOL0     O86543   5.281   9.948   2.455  0.0875  0.2708  0.4487
  642MOL0     C86544   5.297   9.863   2.333 -0.8271  0.0878  0.7815
  642MOL0     C86545   5.320   9.712   2.369  0.0541 -0.4530  0.6357
  642MOL0     C86546   5.203   9.647   2.439  0.1595  0.1771 -0.0326
  642MOL0     C86547   5.193   9.494   2.432  0.1661 -0.5368  0.7200
  642MOL0     C86548   5.120   9.443   2.308 -0.3315 -0.1804 -0.2066
  642MOL0     C86549   5.103   9.289   2.302 -1.0094  0.1078 -0.2553
  642MOL0     C86550   5.005   9.246   2.193  0.4967 -0.6462 -0.2287
  642MOL0     C86551   4.992   9.093   2.180  0.2280 -0.0122  0.2433
  642MOL0     N86552   4.854   9.047   2.146 -0.4514  0.7666 -0.2407
  642MOL0     C86553   4.758   9.004   2.241  1.1676 -0.0130 -0.2582
  642MOL0     C86554   4.664   8.941   2.160 -0.3604  0.1865 -0.3785
  642MOL0     C86555   4.533   8.884   2.199 -0.5793 -1.2063  0.2536
  642MOL0     C86556   4.421   8.981   2.156 -0.0700 -0.7939  0.6182
  642MOL0     C86557   4.347   9.063   2.262 -0.4001  0.0914 -0.2855
  642MOL0     C86558   4.444   9.156   2.337  0.2867 -0.8615 -0.1265
  642MOL0     O86559   4.479   9.083   2.457  0.0257  0.2195  1.2992
  642MOL0     C86560   4.568   9.154   2.539  0.6074 -0.4633 -0.3111
  642MOL0     C86561   4.640   9.280   2.524 -0.8073  0.2286 -0.7804
  642MOL0     C86562   4.714   9.338   2.628  0.9100 -0.5695 -0.2954
  642MOL0     C86563   4.726   9.272   2.753  0.8009 -0.1855  0.4763
  642MOL0     C86564   4.798   9.333   2.859 -0.2138  0.5582  0.2915
  642MOL0     O86565   4.809   9.272   2.977  0.5789  0.4090 -0.1602
  642MOL0     C86566   4.885   9.322   3.078  0.8288 -0.0162 -0.5329
  642MOL0     C86567   5.019   9.331   3.063  0.0782  0.1992  0.6642
  642MOL0     C86568   5.104   9.378   3.163  0.5990  0.0995 -0.7131
  642MOL0     C86569   5.046   9.419   3.283 -0.4833 -0.6281 -0.3235
  642MOL0     O86570   5.114   9.468   3.390 -1.1815 -0.2579  0.5845
  642MOL0     C86571   5.249   9.426   3.411 -0.4720  0.3775  0.0387
  642MOL0     C86572   5.344   9.514   3.348  0.0602  0.1844 -0.0098
  642MOL0     C86573   5.372   9.640   3.431 -0.5510 -0.2250  0.3577
  642MOL0     C86574   5.479   9.730   3.357  0.0608 -1.0158 -0.0799
  642MOL0     C86575   5.549   9.834   3.465  0.5587 -0.5697  0.5466
  642MOL0     C86576   5.657   9.773   3.549 -0.8800  0.1252 -0.0517
  642MOL0     C86577   5.720   9.877   3.635  0.1284 -1.1825 -1.4183
  642MOL0     C86578   5.612   9.951   3.718  0.0405 -1.0522  0.1510
  642MOL0    Cl86579   5.695  10.059   3.842 -0.5278  0.1860  0.2586
  642MOL0     C86580   4.909   9.411   3.302 -0.0307  0.9471  0.1549
  642MOL0     C86581   4.827   9.357   3.200 -0.1966 -0.1832 -0.3819
  642MOL0     O86582   4.852   9.437   2.833  0.1749 -0.3955 -0.9939
  642MOL0     C86583   4.656   9.149   2.768  0.5659 -0.0388 -0.2304
  642MOL0     C86584   4.587   9.090   2.661 -0.2156  0.0774 -0.1272
  642MOL0     N86585   4.706   8.940   2.027  0.2242  0.2988 -0.0926
  642MOL0     N86586   4.813   9.003   2.020 -0.8005 -0.5127  0.3304
  642MOL0     C86587   5.059  10.002   2.408  0.6692  0.6788  0.7308
  642MOL0     C86588   4.961  10.081   2.381  0.0875  0.7233  0.7378
  642MOL0     C86589   4.737  10.431   2.218 -0.5439  0.0942 -0.3678
  642MOL0     C86590   4.688  10.440   2.090  0.4516  0.1174 -0.0924
  642MOL0     C86591   4.621  10.555   2.043 -0.1251 -0.7776 -0.2975
  642MOL0     C86592   4.587  10.663   2.138  0.5846 -0.4691  0.7046
  642MOL0     O86593   4.517  10.772   2.112  0.4549  1.1430  0.1357
  642MOL0     C86594   4.450  10.782   1.985 -0.3279  0.3527 -0.7449
  642MOL0     C86595   4.330  10.859   2.023  0.1947  0.0283  0.4076
  642MOL0     C86596   4.361  11.002   2.055  0.0450  0.8856  1.1771
  642MOL0     C86597   4.245  11.067   2.118  0.3841  0.2013  0.5795
  642MOL0     C86598   4.136  11.101   2.022  0.0375 -0.2437  0.5941
  642MOL0     C86599   4.045  11.141   1.940  0.3181 -0.2360 -0.1872
  642MOL0     C86600   4.635  10.647   2.266  1.0616 -0.4738 -0.2972
  642MOL0     C86601   4.720  10.539   2.310  0.2710  0.7429  0.6176
  642MOL0     C86602   4.758  10.542   2.455  0.1552  0.1949 -0.1407
  642MOL0     H86603   5.122  10.372   2.467 -0.5578  0.0397 -0.0915
  642MOL0     H86604   5.311  10.210   2.499  1.7502 -0.1392 -3.7947
  642MOL0     H86605   5.213   9.880   2.264  1.3038 -0.2253 -2.0623
  642MOL0     H86606   5.380   9.899   2.272 -0.3686  1.8888  2.3710
  642MOL0     H86607   5.405   9.717   2.437 -1.2304  3.0393  2.2236
  642MOL0     H86608   5.349   9.650   2.284  0.4141  2.5697 -1.6415
  642MOL0     H86609   5.112   9.700   2.410  1.5722  1.7209 -1.9100
  642MOL0     H86610   5.215   9.671   2.545  2.2641  1.0668 -0.4192
  642MOL0     H86611   5.291   9.453   2.458  0.5872  1.0409  1.7720
  642MOL0     H86612   5.134   9.474   2.521  0.4063 -0.2055  0.9547
  642MOL0     H86613   5.022   9.489   2.301  0.3541  1.2331 -0.9707
  642MOL0     H86614   5.173   9.478   2.218 -0.1416 -0.9477 -0.4038
  642MOL0     H86615   5.198   9.236   2.284 -0.1504  0.4632  2.6722
  642MOL0     H86616   5.065   9.258   2.400 -0.1629  1.8850  0.6774
  642MOL0     H86617   5.030   9.281   2.093 -0.4818 -1.0489 -0.6334
  642MOL0     H86618   4.906   9.291   2.209 -0.5411 -3.2007  1.2714
  642MOL0     H86619   5.064   9.063   2.104 -0.4585 -0.3430 -0.2862
  642MOL0     H86620   5.009   9.050   2.280 -3.4895 -1.9018  0.2465
  642MOL0     H86621   4.760   9.018   2.348 -0.1993  2.1768 -0.4548
  642MOL0     H86622   4.513   8.790   2.145  2.0937 -1.0373 -1.1863
  642MOL0     H86623   4.537   8.865   2.306 -3.0476 -1.7849  0.3212
  642MOL0     H86624   4.456   9.053   2.082 -0.1276  0.2462  1.5723
  642MOL0     H86625   4.348   8.919   2.102  0.0380 -0.0838 -0.3518
  642MOL0     H86626   4.304   8.998   2.339  0.2304  0.5452  0.4615
  642MOL0     H86627   4.266   9.122   2.217  0.2541  3.2278  2.2755
  642MOL0     H86628   4.403   9.253   2.366 -0.7948 -1.2475 -0.2791
  642MOL0     H86629   4.528   9.180   2.271 -0.2869  1.0886 -0.1940
  642MOL0     H86630   4.642   9.329   2.427 -1.1137  1.1248 -0.3397
  642MOL0     H86631   4.753   9.439   2.619 -2.8666  0.9477 -1.2564
  642MOL0     H86632   5.067   9.302   2.970  2.4035  2.4180  1.0507
  642MOL0     H86633   5.210   9.376   3.141  0.3629  0.5595 -2.0109
  642MOL0     H86634   5.279   9.412   3.515  0.3673  0.3837 -0.1940
  642MOL0     H86635   5.274   9.326   3.376 -0.2539 -0.0814  1.4603
  642MOL0     H86636   5.434   9.452   3.345 -0.1898 -0.1671 -0.2999
  642MOL0     H86637   5.318   9.535   3.244  1.9366 -1.2688 -0.8180
  642MOL0     H86638   5.279   9.692   3.453  0.6895  2.4483 -0.3086
  642MOL0     H86639   5.410   9.596   3.523  1.7786  1.6093  0.3694
  642MOL0     H86640   5.430   9.789   3.279  0.1315 -1.6356 -0.6021
  642MOL0     H86641   5.561   9.673   3.312  0.6137  0.4527 -1.0355
  642MOL0     H86642   5.477   9.882   3.532 -0.5639  1.6433 -2.0527
  642MOL0     H86643   5.584   9.920   3.409 -1.5891  1.5445  2.2117
  642MOL0     H86644   5.622   9.693   3.614 -1.5458  0.0991 -0.4315
  642MOL0     H86645   5.732   9.724   3.486  1.1954  1.5221  1.2199
  642MOL0     H86646   5.782   9.946   3.578  1.2493  1.6268  2.7509
  642MOL0     H86647   5.780   9.815   3.702  1.5274  2.4897  1.0457
  642MOL0     H86648   5.550  10.014   3.653  0.5021 -2.2565 -1.5084
  642MOL0     H86649   5.549   9.885   3.779  0.7206  0.4334  2.6122
  642MOL0     H86650   4.872   9.456   3.393  0.9038 -0.3571  1.2235
  642MOL0     H86651   4.719   9.358   3.210 -0.1665 -1.4717  0.3240
  642MOL0     H86652   4.673   9.095   2.860  2.7134  0.9184 -0.0040
  642MOL0     H86653   4.531   8.997   2.668  2.8147 -1.8374  0.1268
  642MOL0     H86654   5.042   9.896   2.396 -0.0566  0.8622  0.0471
  642MOL0     H86655   4.865  10.040   2.354  0.1506  1.0274  0.0325
  642MOL0     H86656   4.707  10.357   2.021  0.5628 -2.5957  2.9721
  642MOL0     H86657   4.596  10.564   1.938  1.2726 -1.6516 -0.7354
  642MOL0     H86658   4.429  10.687   1.935  0.7066 -1.3302  1.7814
  642MOL0     H86659   4.513  10.834   1.912 -0.1572  1.9731  0.5206
  642MOL0     H86660   4.286  10.820   2.115 -0.2063  0.3253  0.3472
  642MOL0     H86661   4.250  10.859   1.948 -0.1973 -2.2190  0.7503
  642MOL0     H86662   4.375  11.053   1.960 -0.4713  0.4057  0.8407
  642MOL0     H86663   4.446  11.011   2.125  0.6499 -0.8490  0.7266
  642MOL0     H86664   4.205  10.994   2.189  0.9087  0.5941  1.2973
  642MOL0     H86665   4.279  11.155   2.173  0.9632 -1.1594  2.5151
  642MOL0     H86666   3.974  11.179   1.869  1.6166  0.1094 -1.3527
  642MOL0     H86667   4.607  10.728   2.332 -0.0229  0.9925 -2.4266
  642MOL0     H86668   4.708  10.626   2.506 -2.3414 -0.8024 -0.8056
  642MOL0     H86669   4.715  10.451   2.497 -1.1315  0.5774 -0.5554
  642MOL0     H86670   4.867  10.547   2.467 -0.0351 -0.9780  2.8838
  643MOL0     O86671   7.979  10.499   2.427 -0.4917 -0.6060 -0.5351
  643MOL0     C86672   8.049  10.537   2.526 -0.9639 -0.4363  0.2955
  643MOL0     O86673   7.993  10.588   2.642  0.2773 -0.5593 -0.6556
  643MOL0     C86674   7.858  10.586   2.645  0.0536 -0.0549  0.0419
  643MOL0     C86675   7.771  10.670   2.571 -0.4846 -0.5702 -0.1088
  643MOL0     C86676   7.630  10.665   2.588  0.0553  0.4684 -0.5570
  643MOL0     C86677   7.574  10.574   2.672 -0.0279 -0.7343  0.0645
  643MOL0     O86678   7.431  10.581   2.674  0.5439 -0.1260 -0.1268
  643MOL0     C86679   7.358  10.472   2.715  0.7424  0.2490  0.6863
  643MOL0     C86680   7.220  10.510   2.777 -0.1474 -0.7789  0.1015
  643MOL0     C86681   7.119  10.558   2.667 -0.0248  0.5337 -0.0732
  643MOL0     C86682   6.992  10.590   2.732 -0.4477  0.0844  0.2292
  643MOL0     C86683   6.917  10.454   2.741  0.4186 -0.0036 -0.5167
  643MOL0     C86684   6.797  10.479   2.832  0.4347  1.0448  0.0691
  643MOL0     C86685   6.699  10.588   2.799 -0.1231  0.7164 -0.5017
  643MOL0     C86686   6.603  10.547   2.679  0.3879 -0.7129 -0.9345
  643MOL0     N86687   6.535  10.660   2.617 -0.2840 -0.7433 -0.3098
  643MOL0     C86688   6.418  10.727   2.656  0.2690 -0.3030  0.5932
  643MOL0     C86689   6.377  10.786   2.542 -0.8354 -0.4654  0.2441
  643MOL0     C86690   6.244  10.859   2.531  0.0429  1.2769  0.6101
  643MOL0     C86691   6.228  10.977   2.618 -1.3585 -0.5221  0.2862
  643MOL0     C86692   6.083  11.002   2.640 -0.0564  0.3383 -0.3024
  643MOL0     C86693   6.017  11.081   2.528 -0.2561  0.3000 -0.5987
  643MOL0     O86694   6.030  10.995   2.412 -0.3563 -0.6498 -0.0824
  643MOL0     C86695   5.957  11.032   2.309  0.0130  0.9347  0.0958
  643MOL0     C86696   5.926  10.940   2.205 -0.7719 -0.8627  1.0509
  643MOL0     C86697   5.865  10.967   2.088  0.0450 -0.3555 -0.2532
  643MOL0     C86698   5.812  11.094   2.071 -0.2089  0.3589 -0.3466
  643MOL0     C86699   5.739  11.125   1.952  0.0803 -0.6667  1.2949
  643MOL0     O86700   5.698  11.017   1.873 -0.2158  0.1041 -0.4281
  643MOL0     C86701   5.597  11.041   1.786  0.1704 -0.8436  0.1066
  643MOL0     C86702   5.628  11.087   1.658 -0.9645 -0.4075  0.0074
  643MOL0     C86703   5.534  11.103   1.564 -0.3641 -1.0357  0.7666
  643MOL0     C86704   5.397  11.082   1.588 -0.1998 -0.3236  0.2904
  643MOL0     O86705   5.289  11.106   1.497  0.4547 -0.1397 -0.1833
  643MOL0     C86706   5.302  11.170   1.369  0.1974 -1.0504 -0.1345
  643MOL0     C86707   5.190  11.129   1.285  0.3325  0.6009 -0.1352
  643MOL0     C86708   5.051  11.190   1.321  0.2132  0.7988  0.2432
  643MOL0     C86709   4.946  11.138   1.224  0.8640 -0.2431  1.0152
  643MOL0     C86710   4.817  11.206   1.246  0.3183 -0.3916  0.7192
  643MOL0     C86711   4.704  11.125   1.205 -0.0558  0.3529  0.6684
  643MOL0     C86712   4.574  11.198   1.232 -0.5436 -0.5063 -0.3729
  643MOL0     C86713   4.456  11.109   1.210 -0.7684  0.4702 -0.6636
  643MOL0    Cl86714   4.298  11.186   1.254  0.4323 -0.1538  0.3127
  643MOL0     C86715   5.364  11.037   1.721 -0.3847  0.1148 -0.8474
  643MOL0     C86716   5.464  11.012   1.813  0.1749  0.5897  1.3381
  643MOL0     O86717   5.717  11.244   1.919 -0.4770 -0.4366  0.0212
  643MOL0     C86718   5.843  11.195   2.167 -0.5805  0.5673  0.1859
  643MOL0     C86719   5.908  11.166   2.286 -0.0647 -0.7334 -0.5429
  643MOL0     N86720   6.473  10.771   2.446 -0.5540 -0.3512  0.6626
  643MOL0     N86721   6.561  10.686   2.485 -0.2567  0.1565 -0.0765
  643MOL0     C86722   7.657  10.493   2.754 -0.0843 -0.1039 -0.3814
  643MOL0     C86723   7.795  10.503   2.735  0.0321 -0.4541 -0.2478
  643MOL0     C86724   8.200  10.522   2.517  0.6043 -0.5723  0.2762
  643MOL0     C86725   8.288  10.563   2.615  0.0905  0.4400 -0.3193
  643MOL0     C86726   8.425  10.536   2.610 -0.5375 -0.2463  1.0201
  643MOL0     C86727   8.485  10.482   2.495  0.1309 -0.5355 -0.2427
  643MOL0     O86728   8.620  10.474   2.476  0.1773  0.2682 -0.0738
  643MOL0     C86729   8.720  10.523   2.575  0.2490  0.1502  0.6299
  643MOL0     C86730   8.861  10.493   2.525 -0.6100 -0.0356  0.3484
  643MOL0     C86731   8.867  10.505   2.370 -0.5169 -0.1108  1.1389
  643MOL0     C86732   9.013  10.495   2.320 -0.6745  0.1506  0.9328
  643MOL0     C86733   9.004  10.451   2.172 -0.3492  0.0223  0.1318
  643MOL0     C86734   9.022  10.416   2.059  0.0742  0.5976 -0.0763
  643MOL0     C86735   8.404  10.447   2.389  0.5420 -0.4892  1.0798
  643MOL0     C86736   8.258  10.461   2.396 -0.4032  0.5448 -0.1535
  643MOL0     C86737   8.191  10.427   2.263  0.4090  0.0553  0.4877
  643MOL0     H86738   7.820  10.727   2.493 -1.0003 -0.5342 -0.4106
  643MOL0     H86739   7.567  10.738   2.539  1.5714  3.4962  1.7151
  643MOL0     H86740   7.341  10.411   2.626  0.4694  1.4458 -0.1044
  643MOL0     H86741   7.418  10.409   2.782 -0.1467  0.7150  1.9541
  643MOL0     H86742   7.241  10.585   2.855  0.9035 -1.7546  0.7971
  643MOL0     H86743   7.181  10.417   2.819 -1.6810 -0.7440 -1.1875
  643MOL0     H86744   7.109  10.483   2.587  0.6990  1.4218 -1.0284
  643MOL0     H86745   7.170  10.645   2.627  0.5749 -0.1813 -0.9120
  643MOL0     H86746   7.009  10.627   2.834  1.3138  0.3046 -0.1090
  643MOL0     H86747   6.937  10.659   2.668  0.8310  0.0092 -1.0013
  643MOL0     H86748   6.880  10.414   2.645 -1.6384 -3.2944  1.4291
  643MOL0     H86749   6.976  10.377   2.791 -0.4047  1.1423  2.4366
  643MOL0     H86750   6.752  10.380   2.824  1.0475  0.7217  0.5119
  643MOL0     H86751   6.828  10.494   2.936  0.9480 -0.1802  0.1114
  643MOL0     H86752   6.752  10.682   2.784 -1.7051  1.8680  0.7759
  643MOL0     H86753   6.638  10.598   2.889  1.7756  1.3406  0.7868
  643MOL0     H86754   6.656  10.500   2.596  1.6674  3.8024 -3.0423
  643MOL0     H86755   6.526  10.481   2.719  0.0536 -0.5599 -1.3184
  643MOL0     H86756   6.360  10.723   2.747 -0.4963  0.9287  0.1831
  643MOL0     H86757   6.247  10.885   2.425 -1.9840 -1.0206 -0.0965
  643MOL0     H86758   6.156  10.795   2.544  0.7876  0.1767  0.3118
  643MOL0     H86759   6.276  10.954   2.713  1.8004  0.1703 -0.9968
  643MOL0     H86760   6.281  11.063   2.577  0.6816 -2.6460 -1.9138
  643MOL0     H86761   6.074  11.061   2.731 -2.7273  1.5801 -1.2661
  643MOL0     H86762   6.036  10.908   2.669  0.4838  0.7707  2.2278
  643MOL0     H86763   6.068  11.178   2.521  0.4775  0.1772  2.0266
  643MOL0     H86764   5.911  11.097   2.549 -0.5315 -1.5668 -0.4632
  643MOL0     H86765   5.950  10.835   2.221 -2.2070 -1.4226 -0.2438
  643MOL0     H86766   5.854  10.886   2.017  0.1266  0.0091 -0.6893
  643MOL0     H86767   5.728  11.101   1.621 -0.9352 -0.9028 -0.0979
  643MOL0     H86768   5.573  11.112   1.463 -0.6869 -0.3748  0.6933
  643MOL0     H86769   5.282  11.277   1.381 -0.8489 -1.0842 -1.4050
  643MOL0     H86770   5.394  11.151   1.314  0.3779 -1.4644  0.3060
  643MOL0     H86771   5.210  11.164   1.183 -1.7954  2.8709  0.1257
  643MOL0     H86772   5.201  11.021   1.277  2.4976  0.7704 -0.1688
  643MOL0     H86773   5.023  11.183   1.427  1.6973 -0.9473  0.5732
  643MOL0     H86774   5.052  11.298   1.303  0.4474  0.8811  0.7339
  643MOL0     H86775   4.933  11.031   1.239 -0.2152 -0.4447 -0.9964
  643MOL0     H86776   4.976  11.157   1.121 -0.0924  1.7810  1.0526
  643MOL0     H86777   4.826  11.306   1.203  2.6010 -1.9938 -3.0518
  643MOL0     H86778   4.798  11.217   1.353 -2.3687 -0.3061  0.3073
  643MOL0     H86779   4.704  11.100   1.098  1.6284 -1.9575  1.1489
  643MOL0     H86780   4.709  11.028   1.255 -1.5492  0.2178  0.6159
  643MOL0     H86781   4.558  11.285   1.167 -3.6755 -1.3944 -0.9491
  643MOL0     H86782   4.575  11.237   1.334 -2.5081 -0.6450 -0.2625
  643MOL0     H86783   4.459  11.072   1.107  0.7495 -3.6463  0.6594
  643MOL0     H86784   4.474  11.021   1.273  1.0966 -1.2059 -3.3352
  643MOL0     H86785   5.264  10.998   1.737 -1.7648  3.6965  0.1549
  643MOL0     H86786   5.434  10.975   1.911 -1.9656 -0.3450  0.3933
  643MOL0     H86787   5.808  11.294   2.141  1.4659  0.8510 -1.8714
  643MOL0     H86788   5.915  11.248   2.357 -3.1961 -1.9145  1.3713
  643MOL0     H86789   7.619  10.408   2.810 -2.4736 -0.7506 -2.7484
  643MOL0     H86790   7.866  10.448   2.795  0.8779 -0.7625 -1.4950
  643MOL0     H86791   8.239  10.606   2.701 -1.4823 -2.2738  0.2697
  643MOL0     H86792   8.489  10.566   2.693  1.1054 -0.9340  0.0415
  643MOL0     H86793   8.699  10.489   2.677  0.9288 -1.0941  0.3797
  643MOL0     H86794   8.716  10.632   2.575 -0.5050  0.2192 -2.8017
  643MOL0     H86795   8.886  10.388   2.540 -0.4193 -0.1638 -0.7382
  643MOL0     H86796   8.934  10.564   2.563  1.7454 -2.0972 -0.1034
  643MOL0     H86797   8.824  10.594   2.323  0.7296 -1.7817 -3.7883
  643MOL0     H86798   8.809  10.421   2.331 -1.3325 -0.2530  2.5831
  643MOL0     H86799   9.056  10.594   2.334  0.9416 -0.1382 -1.5090
  643MOL0     H86800   9.085  10.437   2.379  0.0279  0.0904  0.0357
  643MOL0     H86801   9.041  10.379   1.960 -0.1713 -3.1459  1.1107
  643MOL0     H86802   8.456  10.398   2.307  2.4841 -4.3500  4.2761
  643MOL0     H86803   8.131  10.336   2.268 -0.2892  0.5607  2.4124
  643MOL0     H86804   8.145  10.523   2.234  1.2472  0.5751  0.8402
  643MOL0     H86805   8.261  10.406   2.182  0.9199 -2.9081  1.5764
  644MOL0     O86806   8.583  11.296   5.532  0.0266  1.0021 -0.6156
  644MOL0     C86807   8.563  11.268   5.416  0.7363 -0.6336  0.1024
  644MOL0     O86808   8.652  11.285   5.313 -0.0906  0.7726  0.2152
  644MOL0     C86809   8.782  11.331   5.361  0.3990 -0.6688 -0.9952
  644MOL0     C86810   8.796  11.467   5.390 -0.8913 -0.0982 -0.3973
  644MOL0     C86811   8.928  11.518   5.415 -0.5686  0.4727  0.5579
  644MOL0     C86812   9.043  11.436   5.409  0.6966 -0.2649  0.0727
  644MOL0     O86813   9.163  11.499   5.439  0.5181  0.4897 -0.3875
  644MOL0     C86814   9.276  11.424   5.408  0.9718  0.8108  0.5109
  644MOL0     C86815   9.399  11.517   5.432  1.2196  0.3778  1.3341
  644MOL0     C86816   9.537  11.457   5.411  0.2295  0.2497 -1.1116
  644MOL0     C86817   9.631  11.575   5.453  0.6497 -0.8003  0.2684
  644MOL0     C86818   9.777  11.540   5.443  0.2001  0.2594  0.3971
  644MOL0     C86819   9.819  11.522   5.298 -0.0543  0.4242  1.1470
  644MOL0     C86820   9.973  11.529   5.290 -0.1875  0.4729  0.5062
  644MOL0     C86821  10.050  11.399   5.282  0.4836 -0.0227 -0.1592
  644MOL0     N86822  10.197  11.409   5.289 -0.1920  0.0393  0.6936
  644MOL0     C86823  10.276  11.298   5.264  0.8136 -0.0030 -0.1190
  644MOL0     C86824  10.401  11.347   5.298 -0.5277  0.9785  0.0403
  644MOL0     C86825  10.519  11.254   5.318 -0.9254  0.3333  0.3623
  644MOL0     C86826  10.606  11.303   5.441 -0.2987 -0.1678 -0.7123
  644MOL0     C86827  10.707  11.190   5.478  0.0369  0.3011 -1.2978
  644MOL0     C86828  10.851  11.247   5.487  0.2001 -0.9280 -0.6922
  644MOL0     O86829  10.868  11.347   5.589  0.3548  0.5862 -0.8156
  644MOL0     C86830  11.003  11.368   5.610  0.4309 -0.2788 -1.1422
  644MOL0     C86831  11.112  11.302   5.555 -0.0648 -0.2041 -0.7928
  644MOL0     C86832  11.243  11.319   5.604 -0.9510  0.7692  1.6229
  644MOL0     C86833  11.269  11.404   5.708 -0.2420  0.1864 -0.0213
  644MOL0     C86834  11.406  11.445   5.754  0.7923 -1.6082  0.0776
  644MOL0     O86835  11.397  11.520   5.872 -0.4160 -0.0540  0.6016
  644MOL0     C86836  11.501  11.552   5.945 -0.7383  0.4061 -0.4406
  644MOL0     C86837  11.498  11.673   6.006  0.0954 -0.4088  1.0764
  644MOL0     C86838  11.614  11.722   6.071  0.4793 -0.2687  0.4343
  644MOL0     C86839  11.717  11.644   6.103 -0.1130  0.6416  0.3698
  644MOL0     O86840  11.823  11.688   6.179 -0.4418 -1.1754 -0.0110
  644MOL0     C86841  11.875  11.821   6.141 -0.1152  0.4868 -0.5955
  644MOL0     C86842  12.021  11.821   6.178  0.3340 -0.3687 -0.2990
  644MOL0     C86843  12.080  11.960   6.190  0.1095  0.4626  1.3653
  644MOL0     C86844  12.229  11.958   6.225  0.3338 -0.4774  0.8245
  644MOL0     C86845  12.287  12.100   6.206 -0.1278  0.0179 -0.4825
  644MOL0     C86846  12.438  12.111   6.255 -0.6546 -0.1122  0.0720
  644MOL0     C86847  12.507  12.218   6.172  0.0119 -0.7160  0.2975
  644MOL0     C86848  12.636  12.260   6.230  0.0350 -0.1749 -0.0782
  644MOL0    Cl86849  12.768  12.138   6.247  0.1779  0.4586 -0.2857
  644MOL0     C86850  11.712  11.510   6.063 -1.1413 -0.2454 -0.4747
  644MOL0     C86851  11.607  11.468   5.978  0.4565 -0.2883 -0.3825
  644MOL0     O86852  11.506  11.410   5.690 -0.1471  0.3907  0.0052
  644MOL0     C86853  11.162  11.476   5.756  0.8805  0.7888  0.3383
  644MOL0     C86854  11.032  11.454   5.716 -0.1744 -0.0968 -0.7568
  644MOL0     N86855  10.398  11.484   5.308 -0.3456 -0.1142  0.1695
  644MOL0     N86856  10.275  11.518   5.301 -0.4687  0.0314 -0.9047
  644MOL0     C86857   9.023  11.309   5.368  0.3951  0.8265 -0.0449
  644MOL0     C86858   8.894  11.250   5.347 -0.4723 -0.0286  0.1274
  644MOL0     C86859   8.444  11.183   5.371  0.1837 -0.3051  0.5162
  644MOL0     C86860   8.455  11.095   5.261 -0.1261  0.0108  0.5821
  644MOL0     C86861   8.349  11.011   5.221  0.1259  0.0149 -0.4743
  644MOL0     C86862   8.228  11.008   5.288  0.9483  0.5261  0.2932
  644MOL0     O86863   8.136  10.919   5.250  0.1696 -0.3859  0.4177
  644MOL0     C86864   7.997  10.970   5.263 -0.2496 -0.0559 -0.8436
  644MOL0     C86865   7.900  10.918   5.154 -0.2369 -0.4103 -0.4994
  644MOL0     C86866   7.904  11.007   5.030 -0.8430  0.6825 -0.2762
  644MOL0     C86867   7.831  11.141   5.039 -0.0475 -0.0249 -0.3771
  644MOL0     C86868   7.909  11.264   5.081 -0.2390  0.5678 -0.1187
  644MOL0     C86869   7.965  11.361   5.116 -1.2463  1.1265  0.3503
  644MOL0     C86870   8.218  11.091   5.401 -0.5723 -0.9279  0.3280
  644MOL0     C86871   8.319  11.177   5.442 -0.2260 -0.1589  0.4809
  644MOL0     C86872   8.291  11.264   5.559  0.6312  0.2708  0.1329
  644MOL0     H86873   8.718  11.541   5.374  0.2613  1.0392 -0.9741
  644MOL0     H86874   8.928  11.624   5.436 -0.2180  0.6686 -0.3808
  644MOL0     H86875   9.294  11.328   5.458  1.0339 -2.0778 -4.3666
  644MOL0     H86876   9.284  11.388   5.305  1.0606 -3.1535  1.7500
  644MOL0     H86877   9.385  11.565   5.530 -1.6960  6.3698 -1.5085
  644MOL0     H86878   9.386  11.600   5.362  0.5464 -1.2640 -0.5724
  644MOL0     H86879   9.559  11.437   5.306  0.2014  1.5301 -1.3676
  644MOL0     H86880   9.559  11.371   5.475 -0.3528  1.9487  1.5319
  644MOL0     H86881   9.611  11.656   5.382  0.4050  0.1227  1.3732
  644MOL0     H86882   9.601  11.605   5.553 -0.6842 -0.9265 -0.0831
  644MOL0     H86883   9.820  11.631   5.487 -0.1871 -0.3093  2.0126
  644MOL0     H86884   9.803  11.448   5.495  1.3243 -0.7412 -1.8094
  644MOL0     H86885   9.773  11.440   5.242 -1.5424  0.4055  2.3261
  644MOL0     H86886   9.787  11.611   5.244  1.5596  0.1693 -0.3037
  644MOL0     H86887  10.010  11.592   5.372 -0.5292 -0.0801  1.0940
  644MOL0     H86888   9.998  11.580   5.197 -0.4452  2.6271  1.5583
  644MOL0     H86889  10.016  11.347   5.373  0.7752 -3.8382 -2.0470
  644MOL0     H86890  10.010  11.339   5.200 -2.7026 -0.2765  1.4331
  644MOL0     H86891  10.246  11.197   5.241 -0.5739  0.8344 -2.3461
  644MOL0     H86892  10.489  11.149   5.313  1.2111 -0.2351 -2.2722
  644MOL0     H86893  10.570  11.270   5.223 -0.7451 -0.3797  0.3321
  644MOL0     H86894  10.675  11.386   5.420  0.0547 -0.2076  0.2173
  644MOL0     H86895  10.536  11.311   5.524 -1.9961 -0.9032 -2.0269
  644MOL0     H86896  10.711  11.106   5.408 -1.0014 -2.3735  1.5754
  644MOL0     H86897  10.676  11.152   5.576  1.8334  0.2905 -0.6867
  644MOL0     H86898  10.887  11.292   5.395  1.7365 -1.0260 -0.1768
  644MOL0     H86899  10.902  11.152   5.510 -2.2157 -1.9566  0.8120
  644MOL0     H86900  11.117  11.217   5.487 -0.0496  0.8808 -2.1772
  644MOL0     H86901  11.315  11.265   5.543 -3.1242  0.8685 -1.2840
  644MOL0     H86902  11.408  11.730   5.984  0.7349  0.9480  1.8372
  644MOL0     H86903  11.616  11.818   6.120  1.1280 -0.7365  1.3607
  644MOL0     H86904  11.858  11.834   6.034 -1.3047 -1.7476 -0.7433
  644MOL0     H86905  11.823  11.900   6.197  2.9421 -0.2223  3.7233
  644MOL0     H86906  12.024  11.778   6.278  0.6957  0.2570 -0.0365
  644MOL0     H86907  12.070  11.757   6.104  1.4564  1.8017 -1.5475
  644MOL0     H86908  12.055  12.013   6.098 -1.3521 -1.5597  0.5270
  644MOL0     H86909  12.024  12.014   6.267 -0.6012 -0.6437  1.6314
  644MOL0     H86910  12.283  11.887   6.162  0.1556  0.2585 -0.1826
  644MOL0     H86911  12.246  11.925   6.328 -0.0068 -2.5568  0.2456
  644MOL0     H86912  12.230  12.170   6.268 -0.0440 -1.3379  1.1667
  644MOL0     H86913  12.270  12.130   6.102 -1.4213 -0.8542 -0.5451
  644MOL0     H86914  12.441  12.130   6.362 -1.2831 -2.1105  0.4854
  644MOL0     H86915  12.487  12.016   6.231 -1.3819 -1.5008  3.5846
  644MOL0     H86916  12.442  12.303   6.149  0.1073 -0.9847 -1.0008
  644MOL0     H86917  12.526  12.176   6.073  1.9199 -1.5837  0.9691
  644MOL0     H86918  12.672  12.337   6.162  2.5839 -1.5511 -0.4259
  644MOL0     H86919  12.614  12.297   6.330 -0.0697  0.4464 -0.3314
  644MOL0     H86920  11.793  11.444   6.090 -1.0990  0.9363  2.7119
  644MOL0     H86921  11.607  11.367   5.939  0.2388 -0.2432 -0.5055
  644MOL0     H86922  11.181  11.544   5.838 -0.6012 -2.1009  3.3221
  644MOL0     H86923  10.949  11.497   5.770 -0.0263  0.2389 -0.7968
  644MOL0     H86924   9.107  11.243   5.347  1.0922  0.6953  2.7973
  644MOL0     H86925   8.874  11.152   5.305  0.5142  0.3878 -1.3733
  644MOL0     H86926   8.541  11.090   5.194  0.5473 -0.9814  1.4919
  644MOL0     H86927   8.356  10.940   5.138  0.8308 -0.8473  0.3067
  644MOL0     H86928   7.998  11.079   5.250  0.4571  0.1875  0.9723
  644MOL0     H86929   7.952  10.954   5.361  3.3026 -0.2781  0.9205
  644MOL0     H86930   7.800  10.927   5.199 -0.0556  0.4107 -0.2485
  644MOL0     H86931   7.913  10.818   5.111 -2.7021 -0.3347 -1.5986
  644MOL0     H86932   7.855  10.954   4.948 -1.1663 -0.1341  0.4258
  644MOL0     H86933   8.009  11.021   5.004 -0.0911  0.5471  2.4208
  644MOL0     H86934   7.780  11.176   4.949 -2.4148  0.8286  1.2001
  644MOL0     H86935   7.747  11.126   5.107 -1.7929  0.9297 -2.2132
  644MOL0     H86936   8.031  11.441   5.142  1.7293 -0.7704 -0.7791
  644MOL0     H86937   8.127  11.081   5.459 -0.7337 -2.3364 -0.1153
  644MOL0     H86938   8.373  11.277   5.629 -2.1542 -1.3925  4.0985
  644MOL0     H86939   8.256  11.362   5.525 -0.8445 -0.3933 -0.3795
  644MOL0     H86940   8.210  11.232   5.626  0.2435  3.4659  1.3632
  645MOL0     O86941   4.502   7.900   6.217  0.3160  0.2820  0.8796
  645MOL0     C86942   4.496   8.009   6.172 -0.1275 -0.6764 -0.3935
  645MOL0     O86943   4.593   8.064   6.091  0.1541  0.0867 -0.1214
  645MOL0     C86944   4.719   8.013   6.066 -0.2132  0.4673  0.6274
  645MOL0     C86945   4.788   7.902   6.132 -0.4610 -0.4049 -0.1512
  645MOL0     C86946   4.931   7.879   6.104  0.7328 -0.5637  0.3523
  645MOL0     C86947   4.993   7.956   6.017 -0.5476 -0.3228 -0.2712
  645MOL0     O86948   5.125   7.936   5.998 -0.2482 -0.2925  0.1116
  645MOL0     C86949   5.182   7.804   5.982  0.9335 -0.3084  0.1487
  645MOL0     C86950   5.329   7.810   5.942  0.1911  0.1919  0.4488
  645MOL0     C86951   5.389   7.675   5.906  0.3462  0.6532 -0.5895
  645MOL0     C86952   5.490   7.631   6.005  0.2160  0.5450 -0.8540
  645MOL0     C86953   5.560   7.512   5.947  0.4803 -0.0985  0.5605
  645MOL0     C86954   5.655   7.437   6.037  0.0875  0.2412  0.0920
  645MOL0     C86955   5.703   7.304   5.965 -0.8455 -0.3520  0.1372
  645MOL0     C86956   5.775   7.326   5.818  1.0698  0.4546  0.1268
  645MOL0     N86957   5.828   7.197   5.775  0.3936 -0.0508 -0.7824
  645MOL0     C86958   5.962   7.189   5.761  0.0672 -0.1556  0.2234
  645MOL0     C86959   5.980   7.072   5.696 -0.3111  0.1267  0.6810
  645MOL0     C86960   6.109   6.996   5.671 -0.0304  0.3286  0.0874
  645MOL0     C86961   6.207   7.061   5.578  0.6589  0.0583  0.3087
  645MOL0     C86962   6.300   6.966   5.503 -0.6153 -0.3286  0.6016
  645MOL0     C86963   6.404   6.874   5.578 -0.1428  0.0603 -0.0488
  645MOL0     O86964   6.325   6.765   5.635  1.1375  0.2729 -0.2809
  645MOL0     C86965   6.381   6.681   5.728  0.0249  0.0035  0.7025
  645MOL0     C86966   6.312   6.578   5.788 -0.6728 -0.1787  1.1442
  645MOL0     C86967   6.367   6.488   5.878  0.3416 -0.9811 -0.3162
  645MOL0     C86968   6.494   6.503   5.930 -0.2584  0.5099  0.1948
  645MOL0     C86969   6.560   6.411   6.028 -0.0274  0.2657  0.1508
  645MOL0     O86970   6.684   6.467   6.068 -0.4120  0.4210  0.2332
  645MOL0     C86971   6.760   6.375   6.129 -1.2744  0.8821 -0.3190
  645MOL0     C86972   6.798   6.386   6.264 -0.2739 -0.0119  0.0316
  645MOL0     C86973   6.886   6.293   6.319  0.4853 -0.4042 -0.1340
  645MOL0     C86974   6.936   6.194   6.243 -1.2361 -0.2789 -0.1979
  645MOL0     O86975   7.022   6.103   6.305 -0.3248 -0.0120 -0.8062
  645MOL0     C86976   6.974   5.972   6.287 -0.2300 -0.1675 -0.0672
  645MOL0     C86977   7.022   5.891   6.396  1.0102  0.9220  0.2533
  645MOL0     C86978   7.172   5.861   6.383  0.0403  0.7983  0.9184
  645MOL0     C86979   7.230   5.754   6.477 -0.2411 -0.1354 -0.3037
  645MOL0     C86980   7.374   5.710   6.437 -0.0367 -0.4349  0.3920
  645MOL0     C86981   7.419   5.604   6.543  0.2258 -0.3395  0.0801
  645MOL0     C86982   7.566   5.558   6.539  0.0073  0.0040 -0.0986
  645MOL0     C86983   7.623   5.473   6.656  0.3893  0.1384  0.2721
  645MOL0    Cl86984   7.633   5.557   6.803 -0.3008 -0.4925 -0.0113
  645MOL0     C86985   6.905   6.188   6.105 -0.7720  0.1046 -0.0828
  645MOL0     C86986   6.824   6.284   6.048  0.2487  0.0546  0.1802
  645MOL0     O86987   6.510   6.303   6.062  0.6643  0.3568 -0.3711
  645MOL0     C86988   6.558   6.617   5.886 -0.9383  0.4053  0.1868
  645MOL0     C86989   6.508   6.703   5.782  0.0570  0.0628 -0.6095
  645MOL0     N86990   5.849   7.012   5.678 -0.6492 -0.2424  0.1383
  645MOL0     N86991   5.760   7.094   5.714 -0.6934  0.4087  0.2119
  645MOL0     C86992   4.926   8.065   5.954  1.1810 -0.4916  0.8604
  645MOL0     C86993   4.795   8.097   5.982  0.5068  0.1745  0.2738
  645MOL0     C86994   4.369   8.086   6.189 -0.1844  0.5623 -0.4434
  645MOL0     C86995   4.364   8.224   6.143  0.5107 -0.4734 -0.3968
  645MOL0     C86996   4.246   8.299   6.141  0.0693  0.3458  0.8993
  645MOL0     C86997   4.123   8.240   6.186  0.1263 -0.7087  0.8024
  645MOL0     O86998   4.024   8.333   6.190  0.2161  0.2821  0.7140
  645MOL0     C86999   3.898   8.301   6.251 -0.7949 -0.0951 -0.1240
  645MOL0     C87000   3.815   8.421   6.255  0.3160 -0.0356  0.4515
  645MOL0     C87001   3.666   8.401   6.293  0.4427 -0.3619 -1.0425
  645MOL0     C87002   3.570   8.353   6.190  0.5800 -0.7744 -0.1928
  645MOL0     C87003   3.599   8.399   6.056  0.0642 -0.7273  0.3464
  645MOL0     C87004   3.629   8.429   5.944  0.2759 -0.1536  0.7343
  645MOL0     C87005   4.127   8.109   6.235 -0.4854  0.2253 -0.5195
  645MOL0     C87006   4.246   8.025   6.242 -0.2473 -0.1503 -1.0098
  645MOL0     C87007   4.230   7.887   6.300 -0.0645  0.4405  0.3599
  645MOL0     H87008   4.737   7.852   6.213  3.7407 -1.3140  2.2384
  645MOL0     H87009   4.991   7.813   6.166  1.0286  0.5354  1.2545
  645MOL0     H87010   5.178   7.745   6.074  1.0685 -1.0899 -0.3365
  645MOL0     H87011   5.121   7.737   5.921 -2.7040  1.3901  1.6409
  645MOL0     H87012   5.382   7.857   6.026  1.8266 -0.1598 -0.3418
  645MOL0     H87013   5.337   7.872   5.852  0.6042 -2.8172 -1.7323
  645MOL0     H87014   5.444   7.682   5.811 -1.0580 -1.3192 -1.6237
  645MOL0     H87015   5.313   7.598   5.889  2.3595 -1.4278 -0.7530
  645MOL0     H87016   5.563   7.709   6.027  1.7465 -1.0719  0.1936
  645MOL0     H87017   5.435   7.598   6.094 -0.5054  2.6546 -0.4770
  645MOL0     H87018   5.483   7.445   5.908  3.9249 -2.1323 -3.5837
  645MOL0     H87019   5.625   7.551   5.868 -0.0771  3.6321  1.7195
  645MOL0     H87020   5.740   7.502   6.062  0.2581  0.8556 -1.9139
  645MOL0     H87021   5.601   7.404   6.126 -2.5599  0.1495 -1.4407
  645MOL0     H87022   5.620   7.234   5.956 -0.3567 -0.7102 -2.2074
  645MOL0     H87023   5.782   7.260   6.026  2.1514  2.8103 -1.0830
  645MOL0     H87024   5.697   7.346   5.744  1.0010 -0.2456 -0.0004
  645MOL0     H87025   5.846   7.406   5.840  1.1820 -0.1545  2.2405
  645MOL0     H87026   6.042   7.257   5.789  0.2269  0.3442 -1.3307
  645MOL0     H87027   6.149   6.983   5.772 -1.2016  0.2880  0.5568
  645MOL0     H87028   6.083   6.897   5.631  0.7668 -0.4824  1.5012
  645MOL0     H87029   6.153   7.116   5.500 -0.5164  0.0833  1.1139
  645MOL0     H87030   6.262   7.135   5.636 -1.2474  1.4306  0.4649
  645MOL0     H87031   6.353   7.029   5.430 -0.6920 -2.9845 -1.9301
  645MOL0     H87032   6.242   6.905   5.433 -0.8436  2.1483 -1.5509
  645MOL0     H87033   6.463   6.922   5.657 -0.6461 -0.4650  0.6656
  645MOL0     H87034   6.469   6.829   5.503 -0.3909 -2.1545  0.9676
  645MOL0     H87035   6.209   6.563   5.758 -0.8189  3.4982 -0.7773
  645MOL0     H87036   6.299   6.407   5.903 -0.3848 -0.1260  0.5193
  645MOL0     H87037   6.765   6.469   6.327  0.2811  0.0950  0.1853
  645MOL0     H87038   6.902   6.290   6.426 -0.7060 -2.1911  0.0352
  645MOL0     H87039   6.865   5.970   6.299 -0.1714  0.9433  0.8665
  645MOL0     H87040   6.987   5.927   6.188  1.8507 -1.1458  0.6196
  645MOL0     H87041   7.001   5.945   6.489  0.7369  0.0936  0.6807
  645MOL0     H87042   6.964   5.798   6.393  1.8485  0.3994 -0.3661
  645MOL0     H87043   7.189   5.831   6.279 -2.9706 -3.0398  1.2902
  645MOL0     H87044   7.233   5.950   6.403  0.7903  0.0701  2.0272
  645MOL0     H87045   7.166   5.665   6.480  3.2055 -2.9048 -2.1592
  645MOL0     H87046   7.240   5.806   6.572 -0.5930 -0.4668 -0.0811
  645MOL0     H87047   7.442   5.793   6.458  1.6387 -1.7463  0.2493
  645MOL0     H87048   7.383   5.689   6.330 -1.1681 -0.6478  0.3229
  645MOL0     H87049   7.398   5.638   6.644 -1.0167 -3.6629  1.0689
  645MOL0     H87050   7.363   5.515   6.513 -0.5311  0.7745 -1.9987
  645MOL0     H87051   7.620   5.653   6.554  3.6968 -1.8522 -0.3352
  645MOL0     H87052   7.586   5.515   6.440  1.8179  0.2922  0.0969
  645MOL0     H87053   7.568   5.380   6.670 -0.2486  0.8007  2.6027
  645MOL0     H87054   7.723   5.443   6.621  0.5859 -0.1038  1.0286
  645MOL0     H87055   6.932   6.104   6.042 -1.1567 -0.7624  0.8701
  645MOL0     H87056   6.812   6.269   5.941  3.0794  1.1051 -0.3591
  645MOL0     H87057   6.653   6.646   5.931 -1.2518  4.4967 -1.3808
  645MOL0     H87058   6.575   6.788   5.773  0.2912 -0.2034 -1.4488
  645MOL0     H87059   4.976   8.124   5.877  1.6009 -0.1782  1.3668
  645MOL0     H87060   4.740   8.179   5.936 -1.5393 -1.5773 -0.5472
  645MOL0     H87061   4.459   8.263   6.109  0.2094  0.5982 -0.0534
  645MOL0     H87062   4.229   8.404   6.122 -1.4929  0.5252  3.0180
  645MOL0     H87063   3.907   8.275   6.357 -0.1546  0.1575 -0.1099
  645MOL0     H87064   3.832   8.227   6.205 -1.6101 -0.7361  1.9684
  645MOL0     H87065   3.820   8.479   6.162  3.2371  0.8120  1.0521
  645MOL0     H87066   3.853   8.486   6.334  2.3007 -0.4305 -0.1273
  645MOL0     H87067   3.642   8.502   6.328  1.2785 -0.0304 -1.4084
  645MOL0     H87068   3.656   8.334   6.379 -0.4377 -3.2837 -3.2530
  645MOL0     H87069   3.562   8.244   6.182 -0.3230 -0.6988 -0.4662
  645MOL0     H87070   3.468   8.389   6.207  1.8016  2.5936  0.7858
  645MOL0     H87071   3.644   8.452   5.840  0.0800  0.9316  0.9278
  645MOL0     H87072   4.039   8.071   6.284  1.1194 -4.0415 -0.5226
  645MOL0     H87073   4.248   7.816   6.219 -1.2098  2.1038 -1.4322
  645MOL0     H87074   4.288   7.882   6.392 -0.2464 -0.4992  0.4306
  645MOL0     H87075   4.125   7.867   6.323 -0.2505  1.0285  0.0279
  646MOL0     O87076   1.154   2.464   9.207  0.5622 -0.2180 -0.3470
  646MOL0     C87077   1.106   2.407   9.310  0.0074 -0.4657 -0.2041
  646MOL0     O87078   1.160   2.295   9.370 -0.1796 -0.0571  0.3878
  646MOL0     C87079   1.269   2.238   9.317  0.7446 -0.0456  0.0625
  646MOL0     C87080   1.392   2.225   9.382 -0.2909 -0.1130  0.7767
  646MOL0     C87081   1.507   2.175   9.325  0.5078  0.1698 -1.0295
  646MOL0     C87082   1.493   2.132   9.193  0.1198 -0.9213  0.0159
  646MOL0     O87083   1.599   2.069   9.125 -0.3460 -0.0970 -0.4413
  646MOL0     C87084   1.565   1.954   9.046 -0.3553  0.4889  1.0071
  646MOL0     C87085   1.695   1.870   9.044  0.5583 -0.1664  0.4119
  646MOL0     C87086   1.700   1.784   9.165 -0.3541 -0.7528 -0.2053
  646MOL0     C87087   1.828   1.699   9.145  0.4415  0.4396 -0.2492
  646MOL0     C87088   1.833   1.596   9.269  0.6057  0.0041  0.1126
  646MOL0     C87089   1.926   1.473   9.255 -0.6642  0.9202  0.1642
  646MOL0     C87090   1.856   1.361   9.183 -0.2567 -1.2975 -0.3282
  646MOL0     C87091   1.951   1.243   9.156 -0.6697  0.2272 -0.0421
  646MOL0     N87092   2.074   1.279   9.083 -0.3035 -0.1256 -0.1094
  646MOL0     C87093   2.090   1.286   8.944 -0.1603  0.7242  0.0395
  646MOL0     C87094   2.222   1.286   8.934 -0.9598 -0.9268 -0.7444
  646MOL0     C87095   2.297   1.297   8.799  0.2758 -0.6732 -0.7842
  646MOL0     C87096   2.346   1.439   8.762 -0.5304  0.5784 -0.9842
  646MOL0     C87097   2.271   1.489   8.635  0.9846 -0.2938  0.0482
  646MOL0     C87098   2.125   1.541   8.657  0.7011  0.1736  0.5751
  646MOL0     O87099   2.037   1.428   8.682 -0.1629 -0.6083 -0.2749
  646MOL0     C87100   1.902   1.475   8.671  0.4193 -0.4157 -0.0177
  646MOL0     C87101   1.812   1.384   8.611 -0.7187  0.6252  0.4218
  646MOL0     C87102   1.674   1.412   8.600  0.5132 -0.1886  0.0432
  646MOL0     C87103   1.624   1.525   8.654  0.1650  0.7614 -0.4804
  646MOL0     C87104   1.478   1.564   8.656  0.0623 -0.8860 -0.0343
  646MOL0     O87105   1.447   1.701   8.639 -0.3390 -0.4981  0.1091
  646MOL0     C87106   1.320   1.743   8.602  1.1664  0.2359  0.9976
  646MOL0     C87107   1.254   1.828   8.677  0.2471  0.4951  0.1971
  646MOL0     C87108   1.125   1.887   8.653  0.1043  0.5059  0.5909
  646MOL0     C87109   1.066   1.861   8.529 -0.0084  0.0326 -0.0342
  646MOL0     O87110   0.944   1.929   8.497  0.1970  0.4150  0.2891
  646MOL0     C87111   0.843   1.909   8.591  0.3559 -0.1268 -0.1352
  646MOL0     C87112   0.707   1.926   8.521 -0.7510  1.0753  1.1359
  646MOL0     C87113   0.604   1.964   8.623 -0.5229  0.2471 -0.9431
  646MOL0     C87114   0.469   2.016   8.563  0.5505 -0.3979 -0.3235
  646MOL0     C87115   0.376   2.068   8.668  0.7178  0.0603 -0.8446
  646MOL0     C87116   0.238   2.084   8.601 -0.6962  0.6249  0.3155
  646MOL0     C87117   0.139   2.137   8.699 -0.0563  0.6021  0.8641
  646MOL0     C87118  -0.002   2.095   8.651 -0.2922 -0.0893 -0.7228
  646MOL0    Cl87119  -0.031   2.150   8.475  0.0097 -0.0806 -0.1331
  646MOL0     C87120   1.134   1.763   8.448  0.4197  0.5482 -0.2534
  646MOL0     C87121   1.258   1.703   8.478  0.2894 -0.0183 -0.2879
  646MOL0     O87122   1.394   1.475   8.652  0.7895  0.7067  0.4229
  646MOL0     C87123   1.714   1.612   8.711  0.7181  0.2396 -0.2937
  646MOL0     C87124   1.848   1.591   8.710 -0.4068  0.7835 -1.1732
  646MOL0     N87125   2.284   1.314   9.059 -0.3259 -0.1210 -0.2277
  646MOL0     N87126   2.194   1.294   9.154  0.3013  0.0934  1.0920
  646MOL0     C87127   1.370   2.141   9.128  0.1895 -0.5212  0.7087
  646MOL0     C87128   1.268   2.203   9.188  0.1871 -0.1217  0.8154
  646MOL0     C87129   0.997   2.471   9.388  0.3415 -0.7868  0.9133
  646MOL0     C87130   0.993   2.436   9.526 -0.3166  0.3138  0.9115
  646MOL0     C87131   0.867   2.441   9.593 -0.1872 -0.6945  0.6041
  646MOL0     C87132   0.760   2.519   9.544  0.0341  0.5775 -0.3489
  646MOL0     O87133   0.660   2.551   9.628  0.0122  0.8960  0.2130
  646MOL0     C87134   0.675   2.683   9.678  0.1435  0.1742  0.6268
  646MOL0     C87135   0.696   2.679   9.831 -0.1814 -0.6200  0.1106
  646MOL0     C87136   0.671   2.821   9.881 -0.2908  0.4533 -0.0322
  646MOL0     C87137   0.779   2.882   9.970  0.1419 -0.0064 -0.3853
  646MOL0     C87138   0.839   2.781  10.056  0.1673  0.8541 -0.9010
  646MOL0     C87139   0.860   2.686  10.132  0.2942 -0.0152 -0.5791
  646MOL0     C87140   0.776   2.579   9.422 -0.7251 -0.4144 -0.7085
  646MOL0     C87141   0.890   2.552   9.344  0.4814 -0.5708  0.3352
  646MOL0     C87142   0.882   2.625   9.201  0.3948  0.1405 -0.2116
  646MOL0     H87143   1.408   2.249   9.487  3.6410 -0.0797  0.3331
  646MOL0     H87144   1.608   2.160   9.363  1.7982 -3.3663 -5.0023
  646MOL0     H87145   1.487   1.900   9.099 -0.4993 -2.3869 -1.8423
  646MOL0     H87146   1.551   1.971   8.939  4.5252  2.6821  0.4007
  646MOL0     H87147   1.781   1.937   9.050  1.2144 -0.7326 -1.8217
  646MOL0     H87148   1.707   1.819   8.948  2.8776  1.2443 -0.1319
  646MOL0     H87149   1.606   1.730   9.182 -2.1917  2.6507  1.3449
  646MOL0     H87150   1.702   1.840   9.258  1.8161  0.5239 -0.9578
  646MOL0     H87151   1.817   1.641   9.053  0.8986 -0.5643  0.3034
  646MOL0     H87152   1.919   1.759   9.137 -0.2470  1.2740 -2.4410
  646MOL0     H87153   1.860   1.668   9.347 -1.3530  1.7748 -0.7578
  646MOL0     H87154   1.733   1.556   9.292  0.0606  1.6745  0.7655
  646MOL0     H87155   2.020   1.511   9.216  0.2680 -1.1826  0.1840
  646MOL0     H87156   1.959   1.425   9.348  0.9669 -1.3712 -1.4926
  646MOL0     H87157   1.804   1.390   9.091  1.3441  1.4409 -0.4517
  646MOL0     H87158   1.779   1.320   9.249  1.9915  0.1497  3.5517
  646MOL0     H87159   1.981   1.190   9.246 -2.3524 -0.8703 -0.0771
  646MOL0     H87160   1.907   1.161   9.098  2.3122 -1.5397 -0.0028
  646MOL0     H87161   2.023   1.267   8.861 -0.0180  0.9024 -0.1164
  646MOL0     H87162   2.376   1.222   8.800  0.7829 -0.2145 -2.5986
  646MOL0     H87163   2.233   1.246   8.726  2.4810 -1.8217 -2.0012
  646MOL0     H87164   2.325   1.513   8.839  0.0168  0.8413 -1.0804
  646MOL0     H87165   2.454   1.425   8.749 -0.2726  1.7975 -0.2938
  646MOL0     H87166   2.280   1.415   8.555 -1.2268 -0.9002  0.3068
  646MOL0     H87167   2.323   1.578   8.598  0.2890  0.4397  0.7877
  646MOL0     H87168   2.099   1.602   8.570 -2.4382 -0.4439  0.9596
  646MOL0     H87169   2.115   1.596   8.751 -4.4592 -2.5511  2.0089
  646MOL0     H87170   1.851   1.290   8.572 -1.2489  0.3097  0.6276
  646MOL0     H87171   1.608   1.340   8.552  0.5924 -0.3788  0.2208
  646MOL0     H87172   1.285   1.840   8.781  0.9080 -2.3124  0.3941
  646MOL0     H87173   1.078   1.950   8.728 -0.1142 -0.6140  1.4348
  646MOL0     H87174   0.846   1.809   8.635 -1.3238  0.9889  2.7894
  646MOL0     H87175   0.859   1.985   8.668  0.8911 -0.0645 -0.3088
  646MOL0     H87176   0.731   2.008   8.451  2.1176 -0.8617 -0.3906
  646MOL0     H87177   0.668   1.840   8.467 -1.0224  0.9171  1.5859
  646MOL0     H87178   0.579   1.875   8.681 -0.6712  0.3070 -0.9133
  646MOL0     H87179   0.639   2.049   8.684  1.5081 -0.5375 -0.9489
  646MOL0     H87180   0.428   1.943   8.492  1.7169 -3.7379  2.1560
  646MOL0     H87181   0.495   2.108   8.511 -1.2567 -0.7304 -1.9331
  646MOL0     H87182   0.405   2.171   8.692 -1.2014 -0.3276  4.3890
  646MOL0     H87183   0.381   2.003   8.756  0.1035 -0.4771 -1.1950
  646MOL0     H87184   0.233   2.153   8.517  0.8859 -0.1159 -0.4121
  646MOL0     H87185   0.205   1.992   8.552 -0.2126 -1.6690  3.8835
  646MOL0     H87186   0.130   2.246   8.696 -5.1047  0.4559 -2.7167
  646MOL0     H87187   0.167   2.102   8.799 -0.8045 -1.6377  0.3622
  646MOL0     H87188  -0.013   1.987   8.663 -5.0061  0.0699 -1.6240
  646MOL0     H87189  -0.075   2.142   8.717 -0.2216 -1.1773  0.1597
  646MOL0     H87190   1.100   1.740   8.348  1.9155  2.6373 -1.3307
  646MOL0     H87191   1.308   1.627   8.420  1.0521  0.5470 -0.3810
  646MOL0     H87192   1.679   1.704   8.758  0.1376  0.2952 -0.8332
  646MOL0     H87193   1.916   1.667   8.748 -0.1066  0.1332 -0.3831
  646MOL0     H87194   1.358   2.116   9.023 -0.3581  2.6646 -0.1214
  646MOL0     H87195   1.176   2.212   9.131 -0.6260  1.0622  2.2436
  646MOL0     H87196   1.070   2.374   9.571 -0.2331  1.1419  1.9203
  646MOL0     H87197   0.862   2.398   9.692  1.4909  2.7374  2.3289
  646MOL0     H87198   0.578   2.732   9.665 -0.0468  0.1568  1.8464
  646MOL0     H87199   0.748   2.746   9.626 -0.7559  2.5895  2.0728
  646MOL0     H87200   0.795   2.636   9.846  0.0651 -0.2077 -0.3024
  646MOL0     H87201   0.622   2.608   9.869 -1.3343 -1.9969 -4.1501
  646MOL0     H87202   0.583   2.817   9.946  0.3663  1.6671  0.9847
  646MOL0     H87203   0.649   2.890   9.799 -0.5100 -0.2213 -0.5466
  646MOL0     H87204   0.855   2.929   9.907  0.0615  2.0837  0.9554
  646MOL0     H87205   0.734   2.970  10.017  2.6577  1.1986 -0.0654
  646MOL0     H87206   0.872   2.593  10.183 -0.7822 -0.3396 -0.9102
  646MOL0     H87207   0.708   2.659   9.396 -0.0689  0.3713 -0.0642
  646MOL0     H87208   0.924   2.554   9.129 -1.4673 -0.2698 -0.9786
  646MOL0     H87209   0.781   2.656   9.169  1.6736  2.5388 -2.3421
  646MOL0     H87210   0.961   2.700   9.201  2.7294 -2.1105 -2.7277
  647MOL0     O87211   3.237   0.153   4.409 -0.9106 -0.0972 -0.2668
  647MOL0     C87212   3.286   0.259   4.450  0.0481 -0.4042 -0.5958
  647MOL0     O87213   3.395   0.332   4.404 -0.3130 -0.6729  0.0692
  647MOL0     C87214   3.475   0.274   4.314 -0.0786 -0.0867 -0.9723
  647MOL0     C87215   3.598   0.226   4.359  0.6110  0.0740  0.2723
  647MOL0     C87216   3.690   0.168   4.270  0.2204  0.3144 -0.6287
  647MOL0     C87217   3.657   0.138   4.139  0.7382 -0.2770 -0.3302
  647MOL0     O87218   3.741   0.069   4.060 -0.2885 -0.1027 -0.4156
  647MOL0     C87219   3.686   0.021   3.937  0.4267 -0.8207  0.1405
  647MOL0     C87220   3.799  -0.062   3.871 -1.2777 -0.0944 -0.1709
  647MOL0     C87221   3.911   0.027   3.786  0.0273  0.9558 -0.5304
  647MOL0     C87222   4.019  -0.085   3.735 -0.1094 -0.8641  0.5664
  647MOL0     C87223   4.140  -0.011   3.668  0.7346 -0.2784 -0.6380
  647MOL0     C87224   4.252  -0.107   3.641  0.5800  0.1719 -0.2359
  647MOL0     C87225   4.362  -0.041   3.553 -0.0164 -0.1245 -0.1294
  647MOL0     C87226   4.471   0.047   3.632 -0.0723 -0.5758 -0.3221
  647MOL0     N87227   4.458   0.193   3.600 -1.1033 -0.1295 -0.4754
  647MOL0     C87228   4.451   0.251   3.476  0.5432  0.0221  0.6714
  647MOL0     C87229   4.484   0.375   3.494 -0.0329  0.5691  0.6706
  647MOL0     C87230   4.518   0.477   3.391  0.1714  0.4033 -0.3780
  647MOL0     C87231   4.660   0.541   3.407 -0.3353 -0.2316  0.0895
  647MOL0     C87232   4.677   0.644   3.295 -0.3867 -0.0574  0.6383
  647MOL0     C87233   4.823   0.691   3.291 -0.0942 -0.1081 -0.2641
  647MOL0     O87234   4.831   0.816   3.219  0.0960  0.5227 -0.1534
  647MOL0     C87235   4.929   0.854   3.125 -0.4421  1.8944  0.1060
  647MOL0     C87236   5.044   0.774   3.111 -0.8719 -0.6441 -0.8558
  647MOL0     C87237   5.139   0.816   3.012 -0.0093  0.6141 -0.0685
  647MOL0     C87238   5.107   0.930   2.934  0.0603  0.0691 -1.0147
  647MOL0     C87239   5.204   0.976   2.831  0.2153  0.5758 -0.1560
  647MOL0     O87240   5.229   1.119   2.824  0.5324  0.9244 -0.2305
  647MOL0     C87241   5.315   1.178   2.730  0.2988 -0.3407 -0.0882
  647MOL0     C87242   5.425   1.113   2.675 -0.3940 -0.0815 -0.0213
  647MOL0     C87243   5.521   1.190   2.610 -0.5693 -0.1315  0.5972
  647MOL0     C87244   5.502   1.330   2.595 -0.5705  0.4098  0.8750
  647MOL0     O87245   5.599   1.413   2.539  0.9428  0.5722 -0.0351
  647MOL0     C87246   5.727   1.357   2.516  0.5626 -0.0116 -0.5168
  647MOL0     C87247   5.811   1.468   2.461  0.7271  0.0179  0.7745
  647MOL0     C87248   5.965   1.430   2.449  0.4029  0.1467 -0.5671
  647MOL0     C87249   6.053   1.415   2.573  0.3140 -0.3240 -0.0599
  647MOL0     C87250   6.199   1.460   2.548  0.3130 -0.4134  0.1985
  647MOL0     C87251   6.304   1.362   2.604  1.1550  0.2567  0.5881
  647MOL0     C87252   6.279   1.358   2.762  0.1744 -0.1808 -0.1172
  647MOL0     C87253   6.396   1.284   2.828 -0.4463 -0.4568 -0.2404
  647MOL0    Cl87254   6.560   1.360   2.803 -0.2167 -0.1479 -0.2019
  647MOL0     C87255   5.396   1.394   2.653 -0.2690 -0.6507  0.1831
  647MOL0     C87256   5.306   1.315   2.730  0.4590  0.0044 -0.1755
  647MOL0     O87257   5.256   0.888   2.766  0.0410 -0.4751 -0.3761
  647MOL0     C87258   4.988   1.003   2.951 -0.2449  0.3791 -0.8203
  647MOL0     C87259   4.907   0.968   3.049 -0.0204 -0.1924 -0.6291
  647MOL0     N87260   4.500   0.394   3.630 -0.1822  0.3202 -0.0786
  647MOL0     N87261   4.496   0.289   3.690  0.5565  1.1234 -0.3396
  647MOL0     C87262   3.530   0.186   4.095 -0.2366 -0.9176  0.0876
  647MOL0     C87263   3.439   0.250   4.181 -0.6213 -0.2056  0.4122
  647MOL0     C87264   3.225   0.318   4.564 -0.4222 -0.2296  0.8371
  647MOL0     C87265   3.090   0.364   4.556 -0.1462 -0.0423  0.1760
  647MOL0     C87266   3.023   0.409   4.681  0.2290 -0.3251  0.6098
  647MOL0     C87267   3.092   0.407   4.795 -0.4447  0.3273  1.3431
  647MOL0     O87268   3.032   0.454   4.905  0.0344  0.6509 -0.0190
  647MOL0     C87269   3.051   0.591   4.940 -0.8455 -0.2146 -0.3617
  647MOL0     C87270   2.910   0.658   4.954  0.2305 -0.3195  1.2794
  647MOL0     C87271   2.796   0.575   5.015 -0.3777  0.1368 -0.0691
  647MOL0     C87272   2.740   0.474   4.916 -0.9484  1.0467 -0.0410
  647MOL0     C87273   2.600   0.454   4.941  0.1350 -0.0563 -0.0394
  647MOL0     C87274   2.475   0.449   4.959  0.0968  0.6914  0.2373
  647MOL0     C87275   3.213   0.342   4.803 -0.6595  0.2493 -0.3585
  647MOL0     C87276   3.284   0.300   4.691 -0.8220  0.1146  0.7382
  647MOL0     C87277   3.407   0.215   4.713  0.5723  0.3805  0.4681
  647MOL0     H87278   3.616   0.229   4.466  0.5605  0.7738  0.2712
  647MOL0     H87279   3.782   0.140   4.322  0.9726  0.9706 -1.5789
  647MOL0     H87280   3.600  -0.042   3.964  0.4908 -1.3620 -0.8362
  647MOL0     H87281   3.665   0.090   3.855  1.6867 -2.2578 -1.4738
  647MOL0     H87282   3.750  -0.122   3.793  2.0995  0.8846 -3.3461
  647MOL0     H87283   3.860  -0.120   3.941 -2.8426 -2.1201 -0.4076
  647MOL0     H87284   3.963   0.104   3.842 -0.9823  0.3709  1.2743
  647MOL0     H87285   3.851   0.068   3.704 -1.8145 -1.8568 -0.7553
  647MOL0     H87286   4.043  -0.156   3.814 -0.6026  0.3855  1.8749
  647MOL0     H87287   3.972  -0.141   3.654  0.0479 -0.5755  0.2714
  647MOL0     H87288   4.100   0.049   3.585 -2.1106  5.2389  4.0140
  647MOL0     H87289   4.174   0.061   3.743 -1.2952 -1.9080  2.0082
  647MOL0     H87290   4.298  -0.134   3.736 -2.6449  1.7969  1.9829
  647MOL0     H87291   4.214  -0.196   3.590  1.2605  0.1324 -0.6758
  647MOL0     H87292   4.312   0.013   3.472  0.2490  0.4135  0.0649
  647MOL0     H87293   4.411  -0.126   3.505  0.2961  1.0053 -1.9426
  647MOL0     H87294   4.477   0.032   3.741  2.8625 -1.9797 -0.5830
  647MOL0     H87295   4.566   0.006   3.597 -2.1693 -5.2406 -1.3304
  647MOL0     H87296   4.439   0.208   3.377 -0.2212  1.5836  0.0480
  647MOL0     H87297   4.514   0.422   3.296 -1.8653 -0.7336  0.2975
  647MOL0     H87298   4.444   0.557   3.381 -0.1828  0.0656 -0.4834
  647MOL0     H87299   4.665   0.584   3.507 -1.4231 -1.8964  0.9020
  647MOL0     H87300   4.735   0.462   3.395  2.4371  2.3357 -0.8250
  647MOL0     H87301   4.620   0.736   3.312 -0.4719  1.0206 -3.9566
  647MOL0     H87302   4.655   0.615   3.191  4.0684  1.4106 -0.9689
  647MOL0     H87303   4.871   0.614   3.230  0.4504 -3.9947  4.5226
  647MOL0     H87304   4.864   0.691   3.392 -0.8472 -0.3645  0.0444
  647MOL0     H87305   5.071   0.696   3.182 -0.3767 -0.6192 -1.0083
  647MOL0     H87306   5.232   0.761   3.001  0.4662  0.7370  2.5493
  647MOL0     H87307   5.448   1.007   2.683  1.2944  0.2069 -0.6624
  647MOL0     H87308   5.611   1.144   2.571 -0.7929  1.3996 -1.9190
  647MOL0     H87309   5.777   1.314   2.603 -1.9748 -0.0452  1.0288
  647MOL0     H87310   5.702   1.288   2.435  1.5538  1.6485 -2.3110
  647MOL0     H87311   5.775   1.506   2.365  3.3295  2.6216  0.6913
  647MOL0     H87312   5.805   1.557   2.524 -1.1536 -1.0429  2.2079
  647MOL0     H87313   5.988   1.348   2.381 -0.1118  1.0745 -1.8925
  647MOL0     H87314   6.009   1.509   2.386  2.5676 -2.2245 -2.2465
  647MOL0     H87315   6.050   1.308   2.594 -1.1560  0.2322  3.0264
  647MOL0     H87316   5.998   1.461   2.655  0.8982 -0.9067  0.6793
  647MOL0     H87317   6.205   1.558   2.596 -2.8731 -0.1361  0.2716
  647MOL0     H87318   6.224   1.466   2.442  1.4964 -4.2066  0.1250
  647MOL0     H87319   6.294   1.266   2.554 -1.3585  1.2373 -0.9900
  647MOL0     H87320   6.407   1.395   2.587  1.2123 -0.1812  0.0668
  647MOL0     H87321   6.198   1.290   2.791 -0.9866  0.1818 -2.3576
  647MOL0     H87322   6.270   1.456   2.810  4.5653  0.5014 -0.2600
  647MOL0     H87323   6.388   1.267   2.936  1.3388 -0.7198 -0.1130
  647MOL0     H87324   6.390   1.179   2.796 -0.7064 -1.2848  2.3342
  647MOL0     H87325   5.388   1.500   2.631  0.3467 -0.9262 -1.5266
  647MOL0     H87326   5.226   1.372   2.777  1.3583 -0.5520  2.1834
  647MOL0     H87327   4.973   1.088   2.885 -0.6780  4.2630  3.7739
  647MOL0     H87328   4.820   1.030   3.068 -0.0813 -0.3474 -0.3808
  647MOL0     H87329   3.499   0.183   3.991  0.7300  1.2826 -0.3130
  647MOL0     H87330   3.346   0.282   4.134 -0.0514 -0.7221 -1.1106
  647MOL0     H87331   3.034   0.370   4.463 -0.5472 -0.1751  0.4066
  647MOL0     H87332   2.922   0.446   4.663  1.0338  1.2093 -1.1486
  647MOL0     H87333   3.131   0.638   4.882  0.3751  0.4819  1.7610
  647MOL0     H87334   3.091   0.578   5.041  0.7008  0.0669 -0.9086
  647MOL0     H87335   2.877   0.669   4.850  3.1734 -2.4475 -0.0148
  647MOL0     H87336   2.914   0.760   4.992 -3.3126  1.4805 -2.4736
  647MOL0     H87337   2.716   0.646   5.039 -0.9998 -0.2669 -0.9010
  647MOL0     H87338   2.832   0.523   5.104 -1.2115  0.1471  0.2868
  647MOL0     H87339   2.750   0.523   4.819  0.4449  3.2478  1.1187
  647MOL0     H87340   2.783   0.374   4.926 -2.0677  0.6148  0.6535
  647MOL0     H87341   2.369   0.440   4.970  0.3058 -1.8594  0.7270
  647MOL0     H87342   3.247   0.332   4.906 -2.9388 -3.6265  0.2038
  647MOL0     H87343   3.481   0.225   4.633  0.0385 -3.4606 -0.7273
  647MOL0     H87344   3.452   0.243   4.808 -1.9250  1.3060  1.4407
  647MOL0     H87345   3.380   0.109   4.720  1.6021  0.0488 -0.2788
  648MOL0     O87346   2.155   9.880   9.737 -0.2149  0.2128  0.3418
  648MOL0     C87347   2.069   9.953   9.693  1.0293  0.8047  0.3425
  648MOL0     O87348   2.012   9.923   9.569 -0.9475 -0.1110 -0.4184
  648MOL0     C87349   2.071   9.851   9.467 -0.1172 -1.2143 -0.7831
  648MOL0     C87350   1.994   9.767   9.382 -1.2376  0.7653  0.2165
  648MOL0     C87351   2.057   9.695   9.274  0.1298 -0.1759  0.0719
  648MOL0     C87352   2.190   9.713   9.244  0.3555  0.3514 -0.1670
  648MOL0     O87353   2.254   9.668   9.125 -0.2935  0.3628 -0.1192
  648MOL0     C87354   2.233   9.529   9.107 -1.0625 -0.2011 -1.4228
  648MOL0     C87355   2.282   9.441   9.225  0.0321 -0.7213 -0.5845
  648MOL0     C87356   2.430   9.421   9.243  0.6769 -0.8046 -0.1235
  648MOL0     C87357   2.495   9.354   9.117 -0.4894  0.3739 -0.6885
  648MOL0     C87358   2.645   9.336   9.148 -0.5343 -0.5597  0.1431
  648MOL0     C87359   2.720   9.281   9.026  0.3752 -0.1434 -0.9870
  648MOL0     C87360   2.879   9.271   9.018  0.8811 -0.3729 -0.0444
  648MOL0     C87361   2.962   9.403   9.012 -0.2335  0.8945 -0.0870
  648MOL0     N87362   3.112   9.385   9.002  0.0604 -0.2382 -0.3619
  648MOL0     C87363   3.179   9.307   8.910 -0.0832 -0.1893  0.3287
  648MOL0     C87364   3.310   9.313   8.945  0.5139  0.5930  0.4604
  648MOL0     C87365   3.431   9.256   8.885  0.7895 -0.5535  0.2439
  648MOL0     C87366   3.500   9.341   8.775 -0.1362  0.1150 -0.2186
  648MOL0     C87367   3.587   9.459   8.822 -0.1357 -0.4472 -1.0800
  648MOL0     C87368   3.651   9.529   8.705 -0.0864  0.0097  0.6915
  648MOL0     O87369   3.741   9.631   8.746  0.4888 -0.4688  0.9460
  648MOL0     C87370   3.821   9.680   8.653 -0.7692  0.0837 -0.3126
  648MOL0     C87371   3.924   9.767   8.696  0.3879 -0.4652  0.4365
  648MOL0     C87372   4.014   9.829   8.605 -0.2254 -0.0074 -0.3366
  648MOL0     C87373   4.001   9.802   8.471  0.5690  0.1772  0.1611
  648MOL0     C87374   4.101   9.861   8.379 -0.0712 -1.1313  0.7730
  648MOL0     O87375   4.076   9.836   8.249 -0.2671 -0.6446 -0.4379
  648MOL0     C87376   4.169   9.853   8.154 -0.0880 -0.1894  1.3177
  648MOL0     C87377   4.181   9.984   8.101  0.2552 -0.6814 -0.1929
  648MOL0     C87378   4.293  10.006   8.008  1.1719  1.0839 -0.1234
  648MOL0     C87379   4.371   9.902   7.967 -0.0309  0.0640  0.4694
  648MOL0     O87380   4.452   9.928   7.860  0.7070 -1.2172 -0.3154
  648MOL0     C87381   4.578   9.854   7.856  0.7434 -0.0991  0.2779
  648MOL0     C87382   4.680   9.931   7.784 -0.9217  0.4213 -0.3241
  648MOL0     C87383   4.696  10.076   7.829 -1.1729 -0.0204  0.0718
  648MOL0     C87384   4.760  10.094   7.967  0.0093  0.2309  0.3547
  648MOL0     C87385   4.734  10.232   8.020  0.4994  0.1999 -0.4607
  648MOL0     C87386   4.792  10.241   8.158 -0.5722 -0.5205 -1.2187
  648MOL0     C87387   4.939  10.253   8.168  1.2392 -0.0281  0.3552
  648MOL0     C87388   4.985  10.315   8.304  0.7264  0.2934 -0.8231
  648MOL0    Cl87389   4.949  10.488   8.321  0.2004 -0.0240  0.2184
  648MOL0     C87390   4.350   9.774   8.019  0.1565  0.6483  0.0668
  648MOL0     C87391   4.247   9.744   8.111  1.2323 -0.6662  1.2489
  648MOL0     O87392   4.194   9.929   8.424  0.1721  0.7582  0.0824
  648MOL0     C87393   3.900   9.712   8.419  0.2923 -0.2623 -0.4036
  648MOL0     C87394   3.804   9.666   8.507 -0.8499 -0.4961 -0.5045
  648MOL0     N87395   3.321   9.405   9.043  0.5268 -0.8568 -0.2146
  648MOL0     N87396   3.203   9.442   9.083 -0.0760  0.1656 -0.5921
  648MOL0     C87397   2.261   9.799   9.331  0.1328  0.2066  0.8040
  648MOL0     C87398   2.206   9.865   9.432 -0.1206 -0.3460  0.3151
  648MOL0     C87399   2.017  10.068   9.774 -0.5459 -0.3157 -0.1635
  648MOL0     C87400   1.898  10.139   9.735  0.2491  0.5184  0.0842
  648MOL0     C87401   1.856  10.252   9.801  1.0688  0.0307  0.3001
  648MOL0     C87402   1.911  10.300   9.915 -0.1009  0.3276  0.2041
  648MOL0     O87403   1.842  10.405   9.981 -0.2413  0.9664  0.5617
  648MOL0     C87404   1.903  10.465  10.092  0.5803 -0.2258 -0.3040
  648MOL0     C87405   1.835  10.605  10.113 -0.2840 -0.3361 -0.0763
  648MOL0     C87406   1.851  10.681   9.982 -0.6883 -0.5857  1.0952
  648MOL0     C87407   1.849  10.844   9.997  0.0252  0.1245 -0.3052
  648MOL0     C87408   1.711  10.896   9.988  0.0532 -0.5905  0.5364
  648MOL0     C87409   1.601  10.940   9.991 -0.4245 -0.3854 -0.3470
  648MOL0     C87410   2.025  10.231   9.962  0.6570  0.9532 -0.4077
  648MOL0     C87411   2.083  10.123   9.888  0.4298 -0.0734 -0.2487
  648MOL0     C87412   2.199  10.050   9.958 -0.0716 -0.1363  0.4904
  648MOL0     H87413   1.888   9.749   9.401 -0.9065 -0.8721  0.6295
  648MOL0     H87414   1.991   9.625   9.224 -2.4212  0.0277  2.8424
  648MOL0     H87415   2.128   9.504   9.091 -0.9239 -3.4209  1.5190
  648MOL0     H87416   2.285   9.487   9.021  0.4387 -0.1912 -0.5522
  648MOL0     H87417   2.233   9.347   9.199 -1.4672 -0.7866  2.0327
  648MOL0     H87418   2.226   9.464   9.317 -1.9097  0.2460 -1.9289
  648MOL0     H87419   2.436   9.358   9.332 -2.7303 -0.3235  0.5848
  648MOL0     H87420   2.498   9.507   9.242  1.2626 -1.2242  1.0298
  648MOL0     H87421   2.448   9.261   9.085 -0.5410 -0.7421  2.3446
  648MOL0     H87422   2.478   9.409   9.023  1.1360  0.6949 -0.8231
  648MOL0     H87423   2.692   9.433   9.165  0.2304 -0.7138 -0.9951
  648MOL0     H87424   2.649   9.268   9.233  0.8548  0.2419  0.7380
  648MOL0     H87425   2.689   9.180   8.998  1.8243 -0.4355 -1.7000
  648MOL0     H87426   2.699   9.357   8.951  2.4994 -0.1392 -1.6644
  648MOL0     H87427   2.906   9.219   8.926  1.0431  1.1017 -0.8423
  648MOL0     H87428   2.914   9.208   9.101 -1.5803  0.8341  2.0783
  648MOL0     H87429   2.922   9.466   8.932  0.4890  1.6590  0.1348
  648MOL0     H87430   2.939   9.458   9.103 -2.5855 -1.0403  0.5696
  648MOL0     H87431   3.129   9.242   8.838  1.6941 -0.3569 -0.8070
  648MOL0     H87432   3.504   9.233   8.963 -0.2718 -2.2836  0.7813
  648MOL0     H87433   3.404   9.163   8.833  0.3735  1.5853 -3.8249
  648MOL0     H87434   3.571   9.274   8.726 -4.1067 -3.0630 -2.1370
  648MOL0     H87435   3.428   9.375   8.700 -0.5949  1.6524  0.8721
  648MOL0     H87436   3.673   9.427   8.882  1.1476  2.3252 -1.2867
  648MOL0     H87437   3.519   9.527   8.875  0.5140 -0.0565 -0.7336
  648MOL0     H87438   3.575   9.565   8.634  0.8963  0.6349 -0.0709
  648MOL0     H87439   3.707   9.448   8.657 -1.6290 -2.7192  3.1841
  648MOL0     H87440   3.928   9.796   8.800  2.4533 -0.6501  0.4423
  648MOL0     H87441   4.097   9.879   8.654  0.0698 -1.2844  0.5200
  648MOL0     H87442   4.109  10.058   8.134  2.2029  1.1702  0.1373
  648MOL0     H87443   4.303  10.105   7.966  1.4507  1.7705  1.4994
  648MOL0     H87444   4.611   9.832   7.958 -0.1637 -0.4532  0.5046
  648MOL0     H87445   4.566   9.760   7.801  0.3385  1.5010 -2.5180
  648MOL0     H87446   4.774   9.880   7.808 -0.7798  1.1128  0.6266
  648MOL0     H87447   4.669   9.927   7.675 -1.7078  1.1874 -0.2794
  648MOL0     H87448   4.772  10.117   7.762 -1.8444  0.1081 -0.6210
  648MOL0     H87449   4.597  10.120   7.825 -1.0382  0.5214  1.8177
  648MOL0     H87450   4.868  10.083   7.955 -0.3622 -1.9488 -1.7709
  648MOL0     H87451   4.712  10.024   8.036  1.1647  0.4072  1.3649
  648MOL0     H87452   4.625  10.244   8.021  0.3461 -1.0328  0.5930
  648MOL0     H87453   4.785  10.294   7.946  0.9131  0.5346  0.1066
  648MOL0     H87454   4.750  10.324   8.215  0.9098 -0.4786 -0.1397
  648MOL0     H87455   4.768  10.148   8.211 -0.4413  0.8667  1.4385
  648MOL0     H87456   4.965  10.323   8.088  1.9756 -1.5404 -0.7780
  648MOL0     H87457   4.989  10.162   8.137  0.0551 -0.7842  0.5945
  648MOL0     H87458   4.939  10.262   8.388  0.6832  1.4284 -0.1080
  648MOL0     H87459   5.090  10.285   8.310  0.6291  0.2766  2.1757
  648MOL0     H87460   4.394   9.690   7.967  1.4060  3.2161 -3.4853
  648MOL0     H87461   4.224   9.642   8.139  0.8557 -1.2799 -1.0413
  648MOL0     H87462   3.906   9.691   8.313  1.8812  1.1723 -0.6421
  648MOL0     H87463   3.719   9.614   8.464 -1.3686 -0.3490  0.3285
  648MOL0     H87464   2.368   9.808   9.313 -0.0763 -0.7680 -1.2106
  648MOL0     H87465   2.267   9.937   9.487 -0.5556  2.2667 -2.3677
  648MOL0     H87466   1.835  10.107   9.653 -0.9295 -1.6133  1.7151
  648MOL0     H87467   1.765  10.307   9.778 -0.9040 -1.3635  3.8592
  648MOL0     H87468   2.008  10.489  10.074  0.0705  0.2404 -3.2852
  648MOL0     H87469   1.907  10.396  10.176  0.6033 -1.0627 -0.9802
  648MOL0     H87470   1.886  10.646  10.201 -3.4782  1.9134  0.8735
  648MOL0     H87471   1.732  10.589  10.145  0.8001 -2.2309  2.8384
  648MOL0     H87472   1.785  10.649   9.901  0.8223 -2.1615  0.4122
  648MOL0     H87473   1.950  10.661   9.940 -0.7279  0.1190  0.6359
  648MOL0     H87474   1.904  10.871  10.087 -0.5130  0.7665 -0.1640
  648MOL0     H87475   1.910  10.897   9.922 -1.1124  2.4016  0.2986
  648MOL0     H87476   1.501  10.978   9.986 -0.5184 -0.1481  2.0185
  648MOL0     H87477   2.052  10.255  10.064  1.2366 -1.1597 -0.0197
  648MOL0     H87478   2.268  10.011   9.883  0.1670  0.2161  0.5272
  648MOL0     H87479   2.256  10.114  10.026  1.7925 -1.3209  0.1052
  648MOL0     H87480   2.179   9.955  10.008  1.8354 -1.5978 -1.3685
  649MOL0     O87481   6.644   5.744   2.241 -0.0079  0.5063 -0.7874
  649MOL0     C87482   6.691   5.710   2.351 -0.0504  0.2881 -0.6122
  649MOL0     O87483   6.793   5.620   2.366 -0.0158 -0.5017  0.5275
  649MOL0     C87484   6.852   5.578   2.251  0.6020  0.0798 -0.5787
  649MOL0     C87485   6.970   5.625   2.202  0.6828  0.2776 -0.4591
  649MOL0     C87486   7.036   5.575   2.091 -0.1073  0.1722 -0.3099
  649MOL0     C87487   6.982   5.467   2.024  0.0679 -0.1508 -0.8891
  649MOL0     O87488   7.049   5.417   1.909  0.0598  0.4123 -0.0106
  649MOL0     C87489   7.183   5.460   1.879  0.0484 -0.6257  0.6377
  649MOL0     C87490   7.244   5.373   1.768  0.3804  0.0494  0.5440
  649MOL0     C87491   7.380   5.427   1.730 -0.5070 -0.3472  0.2488
  649MOL0     C87492   7.448   5.383   1.604 -1.3343 -0.0359  0.4279
  649MOL0     C87493   7.529   5.484   1.534 -0.5045  0.0353 -0.5578
  649MOL0     C87494   7.660   5.515   1.615  0.1710  0.2145 -0.9069
  649MOL0     C87495   7.773   5.408   1.636  0.7705  0.2680  0.2197
  649MOL0     C87496   7.809   5.335   1.504 -0.1326  0.8213  0.8737
  649MOL0     N87497   7.905   5.404   1.413 -0.4807 -0.3394  0.1833
  649MOL0     C87498   8.041   5.419   1.444  0.3096  0.4095 -0.4804
  649MOL0     C87499   8.093   5.508   1.362 -0.2030 -0.7891  0.1043
  649MOL0     C87500   8.232   5.553   1.353 -0.1164 -0.4233  0.0186
  649MOL0     C87501   8.264   5.701   1.354 -0.2067 -0.2829 -1.3911
  649MOL0     C87502   8.262   5.761   1.216 -0.1275 -0.0223  1.0964
  649MOL0     C87503   8.398   5.741   1.146  0.2671  0.3106  0.3317
  649MOL0     O87504   8.481   5.860   1.161 -0.0201 -0.1132  0.3078
  649MOL0     C87505   8.620   5.844   1.158 -0.0016  0.5200  0.2002
  649MOL0     C87506   8.708   5.920   1.231 -0.8156  0.2496 -0.3563
  649MOL0     C87507   8.849   5.917   1.217 -0.6399 -0.1351 -1.1023
  649MOL0     C87508   8.904   5.836   1.114 -1.0230 -0.6733  0.5662
  649MOL0     C87509   9.051   5.822   1.096  0.1247 -0.0318 -0.2024
  649MOL0     O87510   9.125   5.892   1.189 -0.6827  0.8909  0.2320
  649MOL0     C87511   9.256   5.911   1.160 -0.2091  0.6763  0.7064
  649MOL0     C87512   9.304   5.960   1.040  0.1824  0.7628 -0.0024
  649MOL0     C87513   9.438   5.993   1.022  0.4537 -0.4529 -0.0011
  649MOL0     C87514   9.524   5.956   1.120  0.1489 -0.1787 -0.7418
  649MOL0     O87515   9.654   5.961   1.088  0.2410  0.0802 -0.0727
  649MOL0     C87516   9.738   5.998   1.197 -0.6262 -0.3112  0.0436
  649MOL0     C87517   9.873   6.025   1.132  0.3360  0.2175  0.3341
  649MOL0     C87518   9.944   6.131   1.216 -0.6910 -0.3658 -0.0892
  649MOL0     C87519  10.092   6.145   1.167  0.7315 -0.1408 -0.2939
  649MOL0     C87520  10.172   6.200   1.286  0.1499  0.2324  0.7345
  649MOL0     C87521  10.318   6.244   1.252 -0.8110  0.4212 -0.5299
  649MOL0     C87522  10.320   6.317   1.117 -0.0900  0.6898  0.3989
  649MOL0     C87523  10.457   6.377   1.080 -0.1974 -0.9214  0.8566
  649MOL0    Cl87524  10.506   6.499   1.198 -0.3825 -0.0607 -0.3045
  649MOL0     C87525   9.477   5.894   1.247 -0.1342  1.2270  0.5987
  649MOL0     C87526   9.342   5.887   1.269 -0.0974 -0.6138  0.4589
  649MOL0     O87527   9.088   5.740   1.019  0.3608  0.1808 -0.3203
  649MOL0     C87528   8.815   5.761   1.032 -1.6739 -0.6514 -0.5171
  649MOL0     C87529   8.680   5.762   1.053  1.0604 -0.8141  0.6751
  649MOL0     N87530   7.985   5.561   1.292  0.4765 -0.6391 -0.1788
  649MOL0     N87531   7.879   5.492   1.321  0.1894  0.5245 -0.0083
  649MOL0     C87532   6.862   5.406   2.073  0.1864 -0.8756  0.5756
  649MOL0     C87533   6.797   5.466   2.182 -0.3665  0.4453 -0.3720
  649MOL0     C87534   6.610   5.761   2.471 -0.7694  0.8615  0.4144
  649MOL0     C87535   6.470   5.761   2.470  0.4040  0.1154  1.0119
  649MOL0     C87536   6.390   5.798   2.574 -0.8451  0.1268  0.2413
  649MOL0     C87537   6.464   5.836   2.692 -0.2039  0.4297 -0.1264
  649MOL0     O87538   6.379   5.857   2.801  0.0326  0.1220 -0.0119
  649MOL0     C87539   6.413   5.942   2.914  0.2007 -0.3354  0.4416
  649MOL0     C87540   6.274   5.958   2.983 -0.4524 -1.2864  0.5750
  649MOL0     C87541   6.224   5.820   3.024  0.3995  1.0077 -0.2214
  649MOL0     C87542   6.128   5.841   3.147 -0.6798 -0.7928 -0.2833
  649MOL0     C87543   6.038   5.728   3.173 -0.1823 -0.3725  0.9317
  649MOL0     C87544   5.969   5.635   3.199  0.0510  0.2521  0.6202
  649MOL0     C87545   6.607   5.849   2.699  0.3277  0.1467  0.5035
  649MOL0     C87546   6.677   5.810   2.585  0.0669 -0.7627 -0.1632
  649MOL0     C87547   6.821   5.833   2.576 -1.0200  0.2134 -0.3480
  649MOL0     H87548   7.017   5.710   2.250  2.4832  0.4449 -2.3842
  649MOL0     H87549   7.132   5.613   2.058  0.1227 -2.1302 -2.6145
  649MOL0     H87550   7.187   5.561   1.838  1.0849 -0.9219 -0.0313
  649MOL0     H87551   7.246   5.464   1.968  1.9752  1.6352 -0.7057
  649MOL0     H87552   7.186   5.367   1.675  1.1273 -0.0711  0.0858
  649MOL0     H87553   7.249   5.270   1.805  0.4448 -0.3997 -0.6914
  649MOL0     H87554   7.440   5.387   1.812 -2.0327  0.8489  2.0288
  649MOL0     H87555   7.376   5.534   1.754  0.0471 -0.2233 -0.1859
  649MOL0     H87556   7.519   5.304   1.627  1.7661  1.9933 -1.3911
  649MOL0     H87557   7.366   5.347   1.540  0.8421 -0.2715 -2.4372
  649MOL0     H87558   7.566   5.451   1.436  0.0615  0.4088 -0.4740
  649MOL0     H87559   7.467   5.574   1.536 -1.5183 -0.6479 -0.8699
  649MOL0     H87560   7.709   5.596   1.561  0.7190 -0.0446 -0.8139
  649MOL0     H87561   7.641   5.565   1.710 -0.7305  0.5802 -1.2725
  649MOL0     H87562   7.737   5.332   1.705 -1.0378  1.0156  0.1668
  649MOL0     H87563   7.860   5.460   1.678  1.0607 -0.1533  0.1414
  649MOL0     H87564   7.846   5.235   1.532 -1.8248 -1.2736 -3.4428
  649MOL0     H87565   7.721   5.320   1.440  0.8963  0.8122 -0.5875
  649MOL0     H87566   8.098   5.371   1.522 -0.2256 -2.0524 -1.5142
  649MOL0     H87567   8.269   5.508   1.445  0.0173 -1.0725 -0.3415
  649MOL0     H87568   8.275   5.502   1.266  0.7882  1.9212 -1.0075
  649MOL0     H87569   8.179   5.749   1.402 -1.1471 -0.5674 -2.7212
  649MOL0     H87570   8.357   5.715   1.411 -0.2101 -0.7778 -1.2505
  649MOL0     H87571   8.232   5.866   1.205  0.5790  0.2186  1.4472
  649MOL0     H87572   8.185   5.713   1.154 -2.6375  3.6619  1.0416
  649MOL0     H87573   8.383   5.739   1.038  2.9250 -2.2344 -0.1001
  649MOL0     H87574   8.440   5.645   1.177 -0.4193  0.0370  0.4461
  649MOL0     H87575   8.667   5.987   1.306  1.4350 -0.5626  1.7329
  649MOL0     H87576   8.918   5.980   1.273 -1.2807 -0.9679  0.7068
  649MOL0     H87577   9.233   5.971   0.958  1.5042  0.1816 -1.2596
  649MOL0     H87578   9.474   6.030   0.927 -0.5821 -0.1602 -0.2987
  649MOL0     H87579   9.697   6.091   1.237  2.2073  0.0730  2.3980
  649MOL0     H87580   9.754   5.921   1.272  2.0962  1.5604  1.5366
  649MOL0     H87581   9.936   5.935   1.126  0.9537  0.6988 -0.5510
  649MOL0     H87582   9.868   6.071   1.034  0.5582  0.4641  0.4378
  649MOL0     H87583   9.897   6.230   1.214 -1.6223 -0.7895 -2.3515
  649MOL0     H87584   9.955   6.098   1.319  1.9354  0.6257  0.0206
  649MOL0     H87585  10.091   6.209   1.079  4.2136  1.2099  0.4852
  649MOL0     H87586  10.130   6.046   1.141 -0.6292 -0.7112 -0.2111
  649MOL0     H87587  10.169   6.122   1.363 -0.4959 -1.6755 -1.1278
  649MOL0     H87588  10.115   6.289   1.316 -1.4051 -0.1412 -0.9058
  649MOL0     H87589  10.366   6.302   1.331 -0.8598 -1.8078  1.2392
  649MOL0     H87590  10.372   6.149   1.254  1.4338  1.5868 -1.7872
  649MOL0     H87591  10.245   6.397   1.117 -2.2210 -0.9224 -4.5407
  649MOL0     H87592  10.298   6.249   1.034  0.6867 -1.7054  2.0430
  649MOL0     H87593  10.535   6.301   1.067  0.2273 -0.4060  0.3344
  649MOL0     H87594  10.452   6.425   0.982  2.0538  1.4540  1.7639
  649MOL0     H87595   9.539   5.856   1.328 -0.8564  0.6992  0.9108
  649MOL0     H87596   9.300   5.852   1.363 -3.3195 -3.1383 -1.6771
  649MOL0     H87597   8.854   5.697   0.954  1.3072 -0.9960  1.1296
  649MOL0     H87598   8.615   5.704   0.988 -0.0913 -2.4479  3.1378
  649MOL0     H87599   6.829   5.321   2.014  2.1591 -1.6114  0.4623
  649MOL0     H87600   6.708   5.419   2.222  0.1551 -0.5887 -0.3883
  649MOL0     H87601   6.425   5.722   2.379  2.6563 -0.7177  0.1806
  649MOL0     H87602   6.282   5.789   2.562 -0.7769 -0.7540  0.2195
  649MOL0     H87603   6.459   6.039   2.893  2.4240 -1.3211  0.5188
  649MOL0     H87604   6.489   5.896   2.978  2.0735  0.2186 -1.2998
  649MOL0     H87605   6.194   6.006   2.926  0.1224  0.6169  1.2832
  649MOL0     H87606   6.292   6.033   3.060  2.8236 -0.6384 -0.6199
  649MOL0     H87607   6.305   5.748   3.038 -0.6735 -0.0030  1.0696
  649MOL0     H87608   6.168   5.779   2.939 -0.8506 -3.0425  2.2391
  649MOL0     H87609   6.203   5.870   3.221 -0.0107 -1.0920 -0.8354
  649MOL0     H87610   6.057   5.924   3.139  1.1579  0.9810  0.9126
  649MOL0     H87611   5.921   5.539   3.207  0.5375 -0.1367 -0.8279
  649MOL0     H87612   6.665   5.898   2.776 -1.2549  2.7691  0.1287
  649MOL0     H87613   6.862   5.905   2.647 -0.8702  2.7620 -2.8210
  649MOL0     H87614   6.869   5.735   2.574 -0.5942  0.4298 -1.7035
  649MOL0     H87615   6.846   5.877   2.479  1.0082  1.1117  0.5240
  650MOL0     O87616   8.810   0.513   1.595  0.2572 -0.2527 -0.1559
  650MOL0     C87617   8.894   0.433   1.637  0.1964 -0.2535 -0.0817
  650MOL0     O87618   8.895   0.297   1.632 -0.1669 -0.1039  0.0265
  650MOL0     C87619   8.809   0.219   1.555 -0.1597  0.1816  0.1127
  650MOL0     C87620   8.859   0.103   1.506 -0.2994  0.0680  0.3066
  650MOL0     C87621   8.799   0.017   1.420  0.0638  0.3925 -0.4613
  650MOL0     C87622   8.666   0.054   1.378  0.2741  0.5144 -0.4013
  650MOL0     O87623   8.587  -0.026   1.301 -0.0009  0.2579 -0.4138
  650MOL0     C87624   8.652  -0.130   1.222  0.0789  0.7488 -0.8534
  650MOL0     C87625   8.572  -0.155   1.098  0.2986  0.0634  0.3310
  650MOL0     C87626   8.412  -0.174   1.119 -0.1751  0.0965 -1.0186
  650MOL0     C87627   8.387  -0.290   1.224 -0.1089  0.0702  0.3470
  650MOL0     C87628   8.249  -0.346   1.224 -0.4965  0.1347  0.0019
  650MOL0     C87629   8.143  -0.242   1.248  0.0914  1.2666  0.0735
  650MOL0     C87630   8.166  -0.163   1.380  0.2792 -0.0238 -0.3153
  650MOL0     C87631   8.056  -0.045   1.378 -0.3534 -0.2917  0.2227
  650MOL0     N87632   8.096   0.066   1.282  0.5168  0.2463  0.4908
  650MOL0     C87633   8.198   0.144   1.294  0.4516  0.1865  0.6939
  650MOL0     C87634   8.179   0.251   1.218 -0.5287  0.1081  0.8862
  650MOL0     C87635   8.276   0.368   1.203 -0.3463  0.9073 -0.1088
  650MOL0     C87636   8.334   0.387   1.060  1.0045  0.6181  0.5350
  650MOL0     C87637   8.392   0.249   1.016 -0.5835 -0.7147 -0.1998
  650MOL0     C87638   8.491   0.277   0.896  0.1915 -0.4348  0.1291
  650MOL0     O87639   8.488   0.167   0.804 -0.7136 -0.2037 -0.3016
  650MOL0     C87640   8.389   0.143   0.715 -0.2357  1.0306  0.8123
  650MOL0     C87641   8.267   0.215   0.704 -0.0081  0.9195 -0.1981
  650MOL0     C87642   8.179   0.172   0.601  0.8974  0.3555 -0.8099
  650MOL0     C87643   8.208   0.061   0.517  0.6911 -0.1180  0.5341
  650MOL0     C87644   8.114   0.033   0.410 -0.4185 -0.4848  0.9528
  650MOL0     O87645   8.107  -0.090   0.366 -0.1537  0.2388 -0.5137
  650MOL0     C87646   8.049  -0.128   0.252  0.1380  0.2832 -0.3390
  650MOL0     C87647   7.985  -0.252   0.258 -0.4343  0.8563 -0.9439
  650MOL0     C87648   7.921  -0.304   0.147 -0.4151  1.1932 -0.3483
  650MOL0     C87649   7.895  -0.227   0.029 -0.4701 -0.5548  0.1111
  650MOL0     O87650   7.846  -0.283  -0.086 -0.4174  0.5962  0.9097
  650MOL0     C87651   7.754  -0.388  -0.073 -0.2397  0.5959  1.3263
  650MOL0     C87652   7.650  -0.376  -0.188  0.7208  0.3061  0.2324
  650MOL0     C87653   7.573  -0.505  -0.224 -0.6884 -0.0595 -0.5916
  650MOL0     C87654   7.443  -0.477  -0.298  0.0869  0.0142  0.5224
  650MOL0     C87655   7.351  -0.600  -0.312 -0.5304  0.2572 -0.0872
  650MOL0     C87656   7.248  -0.581  -0.425  0.3995  0.1074 -0.1835
  650MOL0     C87657   7.112  -0.653  -0.392 -0.2221  0.4329  0.9229
  650MOL0     C87658   7.043  -0.699  -0.508 -0.0339  0.9765 -0.2195
  650MOL0    Cl87659   6.986  -0.564  -0.616  0.5869 -0.0485 -0.0608
  650MOL0     C87660   7.953  -0.098   0.027 -0.1866 -0.1799  0.6512
  650MOL0     C87661   8.034  -0.053   0.137  0.4346 -0.7265 -1.3176
  650MOL0     O87662   8.046   0.124   0.364  1.1265 -0.0058 -0.2487
  650MOL0     C87663   8.326  -0.010   0.539 -0.2934  0.6262 -0.3014
  650MOL0     C87664   8.417   0.038   0.630 -0.0467 -0.2386  0.4320
  650MOL0     N87665   8.046   0.243   1.175  0.3005  0.1307  0.7962
  650MOL0     N87666   7.996   0.129   1.211  0.6526 -0.0134  0.3494
  650MOL0     C87667   8.603   0.176   1.422 -0.2026  0.3679 -0.4383
  650MOL0     C87668   8.674   0.251   1.515  0.4001 -0.2353  0.0047
  650MOL0     C87669   9.025   0.490   1.694  0.0389 -0.6440 -0.0651
  650MOL0     C87670   9.144   0.434   1.655  0.4164  0.7266 -0.3122
  650MOL0     C87671   9.267   0.475   1.702  0.0137  0.0054 -0.8542
  650MOL0     C87672   9.281   0.571   1.795 -0.6710  0.3744  0.6332
  650MOL0     O87673   9.395   0.622   1.857 -0.9205 -0.0895 -0.3292
  650MOL0     C87674   9.522   0.580   1.822 -0.9502  0.3739  0.5048
  650MOL0     C87675   9.637   0.669   1.895  0.2684  0.2961  0.0252
  650MOL0     C87676   9.770   0.605   1.857  0.3235 -0.3376  0.5101
  650MOL0     C87677   9.869   0.655   1.964  0.0736  0.2827  0.8309
  650MOL0     C87678  10.005   0.615   1.921  0.2636 -0.4578  0.1431
  650MOL0     C87679  10.124   0.600   1.884  0.1205  0.4052 -0.9468
  650MOL0     C87680   9.164   0.640   1.837  0.0273 -0.1518  0.6786
  650MOL0     C87681   9.042   0.598   1.785 -0.3834  0.6662  0.2169
  650MOL0     C87682   8.919   0.667   1.851 -0.0794 -0.0279 -0.0619
  650MOL0     H87683   8.960   0.070   1.525  0.3194  1.6124 -0.1557
  650MOL0     H87684   8.846  -0.079   1.403  0.8439  0.7105 -0.1386
  650MOL0     H87685   8.756  -0.110   1.192  0.1419  0.9721 -0.5046
  650MOL0     H87686   8.653  -0.219   1.285 -0.0631  2.5509  1.8889
  650MOL0     H87687   8.615  -0.246   1.056  0.8233  0.7393 -0.6353
  650MOL0     H87688   8.591  -0.077   1.024 -0.3459 -1.0783 -1.1000
  650MOL0     H87689   8.369  -0.189   1.020  0.3898  3.8560 -1.9556
  650MOL0     H87690   8.357  -0.092   1.166 -2.8488 -2.9844  1.8214
  650MOL0     H87691   8.457  -0.370   1.200  1.6982  0.8981  2.5103
  650MOL0     H87692   8.430  -0.258   1.320  3.6819 -1.6697 -0.5794
  650MOL0     H87693   8.230  -0.397   1.130  2.8250 -1.2122 -0.0366
  650MOL0     H87694   8.238  -0.419   1.304 -1.1064 -1.0624 -1.1409
  650MOL0     H87695   8.142  -0.177   1.160  1.2315  0.5923 -0.4640
  650MOL0     H87696   8.043  -0.286   1.239  0.7422  0.0072 -1.6229
  650MOL0     H87697   8.266  -0.118   1.385  0.4994 -0.1755 -2.4457
  650MOL0     H87698   8.147  -0.220   1.471 -2.0975  2.4215  0.8560
  650MOL0     H87699   7.955  -0.081   1.356 -0.7640  0.2910  1.0996
  650MOL0     H87700   8.066  -0.008   1.481  1.6055 -0.0330 -0.0152
  650MOL0     H87701   8.284   0.140   1.360 -1.3996  1.5415  3.3509
  650MOL0     H87702   8.219   0.461   1.217  0.5785  1.4409  0.1714
  650MOL0     H87703   8.357   0.352   1.274  1.8842 -0.4778 -2.7596
  650MOL0     H87704   8.258   0.426   0.992 -3.5980 -2.5882  3.2380
  650MOL0     H87705   8.414   0.462   1.064  1.9430 -0.3508  0.4277
  650MOL0     H87706   8.313   0.182   0.981 -1.1802 -0.4337  0.5741
  650MOL0     H87707   8.444   0.196   1.096  1.8285  2.1985  0.3550
  650MOL0     H87708   8.590   0.301   0.936  0.0141 -2.2202  1.8067
  650MOL0     H87709   8.462   0.370   0.847 -2.2249 -0.6107  1.0578
  650MOL0     H87710   8.240   0.297   0.769 -0.6421  1.8573 -1.6046
  650MOL0     H87711   8.085   0.226   0.606  0.8576  0.2535 -0.4648
  650MOL0     H87712   7.994  -0.316   0.346  2.4582 -0.4745 -2.1084
  650MOL0     H87713   7.891  -0.408   0.156  1.1287  0.7210 -0.3455
  650MOL0     H87714   7.813  -0.479  -0.083  2.3796  2.2092  0.9602
  650MOL0     H87715   7.708  -0.389   0.026  1.5487  2.0968  2.2318
  650MOL0     H87716   7.588  -0.296  -0.148  0.8356  1.2617 -1.4217
  650MOL0     H87717   7.693  -0.346  -0.284  0.4118 -1.4918 -0.5104
  650MOL0     H87718   7.640  -0.577  -0.273  0.4111 -1.0816  2.1651
  650MOL0     H87719   7.556  -0.553  -0.127  0.0116  0.2273 -0.3181
  650MOL0     H87720   7.467  -0.427  -0.393 -1.2536  0.9420  0.6336
  650MOL0     H87721   7.386  -0.403  -0.242 -1.3434 -1.0678  0.5702
  650MOL0     H87722   7.319  -0.635  -0.214 -0.2676 -2.1110 -0.7989
  650MOL0     H87723   7.416  -0.679  -0.350 -0.5360  0.2004  0.0222
  650MOL0     H87724   7.225  -0.477  -0.451  2.5518  0.0845 -2.4382
  650MOL0     H87725   7.294  -0.617  -0.517 -0.1306  2.2134 -1.3316
  650MOL0     H87726   7.040  -0.594  -0.334 -0.2486 -1.8805  3.4820
  650MOL0     H87727   7.132  -0.733  -0.319  0.0352 -0.2673  0.0968
  650MOL0     H87728   7.108  -0.768  -0.564 -0.8034 -0.0665  0.1425
  650MOL0     H87729   6.960  -0.767  -0.488  0.3068  0.2473 -1.1685
  650MOL0     H87730   7.928  -0.036  -0.058 -1.3524 -0.6927  0.5966
  650MOL0     H87731   8.077   0.047   0.137  0.7279 -0.7508  1.8372
  650MOL0     H87732   8.361  -0.091   0.475 -0.0861 -0.5156  1.1999
  650MOL0     H87733   8.512  -0.012   0.645  0.9106  1.7903  1.4492
  650MOL0     H87734   8.510   0.212   1.381 -0.2971  2.9065  1.7429
  650MOL0     H87735   8.623   0.341   1.548 -1.6167 -1.2371 -0.2276
  650MOL0     H87736   9.141   0.348   1.589  2.0755  1.1979 -1.0674
  650MOL0     H87737   9.356   0.425   1.665 -0.0498 -0.4313 -0.4256
  650MOL0     H87738   9.543   0.595   1.715 -2.3895  2.8435  0.4891
  650MOL0     H87739   9.529   0.473   1.844 -2.0574 -0.1884 -1.5731
  650MOL0     H87740   9.626   0.665   2.003  1.8164  0.1491  0.1984
  650MOL0     H87741   9.630   0.770   1.855 -0.1598  1.1711  2.1983
  650MOL0     H87742   9.801   0.630   1.755 -1.0444  1.2629  0.4482
  650MOL0     H87743   9.759   0.498   1.877 -0.5591  0.0693  2.4532
  650MOL0     H87744   9.859   0.764   1.975  3.3741  0.7467  0.3608
  650MOL0     H87745   9.850   0.608   2.061  5.5463 -0.4087  1.8532
  650MOL0     H87746  10.228   0.576   1.889  0.0000  0.1727  2.0397
  650MOL0     H87747   9.187   0.723   1.903  0.3207 -1.9140  2.9558
  650MOL0     H87748   8.867   0.725   1.774 -0.9903 -0.6163  0.0861
  650MOL0     H87749   8.863   0.592   1.907  1.1707  0.9176  2.6298
  650MOL0     H87750   8.939   0.742   1.928 -2.6590  1.4166 -0.6583
  651MOL0     O87751   0.122   9.621   4.491  0.7997  0.2152 -0.7569
  651MOL0     C87752   0.103   9.573   4.600 -0.7428  0.2779 -0.0577
  651MOL0     O87753   0.208   9.542   4.691  0.4529 -0.4707 -0.6355
  651MOL0     C87754   0.317   9.624   4.678  0.3633 -0.8024  0.1342
  651MOL0     C87755   0.306   9.763   4.693 -0.6606 -1.3998 -0.6839
  651MOL0     C87756   0.422   9.846   4.667 -0.4349 -1.2809 -0.4545
  651MOL0     C87757   0.543   9.794   4.620 -0.3899  0.1774  0.3120
  651MOL0     O87758   0.647   9.876   4.599  0.6643  0.5497  0.3110
  651MOL0     C87759   0.769   9.817   4.534  0.3211 -0.0898 -0.0157
  651MOL0     C87760   0.880   9.916   4.505 -0.4845  0.1135 -0.3961
  651MOL0     C87761   0.954   9.979   4.628  0.1654  0.3543 -0.8266
  651MOL0     C87762   1.085  10.047   4.589  0.3106 -0.7589 -0.1190
  651MOL0     C87763   1.056  10.197   4.540  0.0245  0.7801 -1.5147
  651MOL0     C87764   1.009  10.281   4.663 -0.0176 -0.8578  0.0731
  651MOL0     C87765   1.111  10.290   4.773 -0.6010  1.1230  0.4236
  651MOL0     C87766   1.094  10.417   4.849  0.6140 -0.0556  0.2751
  651MOL0     N87767   1.190  10.427   4.956  0.0240  0.3935  0.0077
  651MOL0     C87768   1.245  10.328   5.039 -0.1915  0.1249  0.2134
  651MOL0     C87769   1.325  10.391   5.129  0.0037  0.2540 -0.5396
  651MOL0     C87770   1.385  10.309   5.244 -0.4352  0.3536 -0.1610
  651MOL0     C87771   1.518  10.370   5.275  0.7786 -0.6021 -0.3418
  651MOL0     C87772   1.616  10.267   5.341 -0.0282 -0.0652 -0.1146
  651MOL0     C87773   1.747  10.335   5.386 -0.1785  0.0694  0.0724
  651MOL0     O87774   1.843  10.233   5.339 -0.4542  0.5778 -0.1753
  651MOL0     C87775   1.972  10.255   5.369 -0.1699 -0.0389 -0.1441
  651MOL0     C87776   2.018  10.352   5.463  0.7093 -0.0702  0.2510
  651MOL0     C87777   2.151  10.373   5.483 -0.8126  0.4051 -0.5742
  651MOL0     C87778   2.246  10.295   5.411  0.3176 -0.1218 -0.1989
  651MOL0     C87779   2.392  10.297   5.439 -0.0798 -0.3496 -0.5201
  651MOL0     O87780   2.467  10.198   5.389  0.5091 -0.5435  0.2122
  651MOL0     C87781   2.605  10.197   5.381 -0.6076  0.5260 -0.0356
  651MOL0     C87782   2.667  10.090   5.434  0.5392 -0.3061  0.2248
  651MOL0     C87783   2.804  10.078   5.413  0.6073  1.0298  0.1705
  651MOL0     C87784   2.882  10.181   5.349  0.0964  0.2451  0.4121
  651MOL0     O87785   3.007  10.138   5.342 -1.2189  0.2145  0.0602
  651MOL0     C87786   3.105  10.222   5.290 -0.2830  0.2316 -0.2672
  651MOL0     C87787   3.225  10.127   5.272 -0.2779 -0.9544 -0.2704
  651MOL0     C87788   3.355  10.192   5.315  0.6232 -0.6264 -1.5301
  651MOL0     C87789   3.484  10.127   5.251 -0.2576 -0.5094 -0.0219
  651MOL0     C87790   3.609  10.123   5.349  1.0318  0.2740  0.8585
  651MOL0     C87791   3.743  10.112   5.281  0.2826 -0.6619 -0.1436
  651MOL0     C87792   3.857  10.129   5.388 -0.7668 -0.2644  0.1327
  651MOL0     C87793   3.990  10.160   5.326  0.2002  0.2375 -0.3656
  651MOL0    Cl87794   4.109  10.122   5.438 -0.1060  0.6419 -0.2902
  651MOL0     C87795   2.811  10.305   5.316 -0.6316 -0.2820  0.0435
  651MOL0     C87796   2.677  10.313   5.329  0.5349 -0.2099  0.4603
  651MOL0     O87797   2.432  10.383   5.516 -0.3626 -0.6330 -0.4384
  651MOL0     C87798   2.197  10.205   5.313  0.2923  0.5625 -0.4187
  651MOL0     C87799   2.065  10.180   5.295  0.4048 -0.4548  0.0975
  651MOL0     N87800   1.324  10.533   5.106  0.0854 -0.3169  0.0372
  651MOL0     N87801   1.243  10.545   5.001  0.0523  0.2794  0.5394
  651MOL0     C87802   0.548   9.650   4.606  0.7856  0.2893 -1.2701
  651MOL0     C87803   0.436   9.568   4.630  0.6040 -0.5765  0.9570
  651MOL0     C87804  -0.031   9.524   4.644 -0.1195 -0.6658 -0.2995
  651MOL0     C87805  -0.036   9.418   4.727  0.2911  0.5185 -0.1455
  651MOL0     C87806  -0.153   9.368   4.789 -0.6666  1.0353  0.4684
  651MOL0     C87807  -0.273   9.431   4.753 -0.9768 -0.2530 -0.6291
  651MOL0     O87808  -0.397   9.383   4.785  1.5612  0.4882  0.0624
  651MOL0     C87809  -0.408   9.303   4.905 -0.4444  0.0243 -0.1858
  651MOL0     C87810  -0.542   9.229   4.892 -0.0848  0.0392  0.5328
  651MOL0     C87811  -0.560   9.116   4.994 -0.2364 -0.2499 -0.0114
  651MOL0     C87812  -0.709   9.085   5.023  0.0903 -0.7977  0.2731
  651MOL0     C87813  -0.773   9.192   5.093 -0.2062  0.5554  0.0736
  651MOL0     C87814  -0.825   9.288   5.146 -0.0549  0.3792  0.1294
  651MOL0     C87815  -0.268   9.539   4.669  0.3921 -0.1068  0.4926
  651MOL0     C87816  -0.145   9.588   4.607 -0.1366  0.9268 -0.3589
  651MOL0     C87817  -0.163   9.686   4.503 -0.2634 -0.6118 -0.3809
  651MOL0     H87818   0.210   9.806   4.718 -0.2336 -0.4930 -0.5362
  651MOL0     H87819   0.416   9.954   4.674  3.0134 -0.9234 -0.9939
  651MOL0     H87820   0.806   9.738   4.600  1.3653 -3.0636 -3.8008
  651MOL0     H87821   0.737   9.764   4.444  1.1839 -0.5479 -0.0574
  651MOL0     H87822   0.840   9.991   4.436  0.6390  0.6706 -0.4576
  651MOL0     H87823   0.957   9.873   4.440  0.1373  4.4738 -2.9268
  651MOL0     H87824   0.980   9.898   4.697  2.1246  0.1003 -1.7969
  651MOL0     H87825   0.883  10.046   4.677  0.7321  0.0675  0.4264
  651MOL0     H87826   1.146  10.049   4.680 -2.0939  2.0430  1.6212
  651MOL0     H87827   1.153   9.991   4.524  1.0716 -1.0781  0.9191
  651MOL0     H87828   1.148  10.236   4.497 -0.0831  0.9986 -1.5430
  651MOL0     H87829   0.971  10.200   4.471 -1.8545  2.3989  0.7097
  651MOL0     H87830   1.001  10.379   4.614 -0.6989 -1.6895 -1.5723
  651MOL0     H87831   0.911  10.253   4.703 -0.4426  1.5716  0.8901
  651MOL0     H87832   1.211  10.293   4.730 -1.3513  3.9537 -1.3570
  651MOL0     H87833   1.104  10.202   4.838  3.5467 -1.7100 -2.4978
  651MOL0     H87834   1.099  10.499   4.776  0.5953 -1.3026 -1.1879
  651MOL0     H87835   0.994  10.415   4.894 -0.8317 -0.1628 -2.6825
  651MOL0     H87836   1.231  10.221   5.027  0.3774  0.1167 -0.4606
  651MOL0     H87837   1.313  10.317   5.327  0.5299  1.2219  0.6299
  651MOL0     H87838   1.389  10.204   5.213 -1.3538  0.1902  0.2380
  651MOL0     H87839   1.567  10.394   5.180  2.4900 -0.0081  0.6372
  651MOL0     H87840   1.513  10.466   5.327 -1.2519 -0.5132 -0.5996
  651MOL0     H87841   1.638  10.191   5.266 -0.0094  0.4274 -0.6111
  651MOL0     H87842   1.584  10.213   5.431  0.3210  0.9407  0.6325
  651MOL0     H87843   1.738  10.361   5.492 -2.5309 -1.4760  0.3101
  651MOL0     H87844   1.751  10.424   5.323 -4.8893  0.9105  0.6079
  651MOL0     H87845   1.952  10.413   5.525  0.0896 -1.5516  1.0903
  651MOL0     H87846   2.194  10.450   5.546  1.4585 -0.4231 -1.0074
  651MOL0     H87847   2.601  10.015   5.478  1.1104  0.2907  2.1990
  651MOL0     H87848   2.840   9.980   5.441 -1.6399 -0.8537 -2.9513
  651MOL0     H87849   3.068  10.262   5.195 -4.2155 -1.5994  0.2732
  651MOL0     H87850   3.127  10.309   5.353 -2.1736 -1.2635  2.7363
  651MOL0     H87851   3.207  10.032   5.324  1.3243  0.0733  2.3702
  651MOL0     H87852   3.210  10.095   5.168 -1.1741 -1.7584  0.0843
  651MOL0     H87853   3.362  10.299   5.298  1.4676 -0.8157 -2.4664
  651MOL0     H87854   3.360  10.178   5.423  0.0865  3.0021 -0.9306
  651MOL0     H87855   3.503  10.189   5.163  3.2687  0.2312  1.1015
  651MOL0     H87856   3.460  10.034   5.199 -0.2837  0.0618 -1.0462
  651MOL0     H87857   3.587  10.040   5.417 -3.3589 -0.5557 -1.1677
  651MOL0     H87858   3.618  10.205   5.420 -0.4246 -0.3766  1.8527
  651MOL0     H87859   3.745  10.023   5.218 -0.2410  0.0113 -1.1482
  651MOL0     H87860   3.753  10.198   5.213  2.9160 -0.5153  0.3188
  651MOL0     H87861   3.845  10.042   5.453 -1.9168 -0.9697 -0.9681
  651MOL0     H87862   3.838  10.210   5.460 -0.9603  0.9646 -1.2516
  651MOL0     H87863   4.007  10.104   5.234 -0.3672 -0.2304 -0.1899
  651MOL0     H87864   3.990  10.269   5.326 -0.8580  0.2612  0.7204
  651MOL0     H87865   2.863  10.398   5.294 -1.9341  0.3028 -0.6274
  651MOL0     H87866   2.611  10.392   5.294 -0.3924 -1.2942 -0.3142
  651MOL0     H87867   2.257  10.148   5.243 -0.4823 -1.8565  0.7555
  651MOL0     H87868   2.024  10.123   5.212  2.2240  1.9947 -2.7077
  651MOL0     H87869   0.644   9.608   4.580  1.4014 -0.7137  2.1154
  651MOL0     H87870   0.442   9.460   4.620  3.3947 -0.2789 -2.7723
  651MOL0     H87871   0.053   9.370   4.767 -0.7405 -0.6347  0.8488
  651MOL0     H87872  -0.143   9.284   4.858  0.9695 -0.6501 -1.6741
  651MOL0     H87873  -0.415   9.370   4.992 -1.0029 -2.2837  1.6641
  651MOL0     H87874  -0.329   9.229   4.919 -0.2355  0.4408  0.9337
  651MOL0     H87875  -0.564   9.179   4.798  1.6505  0.9324 -0.3954
  651MOL0     H87876  -0.622   9.303   4.901 -0.5288 -0.2509 -0.7738
  651MOL0     H87877  -0.509   9.122   5.091 -2.1493 -2.4901  1.2605
  651MOL0     H87878  -0.522   9.028   4.941  0.7676  0.1162  0.0767
  651MOL0     H87879  -0.767   9.071   4.932 -0.4524 -1.0933  0.6553
  651MOL0     H87880  -0.710   8.990   5.077  0.8419 -1.6972 -1.2296
  651MOL0     H87881  -0.860   9.370   5.205  1.7792  1.0597  0.3442
  651MOL0     H87882  -0.367   9.574   4.641 -0.0984 -2.6228 -1.2687
  651MOL0     H87883  -0.261   9.735   4.507 -0.0683 -0.1084 -1.3767
  651MOL0     H87884  -0.083   9.759   4.523  0.2786 -0.6218 -2.2872
  651MOL0     H87885  -0.141   9.641   4.406 -1.1597 -2.0384  0.0598
  652MOL0     O87886   8.836   5.354   3.685 -1.0887  0.1291 -0.4664
  652MOL0     C87887   8.842   5.396   3.805  0.0460  0.3173  0.1486
  652MOL0     O87888   8.950   5.441   3.879  0.1722  0.8073 -0.2552
  652MOL0     C87889   9.068   5.460   3.823  0.2306 -0.5614  0.0762
  652MOL0     C87890   9.186   5.468   3.897 -0.5343  0.3464  0.4945
  652MOL0     C87891   9.297   5.523   3.838  0.1394  0.1986 -0.2272
  652MOL0     C87892   9.305   5.558   3.701 -0.1752 -0.1807  0.0853
  652MOL0     O87893   9.418   5.621   3.646  0.0686  0.2958 -0.4130
  652MOL0     C87894   9.549   5.582   3.686  0.3091 -0.4506  0.7204
  652MOL0     C87895   9.649   5.672   3.613  0.1009  0.6548 -0.1416
  652MOL0     C87896   9.777   5.658   3.692  0.2754 -0.2651  0.1063
  652MOL0     C87897   9.885   5.740   3.618  0.3147 -0.8044  0.6859
  652MOL0     C87898  10.025   5.754   3.679 -0.0344  0.2504  0.3107
  652MOL0     C87899  10.103   5.856   3.605  0.0215 -0.7289 -0.0777
  652MOL0     C87900  10.244   5.858   3.663  0.4591  0.1160  0.8423
  652MOL0     C87901  10.322   5.963   3.588  0.3244 -0.1081 -0.2342
  652MOL0     N87902  10.433   6.003   3.671 -0.7449 -0.1887  0.3168
  652MOL0     C87903  10.544   5.926   3.699  0.1099  0.6912  0.0482
  652MOL0     C87904  10.602   5.992   3.803 -0.2296  0.1035 -0.0614
  652MOL0     C87905  10.742   5.951   3.852  0.3805 -0.7558  0.2961
  652MOL0     C87906  10.860   6.032   3.786 -0.6310  0.5836 -0.1449
  652MOL0     C87907  10.996   5.985   3.847 -0.6397  0.0456 -0.5439
  652MOL0     C87908  11.122   6.046   3.793  0.1282  0.1016 -1.0582
  652MOL0     O87909  11.243   6.012   3.868 -0.3686 -0.8464 -0.5650
  652MOL0     C87910  11.364   6.064   3.836  0.2082  0.0111  0.0378
  652MOL0     C87911  11.406   6.095   3.700  0.0411 -0.1876  0.5884
  652MOL0     C87912  11.542   6.128   3.679 -0.3652 -0.4525  0.5451
  652MOL0     C87913  11.639   6.135   3.788 -0.5282  0.4885  0.0882
  652MOL0     C87914  11.777   6.181   3.767 -0.4279  0.5974 -0.7103
  652MOL0     O87915  11.841   6.213   3.883 -0.8673  0.5497  0.4193
  652MOL0     C87916  11.972   6.262   3.869 -0.0206 -0.8164  0.1794
  652MOL0     C87917  12.085   6.178   3.874  0.0896 -0.2134  0.4134
  652MOL0     C87918  12.216   6.223   3.859 -1.4358 -1.3425  0.7241
  652MOL0     C87919  12.241   6.356   3.834 -1.1584  0.1167 -0.5261
  652MOL0     O87920  12.370   6.394   3.829 -0.1384 -0.0872  0.1888
  652MOL0     C87921  12.404   6.532   3.872  0.2634  0.5633  0.0938
  652MOL0     C87922  12.549   6.551   3.900  0.1178 -0.6570  0.0929
  652MOL0     C87923  12.588   6.542   4.053 -0.0763  0.4117 -0.3651
  652MOL0     C87924  12.572   6.401   4.111  0.3017  0.6901  0.6758
  652MOL0     C87925  12.643   6.393   4.241  0.8929 -0.6217 -0.5307
  652MOL0     C87926  12.629   6.253   4.293  0.2971  0.1919 -0.1287
  652MOL0     C87927  12.699   6.241   4.428 -0.1872 -0.1307 -0.0886
  652MOL0     C87928  12.688   6.100   4.473  0.4310  0.1792 -0.4352
  652MOL0    Cl87929  12.714   6.091   4.652  0.1987 -0.5380  0.1153
  652MOL0     C87930  12.133   6.440   3.824 -1.1317 -0.1064 -0.6456
  652MOL0     C87931  12.003   6.403   3.842 -0.5833  0.8414  0.0689
  652MOL0     O87932  11.828   6.200   3.654 -0.4050  0.1734 -0.1356
  652MOL0     C87933  11.581   6.122   3.919  0.3534  0.3510  0.0971
  652MOL0     C87934  11.451   6.079   3.942 -0.0684 -0.3064  0.4084
  652MOL0     N87935  10.531   6.104   3.839 -0.1603  0.0198  0.1506
  652MOL0     N87936  10.425   6.105   3.759  0.6632  0.4702  1.2391
  652MOL0     C87937   9.190   5.559   3.637  0.1187  0.2536 -0.2061
  652MOL0     C87938   9.076   5.509   3.691 -0.2137  0.3537 -0.1611
  652MOL0     C87939   8.710   5.387   3.887 -0.5419 -0.5225  0.3725
  652MOL0     C87940   8.726   5.439   4.018 -0.0089 -0.6497 -0.0588
  652MOL0     C87941   8.610   5.452   4.101  0.2540 -0.0602 -0.1848
  652MOL0     C87942   8.484   5.410   4.061  0.8350 -0.3434 -0.5153
  652MOL0     O87943   8.369   5.430   4.150 -1.1014  0.0344  0.1911
  652MOL0     C87944   8.262   5.505   4.090  0.6936  0.1116  0.0558
  652MOL0     C87945   8.138   5.410   4.051 -0.9368 -0.4771 -0.5568
  652MOL0     C87946   8.036   5.406   4.169 -0.0790  0.6291 -0.0997
  652MOL0     C87947   7.957   5.277   4.160  0.1064  0.2174  1.0908
  652MOL0     C87948   7.880   5.257   4.286 -0.0215  0.1600 -1.1834
  652MOL0     C87949   7.813   5.259   4.387  0.9028 -1.3839  0.2259
  652MOL0     C87950   8.480   5.344   3.938 -0.1132 -0.4153 -0.0042
  652MOL0     C87951   8.582   5.337   3.842 -1.1669 -0.3238  0.7156
  652MOL0     C87952   8.572   5.274   3.708  0.2632  0.1138  0.3644
  652MOL0     H87953   9.180   5.443   4.002 -1.2268 -1.6942  0.0070
  652MOL0     H87954   9.390   5.521   3.894  1.4152  2.5344 -2.0664
  652MOL0     H87955   9.561   5.584   3.794 -2.9409 -2.8805  1.2819
  652MOL0     H87956   9.558   5.474   3.671 -0.8228 -0.7732  2.1538
  652MOL0     H87957   9.617   5.777   3.614 -0.4204  0.5016  1.0739
  652MOL0     H87958   9.648   5.647   3.507 -0.7181  1.5369 -0.3571
  652MOL0     H87959   9.815   5.556   3.684 -2.4415 -1.8908  4.3125
  652MOL0     H87960   9.773   5.684   3.799  2.8946  1.2359 -0.0785
  652MOL0     H87961   9.894   5.707   3.514  0.5133  2.1176 -0.3112
  652MOL0     H87962   9.838   5.839   3.618 -1.8334 -1.7574 -0.9330
  652MOL0     H87963  10.007   5.764   3.786  0.4264  0.1290  0.4054
  652MOL0     H87964  10.076   5.657   3.682 -1.9287 -0.7535  2.2382
  652MOL0     H87965  10.097   5.838   3.497  0.8042 -2.1882  0.1015
  652MOL0     H87966  10.054   5.952   3.622  0.0577 -0.2863 -2.2495
  652MOL0     H87967  10.292   5.762   3.644  0.8207  0.8345 -2.6744
  652MOL0     H87968  10.233   5.874   3.770 -2.8884 -0.4318  0.6854
  652MOL0     H87969  10.358   5.914   3.497  3.5840  1.9463 -0.2223
  652MOL0     H87970  10.255   6.046   3.564  0.2477  0.4640  1.7411
  652MOL0     H87971  10.560   5.830   3.650  0.8184  0.9307 -0.1940
  652MOL0     H87972  10.750   5.961   3.960 -2.0426 -1.4327  0.5943
  652MOL0     H87973  10.749   5.845   3.825 -1.5178 -1.5391  2.5540
  652MOL0     H87974  10.862   6.003   3.680  2.8862 -0.7910  0.1596
  652MOL0     H87975  10.852   6.139   3.805  2.3986  0.5987  1.7875
  652MOL0     H87976  11.004   5.876   3.844  1.0170  0.1415 -0.6351
  652MOL0     H87977  10.992   6.010   3.953 -1.2781 -3.2293  0.3403
  652MOL0     H87978  11.109   6.155   3.797  1.3275  0.2215  0.8485
  652MOL0     H87979  11.134   6.025   3.686  2.1648  0.8639 -1.0443
  652MOL0     H87980  11.348   6.074   3.612  2.3824  1.4240 -1.4747
  652MOL0     H87981  11.577   6.140   3.577 -0.6716 -0.8088  0.3976
  652MOL0     H87982  12.071   6.071   3.890 -2.5061  0.0688  0.4870
  652MOL0     H87983  12.295   6.148   3.859 -3.0102 -3.1926 -2.0955
  652MOL0     H87984  12.381   6.611   3.799  0.8880  1.7060  1.1061
  652MOL0     H87985  12.336   6.550   3.956 -4.5515 -0.6107 -3.1564
  652MOL0     H87986  12.609   6.481   3.841  0.2416 -0.4362 -0.0488
  652MOL0     H87987  12.581   6.650   3.863 -4.2033 -0.1121 -2.9187
  652MOL0     H87988  12.697   6.558   4.051  0.2773 -1.7787 -2.2065
  652MOL0     H87989  12.547   6.617   4.122 -0.7657 -0.1094 -0.2021
  652MOL0     H87990  12.620   6.337   4.036 -2.6876 -0.6254 -0.2688
  652MOL0     H87991  12.469   6.368   4.128  0.9080 -2.8508 -1.6416
  652MOL0     H87992  12.597   6.460   4.313  2.1564 -1.4167  1.0712
  652MOL0     H87993  12.744   6.432   4.231  0.1656  0.9740 -2.1707
  652MOL0     H87994  12.529   6.214   4.314  1.2715 -2.2062  0.3689
  652MOL0     H87995  12.680   6.186   4.224  1.3740  2.1703 -1.3350
  652MOL0     H87996  12.650   6.312   4.495 -0.9979  0.4363 -1.2407
  652MOL0     H87997  12.805   6.264   4.415  0.0531 -2.0726 -2.3542
  652MOL0     H87998  12.588   6.063   4.450  0.8542 -2.0549  0.9871
  652MOL0     H87999  12.752   6.019   4.437  0.3473 -1.0719  2.0102
  652MOL0     H88000  12.133   6.546   3.801 -0.9942 -0.1974 -1.0835
  652MOL0     H88001  11.913   6.463   3.839 -1.2169 -0.0096  1.3394
  652MOL0     H88002  11.633   6.119   4.014 -1.8374 -0.2991  1.3518
  652MOL0     H88003  11.429   6.036   4.039  4.4069 -1.5119  1.1367
  652MOL0     H88004   9.184   5.582   3.531 -1.3423  0.4044 -0.1097
  652MOL0     H88005   8.986   5.509   3.629 -0.5273 -2.4775  0.1525
  652MOL0     H88006   8.816   5.480   4.063 -0.5156 -0.0425  0.4187
  652MOL0     H88007   8.618   5.471   4.208  0.4513 -2.7556  0.3617
  652MOL0     H88008   8.306   5.557   4.005  2.3228 -0.1460  0.6969
  652MOL0     H88009   8.218   5.574   4.164 -3.5452 -1.0811 -1.0776
  652MOL0     H88010   8.179   5.311   4.031  1.6204  0.2897  0.5499
  652MOL0     H88011   8.090   5.448   3.960 -0.6449 -0.9439 -0.9154
  652MOL0     H88012   7.962   5.487   4.169  1.0493  1.6986  0.2874
  652MOL0     H88013   8.086   5.423   4.265 -2.2472 -1.6221  1.5725
  652MOL0     H88014   7.884   5.301   4.082  2.1387  2.8720 -0.1207
  652MOL0     H88015   8.010   5.185   4.132  2.1875  1.8435 -0.6856
  652MOL0     H88016   7.763   5.287   4.477  1.4246  1.0102 -0.1523
  652MOL0     H88017   8.387   5.293   3.914  0.6833 -1.5666 -0.6828
  652MOL0     H88018   8.470   5.234   3.698 -0.0779  1.2734 -1.1391
  652MOL0     H88019   8.587   5.352   3.633 -0.0597  1.3648  1.5591
  652MOL0     H88020   8.649   5.198   3.695  0.8016  0.2543  2.3474
  653MOL0     O88021   6.622   7.978   1.564 -0.1212  0.0960 -0.0412
  653MOL0     C88022   6.562   8.051   1.649  0.2731  0.8758 -0.2524
  653MOL0     O88023   6.607   8.170   1.691  0.2909 -0.7193  0.1345
  653MOL0     C88024   6.742   8.202   1.656  0.4242 -0.4991 -0.6110
  653MOL0     C88025   6.850   8.125   1.686  0.2919  0.4978  0.1809
  653MOL0     C88026   6.985   8.172   1.656  0.3992  0.3013  0.7191
  653MOL0     C88027   6.998   8.304   1.608  0.0108  0.1929  0.2718
  653MOL0     O88028   7.128   8.346   1.594  0.0959  0.5343  0.2195
  653MOL0     C88029   7.132   8.489   1.621 -0.7874  0.1407  0.6329
  653MOL0     C88030   7.280   8.511   1.669  0.0117 -0.0015 -0.1665
  653MOL0     C88031   7.379   8.506   1.549 -0.1569  0.1260 -0.5219
  653MOL0     C88032   7.515   8.465   1.616  0.2141 -0.0516 -1.1600
  653MOL0     C88033   7.638   8.504   1.534 -0.6430 -0.3708 -0.7256
  653MOL0     C88034   7.765   8.453   1.594 -0.3586  0.2803 -0.1884
  653MOL0     C88035   7.887   8.526   1.557  0.5487  0.2859  0.3145
  653MOL0     C88036   7.947   8.607   1.658 -0.0512 -0.3140 -0.4363
  653MOL0     N88037   8.067   8.681   1.601 -0.2832  0.3772 -0.0856
  653MOL0     C88038   8.083   8.819   1.583  0.0834 -0.3880 -1.0486
  653MOL0     C88039   8.217   8.840   1.554  0.6689 -0.3770 -0.7026
  653MOL0     C88040   8.292   8.968   1.542 -1.0319  0.0339 -0.3620
  653MOL0     C88041   8.338   9.011   1.684 -0.1033 -0.6026  0.3008
  653MOL0     C88042   8.460   9.093   1.671  0.3839 -0.1033 -0.7793
  653MOL0     C88043   8.524   9.113   1.807  0.0886  0.5029  0.6101
  653MOL0     O88044   8.656   9.161   1.800 -0.2595  0.1477  0.4961
  653MOL0     C88045   8.738   9.170   1.907 -0.7113  0.1907 -0.3096
  653MOL0     C88046   8.874   9.175   1.889 -0.5748 -0.1053 -0.2787
  653MOL0     C88047   8.958   9.180   1.999  0.0604  0.5915  0.6522
  653MOL0     C88048   8.911   9.171   2.128  0.1240  0.5805 -0.5232
  653MOL0     C88049   8.991   9.167   2.260 -0.0871  0.0027 -0.5289
  653MOL0     O88050   8.927   9.169   2.378  0.8130 -0.1916  0.5324
  653MOL0     C88051   8.986   9.176   2.501  0.1392  0.3600  0.8147
  653MOL0     C88052   9.105   9.104   2.531  0.2146  0.0534 -0.2226
  653MOL0     C88053   9.161   9.121   2.657 -0.0623 -0.0694 -0.5465
  653MOL0     C88054   9.092   9.185   2.762  0.5794 -0.8532  0.4849
  653MOL0     O88055   9.146   9.182   2.890 -0.0131 -0.0704  0.7165
  653MOL0     C88056   9.098   9.282   2.987 -0.3807  0.5076  0.2848
  653MOL0     C88057   9.185   9.273   3.110  0.6998  0.0060  0.5469
  653MOL0     C88058   9.177   9.389   3.211  1.2155 -0.6138  0.2111
  653MOL0     C88059   9.035   9.428   3.250 -0.7873  0.9879  0.5230
  653MOL0     C88060   8.942   9.308   3.300 -0.2770 -0.6605  0.9188
  653MOL0     C88061   8.797   9.350   3.309 -0.2205  0.4014  0.0170
  653MOL0     C88062   8.700   9.244   3.379 -0.9987  0.5789 -1.0742
  653MOL0     C88063   8.549   9.267   3.365 -0.6773 -0.4463 -0.4887
  653MOL0    Cl88064   8.465   9.127   3.455  0.1579  0.1042  0.0162
  653MOL0     C88065   8.966   9.238   2.727 -0.2914  0.0998 -0.3272
  653MOL0     C88066   8.919   9.239   2.598  0.4679 -0.7722  1.0376
  653MOL0     O88067   9.115   9.172   2.249 -0.5366 -0.3142  0.0559
  653MOL0     C88068   8.772   9.164   2.146 -0.8205 -0.6189 -1.6997
  653MOL0     C88069   8.688   9.167   2.034 -0.0204 -0.3641  0.7169
  653MOL0     N88070   8.280   8.720   1.546  0.0283 -0.0769 -0.0848
  653MOL0     N88071   8.191   8.627   1.578 -0.5450 -0.7732  0.0449
  653MOL0     C88072   6.886   8.383   1.579 -0.6926  0.6543  0.1664
  653MOL0     C88073   6.757   8.332   1.597 -0.3741  0.9454  0.2851
  653MOL0     C88074   6.427   8.009   1.690 -0.3394  0.5216  0.6717
  653MOL0     C88075   6.371   8.056   1.806 -0.1245  0.1654 -0.5217
  653MOL0     C88076   6.261   7.996   1.863  0.3102 -0.1556 -0.3273
  653MOL0     C88077   6.195   7.899   1.794 -0.2079  0.5188 -0.2189
  653MOL0     O88078   6.087   7.848   1.855  0.8058 -0.1692 -0.1611
  653MOL0     C88079   5.954   7.871   1.801 -0.9075 -0.2780 -0.7039
  653MOL0     C88080   5.852   7.934   1.902 -0.4597  0.3281 -0.9492
  653MOL0     C88081   5.878   7.883   2.045  1.0366 -0.3302 -0.4673
  653MOL0     C88082   5.757   7.912   2.136 -0.8039 -1.0579  0.1373
  653MOL0     C88083   5.649   7.822   2.107  0.3233  0.1696 -0.0127
  653MOL0     C88084   5.564   7.748   2.064 -0.2659  0.0267  0.2549
  653MOL0     C88085   6.235   7.854   1.669  0.3699  0.1300 -0.1491
  653MOL0     C88086   6.350   7.913   1.611 -0.9508 -0.2930 -0.4038
  653MOL0     C88087   6.393   7.861   1.476  0.4080 -0.2979  0.6928
  653MOL0     H88088   6.836   8.027   1.731 -0.3458  1.3671  1.9497
  653MOL0     H88089   7.067   8.105   1.682 -1.4028 -3.0800 -1.6127
  653MOL0     H88090   7.104   8.540   1.529 -1.0078  0.9544  1.1401
  653MOL0     H88091   7.062   8.518   1.700  0.3883  0.7344  1.5001
  653MOL0     H88092   7.310   8.437   1.744  0.8133 -2.4237 -2.7032
  653MOL0     H88093   7.284   8.609   1.716 -0.8126  0.2922 -0.6773
  653MOL0     H88094   7.395   8.610   1.520  2.1109 -0.3019 -0.9378
  653MOL0     H88095   7.356   8.446   1.460  0.5471 -0.1865 -0.4998
  653MOL0     H88096   7.536   8.516   1.711  1.9645  1.0920 -2.1077
  653MOL0     H88097   7.515   8.356   1.628 -0.6268  0.1228  1.0339
  653MOL0     H88098   7.623   8.458   1.435  2.3215  1.4371 -2.1263
  653MOL0     H88099   7.644   8.613   1.526  1.3851 -0.1577  2.1265
  653MOL0     H88100   7.746   8.456   1.702 -0.9628  0.6443 -0.3012
  653MOL0     H88101   7.783   8.350   1.563 -0.1635  0.4751 -0.7214
  653MOL0     H88102   7.867   8.594   1.474  1.4623 -0.4403 -0.5246
  653MOL0     H88103   7.954   8.450   1.516  1.1171  1.4730 -1.0550
  653MOL0     H88104   7.880   8.683   1.699  3.9083  2.9594  0.6839
  653MOL0     H88105   7.984   8.554   1.746 -1.2226  0.2220  0.4001
  653MOL0     H88106   8.017   8.905   1.584  1.5237  0.7529 -1.5284
  653MOL0     H88107   8.377   8.979   1.474 -1.8977  1.6822 -1.2615
  653MOL0     H88108   8.224   9.045   1.504 -2.9545 -1.8625 -0.9745
  653MOL0     H88109   8.264   9.078   1.728 -0.8068 -0.7286 -0.6573
  653MOL0     H88110   8.335   8.929   1.756 -2.1166 -1.6018 -0.8232
  653MOL0     H88111   8.433   9.189   1.625  1.7081  1.1788  0.9851
  653MOL0     H88112   8.539   9.055   1.605  4.7050  1.1808  3.0730
  653MOL0     H88113   8.534   9.016   1.857 -1.3033  0.0211 -0.0089
  653MOL0     H88114   8.473   9.190   1.865 -0.3755  0.1390  0.6931
  653MOL0     H88115   8.920   9.175   1.791 -1.1699  0.2978 -0.5602
  653MOL0     H88116   9.064   9.159   1.989 -0.1315 -0.1540  0.0971
  653MOL0     H88117   9.147   9.032   2.462 -0.2677 -1.5663  1.1047
  653MOL0     H88118   9.261   9.087   2.685 -0.5291  0.9746  2.8818
  653MOL0     H88119   9.115   9.380   2.942  1.1403 -1.0393 -2.9365
  653MOL0     H88120   8.992   9.265   3.005  0.3198 -4.6737  1.0667
  653MOL0     H88121   9.160   9.176   3.155  1.8387 -0.4283  0.2948
  653MOL0     H88122   9.286   9.263   3.068  0.7003 -0.4723  0.6522
  653MOL0     H88123   9.217   9.356   3.307  0.3508 -0.4905  0.6275
  653MOL0     H88124   9.237   9.471   3.172  1.4984 -0.4615  0.9716
  653MOL0     H88125   8.990   9.450   3.153  1.7626 -1.6472 -1.4357
  653MOL0     H88126   9.027   9.516   3.315  1.8065  1.0055  0.9239
  653MOL0     H88127   8.977   9.266   3.394 -0.7700 -1.0398  0.9372
  653MOL0     H88128   8.953   9.224   3.231 -1.0126  1.1835 -1.6330
  653MOL0     H88129   8.790   9.447   3.359 -0.2320 -0.1284  1.0656
  653MOL0     H88130   8.757   9.358   3.207 -1.6929  1.3948  0.6391
  653MOL0     H88131   8.735   9.254   3.483  1.2411 -0.7145 -1.6272
  653MOL0     H88132   8.740   9.146   3.353  0.0256  1.0590 -1.3747
  653MOL0     H88133   8.521   9.363   3.409  1.8561  0.4225 -0.6454
  653MOL0     H88134   8.511   9.276   3.263 -0.6064 -1.7655 -0.6514
  653MOL0     H88135   8.905   9.292   2.799  0.7573  2.2897 -0.9990
  653MOL0     H88136   8.821   9.279   2.576  1.4532  0.5190 -1.4416
  653MOL0     H88137   8.736   9.142   2.246  3.1983 -3.5480 -0.6411
  653MOL0     H88138   8.581   9.150   2.042  0.0535 -1.9219 -1.0185
  653MOL0     H88139   6.892   8.477   1.525 -0.7506 -1.0580 -3.0452
  653MOL0     H88140   6.672   8.398   1.585  0.2258  1.5280 -1.0080
  653MOL0     H88141   6.418   8.135   1.863 -1.5054 -1.8740  3.9366
  653MOL0     H88142   6.214   8.021   1.958 -0.8454 -1.5015 -0.5077
  653MOL0     H88143   5.920   7.771   1.773 -0.2243 -2.3227  4.5681
  653MOL0     H88144   5.958   7.938   1.714 -1.6528  3.5640  1.9485
  653MOL0     H88145   5.749   7.912   1.872 -0.6880  1.7947 -1.3081
  653MOL0     H88146   5.866   8.042   1.899  0.4483  0.4988  3.3661
  653MOL0     H88147   5.967   7.939   2.076  1.7639 -1.5761 -0.2391
  653MOL0     H88148   5.899   7.776   2.039  1.1479 -0.4934  1.9316
  653MOL0     H88149   5.775   7.898   2.243 -2.1652  0.1946  0.5757
  653MOL0     H88150   5.722   8.014   2.116 -3.2035 -2.1913 -2.0535
  653MOL0     H88151   5.493   7.677   2.025  0.5354 -0.5318 -0.1996
  653MOL0     H88152   6.167   7.792   1.612 -1.1007  1.1963  0.3630
  653MOL0     H88153   6.307   7.816   1.426 -0.7515  3.2455 -0.8287
  653MOL0     H88154   6.418   7.948   1.415 -0.6261 -1.7809 -2.0228
  653MOL0     H88155   6.483   7.798   1.478  0.7975  0.1118 -1.6179
  654MOL0     O88156  10.824   7.742   7.944 -0.0916 -0.9251  0.9322
  654MOL0     C88157  10.759   7.824   8.008 -0.0658  0.1744  0.8403
  654MOL0     O88158  10.778   7.957   8.017  0.2867 -0.7064  0.1715
  654MOL0     C88159  10.882   8.028   7.974 -0.1954  0.3495  0.5996
  654MOL0     C88160  11.006   7.974   7.921 -0.0977 -0.5428 -0.7446
  654MOL0     C88161  11.107   8.061   7.872  0.2742 -0.3506  0.3928
  654MOL0     C88162  11.091   8.198   7.875  0.1336  0.0849 -0.5281
  654MOL0     O88163  11.198   8.267   7.837  0.4775 -0.2339  0.9067
  654MOL0     C88164  11.197   8.412   7.825  0.2945 -0.6459  0.2466
  654MOL0     C88165  11.286   8.457   7.705  0.5625 -0.3114 -0.3596
  654MOL0     C88166  11.322   8.607   7.729 -0.4572  0.0526  0.7001
  654MOL0     C88167  11.425   8.624   7.839 -0.1501 -0.3258  0.7321
  654MOL0     C88168  11.498   8.757   7.836 -0.9612  0.1796  0.4888
  654MOL0     C88169  11.664   8.755   7.836  0.3305  0.8130 -0.3383
  654MOL0     C88170  11.721   8.726   7.693  0.4951  0.5618  0.0247
  654MOL0     C88171  11.871   8.729   7.704  0.4536  0.1112 -0.5254
  654MOL0     N88172  11.926   8.691   7.580  0.1967  0.4055  0.6177
  654MOL0     C88173  11.972   8.773   7.481  0.4087  0.0402 -0.6237
  654MOL0     C88174  12.034   8.689   7.394 -0.9769 -0.1519 -0.0826
  654MOL0     C88175  12.117   8.718   7.276 -0.3354  0.1767 -0.1687
  654MOL0     C88176  12.245   8.629   7.285 -0.2936 -0.4533 -0.5549
  654MOL0     C88177  12.339   8.670   7.175  0.1260 -0.0972 -0.4584
  654MOL0     C88178  12.471   8.615   7.201  0.6721  0.2157 -0.5501
  654MOL0     O88179  12.558   8.671   7.096 -0.5730 -0.0002  0.0624
  654MOL0     C88180  12.669   8.734   7.142  0.7610  0.4939 -0.2848
  654MOL0     C88181  12.691   8.856   7.075 -0.4440 -0.1271 -0.3081
  654MOL0     C88182  12.798   8.944   7.108  0.0393  0.1276  0.1472
  654MOL0     C88183  12.890   8.915   7.208  1.3579  0.2637  0.9092
  654MOL0     C88184  13.007   9.000   7.241 -0.0327 -0.7253  0.3212
  654MOL0     O88185  13.077   8.979   7.358 -0.4916 -0.3148  0.2425
  654MOL0     C88186  13.183   9.050   7.400  0.2370 -0.3733 -0.5461
  654MOL0     C88187  13.186   9.080   7.539  0.3276  1.1808  0.6208
  654MOL0     C88188  13.288   9.167   7.583 -0.6601 -0.6755 -0.0855
  654MOL0     C88189  13.384   9.218   7.499  0.1755  0.2476 -0.0398
  654MOL0     O88190  13.489   9.287   7.535 -0.0266  0.0925  0.0838
  654MOL0     C88191  13.447   9.422   7.573 -0.2342 -0.1689 -0.0584
  654MOL0     C88192  13.567   9.487   7.640  0.0581  0.1293  0.2909
  654MOL0     C88193  13.671   9.532   7.536 -0.1374 -1.4512 -0.0908
  654MOL0     C88194  13.617   9.626   7.427 -0.6214  0.4492  0.3136
  654MOL0     C88195  13.727   9.704   7.352 -0.6416 -0.7317  0.3969
  654MOL0     C88196  13.655   9.795   7.243  0.1803 -0.1875 -0.3938
  654MOL0     C88197  13.752   9.863   7.145 -0.3974  0.2410  0.2057
  654MOL0     C88198  13.682   9.916   7.025 -0.1363 -0.4973  0.7304
  654MOL0    Cl88199  13.610  10.060   7.078  0.1892  0.5645 -0.1345
  654MOL0     C88200  13.372   9.189   7.354 -0.2572 -0.4502  0.0217
  654MOL0     C88201  13.273   9.108   7.314  0.8637 -0.5080 -0.3520
  654MOL0     O88202  13.037   9.090   7.161 -0.8298 -1.3444  0.6944
  654MOL0     C88203  12.866   8.791   7.271 -0.4285  0.0853  0.0608
  654MOL0     C88204  12.766   8.693   7.236  0.6723 -0.4202  0.7202
  654MOL0     N88205  12.035   8.558   7.444 -0.1589 -0.2527  0.5209
  654MOL0     N88206  11.965   8.567   7.551 -0.4433 -0.6013  0.4695
  654MOL0     C88207  10.976   8.259   7.931  1.1315  0.7851 -0.0938
  654MOL0     C88208  10.871   8.169   7.980 -0.0408 -0.3647 -0.1603
  654MOL0     C88209  10.645   7.764   8.069 -0.2596 -0.6940  0.4953
  654MOL0     C88210  10.625   7.800   8.202  0.0512 -0.9388  0.3913
  654MOL0     C88211  10.525   7.740   8.268  0.4541 -0.3885 -0.7438
  654MOL0     C88212  10.423   7.658   8.201 -0.4276 -1.0329  0.3262
  654MOL0     O88213  10.308   7.612   8.249  0.7449  0.0013  1.1853
  654MOL0     C88214  10.269   7.674   8.377 -0.7236 -0.4468  0.1297
  654MOL0     C88215  10.126   7.639   8.421 -0.1030  0.1750 -0.5824
  654MOL0     C88216  10.102   7.491   8.416 -0.1413 -0.7022 -0.4125
  654MOL0     C88217   9.966   7.434   8.479 -0.8050 -0.1732 -0.4269
  654MOL0     C88218   9.943   7.307   8.408 -0.3095 -0.6080  0.2830
  654MOL0     C88219   9.893   7.214   8.349  0.3739  0.1902  0.3522
  654MOL0     C88220  10.445   7.626   8.066  0.0204  0.5181  0.7197
  654MOL0     C88221  10.552   7.669   7.994  0.0266  0.6902 -0.3322
  654MOL0     C88222  10.551   7.624   7.852 -0.8187 -0.1605  0.6303
  654MOL0     H88223  11.030   7.868   7.919 -1.6823 -0.9817  0.9638
  654MOL0     H88224  11.194   8.021   7.822 -0.0180 -0.2568 -0.1955
  654MOL0     H88225  11.099   8.457   7.806  1.4402  1.6837 -0.5538
  654MOL0     H88226  11.229   8.448   7.924 -1.8869  1.9723  0.1080
  654MOL0     H88227  11.217   8.455   7.619  1.2341  1.0788 -0.9603
  654MOL0     H88228  11.370   8.392   7.681  3.1986  2.7124  0.0771
  654MOL0     H88229  11.240   8.673   7.759 -0.2203  0.5962  0.1657
  654MOL0     H88230  11.354   8.656   7.636 -1.4616  1.1530  0.9062
  654MOL0     H88231  11.372   8.607   7.934 -0.7478 -2.3843  0.0783
  654MOL0     H88232  11.503   8.548   7.844  0.2915 -0.0056 -0.7675
  654MOL0     H88233  11.466   8.829   7.759 -4.0745  0.8236  2.2540
  654MOL0     H88234  11.468   8.814   7.924  0.5800 -0.5453  1.5164
  654MOL0     H88235  11.696   8.856   7.862  1.2234  0.5524 -0.4133
  654MOL0     H88236  11.696   8.678   7.906  1.3488  0.5424 -1.0826
  654MOL0     H88237  11.670   8.782   7.614  1.8863  1.1375 -0.4936
  654MOL0     H88238  11.697   8.623   7.663 -2.7519  1.4306 -0.7836
  654MOL0     H88239  11.903   8.826   7.745 -0.0662  0.0920 -0.0647
  654MOL0     H88240  11.895   8.657   7.782 -0.1923  0.9615  0.4814
  654MOL0     H88241  11.965   8.882   7.480  0.7142  0.0616 -1.6798
  654MOL0     H88242  12.070   8.682   7.184 -0.2619  1.5080 -0.7552
  654MOL0     H88243  12.138   8.826   7.279  2.2657 -0.2821  1.1568
  654MOL0     H88244  12.290   8.655   7.381 -0.0929  0.1553 -0.8083
  654MOL0     H88245  12.222   8.522   7.272  0.5246 -0.5493 -1.2946
  654MOL0     H88246  12.361   8.777   7.168 -1.1540  0.1887 -0.4003
  654MOL0     H88247  12.313   8.621   7.081 -0.1570 -0.7877 -0.0312
  654MOL0     H88248  12.476   8.506   7.199 -0.2444  0.1647 -0.3532
  654MOL0     H88249  12.503   8.652   7.300  0.6736 -1.5729  0.1597
  654MOL0     H88250  12.606   8.891   7.017 -0.3869  2.1054  0.8401
  654MOL0     H88251  12.803   9.042   7.062  1.9832  0.7058  1.4645
  654MOL0     H88252  13.117   9.035   7.610 -1.7949  1.4086 -1.1800
  654MOL0     H88253  13.294   9.179   7.690 -2.1097 -3.8629  0.4440
  654MOL0     H88254  13.406   9.479   7.490  1.5110 -0.4134 -1.1509
  654MOL0     H88255  13.375   9.420   7.655 -1.3418  0.6177 -0.9773
  654MOL0     H88256  13.529   9.570   7.700  1.3117  0.9686 -0.0212
  654MOL0     H88257  13.618   9.419   7.709 -0.7075  1.2726  2.0675
  654MOL0     H88258  13.755   9.573   7.593 -0.4145 -0.0291 -0.6575
  654MOL0     H88259  13.710   9.444   7.484  0.8480 -0.4283 -1.1401
  654MOL0     H88260  13.551   9.704   7.468 -0.9003  1.8999 -2.6473
  654MOL0     H88261  13.554   9.571   7.357  2.6602  0.5643 -3.0454
  654MOL0     H88262  13.779   9.634   7.286 -2.7186  0.6315 -2.9921
  654MOL0     H88263  13.798   9.758   7.414 -2.0231  3.0204 -0.9839
  654MOL0     H88264  13.589   9.732   7.182 -1.1717  0.3853  0.4126
  654MOL0     H88265  13.579   9.858   7.291 -0.0265  0.4450 -1.5204
  654MOL0     H88266  13.835   9.795   7.126  0.8933  0.9951  2.6488
  654MOL0     H88267  13.798   9.947   7.199  1.1425  0.8145 -1.8441
  654MOL0     H88268  13.758   9.930   6.948 -0.4201  0.0817  0.5453
  654MOL0     H88269  13.608   9.847   6.985  0.0713 -1.9201  2.6657
  654MOL0     H88270  13.433   9.237   7.278 -2.6157 -0.7196 -2.1856
  654MOL0     H88271  13.259   9.083   7.209  0.2566 -2.8538  0.2076
  654MOL0     H88272  12.933   8.760   7.351  1.0333  5.1718  1.1525
  654MOL0     H88273  12.771   8.598   7.289  0.1866 -1.2694 -0.7164
  654MOL0     H88274  10.952   8.364   7.948  1.9224  0.6087  2.6981
  654MOL0     H88275  10.773   8.190   8.022  0.5172  0.9562  0.5094
  654MOL0     H88276  10.681   7.873   8.261 -0.1890 -0.0659 -0.4320
  654MOL0     H88277  10.515   7.759   8.375 -2.2980  1.2989 -1.1818
  654MOL0     H88278  10.251   7.780   8.357  0.4588 -0.3390 -0.4772
  654MOL0     H88279  10.329   7.651   8.466 -0.1247  1.3854  0.2309
  654MOL0     H88280  10.061   7.695   8.353 -3.4106 -0.3083  1.9406
  654MOL0     H88281  10.103   7.675   8.522  2.6075 -0.0961  0.2064
  654MOL0     H88282  10.177   7.429   8.466 -0.6222 -0.6416  0.4082
  654MOL0     H88283  10.100   7.472   8.309 -1.8102 -0.6634 -0.4187
  654MOL0     H88284   9.973   7.420   8.587  3.8172  4.8376  0.3875
  654MOL0     H88285   9.888   7.507   8.453  1.1107  1.9737 -0.5022
  654MOL0     H88286   9.824   7.140   8.315 -1.5095  2.1559 -0.3313
  654MOL0     H88287  10.382   7.562   8.005  1.1394  1.4435 -1.4922
  654MOL0     H88288  10.606   7.700   7.795 -1.3831 -0.5230 -0.4158
  654MOL0     H88289  10.603   7.528   7.839 -0.0424  0.3095  0.1408
  654MOL0     H88290  10.453   7.616   7.804 -0.5966 -1.6141  0.3704
  655MOL0     O88291   9.939   3.655  11.202 -0.3903  0.4880 -0.0709
  655MOL0     C88292   9.847   3.638  11.278  0.6968  0.1534 -0.0366
  655MOL0     O88293   9.860   3.638  11.416 -0.4074 -0.6561 -0.1964
  655MOL0     C88294   9.979   3.658  11.485 -0.8666  1.0442  0.2169
  655MOL0     C88295  10.086   3.729  11.427 -0.0159 -0.4116 -0.7825
  655MOL0     C88296  10.215   3.740  11.510  0.3085  0.0285  0.0181
  655MOL0     C88297  10.225   3.691  11.639  1.1799  1.2066 -0.8259
  655MOL0     O88298  10.333   3.718  11.716  0.6436  0.6497  0.0092
  655MOL0     C88299  10.299   3.717  11.855  0.2471 -0.3212 -0.2497
  655MOL0     C88300  10.412   3.792  11.934 -0.7004  0.8773  0.0123
  655MOL0     C88301  10.514   3.680  11.969 -0.0414 -0.3460 -0.4188
  655MOL0     C88302  10.633   3.736  12.047  0.3348  0.8144 -0.0299
  655MOL0     C88303  10.771   3.679  12.050 -1.0828  0.1822 -0.0529
  655MOL0     C88304  10.823   3.659  11.897  0.1621 -0.0650 -0.3759
  655MOL0     C88305  10.969   3.624  11.889 -0.8142  0.7356 -0.0479
  655MOL0     C88306  11.015   3.641  11.739  1.1067 -0.1435  0.0655
  655MOL0     N88307  11.152   3.594  11.721  0.3391  0.0639  0.1384
  655MOL0     C88308  11.175   3.466  11.675 -0.3692  0.2672 -0.2168
  655MOL0     C88309  11.310   3.445  11.690 -0.8908  0.0470  0.1955
  655MOL0     C88310  11.388   3.328  11.649  0.5858  0.1323  0.1795
  655MOL0     C88311  11.498   3.368  11.548  0.4575  0.6146  0.6952
  655MOL0     C88312  11.595   3.253  11.510 -0.0276  0.2934 -0.3546
  655MOL0     C88313  11.693   3.288  11.399  0.1493  0.0121  0.7158
  655MOL0     O88314  11.799   3.199  11.404 -0.4914 -0.1476  0.6864
  655MOL0     C88315  11.923   3.233  11.353  0.4890 -0.4401  0.5840
  655MOL0     C88316  12.034   3.166  11.386  0.1895  0.6324  1.4792
  655MOL0     C88317  12.158   3.212  11.340  0.6114 -0.6356 -0.2257
  655MOL0     C88318  12.173   3.320  11.250 -0.0284  0.2054 -0.6848
  655MOL0     C88319  12.304   3.363  11.197  0.7173  0.5797 -0.4333
  655MOL0     O88320  12.410   3.276  11.225  0.1901  0.1676 -0.5902
  655MOL0     C88321  12.529   3.300  11.158  1.1084  0.3783 -0.9717
  655MOL0     C88322  12.603   3.191  11.119 -0.8386  0.0274 -0.2477
  655MOL0     C88323  12.721   3.211  11.053 -0.4224  0.1117  0.3114
  655MOL0     C88324  12.770   3.339  11.008 -0.1180  0.6491  0.1257
  655MOL0     O88325  12.882   3.368  10.932  0.4640 -0.3995  0.8182
  655MOL0     C88326  13.002   3.303  10.973 -0.0075 -0.4053  0.7929
  655MOL0     C88327  13.100   3.301  10.859  0.5068 -0.2563  0.6321
  655MOL0     C88328  13.214   3.205  10.866 -0.2651 -0.0236  0.4102
  655MOL0     C88329  13.304   3.206  10.739 -0.2906 -0.0648 -0.1889
  655MOL0     C88330  13.433   3.128  10.777  0.2461  0.3929  0.2568
  655MOL0     C88331  13.524   3.102  10.654  0.1617 -0.4855  0.2347
  655MOL0     C88332  13.572   3.231  10.583  0.3828 -0.0393  0.2485
  655MOL0     C88333  13.639   3.335  10.674  1.3834 -0.3662  0.2705
  655MOL0    Cl88334  13.777   3.269  10.764 -0.4901  0.2586  0.1289
  655MOL0     C88335  12.685   3.446  11.047 -0.0253 -0.0198  0.0757
  655MOL0     C88336  12.574   3.432  11.124  0.5217  0.7000  0.1214
  655MOL0     O88337  12.304   3.458  11.120  0.3204 -0.4475  0.6069
  655MOL0     C88338  12.053   3.390  11.212 -0.6011 -0.0014 -1.1496
  655MOL0     C88339  11.930   3.348  11.266  0.6236  0.1592  0.2165
  655MOL0     N88340  11.364   3.551  11.757  0.1003 -0.8388  0.0242
  655MOL0     N88341  11.269   3.642  11.779 -0.5563  0.5269  0.8356
  655MOL0     C88342  10.100   3.635  11.694  0.5849 -0.3218 -0.1341
  655MOL0     C88343   9.985   3.628  11.616  0.0766 -0.5715  0.0385
  655MOL0     C88344   9.705   3.615  11.227  0.5326  0.1472  0.8297
  655MOL0     C88345   9.595   3.675  11.299  0.2833 -0.4711  0.7031
  655MOL0     C88346   9.460   3.658  11.256  0.0473 -0.0151 -0.4375
  655MOL0     C88347   9.434   3.579  11.151  0.4023 -0.8112 -0.6471
  655MOL0     O88348   9.300   3.557  11.120  0.2530  0.1540 -0.2471
  655MOL0     C88349   9.264   3.470  11.007  0.4202 -0.6913 -0.4551
  655MOL0     C88350   9.119   3.502  10.983 -0.7079 -0.3174 -0.2164
  655MOL0     C88351   9.022   3.419  11.061  0.0732  0.7006 -0.1803
  655MOL0     C88352   8.879   3.420  11.016  0.0387 -0.6772 -0.2966
  655MOL0     C88353   8.803   3.337  11.115 -0.2280 -0.0824 -0.1297
  655MOL0     C88354   8.753   3.268  11.202 -0.0292 -0.8127 -0.2141
  655MOL0     C88355   9.535   3.520  11.081  0.3493 -0.5067  0.9699
  655MOL0     C88356   9.668   3.546  11.109  0.1540 -0.1911  0.4136
  655MOL0     C88357   9.773   3.478  11.015  0.5164 -0.4604 -0.0782
  655MOL0     H88358  10.077   3.776  11.330 -1.0780  2.7777  0.7438
  655MOL0     H88359  10.300   3.787  11.461  0.8110  1.7136  2.3205
  655MOL0     H88360  10.202   3.753  11.890 -0.8988 -2.0892 -1.4115
  655MOL0     H88361  10.291   3.612  11.886  2.0470  0.4101  3.1417
  655MOL0     H88362  10.367   3.832  12.025 -3.5321  0.4199 -1.0906
  655MOL0     H88363  10.462   3.879  11.889  1.9418 -0.3874  0.2875
  655MOL0     H88364  10.550   3.621  11.884 -0.7076 -1.5824  0.1304
  655MOL0     H88365  10.457   3.615  12.036  3.0056 -1.6975  1.0161
  655MOL0     H88366  10.658   3.836  12.009 -0.4128  0.5348 -1.2983
  655MOL0     H88367  10.605   3.752  12.151 -1.0609 -1.7739  0.0628
  655MOL0     H88368  10.834   3.745  12.111  2.5219 -0.3103 -2.9019
  655MOL0     H88369  10.769   3.589  12.111  3.1595  0.5776  0.9494
  655MOL0     H88370  10.767   3.591  11.833 -0.5079  0.2265 -0.1063
  655MOL0     H88371  10.816   3.757  11.848 -1.2371 -0.4440 -0.9894
  655MOL0     H88372  10.991   3.521  11.920 -2.0410  1.1728  2.5609
  655MOL0     H88373  11.020   3.689  11.960 -1.7559 -0.1562  1.5121
  655MOL0     H88374  10.937   3.599  11.676  0.5811 -0.1934  0.7403
  655MOL0     H88375  11.020   3.749  11.721  0.8031 -0.2563 -0.7064
  655MOL0     H88376  11.108   3.391  11.634 -0.9145  1.1460 -0.9532
  655MOL0     H88377  11.433   3.272  11.732  1.5188 -1.1573 -1.1509
  655MOL0     H88378  11.326   3.256  11.595  2.7956 -0.5674 -1.5930
  655MOL0     H88379  11.464   3.410  11.454  2.0349  0.2214 -0.0962
  655MOL0     H88380  11.559   3.445  11.595  1.0794  2.9869 -3.5355
  655MOL0     H88381  11.543   3.160  11.483 -0.1841  0.7834 -1.8097
  655MOL0     H88382  11.646   3.229  11.604  0.1845  2.1770  0.0412
  655MOL0     H88383  11.730   3.390  11.411  2.1479 -0.5460 -0.3629
  655MOL0     H88384  11.644   3.286  11.301  0.5367 -1.8893  0.5225
  655MOL0     H88385  12.016   3.079  11.449  0.1892 -0.3462  0.1511
  655MOL0     H88386  12.239   3.153  11.380  0.2207  0.6158  2.7036
  655MOL0     H88387  12.552   3.095  11.116  0.3743 -0.6942  1.1977
  655MOL0     H88388  12.781   3.128  11.018 -0.4546  0.6527 -1.0884
  655MOL0     H88389  13.045   3.347  11.062  1.0538  0.4143 -0.1005
  655MOL0     H88390  12.985   3.199  11.003  1.3759 -1.7257 -2.4683
  655MOL0     H88391  13.034   3.262  10.781  0.2000 -0.1513  0.8379
  655MOL0     H88392  13.132   3.401  10.827 -2.4110  0.3977 -0.4927
  655MOL0     H88393  13.269   3.231  10.957 -1.1068  0.3914  0.8107
  655MOL0     H88394  13.169   3.108  10.888 -2.0032  1.2712  3.0394
  655MOL0     H88395  13.331   3.309  10.717 -2.5357  1.2291  2.5309
  655MOL0     H88396  13.246   3.165  10.656 -0.0918 -0.0114 -0.3567
  655MOL0     H88397  13.408   3.030  10.819  1.0494  0.4804  0.9718
  655MOL0     H88398  13.496   3.187  10.845  1.3175  1.8097 -1.8547
  655MOL0     H88399  13.605   3.035  10.684  1.1745  0.7066  0.2674
  655MOL0     H88400  13.460   3.051  10.581 -0.9745  1.7511 -0.4284
  655MOL0     H88401  13.484   3.287  10.549  0.6789  1.8355  2.3519
  655MOL0     H88402  13.635   3.210  10.496  2.0302  3.4227  0.4417
  655MOL0     H88403  13.669   3.417  10.608 -0.0524  0.1422  0.2114
  655MOL0     H88404  13.563   3.378  10.740 -0.6592 -0.4710 -1.9121
  655MOL0     H88405  12.711   3.548  11.021 -2.8829  0.5700 -0.8294
  655MOL0     H88406  12.529   3.523  11.161  2.2114  1.2957  0.7919
  655MOL0     H88407  12.049   3.473  11.142 -2.2416  0.1105 -0.9719
  655MOL0     H88408  11.843   3.405  11.235  1.0290  0.6316 -0.0790
  655MOL0     H88409  10.086   3.595  11.794  1.5229  1.1229  0.6130
  655MOL0     H88410   9.895   3.581  11.655  0.1726  1.1067  2.4817
  655MOL0     H88411   9.608   3.720  11.397 -0.3954  0.4230  0.3915
  655MOL0     H88412   9.374   3.695  11.312  0.4514 -0.8622  0.7783
  655MOL0     H88413   9.296   3.368  11.033  3.4153 -0.0586 -1.2166
  655MOL0     H88414   9.325   3.503  10.922  0.7671  0.3178  0.1662
  655MOL0     H88415   9.103   3.486  10.876 -2.8471 -0.4952  0.0802
  655MOL0     H88416   9.099   3.607  11.010  1.1097 -0.1863  0.7454
  655MOL0     H88417   9.034   3.456  11.163 -1.4201 -1.9572  1.0560
  655MOL0     H88418   9.047   3.312  11.060 -1.2751  0.3726 -1.3675
  655MOL0     H88419   8.852   3.526  11.025  1.8747  0.1418 -3.2410
  655MOL0     H88420   8.876   3.400  10.909 -1.0625 -3.4040  0.1504
  655MOL0     H88421   8.717   3.194  11.270 -0.7855 -1.0375 -0.8429
  655MOL0     H88422   9.511   3.467  10.990  0.1888  0.2767  0.5496
  655MOL0     H88423   9.854   3.433  11.073  1.6960  1.4861 -0.1212
  655MOL0     H88424   9.732   3.407  10.943  1.0735 -1.2779  0.3838
  655MOL0     H88425   9.824   3.551  10.953  1.4866 -1.7828 -0.8820
  656MOL0     O88426   6.940   0.842   1.411 -0.1873 -0.3665 -0.3664
  656MOL0     C88427   6.911   0.795   1.304  0.3109  0.2067  0.5036
  656MOL0     O88428   6.905   0.858   1.178 -0.0181 -0.3984 -0.7434
  656MOL0     C88429   6.982   0.969   1.161 -1.0148  0.0706  0.3984
  656MOL0     C88430   6.925   1.091   1.181  0.2860  0.9697  0.6819
  656MOL0     C88431   6.991   1.204   1.138 -0.6197  0.5506  0.2233
  656MOL0     C88432   7.116   1.196   1.082 -0.7484  0.5353  0.0169
  656MOL0     O88433   7.176   1.317   1.059  0.4930 -0.2879  0.1066
  656MOL0     C88434   7.304   1.307   1.013 -0.1467 -0.1790 -0.3150
  656MOL0     C88435   7.350   1.444   0.959 -0.4251  0.6219 -0.3661
  656MOL0     C88436   7.501   1.448   0.915 -1.0438 -0.8736 -0.2218
  656MOL0     C88437   7.519   1.553   0.799 -0.1568 -0.0849  1.1216
  656MOL0     C88438   7.670   1.582   0.776  0.1207 -0.2100  0.1090
  656MOL0     C88439   7.685   1.710   0.691  0.4269 -0.8608  0.0727
  656MOL0     C88440   7.820   1.768   0.651  0.6462  0.0023 -0.8160
  656MOL0     C88441   7.915   1.782   0.775  0.3889  0.6157  1.0400
  656MOL0     N88442   8.031   1.861   0.746 -0.9016  0.2179  0.4477
  656MOL0     C88443   8.022   1.985   0.693  0.3954 -1.0517  0.8839
  656MOL0     C88444   8.149   2.030   0.697  0.2649  0.6860 -0.9389
  656MOL0     C88445   8.189   2.165   0.650  0.2561 -0.0532  0.0988
  656MOL0     C88446   8.281   2.153   0.528 -0.5107  0.3945  0.2230
  656MOL0     C88447   8.313   2.291   0.474  0.4317  0.0139 -0.0165
  656MOL0     C88448   8.400   2.274   0.346  0.6259 -0.0636  0.1489
  656MOL0     O88449   8.452   2.394   0.285  0.2352  0.1996 -0.2743
  656MOL0     C88450   8.557   2.387   0.196 -1.0216  1.1916 -0.5452
  656MOL0     C88451   8.602   2.268   0.120  0.0673  0.8400  1.3960
  656MOL0     C88452   8.716   2.281   0.039 -0.2793  0.4379 -0.5348
  656MOL0     C88453   8.792   2.399   0.042  0.2823 -0.2470 -0.2691
  656MOL0     C88454   8.930   2.402  -0.018  0.0679  1.0944 -0.2917
  656MOL0     O88455   8.989   2.523  -0.028 -0.3677 -0.0924  1.4068
  656MOL0     C88456   9.125   2.532  -0.056 -0.3802  0.2995 -0.5055
  656MOL0     C88457   9.226   2.442  -0.008 -0.7799 -0.6023 -0.3855
  656MOL0     C88458   9.354   2.470  -0.048 -0.1714  0.4827  0.5199
  656MOL0     C88459   9.392   2.580  -0.126  0.4536 -0.6118  0.3088
  656MOL0     O88460   9.521   2.603  -0.166 -0.3250 -0.4781 -0.7946
  656MOL0     C88461   9.587   2.488  -0.217  0.3983 -0.6373  0.5710
  656MOL0     C88462   9.724   2.538  -0.276 -0.5914 -0.4302  0.6515
  656MOL0     C88463   9.750   2.486  -0.420 -0.2511  0.5062 -0.8276
  656MOL0     C88464   9.860   2.574  -0.477 -0.2916 -0.0841  0.0606
  656MOL0     C88465   9.905   2.530  -0.621  0.4874  0.3605  0.7141
  656MOL0     C88466  10.038   2.595  -0.655  0.4469  1.1383  1.1898
  656MOL0     C88467  10.091   2.537  -0.791 -0.1449  0.6373  0.2984
  656MOL0     C88468  10.214   2.628  -0.845 -0.0816 -0.0578 -0.0366
  656MOL0    Cl88469  10.152   2.789  -0.915  0.0879  0.0440 -0.2282
  656MOL0     C88470   9.288   2.674  -0.169  0.3961  0.7693  0.2634
  656MOL0     C88471   9.151   2.636  -0.143 -0.4832 -0.2417 -0.3519
  656MOL0     O88472   8.971   2.296  -0.068 -0.8548 -0.1415 -0.6599
  656MOL0     C88473   8.747   2.517   0.108 -0.1959 -0.1660 -0.0162
  656MOL0     C88474   8.624   2.509   0.172  0.0319 -0.4894 -0.3588
  656MOL0     N88475   8.232   1.933   0.763 -0.5555  0.1903  0.8774
  656MOL0     N88476   8.161   1.830   0.792 -0.2642  0.3463 -0.0848
  656MOL0     C88477   7.184   1.066   1.077 -0.3271 -1.1133 -0.0774
  656MOL0     C88478   7.113   0.954   1.105 -0.5236  0.0903  0.0311
  656MOL0     C88479   6.846   0.660   1.303  0.6968  0.5262 -0.8436
  656MOL0     C88480   6.783   0.626   1.425  0.3543 -0.4039  0.0973
  656MOL0     C88481   6.704   0.514   1.432  0.3475 -0.0832  0.1856
  656MOL0     C88482   6.706   0.413   1.333 -0.2684 -0.3151  0.1200
  656MOL0     O88483   6.634   0.301   1.340 -0.9011 -0.7599 -0.4516
  656MOL0     C88484   6.540   0.281   1.451  0.1785  0.7554 -0.5863
  656MOL0     C88485   6.460   0.146   1.450 -0.2680  0.5382 -0.0122
  656MOL0     C88486   6.402   0.113   1.311  0.0948 -0.2638  0.0449
  656MOL0     C88487   6.283   0.219   1.285  0.6376  0.3493 -0.1533
  656MOL0     C88488   6.219   0.203   1.156  0.8149  0.2484  0.4107
  656MOL0     C88489   6.175   0.158   1.050  0.3700 -0.9933  0.5913
  656MOL0     C88490   6.786   0.433   1.221  0.0018 -0.6890  0.2675
  656MOL0     C88491   6.847   0.566   1.201 -0.9101  0.0052 -0.1216
  656MOL0     C88492   6.911   0.579   1.072 -0.2153 -0.4097 -0.2462
  656MOL0     H88493   6.827   1.094   1.226  0.6896 -0.7062  1.7590
  656MOL0     H88494   6.948   1.302   1.154  0.2693  0.9308  0.3389
  656MOL0     H88495   7.363   1.274   1.099 -1.5621  3.0863  2.1387
  656MOL0     H88496   7.312   1.239   0.928  1.9396  1.1533 -1.2506
  656MOL0     H88497   7.343   1.529   1.028 -0.7529  2.9194 -3.0383
  656MOL0     H88498   7.281   1.472   0.878  0.1134  0.7344 -0.7930
  656MOL0     H88499   7.533   1.352   0.874 -3.3579 -0.0290 -4.6592
  656MOL0     H88500   7.565   1.470   1.001 -0.3429 -0.6422 -0.7995
  656MOL0     H88501   7.481   1.512   0.705  0.3987  0.4602  0.6485
  656MOL0     H88502   7.465   1.645   0.822  0.6940 -0.0506  3.2011
  656MOL0     H88503   7.707   1.612   0.875  2.6463 -2.7408  0.0629
  656MOL0     H88504   7.735   1.498   0.752  0.3915  0.9958 -4.1443
  656MOL0     H88505   7.631   1.700   0.597  2.1445  0.8294 -1.1723
  656MOL0     H88506   7.631   1.792   0.739 -3.2472 -2.7221 -0.5175
  656MOL0     H88507   7.797   1.859   0.595 -2.0228 -1.9681 -3.1995
  656MOL0     H88508   7.864   1.706   0.573  1.8642  1.1385 -1.0777
  656MOL0     H88509   7.873   1.836   0.860  3.6163  3.3785  1.0981
  656MOL0     H88510   7.948   1.681   0.799 -1.2553  0.5514  3.3676
  656MOL0     H88511   7.939   2.049   0.665 -0.6265 -2.3971  0.7539
  656MOL0     H88512   8.102   2.223   0.617 -0.3489 -1.3733 -0.7556
  656MOL0     H88513   8.231   2.212   0.739 -0.0289  0.0603  0.1757
  656MOL0     H88514   8.376   2.104   0.551 -0.9884  0.5861  2.8992
  656MOL0     H88515   8.233   2.085   0.458  2.0194 -0.1725 -1.0519
  656MOL0     H88516   8.373   2.344   0.548 -0.2423  3.2946 -1.6462
  656MOL0     H88517   8.224   2.352   0.455  2.0206  2.3816 -0.1773
  656MOL0     H88518   8.332   2.236   0.269 -1.1128  3.2333 -0.1432
  656MOL0     H88519   8.471   2.197   0.377  0.8100 -0.2843 -0.7989
  656MOL0     H88520   8.546   2.175   0.128 -3.0457  2.5715  1.4098
  656MOL0     H88521   8.760   2.195  -0.012  0.0127  0.3340 -0.1093
  656MOL0     H88522   9.219   2.353   0.055  2.1629 -0.5852  0.1241
  656MOL0     H88523   9.433   2.404  -0.012  0.9797  0.4978 -1.7928
  656MOL0     H88524   9.609   2.408  -0.146 -0.2789 -0.7520  0.6634
  656MOL0     H88525   9.523   2.436  -0.289 -1.1144  1.8473 -0.0324
  656MOL0     H88526   9.733   2.647  -0.272  0.3215 -0.4420 -0.4518
  656MOL0     H88527   9.801   2.497  -0.210 -1.9029 -0.0040  2.5094
  656MOL0     H88528   9.783   2.382  -0.416  0.1900  0.5798 -2.1228
  656MOL0     H88529   9.665   2.485  -0.489 -2.5468 -1.9526  1.7775
  656MOL0     H88530   9.945   2.583  -0.410 -1.3143  1.4493  1.2106
  656MOL0     H88531   9.817   2.674  -0.480 -1.3269 -0.5208 -2.2381
  656MOL0     H88532   9.832   2.547  -0.701  1.9769  0.9540 -0.5719
  656MOL0     H88533   9.924   2.422  -0.618  0.5151  0.3405 -0.0544
  656MOL0     H88534  10.017   2.702  -0.669 -0.2659  1.0492  1.5208
  656MOL0     H88535  10.096   2.574  -0.565  0.6886 -1.3815  0.5109
  656MOL0     H88536  10.012   2.543  -0.867  0.1467  0.8168  0.0063
  656MOL0     H88537  10.126   2.435  -0.769  2.9887  1.7813  1.1117
  656MOL0     H88538  10.289   2.642  -0.767  1.0469  1.8431 -1.3684
  656MOL0     H88539  10.269   2.565  -0.916  0.4387 -0.9857  1.1430
  656MOL0     H88540   9.302   2.751  -0.245 -0.0544 -0.8745 -1.5451
  656MOL0     H88541   9.068   2.690  -0.186 -0.3434  0.7073  0.5367
  656MOL0     H88542   8.801   2.611   0.112  0.8123 -0.7164 -0.2214
  656MOL0     H88543   8.578   2.598   0.214  0.0328 -1.3381  1.5447
  656MOL0     H88544   7.291   1.057   1.059  0.0527  1.7904  0.1892
  656MOL0     H88545   7.145   0.852   1.086  2.0629 -0.0050  3.8075
  656MOL0     H88546   6.791   0.690   1.513  1.5788 -2.4078  1.5303
  656MOL0     H88547   6.641   0.504   1.519  3.0936 -3.7431  2.0288
  656MOL0     H88548   6.469   0.364   1.456 -0.0956  0.4572  0.8531
  656MOL0     H88549   6.595   0.285   1.545  0.2870  1.7185 -0.6809
  656MOL0     H88550   6.374   0.154   1.517  0.7601 -1.9684  1.7595
  656MOL0     H88551   6.513   0.057   1.485 -4.0949 -1.8577  0.3556
  656MOL0     H88552   6.369   0.009   1.306  0.2797 -0.5048  2.5147
  656MOL0     H88553   6.482   0.126   1.237  1.5840 -0.0029  1.6230
  656MOL0     H88554   6.208   0.199   1.362 -0.1819  0.8610 -0.8020
  656MOL0     H88555   6.315   0.322   1.308 -1.8908  1.0943  0.2948
  656MOL0     H88556   6.124   0.141   0.958  2.6829  2.9325 -1.7035
  656MOL0     H88557   6.771   0.357   1.145  0.5264  0.5920 -1.1703
  656MOL0     H88558   6.883   0.499   1.003 -2.4478  1.9197 -2.2697
  656MOL0     H88559   6.889   0.677   1.028  4.1407  0.7000 -0.4051
  656MOL0     H88560   7.020   0.579   1.085  0.0570  3.4413 -1.2063
  657MOL0     O88561   8.026   0.160   3.361  0.4434  0.1203 -0.9071
  657MOL0     C88562   7.992   0.119   3.247  0.9930 -0.3031  0.1361
  657MOL0     O88563   8.068   0.138   3.136 -0.4542 -0.7117  0.0768
  657MOL0     C88564   8.203   0.166   3.151 -0.0579  0.9346  1.1575
  657MOL0     C88565   8.252   0.298   3.147 -0.9607 -0.2153  1.1991
  657MOL0     C88566   8.386   0.320   3.182 -0.6328  0.4126  0.7394
  657MOL0     C88567   8.479   0.213   3.203 -0.3467 -0.0594 -0.0139
  657MOL0     O88568   8.611   0.254   3.208  0.3584  0.5593  0.3501
  657MOL0     C88569   8.703   0.148   3.163  0.1477  0.1490  1.2235
  657MOL0     C88570   8.858   0.193   3.178 -0.5368 -0.0657 -0.0895
  657MOL0     C88571   8.901   0.215   3.322 -0.0919  0.4056 -0.0669
  657MOL0     C88572   8.925   0.086   3.400  0.2386 -0.2512  0.4178
  657MOL0     C88573   9.076   0.056   3.397 -0.4884 -1.2280  0.9809
  657MOL0     C88574   9.166   0.135   3.492 -0.0538 -0.4003  0.0713
  657MOL0     C88575   9.305   0.064   3.519  0.3276 -0.6292  1.2570
  657MOL0     C88576   9.397   0.064   3.396  0.2335 -0.4134  0.4285
  657MOL0     N88577   9.363  -0.031   3.289 -0.1162  0.5927 -0.4591
  657MOL0     C88578   9.312  -0.161   3.302  0.1150  0.0175  0.0278
  657MOL0     C88579   9.270  -0.194   3.176  0.7375 -0.3739  0.6125
  657MOL0     C88580   9.215  -0.328   3.138  0.2499  0.5484 -0.3014
  657MOL0     C88581   9.087  -0.308   3.047 -0.4218 -0.3588  0.3106
  657MOL0     C88582   8.989  -0.249   3.153  0.1575 -1.5432  0.0529
  657MOL0     C88583   8.839  -0.240   3.108 -0.6376 -0.0836  0.3482
  657MOL0     O88584   8.765  -0.196   3.221  1.1396  1.2634  0.0307
  657MOL0     C88585   8.636  -0.251   3.243 -0.5733 -0.8039 -0.2965
  657MOL0     C88586   8.566  -0.312   3.132 -0.0991  0.8468  0.2306
  657MOL0     C88587   8.438  -0.355   3.154 -0.2603  0.0449  0.6785
  657MOL0     C88588   8.367  -0.345   3.279 -0.0775  0.8466  0.4294
  657MOL0     C88589   8.219  -0.360   3.300  0.4100 -0.5034  0.3474
  657MOL0     O88590   8.137  -0.323   3.200  0.6076 -0.4098 -0.4549
  657MOL0     C88591   8.010  -0.375   3.199  0.3349 -0.3975 -0.7381
  657MOL0     C88592   7.901  -0.300   3.174  0.1189 -0.7489  0.2746
  657MOL0     C88593   7.779  -0.351   3.138 -0.7605  0.6780 -0.6801
  657MOL0     C88594   7.753  -0.489   3.144  0.6534  0.3156 -0.0312
  657MOL0     O88595   7.630  -0.533   3.136  1.0298 -0.3704  0.4040
  657MOL0     C88596   7.606  -0.650   3.062 -0.9887 -0.1076 -0.3767
  657MOL0     C88597   7.465  -0.661   3.021 -0.5549  0.4397  0.4348
  657MOL0     C88598   7.370  -0.658   3.143  0.0377 -0.2696  0.4841
  657MOL0     C88599   7.222  -0.683   3.093  0.1574 -0.1149 -0.8788
  657MOL0     C88600   7.131  -0.668   3.209  0.1754 -0.0296  0.1081
  657MOL0     C88601   6.992  -0.714   3.164 -0.6788 -0.0662 -0.2208
  657MOL0     C88602   6.873  -0.696   3.264 -0.5373 -0.4507 -0.8642
  657MOL0     C88603   6.752  -0.782   3.249  0.3881  0.4653  0.3724
  657MOL0    Cl88604   6.793  -0.961   3.260 -0.2447 -0.3351 -0.0720
  657MOL0     C88605   7.867  -0.577   3.167  0.2642  0.7167  0.7512
  657MOL0     C88606   7.992  -0.514   3.190 -0.3334  0.8252 -0.2744
  657MOL0     O88607   8.186  -0.400   3.410 -0.6873  0.4685 -0.1119
  657MOL0     C88608   8.445  -0.295   3.389  0.9498 -0.5219 -0.2713
  657MOL0     C88609   8.576  -0.252   3.368  0.5697  0.2125  0.2258
  657MOL0     N88610   9.286  -0.080   3.099 -0.5780  0.4556  0.0616
  657MOL0     N88611   9.344   0.010   3.161 -0.8163  0.2425 -0.0965
  657MOL0     C88612   8.425   0.082   3.202 -0.4867  0.4998 -0.1460
  657MOL0     C88613   8.290   0.057   3.185  0.1260  0.8947 -0.3458
  657MOL0     C88614   7.851   0.080   3.217  1.2805  0.1879 -1.4101
  657MOL0     C88615   7.818   0.037   3.089  0.0720  0.1771  0.3674
  657MOL0     C88616   7.679   0.004   3.057 -0.7307  0.5318 -0.5965
  657MOL0     C88617   7.581  -0.001   3.150  0.0915 -0.2168 -1.2649
  657MOL0     O88618   7.444   0.004   3.124  0.1973 -0.6644 -0.0467
  657MOL0     C88619   7.377  -0.098   3.054  0.0710  0.2936 -0.1207
  657MOL0     C88620   7.339  -0.204   3.162  0.0679  0.5396  0.1840
  657MOL0     C88621   7.228  -0.154   3.259 -0.2622  1.1214 -0.3480
  657MOL0     C88622   7.076  -0.165   3.226  0.4704 -0.4368  0.3833
  657MOL0     C88623   7.031  -0.146   3.085 -0.0246 -0.3682 -0.7228
  657MOL0     C88624   6.969  -0.138   2.985 -0.3409 -0.2772 -0.0514
  657MOL0     C88625   7.619   0.053   3.274  0.2555 -0.2827  0.7164
  657MOL0     C88626   7.745   0.082   3.312  0.4843  0.0481  0.4690
  657MOL0     C88627   7.752   0.134   3.451  0.5159  0.5560 -0.5624
  657MOL0     H88628   8.189   0.381   3.116 -1.2764 -0.6763  0.5590
  657MOL0     H88629   8.413   0.424   3.170  0.9643 -0.1747 -1.4329
  657MOL0     H88630   8.695   0.048   3.208 -0.5602 -0.3497  0.0292
  657MOL0     H88631   8.691   0.135   3.055 -0.7550  1.4638  1.1479
  657MOL0     H88632   8.885   0.277   3.114 -1.2262  0.1590 -0.0939
  657MOL0     H88633   8.920   0.111   3.140 -0.2324 -0.0623  0.3809
  657MOL0     H88634   8.834   0.282   3.376 -0.9431 -1.1587  0.8968
  657MOL0     H88635   8.994   0.272   3.315 -0.2703  0.5332 -1.9145
  657MOL0     H88636   8.894   0.077   3.504  0.2447 -1.7889  0.3174
  657MOL0     H88637   8.871   0.001   3.357  0.7573 -0.8337  0.9040
  657MOL0     H88638   9.091  -0.052   3.408  0.5934 -1.7908 -3.8992
  657MOL0     H88639   9.109   0.076   3.295 -0.8605 -1.6288  0.7810
  657MOL0     H88640   9.174   0.237   3.453 -1.1641 -1.3996 -3.0419
  657MOL0     H88641   9.105   0.135   3.583 -1.9681 -5.2277 -0.8824
  657MOL0     H88642   9.283  -0.038   3.551  0.0441 -0.3637  1.9251
  657MOL0     H88643   9.344   0.123   3.603  0.9925 -2.8337  2.5612
  657MOL0     H88644   9.380   0.162   3.350 -2.9311 -1.0677  0.0008
  657MOL0     H88645   9.502   0.050   3.423 -0.0906 -1.6386  1.0908
  657MOL0     H88646   9.316  -0.238   3.379 -0.6116 -0.2403 -0.1861
  657MOL0     H88647   9.288  -0.373   3.070 -1.1800  2.5621 -3.4302
  657MOL0     H88648   9.201  -0.393   3.225 -1.6207  1.8554  0.4588
  657MOL0     H88649   9.095  -0.241   2.961 -1.5105  0.0110  0.4810
  657MOL0     H88650   9.051  -0.406   3.014 -0.5160 -0.9029  1.9530
  657MOL0     H88651   9.016  -0.144   3.172 -1.4517 -1.1989  0.5562
  657MOL0     H88652   9.000  -0.305   3.246  1.8985 -2.8872 -0.8983
  657MOL0     H88653   8.812  -0.342   3.080 -3.0443  0.4881  0.3778
  657MOL0     H88654   8.817  -0.173   3.024  1.4567 -1.0973 -1.0890
  657MOL0     H88655   8.592  -0.304   3.027 -3.0980 -0.2712 -0.6988
  657MOL0     H88656   8.390  -0.404   3.069 -0.1254  2.2378 -0.7530
  657MOL0     H88657   7.920  -0.194   3.164  0.9901 -0.9670 -0.5293
  657MOL0     H88658   7.694  -0.285   3.121  1.1836  3.9645  1.2160
  657MOL0     H88659   7.665  -0.643   2.971  2.7948 -1.7575  1.7141
  657MOL0     H88660   7.646  -0.736   3.115 -2.0991 -0.6905 -0.4482
  657MOL0     H88661   7.446  -0.579   2.952 -0.3232 -1.0278 -1.4554
  657MOL0     H88662   7.452  -0.752   2.961  0.5013  1.3596 -1.2529
  657MOL0     H88663   7.407  -0.724   3.221 -1.2079 -1.1936  0.3332
  657MOL0     H88664   7.382  -0.564   3.197  1.0924 -0.7611  1.1242
  657MOL0     H88665   7.218  -0.789   3.068 -1.1766  0.0447 -1.4078
  657MOL0     H88666   7.200  -0.617   3.008 -1.4490 -2.0129 -2.0143
  657MOL0     H88667   7.138  -0.565   3.247  1.4799  0.0724 -0.3630
  657MOL0     H88668   7.152  -0.736   3.292 -0.7877 -0.0068  0.3816
  657MOL0     H88669   6.973  -0.648   3.079  0.9205  2.5057  1.2369
  657MOL0     H88670   7.002  -0.813   3.120 -0.4914  0.6194 -1.8120
  657MOL0     H88671   6.836  -0.596   3.239  3.5477  0.8157 -2.5986
  657MOL0     H88672   6.910  -0.714   3.366  0.6164 -0.2819 -1.2432
  657MOL0     H88673   6.681  -0.756   3.329  0.7456  0.1149  0.8117
  657MOL0     H88674   6.704  -0.764   3.153  0.2707  1.6795  0.6480
  657MOL0     H88675   7.853  -0.684   3.154 -1.5574  1.0042  0.1153
  657MOL0     H88676   8.080  -0.575   3.212  0.9913  2.6223 -0.3051
  657MOL0     H88677   8.400  -0.283   3.487  3.6539 -1.6980  1.2192
  657MOL0     H88678   8.637  -0.209   3.448  1.2829  1.4979 -0.9570
  657MOL0     H88679   8.484  -0.007   3.219 -0.6036  0.0558 -1.9046
  657MOL0     H88680   8.241  -0.040   3.185  0.3477  0.7827 -0.8743
  657MOL0     H88681   7.896   0.011   3.019  0.2706 -1.8468  1.2790
  657MOL0     H88682   7.652  -0.028   2.957 -2.2924  0.2097 -0.1052
  657MOL0     H88683   7.431  -0.156   2.978 -0.6731  0.6232 -0.9187
  657MOL0     H88684   7.283  -0.061   3.012 -0.2654 -1.3048 -0.8417
  657MOL0     H88685   7.427  -0.233   3.220 -1.0190  0.8071  2.0540
  657MOL0     H88686   7.296  -0.290   3.109  2.1430 -0.4294 -0.0419
  657MOL0     H88687   7.247  -0.054   3.299  2.9830 -0.2439  1.9507
  657MOL0     H88688   7.251  -0.207   3.352  2.5283  1.4158 -0.7915
  657MOL0     H88689   7.053  -0.268   3.253 -0.6885  0.5462  3.5890
  657MOL0     H88690   7.016  -0.098   3.288 -1.8203 -2.2877  0.3073
  657MOL0     H88691   6.925  -0.134   2.887  1.6681  1.8148 -0.9684
  657MOL0     H88692   7.535   0.067   3.341 -0.3807 -0.9532  0.0886
  657MOL0     H88693   7.827   0.213   3.460  1.1078  0.0068 -0.6489
  657MOL0     H88694   7.660   0.172   3.498  0.4243 -0.4021  0.0559
  657MOL0     H88695   7.782   0.051   3.516 -0.0839  1.1735  0.5518
  658MOL0     O88696   6.409   8.823   0.900  0.6100 -0.3132  0.4613
  658MOL0     C88697   6.312   8.824   0.975  0.4566  0.2434  0.4832
  658MOL0     O88698   6.273   8.923   1.052 -1.2853 -1.0410  0.4505
  658MOL0     C88699   6.361   9.031   1.048  1.3002  0.3931  0.4466
  658MOL0     C88700   6.476   9.027   1.112 -0.1687 -0.1260 -0.4439
  658MOL0     C88701   6.563   9.136   1.115  0.1923 -0.5725 -0.2240
  658MOL0     C88702   6.525   9.254   1.056  0.7284 -0.5337  0.1612
  658MOL0     O88703   6.613   9.353   1.060  0.4601 -0.5247  0.1583
  658MOL0     C88704   6.637   9.427   0.942  0.5010  0.1674  0.1723
  658MOL0     C88705   6.749   9.532   0.960  0.5108 -0.3745  0.3159
  658MOL0     C88706   6.886   9.461   0.968 -0.2765 -0.7125 -0.4982
  658MOL0     C88707   6.999   9.569   0.962  0.4251  0.8747 -0.2892
  658MOL0     C88708   7.130   9.493   0.979  0.4015  0.6048 -0.1710
  658MOL0     C88709   7.250   9.584   0.944 -0.4778  0.4975 -0.1240
  658MOL0     C88710   7.385   9.525   0.985 -0.2225  0.0961  0.2952
  658MOL0     C88711   7.445   9.431   0.871 -0.1232 -1.3448  0.0287
  658MOL0     N88712   7.597   9.415   0.867  0.1728  0.2888 -0.7267
  658MOL0     C88713   7.673   9.376   0.758  0.5077  0.5635  0.7037
  658MOL0     C88714   7.799   9.376   0.798 -0.7832  0.6364  0.7854
  658MOL0     C88715   7.918   9.355   0.720 -0.5956  0.1631  1.3979
  658MOL0     C88716   7.959   9.205   0.731 -0.4906  0.4733 -0.9161
  658MOL0     C88717   8.096   9.178   0.660  0.0994 -0.3391  0.2085
  658MOL0     C88718   8.219   9.219   0.735 -0.9573 -0.2530  0.4959
  658MOL0     O88719   8.326   9.197   0.637 -0.4047 -0.6422  0.1222
  658MOL0     C88720   8.455   9.181   0.686  0.0335  0.1179 -0.3927
  658MOL0     C88721   8.550   9.093   0.625 -0.2357  0.3913 -0.0704
  658MOL0     C88722   8.678   9.082   0.681  0.1434 -0.0849  0.8500
  658MOL0     C88723   8.725   9.152   0.789  0.1787  0.1620  0.0128
  658MOL0     C88724   8.861   9.135   0.841 -0.7819 -0.8185 -0.3350
  658MOL0     O88725   8.897   9.220   0.940  0.1265  0.7283  0.2860
  658MOL0     C88726   9.013   9.194   1.011 -0.2376 -0.4173  0.4766
  658MOL0     C88727   9.080   9.310   1.034 -0.2088 -0.4311 -0.2753
  658MOL0     C88728   9.191   9.316   1.117 -0.0157 -0.3286 -0.0382
  658MOL0     C88729   9.244   9.191   1.165  0.3964 -0.3806 -0.3361
  658MOL0     O88730   9.345   9.200   1.253 -0.6557 -0.3249 -0.2137
  658MOL0     C88731   9.438   9.092   1.269 -0.5823  0.6161  0.7933
  658MOL0     C88732   9.543   9.086   1.165  0.0296  0.0341 -1.0685
  658MOL0     C88733   9.649   9.202   1.149  0.4553 -0.6699 -0.2267
  658MOL0     C88734   9.747   9.212   1.262  0.2642 -0.2323 -0.0503
  658MOL0     C88735   9.820   9.340   1.265  0.8342 -0.2289 -0.9359
  658MOL0     C88736   9.933   9.348   1.161  0.2835 -0.5077  0.6158
  658MOL0     C88737   9.984   9.498   1.145  0.6638 -0.2467  0.4485
  658MOL0     C88738  10.110   9.506   1.049 -0.3647  0.4241  0.3026
  658MOL0    Cl88739  10.166   9.670   1.077 -0.5612  0.3712  0.1973
  658MOL0     C88740   9.183   9.072   1.122 -0.3130  0.4814 -0.0431
  658MOL0     C88741   9.065   9.078   1.049  0.0381 -0.3272 -0.2324
  658MOL0     O88742   8.934   9.053   0.790  0.0982  0.1786 -0.1661
  658MOL0     C88743   8.637   9.238   0.843  0.6598 -0.2374  0.6993
  658MOL0     C88744   8.506   9.257   0.798  0.5841  0.8693 -0.1259
  658MOL0     N88745   7.802   9.416   0.928 -0.8737 -0.5676 -0.4917
  658MOL0     N88746   7.685   9.441   0.971 -0.0227 -0.4225  0.6957
  658MOL0     C88747   6.399   9.259   0.998  0.1226 -0.2554  0.5075
  658MOL0     C88748   6.311   9.150   0.981 -0.4914  0.6863  0.2121
  658MOL0     C88749   6.236   8.694   0.987 -0.2287  0.7113 -0.2122
  658MOL0     C88750   6.159   8.688   1.104  0.4324  0.5014 -0.5132
  658MOL0     C88751   6.096   8.565   1.122  0.6722  0.4729  0.1707
  658MOL0     C88752   6.099   8.456   1.037 -0.4096 -0.0416  0.0617
  658MOL0     O88753   6.024   8.350   1.079  0.5247 -0.1098  0.3112
  658MOL0     C88754   6.005   8.233   0.997 -0.0330 -0.9130  0.3549
  658MOL0     C88755   5.884   8.154   1.046  0.0633  0.0008  0.8948
  658MOL0     C88756   5.765   8.241   1.073 -0.0005  0.5928 -1.4107
  658MOL0     C88757   5.645   8.144   1.093 -0.8563  0.4177  0.0499
  658MOL0     C88758   5.518   8.202   1.134 -0.5267  0.4870  0.3778
  658MOL0     C88759   5.420   8.265   1.166  0.0140  0.0288  0.9322
  658MOL0     C88760   6.169   8.470   0.917  0.1528 -0.2808  1.2076
  658MOL0     C88761   6.238   8.594   0.887  0.5352  0.6412  0.8472
  658MOL0     C88762   6.313   8.598   0.761  0.5062 -0.9041 -0.1059
  658MOL0     H88763   6.498   8.928   1.152 -0.2018 -0.7420 -1.8589
  658MOL0     H88764   6.664   9.121   1.151  0.7489 -2.0153 -2.1874
  658MOL0     H88765   6.668   9.366   0.856 -1.3681 -3.8898  2.1395
  658MOL0     H88766   6.552   9.492   0.920 -0.9389 -1.7629 -0.2540
  658MOL0     H88767   6.725   9.598   1.044 -2.8449 -2.4742  1.1954
  658MOL0     H88768   6.747   9.596   0.871 -0.2469 -1.0269 -0.1530
  658MOL0     H88769   6.896   9.395   0.882  0.1040 -0.0987 -0.9419
  658MOL0     H88770   6.892   9.415   1.067 -0.8883  1.4313  0.5938
  658MOL0     H88771   6.995   9.633   0.873 -1.3067  0.3845 -0.5995
  658MOL0     H88772   6.979   9.628   1.052  0.2014 -1.1096  1.0411
  658MOL0     H88773   7.131   9.459   1.083 -0.9391  0.3780 -0.2200
  658MOL0     H88774   7.122   9.397   0.926 -0.3766 -0.6739  2.1084
  658MOL0     H88775   7.247   9.601   0.836  2.6051 -1.4383 -0.6366
  658MOL0     H88776   7.229   9.670   1.008 -0.2663 -0.0770  0.7441
  658MOL0     H88777   7.377   9.480   1.085 -1.4831 -2.9857 -1.0716
  658MOL0     H88778   7.449   9.613   0.992 -0.7993  0.5029  0.5590
  658MOL0     H88779   7.381   9.342   0.871  0.8729 -2.0782  0.7629
  658MOL0     H88780   7.427   9.476   0.772  0.0618  1.4342  1.1636
  658MOL0     H88781   7.631   9.345   0.663  0.6925 -2.3531  1.4909
  658MOL0     H88782   7.906   9.381   0.615  0.7953  1.9518  1.6274
  658MOL0     H88783   8.003   9.411   0.761 -1.3670 -0.0870  3.5008
  658MOL0     H88784   7.975   9.180   0.836  2.3813 -0.6862 -1.5524
  658MOL0     H88785   7.885   9.147   0.675 -2.3838 -0.4806  2.3142
  658MOL0     H88786   8.084   9.231   0.565 -1.5917 -0.7390  0.1744
  658MOL0     H88787   8.112   9.072   0.640  0.1591 -0.5702  1.3983
  658MOL0     H88788   8.237   9.163   0.827  2.8591  0.3962  0.2953
  658MOL0     H88789   8.216   9.324   0.765 -0.1045 -0.2703  0.6715
  658MOL0     H88790   8.512   9.023   0.551 -0.0629 -1.6464  1.6985
  658MOL0     H88791   8.748   9.012   0.636 -1.3575 -1.0267 -0.1181
  658MOL0     H88792   9.045   9.409   1.006  3.3128  0.9445 -0.4459
  658MOL0     H88793   9.234   9.409   1.151  1.0622 -1.9215  3.3748
  658MOL0     H88794   9.496   9.105   1.361  1.4841 -2.0761  0.0063
  658MOL0     H88795   9.382   8.998   1.270  1.5438 -0.7326  0.9073
  658MOL0     H88796   9.603   8.998   1.188 -1.3376 -1.6847 -3.5680
  658MOL0     H88797   9.505   9.078   1.063  1.7672 -0.9481 -1.6810
  658MOL0     H88798   9.700   9.188   1.054 -1.7083 -3.1319 -1.1711
  658MOL0     H88799   9.591   9.294   1.141 -1.0607 -1.6777 -1.7249
  658MOL0     H88800   9.809   9.122   1.258 -0.2826 -0.5770 -2.5977
  658MOL0     H88801   9.690   9.201   1.355 -0.6027 -0.2904 -0.5824
  658MOL0     H88802   9.861   9.366   1.362 -0.6407  2.2268 -0.9008
  658MOL0     H88803   9.745   9.417   1.247  2.4410  1.2994 -1.3420
  658MOL0     H88804  10.014   9.286   1.201 -0.8601 -0.0448  4.0152
  658MOL0     H88805   9.899   9.317   1.062  0.2061  0.5947  0.2890
  658MOL0     H88806   9.995   9.548   1.242  0.1816  0.7621  0.0007
  658MOL0     H88807   9.896   9.539   1.095  0.2192 -0.6772  0.8624
  658MOL0     H88808  10.185   9.434   1.084  1.0611  0.1071 -3.0286
  658MOL0     H88809  10.092   9.489   0.943  3.1195 -0.5107 -0.2664
  658MOL0     H88810   9.216   8.972   1.148  2.2661  0.8332 -1.5917
  658MOL0     H88811   8.998   8.998   1.019 -0.0313  1.3497 -5.4891
  658MOL0     H88812   8.665   9.289   0.934  2.8234 -0.7588  0.3935
  658MOL0     H88813   8.447   9.336   0.843 -0.3946 -0.4969  1.0444
  658MOL0     H88814   6.367   9.355   0.959  1.1952 -0.5520 -1.1841
  658MOL0     H88815   6.212   9.150   0.938  0.7193  0.8848 -2.8428
  658MOL0     H88816   6.148   8.766   1.178 -2.3237  0.3512 -0.6422
  658MOL0     H88817   6.049   8.543   1.217 -1.1852  1.8960 -0.3540
  658MOL0     H88818   6.095   8.171   0.995  0.0170 -0.8262 -1.1046
  658MOL0     H88819   5.998   8.276   0.897  0.1557 -0.1586  0.6547
  658MOL0     H88820   5.918   8.110   1.140 -1.0500  1.2092  1.9019
  658MOL0     H88821   5.852   8.068   0.988  1.1181 -0.0564  0.3748
  658MOL0     H88822   5.735   8.301   0.986  0.2410  1.4082 -0.9474
  658MOL0     H88823   5.789   8.312   1.153  2.1718 -0.4104 -1.1108
  658MOL0     H88824   5.625   8.092   0.999  0.2936  0.3352 -0.1541
  658MOL0     H88825   5.683   8.079   1.173  0.0502  0.6959 -0.1426
  658MOL0     H88826   5.334   8.328   1.176  0.5211  0.9509 -0.2686
  658MOL0     H88827   6.175   8.387   0.848 -2.8444 -2.2240  3.0369
  658MOL0     H88828   6.288   8.692   0.711  5.3262  0.1906 -1.0406
  658MOL0     H88829   6.420   8.621   0.771 -0.1582  3.1534 -0.4338
  658MOL0     H88830   6.310   8.514   0.692 -1.0557 -0.4979 -0.5744
  659MOL0     O88831  10.444   2.466   7.828 -0.9001 -0.3123  0.6298
  659MOL0     C88832  10.353   2.439   7.748  0.1475  0.5243 -0.3439
  659MOL0     O88833  10.384   2.401   7.613  0.4646 -0.0034 -0.4950
  659MOL0     C88834  10.505   2.337   7.593 -0.6006 -0.1229 -0.1482
  659MOL0     C88835  10.529   2.198   7.626 -0.0952 -0.4875 -0.6220
  659MOL0     C88836  10.654   2.136   7.602  0.3742  0.4203  0.2521
  659MOL0     C88837  10.755   2.202   7.553 -0.8600 -0.4303 -0.4182
  659MOL0     O88838  10.888   2.157   7.558 -0.3778 -0.0704 -0.1262
  659MOL0     C88839  10.959   2.234   7.655 -0.0933 -0.0768 -0.5842
  659MOL0     C88840  11.061   2.148   7.738 -0.5393  0.3060 -0.1985
  659MOL0     C88841  11.180   2.225   7.794  0.3590  0.0800 -0.9138
  659MOL0     C88842  11.143   2.364   7.852 -0.9958 -1.0141  0.2110
  659MOL0     C88843  11.270   2.434   7.914  0.6520 -0.1156  0.3140
  659MOL0     C88844  11.376   2.455   7.815 -0.9021 -0.9724  0.6428
  659MOL0     C88845  11.506   2.532   7.879 -1.2854 -0.2347 -0.0170
  659MOL0     C88846  11.512   2.677   7.843  0.6142  0.0632 -0.6750
  659MOL0     N88847  11.644   2.738   7.861  0.0757  0.6379  0.3138
  659MOL0     C88848  11.698   2.774   7.979  0.7613  0.5595 -0.2182
  659MOL0     C88849  11.821   2.808   7.942  0.3757  0.0892  0.8922
  659MOL0     C88850  11.933   2.834   8.031 -0.5191  0.5740  0.7590
  659MOL0     C88851  12.028   2.936   7.961 -0.1965  0.6931 -0.3795
  659MOL0     C88852  12.150   2.951   8.051  0.4934  0.2479  0.3398
  659MOL0     C88853  12.250   3.037   7.983 -1.0149 -0.0576  1.0305
  659MOL0     O88854  12.373   3.041   8.062 -0.0969 -0.3088  0.9116
  659MOL0     C88855  12.472   3.136   8.028  0.3866  0.3853  0.6476
  659MOL0     C88856  12.492   3.211   7.912  0.3909  0.0397 -0.2758
  659MOL0     C88857  12.600   3.298   7.895  0.1462  0.4610 -0.3474
  659MOL0     C88858  12.683   3.327   8.006  0.0737  0.4262 -0.9170
  659MOL0     C88859  12.791   3.425   7.994 -0.8012 -0.1539 -0.7053
  659MOL0     O88860  12.810   3.488   7.872  0.4041  0.1999  0.1576
  659MOL0     C88861  12.921   3.564   7.849  0.0899 -0.4351  0.3063
  659MOL0     C88862  13.049   3.563   7.903 -0.3293  0.3711 -0.0041
  659MOL0     C88863  13.151   3.647   7.877 -0.0422  0.1360  0.1149
  659MOL0     C88864  13.135   3.756   7.778  0.7116  0.8433  0.0326
  659MOL0     O88865  13.223   3.853   7.739  0.2971  0.0875 -0.7687
  659MOL0     C88866  13.361   3.839   7.777  0.6835  0.2290  0.6084
  659MOL0     C88867  13.413   3.981   7.729  0.4774  0.9952 -1.2831
  659MOL0     C88868  13.549   4.021   7.778  0.1367  0.1196 -0.7088
  659MOL0     C88869  13.659   3.932   7.732 -0.1277  0.1087 -0.3380
  659MOL0     C88870  13.790   3.986   7.806 -0.2149 -0.3453 -0.5688
  659MOL0     C88871  13.917   3.908   7.773  0.5292  0.3776 -0.1733
  659MOL0     C88872  14.048   3.960   7.839  0.5630 -0.0677  0.4876
  659MOL0     C88873  14.061   4.109   7.831 -0.6811  0.2170  0.2760
  659MOL0    Cl88874  14.222   4.178   7.849  0.5107  0.2548 -0.2498
  659MOL0     C88875  13.006   3.754   7.716 -0.1556 -0.4430  0.4705
  659MOL0     C88876  12.906   3.667   7.759  0.0802 -0.2806 -0.4139
  659MOL0     O88877  12.848   3.451   8.102 -0.1927  0.5673  1.0032
  659MOL0     C88878  12.663   3.255   8.126  0.3858  0.0792  0.6652
  659MOL0     C88879  12.556   3.158   8.143 -0.4807  0.2108 -0.1139
  659MOL0     N88880  11.832   2.801   7.801 -0.2185  0.7731  0.0764
  659MOL0     N88881  11.726   2.745   7.756  0.1329 -0.7545  0.8421
  659MOL0     C88882  10.738   2.333   7.515 -0.3450 -0.0383  0.7801
  659MOL0     C88883  10.614   2.403   7.528  0.3589  0.9472 -0.0672
  659MOL0     C88884  10.215   2.433   7.795 -0.5170  0.3756 -0.1042
  659MOL0     C88885  10.113   2.361   7.718  0.3649  0.1197  1.0608
  659MOL0     C88886   9.980   2.340   7.762 -0.6617 -0.4006 -0.0991
  659MOL0     C88887   9.942   2.393   7.890 -0.0261 -0.0670 -0.3603
  659MOL0     O88888   9.830   2.351   7.961  0.3203 -0.1627 -0.4681
  659MOL0     C88889   9.741   2.256   7.892 -1.1462 -0.6107  0.2831
  659MOL0     C88890   9.607   2.243   7.964 -0.8138  0.3294 -0.3580
  659MOL0     C88891   9.509   2.350   7.923 -0.1514 -0.8847 -0.9796
  659MOL0     C88892   9.369   2.340   7.980  0.5135  0.5168  0.8357
  659MOL0     C88893   9.345   2.433   8.088  0.6476 -0.5207  0.7466
  659MOL0     C88894   9.326   2.523   8.172  0.6230  0.3792  0.5434
  659MOL0     C88895  10.036   2.461   7.966  0.4923  0.3784  0.4550
  659MOL0     C88896  10.160   2.496   7.914 -0.6513 -0.4782 -1.2087
  659MOL0     C88897  10.229   2.613   7.978 -0.7762  0.3569 -0.0526
  659MOL0     H88898  10.448   2.139   7.666 -1.1400  1.1671 -0.2313
  659MOL0     H88899  10.660   2.036   7.643 -0.9091  1.5838  3.7311
  659MOL0     H88900  11.023   2.313   7.615  1.5082 -0.8925  0.2541
  659MOL0     H88901  10.887   2.277   7.726  0.8068  0.9914 -0.2792
  659MOL0     H88902  11.102   2.069   7.674 -0.9232 -2.0996  2.3315
  659MOL0     H88903  11.017   2.086   7.817 -4.0584 -0.0637 -2.2509
  659MOL0     H88904  11.242   2.231   7.704  1.2381 -2.3570 -0.5515
  659MOL0     H88905  11.232   2.162   7.867 -0.6813  0.1562 -0.0875
  659MOL0     H88906  11.113   2.429   7.770 -0.1536  1.7483  1.9424
  659MOL0     H88907  11.073   2.363   7.936  0.2771 -1.4149  1.3129
  659MOL0     H88908  11.234   2.528   7.956  0.4381  1.2486 -2.6257
  659MOL0     H88909  11.318   2.381   7.997  1.4780 -0.5300 -0.4078
  659MOL0     H88910  11.417   2.363   7.772  0.0809  0.6548 -2.1982
  659MOL0     H88911  11.343   2.510   7.727 -0.9742 -1.1914  0.5329
  659MOL0     H88912  11.598   2.485   7.843  0.5124  1.8442  1.5884
  659MOL0     H88913  11.521   2.522   7.987 -0.2642 -2.7132 -0.3097
  659MOL0     H88914  11.489   2.695   7.738  1.9375 -0.4757 -1.0807
  659MOL0     H88915  11.436   2.726   7.904  0.4868 -1.2646  0.2758
  659MOL0     H88916  11.660   2.760   8.080 -1.3388 -0.0597 -1.0333
  659MOL0     H88917  11.882   2.873   8.120 -0.4293  0.8591  0.6851
  659MOL0     H88918  11.976   2.734   8.043 -3.2867 -0.8882 -0.5060
  659MOL0     H88919  12.063   2.899   7.864 -1.5920 -0.2368 -0.5664
  659MOL0     H88920  11.975   3.029   7.938 -1.6357 -0.1060 -0.4594
  659MOL0     H88921  12.200   2.854   8.047  1.3074  0.6758 -0.6020
  659MOL0     H88922  12.134   2.977   8.156  0.0636  1.9561 -0.1179
  659MOL0     H88923  12.211   3.138   7.966  0.3044  0.4190  0.7162
  659MOL0     H88924  12.271   3.005   7.881  2.2430  2.9604  0.5519
  659MOL0     H88925  12.432   3.195   7.823  0.6228 -1.8663 -0.1298
  659MOL0     H88926  12.619   3.355   7.805  1.5157  3.6930  1.8055
  659MOL0     H88927  13.079   3.479   7.965  0.4781  1.1472  0.6971
  659MOL0     H88928  13.244   3.638   7.933 -0.8848  0.7032  1.6617
  659MOL0     H88929  13.388   3.838   7.883  1.5636  1.4183  0.4162
  659MOL0     H88930  13.404   3.754   7.724  3.3041 -0.3040  3.3270
  659MOL0     H88931  13.406   3.996   7.621  1.5472  2.5766 -1.1610
  659MOL0     H88932  13.349   4.055   7.777 -1.2651 -1.3937  0.2962
  659MOL0     H88933  13.570   4.120   7.737 -0.8902  0.7976  0.3718
  659MOL0     H88934  13.552   4.032   7.886 -0.3298  2.9283 -0.9171
  659MOL0     H88935  13.674   3.931   7.624 -0.2076  0.4000 -0.3539
  659MOL0     H88936  13.649   3.827   7.762  1.7386  0.2796  1.0259
  659MOL0     H88937  13.769   3.973   7.913  1.9838  0.3670 -0.0072
  659MOL0     H88938  13.792   4.093   7.783 -0.6302 -0.2574 -0.2104
  659MOL0     H88939  13.913   3.799   7.779  1.4010  0.3901  0.9997
  659MOL0     H88940  13.936   3.935   7.669  2.8271  2.1678  0.6341
  659MOL0     H88941  14.132   3.914   7.786 -1.7008 -0.6106 -2.9547
  659MOL0     H88942  14.042   3.930   7.944  0.8297 -1.9264  0.0126
  659MOL0     H88943  14.023   4.144   7.734  1.1950 -3.7829 -2.1732
  659MOL0     H88944  13.998   4.149   7.911  2.0409  3.2790  1.0577
  659MOL0     H88945  12.976   3.832   7.647 -1.5076 -1.5430 -0.2433
  659MOL0     H88946  12.800   3.683   7.737 -0.2305  1.1371  1.7703
  659MOL0     H88947  12.716   3.293   8.213  0.6314 -0.0939  0.5918
  659MOL0     H88948  12.541   3.110   8.239 -0.5073  0.4167 -0.0136
  659MOL0     H88949  10.817   2.380   7.457 -0.1283  0.9581  1.8596
  659MOL0     H88950  10.604   2.504   7.489  2.7048  1.4871  0.5672
  659MOL0     H88951  10.136   2.324   7.619 -0.0205  1.0815  0.6056
  659MOL0     H88952   9.912   2.282   7.701 -1.6234 -0.7319  1.2529
  659MOL0     H88953   9.788   2.159   7.873  0.6915  0.6594 -2.2759
  659MOL0     H88954   9.719   2.298   7.794  2.5691 -0.8379 -0.8136
  659MOL0     H88955   9.627   2.249   8.072  1.2842  1.1526 -0.7565
  659MOL0     H88956   9.570   2.142   7.941 -1.6756  0.9838 -1.9401
  659MOL0     H88957   9.500   2.344   7.814 -1.0308 -0.0680 -0.9604
  659MOL0     H88958   9.539   2.453   7.945 -3.7198  0.3977 -1.4603
  659MOL0     H88959   9.295   2.355   7.900 -1.7131 -3.4082  1.8842
  659MOL0     H88960   9.342   2.238   8.010 -1.2787 -0.0276 -2.2024
  659MOL0     H88961   9.309   2.604   8.240 -2.6901  2.6321 -2.5646
  659MOL0     H88962  10.011   2.503   8.062 -1.5737  0.3085 -0.0176
  659MOL0     H88963  10.180   2.695   8.031 -1.5818  0.8115 -1.4684
  659MOL0     H88964  10.301   2.568   8.048 -1.7214 -1.8176 -0.3752
  659MOL0     H88965  10.280   2.665   7.897 -2.2695  2.2336  0.1512
  660MOL0     O88966   9.593   1.399   1.035 -0.4767  0.1898  0.0331
  660MOL0     C88967   9.659   1.363   1.127  0.0352  1.0847  0.5662
  660MOL0     O88968   9.623   1.345   1.259  0.0900 -0.4141 -0.3374
  660MOL0     C88969   9.491   1.353   1.294  0.0253 -0.2768 -0.0928
  660MOL0     C88970   9.446   1.227   1.342  0.4300 -0.0414  0.4036
  660MOL0     C88971   9.316   1.221   1.388 -0.9129  0.0641 -0.2300
  660MOL0     C88972   9.235   1.332   1.404 -0.5008  0.6625 -0.6297
  660MOL0     O88973   9.111   1.328   1.455 -0.3641 -0.6575  0.2505
  660MOL0     C88974   9.087   1.273   1.588  0.4600 -0.3337 -0.1580
  660MOL0     C88975   8.953   1.323   1.649  0.3609 -0.8110 -0.0426
  660MOL0     C88976   8.834   1.235   1.611 -0.6118 -0.4390 -0.2217
  660MOL0     C88977   8.711   1.301   1.643  0.5800 -0.2675 -1.2152
  660MOL0     C88978   8.677   1.337   1.789 -0.4241 -0.1570 -0.1909
  660MOL0     C88979   8.656   1.203   1.873  1.4141 -0.3787 -0.3991
  660MOL0     C88980   8.559   1.233   1.991 -0.3673 -0.6542 -0.5096
  660MOL0     C88981   8.414   1.188   1.958  0.6810 -0.4580 -0.4838
  660MOL0     N88982   8.322   1.188   2.074  0.3921 -0.0500 -0.4542
  660MOL0     C88983   8.352   1.145   2.206 -0.2852 -0.1908 -0.9785
  660MOL0     C88984   8.256   1.183   2.289  0.3988 -0.5916 -0.2992
  660MOL0     C88985   8.229   1.179   2.433  0.2674  0.3783  0.3706
  660MOL0     C88986   8.365   1.189   2.510 -0.5439 -0.5050 -0.1060
  660MOL0     C88987   8.419   1.054   2.540  0.4746 -0.5073 -0.7441
  660MOL0     C88988   8.562   1.068   2.603 -0.6884 -0.9743 -0.3544
  660MOL0     O88989   8.644   1.144   2.517  0.3697  0.4112  0.7870
  660MOL0     C88990   8.772   1.164   2.537 -0.6846 -0.0449 -0.3841
  660MOL0     C88991   8.839   1.253   2.451  0.7514  0.8740 -0.1566
  660MOL0     C88992   8.974   1.285   2.464  0.5303 -0.1252  0.1154
  660MOL0     C88993   9.057   1.226   2.564 -0.0703 -0.6627 -0.0513
  660MOL0     C88994   9.199   1.259   2.577  0.0425  0.6273 -0.7304
  660MOL0     O88995   9.250   1.353   2.508 -0.3940 -0.9773 -0.3486
  660MOL0     C88996   9.387   1.384   2.507  0.6227  0.0917  0.9287
  660MOL0     C88997   9.470   1.383   2.399  1.0119 -0.1583  1.0627
  660MOL0     C88998   9.600   1.434   2.406 -0.3993 -0.0788  0.1248
  660MOL0     C88999   9.656   1.477   2.524  0.6365  0.0769  0.8494
  660MOL0     O89000   9.787   1.513   2.538 -0.4492  0.2446 -0.5076
  660MOL0     C89001   9.865   1.446   2.639  0.2374  0.5780  1.0971
  660MOL0     C89002   9.986   1.360   2.582  0.8345 -0.6197 -0.0909
  660MOL0     C89003  10.088   1.447   2.504  0.8014 -0.1016 -0.0941
  660MOL0     C89004  10.216   1.383   2.480 -0.3492 -0.0677  0.5478
  660MOL0     C89005  10.339   1.474   2.447  0.2545  0.1497  0.4502
  660MOL0     C89006  10.314   1.584   2.345 -0.1314  1.4352  0.0854
  660MOL0     C89007  10.273   1.511   2.211 -0.1493  0.1908 -0.4189
  660MOL0     C89008  10.264   1.607   2.091 -0.4072  0.0421 -0.6466
  660MOL0    Cl89009  10.415   1.700   2.066 -0.0567 -0.1451  0.8023
  660MOL0     C89010   9.563   1.480   2.635  0.5011 -0.9750 -0.3029
  660MOL0     C89011   9.438   1.434   2.628 -0.0285 -0.0824 -0.2119
  660MOL0     O89012   9.262   1.190   2.658 -0.0965 -0.2784  0.2599
  660MOL0     C89013   8.990   1.132   2.650  0.1136  0.8425  0.4981
  660MOL0     C89014   8.846   1.101   2.634 -0.6053 -0.1774 -0.3924
  660MOL0     N89015   8.159   1.249   2.203  0.4208  0.7563 -0.0003
  660MOL0     N89016   8.201   1.245   2.081  0.4151 -0.0938 -0.0698
  660MOL0     C89017   9.282   1.454   1.361  0.3295  0.4788  0.4081
  660MOL0     C89018   9.403   1.466   1.300 -0.1745  0.2334  0.6530
  660MOL0     C89019   9.805   1.353   1.095  0.0550 -0.4891  1.2288
  660MOL0     C89020   9.889   1.342   1.197 -0.5490  0.7622  0.0600
  660MOL0     C89021  10.032   1.310   1.185  1.6942 -0.7293  0.4255
  660MOL0     C89022  10.082   1.306   1.054 -0.0164 -0.8909  0.1901
  660MOL0     O89023  10.204   1.261   1.006  0.3491 -0.3295  0.1195
  660MOL0     C89024  10.298   1.189   1.088 -1.0246 -0.7831  0.3376
  660MOL0     C89025  10.438   1.162   1.014  0.2091 -0.3469  0.9510
  660MOL0     C89026  10.533   1.071   1.082 -0.6437 -0.6227 -0.0392
  660MOL0     C89027  10.670   1.083   1.007  0.7640  0.4999  0.2064
  660MOL0     C89028  10.766   1.002   1.083 -0.4875 -0.1797  0.2474
  660MOL0     C89029  10.828   0.925   1.142  0.2149 -0.9085 -0.3048
  660MOL0     C89030  10.003   1.346   0.948 -0.6209  0.3523  0.4666
  660MOL0     C89031   9.867   1.363   0.959  0.4529  0.3140  0.1018
  660MOL0     C89032   9.779   1.393   0.836 -0.0360 -1.0989  0.1656
  660MOL0     H89033   9.502   1.134   1.342 -1.8870 -1.7426 -4.0570
  660MOL0     H89034   9.286   1.117   1.401  2.7696 -1.1813 -0.6247
  660MOL0     H89035   9.092   1.164   1.588  2.1394 -0.3678 -3.2285
  660MOL0     H89036   9.169   1.310   1.650 -0.0209 -0.4629  0.5659
  660MOL0     H89037   8.932   1.427   1.623  0.3019 -1.1195 -1.3364
  660MOL0     H89038   8.948   1.318   1.758 -0.0346  2.6035  0.1844
  660MOL0     H89039   8.846   1.139   1.663  1.1388 -0.3511 -0.3972
  660MOL0     H89040   8.841   1.218   1.503 -0.4406  1.6238 -0.5728
  660MOL0     H89041   8.695   1.390   1.582  0.0812 -1.2106 -2.5037
  660MOL0     H89042   8.643   1.223   1.605  0.5661  0.8124 -3.5877
  660MOL0     H89043   8.749   1.404   1.835  0.7408 -2.5079  1.6363
  660MOL0     H89044   8.582   1.391   1.781  0.5745  1.6521 -0.1491
  660MOL0     H89045   8.626   1.122   1.806 -1.3275  0.7350 -0.6809
  660MOL0     H89046   8.758   1.173   1.901  0.9572 -0.0887  1.7658
  660MOL0     H89047   8.585   1.334   2.024  4.2906 -1.9578  0.5505
  660MOL0     H89048   8.589   1.168   2.073  1.4413  0.4780 -0.2213
  660MOL0     H89049   8.376   1.251   1.877  3.3241  3.3646  0.9097
  660MOL0     H89050   8.415   1.085   1.924  2.9860 -0.1614 -1.4959
  660MOL0     H89051   8.436   1.079   2.228 -1.9158 -2.2536 -0.6081
  660MOL0     H89052   8.157   1.256   2.460 -1.3138 -2.3830  5.3755
  660MOL0     H89053   8.179   1.083   2.451  0.7306  0.4734  2.4494
  660MOL0     H89054   8.437   1.259   2.468  0.1954 -2.0993 -1.6338
  660MOL0     H89055   8.347   1.236   2.607  0.8525 -1.2705  0.5488
  660MOL0     H89056   8.423   0.997   2.447 -2.0605 -1.2016 -0.4915
  660MOL0     H89057   8.362   0.987   2.605 -1.0305  0.9894 -0.4684
  660MOL0     H89058   8.609   0.973   2.627 -1.1744 -1.0112  0.4914
  660MOL0     H89059   8.548   1.127   2.695 -0.9175 -1.5196 -0.0362
  660MOL0     H89060   8.787   1.303   2.369  2.0499 -0.1391 -1.6713
  660MOL0     H89061   9.016   1.369   2.410 -0.3504  0.7231  0.7071
  660MOL0     H89062   9.433   1.357   2.300 -1.1584  1.6099  1.3547
  660MOL0     H89063   9.655   1.429   2.313 -0.4446 -2.3274  0.1653
  660MOL0     H89064   9.898   1.525   2.707 -0.6677  0.9919  1.0755
  660MOL0     H89065   9.809   1.374   2.700  1.2345 -0.2864  1.0155
  660MOL0     H89066  10.032   1.310   2.667  1.0662  0.3453  0.3659
  660MOL0     H89067   9.945   1.291   2.507 -1.7151  0.9576 -0.2623
  660MOL0     H89068  10.045   1.483   2.410 -2.9677  0.2980  1.6237
  660MOL0     H89069  10.103   1.533   2.570 -2.6195  2.4152 -2.2603
  660MOL0     H89070  10.202   1.315   2.395 -0.5903  1.5395 -0.7445
  660MOL0     H89071  10.255   1.324   2.564  1.9836  2.2259  1.2216
  660MOL0     H89072  10.432   1.425   2.416 -0.6007 -1.7079  0.6729
  660MOL0     H89073  10.365   1.511   2.547  1.9310 -3.0310  1.3520
  660MOL0     H89074  10.231   1.649   2.374  0.0978  0.2298  3.9427
  660MOL0     H89075  10.404   1.646   2.342 -0.1888  1.5980  1.4194
  660MOL0     H89076  10.183   1.452   2.230  1.0943 -1.0928  1.8776
  660MOL0     H89077  10.358   1.447   2.186  1.5668  1.8059  0.9190
  660MOL0     H89078  10.260   1.545   2.001  2.3101 -1.6041  0.2359
  660MOL0     H89079  10.187   1.682   2.110  0.9565  0.7582  2.7231
  660MOL0     H89080   9.592   1.506   2.736 -0.4023 -2.3129  0.3326
  660MOL0     H89081   9.366   1.438   2.709  0.2591  2.4754  0.0163
  660MOL0     H89082   9.045   1.079   2.728  3.5014  2.0339 -0.8801
  660MOL0     H89083   8.809   1.035   2.712 -0.5664  0.4432  0.1589
  660MOL0     H89084   9.224   1.545   1.374  1.2960  1.3831 -1.2404
  660MOL0     H89085   9.440   1.565   1.273 -1.8551  0.8922  0.6564
  660MOL0     H89086   9.852   1.346   1.299  3.8671  0.2856  1.9265
  660MOL0     H89087  10.092   1.296   1.275 -2.8887  1.3820  4.2828
  660MOL0     H89088  10.255   1.094   1.124 -0.7412 -1.5659 -1.2800
  660MOL0     H89089  10.300   1.257   1.173  0.4708  0.5573 -0.7313
  660MOL0     H89090  10.483   1.260   0.992 -1.2345  0.0249 -0.5088
  660MOL0     H89091  10.424   1.121   0.914  1.1725 -0.0250  0.6758
  660MOL0     H89092  10.489   0.973   1.100 -0.0359 -0.3278  3.7428
  660MOL0     H89093  10.550   1.121   1.177 -1.4286 -0.8466  0.2240
  660MOL0     H89094  10.667   1.059   0.900  0.4738  2.2869 -0.2299
  660MOL0     H89095  10.702   1.188   1.004 -0.3556  0.9825  2.4773
  660MOL0     H89096  10.880   0.855   1.204  2.6093  1.3574  0.4614
  660MOL0     H89097  10.057   1.354   0.854  1.9272  1.6888  1.9038
  660MOL0     H89098   9.842   1.397   0.746  0.5199 -2.9020  0.4322
  660MOL0     H89099   9.700   1.318   0.836 -2.4871  1.2813  2.2826
  660MOL0     H89100   9.738   1.493   0.852 -0.0814 -0.9542 -0.7979
  661MOL0     O89101  11.085   5.231   7.259  0.1364 -0.1346 -0.2307
  661MOL0     C89102  11.034   5.271   7.154  0.3019  0.0331 -0.2651
  661MOL0     O89103  11.097   5.264   7.037  0.0131  0.2027 -0.6491
  661MOL0     C89104  11.221   5.209   7.018  0.9978  0.0673 -0.8226
  661MOL0     C89105  11.334   5.240   7.093 -0.3178  0.4034  0.5435
  661MOL0     C89106  11.461   5.180   7.065  1.2643  0.0123  0.4154
  661MOL0     C89107  11.468   5.081   6.968  0.4051 -0.3041  0.6886
  661MOL0     O89108  11.585   5.018   6.952 -0.2730 -0.0462 -0.0895
  661MOL0     C89109  11.586   4.881   7.004  0.2890  0.5094 -0.3416
  661MOL0     C89110  11.713   4.806   6.960  0.4984 -0.4105 -0.3803
  661MOL0     C89111  11.840   4.859   7.033  0.8684  0.6259 -0.2496
  661MOL0     C89112  11.906   4.982   6.970  0.7772 -0.6203 -0.0873
  661MOL0     C89113  12.044   5.023   7.032 -0.0468  0.4270  0.3536
  661MOL0     C89114  12.104   5.146   6.965 -0.1690  0.3952 -0.6752
  661MOL0     C89115  12.234   5.176   7.042  0.3375 -0.1794  0.3249
  661MOL0     C89116  12.292   5.300   6.973  1.2390 -0.0601  0.8919
  661MOL0     N89117  12.399   5.374   7.042 -0.0487  0.3330 -0.2546
  661MOL0     C89118  12.382   5.434   7.168 -1.1765 -0.5403  0.1502
  661MOL0     C89119  12.498   5.500   7.193 -0.1926  0.4589 -0.0846
  661MOL0     C89120  12.550   5.569   7.314 -0.0087  0.6496 -0.6398
  661MOL0     C89121  12.634   5.704   7.297 -0.2524 -0.1564 -0.0811
  661MOL0     C89122  12.627   5.795   7.425 -0.4939  0.1030  0.2404
  661MOL0     C89123  12.723   5.910   7.390 -0.5982 -0.0778 -0.4334
  661MOL0     O89124  12.865   5.867   7.389  0.5718 -0.3079 -0.6071
  661MOL0     C89125  12.966   5.960   7.418 -0.2934  0.0957 -0.9856
  661MOL0     C89126  12.941   6.085   7.473  0.2432  0.5964  0.7425
  661MOL0     C89127  13.044   6.173   7.494 -0.1777  0.5583  0.2757
  661MOL0     C89128  13.177   6.131   7.473  0.4904  0.3156 -0.1925
  661MOL0     C89129  13.284   6.227   7.502  0.1724  0.0614 -0.9412
  661MOL0     O89130  13.252   6.346   7.542 -0.1940 -0.6614 -0.7790
  661MOL0     C89131  13.347   6.435   7.579 -0.7609  0.7494  0.4054
  661MOL0     C89132  13.309   6.526   7.675 -0.1786  0.0703 -1.0942
  661MOL0     C89133  13.397   6.622   7.726  0.2568 -1.0267  0.3958
  661MOL0     C89134  13.531   6.618   7.705  0.0739 -0.6082  0.6800
  661MOL0     O89135  13.615   6.707   7.775  0.3244  0.1351  0.1442
  661MOL0     C89136  13.636   6.667   7.905  0.0564  0.1588  0.0091
  661MOL0     C89137  13.728   6.757   7.983 -0.2782 -0.1832 -0.4388
  661MOL0     C89138  13.877   6.749   7.931 -0.9358 -0.2919 -0.3923
  661MOL0     C89139  13.976   6.858   7.974 -0.0368 -0.6321 -0.7911
  661MOL0     C89140  14.110   6.855   7.898  0.8094  0.1431  0.6058
  661MOL0     C89141  14.092   6.843   7.740  0.0316  0.0547  1.1706
  661MOL0     C89142  14.222   6.884   7.675  0.2537  0.4764 -0.5494
  661MOL0     C89143  14.198   6.914   7.529 -0.5160 -0.2405  0.4989
  661MOL0    Cl89144  14.356   6.922   7.456  0.3487 -0.1718  0.1142
  661MOL0     C89145  13.573   6.538   7.603  0.2504 -0.0371  1.6598
  661MOL0     C89146  13.486   6.449   7.534  0.8132  0.9674 -0.0739
  661MOL0     O89147  13.399   6.185   7.487 -0.2117  0.1036  0.3556
  661MOL0     C89148  13.206   6.008   7.421 -0.3708 -0.4155  0.7049
  661MOL0     C89149  13.100   5.924   7.389  0.3969 -0.4067 -0.1843
  661MOL0     N89150  12.576   5.494   7.080  0.3697 -0.4197  0.0770
  661MOL0     N89151  12.520   5.409   7.000  0.0337  0.4775 -0.2877
  661MOL0     C89152  11.344   5.048   6.896 -0.4401 -0.7152  0.0443
  661MOL0     C89153  11.225   5.114   6.919 -0.4361 -0.0345  0.7134
  661MOL0     C89154  10.900   5.347   7.153  0.0251 -0.8062  0.0040
  661MOL0     C89155  10.863   5.428   7.040  0.5313 -0.7877 -0.8106
  661MOL0     C89156  10.745   5.503   7.041  0.2098 -0.6144 -0.5954
  661MOL0     C89157  10.660   5.509   7.153 -0.1254 -0.4582  0.8422
  661MOL0     O89158  10.551   5.584   7.174  0.2125 -0.7393 -0.5720
  661MOL0     C89159  10.476   5.613   7.056 -0.0821 -0.4006 -0.4608
  661MOL0     C89160  10.350   5.690   7.101 -0.4098  0.5339 -0.1729
  661MOL0     C89161  10.263   5.740   6.978 -0.1968 -0.4470 -0.7699
  661MOL0     C89162  10.149   5.830   7.030  0.5254  0.3378  0.6156
  661MOL0     C89163  10.067   5.776   7.144  0.5327  0.2197  0.3626
  661MOL0     C89164   9.989   5.730   7.230  0.1001  0.2846  1.2383
  661MOL0     C89165  10.694   5.424   7.257 -0.5686 -0.1859  0.2895
  661MOL0     C89166  10.814   5.347   7.263  0.9617  0.6479  0.3066
  661MOL0     C89167  10.828   5.250   7.377  0.1359  0.1060  0.0455
  661MOL0     H89168  11.328   5.318   7.169 -1.4228 -0.9369  1.8838
  661MOL0     H89169  11.547   5.202   7.128  0.3020  1.7694  1.1817
  661MOL0     H89170  11.589   4.883   7.113  2.1911  0.9157 -0.3660
  661MOL0     H89171  11.501   4.827   6.960  0.3570  1.5592 -1.8716
  661MOL0     H89172  11.730   4.818   6.853 -2.5222 -2.0392 -1.1655
  661MOL0     H89173  11.700   4.703   6.995 -1.2058 -0.0830  0.0372
  661MOL0     H89174  11.913   4.778   7.039 -0.9177 -1.1549 -1.1178
  661MOL0     H89175  11.811   4.886   7.134 -0.5796  0.5029 -0.6049
  661MOL0     H89176  11.925   4.950   6.867 -0.1172 -1.3263 -0.0478
  661MOL0     H89177  11.839   5.069   6.962  2.0270  0.1879 -4.7439
  661MOL0     H89178  12.019   5.060   7.132 -3.0146  1.8542 -0.7823
  661MOL0     H89179  12.116   4.941   7.035 -1.2823 -0.6717  1.8872
  661MOL0     H89180  12.133   5.126   6.862 -1.6772 -0.3829 -0.9752
  661MOL0     H89181  12.035   5.231   6.968 -0.9203 -0.2204  1.0931
  661MOL0     H89182  12.298   5.093   7.011 -0.7734 -0.1115 -2.5275
  661MOL0     H89183  12.234   5.180   7.151 -0.7439 -0.4701  0.3511
  661MOL0     H89184  12.331   5.280   6.873 -2.7248  0.8390 -1.0014
  661MOL0     H89185  12.205   5.366   6.972 -0.6712 -2.3699 -1.9970
  661MOL0     H89186  12.293   5.430   7.230 -0.8334  1.6289  0.8662
  661MOL0     H89187  12.462   5.595   7.374 -0.4892 -2.1353 -0.0054
  661MOL0     H89188  12.610   5.508   7.383  1.6991  1.0889 -1.6713
  661MOL0     H89189  12.735   5.689   7.258  0.6206  0.6847  1.7294
  661MOL0     H89190  12.586   5.756   7.214  2.0428 -1.1078 -2.1200
  661MOL0     H89191  12.656   5.729   7.508  1.7442 -0.0244 -0.5598
  661MOL0     H89192  12.521   5.817   7.440 -1.8970 -3.9143 -2.2573
  661MOL0     H89193  12.708   5.989   7.465  3.0608 -0.2285  0.6785
  661MOL0     H89194  12.708   5.952   7.290  1.5780  1.3299 -0.2417
  661MOL0     H89195  12.840   6.116   7.498 -0.7796 -1.6397 -0.3950
  661MOL0     H89196  13.017   6.274   7.524 -0.2841  1.1667 -1.7340
  661MOL0     H89197  13.205   6.522   7.705 -0.4069 -0.8181 -1.9309
  661MOL0     H89198  13.360   6.714   7.771 -1.7029 -0.5662 -1.9608
  661MOL0     H89199  13.543   6.654   7.961 -0.4564  1.7939 -0.4123
  661MOL0     H89200  13.685   6.569   7.905 -0.3188 -0.0543  1.9098
  661MOL0     H89201  13.684   6.857   7.978 -1.0008 -0.5423 -1.4207
  661MOL0     H89202  13.733   6.717   8.085 -0.8584  0.9082  0.0287
  661MOL0     H89203  13.932   6.657   7.953 -0.5779 -0.1068 -0.4852
  661MOL0     H89204  13.871   6.745   7.822  0.5362 -2.2763 -0.4558
  661MOL0     H89205  13.997   6.863   8.081  0.1878  2.1148 -0.8828
  661MOL0     H89206  13.930   6.957   7.962  1.0890  0.1214  0.7851
  661MOL0     H89207  14.170   6.769   7.930  3.8506  1.4936 -1.0191
  661MOL0     H89208  14.166   6.942   7.933 -0.7628  0.8557  1.4474
  661MOL0     H89209  14.061   6.741   7.717 -1.2371 -0.0553  3.1230
  661MOL0     H89210  14.024   6.925   7.715  0.3639 -0.4351 -1.6360
  661MOL0     H89211  14.282   6.793   7.686 -2.2767 -1.2597 -0.3289
  661MOL0     H89212  14.267   6.963   7.736 -3.0933  0.1108  2.7147
  661MOL0     H89213  14.155   6.827   7.478 -0.1835  0.4952 -1.0986
  661MOL0     H89214  14.138   7.005   7.523 -1.2617 -0.5864  2.1813
  661MOL0     H89215  13.678   6.550   7.577 -0.0021 -1.6762 -0.3824
  661MOL0     H89216  13.523   6.397   7.446  3.4036  2.4261  0.0743
  661MOL0     H89217  13.305   5.973   7.393 -0.1015  1.3086 -0.6771
  661MOL0     H89218  13.113   5.826   7.344 -2.7702 -1.4226  0.8627
  661MOL0     H89219  11.349   4.972   6.818  0.2598 -2.4898  1.7496
  661MOL0     H89220  11.138   5.093   6.858 -0.9506  0.4375  1.2734
  661MOL0     H89221  10.929   5.438   6.954 -0.5962  2.1052 -1.4422
  661MOL0     H89222  10.722   5.569   6.958  1.5988 -2.6515 -2.7133
  661MOL0     H89223  10.447   5.521   7.004  2.3477 -1.4025 -0.1549
  661MOL0     H89224  10.534   5.678   6.990 -0.1413  0.4771  0.3276
  661MOL0     H89225  10.383   5.777   7.159 -1.6516 -0.6215  2.4660
  661MOL0     H89226  10.298   5.619   7.166 -2.2846  0.8777 -1.2216
  661MOL0     H89227  10.225   5.653   6.923  1.3757 -2.6050  1.3956
  661MOL0     H89228  10.329   5.799   6.913  2.3808 -2.6546 -0.3672
  661MOL0     H89229  10.197   5.923   7.061 -2.6659  2.7248 -0.9951
  661MOL0     H89230  10.078   5.855   6.950 -0.1214 -1.3741  0.5925
  661MOL0     H89231   9.926   5.685   7.304 -2.8730  2.8981  0.5352
  661MOL0     H89232  10.642   5.425   7.352 -0.6791  1.3535  0.2321
  661MOL0     H89233  10.749   5.264   7.451 -0.8242 -1.7537 -0.5523
  661MOL0     H89234  10.848   5.148   7.343  1.7190  0.6012 -0.5684
  661MOL0     H89235  10.920   5.288   7.424 -0.4360  1.2060  0.2991
  662MOL0     O89236   6.623   8.211   9.225 -0.0490 -0.5232  0.8921
  662MOL0     C89237   6.679   8.231   9.336  0.2628  0.0540  0.3431
  662MOL0     O89238   6.609   8.243   9.454 -0.5879  0.3478  0.9038
  662MOL0     C89239   6.478   8.275   9.443  0.3797 -0.2183  0.0435
  662MOL0     C89240   6.383   8.200   9.523  0.6727 -0.0559 -0.4486
  662MOL0     C89241   6.250   8.237   9.524 -0.1788  0.8196  0.0373
  662MOL0     C89242   6.209   8.352   9.451  0.0871  0.2378  0.7090
  662MOL0     O89243   6.067   8.378   9.441 -1.1146 -0.1187  0.2203
  662MOL0     C89244   6.014   8.359   9.313  0.7962 -0.2745 -0.4403
  662MOL0     C89245   5.891   8.274   9.325  0.2729  0.3070 -0.9308
  662MOL0     C89246   5.856   8.205   9.200 -0.0659 -0.5957 -0.0778
  662MOL0     C89247   5.708   8.147   9.183 -0.1606 -0.1856 -0.2782
  662MOL0     C89248   5.671   8.133   9.036 -1.0557 -0.0995  0.6680
  662MOL0     C89249   5.589   8.011   9.003 -0.5633  0.0505  0.7998
  662MOL0     C89250   5.671   7.881   8.963  0.4863  0.0099  0.3084
  662MOL0     C89251   5.601   7.750   9.018 -0.1352 -1.3062  0.3016
  662MOL0     N89252   5.473   7.741   8.947 -0.6057  0.0177 -0.1686
  662MOL0     C89253   5.364   7.687   9.017  0.6034  0.6168  0.7823
  662MOL0     C89254   5.269   7.685   8.925  0.7552 -0.1336  0.3724
  662MOL0     C89255   5.121   7.654   8.943 -0.2843  1.0183 -0.2712
  662MOL0     C89256   5.027   7.692   8.825  0.2155  0.5991  0.2158
  662MOL0     C89257   4.877   7.636   8.843  0.2876 -0.5791 -0.0221
  662MOL0     C89258   4.786   7.731   8.921 -0.3960 -0.1230  0.2920
  662MOL0     O89259   4.792   7.870   8.883  0.2193  0.0579  0.2996
  662MOL0     C89260   4.709   7.932   8.792  0.3783  0.5598 -1.4948
  662MOL0     C89261   4.597   7.860   8.738 -0.1784 -0.8068  0.6185
  662MOL0     C89262   4.509   7.927   8.652  0.0706 -0.2792  1.5093
  662MOL0     C89263   4.544   8.063   8.607  0.5692 -0.6429  0.2776
  662MOL0     C89264   4.451   8.133   8.516  0.0318  0.0498  0.7674
  662MOL0     O89265   4.337   8.080   8.495  0.2307 -0.4982  0.2859
  662MOL0     C89266   4.234   8.149   8.439 -0.2900 -0.1419  0.0386
  662MOL0     C89267   4.210   8.177   8.299 -0.1217 -0.0740 -0.4055
  662MOL0     C89268   4.099   8.244   8.258  0.5495  0.7428  0.2043
  662MOL0     C89269   3.998   8.298   8.346 -0.9609  1.1099  0.1350
  662MOL0     O89270   3.888   8.369   8.312  0.7749 -0.7443 -0.2481
  662MOL0     C89271   3.856   8.489   8.372  0.1832 -0.7046  0.4668
  662MOL0     C89272   3.790   8.584   8.274  0.5298 -0.5471 -0.0528
  662MOL0     C89273   3.651   8.549   8.222 -0.1986  0.2753 -0.3463
  662MOL0     C89274   3.656   8.440   8.113 -1.4788  0.2240  0.8108
  662MOL0     C89275   3.543   8.448   8.013 -0.2648  0.4238  0.7952
  662MOL0     C89276   3.550   8.352   7.899  0.3600  0.2958  0.1809
  662MOL0     C89277   3.564   8.205   7.933 -0.2799  0.1691  0.1590
  662MOL0     C89278   3.588   8.137   7.808 -0.4015  0.1145  0.4617
  662MOL0    Cl89279   3.757   8.149   7.755  0.0244 -0.1293 -0.1770
  662MOL0     C89280   4.034   8.290   8.483 -0.4954 -0.3066  0.4049
  662MOL0     C89281   4.148   8.220   8.525  0.2533 -0.1828 -0.1163
  662MOL0     O89282   4.488   8.244   8.477  0.3135  0.2437  0.3682
  662MOL0     C89283   4.657   8.125   8.662  0.0800 -0.1483 -0.8797
  662MOL0     C89284   4.735   8.064   8.758 -1.0781  0.9988  0.7966
  662MOL0     N89285   5.327   7.740   8.813 -0.1878 -0.0261  1.8505
  662MOL0     N89286   5.452   7.769   8.817  0.1303 -0.0413  0.1585
  662MOL0     C89287   6.305   8.425   9.375  0.4167 -0.5274 -0.3162
  662MOL0     C89288   6.437   8.388   9.370 -0.3268 -0.0706 -1.1828
  662MOL0     C89289   6.834   8.229   9.348  0.5010  0.1986  0.4543
  662MOL0     C89290   6.887   8.286   9.464  0.1292  0.6339 -1.1169
  662MOL0     C89291   7.021   8.267   9.494 -0.0164  0.1743 -0.7658
  662MOL0     C89292   7.111   8.204   9.404  0.1361 -0.2043 -0.4270
  662MOL0     O89293   7.242   8.200   9.426 -0.7415 -0.4955 -0.2245
  662MOL0     C89294   7.325   8.111   9.354  0.7530  0.4881  0.1981
  662MOL0     C89295   7.459   8.115   9.405 -0.4549 -0.5215 -0.6960
  662MOL0     C89296   7.551   8.021   9.324  0.7874  0.0814  0.1025
  662MOL0     C89297   7.699   8.009   9.378 -0.1163  0.1303  1.1607
  662MOL0     C89298   7.690   7.957   9.517  0.1353 -0.3504  0.1825
  662MOL0     C89299   7.673   7.914   9.625  0.8449 -1.1023  0.6455
  662MOL0     C89300   7.061   8.176   9.281  0.2342  0.3029  0.2367
  662MOL0     C89301   6.925   8.172   9.255  0.1615 -0.3974 -0.3810
  662MOL0     C89302   6.880   8.104   9.124 -0.0034 -0.1228  0.4223
  662MOL0     H89303   6.416   8.123   9.593  0.8605 -1.6940 -2.2302
  662MOL0     H89304   6.173   8.183   9.577 -0.9667  0.1086 -1.7640
  662MOL0     H89305   5.991   8.460   9.278  2.3155  0.0481 -0.5717
  662MOL0     H89306   6.087   8.323   9.241 -0.1846 -1.5669 -0.8146
  662MOL0     H89307   5.807   8.338   9.353  1.5806  3.3517 -3.3613
  662MOL0     H89308   5.901   8.203   9.407 -1.1034  1.8079  0.5979
  662MOL0     H89309   5.932   8.127   9.189  3.3148  2.5846 -1.4157
  662MOL0     H89310   5.874   8.273   9.117  2.8351 -3.0379 -1.6226
  662MOL0     H89311   5.718   8.047   9.226  2.3216  0.4998  0.9490
  662MOL0     H89312   5.620   8.199   9.223 -1.6557 -0.7549 -2.6655
  662MOL0     H89313   5.622   8.225   9.005  2.2816  1.0404 -1.8639
  662MOL0     H89314   5.762   8.120   8.977 -0.2942  1.7274  1.3683
  662MOL0     H89315   5.527   7.988   9.091 -0.9332 -1.1252  0.2659
  662MOL0     H89316   5.527   8.029   8.914 -0.0559 -1.2308  0.1592
  662MOL0     H89317   5.764   7.885   9.021  0.4581 -0.9715  0.4379
  662MOL0     H89318   5.699   7.881   8.857 -0.6387  1.1937 -0.0244
  662MOL0     H89319   5.660   7.659   9.011 -3.6076 -3.9621  2.1198
  662MOL0     H89320   5.579   7.751   9.126 -6.0974  1.0186 -0.5232
  662MOL0     H89321   5.353   7.672   9.124 -1.6235  1.2472  0.6883
  662MOL0     H89322   5.112   7.545   8.942 -1.1624  1.0136  2.1306
  662MOL0     H89323   5.087   7.704   9.034  0.5748 -1.4845  1.5251
  662MOL0     H89324   5.018   7.799   8.803 -3.4147 -0.0211 -2.1125
  662MOL0     H89325   5.064   7.646   8.733 -2.0288  0.4763 -0.6830
  662MOL0     H89326   4.878   7.535   8.886 -2.2907 -0.4030  0.6010
  662MOL0     H89327   4.840   7.629   8.740 -2.7900  0.5597  0.9206
  662MOL0     H89328   4.831   7.730   9.021 -0.5302 -0.2002  0.3509
  662MOL0     H89329   4.690   7.684   8.943 -0.2109  0.0530  1.5541
  662MOL0     H89330   4.573   7.760   8.774 -1.4537 -0.0416  2.0113
  662MOL0     H89331   4.413   7.890   8.619  0.6095 -0.0225 -0.4974
  662MOL0     H89332   4.282   8.144   8.224  0.9274  0.1017  0.4936
  662MOL0     H89333   4.079   8.259   8.152  1.1796  1.2514  0.1570
  662MOL0     H89334   3.791   8.474   8.459 -1.0951 -2.2486 -0.6899
  662MOL0     H89335   3.948   8.541   8.399 -0.4150 -0.6374  2.6081
  662MOL0     H89336   3.780   8.681   8.324  0.0544 -0.8972  0.5518
  662MOL0     H89337   3.863   8.619   8.200 -1.2296  2.9106 -0.3546
  662MOL0     H89338   3.588   8.525   8.308  2.6377  1.7017  2.2930
  662MOL0     H89339   3.606   8.637   8.175 -0.5077 -0.0796 -0.7228
  662MOL0     H89340   3.654   8.339   8.156 -0.7331 -0.4669 -0.7003
  662MOL0     H89341   3.747   8.441   8.052 -1.9771 -1.1422 -0.0011
  662MOL0     H89342   3.526   8.547   7.969  1.6467  1.1662  1.6022
  662MOL0     H89343   3.451   8.425   8.067  0.6726 -1.9185  1.5181
  662MOL0     H89344   3.447   8.359   7.862  0.4546 -0.2237 -0.1945
  662MOL0     H89345   3.618   8.382   7.819 -0.1463  0.0665 -0.3472
  662MOL0     H89346   3.477   8.170   7.990  2.2766  0.0725  4.4462
  662MOL0     H89347   3.651   8.193   7.999  1.8056 -1.3696 -2.6570
  662MOL0     H89348   3.577   8.030   7.824 -0.4941  0.4413  2.9532
  662MOL0     H89349   3.527   8.170   7.723  1.2396 -0.1591 -0.8816
  662MOL0     H89350   3.961   8.339   8.547 -1.3820  0.9533 -1.5096
  662MOL0     H89351   4.160   8.208   8.632 -0.5657  0.4085  0.0438
  662MOL0     H89352   4.673   8.229   8.638 -1.8764  1.1360  2.7378
  662MOL0     H89353   4.821   8.115   8.800  2.5424 -0.5088 -3.7861
  662MOL0     H89354   6.281   8.508   9.309  1.9878 -0.8044 -1.2901
  662MOL0     H89355   6.507   8.433   9.301  0.8647  1.8668  1.1394
  662MOL0     H89356   6.827   8.342   9.535  2.3311  0.3548  1.1312
  662MOL0     H89357   7.061   8.313   9.584 -3.2309  1.3603  0.2000
  662MOL0     H89358   7.326   8.146   9.251  0.3740 -0.1888 -0.0422
  662MOL0     H89359   7.287   8.009   9.345  1.8742  0.1542 -1.1348
  662MOL0     H89360   7.457   8.082   9.509 -0.0124 -1.2066 -0.9027
  662MOL0     H89361   7.495   8.218   9.407 -1.3032 -0.1938  2.1655
  662MOL0     H89362   7.557   8.038   9.216  4.0251  0.4328  0.2392
  662MOL0     H89363   7.515   7.919   9.337  0.1025  0.0658 -1.6061
  662MOL0     H89364   7.769   7.945   9.324  1.7198  1.0650  2.2986
  662MOL0     H89365   7.745   8.108   9.383  3.4987 -1.4582  3.7169
  662MOL0     H89366   7.640   7.866   9.715 -0.4150 -1.1706  0.1609
  662MOL0     H89367   7.118   8.124   9.205 -0.0796  0.6298 -0.2288
  662MOL0     H89368   6.901   8.166   9.037  1.4682  1.5553  1.8976
  662MOL0     H89369   6.953   8.023   9.109 -0.5316 -0.9400  2.0030
  662MOL0     H89370   6.775   8.075   9.129 -0.6451  1.4947 -2.1133
  663MOL0     O89371   8.689  10.149   1.590 -0.1737 -0.0812 -0.1897
  663MOL0     C89372   8.612  10.109   1.502  0.2044  0.5823  0.6161
  663MOL0     O89373   8.645  10.043   1.388  0.5082  0.9119 -0.1016
  663MOL0     C89374   8.769  10.044   1.333  0.4372 -0.5007 -0.1263
  663MOL0     C89375   8.772   9.988   1.212 -0.1097  1.1802  0.3013
  663MOL0     C89376   8.881   9.993   1.131 -0.2952  0.2143  0.6924
  663MOL0     C89377   8.998  10.070   1.162  0.4772 -0.3942 -0.8548
  663MOL0     O89378   9.097  10.081   1.065 -0.0249  0.6844  0.1696
  663MOL0     C89379   9.234  10.049   1.113  0.5594  0.6021 -0.5401
  663MOL0     C89380   9.258   9.908   1.064  0.3125 -0.2050  0.2603
  663MOL0     C89381   9.397   9.855   1.100  0.4615  0.5055  0.8082
  663MOL0     C89382   9.385   9.775   1.223 -0.2549 -0.1156  0.4431
  663MOL0     C89383   9.532   9.757   1.269  0.7036  0.7678 -0.1296
  663MOL0     C89384   9.548   9.610   1.323  0.0629 -0.0346 -0.8079
  663MOL0     C89385   9.454   9.591   1.448  0.2226  0.2580 -0.3520
  663MOL0     C89386   9.448   9.439   1.493 -0.0506 -0.3137 -0.1304
  663MOL0     N89387   9.533   9.411   1.605 -1.1446  0.2480  0.0746
  663MOL0     C89388   9.498   9.397   1.730  0.1796  0.2778 -0.4419
  663MOL0     C89389   9.608   9.379   1.800 -0.5122  0.7964  0.2725
  663MOL0     C89390   9.630   9.365   1.950  0.2330 -0.7338 -0.3569
  663MOL0     C89391   9.608   9.499   2.021  1.0845 -0.4906  0.2361
  663MOL0     C89392   9.708   9.614   1.982 -0.9050 -0.0250 -0.8160
  663MOL0     C89393   9.852   9.573   1.988  0.0831  0.7645 -0.3058
  663MOL0     O89394   9.947   9.675   1.965 -1.2382 -0.3366 -0.0229
  663MOL0     C89395   9.932   9.753   1.851  0.6850  0.5095  0.4919
  663MOL0     C89396   9.912   9.697   1.722  0.4684 -0.0524 -0.4334
  663MOL0     C89397   9.864   9.781   1.619  0.1116  0.6628  1.0314
  663MOL0     C89398   9.862   9.919   1.626  0.0448  0.0603  1.5775
  663MOL0     C89399   9.831  10.004   1.509 -0.0110  0.0745 -0.3041
  663MOL0     O89400   9.846   9.946   1.389  0.4691  0.4524  0.4176
  663MOL0     C89401   9.830  10.025   1.281 -0.1175 -0.1548 -0.0485
  663MOL0     C89402   9.696  10.054   1.242  0.7347  0.9520 -0.0331
  663MOL0     C89403   9.678  10.122   1.123 -0.2265 -0.9969 -0.9564
  663MOL0     C89404   9.786  10.185   1.062  0.4699 -0.3169  0.3055
  663MOL0     O89405   9.753  10.263   0.956 -0.1680  0.0819  0.1009
  663MOL0     C89406   9.804  10.398   0.967  0.5679  0.0950  0.2085
  663MOL0     C89407   9.927  10.431   0.878 -0.2112  0.1121  0.1922
  663MOL0     C89408   9.958  10.574   0.865 -0.4891  0.2530  0.8267
  663MOL0     C89409  10.051  10.621   0.740  0.3406  1.1679 -0.0066
  663MOL0     C89410  10.158  10.721   0.792 -0.4597  0.4949 -0.0951
  663MOL0     C89411  10.255  10.778   0.696 -0.4713 -0.9572  0.2503
  663MOL0     C89412  10.349  10.680   0.632  0.2907  0.1450  0.5278
  663MOL0     C89413  10.470  10.733   0.545 -0.4349 -0.1506  0.9067
  663MOL0    Cl89414  10.417  10.853   0.421 -0.3193  0.1791  0.2099
  663MOL0     C89415   9.914  10.151   1.098 -0.2012 -0.0016 -0.6643
  663MOL0     C89416   9.935  10.059   1.197 -0.6456 -0.2489 -1.2762
  663MOL0     O89417   9.803  10.124   1.520 -0.0992 -0.0288 -0.7655
  663MOL0     C89418   9.903   9.966   1.752 -0.1896 -0.7851 -0.1622
  663MOL0     C89419   9.941   9.888   1.856 -0.7231  0.0485 -0.8339
  663MOL0     N89420   9.720   9.375   1.708  0.7188  1.0731 -0.7586
  663MOL0     N89421   9.668   9.386   1.592 -0.0158  0.1385  0.6153
  663MOL0     C89422   8.997  10.142   1.281 -0.1048 -0.9706  0.1016
  663MOL0     C89423   8.888  10.116   1.370 -0.9188 -0.4946  0.9906
  663MOL0     C89424   8.463  10.105   1.547  0.6587  0.5333  0.8456
  663MOL0     C89425   8.424  10.198   1.643  0.0960  0.2228 -0.0909
  663MOL0     C89426   8.296  10.201   1.703  0.0427 -0.5594  0.1532
  663MOL0     C89427   8.200  10.102   1.667 -0.4306 -0.0865 -0.0099
  663MOL0     O89428   8.071  10.098   1.709 -0.4477  1.0590  0.4144
  663MOL0     C89429   8.025  10.193   1.805  0.0085  0.5239 -0.4763
  663MOL0     C89430   8.070  10.165   1.949 -0.4692  0.0506  0.6837
  663MOL0     C89431   8.040  10.022   2.002  0.0627  1.2272  0.1902
  663MOL0     C89432   8.058  10.005   2.157 -0.4617  0.4367  1.0215
  663MOL0     C89433   7.935  10.049   2.216 -0.1934 -0.2659  0.3057
  663MOL0     C89434   7.833  10.079   2.270  0.5358  0.3521 -0.0645
  663MOL0     C89435   8.236  10.013   1.563 -0.4433  0.0504  0.1208
  663MOL0     C89436   8.362  10.016   1.492  0.8085 -0.0189 -0.6448
  663MOL0     C89437   8.383   9.922   1.380 -0.2760 -0.5261 -0.1369
  663MOL0     H89438   8.685   9.926   1.195  0.8925 -1.6601  4.2147
  663MOL0     H89439   8.884   9.932   1.042  0.7015 -0.2936  1.0543
  663MOL0     H89440   9.311  10.112   1.068 -0.0352  0.4992 -1.7525
  663MOL0     H89441   9.238  10.046   1.222  1.3622 -0.9927 -0.5796
  663MOL0     H89442   9.244   9.903   0.956 -1.7931  3.4082  0.1877
  663MOL0     H89443   9.178   9.844   1.103 -1.2623  1.6289  0.2456
  663MOL0     H89444   9.462   9.940   1.121 -1.2144  2.1117 -0.2593
  663MOL0     H89445   9.436   9.786   1.024 -1.8781 -0.8936  0.7752
  663MOL0     H89446   9.321   9.801   1.307  0.6534 -1.2360  1.5238
  663MOL0     H89447   9.337   9.683   1.186  1.8440 -0.4837 -1.6003
  663MOL0     H89448   9.601   9.767   1.185 -0.5932 -2.0921 -1.7041
  663MOL0     H89449   9.548   9.830   1.349  2.2063  0.1447  0.1898
  663MOL0     H89450   9.517   9.537   1.248 -0.4658 -1.1615  0.4643
  663MOL0     H89451   9.655   9.595   1.341  0.0305  0.8068  0.1796
  663MOL0     H89452   9.350   9.610   1.421  0.2911  0.8596 -0.2027
  663MOL0     H89453   9.486   9.651   1.534 -0.5186  0.7211 -0.3869
  663MOL0     H89454   9.345   9.405   1.508 -0.1931 -0.9598 -2.2968
  663MOL0     H89455   9.479   9.373   1.412 -2.5090 -1.2604 -0.3742
  663MOL0     H89456   9.402   9.417   1.776  1.3584  0.0854  2.3163
  663MOL0     H89457   9.565   9.282   1.979 -1.5536 -0.9195 -4.2252
  663MOL0     H89458   9.728   9.323   1.975 -0.6508 -1.6680  1.6923
  663MOL0     H89459   9.509   9.536   1.996  1.3804 -0.8212 -1.5511
  663MOL0     H89460   9.618   9.478   2.128  1.4136 -0.8023  0.1460
  663MOL0     H89461   9.682   9.701   2.043 -1.8734  1.1246 -2.7566
  663MOL0     H89462   9.697   9.644   1.877  0.3015 -1.3110 -1.3337
  663MOL0     H89463   9.861   9.487   1.922  0.4471 -1.2658  2.2346
  663MOL0     H89464   9.876   9.532   2.086 -2.4605  1.0476  0.5061
  663MOL0     H89465   9.917   9.590   1.709  0.7676  0.1944 -2.9023
  663MOL0     H89466   9.838   9.730   1.527  1.5091  1.3242  0.2333
  663MOL0     H89467   9.617  10.012   1.303  1.7526 -3.0716 -1.1500
  663MOL0     H89468   9.577  10.155   1.097  0.4488  0.7759 -1.4597
  663MOL0     H89469   9.716  10.454   0.938  2.6031  2.7462 -1.3122
  663MOL0     H89470   9.833  10.431   1.067  0.5002  3.6831 -0.8397
  663MOL0     H89471  10.016  10.382   0.920 -0.9812 -2.6952 -1.2251
  663MOL0     H89472   9.909  10.389   0.779 -3.1910 -0.4048  0.8559
  663MOL0     H89473   9.861  10.626   0.859  0.3127  1.6722 -0.5630
  663MOL0     H89474   9.999  10.610   0.960 -0.5956 -5.1322  3.2614
  663MOL0     H89475   9.985  10.666   0.665  1.2986  4.6172  1.0635
  663MOL0     H89476  10.103  10.528   0.716  0.7939  1.3532  0.2374
  663MOL0     H89477  10.220  10.671   0.867  1.8996  0.7947 -1.7581
  663MOL0     H89478  10.117  10.810   0.840  2.8444  2.1594 -0.1104
  663MOL0     H89479  10.201  10.827   0.614  1.6955  2.4224  0.6752
  663MOL0     H89480  10.319  10.850   0.747  0.3453 -1.2836 -0.2859
  663MOL0     H89481  10.294  10.610   0.568  3.7115 -1.0085 -1.4150
  663MOL0     H89482  10.388  10.606   0.703 -0.4232 -0.0377  0.7380
  663MOL0     H89483  10.542  10.785   0.610  2.1658 -0.4051 -1.5880
  663MOL0     H89484  10.520  10.650   0.496  2.1728  1.5220  0.5202
  663MOL0     H89485  10.001  10.184   1.042  1.0425 -0.5302  0.8877
  663MOL0     H89486  10.039  10.031   1.214 -0.8212 -0.6407 -0.8471
  663MOL0     H89487   9.902  10.073   1.769 -1.6900 -0.9469  0.9348
  663MOL0     H89488   9.970   9.929   1.952  0.5670 -1.3876 -0.5735
  663MOL0     H89489   9.069  10.221   1.298 -0.7596  0.3075 -2.5503
  663MOL0     H89490   8.898  10.178   1.459 -0.0217  3.9260 -1.8475
  663MOL0     H89491   8.490  10.279   1.669 -1.7045  0.8349  3.0930
  663MOL0     H89492   8.280  10.290   1.765 -1.4583  0.8011 -2.0395
  663MOL0     H89493   7.916  10.194   1.813  0.0948 -1.5382  2.7117
  663MOL0     H89494   8.056  10.292   1.770 -2.0322  0.9229 -1.2834
  663MOL0     H89495   8.022  10.234   2.019  2.8385 -0.3029  3.5943
  663MOL0     H89496   8.179  10.178   1.952 -0.3605 -0.8356  1.0342
  663MOL0     H89497   8.108   9.944   1.965 -2.2812 -0.8999  0.1615
  663MOL0     H89498   7.934  10.003   1.983 -0.2505  0.8631  2.1504
  663MOL0     H89499   8.074   9.898   2.176 -1.2790  0.2792  0.8754
  663MOL0     H89500   8.138  10.064   2.203  0.1023  1.7583 -1.5225
  663MOL0     H89501   7.740  10.105   2.317  1.2980  4.4412 -0.4177
  663MOL0     H89502   8.159   9.943   1.534 -1.6392  1.2564  0.3010
  663MOL0     H89503   8.291   9.867   1.360  0.8193 -1.5969 -2.5709
  663MOL0     H89504   8.397   9.976   1.286 -1.2074 -2.4673 -1.4606
  663MOL0     H89505   8.460   9.851   1.411  0.2310  1.7047  4.7054
  664MOL0     O89506   8.014   6.176   5.667 -0.1314  0.1623  0.1285
  664MOL0     C89507   8.067   6.243   5.756 -0.2069  0.3165  0.9848
  664MOL0     O89508   8.104   6.374   5.735  0.6083  1.0791 -0.6341
  664MOL0     C89509   8.089   6.425   5.604 -0.0483 -0.0657  0.4354
  664MOL0     C89510   7.958   6.477   5.572 -0.6060  0.5788 -0.3596
  664MOL0     C89511   7.949   6.550   5.449  0.0592 -0.3385 -1.0636
  664MOL0     C89512   8.054   6.557   5.361  0.4597 -0.4155  0.6843
  664MOL0     O89513   8.027   6.637   5.248 -0.2340 -0.8286  0.1642
  664MOL0     C89514   8.121   6.665   5.150  0.3651  0.6069  0.4536
  664MOL0     C89515   8.211   6.783   5.196 -0.0402  0.2704 -0.1104
  664MOL0     C89516   8.355   6.806   5.136  0.4270 -0.0159  0.4217
  664MOL0     C89517   8.426   6.932   5.193 -0.7669 -0.6377  0.8734
  664MOL0     C89518   8.567   6.955   5.119  0.1478 -0.3093 -0.4353
  664MOL0     C89519   8.661   6.837   5.136  0.2314 -0.0910 -0.0268
  664MOL0     C89520   8.805   6.854   5.084  0.5564  0.2239  0.0101
  664MOL0     C89521   8.874   6.713   5.099  0.6703 -0.8876 -0.8500
  664MOL0     N89522   8.876   6.669   5.243 -0.4752 -1.1275  0.0972
  664MOL0     C89523   8.947   6.717   5.351  0.1090  0.1447  0.6109
  664MOL0     C89524   8.913   6.638   5.451 -0.6346  0.8082 -0.3184
  664MOL0     C89525   8.953   6.663   5.590 -0.2792 -0.2668  0.6057
  664MOL0     C89526   9.045   6.787   5.603 -0.6576 -0.6087  0.3617
  664MOL0     C89527   9.099   6.794   5.742 -0.6221 -0.3637 -0.4294
  664MOL0     C89528   9.156   6.935   5.775  0.7264  0.3938  0.0350
  664MOL0     O89529   9.282   6.953   5.714 -0.1691 -1.1035 -0.3002
  664MOL0     C89530   9.400   6.905   5.774 -0.2250 -0.2805  0.4272
  664MOL0     C89531   9.506   6.897   5.682  0.1972  0.2112  0.0354
  664MOL0     C89532   9.633   6.843   5.707 -0.7670  0.0588  0.4511
  664MOL0     C89533   9.659   6.793   5.841 -0.5936 -0.8449 -0.2777
  664MOL0     C89534   9.787   6.742   5.888  0.2110  0.2186  0.1556
  664MOL0     O89535   9.797   6.729   6.020 -0.2520 -0.1688 -0.4758
  664MOL0     C89536   9.910   6.695   6.091  0.4114  0.6080  0.4251
  664MOL0     C89537   9.938   6.768   6.198  0.0843 -0.6408  0.5354
  664MOL0     C89538  10.055   6.736   6.272  0.0402  0.8224  0.2120
  664MOL0     C89539  10.142   6.628   6.239  0.8969 -1.1833  0.6129
  664MOL0     O89540  10.246   6.597   6.325 -0.6011 -0.2039  0.4595
  664MOL0     C89541  10.330   6.487   6.288  0.2871  0.6195  0.1338
  664MOL0     C89542  10.420   6.439   6.402  0.1830 -0.5686  0.0235
  664MOL0     C89543  10.348   6.369   6.518  0.0275 -0.6060 -0.6211
  664MOL0     C89544  10.436   6.279   6.596  0.0022  0.0119 -0.1071
  664MOL0     C89545  10.493   6.162   6.510 -0.0203 -1.0923 -0.0341
  664MOL0     C89546  10.569   6.055   6.582 -0.4984  1.2048  0.5894
  664MOL0     C89547  10.696   6.104   6.665 -0.1908  0.9704  0.3077
  664MOL0     C89548  10.797   6.004   6.719  0.0068 -0.5430  0.1980
  664MOL0    Cl89549  10.741   5.905   6.857 -0.2351  0.2401  0.0317
  664MOL0     C89550  10.111   6.558   6.118  1.1430 -0.3742 -0.1380
  664MOL0     C89551   9.994   6.591   6.046  0.3644 -0.7053 -0.2451
  664MOL0     O89552   9.886   6.740   5.809  0.4763  0.0583 -0.2084
  664MOL0     C89553   9.551   6.812   5.933  1.0788  0.8410 -0.3116
  664MOL0     C89554   9.428   6.862   5.902  0.1998 -0.3325  0.1823
  664MOL0     N89555   8.813   6.549   5.409  0.5210  0.1098  0.0853
  664MOL0     N89556   8.787   6.577   5.284 -0.1455 -0.5173  0.1081
  664MOL0     C89557   8.177   6.489   5.388 -0.0519  0.4676  0.0056
  664MOL0     C89558   8.197   6.433   5.516  0.2953 -0.9754 -0.5420
  664MOL0     C89559   8.077   6.178   5.887  0.4249 -0.4324  0.3582
  664MOL0     C89560   8.047   6.036   5.895  0.0968 -0.2789 -0.8204
  664MOL0     C89561   8.071   5.959   6.007 -0.2921  0.1102 -0.0930
  664MOL0     C89562   8.130   6.014   6.119  0.5118 -0.2932  0.2100
  664MOL0     O89563   8.158   5.935   6.228  0.0531 -0.0689  0.4316
  664MOL0     C89564   8.193   5.989   6.349  0.2513  0.2973  0.1104
  664MOL0     C89565   8.233   5.867   6.431  1.1127  0.8575 -0.6326
  664MOL0     C89566   8.382   5.828   6.433 -0.9176 -1.0094  0.0630
  664MOL0     C89567   8.418   5.705   6.521  0.1096 -0.0521  0.5617
  664MOL0     C89568   8.407   5.734   6.664 -0.2325 -0.2047  0.0846
  664MOL0     C89569   8.397   5.744   6.785  0.1800  1.5352 -0.1159
  664MOL0     C89570   8.166   6.150   6.115  0.3026 -0.2494  0.6583
  664MOL0     C89571   8.133   6.232   6.005 -0.0750 -0.0145  0.3137
  664MOL0     C89572   8.153   6.383   6.018  0.2379  0.6497 -1.1225
  664MOL0     H89573   7.877   6.453   5.641  1.7511 -2.3225  1.6253
  664MOL0     H89574   7.853   6.599   5.434 -0.5074 -1.3265 -0.7572
  664MOL0     H89575   8.179   6.574   5.129  1.6065  1.3890  0.4054
  664MOL0     H89576   8.063   6.696   5.062 -1.9451  0.2301  1.7628
  664MOL0     H89577   8.217   6.776   5.305 -0.5936 -0.4314 -0.1130
  664MOL0     H89578   8.158   6.878   5.190  1.0861  1.2225  2.9559
  664MOL0     H89579   8.347   6.823   5.028 -0.7261  3.2643  0.9116
  664MOL0     H89580   8.410   6.714   5.157 -2.0991 -1.4346  1.3320
  664MOL0     H89581   8.357   7.015   5.177  2.4365  1.6468 -2.9768
  664MOL0     H89582   8.445   6.907   5.297 -0.1905 -1.9940  0.4660
  664MOL0     H89583   8.549   6.967   5.012  1.0057  0.8516 -0.4678
  664MOL0     H89584   8.614   7.046   5.156 -0.8700 -0.8192  2.3906
  664MOL0     H89585   8.650   6.808   5.240 -1.3400  1.0817  0.1573
  664MOL0     H89586   8.615   6.768   5.065  2.4356  2.6703 -4.6544
  664MOL0     H89587   8.862   6.925   5.146 -0.4377 -0.0620  1.2836
  664MOL0     H89588   8.797   6.890   4.980 -3.7336  0.5000  0.2862
  664MOL0     H89589   8.813   6.648   5.036 -0.6928 -1.4052  0.9086
  664MOL0     H89590   8.976   6.710   5.059  0.3913  0.1159 -1.6667
  664MOL0     H89591   9.018   6.799   5.346  1.5114 -1.1059 -1.5097
  664MOL0     H89592   8.859   6.670   5.646 -2.5223  1.7630 -3.0352
  664MOL0     H89593   9.001   6.574   5.631 -3.8794 -2.5643  0.2780
  664MOL0     H89594   9.129   6.801   5.535 -1.6982  2.0154 -0.5173
  664MOL0     H89595   8.983   6.875   5.589  0.1995 -0.2821 -1.8249
  664MOL0     H89596   9.169   6.710   5.756 -0.9811 -0.2799  2.3787
  664MOL0     H89597   9.018   6.787   5.814 -1.2248  0.0927 -1.0518
  664MOL0     H89598   9.159   6.944   5.884 -1.4905  0.3383  0.1572
  664MOL0     H89599   9.080   7.010   5.748 -1.7347 -0.9834  2.6005
  664MOL0     H89600   9.477   6.921   5.580 -0.3403 -0.6876 -0.0299
  664MOL0     H89601   9.709   6.830   5.631 -1.8814 -2.5376 -0.3383
  664MOL0     H89602   9.869   6.846   6.229 -1.5866 -2.1374  0.7592
  664MOL0     H89603  10.059   6.796   6.362 -3.4746 -1.0021  1.7800
  664MOL0     H89604  10.265   6.408   6.249 -2.5387  2.6736  0.2753
  664MOL0     H89605  10.400   6.514   6.208  1.2303 -1.0805  0.3542
  664MOL0     H89606  10.489   6.370   6.352  1.0243  0.7590 -0.7048
  664MOL0     H89607  10.486   6.521   6.433  1.9174 -1.5866 -0.8337
  664MOL0     H89608  10.326   6.461   6.573 -1.4882  0.7586 -3.2879
  664MOL0     H89609  10.258   6.309   6.502  0.5929 -2.2643  1.9119
  664MOL0     H89610  10.371   6.241   6.676 -0.7577 -2.7423 -1.9057
  664MOL0     H89611  10.525   6.335   6.628 -1.0237  2.7948 -1.7536
  664MOL0     H89612  10.569   6.204   6.445  0.4931 -0.0815  1.1746
  664MOL0     H89613  10.421   6.130   6.434 -1.2399 -0.0480  0.6305
  664MOL0     H89614  10.494   6.008   6.645 -2.0882  0.1742 -1.9118
  664MOL0     H89615  10.588   5.984   6.501  1.3568  0.8697  1.2635
  664MOL0     H89616  10.665   6.171   6.746 -4.1123 -0.2361  0.0275
  664MOL0     H89617  10.755   6.167   6.597 -1.2829 -1.3234 -3.0046
  664MOL0     H89618  10.843   5.938   6.645 -0.3188  0.0832 -0.5713
  664MOL0     H89619  10.874   6.062   6.771 -0.7616  0.8706 -0.1910
  664MOL0     H89620  10.167   6.482   6.065 -0.1883 -0.2017 -1.8776
  664MOL0     H89621   9.973   6.522   5.966 -3.3608 -2.1747  1.7441
  664MOL0     H89622   9.567   6.773   6.033  0.0895 -0.2115 -0.5377
  664MOL0     H89623   9.350   6.875   5.976 -1.6414 -0.1901 -1.6983
  664MOL0     H89624   8.254   6.487   5.311 -0.8726 -1.2226 -0.8249
  664MOL0     H89625   8.291   6.394   5.553  0.7317 -0.6457 -1.2961
  664MOL0     H89626   8.004   5.991   5.806 -0.7059 -0.8318 -0.1819
  664MOL0     H89627   8.048   5.853   6.007 -3.2144  0.6102  1.8833
  664MOL0     H89628   8.105   6.046   6.382 -1.1491  0.6415 -3.6787
  664MOL0     H89629   8.277   6.059   6.342 -0.1952  1.7355  5.1850
  664MOL0     H89630   8.174   5.782   6.397 -1.7993  0.6340  4.0345
  664MOL0     H89631   8.200   5.886   6.534  0.5264 -0.8684 -0.4725
  664MOL0     H89632   8.448   5.909   6.467 -3.7618  2.0546 -1.0998
  664MOL0     H89633   8.400   5.810   6.327 -4.3927 -1.2197 -0.6083
  664MOL0     H89634   8.345   5.631   6.487  1.0267  0.0307 -1.7997
  664MOL0     H89635   8.521   5.669   6.508  0.4648  1.1699 -0.1846
  664MOL0     H89636   8.378   5.717   6.887 -2.8680 -3.8269 -1.7035
  664MOL0     H89637   8.209   6.202   6.200  2.4569 -0.8558 -0.0045
  664MOL0     H89638   8.214   6.406   6.106  1.4206  1.7121 -2.1755
  664MOL0     H89639   8.224   6.414   5.940  1.1105  2.1618  0.2208
  664MOL0     H89640   8.062   6.444   6.007 -0.7100 -0.3663  0.6609
  665MOL0     O89641   8.624   5.455   0.205 -0.2203  0.0079  0.6827
  665MOL0     C89642   8.556   5.556   0.190 -0.8272  0.3690 -0.7877
  665MOL0     O89643   8.615   5.668   0.159  0.4965 -0.6172  0.0392
  665MOL0     C89644   8.750   5.682   0.168 -0.4773 -0.1229 -1.0294
  665MOL0     C89645   8.835   5.603   0.094 -0.5566  0.7034 -0.1342
  665MOL0     C89646   8.976   5.642   0.087 -0.1628  0.0460 -0.6853
  665MOL0     C89647   9.022   5.743   0.177  0.5509 -0.2613 -0.5229
  665MOL0     O89648   9.155   5.778   0.171 -0.1289  0.1850  0.6453
  665MOL0     C89649   9.222   5.836   0.288 -1.0763 -0.2464  0.5624
  665MOL0     C89650   9.372   5.861   0.254 -0.2309  0.5110 -0.9551
  665MOL0     C89651   9.454   5.866   0.381 -0.5711 -0.1010 -0.4018
  665MOL0     C89652   9.601   5.877   0.341  0.0155  0.2331  0.5693
  665MOL0     C89653   9.703   5.832   0.452  0.3981 -0.7491 -0.2726
  665MOL0     C89654   9.834   5.905   0.419  0.1807  0.5915  0.8886
  665MOL0     C89655   9.938   5.841   0.505 -0.1772  0.8306 -0.0240
  665MOL0     C89656  10.074   5.895   0.478  0.8679 -0.2771 -0.0952
  665MOL0     N89657  10.134   5.850   0.356 -0.7692 -0.1373  0.1928
  665MOL0     C89658  10.221   5.748   0.349 -0.1587  0.1298  0.3394
  665MOL0     C89659  10.232   5.708   0.225  0.5364 -0.8554  0.8055
  665MOL0     C89660  10.330   5.605   0.179 -0.0351  0.1487  0.0475
  665MOL0     C89661  10.337   5.472   0.254 -0.0981 -0.5793  0.5483
  665MOL0     C89662  10.399   5.353   0.168 -0.2461 -0.3956 -0.0861
  665MOL0     C89663  10.556   5.374   0.142  0.9343  0.1057  0.4260
  665MOL0     O89664  10.601   5.257   0.072  0.5323  0.3581  0.8076
  665MOL0     C89665  10.731   5.229   0.065  0.2881  0.2099 -0.5073
  665MOL0     C89666  10.773   5.111   0.006 -0.5753  0.1348 -0.3300
  665MOL0     C89667  10.912   5.088  -0.017 -0.2627 -0.1409  0.2751
  665MOL0     C89668  11.009   5.168   0.041 -0.8919  0.2299 -0.2451
  665MOL0     C89669  11.154   5.153   0.032 -0.2333  0.3719 -0.4113
  665MOL0     O89670  11.201   5.046  -0.037 -0.0599 -0.4173  0.0544
  665MOL0     C89671  11.338   5.012  -0.043  0.9733  0.0676  0.3877
  665MOL0     C89672  11.398   4.958  -0.160  0.0946 -0.1986  0.6613
  665MOL0     C89673  11.520   4.889  -0.159  0.7157 -0.1179  1.2887
  665MOL0     C89674  11.598   4.894  -0.046 -0.4511  0.0226 -0.0997
  665MOL0     O89675  11.717   4.822  -0.062  0.2972  0.1190  0.1591
  665MOL0     C89676  11.826   4.836   0.026 -0.7143 -0.5700 -0.5579
  665MOL0     C89677  11.928   4.928  -0.032  1.4893  0.5618 -0.1952
  665MOL0     C89678  12.045   4.956   0.056  0.4773 -0.5935 -0.7760
  665MOL0     C89679  12.158   5.029  -0.015  0.0905 -0.8424 -0.2400
  665MOL0     C89680  12.248   5.114   0.082 -0.4612 -0.1996 -0.8006
  665MOL0     C89681  12.350   5.196   0.001 -0.0740  0.8584 -0.3808
  665MOL0     C89682  12.465   5.261   0.090 -0.2216  0.0513 -0.3590
  665MOL0     C89683  12.612   5.263   0.034  0.7520 -0.2562  0.1437
  665MOL0    Cl89684  12.660   5.101   0.008 -0.4513 -0.2479 -0.1367
  665MOL0     C89685  11.553   4.961   0.069 -1.0741  1.3685  0.8356
  665MOL0     C89686  11.428   5.010   0.070  0.4799 -0.5556 -0.0451
  665MOL0     O89687  11.228   5.231   0.102  0.0283  0.3385  0.8363
  665MOL0     C89688  10.969   5.276   0.121 -0.0178 -0.9177 -0.9695
  665MOL0     C89689  10.836   5.299   0.134 -0.1570  0.0730  1.4916
  665MOL0     N89690  10.154   5.801   0.146  0.2199 -0.2820  0.8511
  665MOL0     N89691  10.082   5.874   0.228 -0.2699  0.2474  0.7240
  665MOL0     C89692   8.927   5.796   0.277 -0.2885  0.7969  0.4788
  665MOL0     C89693   8.795   5.777   0.261  0.4607  0.0034  0.4557
  665MOL0     C89694   8.409   5.544   0.203 -0.1987 -1.2376 -0.5185
  665MOL0     C89695   8.338   5.656   0.158  0.0359 -0.8766  0.2977
  665MOL0     C89696   8.194   5.669   0.162  0.5583 -0.8342 -1.0020
  665MOL0     C89697   8.129   5.569   0.235  0.9020 -0.4949  0.3285
  665MOL0     O89698   7.996   5.551   0.244 -0.2917 -0.6569  0.7026
  665MOL0     C89699   7.901   5.657   0.253 -0.2237 -0.3229  0.3362
  665MOL0     C89700   7.890   5.711   0.394 -0.6443 -0.2642  0.2538
  665MOL0     C89701   7.822   5.851   0.386 -1.0573  0.7033  0.6970
  665MOL0     C89702   7.676   5.858   0.340 -0.0159  0.0926 -0.0983
  665MOL0     C89703   7.608   5.801   0.459  0.0624  0.1802 -0.6327
  665MOL0     C89704   7.566   5.732   0.548  0.2617 -0.0788 -0.0732
  665MOL0     C89705   8.191   5.460   0.276 -0.7390  0.0153 -0.5076
  665MOL0     C89706   8.334   5.444   0.272  1.0431 -0.8377 -0.4028
  665MOL0     C89707   8.393   5.307   0.310 -0.1918  0.1355  0.3430
  665MOL0     H89708   8.786   5.521   0.043  0.0367 -0.4702  1.1032
  665MOL0     H89709   9.057   5.591   0.035  1.1856  1.8155 -0.3905
  665MOL0     H89710   9.183   5.937   0.307 -1.6165  0.4743 -3.4070
  665MOL0     H89711   9.206   5.766   0.370  0.0730 -0.3421  0.7178
  665MOL0     H89712   9.387   5.954   0.198 -1.1705  0.5473 -1.1749
  665MOL0     H89713   9.403   5.780   0.187 -3.9878 -1.9615 -0.0294
  665MOL0     H89714   9.447   5.777   0.445 -1.0664  0.7151  0.7033
  665MOL0     H89715   9.416   5.956   0.429  0.0061  1.3216 -2.4845
  665MOL0     H89716   9.628   5.824   0.249 -0.6157  1.8126 -0.5783
  665MOL0     H89717   9.627   5.982   0.325  1.3242  0.0127  1.1694
  665MOL0     H89718   9.671   5.858   0.553 -0.2203 -1.0502 -0.3915
  665MOL0     H89719   9.712   5.723   0.443 -1.1698 -0.8485 -0.8899
  665MOL0     H89720   9.850   5.904   0.310 -0.3022  3.1426  0.7399
  665MOL0     H89721   9.836   6.009   0.452 -1.0658  0.6540  0.7986
  665MOL0     H89722   9.943   5.733   0.489  0.0327  0.6689  1.0551
  665MOL0     H89723   9.908   5.867   0.607 -0.9054 -0.9418  0.2463
  665MOL0     H89724  10.079   6.004   0.481  4.8639 -0.2857  2.2882
  665MOL0     H89725  10.130   5.864   0.567  0.1355 -1.1833  0.0655
  665MOL0     H89726  10.264   5.691   0.431 -0.5242 -1.9786 -0.8680
  665MOL0     H89727  10.301   5.578   0.077  0.6104  0.7968 -0.3227
  665MOL0     H89728  10.429   5.652   0.177 -0.5778  1.3719  0.9398
  665MOL0     H89729  10.396   5.489   0.345 -1.5523  1.1459  1.2338
  665MOL0     H89730  10.233   5.451   0.279 -1.1765  1.4965 -1.7895
  665MOL0     H89731  10.349   5.320   0.076 -0.5696 -1.6170  0.5079
  665MOL0     H89732  10.401   5.263   0.231 -0.9921 -1.2888 -1.2915
  665MOL0     H89733  10.611   5.400   0.233  1.9259  0.8120 -0.3511
  665MOL0     H89734  10.567   5.447   0.062  0.5184 -1.8676 -1.5207
  665MOL0     H89735  10.701   5.057  -0.054 -1.1852  2.3392 -1.6975
  665MOL0     H89736  10.949   5.007  -0.079  1.3406  0.7795 -0.0046
  665MOL0     H89737  11.339   4.957  -0.251  1.4749 -0.0783 -0.2655
  665MOL0     H89738  11.562   4.853  -0.252 -3.5799  1.7984 -1.7012
  665MOL0     H89739  11.792   4.869   0.124 -0.0570  0.6135 -0.7107
  665MOL0     H89740  11.876   4.739   0.030  1.7183  0.3646 -3.9082
  665MOL0     H89741  11.960   4.890  -0.130 -1.7969  1.2580 -1.6915
  665MOL0     H89742  11.876   5.021  -0.057 -0.2912 -0.4155 -0.2891
  665MOL0     H89743  12.010   5.024   0.135  0.9947  1.3014 -2.1108
  665MOL0     H89744  12.085   4.868   0.107  1.9451 -0.0680 -0.9821
  665MOL0     H89745  12.117   5.106  -0.081  3.5500  1.3824 -0.0834
  665MOL0     H89746  12.225   4.955  -0.060  0.2672 -2.3524  2.2983
  665MOL0     H89747  12.309   5.056   0.152 -1.8806  0.3653  1.0020
  665MOL0     H89748  12.186   5.177   0.147 -1.7364 -1.2044 -0.9982
  665MOL0     H89749  12.402   5.128  -0.067 -2.5731  0.3744 -1.9454
  665MOL0     H89750  12.312   5.272  -0.068  0.7190  2.2042  0.6203
  665MOL0     H89751  12.475   5.201   0.181  2.7375 -0.2358 -0.7721
  665MOL0     H89752  12.441   5.368   0.098  0.8642  0.6631 -3.7109
  665MOL0     H89753  12.609   5.318  -0.060  0.0683 -0.5080  0.0147
  665MOL0     H89754  12.682   5.322   0.095  1.2383  1.1350 -1.6807
  665MOL0     H89755  11.598   4.954   0.168 -0.0991 -1.4176  0.2793
  665MOL0     H89756  11.400   5.050   0.167 -0.1351  3.0596 -1.5626
  665MOL0     H89757  11.034   5.350   0.167 -1.5922  0.4455 -0.8185
  665MOL0     H89758  10.815   5.382   0.200 -0.4798  2.4979 -1.4415
  665MOL0     H89759   8.964   5.854   0.362  2.3675 -0.9629  0.6627
  665MOL0     H89760   8.729   5.831   0.327 -1.1361 -4.3280  2.7891
  665MOL0     H89761   8.373   5.735   0.092 -3.6674 -0.7848 -1.8744
  665MOL0     H89762   8.142   5.759   0.132  0.8159  0.4534  2.0456
  665MOL0     H89763   7.801   5.622   0.224 -0.7768  3.5828 -3.4760
  665MOL0     H89764   7.917   5.736   0.178  3.2972 -0.2584  1.0013
  665MOL0     H89765   7.986   5.718   0.447  1.7266  1.2084 -3.7789
  665MOL0     H89766   7.832   5.632   0.443  0.1847 -1.2938 -0.3811
  665MOL0     H89767   7.882   5.912   0.318  1.4701 -0.5108  1.6948
  665MOL0     H89768   7.834   5.899   0.484  2.2733  0.9201  0.2971
  665MOL0     H89769   7.645   5.962   0.333 -0.4367 -0.1543 -4.2406
  665MOL0     H89770   7.653   5.804   0.248 -1.8060 -0.5536  0.6722
  665MOL0     H89771   7.532   5.660   0.620  0.6186  0.5339  0.7225
  665MOL0     H89772   8.138   5.388   0.337  0.9952  0.7025  1.9699
  665MOL0     H89773   8.341   5.243   0.382  0.7780 -1.2920 -0.1681
  665MOL0     H89774   8.406   5.255   0.214  1.0568 -1.1859  1.1837
  665MOL0     H89775   8.493   5.315   0.355 -1.1052 -0.6767  2.6263
  666MOL0     O89776   8.946   9.806   6.367  0.0527 -0.7694 -0.3126
  666MOL0     C89777   8.929   9.844   6.250 -0.3537 -0.4828 -0.2127
  666MOL0     O89778   8.826   9.812   6.171  0.5681 -0.3399 -0.3489
  666MOL0     C89779   8.716   9.754   6.222 -0.1580  0.7612 -0.2169
  666MOL0     C89780   8.684   9.686   6.344 -0.2209 -0.4998  0.7441
  666MOL0     C89781   8.558   9.628   6.361  0.5830  0.3137  0.7571
  666MOL0     C89782   8.464   9.627   6.256  0.5142  0.5609  0.3809
  666MOL0     O89783   8.346   9.567   6.274 -0.7911  0.1616  0.4222
  666MOL0     C89784   8.337   9.439   6.215 -0.5415 -0.1898 -1.0572
  666MOL0     C89785   8.236   9.350   6.299 -0.1543 -0.5357  0.7946
  666MOL0     C89786   8.172   9.248   6.212  0.0583 -0.7041 -0.6434
  666MOL0     C89787   8.060   9.169   6.267  0.7908  0.3297 -0.2122
  666MOL0     C89788   8.024   9.045   6.174 -0.1329 -1.3730 -0.2541
  666MOL0     C89789   7.938   8.952   6.253 -0.3568  0.1416 -0.2279
  666MOL0     C89790   7.895   8.831   6.163 -0.3781  0.3014 -0.5476
  666MOL0     C89791   7.757   8.766   6.191  0.0471 -0.3119  0.4692
  666MOL0     N89792   7.631   8.848   6.178  0.7925 -0.1122  0.0174
  666MOL0     C89793   7.540   8.855   6.075  0.9118 -0.1152  0.4514
  666MOL0     C89794   7.451   8.952   6.110 -0.0408 -0.8865 -0.0165
  666MOL0     C89795   7.324   9.000   6.035  0.8607  1.5999  0.4791
  666MOL0     C89796   7.249   9.115   6.098 -0.6072 -0.7160 -0.9748
  666MOL0     C89797   7.332   9.249   6.087  0.3226 -0.2357 -0.4187
  666MOL0     C89798   7.268   9.362   6.166 -0.0212 -0.1662  0.1935
  666MOL0     O89799   7.367   9.467   6.162 -0.0616 -0.6902 -0.7060
  666MOL0     C89800   7.390   9.563   6.071 -0.2466 -1.0964 -0.1322
  666MOL0     C89801   7.321   9.561   5.939  0.8378 -0.4519 -0.3946
  666MOL0     C89802   7.354   9.653   5.833  0.7385 -0.1665 -0.2232
  666MOL0     C89803   7.456   9.755   5.862  0.4927 -0.4983  0.0001
  666MOL0     C89804   7.484   9.865   5.768 -0.6224 -0.5056  0.4459
  666MOL0     O89805   7.589   9.951   5.793 -0.6064  0.2640  0.1822
  666MOL0     C89806   7.584  10.067   5.730 -1.0215 -0.6456 -0.3953
  666MOL0     C89807   7.690  10.096   5.645  0.3589 -0.2758 -1.5498
  666MOL0     C89808   7.701  10.221   5.583 -0.4349 -0.2061  0.2409
  666MOL0     C89809   7.608  10.318   5.608 -0.1696 -0.3968  0.5176
  666MOL0     O89810   7.626  10.439   5.545  0.2208 -0.1567  0.1667
  666MOL0     C89811   7.518  10.494   5.472 -0.1287 -0.2412  0.7582
  666MOL0     C89812   7.576  10.601   5.377 -0.8589  0.3051  0.4195
  666MOL0     C89813   7.573  10.738   5.432 -0.1249 -0.2969  0.2926
  666MOL0     C89814   7.696  10.775   5.510  0.0730 -0.4904 -0.5156
  666MOL0     C89815   7.684  10.905   5.591  0.2768  0.7179 -0.3005
  666MOL0     C89816   7.654  11.038   5.519 -0.6245  1.1207 -1.4140
  666MOL0     C89817   7.628  11.163   5.611 -0.1349 -0.4181 -0.4886
  666MOL0     C89818   7.756  11.230   5.654 -0.4218  0.6436 -0.2170
  666MOL0    Cl89819   7.842  11.286   5.501 -0.0555 -0.3008 -0.3192
  666MOL0     C89820   7.504  10.297   5.696 -0.1979  0.1829 -0.2295
  666MOL0     C89821   7.493  10.173   5.762 -0.1842  0.1056 -0.1020
  666MOL0     O89822   7.401   9.869   5.676  0.1018  0.3363 -0.5821
  666MOL0     C89823   7.517   9.746   5.994 -0.2688 -0.6891  0.3591
  666MOL0     C89824   7.485   9.654   6.091  0.2190  0.1300 -0.8601
  666MOL0     N89825   7.492   8.996   6.237  0.2458  0.3562  0.7073
  666MOL0     N89826   7.599   8.932   6.278 -0.3950  0.3784  0.1571
  666MOL0     C89827   8.496   9.685   6.137  0.5155 -0.2268 -1.0713
  666MOL0     C89828   8.622   9.755   6.120  0.4229  0.2555  0.3241
  666MOL0     C89829   9.038   9.935   6.198  0.5543 -0.1519  0.5905
  666MOL0     C89830   9.074  10.052   6.255  0.2273 -0.6601  0.3428
  666MOL0     C89831   9.151  10.152   6.187 -0.3338 -0.2349 -0.0255
  666MOL0     C89832   9.200  10.129   6.064 -0.2729  0.6893 -0.2816
  666MOL0     O89833   9.267  10.221   5.999  0.8038 -0.7880  0.3864
  666MOL0     C89834   9.173  10.318   5.943  1.5150  0.6606 -1.1949
  666MOL0     C89835   9.254  10.438   5.908 -0.1975 -0.7046 -0.9274
  666MOL0     C89836   9.176  10.556   5.852 -0.0694  0.4932 -0.0772
  666MOL0     C89837   9.092  10.614   5.971 -0.0706  0.3283 -0.0567
  666MOL0     C89838   9.025  10.739   5.940 -0.1603  0.4594 -0.1432
  666MOL0     C89839   8.953  10.834   5.925 -0.5746 -0.1629 -0.8379
  666MOL0     C89840   9.195  10.000   6.021  0.6097  0.3353  0.6027
  666MOL0     C89841   9.102   9.902   6.074 -0.7008 -0.6891 -0.1123
  666MOL0     C89842   9.077   9.785   5.996  0.1139  1.2384 -0.2745
  666MOL0     H89843   8.754   9.672   6.426 -1.4832 -2.5207  1.5769
  666MOL0     H89844   8.546   9.578   6.457  3.4395 -1.1407  0.4721
  666MOL0     H89845   8.300   9.462   6.115 -0.1779 -1.9988 -1.6393
  666MOL0     H89846   8.429   9.382   6.202  0.7582  1.8379 -1.2479
  666MOL0     H89847   8.156   9.414   6.336 -2.4282 -3.2218  0.8216
  666MOL0     H89848   8.290   9.308   6.384  3.5892 -0.9337 -1.5480
  666MOL0     H89849   8.246   9.175   6.177  1.5611  0.2383  0.4198
  666MOL0     H89850   8.127   9.294   6.123 -1.6769 -2.8101 -0.9345
  666MOL0     H89851   8.094   9.138   6.366 -1.1349  0.5698  0.5581
  666MOL0     H89852   7.973   9.236   6.269 -0.4637 -1.1761 -1.6507
  666MOL0     H89853   7.957   9.090   6.100 -1.9466 -0.1634  2.0057
  666MOL0     H89854   8.119   9.007   6.135  0.2365 -1.2694  0.5207
  666MOL0     H89855   7.988   8.928   6.347  1.7301  1.2400 -1.0032
  666MOL0     H89856   7.847   9.002   6.287 -1.8166 -1.7819 -1.1088
  666MOL0     H89857   7.968   8.750   6.172 -2.5078 -1.8916 -1.7594
  666MOL0     H89858   7.884   8.866   6.060 -1.9556 -2.3952 -1.4034
  666MOL0     H89859   7.745   8.690   6.113 -0.8522  1.9170 -1.7311
  666MOL0     H89860   7.765   8.715   6.287  1.8221 -2.3971 -0.7117
  666MOL0     H89861   7.530   8.797   5.984  0.5875 -2.1392  1.7191
  666MOL0     H89862   7.347   9.036   5.934  0.1017  2.7617  0.6973
  666MOL0     H89863   7.269   8.906   6.018  3.5018  0.1090 -0.3407
  666MOL0     H89864   7.157   9.141   6.046  0.4142  2.5983 -1.3667
  666MOL0     H89865   7.235   9.095   6.204 -1.1257  2.7000 -0.2759
  666MOL0     H89866   7.339   9.275   5.981  0.1066  1.7548  0.0198
  666MOL0     H89867   7.438   9.232   6.108  0.2160 -1.1956 -0.5974
  666MOL0     H89868   7.241   9.326   6.265  1.8604 -2.9182 -0.1778
  666MOL0     H89869   7.176   9.395   6.115 -0.9069 -0.7932  1.3475
  666MOL0     H89870   7.232   9.505   5.913 -0.6809  2.2013 -1.3634
  666MOL0     H89871   7.304   9.663   5.737 -0.4831 -0.6033  0.3548
  666MOL0     H89872   7.771  10.023   5.646  1.7023  1.1829 -0.9847
  666MOL0     H89873   7.788  10.239   5.520 -2.0681 -0.6582 -2.2722
  666MOL0     H89874   7.480  10.414   5.407  1.7460  0.5129 -1.3908
  666MOL0     H89875   7.443  10.542   5.535 -1.4292 -2.7059  1.2329
  666MOL0     H89876   7.677  10.570   5.349 -0.4441 -0.0674  2.1806
  666MOL0     H89877   7.515  10.607   5.287  0.7072  2.2823 -0.5885
  666MOL0     H89878   7.564  10.799   5.342  1.4238  1.2454  1.1136
  666MOL0     H89879   7.484  10.752   5.495  0.5867  2.4812  0.8272
  666MOL0     H89880   7.780  10.769   5.441  1.7599 -6.2485  1.5362
  666MOL0     H89881   7.720  10.695   5.580  2.9191 -1.0950 -2.0527
  666MOL0     H89882   7.765  10.919   5.663 -0.6960  2.3506  0.5452
  666MOL0     H89883   7.596  10.893   5.655  1.3422 -1.3033  0.8810
  666MOL0     H89884   7.747  11.054   5.463 -0.7969  0.2223 -1.9748
  666MOL0     H89885   7.574  11.010   5.451  0.4139  1.5517 -2.8756
  666MOL0     H89886   7.566  11.130   5.694 -1.7104 -0.2005 -1.5236
  666MOL0     H89887   7.560  11.224   5.550 -0.2789 -1.7153 -1.6870
  666MOL0     H89888   7.751  11.311   5.727  1.7022  0.6467 -0.0185
  666MOL0     H89889   7.814  11.156   5.710 -0.3935 -2.3919 -3.8210
  666MOL0     H89890   7.433  10.377   5.714 -1.0904 -0.0165 -2.4715
  666MOL0     H89891   7.432  10.151   5.849 -0.4672  0.0182 -0.3235
  666MOL0     H89892   7.592   9.820   6.019 -1.2821  1.4902 -2.4794
  666MOL0     H89893   7.545   9.638   6.181 -0.0581 -2.0975 -1.0031
  666MOL0     H89894   8.418   9.687   6.062  0.4796 -1.7975 -1.1010
  666MOL0     H89895   8.630   9.805   6.024 -1.8379  0.7229  0.3233
  666MOL0     H89896   9.031  10.075   6.352 -0.5774  2.5288 -0.6648
  666MOL0     H89897   9.152  10.254   6.222  0.6044  0.6992 -2.5903
  666MOL0     H89898   9.108  10.343   6.027  2.3981 -1.3300  0.1344
  666MOL0     H89899   9.117  10.290   5.853  0.1027  1.4117 -0.5791
  666MOL0     H89900   9.329  10.405   5.836  0.9890 -1.3302  0.5478
  666MOL0     H89901   9.311  10.479   5.991 -0.9996  0.4507 -0.9231
  666MOL0     H89902   9.105  10.528   5.774  0.7832 -0.7874 -0.4077
  666MOL0     H89903   9.240  10.634   5.809 -0.0600  1.6137  1.8248
  666MOL0     H89904   9.016  10.539   5.995 -0.0033  0.2686 -0.0312
  666MOL0     H89905   9.149  10.649   6.057 -0.7895  1.4892 -0.0318
  666MOL0     H89906   8.894  10.923   5.916 -0.8250 -0.2269  0.0646
  666MOL0     H89907   9.255   9.983   5.932 -1.5886  1.5902 -1.2549
  666MOL0     H89908   9.143   9.753   5.915  1.5185  1.1616  0.8719
  666MOL0     H89909   9.070   9.702   6.067 -1.5821  2.0135  0.5207
  666MOL0     H89910   8.976   9.791   5.953 -0.7670  1.4265  1.7062
  667MOL0     O89911   9.308   2.611   3.570  0.1604  1.1602  0.2861
  667MOL0     C89912   9.382   2.639   3.474 -0.1261  0.2594 -0.1922
  667MOL0     O89913   9.335   2.724   3.375  0.8001  0.1582  0.6289
  667MOL0     C89914   9.199   2.754   3.375  0.9203  0.5073  0.9416
  667MOL0     C89915   9.090   2.662   3.395 -0.5358 -0.8889  0.2973
  667MOL0     C89916   8.956   2.718   3.392  0.0005 -0.1791  0.8206
  667MOL0     C89917   8.936   2.844   3.344  0.2591 -0.2536  0.7450
  667MOL0     O89918   8.807   2.899   3.362 -0.3985  0.0308  0.2388
  667MOL0     C89919   8.776   3.015   3.279 -0.4573  0.1630  0.3039
  667MOL0     C89920   8.644   3.063   3.317  0.9495 -0.4591  1.2648
  667MOL0     C89921   8.527   2.971   3.284 -0.0664 -0.0672 -0.5453
  667MOL0     C89922   8.396   3.032   3.334  0.1865 -0.2336 -1.0773
  667MOL0     C89923   8.367   2.988   3.470 -0.9526 -0.2605 -0.6407
  667MOL0     C89924   8.350   2.832   3.477 -1.2153  0.1402  0.1901
  667MOL0     C89925   8.218   2.757   3.524 -0.9589 -1.2743 -0.2418
  667MOL0     C89926   8.115   2.779   3.424 -0.6625 -0.5340 -0.2463
  667MOL0     N89927   8.062   2.918   3.445  0.3998 -0.2797  0.1425
  667MOL0     C89928   7.977   2.958   3.539  0.0931 -0.1406  1.6759
  667MOL0     C89929   7.952   3.086   3.510 -0.7649 -0.2183 -0.2710
  667MOL0     C89930   7.860   3.178   3.578  0.5604  0.3952  0.2822
  667MOL0     C89931   7.783   3.142   3.703 -0.2251  0.5420 -0.4425
  667MOL0     C89932   7.676   3.030   3.668  1.0064  0.2357 -0.4639
  667MOL0     C89933   7.603   2.979   3.791  0.4333  0.7438 -0.1192
  667MOL0     O89934   7.546   3.094   3.862 -0.2081 -0.1206  0.0412
  667MOL0     C89935   7.455   3.066   3.963 -0.3518 -0.2146 -0.1527
  667MOL0     C89936   7.426   2.934   4.001 -0.5844 -0.1168  0.1048
  667MOL0     C89937   7.326   2.924   4.094 -0.6725  1.0848 -0.4854
  667MOL0     C89938   7.267   3.032   4.163 -0.4799 -0.6853  0.2862
  667MOL0     C89939   7.154   3.013   4.257 -0.1202  0.1364  0.1585
  667MOL0     O89940   7.100   2.886   4.256 -0.0888  0.7277 -0.3309
  667MOL0     C89941   7.005   2.857   4.342  0.6351  0.6748  0.2097
  667MOL0     C89942   7.030   2.789   4.462 -0.0722  0.1352 -0.5968
  667MOL0     C89943   6.926   2.762   4.549  0.3840  0.1393 -0.1991
  667MOL0     C89944   6.791   2.809   4.518  0.2652 -0.3247 -0.8005
  667MOL0     O89945   6.679   2.777   4.599 -0.9502  0.0781 -0.1714
  667MOL0     C89946   6.687   2.778   4.742 -0.4810  0.2663  0.0316
  667MOL0     C89947   6.682   2.920   4.799  0.2318  0.8592 -0.6889
  667MOL0     C89948   6.639   2.908   4.944  0.6179  0.2369 -0.3453
  667MOL0     C89949   6.764   2.902   5.030 -0.2551 -0.1603  0.1312
  667MOL0     C89950   6.736   2.884   5.181 -0.3045  0.0278 -0.4269
  667MOL0     C89951   6.861   2.873   5.270 -0.0615  0.1075 -0.6706
  667MOL0     C89952   6.957   2.763   5.223 -0.2035 -0.3323  0.5447
  667MOL0     C89953   7.065   2.740   5.324 -0.3344  1.2950  0.4850
  667MOL0    Cl89954   6.988   2.654   5.463 -0.1147  0.4958 -0.1378
  667MOL0     C89955   6.769   2.873   4.398 -0.3488 -0.9785  0.4477
  667MOL0     C89956   6.876   2.905   4.316  0.5925  0.3311 -0.0673
  667MOL0     O89957   7.113   3.110   4.315 -0.0671 -0.8465 -0.5628
  667MOL0     C89958   7.314   3.163   4.130  0.2881  0.0731  0.0805
  667MOL0     C89959   7.399   3.178   4.019  0.6703 -0.3852 -0.1106
  667MOL0     N89960   8.031   3.123   3.402  0.2069 -0.4168  0.8213
  667MOL0     N89961   8.091   3.021   3.355 -0.0819 -0.4788 -0.4405
  667MOL0     C89962   9.042   2.917   3.281 -0.2820 -0.2279 -1.5363
  667MOL0     C89963   9.172   2.871   3.305  1.0020 -0.1397 -0.0198
  667MOL0     C89964   9.511   2.568   3.485  0.5647 -0.4829 -0.2510
  667MOL0     C89965   9.533   2.475   3.590 -0.4536 -0.7098 -0.1554
  667MOL0     C89966   9.658   2.412   3.604 -0.2205  0.5087  0.3691
  667MOL0     C89967   9.766   2.442   3.517  0.1462 -1.1627  0.7391
  667MOL0     O89968   9.892   2.384   3.522  1.0343 -0.2257  0.4277
  667MOL0     C89969   9.962   2.404   3.653  0.1553 -0.2288  0.5982
  667MOL0     C89970  10.087   2.313   3.662 -0.4995  1.2243 -0.4365
  667MOL0     C89971  10.211   2.406   3.645  0.2363  0.2985 -0.3647
  667MOL0     C89972  10.339   2.331   3.650 -0.4260 -0.2325 -0.0018
  667MOL0     C89973  10.360   2.219   3.553 -0.8833  0.4332  0.5684
  667MOL0     C89974  10.363   2.129   3.477  0.6581  0.1391 -0.0008
  667MOL0     C89975   9.736   2.523   3.402  0.4063 -0.9532 -0.0836
  667MOL0     C89976   9.610   2.591   3.390  0.1703  0.1554  0.8402
  667MOL0     C89977   9.592   2.670   3.263 -0.1530 -0.6577  0.0581
  667MOL0     H89978   9.099   2.557   3.417 -3.3192 -1.4214 -0.6253
  667MOL0     H89979   8.873   2.667   3.438 -2.9700  4.2295  0.9851
  667MOL0     H89980   8.859   3.086   3.291  1.1606 -1.2759 -1.6312
  667MOL0     H89981   8.778   2.983   3.174 -1.5974  1.4439 -0.1428
  667MOL0     H89982   8.634   3.162   3.273 -1.2425 -0.8097  0.8505
  667MOL0     H89983   8.646   3.074   3.425 -0.3510  1.8404  1.1019
  667MOL0     H89984   8.545   2.870   3.321 -0.5262 -0.2421 -0.7894
  667MOL0     H89985   8.521   2.948   3.177 -0.3200 -1.2924 -0.2758
  667MOL0     H89986   8.400   3.141   3.324 -3.8399 -0.0197 -2.1617
  667MOL0     H89987   8.317   2.988   3.273  0.9371 -1.9034 -0.9213
  667MOL0     H89988   8.452   3.009   3.535  1.0345 -5.3926 -1.0967
  667MOL0     H89989   8.276   3.042   3.499 -2.4367 -2.3195 -1.2240
  667MOL0     H89990   8.362   2.795   3.375  3.2134  3.0429 -0.6023
  667MOL0     H89991   8.432   2.816   3.548  1.4905  0.7722 -2.5785
  667MOL0     H89992   8.193   2.797   3.623 -2.0714 -1.6480 -0.3601
  667MOL0     H89993   8.227   2.650   3.543 -0.7410 -0.8038  2.7831
  667MOL0     H89994   8.158   2.761   3.325  1.3621 -0.3177  0.5380
  667MOL0     H89995   8.028   2.716   3.446 -1.0398 -0.3197 -1.0831
  667MOL0     H89996   7.941   2.891   3.617 -1.6362 -2.6639 -1.0517
  667MOL0     H89997   7.919   3.268   3.599 -0.4509  1.0371  0.4496
  667MOL0     H89998   7.782   3.195   3.503  0.7051  0.3341  0.1178
  667MOL0     H89999   7.851   3.091   3.772 -2.3764 -0.4942  1.0331
  667MOL0     H90000   7.729   3.229   3.744 -0.2680  0.0093  0.6711
  667MOL0     H90001   7.729   2.949   3.618  0.4818  0.3838 -1.2865
  667MOL0     H90002   7.607   3.073   3.594  1.7398 -0.7332 -1.7417
  667MOL0     H90003   7.670   2.922   3.856 -2.7582  0.2656  3.0457
  667MOL0     H90004   7.519   2.912   3.768 -0.3772  0.6038  2.7987
  667MOL0     H90005   7.469   2.838   3.973 -0.1931 -0.6125  2.2223
  667MOL0     H90006   7.303   2.828   4.138 -0.7568 -0.5317 -3.7924
  667MOL0     H90007   7.132   2.766   4.491  0.2264  0.4907 -1.3390
  667MOL0     H90008   6.951   2.700   4.634 -0.4823  0.6806  0.4708
  667MOL0     H90009   6.600   2.720   4.772 -2.1054  2.3675 -0.4063
  667MOL0     H90010   6.774   2.717   4.770 -0.9484 -1.5372 -2.1292
  667MOL0     H90011   6.774   2.974   4.775  2.2438 -0.9718  2.2965
  667MOL0     H90012   6.596   2.963   4.747  0.0079  1.7524  0.4052
  667MOL0     H90013   6.586   2.997   4.979 -0.2308 -0.7895  1.1335
  667MOL0     H90014   6.567   2.830   4.970 -0.7619  0.9870 -1.7380
  667MOL0     H90015   6.830   2.989   5.018  1.3409 -1.4861 -1.2887
  667MOL0     H90016   6.828   2.817   5.004  1.1651  0.3366  1.8287
  667MOL0     H90017   6.671   2.798   5.204 -0.1433  0.0513  0.1370
  667MOL0     H90018   6.679   2.973   5.212 -0.4523 -0.4038  0.5901
  667MOL0     H90019   6.912   2.970   5.277  1.2482 -0.6356  0.5877
  667MOL0     H90020   6.825   2.854   5.372 -0.6609 -0.0069 -0.8986
  667MOL0     H90021   7.011   2.795   5.134  1.7210 -0.8617  1.4777
  667MOL0     H90022   6.909   2.669   5.194  2.2942 -2.4579  2.7755
  667MOL0     H90023   7.139   2.672   5.281  0.8717  0.1449  4.0834
  667MOL0     H90024   7.113   2.835   5.348 -0.4490  1.4360  0.1684
  667MOL0     H90025   6.667   2.904   4.379 -0.9933 -0.9395  3.5301
  667MOL0     H90026   6.850   2.954   4.222 -2.3915 -0.1164  0.4122
  667MOL0     H90027   7.283   3.251   4.184 -1.5707  2.5852 -4.5003
  667MOL0     H90028   7.416   3.280   3.984  2.9723 -0.8688 -0.6043
  667MOL0     H90029   9.038   3.020   3.248 -2.1869 -0.0049 -0.7656
  667MOL0     H90030   9.252   2.932   3.266 -0.9617  3.8497  1.5621
  667MOL0     H90031   9.451   2.455   3.658 -0.6092  1.9945  0.5592
  667MOL0     H90032   9.669   2.335   3.679 -5.0537  1.4661  2.4662
  667MOL0     H90033   9.888   2.384   3.730 -2.7252 -0.3585 -2.0151
  667MOL0     H90034   9.991   2.509   3.668  0.9332 -0.2500 -0.6013
  667MOL0     H90035  10.075   2.233   3.588 -1.1903  1.7711 -0.9335
  667MOL0     H90036  10.092   2.259   3.757 -1.8367 -2.7228 -2.3819
  667MOL0     H90037  10.218   2.475   3.729 -1.4382 -0.2549  0.2590
  667MOL0     H90038  10.205   2.461   3.551 -1.9526 -0.8796 -0.9827
  667MOL0     H90039  10.411   2.405   3.614 -2.0702  1.7335  0.5707
  667MOL0     H90040  10.367   2.296   3.750 -2.1482  0.1242  0.6326
  667MOL0     H90041  10.367   2.060   3.395 -2.9860 -1.9711  1.3720
  667MOL0     H90042   9.811   2.535   3.324 -1.2299 -1.3099 -1.8019
  667MOL0     H90043   9.585   2.774   3.294  2.9092  0.4558 -2.4090
  667MOL0     H90044   9.671   2.659   3.187 -1.8330 -0.6709 -1.7724
  667MOL0     H90045   9.507   2.635   3.203  1.2160 -1.6466 -1.4144
  668MOL0     O90046   7.640   1.600   7.377  0.2307 -0.0829  0.4417
  668MOL0     C90047   7.550   1.631   7.455  0.7404 -0.0605 -0.3508
  668MOL0     O90048   7.573   1.704   7.570 -0.2471  0.0622  0.2933
  668MOL0     C90049   7.696   1.753   7.602 -0.3458 -0.1572 -0.7816
  668MOL0     C90050   7.769   1.701   7.711  0.0057 -0.0349  0.2711
  668MOL0     C90051   7.892   1.757   7.738  0.2645  0.6668 -0.0127
  668MOL0     C90052   7.942   1.880   7.678  0.5944  0.1279 -1.2568
  668MOL0     O90053   8.063   1.925   7.718  0.3207 -0.2688 -0.9178
  668MOL0     C90054   8.174   1.931   7.628  0.6132 -0.1815 -1.4376
  668MOL0     C90055   8.283   1.851   7.709 -0.0762  0.2682  0.4083
  668MOL0     C90056   8.413   1.828   7.629 -0.4366 -0.1235  0.3475
  668MOL0     C90057   8.511   1.744   7.714 -1.0039 -0.0122 -0.5072
  668MOL0     C90058   8.652   1.754   7.654  0.3305  0.1415 -0.4897
  668MOL0     C90059   8.742   1.660   7.737  0.1358 -0.1651  0.8512
  668MOL0     C90060   8.879   1.659   7.664  0.7561 -0.2975  0.1768
  668MOL0     C90061   9.001   1.611   7.739  0.6504 -0.8826  0.4673
  668MOL0     N90062   9.107   1.704   7.746 -0.9674  0.5827  0.3623
  668MOL0     C90063   9.185   1.751   7.645  0.6190 -0.0075 -0.1720
  668MOL0     C90064   9.269   1.834   7.710  0.2394  0.6412  0.2162
  668MOL0     C90065   9.375   1.894   7.623 -0.3906  0.4650  0.2909
  668MOL0     C90066   9.517   1.840   7.670  0.1404 -0.7812  0.3197
  668MOL0     C90067   9.619   1.786   7.559  0.5336  0.6864 -0.1399
  668MOL0     C90068   9.745   1.714   7.611 -0.3286 -0.6495  0.5179
  668MOL0     O90069   9.834   1.814   7.664 -0.1528  0.0218 -0.4880
  668MOL0     C90070   9.963   1.772   7.679 -0.9619  0.0366 -0.7599
  668MOL0     C90071  10.030   1.763   7.804  0.9990 -0.4598  0.3986
  668MOL0     C90072  10.164   1.723   7.811 -0.7781  0.3029  0.1093
  668MOL0     C90073  10.238   1.697   7.695 -0.2706 -0.8071 -0.8651
  668MOL0     C90074  10.387   1.674   7.708  0.4117  0.0446 -0.5433
  668MOL0     O90075  10.454   1.658   7.588 -0.2772 -0.3819 -0.1853
  668MOL0     C90076  10.583   1.619   7.600  0.3040  0.8217  0.2705
  668MOL0     C90077  10.616   1.488   7.630 -0.4363  0.6379  0.3452
  668MOL0     C90078  10.743   1.436   7.626  0.7820  0.0325 -0.5246
  668MOL0     C90079  10.850   1.524   7.595  0.9264  0.2847 -0.5474
  668MOL0     O90080  10.981   1.485   7.605 -0.2114 -0.2147 -0.4983
  668MOL0     C90081  11.014   1.359   7.557  0.3791  0.3989 -0.3833
  668MOL0     C90082  11.160   1.348   7.516  0.2514  0.0282 -0.1219
  668MOL0     C90083  11.240   1.421   7.624  0.1881 -0.7584 -0.1224
  668MOL0     C90084  11.393   1.408   7.614  0.0223 -0.3628  0.5188
  668MOL0     C90085  11.458   1.422   7.746 -0.2895 -0.6428 -0.5499
  668MOL0     C90086  11.598   1.478   7.736 -0.0642  0.2675 -0.6674
  668MOL0     C90087  11.669   1.477   7.875  0.2706 -0.0820 -0.4274
  668MOL0     C90088  11.794   1.563   7.890  0.5950  0.2262 -0.3234
  668MOL0    Cl90089  11.767   1.731   7.841 -0.2377  0.3218  0.5559
  668MOL0     C90090  10.820   1.662   7.599  0.0180  0.8195  0.3777
  668MOL0     C90091  10.688   1.709   7.584 -0.9717 -0.3824  0.8093
  668MOL0     O90092  10.443   1.681   7.815 -0.0897 -0.0213 -0.3838
  668MOL0     C90093  10.174   1.714   7.567 -0.1772 -0.8986 -0.6641
  668MOL0     C90094  10.038   1.744   7.569 -0.5143  0.0276  0.4108
  668MOL0     N90095   9.249   1.831   7.843 -0.2480 -0.2036 -0.1686
  668MOL0     N90096   9.142   1.758   7.866 -0.0437  0.4492  0.4752
  668MOL0     C90097   7.867   1.943   7.570  0.0691  0.4891 -0.3198
  668MOL0     C90098   7.749   1.869   7.533 -0.4025 -0.4769 -0.7903
  668MOL0     C90099   7.412   1.589   7.416 -0.4078 -0.3777  0.3366
  668MOL0     C90100   7.391   1.579   7.275 -0.0285 -0.6936  0.5895
  668MOL0     C90101   7.281   1.508   7.220  0.1028 -0.2633  0.4023
  668MOL0     C90102   7.184   1.458   7.312 -0.2280  0.4332  0.9841
  668MOL0     O90103   7.091   1.384   7.246 -0.2726 -0.5662 -0.5547
  668MOL0     C90104   6.977   1.318   7.320 -0.5924  0.1252  0.0560
  668MOL0     C90105   6.902   1.221   7.221  0.4497 -0.0884  0.0462
  668MOL0     C90106   6.748   1.237   7.234  1.2953 -0.5724 -0.4620
  668MOL0     C90107   6.659   1.152   7.151  0.5022  0.7269 -0.1511
  668MOL0     C90108   6.673   1.197   7.014 -0.0676 -0.3012  0.3054
  668MOL0     C90109   6.679   1.233   6.898  0.0778 -0.8405  0.1205
  668MOL0     C90110   7.190   1.482   7.446 -0.5251 -0.5052 -0.1401
  668MOL0     C90111   7.308   1.540   7.497 -0.3145 -0.4506 -0.6071
  668MOL0     C90112   7.310   1.565   7.642 -0.6068 -0.0172  0.3677
  668MOL0     H90113   7.732   1.611   7.759  1.3970  0.5521  2.5903
  668MOL0     H90114   7.946   1.703   7.814 -1.3950 -1.2962 -0.1441
  668MOL0     H90115   8.146   1.908   7.525  0.0980 -0.4856 -1.2289
  668MOL0     H90116   8.193   2.039   7.630 -1.6671  0.2664 -0.5376
  668MOL0     H90117   8.240   1.757   7.747  2.1973 -1.1150 -0.2304
  668MOL0     H90118   8.314   1.912   7.794  3.1014  3.2538 -2.5609
  668MOL0     H90119   8.473   1.918   7.615  1.4968 -0.8974  2.8523
  668MOL0     H90120   8.392   1.784   7.531 -3.6752  3.5412 -0.8454
  668MOL0     H90121   8.517   1.808   7.803  0.7117  0.1555 -0.7107
  668MOL0     H90122   8.478   1.642   7.735 -0.9845  0.1734  0.4860
  668MOL0     H90123   8.651   1.707   7.555  1.0387 -0.4207 -0.2353
  668MOL0     H90124   8.682   1.858   7.642 -1.6283  0.8840  0.5410
  668MOL0     H90125   8.756   1.692   7.841 -0.4003  1.5993  0.4074
  668MOL0     H90126   8.698   1.561   7.752 -2.2316  0.5771 -0.6531
  668MOL0     H90127   8.897   1.765   7.644  4.1615 -0.6591  0.7001
  668MOL0     H90128   8.871   1.609   7.567 -2.6133  2.1072 -0.9616
  668MOL0     H90129   8.963   1.580   7.837 -2.4315 -3.7179 -1.4357
  668MOL0     H90130   9.038   1.524   7.685  0.6188  1.1379 -3.0977
  668MOL0     H90131   9.179   1.717   7.543  1.1473 -0.2908 -0.1082
  668MOL0     H90132   9.364   1.875   7.516  1.0134  1.2001 -0.0121
  668MOL0     H90133   9.368   2.003   7.625 -1.0534  0.4532 -0.5422
  668MOL0     H90134   9.570   1.923   7.718 -1.3329  0.3494  0.0424
  668MOL0     H90135   9.493   1.755   7.735 -0.8405  1.2621  2.7532
  668MOL0     H90136   9.651   1.860   7.485  3.0033 -0.0961  0.0625
  668MOL0     H90137   9.573   1.709   7.497  2.3634 -0.4122 -0.2044
  668MOL0     H90138   9.784   1.654   7.528 -0.6540 -0.0385 -0.0828
  668MOL0     H90139   9.709   1.632   7.674 -3.7692 -1.1361 -1.7975
  668MOL0     H90140   9.969   1.797   7.887  0.3973  1.1430 -0.6552
  668MOL0     H90141  10.212   1.703   7.906  1.3781 -0.5661 -1.1072
  668MOL0     H90142  10.533   1.418   7.631 -0.1278  0.2520 -0.0656
  668MOL0     H90143  10.760   1.331   7.648 -0.4580  0.0477  0.6225
  668MOL0     H90144  11.006   1.298   7.648  1.8967  0.5239 -0.1365
  668MOL0     H90145  10.949   1.320   7.478  0.8849  0.4481 -0.8305
  668MOL0     H90146  11.190   1.244   7.509 -0.8328 -0.6283  3.3206
  668MOL0     H90147  11.177   1.390   7.417  2.5535 -0.9268 -0.1849
  668MOL0     H90148  11.207   1.523   7.643  2.6699  0.5534 -2.1632
  668MOL0     H90149  11.221   1.369   7.718  1.7147  0.5936  1.0042
  668MOL0     H90150  11.408   1.492   7.546  0.9335 -0.6937  0.2911
  668MOL0     H90151  11.433   1.318   7.566 -0.0839 -1.6752  2.7410
  668MOL0     H90152  11.479   1.327   7.797  3.2691  0.7306  0.9177
  668MOL0     H90153  11.402   1.481   7.818 -0.0513 -1.7530  0.5986
  668MOL0     H90154  11.662   1.417   7.671  2.8394  0.8698  1.4163
  668MOL0     H90155  11.605   1.581   7.698  0.6857  1.5814  2.7121
  668MOL0     H90156  11.690   1.372   7.900  2.0444  0.5661  1.0899
  668MOL0     H90157  11.596   1.504   7.952 -1.1742  0.7178 -2.0097
  668MOL0     H90158  11.816   1.555   7.997 -2.6793 -0.1127  0.4237
  668MOL0     H90159  11.876   1.523   7.830 -0.4883 -0.2752 -1.5048
  668MOL0     H90160  10.906   1.728   7.593 -0.1153  0.8807 -1.5130
  668MOL0     H90161  10.676   1.815   7.564  1.5244 -0.7349 -3.7626
  668MOL0     H90162  10.242   1.694   7.484  0.3007 -1.2610 -0.1935
  668MOL0     H90163   9.976   1.743   7.480 -0.3339  1.0304  0.2596
  668MOL0     H90164   7.895   2.036   7.522 -1.2177 -0.2385 -2.6475
  668MOL0     H90165   7.682   1.899   7.453 -3.1817 -0.0676  1.5333
  668MOL0     H90166   7.455   1.621   7.198 -1.7347 -1.7759 -1.5180
  668MOL0     H90167   7.260   1.492   7.115  0.2001  1.8855  0.0035
  668MOL0     H90168   6.908   1.389   7.366 -0.7608  0.3555 -0.5421
  668MOL0     H90169   7.023   1.259   7.400  1.7822  2.2815  0.4153
  668MOL0     H90170   6.939   1.118   7.224 -4.4590 -2.1547  0.0975
  668MOL0     H90171   6.920   1.256   7.118  1.2081 -3.9944 -1.3120
  668MOL0     H90172   6.718   1.342   7.233 -1.7358 -1.2982  0.6297
  668MOL0     H90173   6.728   1.193   7.333  3.7758  0.6145  0.6529
  668MOL0     H90174   6.704   1.052   7.160  0.4378  0.7479  0.4653
  668MOL0     H90175   6.555   1.143   7.182  0.3943 -2.8350 -1.1263
  668MOL0     H90176   6.666   1.267   6.797  0.8765  2.2587  0.9713
  668MOL0     H90177   7.109   1.465   7.516  0.9453 -1.0828  1.4969
  668MOL0     H90178   7.399   1.512   7.677  0.6156  0.8863 -1.2484
  668MOL0     H90179   7.305   1.671   7.671  0.9428  0.5593 -1.2995
  668MOL0     H90180   7.224   1.521   7.693 -0.3438 -0.7316  0.1995
  669MOL0     O90181  10.198   6.264   4.757 -0.0986 -0.4349 -0.4052
  669MOL0     C90182  10.121   6.335   4.693  0.2243 -0.1633  0.4645
  669MOL0     O90183  10.154   6.465   4.647  0.1681  0.1432 -0.4503
  669MOL0     C90184  10.289   6.508   4.624  0.1296  0.5171 -1.0573
  669MOL0     C90185  10.377   6.518   4.729  0.2481 -0.4745  0.5658
  669MOL0     C90186  10.516   6.535   4.699  0.3332 -0.0370 -0.2999
  669MOL0     C90187  10.567   6.536   4.567 -0.4381 -0.0365  0.4028
  669MOL0     O90188  10.706   6.543   4.552 -0.6814 -0.0355 -0.3591
  669MOL0     C90189  10.771   6.543   4.426  0.9181  0.8273 -0.3726
  669MOL0     C90190  10.928   6.556   4.428  0.2363 -0.3817  0.3645
  669MOL0     C90191  10.961   6.675   4.512  0.0057 -0.8054 -0.9581
  669MOL0     C90192  11.110   6.710   4.477  0.7590 -0.3849  0.1813
  669MOL0     C90193  11.156   6.834   4.542  0.1997  0.3164  0.0470
  669MOL0     C90194  11.312   6.858   4.527  0.0937 -0.0443  0.6393
  669MOL0     C90195  11.412   6.757   4.595  0.0679 -0.0774 -0.0893
  669MOL0     C90196  11.566   6.782   4.565 -1.0540  0.1914 -0.8214
  669MOL0     N90197  11.629   6.891   4.631 -0.0788 -0.1044  0.2258
  669MOL0     C90198  11.668   6.891   4.763 -0.1232  0.0780  0.1528
  669MOL0     C90199  11.732   7.013   4.774 -0.9373 -1.1993  0.0595
  669MOL0     C90200  11.808   7.055   4.895 -0.3811 -0.6079 -0.8131
  669MOL0     C90201  11.957   7.030   4.892 -0.5349  0.4054  0.5320
  669MOL0     C90202  12.030   7.098   4.777 -0.7503  0.0118 -0.1961
  669MOL0     C90203  12.177   7.125   4.808  0.8937 -0.2209 -0.0199
  669MOL0     O90204  12.258   7.103   4.687 -0.0346  1.1105  0.1011
  669MOL0     C90205  12.390   7.145   4.689 -0.0990  0.5821 -0.9620
  669MOL0     C90206  12.440   7.244   4.772  0.1841  0.1082 -0.6168
  669MOL0     C90207  12.579   7.277   4.780 -0.1556 -0.1174  1.8015
  669MOL0     C90208  12.673   7.206   4.700  0.5844 -0.1599 -1.0738
  669MOL0     C90209  12.821   7.230   4.699  0.8378 -0.8193  0.2617
  669MOL0     O90210  12.865   7.317   4.795 -0.5366  0.6654  0.1580
  669MOL0     C90211  13.002   7.326   4.808 -0.6211 -0.0003  0.0622
  669MOL0     C90212  13.080   7.237   4.890  0.0518 -0.3319  0.0003
  669MOL0     C90213  13.214   7.262   4.912  0.3050  0.1298  0.0240
  669MOL0     C90214  13.279   7.374   4.858 -0.7854 -1.4286  0.9009
  669MOL0     O90215  13.409   7.398   4.892 -0.5160 -0.3113  0.0890
  669MOL0     C90216  13.469   7.511   4.835  0.4537  0.0585  0.1569
  669MOL0     C90217  13.619   7.497   4.840 -0.2284 -0.9487 -0.2925
  669MOL0     C90218  13.678   7.469   4.701  0.1271  0.1834  0.0449
  669MOL0     C90219  13.834   7.445   4.703  0.3657 -0.3848  0.4144
  669MOL0     C90220  13.882   7.355   4.587  0.7848 -0.3870  0.4345
  669MOL0     C90221  13.819   7.411   4.450  0.4860  0.0590  0.2658
  669MOL0     C90222  13.879   7.330   4.334 -0.2168 -0.7184 -0.5919
  669MOL0     C90223  13.847   7.187   4.352  0.5195 -0.2912  1.0238
  669MOL0    Cl90224  13.928   7.096   4.221 -0.5237 -0.4106  0.6766
  669MOL0     C90225  13.207   7.461   4.767 -1.6561 -0.0691 -0.5251
  669MOL0     C90226  13.069   7.433   4.748 -0.1004 -0.0153 -0.0670
  669MOL0     O90227  12.892   7.166   4.627 -0.4849  0.1227 -0.7785
  669MOL0     C90228  12.622   7.101   4.616  0.0924 -0.3698 -0.3084
  669MOL0     C90229  12.484   7.072   4.614 -1.0023  0.6486 -0.1895
  669MOL0     N90230  11.711   7.077   4.651 -0.2818 -0.4067  0.1899
  669MOL0     N90231  11.648   7.010   4.563 -0.2599  0.1257 -0.1801
  669MOL0     C90232  10.470   6.518   4.463  0.0661 -0.2005  0.1822
  669MOL0     C90233  10.334   6.504   4.490  0.5929 -0.3946  0.4332
  669MOL0     C90234   9.983   6.286   4.689 -0.6067  0.0628  0.7118
  669MOL0     C90235   9.968   6.152   4.645 -0.2223  0.2993  0.0377
  669MOL0     C90236   9.848   6.097   4.624  0.1625  0.8493  0.0908
  669MOL0     C90237   9.733   6.175   4.629  0.0859 -0.5309  0.4292
  669MOL0     O90238   9.618   6.109   4.594 -0.8005 -0.0467  0.2197
  669MOL0     C90239   9.498   6.187   4.581 -0.6364 -1.4256 -0.0992
  669MOL0     C90240   9.396   6.082   4.532  0.1020 -1.2438 -0.1063
  669MOL0     C90241   9.263   6.159   4.530 -0.5395 -0.3071  0.4296
  669MOL0     C90242   9.127   6.077   4.510 -0.6674  0.1428 -0.0271
  669MOL0     C90243   9.011   6.158   4.553 -0.3120 -0.3063  0.2101
  669MOL0     C90244   8.906   6.204   4.599 -0.1650  0.4493 -0.5501
  669MOL0     C90245   9.744   6.305   4.679  0.0573 -0.4090 -0.5503
  669MOL0     C90246   9.869   6.357   4.705 -0.3878 -0.9457 -1.6901
  669MOL0     C90247   9.877   6.507   4.740  0.4912 -0.0540 -0.8825
  669MOL0     H90248  10.349   6.508   4.833  0.1609 -1.0479  0.4948
  669MOL0     H90249  10.582   6.531   4.785  1.5509 -1.1407 -1.2533
  669MOL0     H90250  10.742   6.449   4.379 -0.0539 -0.7612  3.0534
  669MOL0     H90251  10.727   6.629   4.375 -2.3179  0.2053  1.1036
  669MOL0     H90252  10.952   6.577   4.323  3.1087 -1.8956  0.6278
  669MOL0     H90253  10.976   6.463   4.460  1.8950  0.5672  0.7560
  669MOL0     H90254  10.958   6.652   4.619 -0.5133 -0.9821 -1.0102
  669MOL0     H90255  10.908   6.765   4.483  1.4730 -0.5030 -2.8894
  669MOL0     H90256  11.156   6.623   4.526 -0.5903 -0.7337  0.8751
  669MOL0     H90257  11.132   6.696   4.371  0.7791 -0.9302  0.2548
  669MOL0     H90258  11.107   6.922   4.500  0.1100 -0.5353 -1.7119
  669MOL0     H90259  11.142   6.827   4.650  1.3438 -1.5863  0.1239
  669MOL0     H90260  11.341   6.869   4.422  1.6327 -1.1412  0.9117
  669MOL0     H90261  11.341   6.952   4.575  2.0198  0.4141 -1.2765
  669MOL0     H90262  11.389   6.652   4.574  1.0919 -0.8166  2.1998
  669MOL0     H90263  11.393   6.766   4.702  0.3834 -1.3371  0.0923
  669MOL0     H90264  11.618   6.692   4.598  0.3073  1.9251  2.2236
  669MOL0     H90265  11.582   6.803   4.459  0.5328  0.3337 -0.5850
  669MOL0     H90266  11.660   6.812   4.837  0.2713 -2.0395 -1.9450
  669MOL0     H90267  11.789   7.163   4.896 -0.5287 -0.6402  0.0008
  669MOL0     H90268  11.766   7.017   4.988 -2.8776  0.0532 -1.5827
  669MOL0     H90269  11.994   7.089   4.977 -2.5877  2.2252  0.2334
  669MOL0     H90270  11.980   6.923   4.905 -2.0177  0.0175  0.1232
  669MOL0     H90271  11.983   7.195   4.758 -2.6922 -0.8747 -0.2595
  669MOL0     H90272  12.021   7.032   4.690 -2.4051 -0.0788  0.0135
  669MOL0     H90273  12.215   7.053   4.881  2.7373  1.2853  0.6201
  669MOL0     H90274  12.195   7.223   4.854 -1.9803 -0.0881  1.0034
  669MOL0     H90275  12.377   7.295   4.843 -0.1524  0.3615 -1.0912
  669MOL0     H90276  12.628   7.349   4.845  0.7069  0.0577  0.9824
  669MOL0     H90277  13.047   7.141   4.928 -2.2968  0.2640 -0.3565
  669MOL0     H90278  13.280   7.198   4.970  1.9764  0.6185 -1.2615
  669MOL0     H90279  13.445   7.524   4.729 -0.9387 -0.6948  0.3520
  669MOL0     H90280  13.438   7.589   4.904 -1.7739  0.0679 -0.7773
  669MOL0     H90281  13.661   7.593   4.872  2.7707 -2.4641  0.6583
  669MOL0     H90282  13.646   7.432   4.923 -1.8237  1.3908  2.2677
  669MOL0     H90283  13.618   7.385   4.664  0.9242 -0.2242 -0.3660
  669MOL0     H90284  13.655   7.561   4.646  0.3844 -0.3187 -0.9308
  669MOL0     H90285  13.873   7.400   4.794  1.2345 -2.3703 -0.8737
  669MOL0     H90286  13.893   7.537   4.696  2.8154 -1.9120 -0.3404
  669MOL0     H90287  13.843   7.255   4.609 -0.5911 -0.1100 -0.6133
  669MOL0     H90288  13.991   7.349   4.586  0.7762 -1.0913  1.7352
  669MOL0     H90289  13.712   7.390   4.455  0.5701 -0.2111  1.1483
  669MOL0     H90290  13.835   7.518   4.438 -3.0617  0.5727 -0.9895
  669MOL0     H90291  13.987   7.348   4.333  0.0638 -1.6832 -4.1689
  669MOL0     H90292  13.849   7.381   4.241 -0.9668 -0.7855 -0.3920
  669MOL0     H90293  13.879   7.140   4.446 -2.3207 -1.8702  1.3185
  669MOL0     H90294  13.740   7.173   4.334  0.2813 -0.3084  2.3139
  669MOL0     H90295  13.243   7.544   4.707 -0.2963 -1.0786 -1.1624
  669MOL0     H90296  13.005   7.491   4.682  1.3666  0.2143 -1.3414
  669MOL0     H90297  12.688   7.030   4.566 -0.6081 -2.6957  1.8784
  669MOL0     H90298  12.451   6.982   4.563  2.1815  0.2792 -1.9015
  669MOL0     H90299  10.507   6.489   4.365  2.3599 -0.7209  1.1497
  669MOL0     H90300  10.257   6.479   4.418 -0.2001  1.6781  0.4836
  669MOL0     H90301  10.050   6.081   4.634 -0.4011 -0.4138  2.6160
  669MOL0     H90302   9.830   6.001   4.577  2.9523  0.7097 -0.8859
  669MOL0     H90303   9.503   6.261   4.501 -1.5256 -0.5574  0.6103
  669MOL0     H90304   9.468   6.233   4.676  0.5715 -1.4450  0.3182
  669MOL0     H90305   9.378   5.995   4.596 -0.5246 -1.6700 -0.8424
  669MOL0     H90306   9.415   6.050   4.429  0.2353  0.3916 -0.6173
  669MOL0     H90307   9.281   6.240   4.458 -0.2357 -2.1025 -1.6102
  669MOL0     H90308   9.249   6.210   4.626 -2.3625  0.6367 -0.2923
  669MOL0     H90309   9.109   6.045   4.407  1.7799 -5.1209  0.8420
  669MOL0     H90310   9.130   5.979   4.560 -1.1975 -1.1512 -2.3773
  669MOL0     H90311   8.820   6.244   4.648 -1.4702 -0.4314 -2.0347
  669MOL0     H90312   9.653   6.364   4.678 -0.0472 -0.1978  3.6472
  669MOL0     H90313   9.796   6.537   4.807  0.5064  3.1615 -2.1056
  669MOL0     H90314   9.964   6.556   4.785 -1.7964  2.3498  1.3056
  669MOL0     H90315   9.841   6.564   4.653 -2.2599  0.8171  0.6940
  670MOL0     O90316   2.640   7.408   6.102  0.4343  0.9745 -0.3264
  670MOL0     C90317   2.581   7.370   6.003 -0.9479 -0.0039  0.3465
  670MOL0     O90318   2.618   7.409   5.880 -0.0873 -0.1724  0.2014
  670MOL0     C90319   2.713   7.510   5.862 -0.0984 -0.3788  0.8457
  670MOL0     C90320   2.671   7.637   5.894 -0.8396  0.2220 -0.1223
  670MOL0     C90321   2.763   7.745   5.889  0.7065 -1.0737 -1.2122
  670MOL0     C90322   2.891   7.727   5.852 -0.4705  0.4953 -0.7841
  670MOL0     O90323   2.976   7.829   5.868 -0.7328 -0.6071  0.6241
  670MOL0     C90324   3.122   7.820   5.831  0.3466  0.8300 -0.5698
  670MOL0     C90325   3.137   7.850   5.693  0.4758  0.7782 -0.2824
  670MOL0     C90326   3.286   7.868   5.646  0.2438 -0.8901  0.7046
  670MOL0     C90327   3.315   7.745   5.565 -0.0206  0.7276  0.2720
  670MOL0     C90328   3.460   7.734   5.515 -0.0760  0.5496  1.3142
  670MOL0     C90329   3.571   7.716   5.619 -0.4685  0.9295 -0.3441
  670MOL0     C90330   3.703   7.720   5.550  0.1988  0.1731  0.2954
  670MOL0     C90331   3.743   7.854   5.478  0.7430 -0.5527  0.9629
  670MOL0     N90332   3.862   7.828   5.393  0.2112  0.2971  0.7885
  670MOL0     C90333   3.992   7.829   5.436 -0.9592  0.1607 -0.1511
  670MOL0     C90334   4.068   7.781   5.332 -0.6065 -0.8058  0.2716
  670MOL0     C90335   4.212   7.735   5.347  0.4611 -0.4599 -0.4426
  670MOL0     C90336   4.306   7.847   5.368  0.3926  1.2106  0.0120
  670MOL0     C90337   4.445   7.779   5.367 -0.2673  0.6490 -0.2416
  670MOL0     C90338   4.537   7.824   5.483  0.1994  0.7310 -0.6420
  670MOL0     O90339   4.665   7.783   5.463  0.4320 -0.2134  0.2992
  670MOL0     C90340   4.757   7.871   5.511  0.6146  0.0235  0.0755
  670MOL0     C90341   4.823   7.858   5.627 -0.5183  0.5540 -0.4065
  670MOL0     C90342   4.932   7.936   5.655  0.1245 -0.2062  0.8615
  670MOL0     C90343   4.978   8.040   5.571 -0.0695 -1.1041  0.2233
  670MOL0     C90344   5.092   8.127   5.596 -0.0590 -0.9142  0.1833
  670MOL0     O90345   5.096   8.242   5.513 -0.0465  0.4069 -0.1305
  670MOL0     C90346   5.179   8.343   5.554 -0.7638  0.6896 -0.1660
  670MOL0     C90347   5.314   8.340   5.513  0.2974 -0.6755  0.0207
  670MOL0     C90348   5.398   8.438   5.578  0.5518  0.0187  0.5103
  670MOL0     C90349   5.351   8.532   5.671  0.5966 -0.2840  0.1454
  670MOL0     O90350   5.447   8.606   5.740 -0.5254  0.6328  0.5101
  670MOL0     C90351   5.396   8.707   5.818  0.0521 -0.3830  0.2211
  670MOL0     C90352   5.521   8.770   5.890 -0.3797  0.4308 -0.2009
  670MOL0     C90353   5.560   8.671   6.002 -0.2243  0.1139  1.0248
  670MOL0     C90354   5.682   8.724   6.079  0.7181  0.3637  0.5917
  670MOL0     C90355   5.820   8.696   6.001  0.0171 -0.2065 -0.1768
  670MOL0     C90356   5.939   8.706   6.104  0.5350 -0.4149  0.1632
  670MOL0     C90357   6.057   8.640   6.036 -0.2270 -0.7453  0.8129
  670MOL0     C90358   6.185   8.668   6.108  0.4495 -0.2471  0.5466
  670MOL0    Cl90359   6.175   8.606   6.272  0.3864 -0.8206  0.3946
  670MOL0     C90360   5.205   8.536   5.696 -1.2937  0.5925  0.4833
  670MOL0     C90361   5.124   8.436   5.639 -0.1431  0.2061 -0.5184
  670MOL0     O90362   5.175   8.097   5.678  0.7376  0.8431  0.2135
  670MOL0     C90363   4.904   8.061   5.455 -0.8265  0.4743 -0.2960
  670MOL0     C90364   4.806   7.967   5.424 -0.0468  0.3532 -0.5113
  670MOL0     N90365   3.981   7.753   5.235  0.5149  0.2420 -0.6968
  670MOL0     N90366   3.860   7.771   5.270 -0.5334 -0.6550  0.6080
  670MOL0     C90367   2.933   7.593   5.812  0.3655  0.1103 -0.3211
  670MOL0     C90368   2.839   7.483   5.825 -0.2255 -0.3364 -0.7155
  670MOL0     C90369   2.485   7.261   6.023 -0.2896 -0.3614  0.0638
  670MOL0     C90370   2.471   7.167   5.923 -0.9100  0.7081 -0.2602
  670MOL0     C90371   2.393   7.057   5.932  0.4126  0.4760 -0.5894
  670MOL0     C90372   2.306   7.037   6.045  0.1672  0.4197 -0.0790
  670MOL0     O90373   2.224   6.931   6.057  0.5263 -0.4364 -0.3895
  670MOL0     C90374   2.228   6.839   5.949 -0.0750 -1.1080  0.1734
  670MOL0     C90375   2.115   6.731   5.956 -0.1856 -0.0077  0.2126
  670MOL0     C90376   1.969   6.788   5.954  0.0627 -0.2329  0.2530
  670MOL0     C90377   1.872   6.670   5.940 -0.0266  0.9484 -0.7751
  670MOL0     C90378   1.742   6.726   5.901 -1.2801  0.2677 -0.2875
  670MOL0     C90379   1.633   6.771   5.868 -0.6970  0.6377  0.3730
  670MOL0     C90380   2.322   7.135   6.149  0.2234  0.6654  0.1818
  670MOL0     C90381   2.402   7.247   6.135 -0.5577 -0.3951  0.6237
  670MOL0     C90382   2.405   7.356   6.247 -0.0916  1.1584  0.2027
  670MOL0     H90383   2.586   7.660   5.957 -0.8336 -2.1578  0.8591
  670MOL0     H90384   2.734   7.842   5.929 -0.1825 -0.8783 -2.2691
  670MOL0     H90385   3.187   7.890   5.883  1.4222  0.3642 -1.2625
  670MOL0     H90386   3.165   7.720   5.842 -1.1632  0.2696  0.7179
  670MOL0     H90387   3.080   7.944   5.688  0.4203  0.8294  1.0604
  670MOL0     H90388   3.080   7.776   5.635  0.9905 -0.2723  0.5209
  670MOL0     H90389   3.353   7.881   5.731  0.3415 -0.4595  0.5650
  670MOL0     H90390   3.291   7.955   5.580 -0.1810  0.9936  3.0181
  670MOL0     H90391   3.299   7.658   5.630  0.7190 -0.4850 -1.1126
  670MOL0     H90392   3.243   7.744   5.482  1.3125  0.2553 -0.9160
  670MOL0     H90393   3.459   7.644   5.453 -2.5415  0.4018  1.4732
  670MOL0     H90394   3.468   7.827   5.458 -0.8464  0.1316  0.5230
  670MOL0     H90395   3.570   7.807   5.679 -0.7607  0.7368 -0.0507
  670MOL0     H90396   3.559   7.629   5.685  1.0721  0.9814  0.0402
  670MOL0     H90397   3.689   7.651   5.466  0.6566  0.2475  0.1590
  670MOL0     H90398   3.784   7.685   5.614  1.0679 -2.0915 -1.8717
  670MOL0     H90399   3.668   7.877   5.402  1.4480 -1.3396 -0.0001
  670MOL0     H90400   3.755   7.941   5.544 -0.8818  1.0708 -0.7784
  670MOL0     H90401   4.026   7.875   5.528 -1.0190  0.0132 -0.0568
  670MOL0     H90402   4.229   7.670   5.433  1.4841 -1.6461 -1.5063
  670MOL0     H90403   4.230   7.677   5.257  0.0091  0.5802 -1.2211
  670MOL0     H90404   4.300   7.910   5.279  0.7552 -0.2364 -1.0590
  670MOL0     H90405   4.284   7.908   5.456  1.7171  1.7381  0.0034
  670MOL0     H90406   4.498   7.799   5.273  3.6436 -1.0974  1.3772
  670MOL0     H90407   4.431   7.671   5.368 -0.4601  0.4614 -4.5676
  670MOL0     H90408   4.503   7.772   5.572 -1.4967 -0.0910 -1.7214
  670MOL0     H90409   4.519   7.932   5.492 -2.3496  0.2446  0.6834
  670MOL0     H90410   4.801   7.779   5.698  0.3446  0.0378 -0.7078
  670MOL0     H90411   4.982   7.917   5.750 -0.8418  0.8322  1.6030
  670MOL0     H90412   5.358   8.266   5.447 -0.3321  1.0830 -2.5269
  670MOL0     H90413   5.507   8.440   5.575  0.5607  1.9308  1.0398
  670MOL0     H90414   5.341   8.778   5.755 -0.2462  0.4616  1.3951
  670MOL0     H90415   5.333   8.668   5.899 -1.4710  0.1238 -0.6726
  670MOL0     H90416   5.597   8.787   5.814  0.3394  2.9326  0.9712
  670MOL0     H90417   5.503   8.862   5.946  2.5194 -1.6477  4.8275
  670MOL0     H90418   5.479   8.653   6.073  1.4982 -2.6203  2.4599
  670MOL0     H90419   5.584   8.576   5.952  0.4003 -0.6231  2.6651
  670MOL0     H90420   5.682   8.676   6.177 -0.6595  1.9395  1.4263
  670MOL0     H90421   5.676   8.831   6.103  0.8676  0.1788  1.4806
  670MOL0     H90422   5.835   8.771   5.923 -0.2018  2.5798  2.2761
  670MOL0     H90423   5.820   8.596   5.958  3.6289 -0.3278 -0.1967
  670MOL0     H90424   5.951   8.810   6.134  3.0103  0.6210 -3.6545
  670MOL0     H90425   5.921   8.650   6.196 -2.0461  0.2241  0.1181
  670MOL0     H90426   6.064   8.670   5.931 -0.4542  1.1386  1.3045
  670MOL0     H90427   6.060   8.531   6.029  1.0492 -0.6371 -2.6903
  670MOL0     H90428   6.261   8.604   6.063  0.0467 -2.3274  2.6586
  670MOL0     H90429   6.217   8.772   6.092  1.7483 -1.0942 -3.4990
  670MOL0     H90430   5.157   8.606   5.764  0.2842  0.4558  1.7910
  670MOL0     H90431   5.023   8.425   5.678  0.5338 -3.0755  0.6166
  670MOL0     H90432   4.937   8.133   5.382  0.7443  1.3853  1.2522
  670MOL0     H90433   4.768   7.992   5.326  0.5026  2.8370 -0.1379
  670MOL0     H90434   3.038   7.568   5.798  0.1879 -0.6685 -0.3037
  670MOL0     H90435   2.866   7.379   5.809 -1.6008 -0.8929  0.3912
  670MOL0     H90436   2.526   7.164   5.830 -0.9639 -0.5442 -0.2684
  670MOL0     H90437   2.401   6.989   5.848 -1.1220 -1.5015  0.7500
  670MOL0     H90438   2.323   6.787   5.962 -1.0678 -3.2162 -0.5719
  670MOL0     H90439   2.222   6.887   5.851  0.6531 -1.2838  0.0385
  670MOL0     H90440   2.125   6.693   6.058 -0.8148  0.7866  0.5807
  670MOL0     H90441   2.137   6.648   5.888  0.3333  2.0682 -2.2725
  670MOL0     H90442   1.959   6.855   5.868  1.7301 -0.0073  0.1936
  670MOL0     H90443   1.951   6.837   6.050 -1.4032 -5.9115  3.3139
  670MOL0     H90444   1.911   6.597   5.868  0.9713 -0.5839  1.2127
  670MOL0     H90445   1.858   6.626   6.039  0.9122 -1.1283 -1.4848
  670MOL0     H90446   1.547   6.818   5.825 -0.5257  1.6057  1.0559
  670MOL0     H90447   2.258   7.126   6.235 -0.1345 -1.0383 -0.2288
  670MOL0     H90448   2.389   7.454   6.202  1.9436  0.6464 -1.8304
  670MOL0     H90449   2.324   7.348   6.320  2.9846 -0.6593  3.7758
  670MOL0     H90450   2.497   7.352   6.307 -0.5118  0.3518  0.8341
  671MOL0     O90451   0.891   3.894   3.813  0.3217 -0.3097 -0.3456
  671MOL0     C90452   0.835   3.807   3.870  0.2926  0.4229  0.2731
  671MOL0     O90453   0.891   3.737   3.981  0.0296  0.4226 -0.1832
  671MOL0     C90454   1.021   3.775   4.013  0.0221  0.3012 -0.2207
  671MOL0     C90455   1.136   3.701   3.967 -0.1947  0.3665 -0.7973
  671MOL0     C90456   1.265   3.737   3.988 -0.2940 -0.1226 -0.3712
  671MOL0     C90457   1.287   3.858   4.057  0.8058 -0.6883 -0.1251
  671MOL0     O90458   1.416   3.909   4.087  0.2448  0.2397  0.0084
  671MOL0     C90459   1.524   3.818   4.081  0.1212  0.3452  0.9232
  671MOL0     C90460   1.568   3.821   3.936  0.1482 -0.1196 -0.2509
  671MOL0     C90461   1.694   3.907   3.918  0.5908  0.9331 -0.0156
  671MOL0     C90462   1.748   3.876   3.769  0.0444 -0.5700 -0.6516
  671MOL0     C90463   1.860   3.987   3.731  0.7576  0.7914  0.2168
  671MOL0     C90464   1.934   3.949   3.599  0.1398 -0.9667  0.1918
  671MOL0     C90465   2.019   4.065   3.543  0.3408  0.3589  0.8222
  671MOL0     C90466   2.143   4.092   3.628  0.6557  0.2276 -1.0309
  671MOL0     N90467   2.214   4.220   3.591 -1.0926 -0.0288 -0.1642
  671MOL0     C90468   2.197   4.286   3.472 -0.5492  0.4990 -0.2316
  671MOL0     C90469   2.290   4.393   3.485 -0.4138  0.1750  0.2508
  671MOL0     C90470   2.287   4.498   3.375 -0.5713 -0.5284  0.1750
  671MOL0     C90471   2.427   4.534   3.325 -0.4471  0.8357  0.8700
  671MOL0     C90472   2.413   4.637   3.217 -0.0599  0.0954  0.1576
  671MOL0     C90473   2.525   4.734   3.211  0.1589  0.3822  0.5022
  671MOL0     O90474   2.521   4.798   3.079  0.1691 -0.0568 -0.0207
  671MOL0     C90475   2.604   4.896   3.038  0.2780  1.1479 -1.0589
  671MOL0     C90476   2.690   4.948   3.125 -1.0535 -0.5897  0.2463
  671MOL0     C90477   2.777   5.048   3.079  0.4441 -1.1111 -0.0825
  671MOL0     C90478   2.766   5.095   2.946  0.1720 -0.4821 -0.2398
  671MOL0     C90479   2.866   5.189   2.888 -0.1531 -0.6127 -0.3250
  671MOL0     O90480   2.980   5.221   2.956 -0.2481 -0.4060 -0.4048
  671MOL0     C90481   3.052   5.337   2.922  0.0779  0.1303  0.1281
  671MOL0     C90482   3.041   5.446   3.015  0.4597 -1.1557  0.5203
  671MOL0     C90483   3.106   5.567   2.982  0.1512  0.1906 -0.9379
  671MOL0     C90484   3.184   5.576   2.861 -0.2027 -0.4638  0.1967
  671MOL0     O90485   3.266   5.688   2.826 -0.5954  0.3730  0.5338
  671MOL0     C90486   3.190   5.814   2.839  0.2028  0.8114  0.2003
  671MOL0     C90487   3.256   5.916   2.755  0.4576  0.0797  0.3634
  671MOL0     C90488   3.370   5.979   2.828 -0.0399 -0.2863 -0.6458
  671MOL0     C90489   3.460   6.053   2.732  0.0454 -0.4642  0.2133
  671MOL0     C90490   3.550   5.957   2.653 -0.1962 -0.0995 -0.6536
  671MOL0     C90491   3.613   6.021   2.528 -0.7353  0.3074  0.0953
  671MOL0     C90492   3.718   6.125   2.564  0.4528 -1.1724  0.1940
  671MOL0     C90493   3.781   6.191   2.443 -0.3347  0.3237 -0.2679
  671MOL0    Cl90494   3.955   6.234   2.486  0.1268 -0.1959  0.2995
  671MOL0     C90495   3.190   5.463   2.780 -0.0992 -0.1075 -0.6581
  671MOL0     C90496   3.122   5.350   2.806 -1.2717  0.4734  0.3595
  671MOL0     O90497   2.842   5.231   2.780  0.0734  0.4785  0.0933
  671MOL0     C90498   2.671   5.042   2.857  0.0091  0.4261  0.0067
  671MOL0     C90499   2.594   4.935   2.904  0.3319  0.5679  0.5963
  671MOL0     N90500   2.355   4.376   3.607  0.3681 -0.0133 -0.2810
  671MOL0     N90501   2.307   4.283   3.682 -0.2748  0.9207 -0.1176
  671MOL0     C90502   1.171   3.942   4.096 -0.5662 -0.1963  0.3954
  671MOL0     C90503   1.044   3.896   4.074  0.1358 -0.2005  0.3728
  671MOL0     C90504   0.691   3.792   3.833  0.1407  0.5671 -1.3476
  671MOL0     C90505   0.608   3.737   3.937  0.5116  0.0166  0.1174
  671MOL0     C90506   0.480   3.705   3.904  0.0467 -0.1802 -0.5857
  671MOL0     C90507   0.420   3.738   3.786  0.5787  1.4425  0.3768
  671MOL0     O90508   0.287   3.699   3.751 -0.3176 -0.9786  0.0997
  671MOL0     C90509   0.203   3.629   3.850  0.0064 -0.3919  0.1785
  671MOL0     C90510   0.157   3.727   3.966  0.9998  0.1480  1.2222
  671MOL0     C90511   0.072   3.840   3.917  0.0141 -0.1287  0.1374
  671MOL0     C90512   0.095   3.957   4.020  0.0818  0.0408 -1.0843
  671MOL0     C90513   0.220   4.031   3.995  0.6361 -0.2764  0.3477
  671MOL0     C90514   0.324   4.082   3.964 -0.6709 -1.0741 -0.7003
  671MOL0     C90515   0.492   3.796   3.689 -0.4608 -0.1202 -0.2037
  671MOL0     C90516   0.633   3.813   3.707  0.5831 -0.6251 -0.8529
  671MOL0     C90517   0.718   3.846   3.579  0.2729  0.3049  0.3547
  671MOL0     H90518   1.113   3.613   3.908 -2.2846  0.5362 -0.3067
  671MOL0     H90519   1.336   3.669   3.944  0.3975  1.7576 -2.3374
  671MOL0     H90520   1.604   3.867   4.137  2.9493 -2.5234 -0.3117
  671MOL0     H90521   1.497   3.716   4.109 -1.3983 -0.3472 -2.5748
  671MOL0     H90522   1.493   3.855   3.864  0.6579  0.2614 -0.6039
  671MOL0     H90523   1.596   3.719   3.909  2.9997  0.1945  1.1111
  671MOL0     H90524   1.770   3.868   3.987 -0.8944 -1.6080  0.3092
  671MOL0     H90525   1.685   4.015   3.937  0.7293  0.6448  1.9145
  671MOL0     H90526   1.796   3.778   3.773 -0.9661 -1.0965 -1.0175
  671MOL0     H90527   1.673   3.874   3.689  0.3986  0.4667 -1.0219
  671MOL0     H90528   1.820   4.089   3.733  0.5773  0.7860 -1.3038
  671MOL0     H90529   1.936   3.988   3.810  1.0263  2.4483 -0.0102
  671MOL0     H90530   1.992   3.858   3.614  1.4044 -0.1753  0.3062
  671MOL0     H90531   1.857   3.917   3.529 -1.3819  0.6317  1.0422
  671MOL0     H90532   1.952   4.150   3.560 -0.2282 -0.1485  1.1357
  671MOL0     H90533   2.040   4.057   3.436  1.1248  3.5301  0.6370
  671MOL0     H90534   2.121   4.097   3.735  5.3788  2.5964  0.1113
  671MOL0     H90535   2.209   4.005   3.618  0.5556  0.3557 -3.1899
  671MOL0     H90536   2.119   4.274   3.398 -0.2894  3.7310 -1.1731
  671MOL0     H90537   2.226   4.462   3.292 -1.2423 -0.2268  0.5324
  671MOL0     H90538   2.246   4.586   3.425 -3.4238  0.3265 -3.3050
  671MOL0     H90539   2.495   4.570   3.402  2.4876  1.7093 -1.8992
  671MOL0     H90540   2.482   4.453   3.277  1.4460  2.7129 -0.3215
  671MOL0     H90541   2.317   4.687   3.227 -0.8670 -1.7645  3.0471
  671MOL0     H90542   2.413   4.588   3.119 -2.6944 -1.7952  0.9862
  671MOL0     H90543   2.622   4.688   3.233  1.3287  2.3529 -0.2180
  671MOL0     H90544   2.519   4.804   3.295 -0.6470  0.4985  0.3553
  671MOL0     H90545   2.700   4.915   3.228 -2.4373 -1.5989  0.0850
  671MOL0     H90546   2.849   5.093   3.147 -0.1182  0.7011 -0.6161
  671MOL0     H90547   2.990   5.416   3.105  0.2975 -1.3148  0.3750
  671MOL0     H90548   3.114   5.654   3.046  0.4581 -0.0401 -0.6598
  671MOL0     H90549   3.091   5.791   2.800 -1.0959 -2.5417  4.5414
  671MOL0     H90550   3.194   5.850   2.942 -0.1853 -0.3205  0.6353
  671MOL0     H90551   3.278   5.872   2.657  0.2810  1.4011 -0.2845
  671MOL0     H90552   3.174   5.985   2.733  0.5687 -0.0309 -0.4464
  671MOL0     H90553   3.330   6.041   2.908  1.4598 -1.6984  1.2939
  671MOL0     H90554   3.421   5.899   2.882 -0.7719  0.8292  1.8030
  671MOL0     H90555   3.531   6.117   2.784  1.5494 -1.0071 -1.0829
  671MOL0     H90556   3.399   6.120   2.670  0.4499  1.9181  2.2775
  671MOL0     H90557   3.496   5.867   2.623  0.0775 -0.2398 -0.7287
  671MOL0     H90558   3.630   5.921   2.718 -1.9240 -0.2578  1.4989
  671MOL0     H90559   3.668   5.936   2.486 -0.3682 -1.7232  4.2298
  671MOL0     H90560   3.535   6.076   2.475 -1.1889 -0.1250  0.3160
  671MOL0     H90561   3.794   6.085   2.632  0.2414  0.8300  1.7202
  671MOL0     H90562   3.652   6.193   2.619 -1.6269 -3.8641  1.2677
  671MOL0     H90563   3.777   6.118   2.361  1.0472 -0.3079  0.1914
  671MOL0     H90564   3.725   6.280   2.416 -2.1638 -0.5003  0.6753
  671MOL0     H90565   3.242   5.467   2.685  0.0210  1.0106 -0.5609
  671MOL0     H90566   3.116   5.274   2.729  2.5436 -1.1997  1.4667
  671MOL0     H90567   2.644   5.071   2.756 -1.1879 -3.3766 -0.9487
  671MOL0     H90568   2.522   4.893   2.835  1.2471  1.5220 -0.9881
  671MOL0     H90569   1.187   4.042   4.134 -1.4829  0.5861 -1.1593
  671MOL0     H90570   0.961   3.953   4.114 -1.7810 -2.4170 -0.2555
  671MOL0     H90571   0.645   3.716   4.037 -0.7297 -2.7354  0.0885
  671MOL0     H90572   0.421   3.667   3.986  0.7305 -0.2461 -0.1165
  671MOL0     H90573   0.260   3.547   3.894  1.0968 -0.1772 -0.7936
  671MOL0     H90574   0.111   3.596   3.800 -0.9207 -0.6499  1.9652
  671MOL0     H90575   0.244   3.766   4.020  1.3584  2.4768 -0.8797
  671MOL0     H90576   0.106   3.677   4.049  0.7223 -1.4656  0.1213
  671MOL0     H90577  -0.030   3.799   3.920 -0.2719  0.6320  2.6693
  671MOL0     H90578   0.103   3.872   3.817  0.9199 -0.9349  0.1423
  671MOL0     H90579   0.011   4.028   4.017 -2.4787 -2.7390 -0.4346
  671MOL0     H90580   0.107   3.914   4.119 -1.4102 -1.3496 -1.4643
  671MOL0     H90581   0.399   4.155   3.940 -0.7601 -0.5212  0.5765
  671MOL0     H90582   0.432   3.813   3.600 -2.2399 -0.5444  0.8669
  671MOL0     H90583   0.721   3.951   3.549  0.2901  1.1087  2.9205
  671MOL0     H90584   0.815   3.796   3.574 -0.2826 -0.7702  0.0023
  671MOL0     H90585   0.656   3.803   3.500 -0.3764  3.1845 -0.8247
  672MOL0     O90586   8.911   6.999  10.004  1.0121  0.2233  0.2556
  672MOL0     C90587   8.908   6.880  10.041  0.1722  0.5102 -0.9579
  672MOL0     O90588   8.823   6.830  10.138 -0.1959  0.1735  0.2654
  672MOL0     C90589   8.736   6.923  10.197  0.9229 -0.2132 -0.0505
  672MOL0     C90590   8.768   7.054  10.233 -0.4007 -0.6650 -0.5624
  672MOL0     C90591   8.673   7.135  10.285  0.3287  0.1217  0.4268
  672MOL0     C90592   8.545   7.098  10.313 -0.7781 -0.0906  0.1551
  672MOL0     O90593   8.462   7.190  10.370 -0.5402  0.1626  0.3217
  672MOL0     C90594   8.324   7.177  10.337  0.8813  0.1085 -0.4590
  672MOL0     C90595   8.296   7.210  10.194  0.6813  0.2644  0.6173
  672MOL0     C90596   8.148   7.209  10.166  0.2750  0.3349  0.3429
  672MOL0     C90597   8.127   7.241  10.019 -0.0640  0.1635 -0.4467
  672MOL0     C90598   7.985   7.300   9.983 -0.1129 -0.3711 -0.2908
  672MOL0     C90599   7.976   7.454   9.992 -0.3385 -0.8543  0.6314
  672MOL0     C90600   8.060   7.536   9.882 -0.4745 -0.4680 -0.1765
  672MOL0     C90601   8.002   7.673   9.861  0.0461  0.0095 -0.0961
  672MOL0     N90602   8.082   7.759   9.764  1.2947 -0.0446 -0.8965
  672MOL0     C90603   8.071   7.756   9.626  0.4775 -0.0540 -0.8097
  672MOL0     C90604   8.175   7.839   9.594  0.8383 -0.0128 -0.1423
  672MOL0     C90605   8.205   7.886   9.458 -0.0904 -0.2316  1.6394
  672MOL0     C90606   8.095   7.845   9.355 -0.0459 -0.6644  0.0068
  672MOL0     C90607   8.131   7.920   9.230  0.6827  0.8397  0.0069
  672MOL0     C90608   8.255   7.869   9.156 -0.4342  0.2603  0.1796
  672MOL0     O90609   8.271   7.728   9.178 -0.2136 -0.0268  0.3816
  672MOL0     C90610   8.398   7.682   9.170 -0.4725  0.1220  0.4455
  672MOL0     C90611   8.439   7.571   9.229  0.4347  0.0956 -1.7680
  672MOL0     C90612   8.574   7.527   9.229  0.3239  0.9933  0.6290
  672MOL0     C90613   8.668   7.604   9.164 -0.1699  0.1659  0.5813
  672MOL0     C90614   8.813   7.556   9.146  0.5343 -1.0466  0.0654
  672MOL0     O90615   8.906   7.657   9.140 -1.3755  0.5872  0.5040
  672MOL0     C90616   9.035   7.623   9.146  0.6325 -0.2866 -0.2691
  672MOL0     C90617   9.092   7.628   9.275 -0.6441 -0.7791  0.0348
  672MOL0     C90618   9.236   7.606   9.291  0.8751 -0.3944 -0.7283
  672MOL0     C90619   9.311   7.571   9.181  0.6070 -0.4172 -0.3660
  672MOL0     O90620   9.447   7.551   9.194 -0.0396  0.0375  0.0189
  672MOL0     C90621   9.510   7.492   9.307  0.7079 -0.2294  0.4150
  672MOL0     C90622   9.651   7.449   9.256  0.7273  0.4655  0.8107
  672MOL0     C90623   9.716   7.329   9.340 -0.5433  0.7123 -0.1129
  672MOL0     C90624   9.721   7.339   9.493  0.1300  0.4994 -0.5205
  672MOL0     C90625   9.812   7.232   9.556  1.3688  0.3116 -0.1547
  672MOL0     C90626   9.776   7.226   9.707 -0.1821  0.0640  0.2176
  672MOL0     C90627   9.890   7.197   9.798  0.0113 -0.7610 -0.2922
  672MOL0     C90628   9.952   7.068   9.775 -0.3293  0.0535  0.4753
  672MOL0    Cl90629  10.073   7.056   9.894  0.2735 -0.1174  0.2698
  672MOL0     C90630   9.253   7.582   9.052  0.1732 -0.5231 -0.2168
  672MOL0     C90631   9.113   7.598   9.036  0.3718 -1.2569 -0.5264
  672MOL0     O90632   8.838   7.437   9.150  0.3343 -0.4571  0.1934
  672MOL0     C90633   8.629   7.722   9.109 -0.5956 -0.5005  0.1617
  672MOL0     C90634   8.496   7.752   9.097 -0.0199 -0.3482 -0.0272
  672MOL0     N90635   8.238   7.889   9.706  0.1021  0.2816 -0.5236
  672MOL0     N90636   8.184   7.832   9.807 -0.2607 -0.4067  0.0767
  672MOL0     C90637   8.516   6.969  10.290 -0.4663 -0.0002 -0.4946
  672MOL0     C90638   8.609   6.884  10.229  0.4445  0.1519  0.3015
  672MOL0     C90639   9.013   6.788   9.997 -0.2317 -0.5475 -0.3419
  672MOL0     C90640   9.038   6.669  10.064  0.3450 -1.0471  0.2538
  672MOL0     C90641   9.145   6.583  10.022  1.0015 -0.9511 -0.5156
  672MOL0     C90642   9.200   6.607   9.898 -0.0655  0.8264 -0.0195
  672MOL0     O90643   9.284   6.510   9.848  0.1190  0.6720  0.8767
  672MOL0     C90644   9.207   6.400   9.783  0.1387 -1.0012  0.1329
  672MOL0     C90645   9.295   6.293   9.722  0.5797 -0.5142  0.5944
  672MOL0     C90646   9.202   6.193   9.643  0.5913 -0.0778 -0.1487
  672MOL0     C90647   9.217   6.042   9.677  0.1883  0.8606  0.8531
  672MOL0     C90648   9.169   6.011   9.809  0.5150 -1.2739 -0.5734
  672MOL0     C90649   9.119   5.989   9.921  0.1845  0.2123  0.5069
  672MOL0     C90650   9.185   6.728   9.830  0.1549  0.4576 -1.0042
  672MOL0     C90651   9.087   6.811   9.875  0.7282  0.0627  0.2477
  672MOL0     C90652   9.056   6.931   9.776 -0.5105  0.3248 -0.1921
  672MOL0     H90653   8.861   7.107  10.216  0.0194 -0.7407  1.2336
  672MOL0     H90654   8.703   7.237  10.305 -0.0972  0.6911 -1.5530
  672MOL0     H90655   8.283   7.079  10.361 -1.0386  0.9135 -0.2672
  672MOL0     H90656   8.278   7.240  10.414  2.0167 -1.1573  1.3544
  672MOL0     H90657   8.349   7.142  10.128 -1.4418 -0.4568 -0.4620
  672MOL0     H90658   8.325   7.312  10.166  1.2035 -0.8687 -3.6058
  672MOL0     H90659   8.103   7.295  10.217  0.5466  0.7752 -0.1481
  672MOL0     H90660   8.102   7.113  10.193 -0.6826 -0.0935 -2.4406
  672MOL0     H90661   8.208   7.311   9.995 -0.1147  0.9688  1.5262
  672MOL0     H90662   8.138   7.147   9.966  1.6774 -2.3668  3.8741
  672MOL0     H90663   7.960   7.290   9.877 -0.5408  1.2249 -0.3687
  672MOL0     H90664   7.905   7.241  10.027 -1.5529  1.6438 -0.0464
  672MOL0     H90665   7.871   7.481   9.982  0.0155  0.1973 -0.5234
  672MOL0     H90666   8.012   7.498  10.085 -1.1475 -2.3528  1.6928
  672MOL0     H90667   8.049   7.472   9.794 -2.1575 -0.0243 -0.3248
  672MOL0     H90668   8.166   7.544   9.906  0.1865  0.3734 -3.0109
  672MOL0     H90669   7.895   7.665   9.837  0.2819 -0.5505 -1.0186
  672MOL0     H90670   8.004   7.721   9.959 -0.8801  0.1462 -0.1332
  672MOL0     H90671   7.998   7.714   9.558  2.3916 -0.3251 -2.7762
  672MOL0     H90672   8.203   7.996   9.461  2.5226 -0.1464  2.3077
  672MOL0     H90673   8.306   7.857   9.428 -0.2031  2.0393 -1.4541
  672MOL0     H90674   8.082   7.738   9.336  3.0160 -1.5273  2.0812
  672MOL0     H90675   8.009   7.889   9.408  0.5183 -2.2663  2.4059
  672MOL0     H90676   8.128   8.029   9.240 -1.3540  0.9665 -1.3712
  672MOL0     H90677   8.044   7.889   9.170  0.0672  1.6389  0.4657
  672MOL0     H90678   8.335   7.925   9.206  0.5905  1.0477 -2.1878
  672MOL0     H90679   8.244   7.904   9.053 -1.2765 -0.1208  0.1399
  672MOL0     H90680   8.356   7.511   9.266 -0.5705  0.6611 -3.0403
  672MOL0     H90681   8.612   7.431   9.262 -1.0953 -0.2400 -1.1036
  672MOL0     H90682   9.040   7.656   9.366  0.0593  1.2814 -0.1321
  672MOL0     H90683   9.260   7.605   9.397 -0.4023 -0.3680 -0.4201
  672MOL0     H90684   9.518   7.563   9.390 -1.3750 -1.0511  1.3947
  672MOL0     H90685   9.455   7.404   9.341 -0.2506  0.1643 -0.0759
  672MOL0     H90686   9.638   7.417   9.152  2.1106 -1.3777  1.1609
  672MOL0     H90687   9.719   7.534   9.251  1.2275 -0.0071 -1.0939
  672MOL0     H90688   9.659   7.239   9.318 -1.8605  1.4427  0.1843
  672MOL0     H90689   9.823   7.318   9.323 -0.1071  4.1187 -0.4231
  672MOL0     H90690   9.621   7.345   9.537 -0.6494  1.9731 -2.3840
  672MOL0     H90691   9.772   7.432   9.519  1.0587 -0.2457  0.4592
  672MOL0     H90692   9.919   7.253   9.548  1.4290 -0.2554 -0.9640
  672MOL0     H90693   9.799   7.129   9.520  0.7133 -0.0512  1.0547
  672MOL0     H90694   9.739   7.325   9.732  0.2607  1.0865 -2.7673
  672MOL0     H90695   9.698   7.152   9.727 -0.3761 -0.4580 -2.1202
  672MOL0     H90696   9.850   7.203   9.900 -1.0775 -0.1346 -0.7348
  672MOL0     H90697   9.967   7.274   9.794  0.6259 -1.3237  0.3412
  672MOL0     H90698   9.873   6.995   9.798 -0.1596  0.4469  2.4999
  672MOL0     H90699   9.987   7.058   9.672 -0.4831  0.0554  0.4222
  672MOL0     H90700   9.309   7.573   8.959 -0.7702 -3.3058 -0.6366
  672MOL0     H90701   9.076   7.613   8.935  0.6951 -0.5562 -0.5463
  672MOL0     H90702   8.689   7.775   9.037 -0.2918 -0.5058  0.4063
  672MOL0     H90703   8.472   7.838   9.034  2.5751  1.4755  1.3388
  672MOL0     H90704   8.419   6.931  10.322 -0.4423 -0.9427 -1.4881
  672MOL0     H90705   8.572   6.785  10.205  0.6347  0.1905 -0.1585
  672MOL0     H90706   8.969   6.650  10.146  1.1289  1.1327  1.5217
  672MOL0     H90707   9.167   6.488  10.070  0.3742 -0.0624  1.6464
  672MOL0     H90708   9.147   6.450   9.706 -0.8750 -2.5739 -0.1348
  672MOL0     H90709   9.136   6.356   9.853  1.6424 -2.7368  0.6415
  672MOL0     H90710   9.342   6.243   9.807 -1.8019 -2.9424  0.5932
  672MOL0     H90711   9.375   6.325   9.654  0.4129 -1.3343  0.0054
  672MOL0     H90712   9.229   6.213   9.539 -1.9245 -2.9835 -1.5204
  672MOL0     H90713   9.097   6.221   9.641 -0.0228 -2.2539 -2.7219
  672MOL0     H90714   9.155   5.995   9.600 -0.0676  2.0035  0.3372
  672MOL0     H90715   9.316   5.997   9.675 -1.7563 -4.1082  2.1725
  672MOL0     H90716   9.069   5.958  10.010 -1.3056 -0.7591 -0.6245
  672MOL0     H90717   9.237   6.741   9.736 -0.6383  1.4866 -1.3201
  672MOL0     H90718   9.119   6.923   9.688  1.5106 -0.2784  1.2427
  672MOL0     H90719   8.952   6.924   9.743 -1.0451 -0.1371  1.4684
  672MOL0     H90720   9.092   7.021   9.825 -0.5816 -0.3140  1.0989
  673MOL0     O90721   0.086   9.764   6.068  0.2954 -0.1911  0.2616
  673MOL0     C90722   0.026   9.842   6.139  0.5076 -0.3676 -0.5874
  673MOL0     O90723   0.077   9.961   6.194  0.1113  0.0554 -0.3895
  673MOL0     C90724   0.209   9.979   6.170 -0.2716 -0.3020 -1.3276
  673MOL0     C90725   0.301   9.961   6.271 -0.4327 -0.3614  0.7958
  673MOL0     C90726   0.433   9.999   6.254 -0.2678  0.3590 -0.6577
  673MOL0     C90727   0.474  10.038   6.133  0.0107  0.1168  0.1919
  673MOL0     O90728   0.608  10.077   6.132 -0.0754  0.4545 -0.2732
  673MOL0     C90729   0.669  10.141   6.016 -1.2022 -0.1936  0.3968
  673MOL0     C90730   0.809  10.185   6.051  0.9733  0.5529  0.7777
  673MOL0     C90731   0.915  10.075   6.034 -0.3423 -0.4240 -0.5848
  673MOL0     C90732   1.047  10.117   6.099 -0.4025  0.1033 -0.5189
  673MOL0     C90733   1.153  10.021   6.060 -1.6198 -0.1589 -0.5819
  673MOL0     C90734   1.299  10.071   6.093 -0.1451  0.1631  0.0397
  673MOL0     C90735   1.400   9.952   6.118 -0.4489  0.0184 -0.4043
  673MOL0     C90736   1.534  10.009   6.138  0.1553  0.5388 -0.1279
  673MOL0     N90737   1.638   9.902   6.146  0.5895  0.2622 -0.6375
  673MOL0     C90738   1.666   9.815   6.038 -0.2557  0.0249 -0.1378
  673MOL0     C90739   1.768   9.731   6.092  0.0860  0.3573 -0.5242
  673MOL0     C90740   1.842   9.633   6.008 -0.4261  0.1727 -0.0821
  673MOL0     C90741   1.983   9.661   5.975 -0.1074  0.5611  0.2473
  673MOL0     C90742   2.065   9.529   5.936  0.6196 -0.6822 -0.5660
  673MOL0     C90743   2.200   9.540   5.873 -0.0631  0.9162 -0.3968
  673MOL0     O90744   2.300   9.485   5.951  0.0309 -0.2757  0.0965
  673MOL0     C90745   2.422   9.534   5.961 -0.3385 -1.6000 -0.3293
  673MOL0     C90746   2.449   9.660   6.017  0.2694 -0.3778  0.3634
  673MOL0     C90747   2.584   9.716   6.020  0.6484 -0.7906 -0.0077
  673MOL0     C90748   2.684   9.638   5.979  0.4519 -0.4668  0.7317
  673MOL0     C90749   2.822   9.689   5.980 -0.3923 -0.6419  0.4499
  673MOL0     O90750   2.910   9.635   5.893 -0.9343 -0.4597  0.1046
  673MOL0     C90751   3.020   9.716   5.860 -0.0043 -0.6064  0.9029
  673MOL0     C90752   2.998   9.831   5.784  0.1642 -0.7561 -0.1528
  673MOL0     C90753   3.110   9.905   5.745  0.6566  0.2298 -0.9316
  673MOL0     C90754   3.241   9.871   5.778  0.1602  0.2494 -0.7429
  673MOL0     O90755   3.354   9.926   5.738  0.3369 -0.2983  0.1527
  673MOL0     C90756   3.348  10.037   5.649 -0.3281  0.3771 -0.1967
  673MOL0     C90757   3.381  10.167   5.711  1.1143  0.7258  0.3731
  673MOL0     C90758   3.514  10.178   5.761 -0.8164 -0.4819  0.3894
  673MOL0     C90759   3.551  10.328   5.798 -0.7546 -0.0092  0.3739
  673MOL0     C90760   3.701  10.340   5.844 -0.8210 -0.0648  0.9053
  673MOL0     C90761   3.800  10.338   5.719 -0.5879 -0.4757 -0.3542
  673MOL0     C90762   3.945  10.392   5.769 -0.4830 -0.2655 -0.3459
  673MOL0     C90763   4.054  10.414   5.655  0.1775 -0.4723 -0.2294
  673MOL0    Cl90764   4.004  10.524   5.527  0.0920 -0.1041  0.9008
  673MOL0     C90765   3.260   9.757   5.857 -0.1615  0.3391  0.5777
  673MOL0     C90766   3.153   9.682   5.898  0.3298 -0.0007 -0.1209
  673MOL0     O90767   2.843   9.783   6.053 -0.5372  0.1663  0.4770
  673MOL0     C90768   2.661   9.509   5.936 -0.3397  0.7475  0.1790
  673MOL0     C90769   2.528   9.459   5.925  0.3810 -0.2041  0.3379
  673MOL0     N90770   1.777   9.755   6.226 -0.0071 -0.2069  0.6753
  673MOL0     N90771   1.693   9.851   6.254  0.0737  0.0320 -0.0234
  673MOL0     C90772   0.391  10.048   6.022 -0.5411 -0.4502  0.1946
  673MOL0     C90773   0.255  10.027   6.047 -0.1674 -0.2912  0.2776
  673MOL0     C90774  -0.103   9.806   6.188 -0.1311  0.2465 -0.1188
  673MOL0     C90775  -0.197   9.775   6.086  0.4852  0.0739  0.2256
  673MOL0     C90776  -0.328   9.735   6.123 -0.2676 -0.8474 -0.3125
  673MOL0     C90777  -0.369   9.733   6.255 -1.1250  0.8183  0.0892
  673MOL0     O90778  -0.507   9.704   6.279  0.1657  0.2658  0.2067
  673MOL0     C90779  -0.551   9.694   6.415  0.2597 -0.4618  0.4010
  673MOL0     C90780  -0.683   9.610   6.429 -0.0245 -0.1649 -0.3489
  673MOL0     C90781  -0.800   9.703   6.394  0.3998  0.0473  0.2069
  673MOL0     C90782  -0.935   9.627   6.384  0.1887 -0.4974 -0.4040
  673MOL0     C90783  -0.965   9.566   6.518  0.1333  0.2973 -0.8670
  673MOL0     C90784  -0.977   9.532   6.635  0.9795  0.9119  0.4934
  673MOL0     C90785  -0.277   9.765   6.349  0.0383 -1.1083  0.4776
  673MOL0     C90786  -0.143   9.804   6.322 -0.1390 -0.4817 -0.1999
  673MOL0     C90787  -0.056   9.836   6.438  0.0394 -0.1662 -0.7328
  673MOL0     H90788   0.266   9.937   6.371 -0.8892  0.6318  0.8905
  673MOL0     H90789   0.504  10.002   6.337  0.4553  0.5859 -1.2649
  673MOL0     H90790   0.672  10.058   5.944 -0.9983 -2.1039  2.4913
  673MOL0     H90791   0.608  10.225   5.983 -2.2391 -0.1816  2.2176
  673MOL0     H90792   0.812  10.230   6.151 -1.1185 -1.6197  1.9119
  673MOL0     H90793   0.841  10.260   5.978 -0.7075  0.1607 -0.4248
  673MOL0     H90794   0.938  10.047   5.931  1.7201 -0.4930 -0.1532
  673MOL0     H90795   0.877   9.994   6.096 -0.8299  0.9888  1.0275
  673MOL0     H90796   1.058  10.220   6.063 -1.0377  0.2934 -0.1810
  673MOL0     H90797   1.029  10.107   6.206 -1.7518 -2.1883 -0.9005
  673MOL0     H90798   1.129   9.931   6.117  1.3510 -0.2114  0.7799
  673MOL0     H90799   1.155   9.994   5.954  1.2540  0.1555 -0.6875
  673MOL0     H90800   1.317  10.140   6.010 -3.7333 -0.7793 -1.7113
  673MOL0     H90801   1.309  10.134   6.182  1.4895 -1.2932  0.9510
  673MOL0     H90802   1.387   9.891   6.028  0.1563  0.2125 -0.6273
  673MOL0     H90803   1.363   9.904   6.209 -2.3125  3.1445  0.6301
  673MOL0     H90804   1.563  10.071   6.053  1.3918 -0.1721 -0.2586
  673MOL0     H90805   1.530  10.073   6.226  2.2398 -0.2709  0.6161
  673MOL0     H90806   1.619   9.823   5.941 -1.4864 -0.8261  0.3606
  673MOL0     H90807   1.832   9.532   6.051  0.1942  0.3204  0.4359
  673MOL0     H90808   1.792   9.623   5.912 -0.1956  0.0522 -0.1910
  673MOL0     H90809   1.974   9.725   5.887 -0.5060 -1.4450 -1.2287
  673MOL0     H90810   2.035   9.720   6.051  1.2829 -0.0544 -0.2008
  673MOL0     H90811   2.013   9.483   5.852  2.1444  0.2169 -2.0740
  673MOL0     H90812   2.063   9.470   6.028  2.1022  1.7323  1.1519
  673MOL0     H90813   2.208   9.648   5.855  0.1055  0.4287 -4.0700
  673MOL0     H90814   2.208   9.496   5.773  2.9939 -0.1092  0.1960
  673MOL0     H90815   2.370   9.715   6.067  0.5788 -0.2112  0.6784
  673MOL0     H90816   2.594   9.816   6.060 -0.6073 -1.1341  1.2449
  673MOL0     H90817   2.895   9.855   5.764 -0.3860 -1.5279  1.5558
  673MOL0     H90818   3.091   9.999   5.695 -0.5580 -0.5878 -2.0732
  673MOL0     H90819   3.430  10.017   5.579 -0.5211 -0.5740 -0.1561
  673MOL0     H90820   3.255  10.052   5.594  0.4896 -0.1047 -1.7824
  673MOL0     H90821   3.370  10.244   5.633  2.4926 -0.7653 -1.3839
  673MOL0     H90822   3.313  10.193   5.792  1.1674  2.4708 -0.0965
  673MOL0     H90823   3.510  10.117   5.852  1.7252 -0.4224  0.6088
  673MOL0     H90824   3.583  10.131   5.690 -0.1707  1.0963 -0.0745
  673MOL0     H90825   3.485  10.366   5.877 -0.2356  1.5746  0.0693
  673MOL0     H90826   3.519  10.378   5.706  0.4744 -2.5925 -1.5930
  673MOL0     H90827   3.725  10.269   5.924  0.7177  0.5499  1.0346
  673MOL0     H90828   3.723  10.440   5.882  0.9724 -0.7036  1.6568
  673MOL0     H90829   3.816  10.232   5.697 -0.8417 -1.4120  3.2906
  673MOL0     H90830   3.767  10.400   5.635 -0.2975  1.7425  1.0967
  673MOL0     H90831   3.991  10.319   5.836  1.4233  0.7239 -0.4992
  673MOL0     H90832   3.944  10.479   5.835  1.4088  0.3632 -1.0964
  673MOL0     H90833   4.150  10.447   5.696 -0.5762  1.7038 -0.0680
  673MOL0     H90834   4.073  10.320   5.603 -2.7191  0.0303 -2.4944
  673MOL0     H90835   3.361   9.731   5.888  0.4854  1.5434 -0.4686
  673MOL0     H90836   3.161   9.592   5.958  0.9280 -0.4240 -0.8199
  673MOL0     H90837   2.734   9.430   5.919 -0.2263  0.9921 -0.4548
  673MOL0     H90838   2.508   9.357   5.894  1.1690  0.7705 -3.9147
  673MOL0     H90839   0.431  10.083   5.928 -3.5260 -0.7952 -1.3324
  673MOL0     H90840   0.179  10.034   5.969  0.4309  1.3169 -0.2056
  673MOL0     H90841  -0.167   9.763   5.982  1.2079  2.1820  0.1526
  673MOL0     H90842  -0.395   9.694   6.049 -0.2778 -3.9879  1.2695
  673MOL0     H90843  -0.572   9.794   6.453 -0.9864  0.3570 -2.2532
  673MOL0     H90844  -0.474   9.647   6.478 -0.3791 -0.0562  1.5015
  673MOL0     H90845  -0.694   9.571   6.530 -0.9045 -0.9775 -0.7439
  673MOL0     H90846  -0.680   9.526   6.359 -4.0544  1.5545 -2.9967
  673MOL0     H90847  -0.770   9.751   6.300 -1.1230 -2.9706 -2.0190
  673MOL0     H90848  -0.836   9.769   6.473 -1.7660 -0.7031 -0.0755
  673MOL0     H90849  -1.017   9.691   6.351  1.0539  0.6684 -0.3318
  673MOL0     H90850  -0.925   9.544   6.314  0.4238 -0.6396 -0.2023
  673MOL0     H90851  -1.009   9.516   6.736  1.4895 -0.6077  0.4354
  673MOL0     H90852  -0.294   9.745   6.455  3.5217  2.5313  2.0227
  673MOL0     H90853   0.050   9.812   6.420 -0.7443 -3.3895 -1.8527
  673MOL0     H90854  -0.074   9.941   6.463  0.4808 -0.1075 -0.6581
  673MOL0     H90855  -0.074   9.776   6.528  1.6958 -0.0139 -0.2648
  674MOL0     O90856   1.435   8.798   8.469  0.2437 -0.2424  0.5386
  674MOL0     C90857   1.477   8.705   8.538  1.0563 -1.1647  0.3412
  674MOL0     O90858   1.612   8.684   8.576 -0.1888  0.1202  0.4502
  674MOL0     C90859   1.711   8.772   8.532 -0.4615 -0.1401 -0.1484
  674MOL0     C90860   1.716   8.841   8.408 -0.3301  0.1095 -0.4790
  674MOL0     C90861   1.830   8.903   8.362  0.5221 -0.3339 -0.0614
  674MOL0     C90862   1.938   8.920   8.451  0.0079  0.0579  1.1503
  674MOL0     O90863   2.054   8.984   8.414 -0.4190  0.1280 -0.0186
  674MOL0     C90864   2.025   9.126   8.373  0.1026  0.0265 -1.2134
  674MOL0     C90865   2.113   9.178   8.255  0.0752 -0.2715 -0.3805
  674MOL0     C90866   2.174   9.061   8.167  0.6231  0.1953 -0.6022
  674MOL0     C90867   2.302   9.004   8.219  0.6207 -0.1125 -0.2390
  674MOL0     C90868   2.416   9.107   8.180 -0.8814 -0.1384 -0.0229
  674MOL0     C90869   2.529   9.099   8.284  1.4426  1.0572 -0.1303
  674MOL0     C90870   2.657   9.186   8.249  0.7974  0.0196 -0.0298
  674MOL0     C90871   2.753   9.105   8.162  0.3864  0.4722 -0.7647
  674MOL0     N90872   2.877   9.166   8.138  0.7442 -0.0725 -1.0376
  674MOL0     C90873   2.881   9.290   8.083  0.8996  0.5133 -0.5285
  674MOL0     C90874   3.000   9.340   8.113  0.0106  0.6588 -0.5864
  674MOL0     C90875   3.061   9.470   8.061 -0.0323  0.0861 -0.1178
  674MOL0     C90876   2.962   9.594   8.073  0.7998  0.6004 -0.6598
  674MOL0     C90877   2.988   9.691   7.963  0.7325  0.0504 -0.3203
  674MOL0     C90878   3.130   9.757   7.955  0.1948  0.5607 -0.0610
  674MOL0     O90879   3.125   9.846   7.846  0.3204  0.5960  0.1303
  674MOL0     C90880   3.247   9.882   7.790  0.6319 -0.9750 -1.1537
  674MOL0     C90881   3.295   9.814   7.672 -0.0963 -0.4970 -0.1152
  674MOL0     C90882   3.426   9.852   7.637 -0.6841  1.0589 -0.6315
  674MOL0     C90883   3.508   9.945   7.708  0.8739 -0.5443 -0.0109
  674MOL0     C90884   3.646   9.969   7.658  0.2292 -0.1225  0.7681
  674MOL0     O90885   3.742  10.044   7.729 -1.1649  0.2293 -0.8378
  674MOL0     C90886   3.852  10.091   7.652  0.3292 -0.1783 -0.4948
  674MOL0     C90887   3.842  10.159   7.530  0.1988  0.7401  0.6395
  674MOL0     C90888   3.965  10.193   7.475 -0.7922 -0.3185  1.0008
  674MOL0     C90889   4.087  10.182   7.551  0.3103 -0.8248  0.2349
  674MOL0     O90890   4.211  10.219   7.501 -0.6947 -0.3310  0.7356
  674MOL0     C90891   4.230  10.209   7.358 -0.4822 -0.0685 -0.2007
  674MOL0     C90892   4.372  10.257   7.313  0.0153 -0.0986 -0.5886
  674MOL0     C90893   4.474  10.146   7.341  0.0892  0.0960 -0.1837
  674MOL0     C90894   4.509  10.061   7.214  0.1154 -0.1245  0.0233
  674MOL0     C90895   4.580   9.929   7.240  0.9857 -0.0322 -0.2537
  674MOL0     C90896   4.721   9.961   7.285 -0.3662 -0.4876 -0.3095
  674MOL0     C90897   4.770   9.824   7.327 -0.3312 -0.5433 -0.0481
  674MOL0     C90898   4.919   9.845   7.382 -0.6655  0.6734  0.2144
  674MOL0    Cl90899   4.965   9.703   7.462  0.2229 -0.2460 -0.2212
  674MOL0     C90900   4.094  10.127   7.676 -0.4302  0.9304  0.2877
  674MOL0     C90901   3.966  10.098   7.731 -0.4519  0.1451  0.3740
  674MOL0     O90902   3.670   9.927   7.548  0.5094  0.6227  0.5058
  674MOL0     C90903   3.456  10.007   7.819 -0.8412 -0.7723 -0.6395
  674MOL0     C90904   3.321   9.976   7.862 -0.0162  0.2851  0.2970
  674MOL0     N90905   3.074   9.242   8.178  0.6590  0.2788  0.3497
  674MOL0     N90906   3.002   9.137   8.195 -0.0810  0.4706 -0.2328
  674MOL0     C90907   1.937   8.857   8.572  0.8434 -0.4530 -0.1489
  674MOL0     C90908   1.827   8.784   8.611 -0.5290 -0.3924 -0.0577
  674MOL0     C90909   1.384   8.597   8.578 -0.6767 -0.3743  0.4296
  674MOL0     C90910   1.426   8.465   8.557 -0.4814 -0.3691  0.5804
  674MOL0     C90911   1.342   8.357   8.573 -0.1224 -0.1892  0.4529
  674MOL0     C90912   1.209   8.369   8.600  0.4538  0.1854  0.0792
  674MOL0     O90913   1.137   8.248   8.620 -0.2631 -0.0084  0.1369
  674MOL0     C90914   1.015   8.252   8.697 -0.1289 -0.1619 -1.1040
  674MOL0     C90915   1.058   8.260   8.850  0.5008  0.2259 -0.0593
  674MOL0     C90916   1.151   8.154   8.893 -0.0547  0.4252  0.0783
  674MOL0     C90917   1.204   8.151   9.029 -0.4830  1.3232  0.9678
  674MOL0     C90918   1.113   8.104   9.134 -0.1303 -0.2748 -0.2646
  674MOL0     C90919   1.037   8.090   9.223  0.2154 -0.1047  0.9713
  674MOL0     C90920   1.164   8.501   8.619 -0.8659 -0.7849  0.5565
  674MOL0     C90921   1.247   8.613   8.610  0.5490 -0.4504 -0.1741
  674MOL0     C90922   1.197   8.749   8.663  0.4496 -0.1737  0.0776
  674MOL0     H90923   1.631   8.837   8.340  1.0843  1.7352 -2.4709
  674MOL0     H90924   1.852   8.939   8.262  1.7298  3.0200  1.2551
  674MOL0     H90925   1.918   9.136   8.347  0.1300  2.7829 -0.6012
  674MOL0     H90926   2.046   9.185   8.462  0.6887 -1.6568 -0.2029
  674MOL0     H90927   2.195   9.231   8.305  0.3117 -1.2174  0.2644
  674MOL0     H90928   2.065   9.246   8.185  0.0499 -0.2326 -0.3256
  674MOL0     H90929   2.188   9.102   8.066 -1.1400  1.8881 -0.2299
  674MOL0     H90930   2.093   8.987   8.164  0.4388  0.1641  2.1763
  674MOL0     H90931   2.309   8.983   8.327  0.2915  0.4971 -0.0945
  674MOL0     H90932   2.329   8.912   8.167  1.7933  1.8140 -3.3113
  674MOL0     H90933   2.444   9.071   8.080 -0.7229 -1.0902  0.3556
  674MOL0     H90934   2.378   9.209   8.175  0.9444  0.5542 -3.4789
  674MOL0     H90935   2.501   9.138   8.382  0.8664 -1.7724  0.9192
  674MOL0     H90936   2.558   8.998   8.313 -2.4607 -0.9494 -2.3858
  674MOL0     H90937   2.724   9.200   8.334  0.0850 -3.4921  1.2587
  674MOL0     H90938   2.626   9.282   8.208 -0.9923 -0.0252  1.1301
  674MOL0     H90939   2.766   9.012   8.218 -1.9671  1.7658  2.2788
  674MOL0     H90940   2.710   9.084   8.064 -0.9636 -2.4762  0.3384
  674MOL0     H90941   2.797   9.343   8.039  2.2004  1.6603 -1.7270
  674MOL0     H90942   3.152   9.501   8.113 -0.9241  2.1605  0.3207
  674MOL0     H90943   3.100   9.462   7.960 -0.6466  0.2514 -0.3741
  674MOL0     H90944   2.858   9.561   8.066  0.4661  0.8986  2.0628
  674MOL0     H90945   2.960   9.646   8.169  4.4488  1.9123 -1.1326
  674MOL0     H90946   2.932   9.778   8.000  2.4026  0.6035  1.0145
  674MOL0     H90947   2.967   9.653   7.862 -3.3164 -1.1680  0.7686
  674MOL0     H90948   3.205   9.678   7.949 -0.4554 -0.5195  3.4446
  674MOL0     H90949   3.144   9.810   8.051 -0.8332  1.6571 -0.4944
  674MOL0     H90950   3.243   9.726   7.636  1.3561 -1.2415 -0.4700
  674MOL0     H90951   3.467   9.797   7.553 -0.2949 -0.8436  0.7423
  674MOL0     H90952   3.755  10.168   7.465  0.0661  2.8267  1.0392
  674MOL0     H90953   3.969  10.226   7.372 -0.9393 -3.3883 -0.0970
  674MOL0     H90954   4.208  10.110   7.317  1.7176  0.6145 -3.4040
  674MOL0     H90955   4.162  10.292   7.336  0.2848  0.2479 -1.5490
  674MOL0     H90956   4.377  10.275   7.205 -1.8671 -0.9058 -0.8469
  674MOL0     H90957   4.401  10.349   7.366  0.7818  0.2805 -1.6318
  674MOL0     H90958   4.563  10.187   7.389  0.6389  0.5823 -1.5680
  674MOL0     H90959   4.425  10.077   7.412 -0.9423  2.3037  1.3797
  674MOL0     H90960   4.568  10.107   7.133 -1.1214 -0.2455 -0.9848
  674MOL0     H90961   4.415  10.043   7.160  1.6946 -0.2596 -2.9103
  674MOL0     H90962   4.572   9.864   7.152 -1.2207 -1.1094  0.6649
  674MOL0     H90963   4.523   9.876   7.317 -1.0897 -1.3344 -2.5218
  674MOL0     H90964   4.779  10.015   7.210 -1.7711  2.3276  0.4949
  674MOL0     H90965   4.714  10.026   7.373 -5.8293 -1.0359  0.0345
  674MOL0     H90966   4.764   9.758   7.240  1.8398  1.1372 -1.5881
  674MOL0     H90967   4.713   9.782   7.411  2.5760 -1.2294  1.7544
  674MOL0     H90968   4.977   9.852   7.290 -0.1161 -3.6826  0.0313
  674MOL0     H90969   4.938   9.933   7.443  0.7103  0.0867  0.6636
  674MOL0     H90970   4.189  10.104   7.722 -0.4326 -0.1825 -0.2440
  674MOL0     H90971   3.971  10.052   7.829 -3.4120  0.3711  0.7434
  674MOL0     H90972   3.519  10.063   7.886 -2.4094 -0.3127  0.5102
  674MOL0     H90973   3.300  10.020   7.959 -0.8655 -1.2905  0.8692
  674MOL0     H90974   2.008   8.870   8.653  0.9397 -0.3559 -0.2505
  674MOL0     H90975   1.823   8.725   8.702 -1.3580 -0.3524 -0.0581
  674MOL0     H90976   1.529   8.453   8.526 -0.5433  0.2257  0.1116
  674MOL0     H90977   1.370   8.255   8.550  1.1851  0.0106  1.0738
  674MOL0     H90978   0.964   8.157   8.682 -0.6249  0.1499 -1.3962
  674MOL0     H90979   0.948   8.332   8.665  1.3959  0.7487 -2.1482
  674MOL0     H90980   0.973   8.245   8.918 -1.4248 -3.4138 -2.9062
  674MOL0     H90981   1.110   8.355   8.868 -0.5411  0.3869  2.5223
  674MOL0     H90982   1.245   8.172   8.840  0.8129  1.4699  1.8749
  674MOL0     H90983   1.115   8.052   8.874  2.3040 -0.9686  2.3498
  674MOL0     H90984   1.290   8.084   9.029  0.7046  2.7049  3.4855
  674MOL0     H90985   1.248   8.244   9.066 -0.2297  0.9047  1.7461
  674MOL0     H90986   0.967   8.070   9.302 -1.4789  5.2102  1.1891
  674MOL0     H90987   1.056   8.516   8.620 -0.8255 -0.3561 -0.5196
  674MOL0     H90988   1.246   8.843   8.636  1.8064 -0.8643  0.0472
  674MOL0     H90989   1.091   8.765   8.642  0.0306  0.9897  2.6149
  674MOL0     H90990   1.218   8.741   8.770  2.1091  0.4414 -0.1622
  675MOL0     O90991   2.689   8.011   8.570  0.1053 -0.9690  0.6063
  675MOL0     C90992   2.618   8.075   8.651  0.0222 -0.7711  0.1001
  675MOL0     O90993   2.654   8.190   8.701 -0.7950  0.0722 -0.3139
  675MOL0     C90994   2.788   8.225   8.695 -0.2932 -0.5820  0.7994
  675MOL0     C90995   2.883   8.163   8.775 -0.5017  0.1141 -0.0007
  675MOL0     C90996   3.013   8.228   8.798 -0.1405 -0.2779 -0.0600
  675MOL0     C90997   3.041   8.349   8.729  0.0534  0.2216 -0.3647
  675MOL0     O90998   3.160   8.419   8.745 -0.1409  0.2321 -0.1905
  675MOL0     C90999   3.209   8.407   8.885  0.1236 -0.4837 -0.6473
  675MOL0     C91000   3.313   8.520   8.903  0.6595  0.3261  0.0966
  675MOL0     C91001   3.425   8.514   8.798 -0.0128 -0.4901  0.4527
  675MOL0     C91002   3.557   8.568   8.852  0.8765  0.1183  0.0087
  675MOL0     C91003   3.663   8.586   8.741  0.4440 -0.1418  0.4311
  675MOL0     C91004   3.801   8.610   8.791 -0.3042  0.6069 -0.3072
  675MOL0     C91005   3.887   8.677   8.680 -0.5227  0.9430  0.2489
  675MOL0     C91006   4.042   8.657   8.711  0.3178 -0.8365  0.5680
  675MOL0     N91007   4.081   8.750   8.823  0.1618  0.0671 -0.1992
  675MOL0     C91008   4.093   8.885   8.799 -1.1682 -0.5837  0.3947
  675MOL0     C91009   4.163   8.938   8.901 -1.3846  1.7424 -0.1247
  675MOL0     C91010   4.203   9.082   8.927 -0.4029 -0.6150 -0.4617
  675MOL0     C91011   4.285   9.143   8.824 -0.1902  0.2917 -0.2477
  675MOL0     C91012   4.424   9.076   8.828  0.3043  0.4819  0.9493
  675MOL0     C91013   4.515   9.127   8.715 -0.1999  0.3065  0.0325
  675MOL0     O91014   4.543   9.259   8.738 -0.3427 -0.5939  0.0027
  675MOL0     C91015   4.657   9.303   8.665 -0.2417 -0.9422 -1.1097
  675MOL0     C91016   4.722   9.241   8.563 -0.0156  0.1651  0.2977
  675MOL0     C91017   4.823   9.308   8.494 -0.0362  0.8311  1.2657
  675MOL0     C91018   4.861   9.442   8.528  0.3181  0.6055  0.5527
  675MOL0     C91019   4.958   9.527   8.461 -0.6089 -0.0968 -0.4686
  675MOL0     O91020   4.967   9.663   8.503  0.0310  0.3226 -0.5328
  675MOL0     C91021   5.059   9.757   8.461  0.2592 -0.6795 -0.3126
  675MOL0     C91022   5.075   9.869   8.548  0.2373  0.4119 -0.2114
  675MOL0     C91023   5.159   9.973   8.514 -0.5130 -0.4776  0.6121
  675MOL0     C91024   5.230   9.966   8.394  0.1356  0.2980  0.0668
  675MOL0     O91025   5.317  10.059   8.355  0.1702  0.2240  0.3418
  675MOL0     C91026   5.407  10.111   8.451 -0.2627  0.1976  0.8410
  675MOL0     C91027   5.373  10.253   8.470 -0.0904  0.0881 -0.5897
  675MOL0     C91028   5.376  10.338   8.342 -0.1495  0.4918  0.3608
  675MOL0     C91029   5.513  10.343   8.264 -0.2873 -0.4667  0.3257
  675MOL0     C91030   5.500  10.286   8.118 -0.6816  0.9079  0.7201
  675MOL0     C91031   5.639  10.252   8.051 -0.6882 -0.4768 -0.5512
  675MOL0     C91032   5.720  10.384   8.027 -0.0944  0.5183 -0.4196
  675MOL0     C91033   5.848  10.362   7.938  0.6159  0.8723 -0.4645
  675MOL0    Cl91034   5.934  10.525   7.933 -0.1692  0.4597 -0.0235
  675MOL0     C91035   5.220   9.853   8.302  0.5418 -0.1676 -0.4600
  675MOL0     C91036   5.127   9.751   8.339 -0.2755 -0.1162 -0.7729
  675MOL0     O91037   5.037   9.482   8.375 -0.4861  0.0894 -0.6140
  675MOL0     C91038   4.787   9.508   8.628  0.0124 -0.1036 -0.8219
  675MOL0     C91039   4.682   9.437   8.687  0.4314  0.2713 -0.1003
  675MOL0     N91040   4.178   8.842   8.996 -0.2100  0.1624  0.0629
  675MOL0     N91041   4.138   8.726   8.943  0.4223  0.2553 -0.5991
  675MOL0     C91042   2.947   8.390   8.636 -0.0069  0.6059  0.1648
  675MOL0     C91043   2.828   8.327   8.612  0.1091  0.1507  0.3341
  675MOL0     C91044   2.484   8.023   8.690 -1.0348 -1.1779 -0.4217
  675MOL0     C91045   2.397   8.116   8.752 -0.0316  0.0759 -0.1989
  675MOL0     C91046   2.269   8.077   8.794  0.1209  0.1102  0.4133
  675MOL0     C91047   2.235   7.937   8.789 -0.4111 -0.2282 -0.8753
  675MOL0     O91048   2.115   7.885   8.838 -0.3713  0.3540  0.3316
  675MOL0     C91049   2.019   7.971   8.906  0.2606  0.4257 -0.0287
  675MOL0     C91050   1.914   8.008   8.801  0.1844 -0.1774 -0.2350
  675MOL0     C91051   1.803   8.104   8.858 -0.3625  0.4163 -0.0392
  675MOL0     C91052   1.725   8.166   8.736 -0.4800  0.1307  0.1999
  675MOL0     C91053   1.804   8.263   8.658  1.1613  0.1703 -0.2364
  675MOL0     C91054   1.862   8.342   8.592 -0.5299 -0.0547 -0.0654
  675MOL0     C91055   2.313   7.855   8.711  0.2247  0.3008 -0.0457
  675MOL0     C91056   2.441   7.888   8.669  0.1775 -0.1426  0.1820
  675MOL0     C91057   2.524   7.781   8.605 -0.3709  1.1296 -0.8147
  675MOL0     H91058   2.846   8.079   8.833 -1.2659 -0.4639 -1.2699
  675MOL0     H91059   3.078   8.186   8.874  1.3595  1.5723 -0.2592
  675MOL0     H91060   3.134   8.429   8.962  0.7748  1.8916 -0.6064
  675MOL0     H91061   3.262   8.311   8.895  2.4674  0.4159 -3.1395
  675MOL0     H91062   3.363   8.509   9.000 -1.9018 -0.2363  1.4590
  675MOL0     H91063   3.260   8.616   8.911 -0.3904 -0.2453  0.1639
  675MOL0     H91064   3.405   8.583   8.716  3.2919  0.6116  0.4028
  675MOL0     H91065   3.446   8.413   8.761 -2.0290 -1.1473  1.0000
  675MOL0     H91066   3.546   8.671   8.888  1.4647 -0.8667  3.3190
  675MOL0     H91067   3.592   8.499   8.929  0.0064 -1.5116 -1.0133
  675MOL0     H91068   3.668   8.493   8.683  1.0360  0.4011 -0.4061
  675MOL0     H91069   3.634   8.675   8.685  0.5745 -2.1143 -3.0325
  675MOL0     H91070   3.788   8.677   8.877 -4.9962  0.9134 -1.0326
  675MOL0     H91071   3.844   8.511   8.815  0.4413  1.0141  0.0870
  675MOL0     H91072   3.873   8.784   8.660 -0.2900  0.6712 -1.5020
  675MOL0     H91073   3.866   8.618   8.590 -0.2772  0.0655  0.7600
  675MOL0     H91074   4.057   8.549   8.724 -2.2061 -1.4974 -1.1514
  675MOL0     H91075   4.104   8.684   8.626 -0.1398  1.3816  0.8856
  675MOL0     H91076   4.076   8.953   8.716 -1.0733 -4.2102 -2.8761
  675MOL0     H91077   4.114   9.146   8.937  1.0980  1.3757  1.0755
  675MOL0     H91078   4.257   9.083   9.022 -0.5776  1.7583 -0.3109
  675MOL0     H91079   4.232   9.136   8.728 -0.5268  4.1245 -0.4916
  675MOL0     H91080   4.297   9.251   8.832  0.6745  0.0860  1.6670
  675MOL0     H91081   4.403   8.973   8.798 -2.4468  1.3839 -0.4994
  675MOL0     H91082   4.461   9.095   8.929 -1.7747  1.3725  1.5942
  675MOL0     H91083   4.480   9.103   8.614  3.6291 -1.8111 -0.9733
  675MOL0     H91084   4.605   9.065   8.724 -0.0862  0.5923  0.9827
  675MOL0     H91085   4.693   9.139   8.541 -1.1417  0.2077  1.4473
  675MOL0     H91086   4.876   9.267   8.408 -2.7943 -3.4516  1.3309
  675MOL0     H91087   5.027   9.874   8.646 -2.3599 -1.5724 -1.2595
  675MOL0     H91088   5.168  10.058   8.582  0.2600  1.5150 -1.8268
  675MOL0     H91089   5.414  10.047   8.540  2.1546 -2.0779 -0.8546
  675MOL0     H91090   5.511  10.102   8.418 -0.4098  0.9357  0.1481
  675MOL0     H91091   5.272  10.255   8.512 -0.3937  0.7001 -1.3437
  675MOL0     H91092   5.440  10.298   8.544 -0.2220  1.4291 -1.2625
  675MOL0     H91093   5.292  10.294   8.287  1.4742  1.4949 -3.2424
  675MOL0     H91094   5.351  10.442   8.365 -0.4690  0.3342  0.7359
  675MOL0     H91095   5.598  10.300   8.318  1.3601 -0.7281 -2.2613
  675MOL0     H91096   5.544  10.448   8.256 -2.4767  0.2379  0.6386
  675MOL0     H91097   5.447  10.362   8.059  0.6583  1.3817  0.0745
  675MOL0     H91098   5.450  10.189   8.123  1.0169  0.0302  1.3635
  675MOL0     H91099   5.704  10.187   8.111 -1.1178 -0.1825  0.2543
  675MOL0     H91100   5.614  10.213   7.952 -0.9740 -1.4903 -0.0935
  675MOL0     H91101   5.739  10.416   8.130 -0.4623 -0.5869  0.0079
  675MOL0     H91102   5.654  10.460   7.984  0.5176  0.8516 -0.7855
  675MOL0     H91103   5.922  10.293   7.980  1.9358  2.6901  0.3053
  675MOL0     H91104   5.814  10.334   7.837 -1.1029 -0.0920  0.3438
  675MOL0     H91105   5.263   9.857   8.202 -0.6441  0.5170 -0.9734
  675MOL0     H91106   5.120   9.663   8.276 -0.5684 -1.4624  1.0288
  675MOL0     H91107   4.801   9.614   8.649 -0.9306  0.6305 -3.4425
  675MOL0     H91108   4.606   9.478   8.753 -0.6072 -1.1050 -0.4108
  675MOL0     H91109   2.978   8.478   8.580  1.6745 -2.5682 -4.5397
  675MOL0     H91110   2.755   8.359   8.538 -0.1986 -2.3345 -0.5488
  675MOL0     H91111   2.425   8.221   8.760  0.5732  0.0284 -1.4219
  675MOL0     H91112   2.196   8.152   8.823 -0.6359 -0.4196 -0.1281
  675MOL0     H91113   2.061   8.064   8.944  1.6346  0.3961 -1.4047
  675MOL0     H91114   1.960   7.919   8.982 -2.9150  0.4471 -2.2496
  675MOL0     H91115   1.858   7.920   8.769 -1.2653  0.2358  1.0253
  675MOL0     H91116   1.966   8.045   8.712  1.3667  1.1339  0.9403
  675MOL0     H91117   1.842   8.183   8.923  0.3415 -0.9707  1.3026
  675MOL0     H91118   1.734   8.048   8.922  0.1091  1.7279  1.6658
  675MOL0     H91119   1.681   8.091   8.669 -1.4895  0.9055 -0.0127
  675MOL0     H91120   1.641   8.207   8.792 -0.2840 -1.8840  2.1162
  675MOL0     H91121   1.891   8.428   8.534 -0.7934 -1.3478 -2.2051
  675MOL0     H91122   2.270   7.757   8.691  1.0661 -0.1255  0.1824
  675MOL0     H91123   2.549   7.817   8.505  0.0489 -1.4942 -1.7514
  675MOL0     H91124   2.614   7.767   8.666 -0.1884 -0.9090 -1.4600
  675MOL0     H91125   2.461   7.692   8.596  0.6365  0.3282 -0.1957
  676MOL0     O91126   1.154   5.703   5.939  0.1732  0.0593  0.1911
  676MOL0     C91127   1.183   5.788   6.016 -0.2526  0.6976 -0.3742
  676MOL0     O91128   1.261   5.893   5.990  0.8101  0.3257 -0.0629
  676MOL0     C91129   1.327   5.893   5.873 -0.6086 -0.5436  0.0597
  676MOL0     C91130   1.344   6.017   5.806  0.7563 -0.5844 -0.5638
  676MOL0     C91131   1.425   6.023   5.690  0.1773 -0.1858 -0.6048
  676MOL0     C91132   1.495   5.914   5.646 -0.7529  0.8059  0.4886
  676MOL0     O91133   1.588   5.942   5.548 -0.4005  0.2779  0.8164
  676MOL0     C91134   1.587   5.863   5.430  1.0112  0.4764  0.7584
  676MOL0     C91135   1.694   5.915   5.327  0.1936  0.2105  1.1698
  676MOL0     C91136   1.837   5.917   5.387 -0.4252 -0.4639  0.5639
  676MOL0     C91137   1.878   5.802   5.472 -0.0723  0.3310 -1.0169
  676MOL0     C91138   2.027   5.774   5.497 -0.4608 -0.2656 -0.4735
  676MOL0     C91139   2.076   5.890   5.586 -0.8695 -0.1069  0.8569
  676MOL0     C91140   2.218   5.864   5.633 -0.0882  0.5675  1.0141
  676MOL0     C91141   2.265   5.991   5.698 -0.3409 -1.0968  0.3158
  676MOL0     N91142   2.404   5.982   5.723 -0.1449  0.1480 -0.3441
  676MOL0     C91143   2.443   5.916   5.838  0.5941 -0.4057  0.2176
  676MOL0     C91144   2.567   5.965   5.861  0.4452  0.0163 -0.3545
  676MOL0     C91145   2.656   5.914   5.974 -0.3831 -0.0251 -0.7989
  676MOL0     C91146   2.811   5.925   5.944  0.2879  0.9995  0.0759
  676MOL0     C91147   2.897   5.875   6.060 -0.0973  0.2708 -0.1180
  676MOL0     C91148   3.050   5.908   6.036  0.7895  1.6678 -0.7229
  676MOL0     O91149   3.126   5.885   6.158  0.7662 -0.1732  0.0613
  676MOL0     C91150   3.258   5.873   6.145  0.3207 -0.3805 -0.8604
  676MOL0     C91151   3.347   5.924   6.044 -0.3512 -0.2391  0.3280
  676MOL0     C91152   3.486   5.905   6.043  0.5822  0.1567 -0.5712
  676MOL0     C91153   3.535   5.835   6.158 -0.0980 -0.1250 -0.1076
  676MOL0     C91154   3.677   5.824   6.172 -0.5453 -0.1286 -0.1589
  676MOL0     O91155   3.752   5.897   6.090  0.3773  0.4429 -0.3877
  676MOL0     C91156   3.884   5.868   6.093 -0.2397 -1.0345 -0.7252
  676MOL0     C91157   3.941   5.784   5.996 -0.9104 -0.6914  0.2723
  676MOL0     C91158   4.080   5.746   5.989 -0.2731 -0.0020 -0.4047
  676MOL0     C91159   4.164   5.804   6.087  0.7545 -0.2358 -0.1815
  676MOL0     O91160   4.299   5.815   6.077 -0.1395 -0.0250  0.8469
  676MOL0     C91161   4.376   5.704   6.014  0.8653 -0.8266 -0.1859
  676MOL0     C91162   4.490   5.652   6.117  0.0385  0.0428  0.5588
  676MOL0     C91163   4.421   5.594   6.242 -0.8452 -0.0428  0.3704
  676MOL0     C91164   4.533   5.553   6.343 -0.1326 -0.5230  0.2460
  676MOL0     C91165   4.487   5.577   6.495  0.5642 -0.3506 -0.3014
  676MOL0     C91166   4.592   5.563   6.606  0.5668  0.8184  0.3306
  676MOL0     C91167   4.545   5.601   6.751  0.9929  0.2022 -0.2977
  676MOL0     C91168   4.643   5.557   6.863  0.3494  0.3546  0.6990
  676MOL0    Cl91169   4.765   5.687   6.850  0.0706  0.3550 -0.4876
  676MOL0     C91170   4.111   5.894   6.180 -0.1838 -0.0872 -0.1428
  676MOL0     C91171   3.974   5.925   6.185  0.0234 -0.2669 -0.3737
  676MOL0     O91172   3.716   5.742   6.254 -0.4230  0.0475 -0.6901
  676MOL0     C91173   3.447   5.785   6.257  0.5066  0.7404  0.4746
  676MOL0     C91174   3.311   5.812   6.253 -1.2042 -0.1140  0.1933
  676MOL0     N91175   2.608   6.052   5.763  1.4362 -1.2875 -0.0309
  676MOL0     N91176   2.505   6.074   5.688 -0.5751  0.5596  0.3412
  676MOL0     C91177   1.479   5.790   5.712 -0.1939  0.7057  0.0703
  676MOL0     C91178   1.404   5.783   5.828 -0.9916 -0.8229 -0.2424
  676MOL0     C91179   1.139   5.776   6.155  0.0754  1.2554 -0.0501
  676MOL0     C91180   1.156   5.885   6.242 -0.2378 -0.7129  0.4095
  676MOL0     C91181   1.135   5.890   6.380  0.1541  1.5011 -0.9528
  676MOL0     C91182   1.092   5.772   6.443 -0.0371  0.3426  0.2731
  676MOL0     O91183   1.068   5.786   6.580 -0.6994 -0.8673  0.0757
  676MOL0     C91184   1.078   5.679   6.665 -0.2522  0.8893 -0.3588
  676MOL0     C91185   1.060   5.730   6.811 -1.5704  0.1413 -0.1568
  676MOL0     C91186   1.182   5.823   6.846  0.0534  1.3182  0.2084
  676MOL0     C91187   1.313   5.755   6.883 -0.6052  0.2895  0.1286
  676MOL0     C91188   1.404   5.847   6.961  0.8767  0.3698  0.0972
  676MOL0     C91189   1.482   5.924   7.017  0.1053 -0.2296 -0.7186
  676MOL0     C91190   1.083   5.658   6.360 -0.1862  0.3363  1.1968
  676MOL0     C91191   1.106   5.656   6.220 -0.5442  0.0172 -0.1222
  676MOL0     C91192   1.109   5.516   6.163 -0.2176 -0.0231 -1.0781
  676MOL0     H91193   1.306   6.111   5.846  2.2705 -0.2064  0.0457
  676MOL0     H91194   1.450   6.120   5.647 -3.5877  1.0907 -0.3736
  676MOL0     H91195   1.599   5.757   5.454  3.7044  0.4543 -0.3733
  676MOL0     H91196   1.491   5.892   5.385  1.1578 -1.6957 -1.0993
  676MOL0     H91197   1.677   6.014   5.283 -0.8573 -0.9719 -1.2692
  676MOL0     H91198   1.697   5.838   5.250 -1.7215 -0.2461  1.5027
  676MOL0     H91199   1.831   6.004   5.454  2.9693  0.9965 -0.7940
  676MOL0     H91200   1.910   5.925   5.306 -1.8419 -4.6670 -1.4326
  676MOL0     H91201   1.825   5.803   5.567 -1.5234  0.2433 -1.7905
  676MOL0     H91202   1.845   5.705   5.432  2.7219 -0.9589 -0.4291
  676MOL0     H91203   2.042   5.675   5.540 -1.1199 -0.8058 -1.4578
  676MOL0     H91204   2.086   5.788   5.407 -0.3475  0.8001 -0.2556
  676MOL0     H91205   2.058   5.985   5.535 -1.4355 -0.5274  0.2617
  676MOL0     H91206   2.004   5.901   5.668 -0.9317  0.6572  0.7102
  676MOL0     H91207   2.277   5.842   5.544 -4.7494  0.2519 -2.3801
  676MOL0     H91208   2.214   5.784   5.707 -0.4759  0.5377  0.9628
  676MOL0     H91209   2.249   6.073   5.627 -1.1472 -1.5621 -0.0583
  676MOL0     H91210   2.199   6.014   5.782 -1.7562  0.7775 -1.2152
  676MOL0     H91211   2.384   5.835   5.879 -1.9820  0.4299 -1.5681
  676MOL0     H91212   2.636   5.969   6.066  0.9255 -1.0851  0.1351
  676MOL0     H91213   2.643   5.806   5.986 -0.7611  0.3134  2.6987
  676MOL0     H91214   2.843   5.883   5.848  1.0752 -2.0924  1.5857
  676MOL0     H91215   2.820   6.033   5.930 -0.5495  1.5239  2.9219
  676MOL0     H91216   2.899   5.766   6.067 -1.3983  0.1878 -0.8443
  676MOL0     H91217   2.862   5.925   6.151  0.8011 -0.1689  0.4881
  676MOL0     H91218   3.075   6.003   5.987 -0.8072  1.5772 -1.7861
  676MOL0     H91219   3.075   5.838   5.956  1.3421  2.7765 -1.5450
  676MOL0     H91220   3.310   5.985   5.962  0.8435 -0.1991 -0.2049
  676MOL0     H91221   3.554   5.931   5.963  1.7098  0.0785  0.3308
  676MOL0     H91222   3.869   5.759   5.919 -0.1266  1.7027 -1.3535
  676MOL0     H91223   4.123   5.692   5.905  1.1401 -0.4470  0.5597
  676MOL0     H91224   4.308   5.624   5.983 -0.2378  0.9592 -2.7006
  676MOL0     H91225   4.427   5.746   5.927  1.8104  2.9331  1.9569
  676MOL0     H91226   4.556   5.584   6.061 -1.8050  0.8113 -2.7942
  676MOL0     H91227   4.546   5.742   6.143  0.1896  1.1400 -3.0343
  676MOL0     H91228   4.361   5.671   6.291 -2.5953 -0.8881 -0.3547
  676MOL0     H91229   4.359   5.509   6.213  1.2233 -0.7421 -2.4196
  676MOL0     H91230   4.626   5.604   6.317 -0.7833  0.9965  0.7877
  676MOL0     H91231   4.565   5.451   6.319  3.9169  0.9704 -1.6505
  676MOL0     H91232   4.408   5.502   6.500 -0.5765  0.6766 -1.8791
  676MOL0     H91233   4.452   5.680   6.505  2.4025  0.0486  4.9918
  676MOL0     H91234   4.632   5.462   6.602  1.5280  1.2117 -0.5831
  676MOL0     H91235   4.673   5.623   6.564  1.2637 -0.3895 -0.0975
  676MOL0     H91236   4.446   5.556   6.765  1.5800 -1.7724 -1.8899
  676MOL0     H91237   4.526   5.708   6.757  0.6448  0.3572 -2.8859
  676MOL0     H91238   4.593   5.583   6.957  0.9906  1.9953  0.6077
  676MOL0     H91239   4.678   5.453   6.860  1.6595  0.7512 -2.9652
  676MOL0     H91240   4.174   5.938   6.256 -0.1717  0.6512 -0.5693
  676MOL0     H91241   3.931   6.006   6.243  1.1908 -0.3296  0.6005
  676MOL0     H91242   3.476   5.726   6.343 -1.0777  0.2037  0.6690
  676MOL0     H91243   3.242   5.777   6.329 -0.8069 -2.5845 -0.5250
  676MOL0     H91244   1.546   5.708   5.686  0.0844  0.6864  0.8464
  676MOL0     H91245   1.405   5.689   5.882 -1.9945 -1.2102 -0.8654
  676MOL0     H91246   1.179   5.985   6.208 -0.8970 -0.4573  0.6882
  676MOL0     H91247   1.150   5.976   6.444  0.2971 -0.2007  1.4184
  676MOL0     H91248   1.169   5.619   6.658  1.0256  2.9093 -2.0252
  676MOL0     H91249   0.996   5.610   6.641 -0.9640  1.8120 -0.6568
  676MOL0     H91250   1.056   5.644   6.878  1.2581 -0.7734 -1.0523
  676MOL0     H91251   0.970   5.790   6.830 -2.0252 -0.5473 -0.1090
  676MOL0     H91252   1.143   5.892   6.922 -1.9959  2.2813 -1.6267
  676MOL0     H91253   1.200   5.885   6.758  3.0487 -2.3162 -2.0255
  676MOL0     H91254   1.284   5.676   6.952 -0.5811 -0.4095 -0.6399
  676MOL0     H91255   1.360   5.714   6.793  1.2186 -1.7200  1.9017
  676MOL0     H91256   1.552   5.977   7.079  0.6388 -0.3951 -1.1687
  676MOL0     H91257   1.056   5.562   6.403 -0.6819 -0.4118 -0.6787
  676MOL0     H91258   1.066   5.448   6.237  0.0327 -1.0720 -1.8790
  676MOL0     H91259   1.054   5.498   6.070  0.3473 -4.7855 -0.7016
  676MOL0     H91260   1.215   5.493   6.153 -0.3507 -0.3353 -1.8413
  677MOL0     O91261   7.256   1.260   5.558 -0.1044  0.4496 -0.4623
  677MOL0     C91262   7.349   1.236   5.639  0.6945  0.5880 -1.2606
  677MOL0     O91263   7.359   1.279   5.765  0.1651  0.1529 -0.1050
  677MOL0     C91264   7.238   1.321   5.820 -1.1505 -0.1146 -0.8317
  677MOL0     C91265   7.164   1.244   5.907  0.6057 -0.2439 -0.2990
  677MOL0     C91266   7.045   1.288   5.966  0.1968 -0.3577  0.1212
  677MOL0     C91267   6.993   1.415   5.939 -0.4327 -0.3120  0.6830
  677MOL0     O91268   6.876   1.468   5.993  0.6392 -0.8535  0.5484
  677MOL0     C91269   6.810   1.393   6.093  0.3883 -0.2949 -0.6831
  677MOL0     C91270   6.675   1.480   6.121 -0.2484 -0.3413  0.0666
  677MOL0     C91271   6.612   1.443   6.256  0.0079  0.0140 -0.6066
  677MOL0     C91272   6.536   1.308   6.252 -0.1566 -0.0124  0.5891
  677MOL0     C91273   6.455   1.281   6.379 -0.6081 -0.5438 -0.2279
  677MOL0     C91274   6.365   1.154   6.353 -0.9494 -0.7130  1.1292
  677MOL0     C91275   6.275   1.142   6.466  0.3574  0.3053 -0.4401
  677MOL0     C91276   6.217   1.008   6.507  0.0093  0.7245 -0.3086
  677MOL0     N91277   6.177   0.937   6.383 -0.1289 -1.0985 -0.2825
  677MOL0     C91278   6.068   0.967   6.301 -0.0516  1.0426 -0.5521
  677MOL0     C91279   6.090   0.893   6.194  0.0568 -0.9961 -0.3215
  677MOL0     C91280   6.033   0.891   6.058 -0.4059  0.7205 -0.0746
  677MOL0     C91281   5.945   1.012   6.029 -0.0526  0.4400  0.6003
  677MOL0     C91282   5.908   1.013   5.877 -1.1348 -0.3257  0.6871
  677MOL0     C91283   5.817   1.122   5.835 -0.7093 -0.2401 -1.1439
  677MOL0     O91284   5.690   1.110   5.897  0.0151  0.1363 -0.3955
  677MOL0     C91285   5.597   1.210   5.870 -0.5176  0.0490  1.8990
  677MOL0     C91286   5.604   1.303   5.760  0.1179  0.7618  0.2948
  677MOL0     C91287   5.504   1.401   5.742 -0.5043 -0.9043  1.3335
  677MOL0     C91288   5.410   1.422   5.842  0.9408  1.2503 -0.2171
  677MOL0     C91289   5.326   1.548   5.836  0.4195  1.2357 -0.5298
  677MOL0     O91290   5.361   1.639   5.752 -0.3606  0.3542  0.2063
  677MOL0     C91291   5.265   1.739   5.726  0.0915 -0.3865 -0.5251
  677MOL0     C91292   5.252   1.855   5.798  0.2637  0.6820  0.3341
  677MOL0     C91293   5.156   1.952   5.761  0.3123 -0.8221  0.0658
  677MOL0     C91294   5.080   1.940   5.645 -1.0100 -0.0727 -0.1419
  677MOL0     O91295   4.988   2.037   5.622  0.4045  0.2595 -0.1532
  677MOL0     C91296   4.904   2.018   5.504  0.7356  0.0252 -0.3514
  677MOL0     C91297   4.965   2.050   5.372  0.0286 -0.2272  0.5037
  677MOL0     C91298   5.019   2.197   5.361 -0.5136 -0.4139  0.5167
  677MOL0     C91299   5.093   2.224   5.240 -0.0802  0.1754  0.1753
  677MOL0     C91300   5.131   2.378   5.230  0.0622  0.7329  1.0045
  677MOL0     C91301   5.239   2.412   5.120  0.4499  0.5639 -1.1369
  677MOL0     C91302   5.381   2.373   5.162  0.1946 -0.1128 -0.0235
  677MOL0     C91303   5.492   2.427   5.067  0.0794 -0.8234  0.2851
  677MOL0    Cl91304   5.508   2.608   5.077  0.1430  0.2271 -0.1707
  677MOL0     C91305   5.097   1.820   5.574 -0.3331  0.1656  0.0637
  677MOL0     C91306   5.186   1.719   5.614 -1.0206  0.8005  0.7037
  677MOL0     O91307   5.237   1.560   5.920 -0.3476  0.4188 -0.0422
  677MOL0     C91308   5.392   1.322   5.949 -0.7861  0.0668  0.2915
  677MOL0     C91309   5.489   1.216   5.951  0.5692  0.0321  0.5394
  677MOL0     N91310   6.193   0.797   6.218 -0.0938  0.1800 -0.3307
  677MOL0     N91311   6.243   0.830   6.334 -0.1417 -0.6976 -0.3593
  677MOL0     C91312   7.064   1.496   5.849 -0.3159 -0.5382 -0.5886
  677MOL0     C91313   7.187   1.448   5.797 -0.3951 -0.7142  0.0009
  677MOL0     C91314   7.473   1.178   5.591 -0.4126  0.0479  1.2216
  677MOL0     C91315   7.589   1.199   5.668  0.1516  0.5507 -0.1964
  677MOL0     C91316   7.701   1.130   5.646 -0.1164  0.4856  0.8248
  677MOL0     C91317   7.717   1.052   5.534 -0.0472 -0.9608 -0.2425
  677MOL0     O91318   7.843   1.001   5.512  0.7871  0.3388  0.0529
  677MOL0     C91319   7.852   0.916   5.396  0.3329 -0.6054 -0.4540
  677MOL0     C91320   7.996   0.863   5.383 -0.0271  0.6494 -0.3570
  677MOL0     C91321   8.036   0.773   5.498 -0.3806 -0.3870  0.3384
  677MOL0     C91322   8.184   0.724   5.486  0.2765 -0.8032 -0.1530
  677MOL0     C91323   8.198   0.597   5.418 -0.3043  0.2669  0.1119
  677MOL0     C91324   8.196   0.484   5.365 -0.7232 -0.9675 -0.0639
  677MOL0     C91325   7.612   1.040   5.436  1.0475 -0.7015  0.0481
  677MOL0     C91326   7.488   1.091   5.477 -0.0870  0.6580 -0.1842
  677MOL0     C91327   7.376   1.061   5.394 -0.2366  0.5233  0.9190
  677MOL0     H91328   7.201   1.150   5.945 -5.0105 -2.1993  1.2351
  677MOL0     H91329   7.013   1.225   6.049 -1.5323 -1.4078 -1.2523
  677MOL0     H91330   6.794   1.291   6.059  3.4512 -0.6792 -1.2419
  677MOL0     H91331   6.864   1.379   6.187 -2.0895 -3.9384  0.4329
  677MOL0     H91332   6.598   1.469   6.044  0.8440  2.6168 -1.6269
  677MOL0     H91333   6.695   1.587   6.130 -1.1784 -0.2564  1.4133
  677MOL0     H91334   6.539   1.522   6.275  0.8425  0.6107  0.1937
  677MOL0     H91335   6.680   1.439   6.342 -1.5895 -2.8228  0.6756
  677MOL0     H91336   6.478   1.305   6.160  2.6982  3.8785 -1.6359
  677MOL0     H91337   6.611   1.228   6.252 -2.0003 -1.8275 -0.2247
  677MOL0     H91338   6.527   1.269   6.461 -0.2008  1.4106 -0.2392
  677MOL0     H91339   6.379   1.359   6.391 -1.4428 -1.0227 -1.9981
  677MOL0     H91340   6.306   1.177   6.264 -0.0405  3.1429  1.3380
  677MOL0     H91341   6.420   1.062   6.330  1.2435  1.0958 -1.4863
  677MOL0     H91342   6.185   1.202   6.446  0.6511  0.3688 -1.6854
  677MOL0     H91343   6.318   1.183   6.557  0.0305  2.9762 -1.3851
  677MOL0     H91344   6.284   0.959   6.578 -2.3609 -0.5652  1.1747
  677MOL0     H91345   6.121   1.036   6.551 -0.0535  1.0402 -0.6404
  677MOL0     H91346   5.993   1.044   6.317 -1.6364 -0.4041 -0.7080
  677MOL0     H91347   6.117   0.877   5.990  0.3156 -2.1219  1.2640
  677MOL0     H91348   5.966   0.804   6.064 -1.2445  1.2053 -1.7311
  677MOL0     H91349   5.853   1.008   6.089 -0.9068 -0.6744 -0.7263
  677MOL0     H91350   5.993   1.102   6.069  0.5245  0.0025  0.9131
  677MOL0     H91351   5.871   0.918   5.840 -1.3486 -0.3582  0.9815
  677MOL0     H91352   6.000   1.029   5.819  0.3259 -0.2436  2.8896
  677MOL0     H91353   5.815   1.118   5.726  0.9086  0.9307 -1.2476
  677MOL0     H91354   5.871   1.214   5.860  1.0501 -1.4588 -0.2382
  677MOL0     H91355   5.692   1.295   5.697  0.5807 -2.3142  1.1507
  677MOL0     H91356   5.528   1.472   5.663 -0.0813  0.1610  2.3861
  677MOL0     H91357   5.307   1.884   5.887 -1.1782 -0.3765  1.6249
  677MOL0     H91358   5.148   2.045   5.816  1.5153 -1.0422  0.6515
  677MOL0     H91359   4.861   1.918   5.505 -2.3705  1.2300 -0.1919
  677MOL0     H91360   4.811   2.075   5.500 -0.0593 -0.9608  2.1907
  677MOL0     H91361   5.049   1.982   5.359  0.4774  0.5674 -0.9814
  677MOL0     H91362   4.884   2.028   5.302  1.5460 -0.3642 -1.2604
  677MOL0     H91363   4.937   2.267   5.373 -1.3285 -1.1389 -0.6615
  677MOL0     H91364   5.089   2.222   5.441 -0.7928  1.3433  0.2435
  677MOL0     H91365   5.041   2.194   5.149 -0.4300 -1.1380  0.7789
  677MOL0     H91366   5.178   2.156   5.241  1.2431  1.5923 -3.0629
  677MOL0     H91367   5.167   2.406   5.329 -1.0183  2.4844  0.9240
  677MOL0     H91368   5.039   2.431   5.208  1.5417  2.6097 -1.1193
  677MOL0     H91369   5.226   2.359   5.025  0.9049  1.8392 -1.9411
  677MOL0     H91370   5.227   2.518   5.098 -5.7454  0.3137 -0.6181
  677MOL0     H91371   5.395   2.265   5.156  1.0091 -0.0034 -0.2370
  677MOL0     H91372   5.395   2.398   5.267  0.3428  2.4805 -0.5865
  677MOL0     H91373   5.591   2.385   5.086  1.0790  1.3497  0.1722
  677MOL0     H91374   5.463   2.397   4.966 -0.9521  0.7395  0.0688
  677MOL0     H91375   5.038   1.812   5.483 -1.1659  1.6998  0.4220
  677MOL0     H91376   5.201   1.629   5.555 -3.0958  1.0197 -0.2598
  677MOL0     H91377   5.322   1.321   6.032 -0.2550 -6.4182  1.1614
  677MOL0     H91378   5.475   1.138   6.026 -1.3563 -1.7896 -1.5766
  677MOL0     H91379   7.021   1.591   5.817 -0.0106 -1.0449 -2.6795
  677MOL0     H91380   7.241   1.507   5.723 -2.3735  1.1549 -0.0449
  677MOL0     H91381   7.605   1.275   5.744  2.0580 -1.0393  1.0550
  677MOL0     H91382   7.790   1.133   5.708 -1.5584 -1.2748  3.1644
  677MOL0     H91383   7.844   0.991   5.317  0.8487  0.5925  0.5971
  677MOL0     H91384   7.777   0.837   5.391  0.7662 -1.1818  1.2596
  677MOL0     H91385   8.069   0.944   5.377 -0.6596  1.1396 -1.8470
  677MOL0     H91386   8.007   0.802   5.293  1.2451  1.3270 -0.6821
  677MOL0     H91387   7.963   0.691   5.495 -0.3671 -0.3727 -0.8194
  677MOL0     H91388   8.023   0.819   5.597 -0.2951 -1.2139  0.7440
  677MOL0     H91389   8.242   0.800   5.435  1.1508 -0.8853  0.6977
  677MOL0     H91390   8.215   0.717   5.591  0.7682 -2.0940 -0.3597
  677MOL0     H91391   8.185   0.389   5.318  2.2551 -1.2102 -0.5078
  677MOL0     H91392   7.604   0.969   5.354 -3.9728 -2.6956  1.8840
  677MOL0     H91393   7.393   0.979   5.325 -0.1441  3.1375 -2.4237
  677MOL0     H91394   7.289   1.035   5.455 -0.3450  1.0470  0.9952
  677MOL0     H91395   7.338   1.150   5.342  0.9642  1.0891  0.9853
  678MOL0     O91396   1.929   8.306   4.915  0.1995  0.0009 -0.6347
  678MOL0     C91397   1.944   8.290   4.790  0.1078 -0.1019  1.0116
  678MOL0     O91398   1.842   8.268   4.702 -0.0594  0.0253 -0.2694
  678MOL0     C91399   1.714   8.296   4.740 -0.5186  0.3752 -0.3939
  678MOL0     C91400   1.655   8.419   4.697 -0.1987 -0.5462  0.3641
  678MOL0     C91401   1.525   8.455   4.735 -0.1519 -0.8624  0.8986
  678MOL0     C91402   1.455   8.366   4.812  0.1424  0.5120 -0.8215
  678MOL0     O91403   1.326   8.399   4.845 -0.6744 -0.5594 -0.2764
  678MOL0     C91404   1.220   8.296   4.820 -0.4714  0.5659 -0.7947
  678MOL0     C91405   1.086   8.349   4.831  0.0690  0.2599  0.2777
  678MOL0     C91406   0.978   8.249   4.883 -0.8819  0.5435 -0.0520
  678MOL0     C91407   0.858   8.319   4.947 -0.7367 -0.2910  0.1160
  678MOL0     C91408   0.755   8.216   4.997 -0.2139  0.7370  0.9404
  678MOL0     C91409   0.635   8.287   5.053  0.1014  0.1662  0.1644
  678MOL0     C91410   0.524   8.193   5.098  0.0895  0.5408 -0.8320
  678MOL0     C91411   0.455   8.102   4.995  0.4405 -0.4693 -0.1159
  678MOL0     N91412   0.376   8.191   4.917 -0.3107 -0.8113 -0.6363
  678MOL0     C91413   0.412   8.262   4.803  0.1623  0.0016  0.3607
  678MOL0     C91414   0.305   8.327   4.753 -0.0463  0.0555 -0.5231
  678MOL0     C91415   0.317   8.407   4.630  0.7289  0.2163  0.9411
  678MOL0     C91416   0.269   8.342   4.501 -0.5503  0.1829 -0.2137
  678MOL0     C91417   0.362   8.236   4.448  0.5955 -0.3874  0.4770
  678MOL0     C91418   0.514   8.265   4.426  0.8031 -0.6424 -0.7457
  678MOL0     O91419   0.583   8.234   4.550  0.2298 -0.0778  0.2262
  678MOL0     C91420   0.720   8.214   4.538 -0.4152  0.4085  0.0437
  678MOL0     C91421   0.779   8.091   4.570  0.0597 -0.4722 -0.3279
  678MOL0     C91422   0.918   8.060   4.554  0.4911  0.0672  0.6600
  678MOL0     C91423   1.002   8.160   4.509  0.0994  0.4629 -0.8228
  678MOL0     C91424   1.139   8.120   4.472  1.6438 -1.0741  0.1605
  678MOL0     O91425   1.224   8.225   4.451  1.1701  0.9326  0.0737
  678MOL0     C91426   1.349   8.202   4.399  0.4154  0.1527  1.3022
  678MOL0     C91427   1.455   8.174   4.479 -0.1141 -0.6089 -0.1674
  678MOL0     C91428   1.587   8.179   4.424 -0.4181  0.0688  0.0009
  678MOL0     C91429   1.611   8.207   4.289 -0.0379  0.0081  0.3206
  678MOL0     O91430   1.732   8.228   4.227 -0.1831 -0.2284 -0.3177
  678MOL0     C91431   1.801   8.351   4.247 -0.3320 -0.5549 -0.6788
  678MOL0     C91432   1.951   8.315   4.275  0.8924  0.1199  0.1634
  678MOL0     C91433   2.022   8.275   4.153 -0.2979 -0.8515  0.3991
  678MOL0     C91434   2.167   8.239   4.191  0.6183  0.0714 -0.1477
  678MOL0     C91435   2.258   8.178   4.083  0.3665 -0.9053 -0.1237
  678MOL0     C91436   2.214   8.038   4.051 -0.5030 -0.0328 -0.7206
  678MOL0     C91437   2.336   7.969   3.987 -0.0802  0.8203  0.9424
  678MOL0     C91438   2.322   7.824   3.940  0.3053  0.1745 -0.0284
  678MOL0    Cl91439   2.181   7.810   3.827  0.0574 -0.4304 -0.1954
  678MOL0     C91440   1.499   8.232   4.201  0.7639  0.0545 -0.6353
  678MOL0     C91441   1.375   8.236   4.258  0.2979 -0.6374 -0.1346
  678MOL0     O91442   1.171   8.003   4.476 -0.0888 -0.7830 -0.4393
  678MOL0     C91443   0.944   8.282   4.477  0.3399 -0.6026 -0.3862
  678MOL0     C91444   0.812   8.311   4.493 -0.3023 -0.6776  0.1982
  678MOL0     N91445   0.191   8.289   4.821  0.3942 -0.3956 -0.2924
  678MOL0     N91446   0.233   8.210   4.916  0.1212 -0.0500  0.4053
  678MOL0     C91447   1.505   8.237   4.847 -0.6702 -0.3894 -0.3304
  678MOL0     C91448   1.635   8.208   4.817  0.1078 -0.7001  1.1389
  678MOL0     C91449   2.080   8.277   4.729 -0.5351  0.2863  0.3708
  678MOL0     C91450   2.089   8.184   4.621  0.1548 -0.1325  0.5433
  678MOL0     C91451   2.218   8.157   4.562  0.6742  0.8495 -0.1993
  678MOL0     C91452   2.332   8.217   4.612  0.0492  0.7634 -0.5039
  678MOL0     O91453   2.443   8.180   4.549  0.6879  0.4292  0.2428
  678MOL0     C91454   2.553   8.271   4.535 -0.8974  0.1543  0.8965
  678MOL0     C91455   2.580   8.291   4.391  0.5127 -0.4754 -0.3179
  678MOL0     C91456   2.606   8.163   4.309 -0.3253  0.2042 -0.5713
  678MOL0     C91457   2.639   8.197   4.172 -0.2400 -0.2514  0.1206
  678MOL0     C91458   2.671   8.076   4.093  0.3726 -0.7428 -0.5791
  678MOL0     C91459   2.693   7.971   4.035  0.0535  0.1801 -1.1998
  678MOL0     C91460   2.326   8.303   4.722 -0.0121 -0.1426  0.0321
  678MOL0     C91461   2.200   8.337   4.782 -0.4021 -0.4452 -0.8045
  678MOL0     C91462   2.205   8.430   4.896 -0.7365  0.0627  0.0130
  678MOL0     H91463   1.728   8.488   4.654 -1.7071  1.4413  0.8657
  678MOL0     H91464   1.480   8.551   4.709  1.3207  0.1902  2.0723
  678MOL0     H91465   1.238   8.250   4.722  1.3761  2.2924 -1.3148
  678MOL0     H91466   1.232   8.225   4.902  0.0409  0.2695 -1.1210
  678MOL0     H91467   1.063   8.385   4.730  2.5707  1.5063  0.0628
  678MOL0     H91468   1.092   8.440   4.891  3.7574  2.0280 -2.3665
  678MOL0     H91469   1.012   8.168   4.949 -0.2337 -0.7030 -1.8347
  678MOL0     H91470   0.940   8.205   4.791 -0.5551 -0.3235  0.2154
  678MOL0     H91471   0.886   8.380   5.034 -0.7485  0.9284 -0.7230
  678MOL0     H91472   0.818   8.383   4.869  0.3030  3.8186  2.6463
  678MOL0     H91473   0.726   8.151   4.913 -0.6912  2.8508 -0.6031
  678MOL0     H91474   0.794   8.141   5.067 -0.6495  0.0530  0.4730
  678MOL0     H91475   0.670   8.351   5.135  0.1634  0.7849 -0.3339
  678MOL0     H91476   0.594   8.357   4.979 -0.5915  0.9384  1.2492
  678MOL0     H91477   0.444   8.246   5.152 -2.2646 -4.0421  0.7731
  678MOL0     H91478   0.576   8.139   5.177  1.1538  1.1568 -1.0913
  678MOL0     H91479   0.525   8.047   4.932  0.8538 -0.5597  0.4145
  678MOL0     H91480   0.384   8.035   5.046 -2.5979  1.3736 -1.6176
  678MOL0     H91481   0.506   8.265   4.750 -1.7315  0.7290 -3.3083
  678MOL0     H91482   0.247   8.490   4.642  0.9168  0.2116  2.2262
  678MOL0     H91483   0.421   8.438   4.620  0.2998  0.8381 -3.2055
  678MOL0     H91484   0.171   8.297   4.519 -0.2876 -0.2317  0.1916
  678MOL0     H91485   0.260   8.417   4.421  2.0104 -0.5452 -1.2761
  678MOL0     H91486   0.319   8.204   4.352  1.3394 -0.6742  0.2298
  678MOL0     H91487   0.349   8.153   4.518 -1.5932  0.0380  0.6229
  678MOL0     H91488   0.530   8.369   4.395 -2.0767  1.1957  3.0802
  678MOL0     H91489   0.548   8.206   4.340  1.7425  0.3316 -1.0634
  678MOL0     H91490   0.714   8.010   4.605  1.6938 -0.8140  2.1928
  678MOL0     H91491   0.954   7.960   4.573 -3.0308 -1.0749  2.3501
  678MOL0     H91492   1.447   8.172   4.587  0.9829 -0.9768 -0.0846
  678MOL0     H91493   1.661   8.170   4.503 -1.1739  0.0329  0.7191
  678MOL0     H91494   1.793   8.427   4.169 -2.4587 -0.4505 -0.4261
  678MOL0     H91495   1.765   8.406   4.334  2.2325  1.9886 -1.0954
  678MOL0     H91496   1.997   8.395   4.333 -0.2452  1.4859 -0.7402
  678MOL0     H91497   1.948   8.224   4.335  0.0686 -1.5490 -2.2670
  678MOL0     H91498   1.979   8.191   4.098 -2.8005  0.9523 -0.6371
  678MOL0     H91499   2.016   8.364   4.089 -3.1461 -1.8619 -0.9009
  678MOL0     H91500   2.172   8.177   4.281  1.6556 -0.3329 -0.4640
  678MOL0     H91501   2.226   8.320   4.236 -0.0782  0.0935  0.7492
  678MOL0     H91502   2.357   8.170   4.129 -0.1821  0.8949  1.4800
  678MOL0     H91503   2.267   8.254   4.005 -0.4243 -0.9239 -0.2351
  678MOL0     H91504   2.190   7.991   4.147  0.6155  1.1470  0.1862
  678MOL0     H91505   2.126   8.028   3.987 -2.5959  0.0656  1.9739
  678MOL0     H91506   2.428   7.962   4.046  1.0060 -2.8839 -0.8672
  678MOL0     H91507   2.363   8.020   3.894 -2.4245  0.8997  0.2568
  678MOL0     H91508   2.419   7.790   3.901  0.0156  0.6157 -1.1640
  678MOL0     H91509   2.289   7.759   4.021 -2.1436  3.0159  1.4063
  678MOL0     H91510   1.516   8.252   4.096  0.3350 -2.7068 -1.3279
  678MOL0     H91511   1.288   8.254   4.194 -1.0382 -0.8234  1.5550
  678MOL0     H91512   1.004   8.350   4.416 -2.9878 -0.0316 -3.3813
  678MOL0     H91513   0.779   8.401   4.441 -2.2152 -1.5275 -0.1192
  678MOL0     H91514   1.447   8.174   4.914 -0.7010 -1.2401 -1.1530
  678MOL0     H91515   1.684   8.115   4.843  2.5798  0.3107  0.3898
  678MOL0     H91516   2.009   8.136   4.565  1.6696 -0.6997 -1.2188
  678MOL0     H91517   2.217   8.085   4.480  0.1845 -0.5996  1.0303
  678MOL0     H91518   2.645   8.227   4.576 -1.6437 -2.0933  0.2678
  678MOL0     H91519   2.533   8.368   4.582  0.5918  0.4667  0.9470
  678MOL0     H91520   2.669   8.353   4.379 -0.8261  2.3336  2.6366
  678MOL0     H91521   2.493   8.332   4.337  1.5323  0.0116 -1.6520
  678MOL0     H91522   2.513   8.106   4.314 -0.2548  0.0769 -0.7313
  678MOL0     H91523   2.693   8.115   4.354  1.4574  2.0871 -1.7976
  678MOL0     H91524   2.556   8.236   4.112 -0.1857 -1.3379 -0.7154
  678MOL0     H91525   2.734   8.250   4.164  0.6872 -1.5630  1.8164
  678MOL0     H91526   2.722   7.895   3.966 -0.0456  0.0434 -1.0900
  678MOL0     H91527   2.418   8.337   4.768  0.3910 -2.3459  0.9791
  678MOL0     H91528   2.210   8.381   4.994  0.4839 -1.2718 -0.6838
  678MOL0     H91529   2.295   8.491   4.882  3.3459 -4.2905  3.7621
  678MOL0     H91530   2.115   8.494   4.895 -1.4481 -0.9036 -1.2696
  679MOL0     O91531   0.945   7.600  11.088 -0.2337 -0.4009 -0.2956
  679MOL0     C91532   1.010   7.507  11.134  0.8839 -0.4292  0.3887
  679MOL0     O91533   1.148   7.498  11.119 -0.4677  0.2651  0.1634
  679MOL0     C91534   1.222   7.600  11.073  0.4504 -0.3071  0.4954
  679MOL0     C91535   1.237   7.610  10.934 -0.0416 -0.3418 -0.3928
  679MOL0     C91536   1.301   7.722  10.873  0.0681 -0.1222  0.9799
  679MOL0     C91537   1.331   7.835  10.953 -0.7102  0.2437 -0.1784
  679MOL0     O91538   1.393   7.941  10.890 -0.0862  0.3323  0.0464
  679MOL0     C91539   1.368   8.075  10.925 -0.6459  0.1483 -0.5847
  679MOL0     C91540   1.253   8.138  10.847  1.1496 -0.2446 -0.1027
  679MOL0     C91541   1.278   8.140  10.694 -0.4437 -0.4919 -0.5711
  679MOL0     C91542   1.427   8.199  10.661  0.1853 -0.2757  0.1463
  679MOL0     C91543   1.466   8.334  10.719  0.2784  0.2892  0.2043
  679MOL0     C91544   1.607   8.376  10.677  0.2181  0.8984 -0.8920
  679MOL0     C91545   1.651   8.499  10.755 -0.1270  0.4506 -0.7130
  679MOL0     C91546   1.572   8.623  10.695 -0.1322 -0.3178 -0.3797
  679MOL0     N91547   1.625   8.745  10.762  0.5800  0.3761  0.1991
  679MOL0     C91548   1.728   8.816  10.710  0.8775  0.4673 -0.0879
  679MOL0     C91549   1.722   8.936  10.780  0.0304  0.2675  0.9984
  679MOL0     C91550   1.796   9.064  10.767 -0.4711  0.2877  0.4788
  679MOL0     C91551   1.885   9.061  10.639  0.6735 -0.0711  0.3903
  679MOL0     C91552   2.017   8.982  10.659  0.5458 -0.2980  0.5751
  679MOL0     C91553   2.094   8.978  10.526 -0.6776 -0.1022 -0.0834
  679MOL0     O91554   2.014   8.938  10.411 -0.2156  0.5689  0.0260
  679MOL0     C91555   1.960   8.807  10.402 -0.2558  0.4881  0.2088
  679MOL0     C91556   2.020   8.694  10.466  0.1194 -0.5496  0.3740
  679MOL0     C91557   1.951   8.564  10.454  0.3909 -0.2384  1.0833
  679MOL0     C91558   1.840   8.541  10.364 -0.8820 -0.5412  0.0721
  679MOL0     C91559   1.775   8.414  10.338  0.1909 -0.1822 -0.9497
  679MOL0     O91560   1.843   8.298  10.358  0.1662  1.0212 -0.7402
  679MOL0     C91561   1.804   8.183  10.292 -1.0626  0.6530  0.0039
  679MOL0     C91562   1.862   8.152  10.170 -1.1099  0.2065  0.2812
  679MOL0     C91563   1.830   8.034  10.098 -0.0258 -0.4034 -0.0632
  679MOL0     C91564   1.744   7.942  10.157  0.5696  0.3460  0.5337
  679MOL0     O91565   1.727   7.821  10.096 -0.3316 -0.6074  0.2836
  679MOL0     C91566   1.601   7.808  10.040 -0.3925  0.5095  0.0201
  679MOL0     C91567   1.606   7.671   9.963 -0.8692 -1.0795  1.5647
  679MOL0     C91568   1.631   7.694   9.813 -0.1134 -0.5850  0.0881
  679MOL0     C91569   1.651   7.560   9.757 -0.1219 -0.5401 -0.9133
  679MOL0     C91570   1.655   7.560   9.604  0.6502  0.3065 -0.0239
  679MOL0     C91571   1.689   7.417   9.544 -0.0720 -0.6467 -0.0037
  679MOL0     C91572   1.716   7.412   9.389  0.1144 -0.2928 -0.0668
  679MOL0     C91573   1.866   7.421   9.337  0.8923 -0.0888 -0.4181
  679MOL0    Cl91574   1.953   7.571   9.383 -0.0740 -0.0421 -0.1094
  679MOL0     C91575   1.690   7.974  10.276 -0.5392  0.4628  0.1353
  679MOL0     C91576   1.723   8.084  10.349  0.5306 -1.0170  0.6477
  679MOL0     O91577   1.672   8.421  10.268  0.5374  0.2096  0.0146
  679MOL0     C91578   1.803   8.654  10.290 -0.2761 -0.3097  0.6042
  679MOL0     C91579   1.851   8.785  10.315 -0.0886  0.0613  0.0495
  679MOL0     N91580   1.631   8.917  10.883 -0.6076 -0.4619  0.3422
  679MOL0     N91581   1.570   8.801  10.873 -0.1413 -0.7232  0.1593
  679MOL0     C91582   1.316   7.827  11.092  0.3233 -0.0682  0.7991
  679MOL0     C91583   1.265   7.703  11.156 -0.3617 -1.0109 -0.1569
  679MOL0     C91584   0.930   7.396  11.194 -0.0817  0.2108 -0.5149
  679MOL0     C91585   0.789   7.392  11.177 -1.2506 -0.0573 -0.4357
  679MOL0     C91586   0.714   7.290  11.221  1.6976  0.7493  0.1433
  679MOL0     C91587   0.775   7.176  11.254 -0.4919  0.0973 -0.1998
  679MOL0     O91588   0.699   7.077  11.288  0.0384 -0.2212 -0.0342
  679MOL0     C91589   0.751   6.954  11.339 -0.9861  1.1445 -0.3693
  679MOL0     C91590   0.634   6.849  11.378 -0.0944 -0.3424 -0.1225
  679MOL0     C91591   0.560   6.897  11.503 -0.2079 -0.3904 -0.1509
  679MOL0     C91592   0.439   6.809  11.556 -0.1909 -0.4284  0.1803
  679MOL0     C91593   0.343   6.776  11.456  0.3827  0.2185 -0.0589
  679MOL0     C91594   0.268   6.761  11.367 -0.5005 -0.1567  0.3257
  679MOL0     C91595   0.918   7.170  11.266 -0.0568 -0.4728  0.3065
  679MOL0     C91596   0.993   7.286  11.252  0.5153  0.1802 -0.3110
  679MOL0     C91597   1.144   7.281  11.280 -0.0941  0.1297 -0.3381
  679MOL0     H91598   1.183   7.532  10.881  1.0461 -3.2358  2.4044
  679MOL0     H91599   1.326   7.710  10.768  0.0218 -3.2831  1.2127
  679MOL0     H91600   1.341   8.083  11.031  0.8818  0.5223 -0.1974
  679MOL0     H91601   1.466   8.122  10.915 -0.0644 -0.9971 -0.4416
  679MOL0     H91602   1.230   8.235  10.892 -0.9912 -0.0731 -1.4321
  679MOL0     H91603   1.166   8.076  10.867  0.4887  0.8203  0.3891
  679MOL0     H91604   1.201   8.211  10.662 -0.3075  0.5180  1.2071
  679MOL0     H91605   1.261   8.041  10.651 -2.5499 -1.4637  2.2145
  679MOL0     H91606   1.506   8.129  10.688 -2.0353 -1.9735  2.9129
  679MOL0     H91607   1.443   8.209  10.553 -0.1781 -4.5564 -0.4860
  679MOL0     H91608   1.389   8.404  10.688 -0.3383  0.2694  1.6212
  679MOL0     H91609   1.461   8.333  10.828  0.2588  0.8587  0.2103
  679MOL0     H91610   1.688   8.304  10.691  0.1618  0.6567 -1.7062
  679MOL0     H91611   1.602   8.394  10.569 -1.7157 -1.9896 -1.4085
  679MOL0     H91612   1.758   8.506  10.733  0.5569  0.5347  2.2423
  679MOL0     H91613   1.632   8.494  10.862  3.7196 -4.1688  0.0757
  679MOL0     H91614   1.580   8.632  10.587  0.1163 -1.8261 -0.5136
  679MOL0     H91615   1.466   8.625  10.721  0.3696  1.9396  1.9480
  679MOL0     H91616   1.788   8.781  10.627  1.8146 -3.3752  1.9881
  679MOL0     H91617   1.735   9.154  10.776  1.0888  1.4088  0.3590
  679MOL0     H91618   1.871   9.067  10.847 -0.2618 -5.6203  0.9410
  679MOL0     H91619   1.828   9.019  10.556 -0.7243  3.2230 -0.4716
  679MOL0     H91620   1.910   9.165  10.615  2.9873 -0.8632 -0.8544
  679MOL0     H91621   2.002   8.878  10.691 -0.9159 -0.9178 -1.9035
  679MOL0     H91622   2.073   9.030  10.740 -2.0165  1.2491  1.5670
  679MOL0     H91623   2.180   8.910  10.528 -0.9797 -0.6570 -2.5779
  679MOL0     H91624   2.133   9.080  10.523  1.3893 -0.7638  1.3317
  679MOL0     H91625   2.101   8.697  10.538 -0.9558 -1.4418  1.6753
  679MOL0     H91626   2.000   8.486  10.511 -0.6917 -0.9265  1.0887
  679MOL0     H91627   1.943   8.217  10.139 -0.2231 -1.5168 -1.2515
  679MOL0     H91628   1.872   8.007  10.002  0.5019  0.0651  0.0306
  679MOL0     H91629   1.522   7.793  10.114 -1.2154 -1.8698 -1.2346
  679MOL0     H91630   1.570   7.885   9.969 -0.7174  0.8000  0.4778
  679MOL0     H91631   1.679   7.602  10.006  0.3949  0.1042  1.3940
  679MOL0     H91632   1.510   7.621   9.980 -0.7713 -1.2803  1.5231
  679MOL0     H91633   1.545   7.745   9.768  0.3357  0.2373  0.1349
  679MOL0     H91634   1.726   7.748   9.807 -1.3810  1.9275  1.0264
  679MOL0     H91635   1.569   7.497   9.794 -1.4433  1.0725 -0.9746
  679MOL0     H91636   1.748   7.525   9.791  0.2174  2.5603  1.8385
  679MOL0     H91637   1.743   7.620   9.581  0.8844  0.8188  2.0419
  679MOL0     H91638   1.567   7.610   9.562  1.4429  2.1805  0.4637
  679MOL0     H91639   1.777   7.378   9.597  0.7000  0.4770 -0.4313
  679MOL0     H91640   1.612   7.341   9.563 -0.3645 -0.4802 -0.5075
  679MOL0     H91641   1.660   7.493   9.343  0.1067 -1.9612 -3.2539
  679MOL0     H91642   1.674   7.318   9.352  1.2987 -1.1356  0.6705
  679MOL0     H91643   1.919   7.337   9.383  1.8654  0.5330 -0.3856
  679MOL0     H91644   1.872   7.412   9.229 -0.7163  0.3329 -0.5592
  679MOL0     H91645   1.617   7.910  10.322 -0.4796  1.9020  2.3870
  679MOL0     H91646   1.676   8.093  10.447  2.1432 -0.6314  1.4262
  679MOL0     H91647   1.733   8.629  10.211  0.8259 -2.5292  0.2471
  679MOL0     H91648   1.822   8.867  10.249 -0.3817 -0.6803 -0.7719
  679MOL0     H91649   1.353   7.909  11.153 -0.4643  1.9883 -1.3406
  679MOL0     H91650   1.246   7.696  11.262 -1.6635  1.6599 -0.1377
  679MOL0     H91651   0.733   7.474  11.134  1.1296  3.8329  3.0762
  679MOL0     H91652   0.606   7.286  11.222  1.7262 -1.9634  1.1992
  679MOL0     H91653   0.804   6.968  11.433 -0.7796 -0.9367 -0.1452
  679MOL0     H91654   0.812   6.898  11.267 -0.8307 -1.4008  1.5962
  679MOL0     H91655   0.684   6.754  11.398 -0.5238 -1.2072 -2.6532
  679MOL0     H91656   0.557   6.839  11.300 -0.7707  0.6467  0.3891
  679MOL0     H91657   0.511   6.989  11.468  2.3748  0.8551 -0.7157
  679MOL0     H91658   0.621   6.938  11.584 -0.3553  2.9898 -1.6001
  679MOL0     H91659   0.485   6.718  11.596  2.1852  1.4014  1.8665
  679MOL0     H91660   0.389   6.854  11.642 -0.8496  0.8456 -0.8437
  679MOL0     H91661   0.197   6.743  11.289  2.3878 -1.7728 -2.1233
  679MOL0     H91662   0.966   7.078  11.297  0.7717 -0.0760  0.2291
  679MOL0     H91663   1.164   7.196  11.346  0.1480  1.0715  0.8209
  679MOL0     H91664   1.201   7.271  11.186 -1.4775  1.6570 -1.3910
  679MOL0     H91665   1.174   7.375  11.327  0.3715 -1.2641  2.3779
  680MOL0     O91666   7.752   2.729   7.745  0.8755  0.6671  0.3935
  680MOL0     C91667   7.842   2.794   7.703 -1.1622 -0.6050 -0.2645
  680MOL0     O91668   7.870   2.915   7.757  0.1923  0.4759 -0.2130
  680MOL0     C91669   7.803   2.949   7.874 -0.2654  0.7806  0.3269
  680MOL0     C91670   7.686   3.013   7.857  0.8074 -0.6597 -0.0563
  680MOL0     C91671   7.600   3.052   7.967  0.6338 -0.2547  0.3519
  680MOL0     C91672   7.636   3.017   8.096  0.1559  0.8420 -0.5203
  680MOL0     O91673   7.553   3.020   8.207  0.2447 -0.0880 -0.5725
  680MOL0     C91674   7.446   3.111   8.196 -0.2677 -0.7674  0.4600
  680MOL0     C91675   7.318   3.035   8.162  0.7920 -0.2613  0.3070
  680MOL0     C91676   7.220   3.131   8.079 -1.4191  0.4361  0.1805
  680MOL0     C91677   7.132   3.054   7.993 -0.2724  0.2933 -0.6726
  680MOL0     C91678   7.025   3.153   7.952 -0.2729 -1.0853 -0.0464
  680MOL0     C91679   6.904   3.091   7.885  0.5140 -0.0852 -0.0777
  680MOL0     C91680   6.805   3.015   7.981  0.2953 -0.2324  0.0760
  680MOL0     C91681   6.679   3.089   7.996 -0.4480  0.0718 -0.0868
  680MOL0     N91682   6.703   3.200   8.082  0.3637  0.5047 -0.3919
  680MOL0     C91683   6.720   3.173   8.215  0.0830 -0.6143 -0.6984
  680MOL0     C91684   6.710   3.296   8.271 -0.4316 -0.9180  0.3981
  680MOL0     C91685   6.724   3.312   8.427 -0.9897  0.4643  0.1781
  680MOL0     C91686   6.865   3.360   8.474 -0.6260  0.1858 -0.4544
  680MOL0     C91687   6.871   3.327   8.615 -0.8268  1.0005  0.1027
  680MOL0     C91688   6.995   3.386   8.683  0.1347 -0.5440  0.5441
  680MOL0     O91689   6.979   3.372   8.822  0.0821 -0.1152 -0.6080
  680MOL0     C91690   7.088   3.321   8.890  0.4562 -0.6514 -0.2020
  680MOL0     C91691   7.134   3.394   8.989 -1.0312  0.4999  0.1749
  680MOL0     C91692   7.236   3.354   9.070 -0.5126  0.1575 -0.7892
  680MOL0     C91693   7.293   3.232   9.045  0.5348 -0.8883 -0.7997
  680MOL0     C91694   7.414   3.190   9.120 -0.8704  0.4395 -0.3565
  680MOL0     O91695   7.480   3.069   9.084 -0.3507  0.9460 -0.3377
  680MOL0     C91696   7.605   3.026   9.133  1.4131 -0.7225 -0.5104
  680MOL0     C91697   7.630   2.896   9.120 -0.4913 -0.4198 -0.2568
  680MOL0     C91698   7.751   2.839   9.169  0.7136 -0.1677  0.0236
  680MOL0     C91699   7.846   2.926   9.219  0.9422  0.4762 -0.4720
  680MOL0     O91700   7.971   2.883   9.273  0.5881 -0.4911 -0.5551
  680MOL0     C91701   7.995   2.741   9.295  0.4966  0.2623  0.2835
  680MOL0     C91702   8.134   2.708   9.363 -0.4745  0.3361 -0.3180
  680MOL0     C91703   8.249   2.773   9.290  0.2578 -0.5298 -0.3255
  680MOL0     C91704   8.386   2.724   9.347 -0.3192 -0.7119  0.4793
  680MOL0     C91705   8.513   2.767   9.267 -0.3996 -0.3472  0.3290
  680MOL0     C91706   8.514   2.742   9.116  0.1323  0.4431 -0.5402
  680MOL0     C91707   8.634   2.795   9.037  0.1743  0.4454  0.3330
  680MOL0     C91708   8.621   2.770   8.886 -0.3869  1.0541  0.0325
  680MOL0    Cl91709   8.779   2.811   8.834 -0.1509  0.2206  0.4034
  680MOL0     C91710   7.822   3.060   9.212  0.1159 -0.1956  0.3259
  680MOL0     C91711   7.701   3.111   9.185 -0.4628 -0.0377 -0.6971
  680MOL0     O91712   7.442   3.261   9.218  0.5450 -0.2219 -0.1941
  680MOL0     C91713   7.251   3.155   8.942 -0.3784 -0.1813 -0.0911
  680MOL0     C91714   7.149   3.208   8.856 -0.4232 -0.4021 -0.0545
  680MOL0     N91715   6.700   3.392   8.170 -0.8870 -0.2334  0.1625
  680MOL0     N91716   6.699   3.334   8.057  0.1017  0.2452 -0.3842
  680MOL0     C91717   7.766   2.961   8.109  0.4854  0.1362  0.3493
  680MOL0     C91718   7.847   2.923   8.002 -0.0534 -1.4089 -0.7517
  680MOL0     C91719   7.941   2.728   7.610  0.5559  0.2527 -0.7386
  680MOL0     C91720   8.066   2.789   7.590 -0.2169  0.5719  0.5786
  680MOL0     C91721   8.164   2.737   7.512  0.1798  0.5460 -0.8949
  680MOL0     C91722   8.128   2.637   7.430 -0.0239  0.1060 -0.8586
  680MOL0     O91723   8.226   2.592   7.345 -0.2460 -0.3541 -0.3375
  680MOL0     C91724   8.197   2.552   7.211 -0.2381  0.5103 -0.2869
  680MOL0     C91725   8.153   2.683   7.139  1.0592  0.4521 -0.7682
  680MOL0     C91726   8.138   2.651   6.997 -0.0954 -0.5917  0.0883
  680MOL0     C91727   8.140   2.780   6.920 -0.1663 -0.0496 -0.5737
  680MOL0     C91728   8.058   2.889   6.971  0.1468 -0.2197 -1.0323
  680MOL0     C91729   7.977   2.976   6.997  0.2353 -0.6619  0.4275
  680MOL0     C91730   8.002   2.573   7.438  0.4700 -0.0849 -0.2099
  680MOL0     C91731   7.909   2.611   7.534 -0.8819 -0.1000  0.2568
  680MOL0     C91732   7.784   2.533   7.552 -1.1354 -0.7108  0.5074
  680MOL0     H91733   7.646   3.038   7.759 -0.2240  3.8419  1.2511
  680MOL0     H91734   7.507   3.100   7.939  1.0768 -0.8312 -2.3621
  680MOL0     H91735   7.433   3.165   8.290  1.2033  2.0924 -0.8647
  680MOL0     H91736   7.456   3.193   8.126 -5.1622 -1.0017 -0.9026
  680MOL0     H91737   7.280   2.998   8.257  1.4579 -1.4175  0.1443
  680MOL0     H91738   7.352   2.951   8.100  0.7170  0.4953 -0.7851
  680MOL0     H91739   7.281   3.203   8.024  0.6781  0.0821  1.8650
  680MOL0     H91740   7.169   3.190   8.156  2.0605  1.5954  1.8366
  680MOL0     H91741   7.172   2.994   7.911 -1.4461 -3.7777  1.4566
  680MOL0     H91742   7.085   2.974   8.051 -0.6827  1.4937  0.7180
  680MOL0     H91743   6.989   3.204   8.042  1.0134 -0.5651  0.2034
  680MOL0     H91744   7.065   3.219   7.874  0.3641 -2.5227 -0.9792
  680MOL0     H91745   6.858   3.173   7.830  1.4645 -1.2054 -2.7240
  680MOL0     H91746   6.928   3.036   7.793 -1.3795  3.0286 -2.6248
  680MOL0     H91747   6.852   2.990   8.077  1.1484 -0.4564 -0.3854
  680MOL0     H91748   6.770   2.919   7.943 -2.7021  1.1851 -0.9841
  680MOL0     H91749   6.639   3.121   7.899 -2.5064 -0.1478  0.6232
  680MOL0     H91750   6.606   3.022   8.044 -0.2203  0.4149  0.7676
  680MOL0     H91751   6.726   3.082   8.273 -0.0320 -0.8603 -1.0690
  680MOL0     H91752   6.646   3.376   8.470 -0.6231  1.3074 -0.3775
  680MOL0     H91753   6.710   3.215   8.476  1.7120  0.7028  1.6294
  680MOL0     H91754   6.949   3.319   8.416 -1.7880 -0.5137 -1.6981
  680MOL0     H91755   6.865   3.468   8.462 -2.8227  0.3037  0.2471
  680MOL0     H91756   6.889   3.219   8.622 -1.4811  0.9010  0.3483
  680MOL0     H91757   6.780   3.349   8.672 -2.5555 -0.4850 -1.9188
  680MOL0     H91758   7.005   3.495   8.672  0.8141 -0.7723 -1.7021
  680MOL0     H91759   7.079   3.329   8.642 -0.6678  0.4527 -2.8113
  680MOL0     H91760   7.079   3.484   9.017 -0.3242  0.0096  3.4412
  680MOL0     H91761   7.254   3.428   9.147  0.5997 -0.0881 -0.7909
  680MOL0     H91762   7.557   2.834   9.069 -3.0476 -0.8176  3.4289
  680MOL0     H91763   7.770   2.733   9.155 -0.3047 -0.5999  1.6296
  680MOL0     H91764   7.911   2.710   9.356  1.2913 -1.4870  0.5419
  680MOL0     H91765   7.993   2.691   9.198 -0.6369  0.8848 -0.0289
  680MOL0     H91766   8.136   2.739   9.468 -1.5472 -1.1141  0.1625
  680MOL0     H91767   8.155   2.601   9.360  1.4280  0.6720  0.0685
  680MOL0     H91768   8.240   2.745   9.185 -1.2451  0.1599 -0.4127
  680MOL0     H91769   8.246   2.882   9.294 -1.3499 -0.3205 -3.8039
  680MOL0     H91770   8.375   2.616   9.337 -1.2697 -0.6628  0.9265
  680MOL0     H91771   8.392   2.746   9.454  1.5752  1.6800 -0.0093
  680MOL0     H91772   8.599   2.714   9.308 -1.8738  0.3203  4.7909
  680MOL0     H91773   8.521   2.876   9.279  2.2187 -0.2072 -1.6651
  680MOL0     H91774   8.518   2.633   9.108 -0.7961  0.4315 -1.0007
  680MOL0     H91775   8.419   2.786   9.084  0.0699  1.7227  1.2553
  680MOL0     H91776   8.728   2.749   9.067  1.2070  2.1833 -0.1169
  680MOL0     H91777   8.645   2.901   9.060 -1.1863  1.0978 -1.7849
  680MOL0     H91778   8.596   2.671   8.848  0.5099  1.5878 -2.1459
  680MOL0     H91779   8.554   2.847   8.845 -2.4733 -1.0728 -0.8180
  680MOL0     H91780   7.902   3.123   9.251  1.6047 -2.2441  0.7615
  680MOL0     H91781   7.682   3.217   9.175 -1.1829 -0.1659 -0.7716
  680MOL0     H91782   7.305   3.064   8.918 -0.0001 -0.1078  0.4507
  680MOL0     H91783   7.107   3.158   8.769  1.7358 -2.3552 -0.0660
  680MOL0     H91784   7.796   2.933   8.210  0.8403 -4.5935 -0.8440
  680MOL0     H91785   7.934   2.865   8.028  1.4429  1.0541  0.0822
  680MOL0     H91786   8.081   2.881   7.645  0.9322 -0.6357  2.4055
  680MOL0     H91787   8.263   2.780   7.497  0.7244 -0.9801 -1.9352
  680MOL0     H91788   8.121   2.473   7.204 -1.4330  1.5075  0.9790
  680MOL0     H91789   8.284   2.507   7.161 -1.2307 -2.0828  0.1342
  680MOL0     H91790   8.237   2.753   7.143  1.3368  0.1026  2.1845
  680MOL0     H91791   8.067   2.724   7.193 -0.4389  1.2879 -3.6138
  680MOL0     H91792   8.048   2.593   6.976  0.6572 -1.8588  0.2948
  680MOL0     H91793   8.224   2.591   6.964  0.6910 -0.0075  0.9978
  680MOL0     H91794   8.243   2.814   6.910 -0.5079  2.0300  1.9303
  680MOL0     H91795   8.108   2.768   6.816  0.8418  3.9598 -1.5059
  680MOL0     H91796   7.894   3.039   7.022 -0.3124  1.4074 -5.1875
  680MOL0     H91797   7.980   2.490   7.371 -0.4491  0.3034 -0.3975
  680MOL0     H91798   7.768   2.510   7.658  0.2385 -0.5997  0.7611
  680MOL0     H91799   7.692   2.584   7.522  1.5078  4.5047  0.0854
  680MOL0     H91800   7.793   2.443   7.490  0.4855  1.0924 -2.0658
  681MOL0     O91801   9.148   6.524   4.900  0.1959 -0.6882 -0.2000
  681MOL0     C91802   9.216   6.427   4.874  0.1617 -0.7633 -0.0838
  681MOL0     O91803   9.317   6.431   4.789 -0.1885 -0.9649  0.1177
  681MOL0     C91804   9.373   6.551   4.748  1.0961 -0.2472  0.6139
  681MOL0     C91805   9.430   6.637   4.846  0.7267 -0.1870  0.7090
  681MOL0     C91806   9.492   6.759   4.799 -0.4403  0.6685 -0.2729
  681MOL0     C91807   9.516   6.782   4.667  0.8890 -0.4559  0.1175
  681MOL0     O91808   9.581   6.904   4.650  0.1253  0.7473  0.4166
  681MOL0     C91809   9.642   6.912   4.521 -1.2715  0.2850  0.2177
  681MOL0     C91810   9.723   7.041   4.515 -0.4403 -0.4994  0.1638
  681MOL0     C91811   9.823   7.027   4.400 -0.7164 -0.4493 -0.5111
  681MOL0     C91812   9.927   7.152   4.394  0.4518 -0.7587  0.2550
  681MOL0     C91813  10.014   7.172   4.518 -0.6130 -0.8361  0.2372
  681MOL0     C91814  10.139   7.266   4.501 -0.0495  0.2014  0.2113
  681MOL0     C91815  10.198   7.304   4.635  0.2615 -0.7157 -0.1721
  681MOL0     C91816  10.299   7.423   4.609  0.7513 -0.0731 -0.1080
  681MOL0     N91817  10.429   7.366   4.566  0.1472  0.0249 -1.2451
  681MOL0     C91818  10.524   7.317   4.650  1.7890  0.6651 -0.3972
  681MOL0     C91819  10.625   7.289   4.561 -0.1229  0.0015 -0.2982
  681MOL0     C91820  10.769   7.263   4.591 -0.5026 -0.2889  0.3927
  681MOL0     C91821  10.862   7.364   4.518  0.1056 -0.7635  0.0511
  681MOL0     C91822  11.002   7.372   4.581 -0.0662  0.3612  0.3164
  681MOL0     C91823  11.060   7.236   4.595  0.5108 -0.5035  1.0160
  681MOL0     O91824  11.090   7.192   4.467 -0.1729 -0.2766 -0.3443
  681MOL0     C91825  11.210   7.232   4.411 -0.5672 -0.1732 -0.2449
  681MOL0     C91826  11.204   7.268   4.275  0.3857 -0.0149  0.4360
  681MOL0     C91827  11.322   7.298   4.208 -1.4643  0.4292  0.4346
  681MOL0     C91828  11.445   7.284   4.270 -0.5301 -0.0747 -0.1212
  681MOL0     C91829  11.575   7.317   4.204 -0.1898  0.4618 -0.5582
  681MOL0     O91830  11.688   7.338   4.286 -0.4202  0.2759 -0.7864
  681MOL0     C91831  11.813   7.325   4.216 -0.1486  0.1198 -0.3296
  681MOL0     C91832  11.853   7.226   4.118  0.0745 -1.1928  0.3050
  681MOL0     C91833  11.981   7.229   4.070  0.0540  1.0717 -0.1021
  681MOL0     C91834  12.073   7.317   4.110 -0.2740  0.7079 -0.7359
  681MOL0     O91835  12.197   7.297   4.055  0.1557 -0.1227  0.5283
  681MOL0     C91836  12.304   7.393   4.081 -0.6474  0.5802  1.1110
  681MOL0     C91837  12.424   7.337   4.003 -0.1022 -0.0898 -0.6709
  681MOL0     C91838  12.553   7.424   4.026  0.3358  0.7276  0.4911
  681MOL0     C91839  12.663   7.349   3.959  0.0302  0.1965  0.4331
  681MOL0     C91840  12.797   7.419   3.987  0.1969  0.5765  0.2798
  681MOL0     C91841  12.918   7.339   3.925  0.5096  0.1059  0.2152
  681MOL0     C91842  13.038   7.432   3.901  0.0322  0.1330  0.3754
  681MOL0     C91843  13.106   7.488   4.031 -0.2109  0.3017  0.0368
  681MOL0    Cl91844  13.248   7.579   3.999  0.5968 -0.1345 -0.0113
  681MOL0     C91845  12.037   7.412   4.210  0.1150 -0.4317 -0.0558
  681MOL0     C91846  11.914   7.417   4.261 -0.6063 -0.2528 -0.0197
  681MOL0     O91847  11.568   7.333   4.079 -0.2633 -0.1419  0.4802
  681MOL0     C91848  11.453   7.235   4.400 -0.2145  0.0568  0.2138
  681MOL0     C91849  11.335   7.214   4.476  0.6645 -0.4459 -0.0395
  681MOL0     N91850  10.573   7.290   4.435  0.1047 -1.2168 -0.8217
  681MOL0     N91851  10.456   7.340   4.444  0.5588  0.4119  1.0532
  681MOL0     C91852   9.467   6.688   4.575 -0.9353 -0.1551  0.2853
  681MOL0     C91853   9.385   6.579   4.611 -0.3843  0.4029  0.3316
  681MOL0     C91854   9.181   6.298   4.933  0.0933 -0.2350 -0.2196
  681MOL0     C91855   9.276   6.196   4.914  0.0815 -1.5178 -0.0565
  681MOL0     C91856   9.246   6.067   4.940  0.0385  0.0860  0.6239
  681MOL0     C91857   9.132   6.021   5.006 -0.0848  0.3215  0.0386
  681MOL0     O91858   9.106   5.882   5.023  0.0873  0.0459  0.5250
  681MOL0     C91859   9.003   5.839   5.116 -0.9040 -0.5206  1.3771
  681MOL0     C91860   8.892   5.767   5.032 -0.6314 -0.0345 -1.1561
  681MOL0     C91861   8.834   5.865   4.924  0.0691  0.5946 -1.0587
  681MOL0     C91862   8.923   5.875   4.803 -0.0922 -1.0608 -0.3934
  681MOL0     C91863   8.830   5.882   4.686  0.7424 -0.3065  0.4597
  681MOL0     C91864   8.757   5.888   4.582  0.0440  0.8179  0.6408
  681MOL0     C91865   9.050   6.126   5.039  0.3789 -0.7455 -0.8863
  681MOL0     C91866   9.065   6.261   5.000 -0.6595 -0.5530  0.0035
  681MOL0     C91867   8.954   6.361   5.033  0.0865  0.4204  0.6062
  681MOL0     H91868   9.409   6.612   4.950 -3.2200  0.9137  0.3361
  681MOL0     H91869   9.538   6.831   4.866 -0.3342  0.2607  0.0946
  681MOL0     H91870   9.687   6.823   4.476 -1.0090  0.8194 -0.5958
  681MOL0     H91871   9.558   6.933   4.455 -0.0591  0.8878 -1.1944
  681MOL0     H91872   9.763   7.058   4.616  1.5560 -0.8079 -0.5246
  681MOL0     H91873   9.668   7.132   4.493  1.3716  0.0088 -2.7068
  681MOL0     H91874   9.770   7.030   4.304  0.3280 -0.9755 -1.1189
  681MOL0     H91875   9.863   6.925   4.394  1.6694  0.4370 -0.5913
  681MOL0     H91876   9.978   7.147   4.298  0.6779  2.8049  0.0679
  681MOL0     H91877   9.871   7.246   4.386 -0.2689 -0.9741  2.2056
  681MOL0     H91878   9.952   7.207   4.601  0.4619  4.2787 -0.7548
  681MOL0     H91879  10.057   7.077   4.551 -1.3241 -1.6881 -1.2020
  681MOL0     H91880  10.214   7.222   4.434  0.1065 -1.1144  1.2245
  681MOL0     H91881  10.112   7.359   4.450  0.5961 -0.7889 -2.1167
  681MOL0     H91882  10.254   7.225   4.686  1.1899  0.2391  0.3252
  681MOL0     H91883  10.114   7.333   4.699  0.1544 -1.3467 -0.0246
  681MOL0     H91884  10.264   7.496   4.536  0.6401  1.8781  1.7789
  681MOL0     H91885  10.309   7.471   4.707  0.3725 -0.5000  0.1442
  681MOL0     H91886  10.530   7.327   4.758 -1.9016  0.4567 -0.0564
  681MOL0     H91887  10.803   7.266   4.695  1.5799  0.5617 -0.2764
  681MOL0     H91888  10.788   7.164   4.549  0.2056 -0.1122  0.2857
  681MOL0     H91889  10.868   7.343   4.411 -1.5801 -0.5570 -0.1215
  681MOL0     H91890  10.812   7.462   4.517  0.0480 -0.7943 -0.8564
  681MOL0     H91891  11.002   7.410   4.684  1.6106 -0.0996  0.5240
  681MOL0     H91892  11.068   7.436   4.521 -0.9318  2.7841  1.8198
  681MOL0     H91893  10.991   7.159   4.630 -1.7001  0.3768 -1.0987
  681MOL0     H91894  11.145   7.220   4.662 -0.3948 -2.8138  1.7181
  681MOL0     H91895  11.101   7.278   4.245 -0.0970 -0.8859  1.7362
  681MOL0     H91896  11.331   7.321   4.102  1.3912 -0.7088  0.3418
  681MOL0     H91897  11.776   7.161   4.076 -1.2910  0.3208  0.3800
  681MOL0     H91898  12.010   7.164   3.988 -0.5513  0.6709 -0.0079
  681MOL0     H91899  12.261   7.487   4.045 -0.2523  0.9204  1.5230
  681MOL0     H91900  12.332   7.399   4.186  1.8910 -1.0985  0.6199
  681MOL0     H91901  12.444   7.234   4.034 -0.7543  0.2908  1.1350
  681MOL0     H91902  12.397   7.339   3.897  0.5540 -0.6020 -0.8493
  681MOL0     H91903  12.548   7.520   3.973  2.8409 -2.0239 -5.6235
  681MOL0     H91904  12.576   7.431   4.132 -0.9161 -0.3314  0.8596
  681MOL0     H91905  12.653   7.348   3.850  0.8065 -0.1898  0.3642
  681MOL0     H91906  12.661   7.248   4.001 -0.5159 -0.6155 -1.4628
  681MOL0     H91907  12.805   7.419   4.096 -4.1286 -0.7939  0.7828
  681MOL0     H91908  12.771   7.519   3.950 -2.6087  0.3812  1.4687
  681MOL0     H91909  12.948   7.248   3.977 -0.4739 -0.3875 -0.0510
  681MOL0     H91910  12.880   7.298   3.831  0.0551 -0.8078  0.7854
  681MOL0     H91911  13.002   7.520   3.848 -0.9706 -1.2417 -1.3430
  681MOL0     H91912  13.118   7.383   3.844  1.3916  1.7559  0.8102
  681MOL0     H91913  13.046   7.553   4.095 -1.9072  0.2101 -1.3757
  681MOL0     H91914  13.141   7.402   4.088  0.4479  2.1544  2.6390
  681MOL0     H91915  12.099   7.493   4.247 -0.2700  0.8729 -2.0737
  681MOL0     H91916  11.877   7.497   4.325  0.1324 -0.8464  1.1807
  681MOL0     H91917  11.551   7.222   4.443 -0.1831 -2.6554 -0.5256
  681MOL0     H91918  11.337   7.178   4.579 -1.4866  1.0867  0.6203
  681MOL0     H91919   9.478   6.696   4.468 -3.8024  0.9918 -0.0120
  681MOL0     H91920   9.340   6.512   4.539  0.7376 -1.2317  1.0976
  681MOL0     H91921   9.367   6.209   4.856 -0.9985 -1.4065 -1.8303
  681MOL0     H91922   9.314   5.995   4.896  0.1713 -0.3626  1.5300
  681MOL0     H91923   8.970   5.921   5.180 -1.4514  0.9378 -0.6695
  681MOL0     H91924   9.038   5.764   5.187  1.6113 -0.4018  0.3724
  681MOL0     H91925   8.813   5.739   5.102  0.2175 -1.4920 -0.7515
  681MOL0     H91926   8.930   5.678   4.982 -1.3730  0.4835 -2.6945
  681MOL0     H91927   8.815   5.968   4.955  1.1746  0.0600  1.6806
  681MOL0     H91928   8.742   5.814   4.892  1.9838 -3.2591 -1.1271
  681MOL0     H91929   8.981   5.968   4.799 -0.9117 -0.4186  1.4287
  681MOL0     H91930   8.988   5.788   4.786 -0.3920 -0.6533 -4.7219
  681MOL0     H91931   8.715   5.881   4.484  1.2163 -0.1902  0.1701
  681MOL0     H91932   8.951   6.113   5.081 -0.9359  0.6587 -3.3664
  681MOL0     H91933   8.943   6.436   4.954 -1.2170  0.8261  1.1577
  681MOL0     H91934   8.858   6.309   5.033  0.0255  0.0702 -4.2840
  681MOL0     H91935   8.977   6.406   5.130  0.8789  0.2510  0.5012
  682MOL0     O91936   2.097   8.583   3.058  0.0712  0.1611 -0.7906
  682MOL0     C91937   2.140   8.493   3.134 -0.4498 -0.1936  0.0104
  682MOL0     O91938   2.104   8.475   3.268  0.0146 -0.0763  0.7728
  682MOL0     C91939   1.974   8.514   3.304  0.0137 -0.0281 -0.0515
  682MOL0     C91940   1.955   8.631   3.373  0.6255 -0.5145 -1.0173
  682MOL0     C91941   1.826   8.679   3.404  0.0843 -0.3207  0.7854
  682MOL0     C91942   1.710   8.600   3.364  0.0468 -0.3219 -0.9685
  682MOL0     O91943   1.588   8.636   3.414 -0.2784 -0.2996  0.1512
  682MOL0     C91944   1.482   8.542   3.398  0.2161  0.3167 -0.2933
  682MOL0     C91945   1.401   8.553   3.258 -0.5487  0.6467  0.5681
  682MOL0     C91946   1.267   8.485   3.280  0.8329  0.4931  0.5405
  682MOL0     C91947   1.191   8.462   3.144 -0.1821  0.0834  0.5113
  682MOL0     C91948   1.047   8.416   3.159  0.3453  1.2143 -0.4170
  682MOL0     C91949   1.029   8.290   3.246 -0.3032 -0.9831 -0.0493
  682MOL0     C91950   1.080   8.156   3.184 -0.1625 -0.6603 -0.3132
  682MOL0     C91951   1.003   8.098   3.065 -0.1678 -0.3738  0.1421
  682MOL0     N91952   1.089   7.990   3.003 -0.0778 -0.2720 -1.5175
  682MOL0     C91953   1.084   7.854   3.013  0.2340  0.4337  0.1430
  682MOL0     C91954   1.203   7.815   2.949  0.5070  0.3133 -0.3733
  682MOL0     C91955   1.263   7.675   2.936 -0.2476  0.2055 -0.3515
  682MOL0     C91956   1.403   7.675   2.882 -0.2744  0.1862 -0.1297
  682MOL0     C91957   1.507   7.764   2.958  0.2682 -0.9220 -0.2512
  682MOL0     C91958   1.647   7.720   2.938 -1.0087 -0.4997  0.3523
  682MOL0     O91959   1.669   7.584   2.988  0.4380  0.0474 -0.1020
  682MOL0     C91960   1.797   7.528   2.991 -0.7385  0.1592  0.0884
  682MOL0     C91961   1.909   7.603   2.947 -0.5793  0.0439  0.3474
  682MOL0     C91962   2.038   7.550   2.940 -0.9541  0.0718 -0.9186
  682MOL0     C91963   2.062   7.417   2.992 -0.7708 -0.9335  0.3124
  682MOL0     C91964   2.193   7.356   2.980 -0.0040  0.2641  0.9780
  682MOL0     O91965   2.221   7.259   3.070  0.3621  0.0237  0.6585
  682MOL0     C91966   2.336   7.189   3.067  0.3658 -0.1262 -0.5025
  682MOL0     C91967   2.462   7.258   3.082  0.8210 -0.1975 -0.8061
  682MOL0     C91968   2.581   7.184   3.078 -0.0865  0.0713  1.6072
  682MOL0     C91969   2.587   7.039   3.061 -0.4345  0.5913  0.2593
  682MOL0     O91970   2.686   6.950   3.026  0.1841 -0.1127  0.7007
  682MOL0     C91971   2.819   6.997   2.993 -0.1861  1.0603 -0.0132
  682MOL0     C91972   2.909   6.874   2.983 -0.8897  0.4972  0.3621
  682MOL0     C91973   2.903   6.793   2.850  0.4444 -0.4377  0.4586
  682MOL0     C91974   2.809   6.665   2.867 -0.1758 -0.4844  0.0120
  682MOL0     C91975   2.806   6.585   2.738  0.4318  1.0371  0.0220
  682MOL0     C91976   2.941   6.517   2.716  0.3571 -0.5255  0.0451
  682MOL0     C91977   2.958   6.462   2.573 -0.2076 -0.0757 -0.0824
  682MOL0     C91978   3.104   6.425   2.546 -0.0879 -0.2403  0.0305
  682MOL0    Cl91979   3.166   6.279   2.638 -0.1078 -0.3764 -0.1588
  682MOL0     C91980   2.461   6.978   3.065 -0.4021  0.6045 -0.2300
  682MOL0     C91981   2.339   7.056   3.059 -0.4380 -0.3131 -0.1186
  682MOL0     O91982   2.262   7.381   2.886  0.1307 -0.1648  0.3421
  682MOL0     C91983   1.953   7.348   3.046 -0.7139  0.3166  0.5149
  682MOL0     C91984   1.819   7.399   3.032  0.6201  0.0291  0.0397
  682MOL0     N91985   1.254   7.925   2.885 -0.2332  0.3837  0.9874
  682MOL0     N91986   1.191   8.035   2.921  0.5454 -0.1486 -0.4092
  682MOL0     C91987   1.733   8.477   3.296  0.1168 -0.0733 -0.4858
  682MOL0     C91988   1.856   8.438   3.268 -1.1972  0.0050  0.4495
  682MOL0     C91989   2.237   8.392   3.081  0.5914  0.4824  0.1329
  682MOL0     C91990   2.266   8.274   3.167 -0.1873  0.0581  0.0552
  682MOL0     C91991   2.360   8.178   3.121  0.0170  0.0307 -0.2241
  682MOL0     C91992   2.427   8.188   2.999  0.6211  0.0516  0.6028
  682MOL0     O91993   2.504   8.091   2.959  0.1167  0.3588  0.5662
  682MOL0     C91994   2.423   7.985   2.902 -0.3522 -0.2095  0.0963
  682MOL0     C91995   2.453   7.852   2.970  0.3826  0.7290 -0.4149
  682MOL0     C91996   2.433   7.746   2.861 -0.1041  0.2049 -0.2029
  682MOL0     C91997   2.484   7.617   2.910  0.3473 -0.3975  0.3214
  682MOL0     C91998   2.628   7.598   2.903  0.8300  0.5168  0.1292
  682MOL0     C91999   2.742   7.572   2.894  0.8112 -0.8484 -0.0856
  682MOL0     C92000   2.399   8.311   2.924  0.1247  0.1255  0.8175
  682MOL0     C92001   2.309   8.411   2.964 -0.3406 -1.4238 -0.4049
  682MOL0     C92002   2.305   8.534   2.882  0.3103  0.5370  0.8987
  682MOL0     H92003   2.039   8.687   3.412 -0.6244 -0.5079  1.9199
  682MOL0     H92004   1.825   8.777   3.451  0.9961 -0.6008  1.4342
  682MOL0     H92005   1.509   8.438   3.414 -1.2257 -0.3922 -2.1069
  682MOL0     H92006   1.405   8.569   3.471  1.3430 -0.0711  1.0765
  682MOL0     H92007   1.447   8.497   3.177 -0.0064 -0.1726  1.4111
  682MOL0     H92008   1.390   8.659   3.235 -0.1695  0.3884 -0.8791
  682MOL0     H92009   1.198   8.539   3.345 -2.1359 -3.4887  1.0925
  682MOL0     H92010   1.281   8.385   3.323 -3.0966 -0.0390  0.8837
  682MOL0     H92011   1.197   8.550   3.079 -1.1645 -0.8083 -0.8646
  682MOL0     H92012   1.236   8.383   3.083 -0.5996 -1.5472  2.2225
  682MOL0     H92013   0.986   8.497   3.200 -0.1780  1.4624 -1.6230
  682MOL0     H92014   1.006   8.392   3.060 -3.2943  0.2261  1.1685
  682MOL0     H92015   1.062   8.306   3.349 -1.9285  0.1733  0.3371
  682MOL0     H92016   0.924   8.265   3.258 -0.0175 -3.9395 -2.4829
  682MOL0     H92017   1.081   8.082   3.265 -1.5158  3.3823  3.8279
  682MOL0     H92018   1.180   8.169   3.142 -0.7560  0.1779 -1.5302
  682MOL0     H92019   0.909   8.058   3.104 -1.0120  2.7042  1.5774
  682MOL0     H92020   0.983   8.176   2.992 -0.3343 -0.8193 -0.2922
  682MOL0     H92021   1.011   7.789   3.061 -1.9093  1.7852 -1.1318
  682MOL0     H92022   1.263   7.604   3.019 -0.4130  1.7676  1.0493
  682MOL0     H92023   1.200   7.619   2.866 -1.5724 -2.2141  2.5765
  682MOL0     H92024   1.435   7.570   2.888  0.0557  0.3479  1.9199
  682MOL0     H92025   1.394   7.701   2.777 -0.7016 -1.6032 -0.5676
  682MOL0     H92026   1.469   7.743   3.059 -0.2158 -2.2793 -0.6998
  682MOL0     H92027   1.503   7.871   2.935  4.6258 -0.1210  1.6807
  682MOL0     H92028   1.722   7.781   2.989  2.0969 -2.0264 -2.0018
  682MOL0     H92029   1.672   7.717   2.832 -0.4083  0.2634  0.4618
  682MOL0     H92030   1.902   7.698   2.894  2.3754 -1.0983 -2.4694
  682MOL0     H92031   2.123   7.607   2.902  2.2707 -2.9794  1.0658
  682MOL0     H92032   2.464   7.366   3.073  0.8452 -0.2475 -1.4659
  682MOL0     H92033   2.676   7.236   3.080  1.5613 -2.4929 -1.1943
  682MOL0     H92034   2.815   7.048   2.896  0.0793 -1.1997 -1.2957
  682MOL0     H92035   2.873   7.063   3.062  3.0965  0.0760 -1.4250
  682MOL0     H92036   3.013   6.908   2.988  1.9990 -6.4352 -1.2594
  682MOL0     H92037   2.898   6.805   3.067  2.6132  1.1606  1.4949
  682MOL0     H92038   2.879   6.863   2.770 -0.5697 -0.0752  1.0629
  682MOL0     H92039   3.005   6.754   2.835  0.4704  0.2134 -1.3147
  682MOL0     H92040   2.712   6.713   2.878  0.8742  2.3354 -1.9635
  682MOL0     H92041   2.832   6.608   2.958 -2.5724  1.4715  1.9623
  682MOL0     H92042   2.795   6.652   2.652 -4.1509 -2.6327 -2.7448
  682MOL0     H92043   2.727   6.510   2.738  1.5546 -0.2620 -2.2728
  682MOL0     H92044   3.018   6.592   2.738 -1.6616  1.2304  1.4426
  682MOL0     H92045   2.955   6.450   2.801 -0.8485  0.3238  0.9427
  682MOL0     H92046   2.928   6.536   2.499  1.5531  1.2668  0.4642
  682MOL0     H92047   2.893   6.376   2.556 -1.4031  0.7680  0.1347
  682MOL0     H92048   3.123   6.402   2.441 -3.5952 -2.3148 -0.2811
  682MOL0     H92049   3.168   6.510   2.573 -0.7327  0.1704  0.2813
  682MOL0     H92050   2.460   6.870   3.056  1.6890  0.6843 -2.6705
  682MOL0     H92051   2.239   7.014   3.056  0.4148 -2.4423 -0.9858
  682MOL0     H92052   1.961   7.244   3.075  0.7781 -0.0723 -1.1207
  682MOL0     H92053   1.732   7.342   3.062  0.0921 -0.5383 -2.3755
  682MOL0     H92054   1.661   8.400   3.269  0.8856 -1.3216  0.9047
  682MOL0     H92055   1.873   8.357   3.197 -1.6955  2.3212 -2.5009
  682MOL0     H92056   2.226   8.265   3.267 -0.8526  0.9544 -0.1242
  682MOL0     H92057   2.393   8.093   3.180 -1.1133  0.3387  0.9033
  682MOL0     H92058   2.457   7.976   2.798 -0.8777  0.7750 -0.1773
  682MOL0     H92059   2.316   8.002   2.911 -0.1623  1.2183 -0.0084
  682MOL0     H92060   2.388   7.834   3.057 -0.6289 -0.3301 -1.3607
  682MOL0     H92061   2.557   7.850   3.003 -0.1267  3.8221  1.8987
  682MOL0     H92062   2.481   7.768   2.765  0.3551 -0.8265 -0.2322
  682MOL0     H92063   2.325   7.737   2.846  0.1897 -0.4103 -2.2125
  682MOL0     H92064   2.447   7.595   3.011 -0.6426 -0.5725 -0.0722
  682MOL0     H92065   2.444   7.549   2.834  0.4228  1.8630 -1.8818
  682MOL0     H92066   2.847   7.554   2.906  0.9206  0.1895  0.6041
  682MOL0     H92067   2.441   8.324   2.824  4.8117  1.3820  2.6786
  682MOL0     H92068   2.207   8.551   2.836 -0.8942 -1.4494  2.5471
  682MOL0     H92069   2.319   8.619   2.950  1.2421  0.0290  1.3647
  682MOL0     H92070   2.381   8.540   2.803 -1.6486 -0.1069 -1.1558
  683MOL0     O92071   1.098  10.689   5.758 -0.0921 -0.4428  0.2999
  683MOL0     C92072   1.111  10.572   5.743  0.1075  1.2049  0.0577
  683MOL0     O92073   1.244  10.507   5.752 -0.2231 -0.7359 -0.1880
  683MOL0     C92074   1.346  10.592   5.793  0.6814 -0.5234  0.1034
  683MOL0     C92075   1.392  10.698   5.712 -0.0843 -0.5645 -0.4958
  683MOL0     C92076   1.498  10.774   5.754 -1.1985  0.3698 -0.3271
  683MOL0     C92077   1.539  10.777   5.887 -0.1108  0.2933  1.0625
  683MOL0     O92078   1.630  10.874   5.921  0.0523  0.8638  0.1202
  683MOL0     C92079   1.722  10.838   6.026  0.8562 -0.4008 -0.2201
  683MOL0     C92080   1.833  10.936   6.050 -0.6621 -0.7773  0.2994
  683MOL0     C92081   1.792  11.091   6.060  0.4210  0.0403  0.7223
  683MOL0     C92082   1.891  11.182   6.118  0.6213  0.5248  0.1859
  683MOL0     C92083   1.838  11.323   6.130  0.7802  0.0320 -0.7263
  683MOL0     C92084   1.922  11.398   6.233  0.1088 -0.0716 -0.1126
  683MOL0     C92085   1.856  11.533   6.269  0.2591 -0.5411  0.7802
  683MOL0     C92086   1.931  11.618   6.362 -0.3899 -0.2321  0.2350
  683MOL0     N92087   2.045  11.703   6.310  0.1000 -0.4009  0.3023
  683MOL0     C92088   2.168  11.728   6.365 -0.2000 -0.5386 -0.8988
  683MOL0     C92089   2.235  11.797   6.276  0.1742 -0.4203 -0.1418
  683MOL0     C92090   2.372  11.867   6.289 -0.2639  0.8867 -1.1967
  683MOL0     C92091   2.374  12.023   6.291  0.2735 -0.2578 -0.1452
  683MOL0     C92092   2.283  12.086   6.397 -0.4718  0.3754 -0.7499
  683MOL0     C92093   2.349  12.088   6.539 -0.2434 -0.3272 -0.4858
  683MOL0     O92094   2.250  12.107   6.644  0.3926 -0.2075  0.1918
  683MOL0     C92095   2.174  11.996   6.658  0.0722  0.1214  0.0456
  683MOL0     C92096   2.059  11.963   6.590 -0.4494 -1.0283 -0.7933
  683MOL0     C92097   2.004  11.837   6.609  0.0706  0.0510  1.0338
  683MOL0     C92098   2.048  11.735   6.695  0.0654 -0.0869  1.0103
  683MOL0     C92099   1.969  11.611   6.732 -0.6089  0.0611 -0.3556
  683MOL0     O92100   1.839  11.599   6.699 -0.5480  0.1216 -1.7891
  683MOL0     C92101   1.750  11.498   6.732 -0.1688  0.6129 -0.6130
  683MOL0     C92102   1.781  11.363   6.762 -1.4378 -0.5099 -0.2116
  683MOL0     C92103   1.682  11.267   6.769 -0.3011  0.0153 -1.0824
  683MOL0     C92104   1.549  11.301   6.754 -0.1967 -0.4415 -0.0572
  683MOL0     O92105   1.436  11.214   6.752  0.1147  0.1120  0.6167
  683MOL0     C92106   1.435  11.076   6.767  0.2065  0.4074 -0.2895
  683MOL0     C92107   1.309  11.025   6.697  0.9252 -0.5141 -0.5205
  683MOL0     C92108   1.315  10.874   6.683  0.7519 -0.5383 -0.2342
  683MOL0     C92109   1.169  10.823   6.708  0.4581 -0.2049  0.5749
  683MOL0     C92110   1.136  10.670   6.697 -0.4491 -0.0868  0.1037
  683MOL0     C92111   1.226  10.589   6.804  0.5775 -0.5995  1.0048
  683MOL0     C92112   1.151  10.464   6.845 -0.5120 -0.3927 -0.0573
  683MOL0     C92113   1.251  10.395   6.938  0.1742 -0.2594  0.5031
  683MOL0    Cl92114   1.204  10.231   6.956  0.1385 -0.0172  0.0364
  683MOL0     C92115   1.515  11.436   6.724  0.0318  0.0035 -0.3625
  683MOL0     C92116   1.618  11.530   6.704  0.5042 -0.4504  0.1225
  683MOL0     O92117   2.026  11.538   6.817 -0.2874 -1.4861 -0.1721
  683MOL0     C92118   2.167  11.767   6.771  0.1415 -0.7083 -0.5792
  683MOL0     C92119   2.228  11.894   6.750  0.2783 -0.6914 -0.5267
  683MOL0     N92120   2.151  11.817   6.167 -0.2118  0.2227  0.1307
  683MOL0     N92121   2.036  11.757   6.185 -0.2060  0.9699  0.6252
  683MOL0     C92122   1.500  10.670   5.970 -0.6899  0.1146 -0.2431
  683MOL0     C92123   1.407  10.572   5.916 -0.4532 -0.5800 -1.1093
  683MOL0     C92124   0.994  10.492   5.711  0.1962  0.3557  0.0602
  683MOL0     C92125   0.862  10.533   5.741  0.2383 -0.8459  0.0346
  683MOL0     C92126   0.753  10.450   5.725 -0.0450 -0.0793  0.0945
  683MOL0     C92127   0.769  10.325   5.672 -0.4254  0.4422 -0.5771
  683MOL0     O92128   0.683  10.223   5.671  0.7857  0.6871  0.3512
  683MOL0     C92129   0.543  10.256   5.667 -0.2218 -1.0628  0.5001
  683MOL0     C92130   0.479  10.143   5.586  1.0200  0.3809 -0.7391
  683MOL0     C92131   0.485  10.194   5.447  1.4079 -0.5926 -0.4266
  683MOL0     C92132   0.403  10.106   5.351  0.3359 -0.4122 -0.7470
  683MOL0     C92133   0.473   9.980   5.337 -0.3989  0.1704 -0.2477
  683MOL0     C92134   0.526   9.866   5.318 -0.7997  0.0160  0.3642
  683MOL0     C92135   0.899  10.284   5.634 -0.7578 -0.7502  0.0742
  683MOL0     C92136   1.011  10.366   5.645 -0.1293  0.1435  0.0036
  683MOL0     C92137   1.136  10.310   5.586  0.9386 -0.1163  0.3638
  683MOL0     H92138   1.346  10.721   5.616 -0.3483  1.8570  0.1524
  683MOL0     H92139   1.542  10.844   5.684  2.7293  2.5889  3.8973
  683MOL0     H92140   1.660  10.841   6.116 -0.1890 -1.3088 -0.8773
  683MOL0     H92141   1.762  10.737   6.019 -0.2537 -0.8097 -0.9944
  683MOL0     H92142   1.906  10.936   5.969 -1.1741  0.6124 -0.2046
  683MOL0     H92143   1.887  10.911   6.142 -2.0141  1.9333  1.9768
  683MOL0     H92144   1.709  11.098   6.131  0.8154  2.4632  1.0220
  683MOL0     H92145   1.757  11.122   5.961 -2.2799 -0.2405  1.4834
  683MOL0     H92146   1.924  11.155   6.218 -0.3188 -0.2997  0.2857
  683MOL0     H92147   1.984  11.180   6.061 -0.3935 -0.8605 -1.5057
  683MOL0     H92148   1.822  11.368   6.031  1.5740 -2.0289 -1.8430
  683MOL0     H92149   1.737  11.317   6.172 -0.6900 -1.4590 -4.0977
  683MOL0     H92150   1.955  11.337   6.317  0.6185 -2.5158 -1.9638
  683MOL0     H92151   2.014  11.430   6.183  0.3390 -1.0017 -0.3174
  683MOL0     H92152   1.757  11.517   6.313 -0.2391  0.6653  0.1299
  683MOL0     H92153   1.833  11.582   6.174  2.4339 -3.2715 -1.3268
  683MOL0     H92154   1.863  11.681   6.419  1.6090  3.3602 -1.0383
  683MOL0     H92155   1.981  11.542   6.423  0.3700 -1.5269 -1.8586
  683MOL0     H92156   2.204  11.697   6.463 -1.2142  0.6685 -0.1042
  683MOL0     H92157   2.424  11.844   6.382 -1.0463  4.3092  0.2590
  683MOL0     H92158   2.431  11.835   6.203  0.8175  0.0293 -0.1636
  683MOL0     H92159   2.474  12.060   6.314  0.6061 -1.4848  0.4706
  683MOL0     H92160   2.354  12.059   6.190 -0.4032  2.2605  0.7907
  683MOL0     H92161   2.188  12.031   6.396  0.5536 -1.7540  3.0155
  683MOL0     H92162   2.249  12.186   6.367 -0.8062  1.2097  2.1758
  683MOL0     H92163   2.408  12.180   6.541  0.3438 -0.6572  2.4569
  683MOL0     H92164   2.414  12.002   6.560 -0.5658 -0.7730 -1.2826
  683MOL0     H92165   2.019  12.046   6.532 -1.2120 -0.6276  0.2871
  683MOL0     H92166   1.912  11.815   6.555  1.7675  2.2789 -3.3343
  683MOL0     H92167   1.880  11.323   6.779 -0.4462  2.0330  0.4968
  683MOL0     H92168   1.712  11.166   6.793  0.5656  0.3571 -0.6666
  683MOL0     H92169   1.522  11.045   6.710  1.0113  0.7169  0.7431
  683MOL0     H92170   1.459  11.032   6.864  0.7437  0.7217 -0.2770
  683MOL0     H92171   1.219  11.051   6.753 -0.4966 -5.2713 -0.2134
  683MOL0     H92172   1.310  11.081   6.602  2.4753  0.3937 -0.0113
  683MOL0     H92173   1.344  10.844   6.581  0.7506  0.7592 -0.6372
  683MOL0     H92174   1.378  10.832   6.762  1.0475  0.4175  0.0498
  683MOL0     H92175   1.100  10.877   6.643 -2.4560 -0.0110  3.5828
  683MOL0     H92176   1.126  10.860   6.802 -1.3424  1.0024 -0.6687
  683MOL0     H92177   1.163  10.634   6.598  0.2532 -0.9529  0.6052
  683MOL0     H92178   1.027  10.660   6.702 -0.4022 -0.4292  0.4748
  683MOL0     H92179   1.325  10.572   6.761 -0.5888  2.4183 -3.6893
  683MOL0     H92180   1.236  10.647   6.897  0.0204  2.4482 -0.6947
  683MOL0     H92181   1.150  10.404   6.753  2.7886 -0.8485  0.0973
  683MOL0     H92182   1.052  10.482   6.888 -0.6377  0.7738 -0.7829
  683MOL0     H92183   1.353  10.390   6.901 -0.3404  2.3218 -1.5783
  683MOL0     H92184   1.260  10.439   7.038 -0.4675 -2.3465  1.5248
  683MOL0     H92185   1.410  11.459   6.719 -0.1085 -0.0738  1.6725
  683MOL0     H92186   1.579  11.630   6.686  1.1667 -0.3663 -0.8871
  683MOL0     H92187   2.197  11.693   6.845 -3.0582 -2.9393 -1.2716
  683MOL0     H92188   2.310  11.924   6.814 -1.5555  0.0619  1.6100
  683MOL0     H92189   1.536  10.657   6.072  1.1792  2.2011 -0.5750
  683MOL0     H92190   1.379  10.484   5.973 -1.9395 -0.0547 -0.9828
  683MOL0     H92191   0.851  10.632   5.783  0.4985 -1.3895  1.4443
  683MOL0     H92192   0.660  10.490   5.763 -0.4449 -0.5628 -0.3743
  683MOL0     H92193   0.543  10.352   5.613  1.7616 -1.6291 -0.6083
  683MOL0     H92194   0.495  10.283   5.762 -0.5948  0.2367 -0.0296
  683MOL0     H92195   0.373  10.134   5.611  1.1181 -0.8614 -0.7254
  683MOL0     H92196   0.533  10.052   5.611  1.4955  1.0555  0.7885
  683MOL0     H92197   0.591  10.205   5.423  1.9553 -0.9868  1.6467
  683MOL0     H92198   0.444  10.296   5.439  1.3644 -0.6060 -0.3689
  683MOL0     H92199   0.301  10.088   5.384  0.4327  0.3510 -0.0123
  683MOL0     H92200   0.385  10.150   5.252  2.2981  1.2919 -0.4337
  683MOL0     H92201   0.570   9.770   5.298  4.8031  2.3561 -0.6103
  683MOL0     H92202   0.922  10.189   5.587 -1.1422  0.6546 -3.2508
  683MOL0     H92203   1.189  10.242   5.653  0.6651 -1.9804 -1.2195
  683MOL0     H92204   1.124  10.255   5.492 -1.3348 -0.2776  0.6902
  683MOL0     H92205   1.203  10.393   5.563  0.1785  0.9251  1.7285
  684MOL0     O92206   6.041   3.120   6.587 -0.2664  0.2924  0.0781
  684MOL0     C92207   6.010   3.025   6.664  0.0030 -0.4786  1.2310
  684MOL0     O92208   6.092   2.923   6.701 -0.1659 -0.0030  0.4601
  684MOL0     C92209   6.199   2.883   6.614  0.5467 -0.4014 -0.0220
  684MOL0     C92210   6.198   2.855   6.475 -0.6554  0.0748 -0.3717
  684MOL0     C92211   6.314   2.805   6.414 -0.5842  0.2200  0.0765
  684MOL0     C92212   6.433   2.778   6.485  0.0717 -0.2913 -0.4394
  684MOL0     O92213   6.553   2.731   6.431  0.3245  0.1301 -0.3690
  684MOL0     C92214   6.563   2.706   6.288 -0.2751 -0.4319  0.5521
  684MOL0     C92215   6.712   2.735   6.249 -0.6592  0.3416 -1.1829
  684MOL0     C92216   6.722   2.710   6.101 -0.9398  0.3401  0.0415
  684MOL0     C92217   6.870   2.718   6.060 -0.4790  0.8769 -0.1377
  684MOL0     C92218   6.888   2.679   5.910  0.3349  0.0922 -1.4125
  684MOL0     C92219   7.036   2.667   5.883 -1.1185 -0.3504 -0.1169
  684MOL0     C92220   7.086   2.798   5.809  0.5965  0.1650 -0.2119
  684MOL0     C92221   7.031   2.946   5.839  0.5799 -0.1261 -0.0815
  684MOL0     N92222   7.125   3.049   5.785 -0.4577  0.7903  0.0627
  684MOL0     C92223   7.160   3.065   5.659 -0.2100  0.0769  0.2175
  684MOL0     C92224   7.280   3.125   5.657  0.8464 -0.2357 -0.0446
  684MOL0     C92225   7.361   3.130   5.531 -0.5455  0.0136  0.5128
  684MOL0     C92226   7.512   3.155   5.539 -0.3723 -0.1590 -0.0857
  684MOL0     C92227   7.552   3.294   5.611 -0.2790  0.1554 -0.5603
  684MOL0     C92228   7.709   3.301   5.612  0.3166  0.8306 -0.4204
  684MOL0     O92229   7.755   3.434   5.651 -0.5002  0.3630  0.0367
  684MOL0     C92230   7.884   3.436   5.698 -0.2536  0.3605  0.0847
  684MOL0     C92231   7.929   3.518   5.801 -1.0380  0.6601 -0.1210
  684MOL0     C92232   8.060   3.506   5.853 -0.2349 -0.6361  0.5790
  684MOL0     C92233   8.153   3.417   5.791  0.1639  0.6402  0.0630
  684MOL0     C92234   8.287   3.394   5.855 -0.6312 -0.4451 -0.1048
  684MOL0     O92235   8.339   3.270   5.841 -0.4831  0.3241  0.0275
  684MOL0     C92236   8.466   3.248   5.887 -0.2827 -0.6560  0.3970
  684MOL0     C92237   8.491   3.220   6.015 -0.0229 -0.4184 -0.2825
  684MOL0     C92238   8.622   3.195   6.063 -0.1565  0.1006  0.3109
  684MOL0     C92239   8.734   3.199   5.984 -0.1606 -1.2371 -0.0841
  684MOL0     O92240   8.866   3.183   6.028  0.5217  0.4824 -0.6772
  684MOL0     C92241   8.962   3.267   5.966  0.0157  0.5906 -0.2902
  684MOL0     C92242   9.086   3.294   6.056 -0.4038 -0.0095  0.2066
  684MOL0     C92243   9.047   3.419   6.150  0.3863  0.4191  0.0749
  684MOL0     C92244   9.177   3.458   6.209  0.1071 -0.3244  0.2766
  684MOL0     C92245   9.159   3.550   6.325 -0.3062  0.6487  0.8373
  684MOL0     C92246   9.279   3.614   6.394  1.0642  0.2221 -0.1793
  684MOL0     C92247   9.366   3.689   6.294 -0.6198  0.2903 -0.6746
  684MOL0     C92248   9.464   3.795   6.374  0.6339  0.7728  0.3214
  684MOL0    Cl92249   9.571   3.868   6.256  0.3413  0.3734  0.2158
  684MOL0     C92250   8.703   3.218   5.843 -0.4384  0.5941  0.3928
  684MOL0     C92251   8.574   3.236   5.797  0.2407 -0.1607  0.2451
  684MOL0     O92252   8.349   3.491   5.904  0.3055 -0.2837 -0.5720
  684MOL0     C92253   8.117   3.336   5.685  0.2015 -0.2257 -1.2342
  684MOL0     C92254   7.982   3.346   5.644 -0.2838 -0.8801  0.4117
  684MOL0     N92255   7.308   3.162   5.783  0.1581 -0.2799 -0.1071
  684MOL0     N92256   7.208   3.125   5.861 -0.3032  0.4096 -0.5406
  684MOL0     C92257   6.426   2.802   6.629 -0.3306 -0.5621  0.1321
  684MOL0     C92258   6.315   2.860   6.688  0.3837 -0.3799 -0.1861
  684MOL0     C92259   5.875   3.045   6.728  0.6606  0.1587  0.8532
  684MOL0     C92260   5.764   3.099   6.656  0.3018 -0.4197 -0.0876
  684MOL0     C92261   5.637   3.126   6.719 -0.3938 -0.4999 -0.0286
  684MOL0     C92262   5.633   3.117   6.860 -0.0944 -0.1831  0.1608
  684MOL0     O92263   5.520   3.147   6.932  0.2005 -0.3713  0.2282
  684MOL0     C92264   5.414   3.217   6.872  0.0866  0.1890  0.2364
  684MOL0     C92265   5.326   3.263   6.978  0.5513 -0.0576  0.0037
  684MOL0     C92266   5.251   3.145   7.033  0.6560  0.4309  0.2585
  684MOL0     C92267   5.110   3.183   7.092 -0.2222  0.1218 -0.3238
  684MOL0     C92268   5.025   3.059   7.100 -0.0505 -0.3870  0.7980
  684MOL0     C92269   4.950   2.969   7.126 -0.0272  0.5340 -0.4757
  684MOL0     C92270   5.746   3.066   6.929 -0.3455 -0.2198 -0.2021
  684MOL0     C92271   5.861   3.024   6.869 -0.5696  0.3514 -0.2485
  684MOL0     C92272   5.977   2.988   6.956  0.2141  0.3673 -0.8537
  684MOL0     H92273   6.102   2.876   6.428 -0.4447 -0.2041 -0.9443
  684MOL0     H92274   6.303   2.792   6.307 -0.8960  0.7367  0.0433
  684MOL0     H92275   6.547   2.602   6.258  0.7317 -0.2227 -0.7831
  684MOL0     H92276   6.500   2.769   6.224  1.7504 -1.3318 -2.5106
  684MOL0     H92277   6.773   2.671   6.313  0.4564 -0.1833 -2.7067
  684MOL0     H92278   6.709   2.842   6.271  1.6821  0.5217 -1.5324
  684MOL0     H92279   6.653   2.769   6.041 -0.1944 -0.5940 -1.7902
  684MOL0     H92280   6.701   2.605   6.078  0.4284  0.8977 -4.5436
  684MOL0     H92281   6.919   2.815   6.078 -1.9076  1.3111  1.7668
  684MOL0     H92282   6.924   2.642   6.116 -1.5776 -2.5572 -3.3559
  684MOL0     H92283   6.827   2.592   5.884 -0.2887  0.6654 -1.8919
  684MOL0     H92284   6.850   2.764   5.853  4.3266  0.9664 -3.1189
  684MOL0     H92285   7.093   2.656   5.976 -1.5334  0.5846  0.2535
  684MOL0     H92286   7.057   2.581   5.818  0.0705 -0.1117 -0.0701
  684MOL0     H92287   7.090   2.774   5.703  4.3755  0.2595 -0.2044
  684MOL0     H92288   7.192   2.808   5.832  0.6338 -0.1590 -0.2463
  684MOL0     H92289   6.930   2.965   5.802  0.4506 -0.2105  0.2336
  684MOL0     H92290   7.041   2.965   5.946  0.3243  1.9238 -0.3785
  684MOL0     H92291   7.119   3.034   5.562 -0.7386 -0.5975  0.6396
  684MOL0     H92292   7.339   3.032   5.488  1.6660 -0.0510 -0.6391
  684MOL0     H92293   7.324   3.207   5.463  2.8189  0.3105 -1.2311
  684MOL0     H92294   7.544   3.059   5.583 -2.2699 -1.6459 -1.7419
  684MOL0     H92295   7.556   3.147   5.440  4.7180  1.0486  1.7781
  684MOL0     H92296   7.514   3.310   5.713  1.1421 -1.0955  0.2105
  684MOL0     H92297   7.519   3.374   5.544 -2.3279 -0.5763 -0.4799
  684MOL0     H92298   7.741   3.274   5.511 -0.4091  0.1121 -0.4669
  684MOL0     H92299   7.740   3.223   5.683  0.8380  0.7764 -0.7035
  684MOL0     H92300   7.855   3.588   5.838 -0.8146  0.6461  0.3521
  684MOL0     H92301   8.094   3.561   5.940 -1.3110  0.8641  0.0837
  684MOL0     H92302   8.405   3.224   6.081 -1.6759 -1.6734 -2.2513
  684MOL0     H92303   8.639   3.183   6.170 -0.8286  0.9387  0.5253
  684MOL0     H92304   9.008   3.213   5.882  1.1663 -0.3315  0.8842
  684MOL0     H92305   8.913   3.358   5.930 -0.0913 -0.1286 -2.0464
  684MOL0     H92306   9.113   3.201   6.108  1.1287 -0.8567 -1.9749
  684MOL0     H92307   9.177   3.312   5.999 -0.4110 -2.9938 -0.8950
  684MOL0     H92308   8.990   3.505   6.115  1.5552  2.5567  2.9298
  684MOL0     H92309   8.982   3.374   6.226  1.9706 -1.0820  0.6249
  684MOL0     H92310   9.237   3.510   6.135 -1.9527  3.5417  1.0222
  684MOL0     H92311   9.231   3.370   6.246  2.6650  0.7669 -0.7252
  684MOL0     H92312   9.100   3.497   6.400 -2.4702  1.6790 -0.0509
  684MOL0     H92313   9.111   3.641   6.288  4.0746  3.6764  1.7756
  684MOL0     H92314   9.246   3.683   6.473  0.2726 -0.4027  0.0494
  684MOL0     H92315   9.331   3.532   6.444 -0.0044  0.3164  1.1410
  684MOL0     H92316   9.298   3.729   6.218 -0.5747 -1.9228 -1.9766
  684MOL0     H92317   9.423   3.622   6.229 -1.6500  3.2044 -4.9987
  684MOL0     H92318   9.416   3.879   6.426  2.4385  3.1767 -1.6677
  684MOL0     H92319   9.515   3.734   6.448 -2.3117 -1.4567  0.6882
  684MOL0     H92320   8.790   3.212   5.778  0.7325 -1.2681  2.0131
  684MOL0     H92321   8.558   3.255   5.691  0.1907  0.6796  0.4018
  684MOL0     H92322   8.187   3.256   5.666  3.4698  2.2215 -0.2475
  684MOL0     H92323   7.938   3.274   5.575 -1.7275  0.8313 -0.5473
  684MOL0     H92324   6.511   2.794   6.695  0.7647  0.2184 -1.1330
  684MOL0     H92325   6.310   2.876   6.795  2.5462  2.1566 -0.3388
  684MOL0     H92326   5.787   3.114   6.551 -0.8297  2.1011 -0.0471
  684MOL0     H92327   5.550   3.156   6.660 -0.5788  1.5358  1.1683
  684MOL0     H92328   5.349   3.162   6.803 -0.1802  3.1805 -2.1273
  684MOL0     H92329   5.454   3.301   6.814 -0.5713 -0.0773 -0.6339
  684MOL0     H92330   5.244   3.323   6.936  1.0317  0.3667 -0.3368
  684MOL0     H92331   5.374   3.324   7.055  0.6151 -1.2462  0.9285
  684MOL0     H92332   5.308   3.095   7.111 -1.5043  0.0051  1.6690
  684MOL0     H92333   5.228   3.076   6.951  0.6082  0.1773  0.4838
  684MOL0     H92334   5.128   3.207   7.197  1.5404 -1.9303 -0.0646
  684MOL0     H92335   5.058   3.263   7.040  0.0050 -1.0991 -2.6029
  684MOL0     H92336   4.898   2.876   7.136 -0.5229  1.0484  2.8462
  684MOL0     H92337   5.724   3.051   7.034 -1.8930  2.2645 -0.0713
  684MOL0     H92338   6.001   2.881   6.949  1.7196  0.7670 -3.0892
  684MOL0     H92339   6.073   3.022   6.916  1.0151  0.8379  1.3326
  684MOL0     H92340   5.964   3.010   7.062 -0.7570 -0.0532 -0.8796
  685MOL0     O92341   7.709   2.099   6.570  0.4095 -0.0493  0.3782
  685MOL0     C92342   7.598   2.150   6.578  0.3520 -0.3826  0.0763
  685MOL0     O92343   7.539   2.232   6.487 -0.5943  0.2331  0.5339
  685MOL0     C92344   7.614   2.234   6.373  0.1573 -0.8141 -0.0415
  685MOL0     C92345   7.598   2.146   6.272 -0.0048  0.1568 -0.0070
  685MOL0     C92346   7.689   2.160   6.164  0.1497 -0.4213  0.0562
  685MOL0     C92347   7.790   2.258   6.161  0.1119 -0.3539  0.0101
  685MOL0     O92348   7.877   2.265   6.054 -0.1335  0.2993 -0.2089
  685MOL0     C92349   7.830   2.259   5.915  0.4605 -0.1436  0.4437
  685MOL0     C92350   7.877   2.124   5.865 -0.5778  0.8954  0.3806
  685MOL0     C92351   7.873   2.121   5.717 -0.3369  0.9257 -0.0904
  685MOL0     C92352   7.899   1.969   5.675  0.2147  0.4054  0.4470
  685MOL0     C92353   7.959   1.964   5.533  0.1586 -0.1771 -0.0979
  685MOL0     C92354   7.982   1.822   5.484 -0.1707 -0.0068 -0.4548
  685MOL0     C92355   8.079   1.805   5.364  1.1377 -0.8288 -0.3070
  685MOL0     C92356   8.098   1.662   5.330  0.0470  0.0696  0.8305
  685MOL0     N92357   8.202   1.646   5.225 -0.4763  0.0258 -0.0150
  685MOL0     C92358   8.340   1.668   5.229 -0.5392  0.6559  0.5733
  685MOL0     C92359   8.388   1.624   5.109 -1.1912  0.1559 -0.7569
  685MOL0     C92360   8.528   1.603   5.063 -0.4150  0.0144  0.5833
  685MOL0     C92361   8.572   1.727   4.993 -0.0917  0.3429 -0.3055
  685MOL0     C92362   8.492   1.778   4.865  0.2609  0.1350  0.8132
  685MOL0     C92363   8.507   1.671   4.757 -0.3243  1.0601  0.2979
  685MOL0     O92364   8.460   1.695   4.624 -0.3530 -0.3954  0.3413
  685MOL0     C92365   8.324   1.696   4.599 -0.9197  0.2173 -0.0004
  685MOL0     C92366   8.223   1.666   4.687 -0.1621 -0.0315 -1.3611
  685MOL0     C92367   8.094   1.660   4.653  0.4200  0.6165 -0.1266
  685MOL0     C92368   8.066   1.693   4.524  0.7773  0.5199  0.1016
  685MOL0     C92369   7.919   1.701   4.480 -0.0029  0.4014 -0.8660
  685MOL0     O92370   7.900   1.692   4.348 -0.3751 -0.3337  0.7251
  685MOL0     C92371   7.776   1.695   4.297  0.4896  0.2782  0.0995
  685MOL0     C92372   7.675   1.602   4.324 -0.2808  0.0644 -0.6574
  685MOL0     C92373   7.548   1.612   4.282  0.2311  0.0634 -0.2955
  685MOL0     C92374   7.509   1.704   4.187 -1.0366  0.2618  0.5272
  685MOL0     O92375   7.376   1.713   4.163  0.2349  0.2546  0.2129
  685MOL0     C92376   7.336   1.843   4.107  0.7178 -0.1238  1.2201
  685MOL0     C92377   7.179   1.848   4.095  0.3637 -0.5769  0.4128
  685MOL0     C92378   7.123   1.980   4.020 -1.1280  0.2193  0.0660
  685MOL0     C92379   7.179   1.974   3.874  1.0301  0.0396  0.3898
  685MOL0     C92380   7.098   2.067   3.790 -0.5924  0.1610  0.3754
  685MOL0     C92381   7.160   2.057   3.647  0.8486 -0.7917  0.4442
  685MOL0     C92382   7.107   2.170   3.554 -0.4946 -0.0463 -0.5562
  685MOL0     C92383   7.144   2.149   3.408 -0.1140  0.1821 -0.1167
  685MOL0    Cl92384   7.049   2.276   3.335  0.1789 -0.0878  0.2306
  685MOL0     C92385   7.611   1.791   4.138  0.0906  0.3279 -0.2269
  685MOL0     C92386   7.739   1.791   4.199 -0.0815  0.0298  0.2865
  685MOL0     O92387   7.828   1.701   4.563  0.2053  0.0686 -0.3964
  685MOL0     C92388   8.163   1.707   4.421 -0.1988  0.9617  0.2169
  685MOL0     C92389   8.290   1.711   4.464 -0.5879  0.0831 -0.2483
  685MOL0     N92390   8.280   1.582   5.033 -0.3055 -1.0525 -0.8401
  685MOL0     N92391   8.172   1.598   5.104 -0.6637 -0.4398  0.3837
  685MOL0     C92392   7.799   2.347   6.263  0.0535  0.1411  0.3367
  685MOL0     C92393   7.715   2.337   6.365  0.4902  0.4615 -0.0937
  685MOL0     C92394   7.536   2.145   6.710  0.0757  0.6253  0.7291
  685MOL0     C92395   7.569   2.044   6.796  0.1876  0.6155 -0.4669
  685MOL0     C92396   7.508   2.043   6.926 -0.3172  0.0416 -0.3501
  685MOL0     C92397   7.405   2.130   6.966  0.7980  0.1262 -1.3948
  685MOL0     O92398   7.339   2.118   7.083  0.2096  0.5944 -0.5904
  685MOL0     C92399   7.281   1.986   7.095 -0.3206 -0.1128 -1.0487
  685MOL0     C92400   7.196   1.955   7.214 -0.4427 -0.0863 -0.6078
  685MOL0     C92401   7.280   1.973   7.333 -0.0225  0.2111  0.0245
  685MOL0     C92402   7.214   1.929   7.467 -0.1423 -0.2561 -0.5110
  685MOL0     C92403   7.092   1.997   7.509 -0.1535 -0.3631  0.3671
  685MOL0     C92404   6.990   2.057   7.532 -0.6082 -0.0914  0.3234
  685MOL0     C92405   7.387   2.234   6.874  0.1066 -0.6561 -0.5738
  685MOL0     C92406   7.456   2.255   6.752 -1.0103  1.1483 -0.4960
  685MOL0     C92407   7.451   2.395   6.693 -0.0018  0.2716 -0.7324
  685MOL0     H92408   7.530   2.061   6.276  1.9319 -1.5393 -1.2381
  685MOL0     H92409   7.690   2.081   6.089  1.5023  0.7396 -1.1995
  685MOL0     H92410   7.723   2.279   5.915  0.1351 -1.5477  2.5430
  685MOL0     H92411   7.889   2.331   5.857  1.7104 -1.2972  0.2414
  685MOL0     H92412   7.823   2.038   5.903 -1.7924  1.1287 -0.7132
  685MOL0     H92413   7.983   2.117   5.891 -1.0949  0.9059  2.6912
  685MOL0     H92414   7.948   2.184   5.668  1.1487 -0.4012  0.4209
  685MOL0     H92415   7.777   2.166   5.688 -0.6164  0.2352 -0.2561
  685MOL0     H92416   7.970   1.914   5.737 -1.2810 -0.8164  1.1354
  685MOL0     H92417   7.807   1.911   5.679  2.1902 -3.2275 -1.0582
  685MOL0     H92418   7.898   2.011   5.455  0.6492 -0.8835 -0.9250
  685MOL0     H92419   8.053   2.019   5.538  0.3603 -0.6461  3.8367
  685MOL0     H92420   8.028   1.769   5.568  1.0414 -0.1604 -1.1895
  685MOL0     H92421   7.890   1.768   5.459  0.0666  0.0224 -1.4195
  685MOL0     H92422   8.178   1.845   5.387  1.5798 -2.8709  1.5766
  685MOL0     H92423   8.041   1.861   5.277  0.3148 -2.3240 -0.9487
  685MOL0     H92424   8.127   1.600   5.416  0.2309  0.4390  1.0381
  685MOL0     H92425   8.004   1.621   5.294 -0.0555  1.8877 -1.1144
  685MOL0     H92426   8.395   1.724   5.305  4.3376 -1.9541 -0.6208
  685MOL0     H92427   8.592   1.575   5.146 -0.9621 -1.9187  0.4172
  685MOL0     H92428   8.525   1.520   4.992 -1.2129  1.1463 -0.7614
  685MOL0     H92429   8.587   1.810   5.063 -3.1614 -0.9228  2.0730
  685MOL0     H92430   8.673   1.698   4.962 -0.7525 -1.5640 -0.8108
  685MOL0     H92431   8.528   1.875   4.831  0.0537 -0.2822 -0.6386
  685MOL0     H92432   8.386   1.784   4.892 -0.0509  0.3803 -0.4191
  685MOL0     H92433   8.469   1.573   4.786  1.6407  0.4556  1.0079
  685MOL0     H92434   8.616   1.660   4.747 -0.1524  2.5983  0.1861
  685MOL0     H92435   8.249   1.661   4.792  0.9244 -2.0756 -1.6852
  685MOL0     H92436   8.022   1.622   4.724  3.4049 -4.1390  0.8173
  685MOL0     H92437   7.715   1.530   4.394  0.5158 -0.4306 -1.6028
  685MOL0     H92438   7.481   1.542   4.332 -0.0751 -0.0405 -0.8378
  685MOL0     H92439   7.370   1.930   4.165  0.6476  3.7283 -3.8208
  685MOL0     H92440   7.377   1.852   4.006 -1.1790 -1.8080  0.2461
  685MOL0     H92441   7.133   1.768   4.036 -0.2467  2.0329 -2.9436
  685MOL0     H92442   7.133   1.852   4.194  0.7512 -1.4496  0.6367
  685MOL0     H92443   7.014   1.985   4.022 -1.3147 -1.9694  3.9332
  685MOL0     H92444   7.153   2.074   4.067 -0.9849 -0.2514  0.9250
  685MOL0     H92445   7.167   1.877   3.824 -1.7268  2.2502 -3.8250
  685MOL0     H92446   7.284   2.004   3.872  0.6702  1.4506 -2.1839
  685MOL0     H92447   7.106   2.171   3.824  1.7220  1.0174 -2.3870
  685MOL0     H92448   6.992   2.040   3.789  0.2874 -4.1256  2.1714
  685MOL0     H92449   7.268   2.073   3.649  0.7990  0.0651 -1.2206
  685MOL0     H92450   7.137   1.960   3.602 -3.7970  0.5520 -0.6445
  685MOL0     H92451   7.146   2.266   3.590 -0.9687 -0.0181 -0.1148
  685MOL0     H92452   7.000   2.188   3.563 -0.4260  0.3168 -0.4338
  685MOL0     H92453   7.248   2.172   3.385 -0.6052  0.8984 -1.8571
  685MOL0     H92454   7.110   2.051   3.374 -1.5379  0.0984  1.4004
  685MOL0     H92455   7.602   1.869   4.063  1.6857 -1.3715 -2.3296
  685MOL0     H92456   7.801   1.878   4.179 -0.9059  1.0080  1.7815
  685MOL0     H92457   8.134   1.723   4.318  0.0049  3.0826  0.4512
  685MOL0     H92458   8.376   1.716   4.397  1.4004 -0.0904  2.1670
  685MOL0     H92459   7.884   2.414   6.262  0.3249 -0.1380  1.9092
  685MOL0     H92460   7.711   2.405   6.449 -0.5794 -0.0497  0.2899
  685MOL0     H92461   7.644   1.972   6.767 -1.0361  0.5530 -3.9672
  685MOL0     H92462   7.533   1.967   6.999 -0.6769  0.9006  0.7023
  685MOL0     H92463   7.355   1.906   7.094 -2.2149 -2.1002  2.0155
  685MOL0     H92464   7.223   1.986   7.002  1.5097 -0.7381 -2.2346
  685MOL0     H92465   7.152   1.855   7.208 -0.0206 -0.4075  1.0781
  685MOL0     H92466   7.114   2.025   7.230 -0.0684 -0.1052  1.8305
  685MOL0     H92467   7.328   2.070   7.348  0.9685 -0.3896  0.9210
  685MOL0     H92468   7.372   1.913   7.324  0.5928  1.4201 -2.8269
  685MOL0     H92469   7.204   1.820   7.467  3.0467 -0.6537 -0.2240
  685MOL0     H92470   7.280   1.936   7.554 -1.3047 -1.8606  0.5732
  685MOL0     H92471   6.896   2.102   7.557 -0.8420  0.2852 -1.1706
  685MOL0     H92472   7.328   2.323   6.896 -2.4091 -2.2767 -0.3063
  685MOL0     H92473   7.375   2.398   6.615 -1.6841  5.4111  0.6723
  685MOL0     H92474   7.435   2.468   6.773  0.8084 -0.0930 -0.2239
  685MOL0     H92475   7.549   2.421   6.652  1.4888  1.9895  3.3277
  686MOL0     O92476   9.837   5.145   8.031 -0.1969  0.1117  0.2039
  686MOL0     C92477   9.817   5.059   7.946  0.0679  0.5863 -0.9627
  686MOL0     O92478   9.897   4.943   7.936  0.3032  0.0559  0.0042
  686MOL0     C92479  10.022   4.949   7.989  0.2997  0.3212 -0.1900
  686MOL0     C92480  10.103   5.055   7.946 -1.2039 -0.2666 -0.0933
  686MOL0     C92481  10.234   5.069   8.005  0.0066 -1.1261 -0.0547
  686MOL0     C92482  10.280   4.985   8.099  0.0086  0.4262  0.3555
  686MOL0     O92483  10.410   4.998   8.148 -1.3892 -0.2183  0.0241
  686MOL0     C92484  10.487   4.905   8.221 -0.0798  1.1489 -0.8044
  686MOL0     C92485  10.579   4.965   8.325  0.4401 -0.6096  0.2955
  686MOL0     C92486  10.652   5.089   8.277  0.4952  0.1624  0.1715
  686MOL0     C92487  10.787   5.086   8.347 -0.6011  0.3256 -0.2817
  686MOL0     C92488  10.871   5.204   8.290  0.0670  1.0469 -0.3211
  686MOL0     C92489  10.821   5.343   8.315 -0.2927  0.0259 -0.4008
  686MOL0     C92490  10.936   5.448   8.337 -0.5752  0.8044  0.5403
  686MOL0     C92491  11.031   5.460   8.211 -0.7858  0.7480 -0.2265
  686MOL0     N92492  11.144   5.549   8.237 -0.1031  0.0139  0.4650
  686MOL0     C92493  11.137   5.677   8.288  0.7373 -0.6106 -0.0850
  686MOL0     C92494  11.268   5.714   8.300 -0.0956 -0.0564 -0.5191
  686MOL0     C92495  11.322   5.850   8.333 -1.1424  0.0357 -0.6254
  686MOL0     C92496  11.413   5.842   8.465 -0.2646  0.3809 -0.5222
  686MOL0     C92497  11.338   5.811   8.599  0.7965 -0.4212 -0.1372
  686MOL0     C92498  11.211   5.891   8.632 -0.3285  0.3032  0.9356
  686MOL0     O92499  11.109   5.799   8.682 -0.2379  0.3267 -0.7540
  686MOL0     C92500  11.100   5.765   8.820 -0.2559  0.7302  0.0098
  686MOL0     C92501  11.204   5.800   8.912  0.4055  0.5774 -0.5082
  686MOL0     C92502  11.185   5.768   9.040  0.3340 -0.6166 -0.2555
  686MOL0     C92503  11.077   5.701   9.086 -0.5137  0.2986 -0.4734
  686MOL0     C92504  11.060   5.668   9.233 -0.0199  0.8986 -0.3070
  686MOL0     O92505  10.994   5.545   9.260 -0.3823 -0.4557 -0.2406
  686MOL0     C92506  10.964   5.523   9.392  0.8221  0.4014 -0.6020
  686MOL0     C92507  11.052   5.464   9.491  0.4095 -0.4217  0.5794
  686MOL0     C92508  11.011   5.449   9.627 -0.7169  0.2581  0.1475
  686MOL0     C92509  10.870   5.464   9.662 -0.0997  0.5691 -0.2630
  686MOL0     O92510  10.825   5.456   9.788  0.9253 -0.4365  0.3004
  686MOL0     C92511  10.903   5.520   9.888  0.0133 -0.7727 -0.7342
  686MOL0     C92512  10.829   5.517  10.017  0.1384  0.2903  0.0438
  686MOL0     C92513  10.688   5.574   9.988 -0.0198 -0.0879  0.6030
  686MOL0     C92514  10.613   5.596  10.119 -0.2728 -0.3587  0.1925
  686MOL0     C92515  10.487   5.680  10.118 -0.1490  0.4056 -0.0150
  686MOL0     C92516  10.510   5.831  10.087 -0.2118  0.0621  0.4396
  686MOL0     C92517  10.557   5.915  10.200  1.3596  0.0263 -0.2854
  686MOL0     C92518  10.588   6.072  10.173  0.6823 -0.2253  0.3789
  686MOL0    Cl92519  10.722   6.093  10.054 -0.2074  0.5220  0.3895
  686MOL0     C92520  10.782   5.509   9.565  0.9148 -0.5645 -0.3247
  686MOL0     C92521  10.830   5.542   9.433 -0.9286 -0.0454  0.1476
  686MOL0     O92522  11.092   5.754   9.314  0.1657  0.5135 -0.0071
  686MOL0     C92523  10.977   5.672   8.996 -0.1139 -1.0001  0.7675
  686MOL0     C92524  10.985   5.706   8.861 -0.0978  0.7168  0.3084
  686MOL0     N92525  11.348   5.613   8.243  0.1195 -0.1252  0.2826
  686MOL0     N92526  11.273   5.517   8.213 -0.6431  0.0489 -0.0767
  686MOL0     C92527  10.193   4.900   8.154 -0.3201 -0.2550 -0.3409
  686MOL0     C92528  10.069   4.876   8.095  0.1022  0.4972 -0.8537
  686MOL0     C92529   9.695   5.074   7.870  0.1900  0.6599  0.2089
  686MOL0     C92530   9.627   4.951   7.838  0.2247 -0.5733 -1.0372
  686MOL0     C92531   9.534   4.937   7.737  0.5139 -0.2338 -0.2098
  686MOL0     C92532   9.485   5.052   7.670 -0.4267  0.0070 -0.7921
  686MOL0     O92533   9.381   5.051   7.580 -0.3344 -0.3243  0.0192
  686MOL0     C92534   9.362   5.164   7.500  0.3753  0.0936  0.7767
  686MOL0     C92535   9.250   5.142   7.399  0.2732  0.1339 -0.0867
  686MOL0     C92536   9.234   5.281   7.317 -0.2246  0.1672  0.4146
  686MOL0     C92537   9.125   5.374   7.370 -0.4772 -0.1431 -0.2372
  686MOL0     C92538   9.153   5.507   7.316  0.6351 -0.2194 -0.4869
  686MOL0     C92539   9.187   5.620   7.280  0.3493 -0.2197 -1.1541
  686MOL0     C92540   9.559   5.169   7.702 -0.4977  0.1107  0.6216
  686MOL0     C92541   9.666   5.183   7.795  0.9562  0.4494 -0.1830
  686MOL0     C92542   9.727   5.313   7.810  0.9189  0.3900 -0.5308
  686MOL0     H92543  10.068   5.127   7.872  1.1356 -1.3746 -2.4669
  686MOL0     H92544  10.299   5.136   7.951 -3.0112 -0.1047 -2.7158
  686MOL0     H92545  10.419   4.839   8.275  0.6858  1.9549  1.2381
  686MOL0     H92546  10.541   4.846   8.146  2.0032  3.8246 -1.5755
  686MOL0     H92547  10.641   4.887   8.370  2.4633  1.3563  1.1559
  686MOL0     H92548  10.529   4.985   8.420  0.5912 -1.5285  0.5770
  686MOL0     H92549  10.604   5.185   8.296 -0.4980 -0.4854  1.1184
  686MOL0     H92550  10.665   5.088   8.169 -3.0847  3.3924 -0.5042
  686MOL0     H92551  10.777   5.105   8.455  2.3164  1.8496 -0.1816
  686MOL0     H92552  10.837   4.989   8.333 -2.7170 -1.1661  1.6903
  686MOL0     H92553  10.969   5.189   8.337  0.5894  0.8136 -1.4503
  686MOL0     H92554  10.887   5.195   8.182  1.1395 -1.8274 -0.0095
  686MOL0     H92555  10.752   5.378   8.237 -1.6432  0.5273  0.9709
  686MOL0     H92556  10.754   5.353   8.401 -1.1922  1.9038 -1.2590
  686MOL0     H92557  11.008   5.434   8.419  4.0316 -2.5993 -3.4490
  686MOL0     H92558  10.883   5.542   8.354 -1.8919  0.2480 -0.3441
  686MOL0     H92559  11.066   5.364   8.173 -2.2840 -0.9148  2.3084
  686MOL0     H92560  10.964   5.505   8.136  3.0158 -0.8738 -5.1169
  686MOL0     H92561  11.054   5.743   8.312  1.4099 -0.0374  0.6932
  686MOL0     H92562  11.399   5.872   8.258  1.6370  0.7154  2.2419
  686MOL0     H92563  11.243   5.925   8.334 -0.6078  0.6430 -1.6130
  686MOL0     H92564  11.486   5.761   8.463  1.6097  2.0141 -0.9860
  686MOL0     H92565  11.467   5.934   8.491  3.5814 -2.4195  2.4059
  686MOL0     H92566  11.419   5.814   8.673  0.2132 -3.5766  0.8054
  686MOL0     H92567  11.316   5.704   8.591 -0.7147 -0.1148 -0.2032
  686MOL0     H92568  11.184   5.947   8.542  2.6534 -0.1914 -0.3579
  686MOL0     H92569  11.239   5.966   8.707 -0.0018  1.2153 -0.0786
  686MOL0     H92570  11.291   5.857   8.882  0.9639  0.6180  1.0852
  686MOL0     H92571  11.253   5.796   9.120 -3.0243  1.1991  2.2204
  686MOL0     H92572  11.157   5.449   9.469  1.1997  4.0078  0.3909
  686MOL0     H92573  11.079   5.418   9.705 -2.4597 -2.2868  0.7783
  686MOL0     H92574  10.993   5.462   9.908  1.0378  0.2084 -2.3247
  686MOL0     H92575  10.938   5.618   9.856  1.7547 -1.5375 -1.2756
  686MOL0     H92576  10.830   5.414  10.053  0.3013  0.2250 -0.1446
  686MOL0     H92577  10.885   5.584  10.083 -1.7251  0.3965  1.5915
  686MOL0     H92578  10.699   5.664   9.926  0.0378 -1.2130 -1.0592
  686MOL0     H92579  10.628   5.518   9.917  0.4819 -2.0842  1.6933
  686MOL0     H92580  10.690   5.627  10.190  1.1642 -1.9951 -0.5744
  686MOL0     H92581  10.578   5.496  10.146 -2.3363  0.2411 -0.0974
  686MOL0     H92582  10.437   5.679  10.215  0.5327  2.1480  0.3955
  686MOL0     H92583  10.422   5.625  10.049  0.3315  0.7743 -0.7677
  686MOL0     H92584  10.583   5.841  10.006 -0.9762 -5.0108 -1.2582
  686MOL0     H92585  10.419   5.871  10.042 -0.0144 -0.1753 -0.1851
  686MOL0     H92586  10.646   5.859  10.232 -0.4197 -3.6525 -1.2379
  686MOL0     H92587  10.483   5.918  10.280 -0.6624  1.5586 -2.0978
  686MOL0     H92588  10.508   6.122  10.118  1.5249  2.4117  1.3890
  686MOL0     H92589  10.624   6.115  10.267  2.1495  0.5204 -0.4798
  686MOL0     H92590  10.676   5.524   9.576  0.4387 -0.2682 -4.0458
  686MOL0     H92591  10.773   5.585   9.351  1.3722  4.4054  0.5851
  686MOL0     H92592  10.888   5.623   9.036  0.9288 -2.5439  1.2841
  686MOL0     H92593  10.922   5.678   8.778  0.1307  0.5906  0.1756
  686MOL0     H92594  10.220   4.837   8.238  0.7042  0.4851 -0.0962
  686MOL0     H92595  10.017   4.797   8.149  0.8484  0.4098 -0.2475
  686MOL0     H92596   9.652   4.870   7.905 -1.1667  0.1324  0.3810
  686MOL0     H92597   9.469   4.850   7.740 -0.5549  0.5236 -0.5100
  686MOL0     H92598   9.453   5.195   7.448 -1.3536  2.9410 -0.8100
  686MOL0     H92599   9.334   5.249   7.563 -0.7210 -1.3326  2.2992
  686MOL0     H92600   9.154   5.122   7.448 -1.6163  4.5765 -1.5358
  686MOL0     H92601   9.285   5.074   7.321 -0.9680 -0.0752 -0.4798
  686MOL0     H92602   9.207   5.256   7.214 -1.0330  1.8160  0.1998
  686MOL0     H92603   9.334   5.326   7.319  1.2505 -2.8198 -0.0175
  686MOL0     H92604   9.025   5.342   7.339 -1.4180  0.9021  1.5193
  686MOL0     H92605   9.128   5.378   7.479  3.0552 -0.6066 -0.2156
  686MOL0     H92606   9.211   5.724   7.268 -2.0563  0.6421  0.6977
  686MOL0     H92607   9.537   5.259   7.645  0.4709 -0.3268 -0.4775
  686MOL0     H92608   9.833   5.287   7.809  0.5684 -1.1758 -2.7700
  686MOL0     H92609   9.703   5.377   7.725 -3.9654  0.2228  0.4357
  686MOL0     H92610   9.696   5.362   7.903 -1.1403  1.2807 -1.6237
  687MOL0     O92611   8.742   6.719   4.254 -0.0550 -0.0644 -0.3109
  687MOL0     C92612   8.694   6.608   4.224 -1.8308  0.3744 -0.6063
  687MOL0     O92613   8.765   6.488   4.210  0.5482 -0.0466  0.5385
  687MOL0     C92614   8.902   6.470   4.201 -0.3819  0.3756 -0.5666
  687MOL0     C92615   8.952   6.344   4.216 -0.8756  1.2527  0.1040
  687MOL0     C92616   9.093   6.309   4.217  0.3525 -0.1001  0.8497
  687MOL0     C92617   9.185   6.415   4.197  0.1588 -0.3348  0.4008
  687MOL0     O92618   9.319   6.382   4.173  0.7842  0.1146  0.4532
  687MOL0     C92619   9.409   6.488   4.169  0.5828 -0.0184  0.8750
  687MOL0     C92620   9.538   6.416   4.176  1.0138 -0.1956 -0.7429
  687MOL0     C92621   9.657   6.505   4.198 -0.3987 -0.9560 -0.2708
  687MOL0     C92622   9.787   6.421   4.175 -1.2720  0.2486  0.2469
  687MOL0     C92623   9.927   6.495   4.204 -0.0104  0.2419  0.3718
  687MOL0     C92624  10.041   6.407   4.137 -0.4532 -0.4160 -0.3406
  687MOL0     C92625  10.154   6.503   4.122 -0.5247 -0.4376  0.2909
  687MOL0     C92626  10.275   6.415   4.075  0.4919 -0.8291 -0.2388
  687MOL0     N92627  10.409   6.482   4.078 -1.1171  0.1228  0.0458
  687MOL0     C92628  10.531   6.410   4.055 -0.4867 -0.9512 -1.2249
  687MOL0     C92629  10.638   6.488   4.073  0.4415 -0.6513  0.5307
  687MOL0     C92630  10.780   6.450   4.056  0.4215 -0.1959 -0.2674
  687MOL0     C92631  10.852   6.540   3.965  0.6290 -0.8846 -0.1803
  687MOL0     C92632  10.990   6.469   3.957 -0.1499 -0.0436 -0.2050
  687MOL0     C92633  11.089   6.538   3.874  0.6488 -0.4609  0.5152
  687MOL0     O92634  11.206   6.467   3.853  0.6119  0.0255 -0.4992
  687MOL0     C92635  11.320   6.528   3.812  0.4066 -1.0175  0.3771
  687MOL0     C92636  11.434   6.444   3.832 -0.1306  0.1078  1.1844
  687MOL0     C92637  11.553   6.492   3.785 -0.1036  0.1988  1.6776
  687MOL0     C92638  11.569   6.621   3.732 -0.8081  0.1339  0.2541
  687MOL0     C92639  11.708   6.651   3.683  0.6403 -0.3213 -0.1591
  687MOL0     O92640  11.755   6.780   3.711 -0.0883  0.4825 -0.0274
  687MOL0     C92641  11.873   6.831   3.675  0.9742 -0.3716  0.7409
  687MOL0     C92642  11.895   6.961   3.737 -0.1827  0.5669 -0.0490
  687MOL0     C92643  12.019   7.012   3.724  0.5928 -0.3941  0.0987
  687MOL0     C92644  12.117   6.953   3.637  0.4815  0.4783 -0.2181
  687MOL0     O92645  12.238   7.020   3.641 -0.0707 -0.8315  0.2448
  687MOL0     C92646  12.341   6.969   3.732 -0.3988 -0.2399  0.9474
  687MOL0     C92647  12.473   7.031   3.687  0.9671  0.0811 -0.5035
  687MOL0     C92648  12.564   6.983   3.793 -0.1747  0.2462 -0.3963
  687MOL0     C92649  12.707   7.034   3.744 -0.4155 -0.2745 -0.1927
  687MOL0     C92650  12.815   6.993   3.854  0.8763  0.1979 -0.8235
  687MOL0     C92651  12.949   7.003   3.804 -0.1400 -0.9220  0.1624
  687MOL0     C92652  13.063   6.936   3.884  0.0790 -0.2290 -0.0152
  687MOL0     C92653  13.071   6.784   3.893 -0.2288 -0.4786  0.3776
  687MOL0    Cl92654  13.225   6.740   3.966 -0.0662 -0.0411  0.0975
  687MOL0     C92655  12.088   6.836   3.573  0.0703  0.0873 -0.7080
  687MOL0     C92656  11.971   6.776   3.585  0.3194 -0.4519  0.5725
  687MOL0     O92657  11.766   6.560   3.629 -0.6955 -0.4264  0.6499
  687MOL0     C92658  11.453   6.703   3.717  0.5557 -0.1662 -0.0737
  687MOL0     C92659  11.333   6.662   3.767 -0.1077 -0.1980  0.9102
  687MOL0     N92660  10.586   6.610   4.107 -0.2671 -0.2567 -0.0481
  687MOL0     N92661  10.454   6.600   4.118  0.4356 -0.1786  0.2411
  687MOL0     C92662   9.134   6.542   4.177  0.3463 -0.2518  0.0250
  687MOL0     C92663   8.995   6.572   4.181 -1.0993 -0.1749 -1.4531
  687MOL0     C92664   8.546   6.611   4.197 -0.1636 -0.2923  0.0477
  687MOL0     C92665   8.485   6.504   4.117 -0.6230 -0.9005  0.6230
  687MOL0     C92666   8.352   6.495   4.087  0.3949 -0.0051  0.4116
  687MOL0     C92667   8.263   6.592   4.133  0.2245  0.0539  0.8553
  687MOL0     O92668   8.135   6.583   4.081 -0.2837  0.2229  0.3698
  687MOL0     C92669   8.046   6.688   4.119  0.2725 -0.1087  0.2881
  687MOL0     C92670   7.914   6.665   4.036 -0.1489  0.3275 -0.4280
  687MOL0     C92671   7.796   6.752   4.092 -0.1159 -0.8930  0.4337
  687MOL0     C92672   7.679   6.749   4.000  1.2241  0.2512 -0.9335
  687MOL0     C92673   7.586   6.862   4.025 -0.3189 -0.4618  0.3034
  687MOL0     C92674   7.499   6.939   4.038 -0.2526  0.7909 -0.7348
  687MOL0     C92675   8.314   6.695   4.216  0.1983  0.2237 -0.7516
  687MOL0     C92676   8.453   6.713   4.242 -0.4388  0.2549 -0.0486
  687MOL0     C92677   8.485   6.829   4.329 -0.4255  0.0698  0.2481
  687MOL0     H92678   8.890   6.260   4.244 -0.8180  0.5520 -1.7196
  687MOL0     H92679   9.124   6.207   4.236  1.8170  0.0740 -0.3995
  687MOL0     H92680   9.405   6.547   4.077  1.3257 -0.4991  0.5195
  687MOL0     H92681   9.390   6.544   4.260 -0.9375 -2.2356  2.0011
  687MOL0     H92682   9.551   6.371   4.078  0.8710 -0.0398 -0.8354
  687MOL0     H92683   9.546   6.341   4.255  0.5014  1.1485  0.6475
  687MOL0     H92684   9.657   6.548   4.299  3.0034  0.3495 -0.6989
  687MOL0     H92685   9.660   6.584   4.124 -0.5848 -1.2314 -0.5756
  687MOL0     H92686   9.777   6.330   4.235 -3.8493  1.8641  2.4803
  687MOL0     H92687   9.776   6.384   4.073 -0.9916 -1.3069  0.7614
  687MOL0     H92688   9.939   6.595   4.163  0.3342 -0.3647 -1.0742
  687MOL0     H92689   9.951   6.503   4.311  2.2405 -0.8055  0.0009
  687MOL0     H92690  10.072   6.327   4.205  1.8522 -0.8556 -1.8124
  687MOL0     H92691   9.993   6.378   4.043 -1.1889  1.4334 -0.5834
  687MOL0     H92692  10.174   6.547   4.220 -1.2732 -3.9301  2.1959
  687MOL0     H92693  10.139   6.577   4.042 -1.0820 -0.0829  0.7244
  687MOL0     H92694  10.280   6.324   4.136 -0.3472 -1.3585 -0.9434
  687MOL0     H92695  10.255   6.397   3.969  1.0414 -1.1090 -0.2999
  687MOL0     H92696  10.541   6.305   4.031  0.7440 -0.9772 -0.6868
  687MOL0     H92697  10.826   6.444   4.155  1.0784 -1.5296 -0.6373
  687MOL0     H92698  10.780   6.354   4.004  0.5161  0.1814 -0.9729
  687MOL0     H92699  10.817   6.530   3.862  1.5339 -3.8106 -0.2854
  687MOL0     H92700  10.853   6.642   4.004  2.4484 -0.4693 -1.2014
  687MOL0     H92701  10.988   6.368   3.916  1.5533  0.4684 -1.7032
  687MOL0     H92702  11.042   6.458   4.053  2.1297 -0.0624 -1.3523
  687MOL0     H92703  11.113   6.629   3.929  3.3625 -0.7934  0.0472
  687MOL0     H92704  11.039   6.576   3.784 -1.4261 -0.6977  1.5258
  687MOL0     H92705  11.422   6.344   3.871 -2.7570  0.4263  1.3631
  687MOL0     H92706  11.641   6.428   3.781  0.3660  0.8257  1.6554
  687MOL0     H92707  11.820   6.989   3.810  1.0087  0.8631  1.0954
  687MOL0     H92708  12.055   7.097   3.781  1.6121 -1.7428  1.5514
  687MOL0     H92709  12.319   7.009   3.832 -1.8847  3.8375 -0.7772
  687MOL0     H92710  12.345   6.860   3.728 -2.0027 -0.3060  0.6217
  687MOL0     H92711  12.489   6.981   3.592  0.3798 -1.5108  0.1932
  687MOL0     H92712  12.470   7.139   3.672 -0.8508  0.0395 -0.7207
  687MOL0     H92713  12.536   7.024   3.891 -1.2484 -0.5717 -0.3343
  687MOL0     H92714  12.575   6.875   3.801  2.1371  0.5233  1.0856
  687MOL0     H92715  12.703   7.144   3.747 -0.1080 -0.1345 -2.8092
  687MOL0     H92716  12.728   6.998   3.643  0.7947 -3.0491  0.9448
  687MOL0     H92717  12.802   6.895   3.901 -0.4554  1.3651  1.4459
  687MOL0     H92718  12.802   7.046   3.949  1.1756 -1.7441  0.3416
  687MOL0     H92719  12.965   6.958   3.706 -0.8711 -2.9377  0.9280
  687MOL0     H92720  12.975   7.109   3.789 -1.7947 -0.3918  0.8603
  687MOL0     H92721  13.076   6.978   3.984  0.3781 -1.1355  0.3338
  687MOL0     H92722  13.159   6.956   3.834  0.4687 -2.4843 -0.2812
  687MOL0     H92723  12.979   6.756   3.944 -0.5562  1.3170  0.8566
  687MOL0     H92724  13.074   6.753   3.788  1.0540 -1.1440  0.5898
  687MOL0     H92725  12.167   6.800   3.507  0.2934 -0.8866  0.0817
  687MOL0     H92726  11.943   6.698   3.516  0.8698 -0.2314  0.0888
  687MOL0     H92727  11.472   6.803   3.678  0.5266  0.5897  1.7158
  687MOL0     H92728  11.247   6.728   3.763  0.0184 -0.0790  0.1267
  687MOL0     H92729   9.194   6.629   4.153 -1.3470  0.3227 -2.4139
  687MOL0     H92730   8.969   6.677   4.187  0.1168  0.0693  0.6524
  687MOL0     H92731   8.540   6.415   4.087 -1.4908 -1.2654  0.0489
  687MOL0     H92732   8.323   6.415   4.021  2.3305 -0.7415  0.3781
  687MOL0     H92733   8.093   6.776   4.074  0.6741 -1.2781 -1.6857
  687MOL0     H92734   8.018   6.703   4.224 -2.8050 -0.8452 -0.3324
  687MOL0     H92735   7.892   6.558   4.033  0.4839  0.2155 -1.8728
  687MOL0     H92736   7.937   6.688   3.932  2.4860 -2.6777 -0.6404
  687MOL0     H92737   7.831   6.855   4.106  2.5558 -1.8790  1.7329
  687MOL0     H92738   7.768   6.728   4.194  2.5955 -3.8709  0.6573
  687MOL0     H92739   7.719   6.753   3.898  1.8668  1.5220 -0.6466
  687MOL0     H92740   7.629   6.655   4.027 -0.4515  1.8141  1.8030
  687MOL0     H92741   7.423   7.014   4.037  0.6601  1.8876  1.9176
  687MOL0     H92742   8.251   6.771   4.261  1.4232  1.7280 -1.4916
  687MOL0     H92743   8.555   6.810   4.411  0.2440  1.8784  0.1535
  687MOL0     H92744   8.525   6.905   4.260 -3.2629  0.9671 -0.5393
  687MOL0     H92745   8.393   6.863   4.377 -2.4422  0.8569 -3.7298
  688MOL0     O92746   0.613   1.453   3.827 -0.6551 -0.2005  0.5252
  688MOL0     C92747   0.598   1.443   3.704 -0.0239 -0.9149  0.2392
  688MOL0     O92748   0.690   1.487   3.612 -0.0813 -0.2380  0.3558
  688MOL0     C92749   0.769   1.589   3.652 -0.7068  0.8803 -0.5847
  688MOL0     C92750   0.902   1.580   3.599  0.7338  0.5169  0.4688
  688MOL0     C92751   0.993   1.689   3.622  1.0295 -0.8258 -0.2240
  688MOL0     C92752   0.936   1.810   3.683 -0.4992  0.3743 -0.6537
  688MOL0     O92753   1.014   1.920   3.706 -0.6184 -0.0321  0.2793
  688MOL0     C92754   1.084   1.961   3.585  0.2523 -0.4871  0.5094
  688MOL0     C92755   1.107   2.121   3.577  0.9643 -0.2251  0.0601
  688MOL0     C92756   1.206   2.174   3.681 -1.1138 -0.3537 -0.5025
  688MOL0     C92757   1.336   2.169   3.607  0.3189 -0.1227  0.3348
  688MOL0     C92758   1.460   2.171   3.703  0.2995  0.6920  0.4458
  688MOL0     C92759   1.587   2.227   3.627 -0.3504 -0.7644 -0.7303
  688MOL0     C92760   1.716   2.183   3.710 -0.5853 -0.4248  0.4733
  688MOL0     C92761   1.832   2.260   3.647 -0.5154  0.7148 -1.3943
  688MOL0     N92762   1.960   2.208   3.704 -0.3967 -0.4264  0.0312
  688MOL0     C92763   2.009   2.231   3.830  0.1089  0.0070 -0.1675
  688MOL0     C92764   2.117   2.156   3.831 -0.7934  1.0193 -0.0554
  688MOL0     C92765   2.212   2.135   3.940  0.0673  0.6645 -0.4138
  688MOL0     C92766   2.338   2.193   3.893  0.4524 -0.0218  0.4909
  688MOL0     C92767   2.442   2.163   4.006  0.5250 -0.1515  0.2008
  688MOL0     C92768   2.580   2.223   3.999 -0.2070  0.6720  0.0395
  688MOL0     O92769   2.657   2.168   3.894 -0.5533 -0.3511 -0.5183
  688MOL0     C92770   2.776   2.135   3.938 -0.4132 -0.2246 -0.2727
  688MOL0     C92771   2.874   2.223   3.965 -0.2608 -0.1790 -0.1628
  688MOL0     C92772   3.010   2.180   3.983 -0.7957  0.1716  1.2843
  688MOL0     C92773   3.042   2.050   4.000 -0.2110 -1.1440 -0.5660
  688MOL0     C92774   3.182   2.005   4.042 -0.8724  0.2030  0.7749
  688MOL0     O92775   3.200   1.871   4.047  0.1193 -0.2359  0.8813
  688MOL0     C92776   3.328   1.824   4.076  0.6439 -0.1503 -0.8927
  688MOL0     C92777   3.390   1.850   4.204 -0.6098 -0.6404  0.3474
  688MOL0     C92778   3.523   1.810   4.222 -0.4167 -0.0074  0.5645
  688MOL0     C92779   3.586   1.720   4.126  0.1926  0.5671  0.2658
  688MOL0     O92780   3.714   1.668   4.150  0.2286  0.5483 -0.0598
  688MOL0     C92781   3.779   1.693   4.274 -0.6776  1.1070 -0.6053
  688MOL0     C92782   3.910   1.607   4.283  0.8410  0.5350  0.3458
  688MOL0     C92783   3.880   1.457   4.294  0.5557  1.2195 -0.2697
  688MOL0     C92784   3.853   1.390   4.165  0.2075  0.1613  0.6320
  688MOL0     C92785   3.763   1.260   4.177 -0.1833  0.0298  0.7302
  688MOL0     C92786   3.806   1.153   4.267 -0.1531 -0.0876 -0.0312
  688MOL0     C92787   3.946   1.104   4.235  0.3612  0.0845 -0.2959
  688MOL0     C92788   3.972   0.965   4.273 -0.3024 -0.3438 -0.7983
  688MOL0    Cl92789   4.151   0.943   4.256 -0.5852 -0.2738  0.3823
  688MOL0     C92790   3.514   1.696   4.008 -0.1173  0.2397  0.2152
  688MOL0     C92791   3.388   1.746   3.975 -0.4243  0.1564  0.2332
  688MOL0     O92792   3.266   2.093   4.047 -0.0306 -0.6774  0.3831
  688MOL0     C92793   2.939   1.957   3.984  0.2418  0.1495  0.3007
  688MOL0     C92794   2.811   1.998   3.953  0.1988  0.1387 -0.4819
  688MOL0     N92795   2.129   2.083   3.713  0.4106  0.4824 -0.7697
  688MOL0     N92796   2.039   2.136   3.630  0.4153  0.9994  0.2906
  688MOL0     C92797   0.803   1.812   3.728  0.2642 -0.0747 -0.8764
  688MOL0     C92798   0.719   1.706   3.712  0.3177  0.1722 -0.1047
  688MOL0     C92799   0.473   1.379   3.663  0.2997 -0.5881 -0.0626
  688MOL0     C92800   0.363   1.465   3.626  0.4230  0.3585 -0.2320
  688MOL0     C92801   0.243   1.410   3.588 -0.0268  0.7292 -0.1352
  688MOL0     C92802   0.235   1.275   3.565 -0.0023  0.0859 -0.0045
  688MOL0     O92803   0.110   1.240   3.519 -0.2214 -0.0904  0.0054
  688MOL0     C92804   0.085   1.100   3.487 -0.5225 -1.2316  0.2999
  688MOL0     C92805   0.042   1.007   3.601 -0.4956 -0.4146 -0.5365
  688MOL0     C92806  -0.025   1.066   3.722 -0.0937  1.1562  0.1740
  688MOL0     C92807  -0.081   0.960   3.830 -0.0273 -0.0537  0.2131
  688MOL0     C92808  -0.168   1.039   3.920 -0.5445 -0.0462 -0.2573
  688MOL0     C92809  -0.226   1.115   3.985  0.6370 -0.3175 -0.5828
  688MOL0     C92810   0.336   1.187   3.584 -1.0173 -1.1838  0.2191
  688MOL0     C92811   0.456   1.243   3.646  0.8957 -0.0000  0.4503
  688MOL0     C92812   0.570   1.154   3.660  0.2069 -1.0327  0.5463
  688MOL0     H92813   0.936   1.488   3.554  0.3962  1.0001 -0.8363
  688MOL0     H92814   1.091   1.692   3.576  0.6883 -2.6667 -1.1878
  688MOL0     H92815   1.183   1.914   3.587  1.6698  2.2601  0.8419
  688MOL0     H92816   1.025   1.937   3.496  0.0520 -0.9058  0.7545
  688MOL0     H92817   1.010   2.172   3.581  1.7346  1.2744  3.6234
  688MOL0     H92818   1.137   2.134   3.473  0.4326  0.2745 -0.0328
  688MOL0     H92819   1.216   2.108   3.768  1.7461 -1.7978 -1.8052
  688MOL0     H92820   1.192   2.273   3.726  1.1176 -0.7093  1.1425
  688MOL0     H92821   1.339   2.080   3.543 -0.5525  0.4595 -0.5325
  688MOL0     H92822   1.342   2.253   3.538 -1.0173  0.7630  1.2201
  688MOL0     H92823   1.449   2.250   3.778  1.2946  1.4784 -0.2012
  688MOL0     H92824   1.459   2.073   3.752 -0.7688  0.0643 -0.7807
  688MOL0     H92825   1.605   2.188   3.526 -0.8149  0.6754 -1.4030
  688MOL0     H92826   1.585   2.336   3.618  0.6177 -0.4362  2.1651
  688MOL0     H92827   1.737   2.076   3.704 -0.5880 -0.5433  2.0705
  688MOL0     H92828   1.696   2.216   3.813 -1.2781  3.3431 -0.7104
  688MOL0     H92829   1.826   2.249   3.538 -2.1793 -1.0024 -1.1668
  688MOL0     H92830   1.823   2.368   3.663  2.7158  0.9449 -0.4764
  688MOL0     H92831   1.972   2.295   3.909  0.6414  1.5827 -1.1405
  688MOL0     H92832   2.180   2.182   4.033  1.7035 -1.4956  1.3751
  688MOL0     H92833   2.214   2.026   3.955  0.3032  0.7408  0.1361
  688MOL0     H92834   2.368   2.137   3.804  1.5048 -1.4259  1.6708
  688MOL0     H92835   2.338   2.299   3.867  0.8732 -0.2060 -0.3041
  688MOL0     H92836   2.459   2.055   4.008 -0.8596 -0.4098 -0.4761
  688MOL0     H92837   2.407   2.196   4.105  1.6329 -1.3071  1.0049
  688MOL0     H92838   2.614   2.190   4.098  1.2156 -0.2074 -0.7083
  688MOL0     H92839   2.585   2.333   4.003  0.9837  0.6237  0.2448
  688MOL0     H92840   2.851   2.328   3.972  1.1809  0.0869  0.8751
  688MOL0     H92841   3.089   2.249   4.011  1.7305 -3.1709  3.3284
  688MOL0     H92842   3.321   1.891   4.276  1.0763 -1.3124  2.4677
  688MOL0     H92843   3.574   1.836   4.314 -0.6340 -2.8905  1.6165
  688MOL0     H92844   3.813   1.797   4.285 -0.3479  1.0603 -1.1544
  688MOL0     H92845   3.714   1.670   4.359  1.0969 -1.9804  0.0468
  688MOL0     H92846   3.985   1.624   4.205  1.6293  1.3349  1.2534
  688MOL0     H92847   3.961   1.638   4.375  0.6368  2.3309 -0.1239
  688MOL0     H92848   3.964   1.402   4.338 -2.6068 -3.7633  0.2580
  688MOL0     H92849   3.800   1.437   4.366  0.4667 -0.1647 -0.7373
  688MOL0     H92850   3.948   1.365   4.117  1.1891  2.9786  0.9262
  688MOL0     H92851   3.801   1.453   4.092 -1.4379 -1.5206  0.2682
  688MOL0     H92852   3.752   1.226   4.074 -3.3118  2.4801  0.1038
  688MOL0     H92853   3.661   1.290   4.205 -0.2582  1.7617 -1.1603
  688MOL0     H92854   3.799   1.188   4.371 -0.4255 -0.1390 -0.0319
  688MOL0     H92855   3.738   1.070   4.252 -2.1224  1.3478  0.5018
  688MOL0     H92856   4.021   1.176   4.271  0.1350 -0.5773  1.6112
  688MOL0     H92857   3.957   1.118   4.127 -0.8176  0.4129 -0.3809
  688MOL0     H92858   3.935   0.934   4.371 -2.4180  0.0641 -1.4145
  688MOL0     H92859   3.922   0.904   4.197 -1.8640  0.7462 -0.7054
  688MOL0     H92860   3.571   1.634   3.939  1.2826  1.3747  0.2946
  688MOL0     H92861   3.335   1.701   3.892 -0.8348 -3.2049  2.1209
  688MOL0     H92862   2.957   1.851   4.000 -1.3599 -0.0199  1.1543
  688MOL0     H92863   2.723   1.934   3.951 -0.8964  1.1961  3.7600
  688MOL0     H92864   0.761   1.888   3.794 -0.3311 -3.0488  2.4443
  688MOL0     H92865   0.618   1.706   3.753 -0.0843 -0.9939 -1.0134
  688MOL0     H92866   0.370   1.572   3.638 -0.7309  0.4349 -0.0955
  688MOL0     H92867   0.155   1.470   3.565 -0.3467 -0.6204 -2.8636
  688MOL0     H92868   0.171   1.066   3.429  1.4924  1.4157  1.5043
  688MOL0     H92869   0.006   1.119   3.414  0.4746  1.1311 -0.2641
  688MOL0     H92870   0.134   0.952   3.622 -0.2075 -0.2458 -1.3190
  688MOL0     H92871  -0.025   0.932   3.557 -0.2127 -0.2057 -1.3453
  688MOL0     H92872  -0.110   1.126   3.688 -2.1154 -1.1699  0.7584
  688MOL0     H92873   0.044   1.131   3.776  0.0482  0.0123  1.4271
  688MOL0     H92874  -0.149   0.888   3.783 -1.0225  2.3404 -2.3327
  688MOL0     H92875   0.005   0.919   3.885  0.2450  0.2114 -0.0107
  688MOL0     H92876  -0.284   1.169   4.058 -0.0869 -2.9454  0.9653
  688MOL0     H92877   0.320   1.082   3.564  2.5224 -1.6748 -0.7012
  688MOL0     H92878   0.554   1.070   3.728  1.9975 -0.0415  2.3259
  688MOL0     H92879   0.587   1.107   3.563  2.7861  2.5272 -0.9220
  688MOL0     H92880   0.652   1.219   3.692 -1.3295  0.6800  1.1493
  689MOL0     O92881   8.699   6.543   6.705  0.1723  0.3273  0.0131
  689MOL0     C92882   8.750   6.553   6.812  0.0375 -0.2144 -0.0599
  689MOL0     O92883   8.884   6.543   6.832  0.1009 -0.5149 -0.0359
  689MOL0     C92884   8.959   6.499   6.727  0.2648 -0.0870  0.0460
  689MOL0     C92885   9.024   6.592   6.659 -0.4499 -1.1581  0.7914
  689MOL0     C92886   9.115   6.544   6.557 -0.2622 -0.0714  0.1777
  689MOL0     C92887   9.112   6.412   6.518  0.2706 -0.0243 -0.5279
  689MOL0     O92888   9.189   6.380   6.411  0.3084 -0.6111  0.0468
  689MOL0     C92889   9.140   6.283   6.321  0.0695  0.9072  0.7236
  689MOL0     C92890   9.253   6.213   6.242 -0.3404  0.4590 -1.0762
  689MOL0     C92891   9.312   6.094   6.335  0.3712 -0.6990 -0.9208
  689MOL0     C92892   9.451   6.060   6.294  0.2824 -0.1124  0.0700
  689MOL0     C92893   9.449   6.005   6.144  0.2045  0.1978 -0.2321
  689MOL0     C92894   9.588   5.973   6.100 -1.0424 -0.3114  0.9264
  689MOL0     C92895   9.577   5.893   5.971 -0.4257  0.9807  0.3237
  689MOL0     C92896   9.707   5.859   5.907 -1.2157  0.6198  0.5126
  689MOL0     N92897   9.729   5.948   5.791 -0.2219 -0.3512 -0.3513
  689MOL0     C92898   9.851   5.987   5.760 -0.8453 -0.6618 -0.1782
  689MOL0     C92899   9.834   6.064   5.651 -0.0101  0.1632  0.7069
  689MOL0     C92900   9.949   6.132   5.581 -0.6161 -0.4462  1.0580
  689MOL0     C92901   9.985   6.039   5.457 -0.5184 -0.2169 -0.1968
  689MOL0     C92902  10.101   6.097   5.381 -0.5402 -0.4324 -0.3446
  689MOL0     C92903  10.233   6.071   5.454 -0.9412  0.1781 -0.0622
  689MOL0     O92904  10.268   5.933   5.442  0.4526  0.4041 -0.0680
  689MOL0     C92905  10.401   5.888   5.466  1.0600 -0.0756 -0.1132
  689MOL0     C92906  10.430   5.756   5.486 -0.2831 -0.3531  0.4311
  689MOL0     C92907  10.560   5.714   5.493 -0.6864  0.5202 -0.3245
  689MOL0     C92908  10.668   5.801   5.474 -0.0371  0.0780 -0.9753
  689MOL0     C92909  10.804   5.742   5.472  0.2820 -0.2069 -0.6267
  689MOL0     O92910  10.914   5.828   5.476  0.1459  0.2787  0.0501
  689MOL0     C92911  11.048   5.790   5.497 -0.1690  0.2818  0.0973
  689MOL0     C92912  11.111   5.678   5.458  0.4395  0.2014 -0.3901
  689MOL0     C92913  11.246   5.667   5.471 -0.5695 -0.8170  0.7245
  689MOL0     C92914  11.336   5.771   5.525 -0.7760  0.7790  0.3494
  689MOL0     O92915  11.469   5.747   5.552  0.0314 -0.4827 -0.5292
  689MOL0     C92916  11.561   5.860   5.572 -0.1950 -0.2445  0.9902
  689MOL0     C92917  11.698   5.801   5.608  0.1064  0.2247  0.5078
  689MOL0     C92918  11.707   5.702   5.724 -0.1499  0.5085  1.2020
  689MOL0     C92919  11.821   5.591   5.694  0.8319 -0.1046  0.3704
  689MOL0     C92920  11.960   5.634   5.719  0.7001 -0.2156 -0.4673
  689MOL0     C92921  11.985   5.652   5.858  0.1553  0.0251  0.3430
  689MOL0     C92922  12.140   5.661   5.873  0.6708 -0.3512 -0.8294
  689MOL0     C92923  12.180   5.748   5.996  0.1553  0.8334  0.4308
  689MOL0    Cl92924  12.082   5.707   6.138 -0.9499  0.3893  0.5675
  689MOL0     C92925  11.274   5.892   5.552  0.5054 -0.3192  0.7847
  689MOL0     C92926  11.129   5.895   5.549  0.1584 -0.8726  0.2850
  689MOL0     O92927  10.815   5.621   5.491  0.3908  0.0278 -0.1371
  689MOL0     C92928  10.648   5.930   5.451 -0.2371 -0.1638  0.2771
  689MOL0     C92929  10.513   5.980   5.450  1.0319 -0.3884 -0.6043
  689MOL0     N92930   9.699   6.061   5.612 -0.2703  0.3226  0.3214
  689MOL0     N92931   9.636   5.985   5.698  0.0783 -0.2546 -0.0258
  689MOL0     C92932   9.032   6.325   6.587  0.8050 -0.4630  0.5070
  689MOL0     C92933   8.961   6.363   6.702 -0.1097  0.3499  0.1006
  689MOL0     C92934   8.679   6.596   6.934 -0.5455 -0.1732  1.0499
  689MOL0     C92935   8.751   6.668   7.034  0.4535 -1.1095 -0.3741
  689MOL0     C92936   8.679   6.711   7.147 -0.3585 -0.4693  0.2912
  689MOL0     C92937   8.541   6.686   7.156  0.2516 -0.4724 -0.0405
  689MOL0     O92938   8.470   6.755   7.249  0.8744  1.2380  0.2023
  689MOL0     C92939   8.410   6.879   7.207 -0.3335  0.5852  0.1570
  689MOL0     C92940   8.255   6.880   7.205 -0.5405 -0.4324 -0.2836
  689MOL0     C92941   8.191   6.877   7.346 -0.0450  0.1474  0.3317
  689MOL0     C92942   8.041   6.885   7.335 -0.2787 -0.2183 -0.3445
  689MOL0     C92943   7.999   6.911   7.473 -0.4435  0.3354  0.6519
  689MOL0     C92944   7.969   6.925   7.592  0.4638 -0.4001  0.7026
  689MOL0     C92945   8.471   6.610   7.066  0.2652  0.2705 -0.1308
  689MOL0     C92946   8.540   6.568   6.956  0.0917  0.5833  0.0379
  689MOL0     C92947   8.461   6.480   6.871  1.2059 -0.8930  0.4153
  689MOL0     H92948   9.032   6.696   6.688 -1.8598 -1.1762  1.3329
  689MOL0     H92949   9.185   6.609   6.506  0.4578 -1.9654 -1.3478
  689MOL0     H92950   9.080   6.206   6.371 -1.2751  1.3768 -0.1171
  689MOL0     H92951   9.073   6.325   6.246 -1.0176 -0.8384  0.6706
  689MOL0     H92952   9.322   6.290   6.207  1.2243 -1.0836 -1.5245
  689MOL0     H92953   9.207   6.166   6.155 -1.8189 -0.6571  0.2457
  689MOL0     H92954   9.249   6.004   6.335  0.4776 -0.9718  3.3501
  689MOL0     H92955   9.319   6.134   6.437 -1.9657 -0.5628 -0.7534
  689MOL0     H92956   9.516   6.147   6.284 -1.3010  0.9043 -2.6054
  689MOL0     H92957   9.496   5.990   6.365 -1.7781 -2.0123 -0.3475
  689MOL0     H92958   9.376   5.923   6.138 -0.0779  0.2796  1.4033
  689MOL0     H92959   9.404   6.085   6.085 -0.0092  2.1993  2.4318
  689MOL0     H92960   9.646   6.064   6.086  1.8148 -2.1147 -0.0230
  689MOL0     H92961   9.641   5.905   6.168  2.3578  0.4347 -0.7313
  689MOL0     H92962   9.511   5.942   5.899 -0.9918 -0.4223 -0.1456
  689MOL0     H92963   9.526   5.801   6.000  1.1901 -0.4715 -1.2017
  689MOL0     H92964   9.791   5.877   5.975 -2.3719  1.1608  1.8479
  689MOL0     H92965   9.714   5.752   5.884  2.4706  0.3780  2.0420
  689MOL0     H92966   9.952   5.978   5.799 -0.1297  2.9500 -0.8795
  689MOL0     H92967   9.929   6.233   5.546  1.5886  0.6975  2.7997
  689MOL0     H92968  10.040   6.143   5.641  0.0404  0.3805 -0.0427
  689MOL0     H92969  10.006   5.939   5.496 -0.6332 -0.4481 -0.7209
  689MOL0     H92970   9.903   6.019   5.387  0.2599  0.8437 -1.4540
  689MOL0     H92971  10.093   6.205   5.366 -3.5832 -0.6414 -1.0141
  689MOL0     H92972  10.107   6.046   5.284 -0.5123  0.7110 -0.9618
  689MOL0     H92973  10.232   6.100   5.560  0.8376 -0.4191  0.1520
  689MOL0     H92974  10.302   6.138   5.403  0.9563 -0.4736  1.5124
  689MOL0     H92975  10.343   5.692   5.498  2.0474 -3.4270  2.7339
  689MOL0     H92976  10.576   5.607   5.500  0.8918  0.7367 -0.1085
  689MOL0     H92977  11.064   5.603   5.396 -0.2769  1.5459 -1.5096
  689MOL0     H92978  11.285   5.573   5.433 -2.2026 -0.3296 -2.5831
  689MOL0     H92979  11.570   5.912   5.476 -1.4612 -0.1865  0.8870
  689MOL0     H92980  11.518   5.922   5.651 -3.1414 -1.8976  0.8077
  689MOL0     H92981  11.753   5.764   5.522  0.7218 -0.8194  1.3270
  689MOL0     H92982  11.758   5.888   5.637  0.4995  0.7532 -1.7536
  689MOL0     H92983  11.734   5.760   5.812  1.7700  0.6254  0.5712
  689MOL0     H92984  11.611   5.652   5.741 -0.5553  0.8859  0.1298
  689MOL0     H92985  11.818   5.557   5.590 -0.9855 -2.1422  0.9999
  689MOL0     H92986  11.791   5.502   5.750  1.6222 -0.8174 -0.3234
  689MOL0     H92987  11.981   5.721   5.656 -1.0340 -0.2260 -1.1079
  689MOL0     H92988  12.019   5.550   5.680  0.3632 -0.1530 -1.1276
  689MOL0     H92989  11.932   5.734   5.907 -0.5703 -0.1936 -0.0522
  689MOL0     H92990  11.944   5.569   5.915 -2.5841  1.3252  0.4534
  689MOL0     H92991  12.183   5.709   5.785 -0.6855 -1.2432 -2.0261
  689MOL0     H92992  12.194   5.566   5.879  0.9380 -0.1552  0.0132
  689MOL0     H92993  12.287   5.748   6.015  1.1819 -1.5144 -4.0921
  689MOL0     H92994  12.164   5.852   5.967 -1.2252  0.9747  1.5527
  689MOL0     H92995  11.325   5.980   5.589 -2.2536  1.1269  1.4851
  689MOL0     H92996  11.082   5.992   5.560 -0.5264 -0.4972 -3.9748
  689MOL0     H92997  10.724   6.001   5.419  1.0801 -3.3114 -4.7801
  689MOL0     H92998  10.493   6.080   5.414  0.7046 -0.6777 -1.2557
  689MOL0     H92999   9.026   6.225   6.546 -1.0168  0.4724 -1.6953
  689MOL0     H93000   8.906   6.296   6.768 -0.4751 -0.1451 -0.6763
  689MOL0     H93001   8.859   6.678   7.037  0.3580  1.3365 -2.1232
  689MOL0     H93002   8.731   6.767   7.223  0.2896 -0.2140 -0.3299
  689MOL0     H93003   8.460   6.927   7.123 -0.9031  4.7529  1.9840
  689MOL0     H93004   8.446   6.952   7.279  0.4666  1.0859 -0.7237
  689MOL0     H93005   8.231   6.791   7.146 -2.0697 -1.5962  1.9422
  689MOL0     H93006   8.225   6.967   7.146 -0.2693 -1.2733 -1.7083
  689MOL0     H93007   8.227   6.963   7.402  0.3480 -0.1844  0.5951
  689MOL0     H93008   8.213   6.783   7.398 -1.7059 -2.9512 -3.9090
  689MOL0     H93009   8.020   6.969   7.268  2.1112 -2.0079 -3.6707
  689MOL0     H93010   7.991   6.792   7.307 -2.9228  1.0860 -0.2321
  689MOL0     H93011   7.963   6.935   7.698 -1.8550 -1.7121  0.7549
  689MOL0     H93012   8.366   6.586   7.078  1.0299 -3.2659  0.3838
  689MOL0     H93013   8.380   6.428   6.922  0.1829 -1.8296 -2.0361
  689MOL0     H93014   8.412   6.528   6.785 -0.9535 -2.1489  0.8693
  689MOL0     H93015   8.535   6.409   6.834 -1.2485 -2.7225 -1.2617
  690MOL0     O93016   7.842   5.681   2.575 -0.1151  0.4489  0.8483
  690MOL0     C93017   7.869   5.718   2.692  0.1853 -0.1570  0.1017
  690MOL0     O93018   7.999   5.738   2.734  0.0682 -0.1524 -0.1438
  690MOL0     C93019   8.108   5.713   2.649  0.1205  0.0123  0.3118
  690MOL0     C93020   8.190   5.601   2.661  0.7769 -0.2051  0.0231
  690MOL0     C93021   8.310   5.591   2.587  0.2711  0.0153 -0.5856
  690MOL0     C93022   8.355   5.697   2.507 -0.2280  0.3382  0.2522
  690MOL0     O93023   8.466   5.682   2.437 -0.1674 -0.1998  0.1261
  690MOL0     C93024   8.556   5.794   2.425  0.4360 -0.2458 -1.0405
  690MOL0     C93025   8.615   5.810   2.286 -0.4534  0.6684 -0.3285
  690MOL0     C93026   8.695   5.934   2.266 -1.1979 -0.3388  0.1781
  690MOL0     C93027   8.612   6.059   2.307 -0.5209 -0.2055  0.4457
  690MOL0     C93028   8.671   6.185   2.245 -0.4180 -0.8997  1.0916
  690MOL0     C93029   8.811   6.215   2.300  0.2279  0.2805 -0.0159
  690MOL0     C93030   8.857   6.345   2.240 -0.0642 -0.1163  0.0694
  690MOL0     C93031   8.966   6.337   2.133  0.4675  0.4477  0.4584
  690MOL0     N93032   9.079   6.261   2.173 -0.8239  0.3568  0.3542
  690MOL0     C93033   9.168   6.278   2.272 -0.1455  0.1601 -0.2389
  690MOL0     C93034   9.259   6.170   2.263  0.0405  0.0788  0.5434
  690MOL0     C93035   9.388   6.159   2.344 -0.2811 -0.7978 -0.5969
  690MOL0     C93036   9.385   6.038   2.444  0.8424  0.4066  0.5033
  690MOL0     C93037   9.499   6.030   2.542 -0.3804  0.2012  0.4760
  690MOL0     C93038   9.619   5.952   2.496 -0.1252 -1.4100  0.9452
  690MOL0     O93039   9.691   6.018   2.387 -0.2751  0.1961 -0.0225
  690MOL0     C93040   9.826   6.021   2.379 -0.2052 -0.3671  0.6825
  690MOL0     C93041   9.877   6.011   2.250 -0.5644  0.1170  0.6779
  690MOL0     C93042  10.012   6.040   2.219 -0.1741 -0.7112  0.1137
  690MOL0     C93043  10.105   6.062   2.327  0.2652  1.0544  0.3937
  690MOL0     C93044  10.242   6.090   2.303 -0.0584  0.3158 -0.5612
  690MOL0     O93045  10.294   6.091   2.179  0.0897 -0.4807  0.6115
  690MOL0     C93046  10.418   6.120   2.150 -0.0959 -0.4728 -0.4470
  690MOL0     C93047  10.480   6.048   2.047  0.2635  0.6893  0.1817
  690MOL0     C93048  10.608   6.087   2.007 -0.1912 -0.1469 -0.6351
  690MOL0     C93049  10.672   6.199   2.063 -0.8657 -0.6334 -0.5758
  690MOL0     O93050  10.800   6.234   2.033  0.2174 -0.8214  0.3017
  690MOL0     C93051  10.863   6.179   1.923 -0.7060 -0.0306 -0.0024
  690MOL0     C93052  11.002   6.239   1.904  0.2230 -0.3034  0.5052
  690MOL0     C93053  11.068   6.186   1.782 -0.6197  0.5503  0.7760
  690MOL0     C93054  11.130   6.041   1.793  0.3120 -0.8745 -0.4720
  690MOL0     C93055  11.279   6.047   1.845  0.6955 -0.1372 -0.0758
  690MOL0     C93056  11.317   5.917   1.905  0.1945  0.2171  0.5305
  690MOL0     C93057  11.463   5.925   1.927 -0.1806 -0.0909  0.1423
  690MOL0     C93058  11.500   5.834   2.040 -0.4439  1.4237  0.1986
  690MOL0    Cl93059  11.474   5.662   1.992 -0.6294 -0.0153 -0.1951
  690MOL0     C93060  10.609   6.283   2.153  0.4605 -0.4363 -1.0691
  690MOL0     C93061  10.477   6.240   2.194 -0.6506  0.1324  0.2675
  690MOL0     O93062  10.312   6.102   2.402  0.1247 -0.0250  0.3795
  690MOL0     C93063  10.053   6.070   2.457 -0.3560 -0.4386 -0.2656
  690MOL0     C93064   9.919   6.045   2.480  0.2946  0.0815  0.5484
  690MOL0     N93065   9.212   6.094   2.148  0.5395 -0.5813 -1.0515
  690MOL0     N93066   9.119   6.159   2.095  0.0310  0.7127  0.1191
  690MOL0     C93067   8.273   5.807   2.501 -0.5489  0.4257 -0.0689
  690MOL0     C93068   8.157   5.819   2.569  0.4073 -0.6887  0.1828
  690MOL0     C93069   7.754   5.740   2.791  0.5862  0.1451  0.5055
  690MOL0     C93070   7.782   5.840   2.886  0.2537  0.0342  0.0230
  690MOL0     C93071   7.683   5.862   2.981 -0.5542 -0.4276 -0.2351
  690MOL0     C93072   7.569   5.799   2.994 -0.1720 -0.1651 -0.5078
  690MOL0     O93073   7.472   5.832   3.087  0.3652 -0.2587  0.2379
  690MOL0     C93074   7.352   5.889   3.045  0.1520  0.6216 -0.5936
  690MOL0     C93075   7.249   5.845   3.152 -0.1175  0.5824 -0.5190
  690MOL0     C93076   7.123   5.918   3.130  1.2952 -0.4747 -1.1331
  690MOL0     C93077   7.007   5.858   3.211  0.9769  0.2523 -0.2565
  690MOL0     C93078   6.963   5.955   3.311 -0.3616  0.4367  0.3004
  690MOL0     C93079   6.920   6.031   3.397  0.3889 -0.0382 -0.2173
  690MOL0     C93080   7.534   5.705   2.895  0.0332 -0.1332  0.5938
  690MOL0     C93081   7.628   5.676   2.790 -0.0320 -0.7419 -0.0598
  690MOL0     C93082   7.600   5.572   2.692  0.5584 -0.4631  0.5351
  690MOL0     H93083   8.163   5.527   2.735  1.5726 -0.6342 -0.1091
  690MOL0     H93084   8.364   5.497   2.594 -2.0404 -1.2982  1.1639
  690MOL0     H93085   8.509   5.889   2.453 -0.5632 -1.0764  0.1680
  690MOL0     H93086   8.640   5.779   2.494 -2.6927 -0.8276  3.0588
  690MOL0     H93087   8.532   5.805   2.215 -2.0392 -1.8472  1.4956
  690MOL0     H93088   8.672   5.719   2.267 -0.7690  0.1672  1.0056
  690MOL0     H93089   8.711   5.937   2.158 -1.2311 -1.7383  0.1265
  690MOL0     H93090   8.795   5.921   2.308 -0.1803  0.2296 -1.9401
  690MOL0     H93091   8.515   6.042   2.258 -0.2361 -2.1272  0.4656
  690MOL0     H93092   8.617   6.056   2.416  4.5230 -2.3870  0.4013
  690MOL0     H93093   8.676   6.180   2.136 -1.6386  2.9171  0.6969
  690MOL0     H93094   8.595   6.261   2.266 -0.7811 -0.4253 -1.5470
  690MOL0     H93095   8.799   6.215   2.409 -1.7200  0.4032 -0.1990
  690MOL0     H93096   8.878   6.130   2.282  4.1238  2.1728  3.7330
  690MOL0     H93097   8.905   6.405   2.319 -1.0240  0.6824  0.0728
  690MOL0     H93098   8.778   6.405   2.195 -0.8933 -0.7922  0.6004
  690MOL0     H93099   8.914   6.297   2.045  0.0884 -1.7248  1.5993
  690MOL0     H93100   8.996   6.441   2.123  1.1323  0.2232  0.0013
  690MOL0     H93101   9.155   6.351   2.351  0.6280 -2.3003  2.3460
  690MOL0     H93102   9.467   6.146   2.269 -1.8678 -0.8812 -2.2937
  690MOL0     H93103   9.415   6.254   2.392  1.2645 -1.3838 -0.2238
  690MOL0     H93104   9.290   6.040   2.498  0.1473  0.4074 -0.6892
  690MOL0     H93105   9.378   5.941   2.393  3.1662 -0.0140  0.8638
  690MOL0     H93106   9.455   5.973   2.625 -0.9601 -1.7846 -1.1247
  690MOL0     H93107   9.527   6.124   2.590 -1.5627  0.0421  1.5399
  690MOL0     H93108   9.587   5.851   2.471  1.4983 -1.3579 -1.6414
  690MOL0     H93109   9.688   5.952   2.581 -1.0442  2.8432  1.9476
  690MOL0     H93110   9.817   5.995   2.162  3.6080  0.5489 -2.5404
  690MOL0     H93111  10.033   6.016   2.116 -0.7026 -1.8129  0.2445
  690MOL0     H93112  10.445   5.953   2.006  0.5083  1.2225 -1.3576
  690MOL0     H93113  10.653   6.022   1.932  1.9310 -2.1830  2.2118
  690MOL0     H93114  10.871   6.070   1.934 -2.2774 -0.2322 -0.6369
  690MOL0     H93115  10.806   6.204   1.834  0.8759  3.3564 -0.2077
  690MOL0     H93116  10.986   6.348   1.898 -2.4507 -0.5039  2.0765
  690MOL0     H93117  11.061   6.227   1.995  0.7557  1.9311  0.5096
  690MOL0     H93118  11.005   6.194   1.693  1.0000  1.9702 -0.3271
  690MOL0     H93119  11.160   6.244   1.768  0.4494 -0.9500  1.2949
  690MOL0     H93120  11.129   6.001   1.692  1.7148  0.0520 -0.8741
  690MOL0     H93121  11.067   5.979   1.857  0.5289  0.4320  1.0856
  690MOL0     H93122  11.303   6.127   1.915 -0.8996  0.8833 -0.6365
  690MOL0     H93123  11.336   6.064   1.753  2.1764 -1.3992  0.5594
  690MOL0     H93124  11.272   5.904   2.004  2.8386 -2.0739  1.5506
  690MOL0     H93125  11.289   5.840   1.832  0.3783  1.8087 -1.2828
  690MOL0     H93126  11.493   6.024   1.963  1.7570 -1.6260  3.1762
  690MOL0     H93127  11.512   5.905   1.831  0.3002 -0.4116  0.4496
  690MOL0     H93128  11.605   5.849   2.063 -0.4875  0.3403  1.1750
  690MOL0     H93129  11.448   5.860   2.133 -2.4610  0.4969 -0.6120
  690MOL0     H93130  10.641   6.371   2.208 -1.0719 -1.0599  0.9762
  690MOL0     H93131  10.425   6.301   2.268 -4.5940 -3.6860  1.0595
  690MOL0     H93132  10.120   6.093   2.540 -0.8167 -0.7403  0.1934
  690MOL0     H93133   9.879   6.057   2.580  1.0521  0.3605  0.8290
  690MOL0     H93134   8.314   5.872   2.424  0.4156 -0.4744 -0.3346
  690MOL0     H93135   8.104   5.914   2.563  0.2757 -0.8310 -1.1043
  690MOL0     H93136   7.880   5.888   2.878  0.4590 -0.2522  0.7766
  690MOL0     H93137   7.707   5.937   3.055 -2.5210  0.5265 -0.5295
  690MOL0     H93138   7.321   5.842   2.951  0.9848  0.9216 -1.0280
  690MOL0     H93139   7.355   5.998   3.034 -3.4237  0.7085 -2.1040
  690MOL0     H93140   7.294   5.852   3.251 -0.1686 -2.3268 -0.2038
  690MOL0     H93141   7.230   5.739   3.133  0.0828  0.5949 -0.7968
  690MOL0     H93142   7.099   5.910   3.024  1.5349 -3.0215 -1.0590
  690MOL0     H93143   7.147   6.018   3.166  1.0047 -1.1914  1.2504
  690MOL0     H93144   6.928   5.849   3.136  1.3304  3.8473 -1.2315
  690MOL0     H93145   7.038   5.763   3.256 -1.4646 -0.7163 -0.4482
  690MOL0     H93146   6.872   6.105   3.457 -1.1277  0.5211 -2.0243
  690MOL0     H93147   7.441   5.652   2.915 -0.2354 -0.2783 -0.9601
  690MOL0     H93148   7.560   5.625   2.604 -0.5291  0.3492  1.4821
  690MOL0     H93149   7.683   5.506   2.664  0.6657 -1.1199  2.3251
  690MOL0     H93150   7.515   5.515   2.729 -0.3898  1.5960  1.6703
  691MOL0     O93151   8.998   7.102   4.921 -0.3121 -0.1338  0.3015
  691MOL0     C93152   9.105   7.113   4.869 -0.9290 -0.0530  0.1252
  691MOL0     O93153   9.229   7.084   4.920  0.4073 -0.2716 -0.2392
  691MOL0     C93154   9.224   6.995   5.023  0.7551 -0.3708  0.4263
  691MOL0     C93155   9.226   6.860   5.001 -1.0103  0.3425 -0.7169
  691MOL0     C93156   9.254   6.767   5.101  0.1796 -0.2775 -0.8781
  691MOL0     C93157   9.291   6.820   5.230 -0.0750  0.3548 -0.5148
  691MOL0     O93158   9.316   6.738   5.340 -0.7772 -0.5495 -0.6607
  691MOL0     C93159   9.367   6.602   5.336  0.4285 -0.1997 -0.4904
  691MOL0     C93160   9.258   6.506   5.391 -1.2383  0.4654 -0.6196
  691MOL0     C93161   9.312   6.362   5.412  0.2242 -0.4521  0.2087
  691MOL0     C93162   9.310   6.293   5.280  1.2666 -0.3177  0.4595
  691MOL0     C93163   9.306   6.138   5.298  0.2907 -0.2362  0.9714
  691MOL0     C93164   9.444   6.073   5.284  0.9862 -0.0533  0.0222
  691MOL0     C93165   9.439   5.920   5.263  1.0096 -0.4153  0.1953
  691MOL0     C93166   9.560   5.844   5.216 -0.6172 -0.5125 -0.2228
  691MOL0     N93167   9.609   5.747   5.308  0.3954  0.1120 -0.1321
  691MOL0     C93168   9.646   5.776   5.432 -0.2397 -0.1015 -0.0779
  691MOL0     C93169   9.722   5.672   5.471  0.0485  0.5945 -0.4515
  691MOL0     C93170   9.775   5.668   5.610 -0.9971 -0.2895 -0.1240
  691MOL0     C93171   9.848   5.544   5.653 -0.2127 -0.1969 -0.5467
  691MOL0     C93172   9.872   5.544   5.804 -1.3867 -0.0559  0.0028
  691MOL0     C93173   9.946   5.415   5.859 -1.1592 -0.7030  0.5420
  691MOL0     O93174  10.078   5.412   5.793  0.6676 -0.0377  0.1146
  691MOL0     C93175  10.173   5.325   5.827 -0.3770  0.1219 -0.1925
  691MOL0     C93176  10.305   5.362   5.791  0.3537  0.4365 -0.2486
  691MOL0     C93177  10.417   5.293   5.834 -0.1867 -0.0036  1.0449
  691MOL0     C93178  10.406   5.187   5.925 -0.2974  0.4304  0.4508
  691MOL0     C93179  10.527   5.107   5.962  0.5039  0.3136  0.8523
  691MOL0     O93180  10.647   5.106   5.888 -0.5485 -0.2418 -0.3088
  691MOL0     C93181  10.773   5.116   5.954 -0.2135 -0.7596  0.7810
  691MOL0     C93182  10.886   5.071   5.894  0.0823  0.2547  0.0175
  691MOL0     C93183  11.014   5.077   5.944 -0.4470  0.0174 -0.6751
  691MOL0     C93184  11.038   5.153   6.064  0.7025 -0.5742 -0.0071
  691MOL0     O93185  11.159   5.180   6.120  0.2120  0.0108  0.1562
  691MOL0     C93186  11.277   5.169   6.047  0.3680  0.3288 -0.1032
  691MOL0     C93187  11.384   5.214   6.139  0.7266 -0.6640  0.0826
  691MOL0     C93188  11.520   5.227   6.050  0.6342  0.3368 -0.8856
  691MOL0     C93189  11.632   5.262   6.145  0.2882  0.0849  0.1684
  691MOL0     C93190  11.770   5.297   6.086  0.4177  0.2818 -0.0388
  691MOL0     C93191  11.875   5.330   6.191  0.3076  0.1851 -0.4918
  691MOL0     C93192  11.836   5.461   6.259 -0.8522  0.5565 -0.7859
  691MOL0     C93193  11.938   5.472   6.380  0.0199 -0.0800  0.0223
  691MOL0    Cl93194  11.914   5.630   6.460 -0.5273  0.0249 -0.0912
  691MOL0     C93195  10.921   5.211   6.122 -0.0351  0.4876 -0.3377
  691MOL0     C93196  10.790   5.194   6.067 -0.3360  0.4286 -0.1179
  691MOL0     O93197  10.518   5.047   6.066 -0.6297 -0.0102 -0.8416
  691MOL0     C93198  10.281   5.146   5.963  0.7640 -0.2798 -0.0466
  691MOL0     C93199  10.161   5.217   5.920  0.6101  0.6163 -0.3616
  691MOL0     N93200   9.720   5.575   5.372 -0.7853 -0.2014 -0.0456
  691MOL0     N93201   9.650   5.624   5.271  0.1974  0.8091 -0.1132
  691MOL0     C93202   9.277   6.957   5.260  0.4918 -1.1522 -0.0601
  691MOL0     C93203   9.247   7.040   5.151 -0.5257  0.1456  0.0240
  691MOL0     C93204   9.102   7.188   4.745 -0.1003  0.9723  0.4134
  691MOL0     C93205   9.224   7.164   4.668  0.1522 -0.1159  1.3407
  691MOL0     C93206   9.234   7.236   4.554  0.0801 -0.0605  0.3117
  691MOL0     C93207   9.138   7.325   4.506 -0.9174 -0.0668 -0.5359
  691MOL0     O93208   9.165   7.388   4.381 -0.0050  0.1044  0.1087
  691MOL0     C93209   9.078   7.491   4.327 -0.3486 -0.1986 -0.2402
  691MOL0     C93210   9.110   7.623   4.399  0.2941  0.1754  0.5573
  691MOL0     C93211   9.020   7.726   4.336  0.4168 -0.3034  0.4768
  691MOL0     C93212   9.049   7.862   4.401 -0.4756  0.0648  0.1260
  691MOL0     C93213   8.961   7.965   4.334  0.0108 -0.5174 -0.6328
  691MOL0     C93214   8.890   8.042   4.278 -0.2340 -0.0247 -0.1310
  691MOL0     C93215   9.024   7.344   4.581  0.7078 -0.1308 -0.0419
  691MOL0     C93216   9.008   7.282   4.712  0.4575 -0.2798  0.5339
  691MOL0     C93217   8.879   7.318   4.791 -0.1797 -0.3243 -0.3740
  691MOL0     H93218   9.208   6.814   4.905  2.6005 -2.6475 -0.1863
  691MOL0     H93219   9.262   6.661   5.077  1.5269 -1.0599  2.4644
  691MOL0     H93220   9.403   6.566   5.239  2.4166 -0.1161  0.1665
  691MOL0     H93221   9.451   6.612   5.406 -1.8006  0.4374  2.2954
  691MOL0     H93222   9.175   6.507   5.320  0.4465 -1.3442 -2.7545
  691MOL0     H93223   9.222   6.547   5.486 -0.3229  4.7461 -1.8994
  691MOL0     H93224   9.241   6.311   5.478 -0.4365 -0.2284 -0.3191
  691MOL0     H93225   9.412   6.375   5.455 -0.7724 -1.5683  3.1351
  691MOL0     H93226   9.211   6.322   5.242  0.0484  1.8832  4.7132
  691MOL0     H93227   9.389   6.326   5.212 -1.5348  4.4402 -0.9935
  691MOL0     H93228   9.264   6.108   5.395  1.9538  0.3945  1.9349
  691MOL0     H93229   9.243   6.099   5.218  1.1998  0.2245  0.0060
  691MOL0     H93230   9.500   6.104   5.195  2.6793 -0.3578  0.9277
  691MOL0     H93231   9.502   6.110   5.370 -1.4246  1.6131  1.0167
  691MOL0     H93232   9.351   5.895   5.202  2.9228 -3.9501 -1.3853
  691MOL0     H93233   9.415   5.871   5.357 -0.1456  0.9768  0.6713
  691MOL0     H93234   9.531   5.798   5.120  2.9414  0.1768 -1.7774
  691MOL0     H93235   9.638   5.916   5.189 -0.3536 -0.2523  1.2025
  691MOL0     H93236   9.627   5.866   5.490  1.4543  0.9963 -1.1077
  691MOL0     H93237   9.830   5.761   5.627 -0.9149 -0.0387 -1.6188
  691MOL0     H93238   9.690   5.669   5.678 -0.0432 -2.1706  1.2088
  691MOL0     H93239   9.788   5.453   5.647 -0.4139 -0.3885  2.6431
  691MOL0     H93240   9.940   5.534   5.596 -0.1039  2.3880 -0.9693
  691MOL0     H93241   9.780   5.551   5.863 -1.7034 -3.8928  0.2135
  691MOL0     H93242   9.935   5.629   5.832  0.2708 -1.2643  0.0715
  691MOL0     H93243   9.888   5.325   5.836 -0.4513 -0.0660 -4.8682
  691MOL0     H93244   9.959   5.415   5.968 -0.4064  4.4695  0.6604
  691MOL0     H93245  10.319   5.441   5.718 -0.8324  1.5842  0.7327
  691MOL0     H93246  10.510   5.320   5.784  0.3104 -4.2712 -0.6892
  691MOL0     H93247  10.878   5.014   5.802 -1.1676  0.7607 -0.2023
  691MOL0     H93248  11.093   5.029   5.887 -0.3818  0.1563 -0.7016
  691MOL0     H93249  11.291   5.064   6.018 -0.1833  0.2995 -0.2864
  691MOL0     H93250  11.270   5.230   5.957  2.5474 -2.7874 -2.6300
  691MOL0     H93251  11.361   5.316   6.170  2.4712 -0.2575  0.1260
  691MOL0     H93252  11.386   5.151   6.229  0.1019  1.3371  1.5801
  691MOL0     H93253  11.553   5.132   6.007  1.0096 -1.5058  3.0017
  691MOL0     H93254  11.504   5.295   5.967 -1.8043  0.8523 -0.0860
  691MOL0     H93255  11.637   5.172   6.206 -0.2508 -2.8017 -3.6962
  691MOL0     H93256  11.594   5.340   6.213 -1.6295 -1.7613  1.3385
  691MOL0     H93257  11.757   5.380   6.015 -0.9958  0.4727  0.4250
  691MOL0     H93258  11.789   5.206   6.030  0.3820  0.0733  0.2851
  691MOL0     H93259  11.875   5.238   6.251  0.2518 -1.4960 -2.9032
  691MOL0     H93260  11.966   5.338   6.132  1.2559 -2.8218  0.3575
  691MOL0     H93261  11.735   5.447   6.300 -0.6835  0.7753 -0.2857
  691MOL0     H93262  11.837   5.548   6.193 -0.6636  1.5485  0.4768
  691MOL0     H93263  11.917   5.388   6.446  3.1707 -1.7111 -0.8156
  691MOL0     H93264  12.039   5.469   6.338 -1.0131 -0.5168 -2.6010
  691MOL0     H93265  10.932   5.268   6.214  1.3784  2.5091 -1.6575
  691MOL0     H93266  10.709   5.245   6.118 -1.5960 -0.6235 -1.0048
  691MOL0     H93267  10.274   5.057   6.024 -2.1430 -0.5799 -0.6861
  691MOL0     H93268  10.065   5.182   5.956 -1.1054  2.3599 -2.8323
  691MOL0     H93269   9.312   7.004   5.351  1.1007 -0.2603 -0.7450
  691MOL0     H93270   9.238   7.148   5.158  0.0710  0.2042 -0.0485
  691MOL0     H93271   9.294   7.089   4.701  1.6533  1.1597  1.1728
  691MOL0     H93272   9.330   7.236   4.504  0.2936 -0.8549  0.7031
  691MOL0     H93273   8.973   7.466   4.342  0.1533 -2.5906 -0.3308
  691MOL0     H93274   9.108   7.496   4.222  3.5824 -1.1981  0.6678
  691MOL0     H93275   9.213   7.657   4.382  0.4127  1.7608  3.7984
  691MOL0     H93276   9.101   7.607   4.506  0.1796 -1.1291  0.3630
  691MOL0     H93277   8.917   7.692   4.350  0.0723 -0.8509 -2.6947
  691MOL0     H93278   9.029   7.738   4.228 -0.6851 -0.4083  0.3550
  691MOL0     H93279   9.050   7.860   4.511  0.1587 -4.0503  0.1936
  691MOL0     H93280   9.152   7.890   4.377 -0.9286  1.9642  0.2512
  691MOL0     H93281   8.839   8.119   4.223  0.7159 -1.5297 -3.3626
  691MOL0     H93282   8.946   7.411   4.545 -1.5005 -2.4563  0.0884
  691MOL0     H93283   8.812   7.232   4.804 -0.5133  0.0495  0.4540
  691MOL0     H93284   8.910   7.340   4.894 -2.8321 -1.7663  0.8484
  691MOL0     H93285   8.826   7.398   4.739 -0.3102 -0.5793 -0.6374
  692MOL0     O93286   0.622   7.579   8.535 -0.1930  0.0856  0.1840
  692MOL0     C93287   0.502   7.565   8.553 -0.0459 -0.2146 -0.1745
  692MOL0     O93288   0.402   7.564   8.457  0.3670  0.3132 -0.0677
  692MOL0     C93289   0.443   7.566   8.329 -0.2706  0.4346 -1.2443
  692MOL0     C93290   0.410   7.455   8.256  0.3556 -0.7557 -0.5761
  692MOL0     C93291   0.453   7.450   8.120  0.7625 -0.2094 -0.6937
  692MOL0     C93292   0.532   7.552   8.072  0.6688  1.0707  0.0761
  692MOL0     O93293   0.577   7.554   7.946 -0.1528 -0.3600 -0.1943
  692MOL0     C93294   0.650   7.428   7.913  0.3003  0.5235 -0.4959
  692MOL0     C93295   0.653   7.411   7.759 -0.2370  0.1287  0.1735
  692MOL0     C93296   0.747   7.299   7.705 -0.0827 -1.4797 -0.5635
  692MOL0     C93297   0.815   7.351   7.577 -0.4274  0.2790  0.0593
  692MOL0     C93298   0.913   7.246   7.536  1.2302  0.2166  0.0543
  692MOL0     C93299   0.944   7.268   7.386 -0.4773 -0.5871 -0.4746
  692MOL0     C93300   1.067   7.177   7.366 -0.2834 -0.7417  0.3637
  692MOL0     C93301   1.105   7.164   7.218 -0.5691 -0.3970 -1.0193
  692MOL0     N93302   1.245   7.158   7.192  0.2973 -0.4739  0.4492
  692MOL0     C93303   1.317   7.273   7.176 -0.4124  0.8240  0.3325
  692MOL0     C93304   1.440   7.217   7.149  0.1631 -0.3628  0.2365
  692MOL0     C93305   1.561   7.297   7.096 -0.2209 -0.3941  0.0110
  692MOL0     C93306   1.690   7.212   7.093  0.2873  0.7135  0.0987
  692MOL0     C93307   1.814   7.290   7.047  0.3116 -0.6264 -0.1339
  692MOL0     C93308   1.871   7.396   7.147  0.6979  0.4480 -0.1570
  692MOL0     O93309   1.915   7.332   7.266 -0.4323 -0.2436  0.1968
  692MOL0     C93310   1.982   7.427   7.346 -0.7058  0.5177 -0.4373
  692MOL0     C93311   2.119   7.420   7.374 -0.5052 -0.1817  0.8589
  692MOL0     C93312   2.185   7.511   7.456 -0.8969  0.4681  0.6036
  692MOL0     C93313   2.114   7.626   7.499  0.2144  0.5685 -0.6568
  692MOL0     C93314   2.180   7.739   7.562 -0.0068  0.5035  0.4954
  692MOL0     O93315   2.298   7.718   7.639  0.2148 -0.1645  0.0170
  692MOL0     C93316   2.369   7.826   7.683 -0.0370  1.5680  0.8752
  692MOL0     C93317   2.512   7.805   7.690  0.3476 -0.0241  0.6680
  692MOL0     C93318   2.586   7.914   7.726  0.6842  0.0679 -0.2243
  692MOL0     C93319   2.531   8.034   7.762 -1.8262  0.8784 -0.5872
  692MOL0     O93320   2.634   8.118   7.812  0.1039 -0.0206 -0.2176
  692MOL0     C93321   2.612   8.258   7.828 -0.1512  0.1008  0.4974
  692MOL0     C93322   2.751   8.317   7.823  0.1621 -0.0740 -1.1093
  692MOL0     C93323   2.865   8.247   7.745  0.2320 -0.0380 -0.0163
  692MOL0     C93324   2.959   8.340   7.678  0.0344  0.2618  0.5363
  692MOL0     C93325   3.075   8.262   7.622  0.3154  0.3929  0.6941
  692MOL0     C93326   3.171   8.355   7.553  0.1217 -0.1246 -0.2392
  692MOL0     C93327   3.282   8.428   7.634  0.5497  0.1796 -0.5091
  692MOL0     C93328   3.324   8.549   7.555  0.1925 -0.0911  0.8013
  692MOL0    Cl93329   3.464   8.635   7.617  0.2138  0.1520  0.2323
  692MOL0     C93330   2.395   8.063   7.762  0.3067  0.3744  0.5651
  692MOL0     C93331   2.312   7.948   7.727 -0.4533  0.0725 -0.0108
  692MOL0     O93332   2.131   7.848   7.540 -0.1266 -0.3226 -0.6934
  692MOL0     C93333   1.977   7.633   7.473  0.4955  1.1867 -0.3109
  692MOL0     C93334   1.908   7.530   7.400 -0.6771 -0.3360 -0.1600
  692MOL0     N93335   1.431   7.077   7.142 -0.2336  0.1808  0.3316
  692MOL0     N93336   1.313   7.040   7.160  0.3999 -0.2748 -0.2494
  692MOL0     C93337   0.556   7.656   8.146  0.5442 -0.1448 -0.6536
  692MOL0     C93338   0.511   7.666   8.279 -0.1746 -0.0147  1.0528
  692MOL0     C93339   0.448   7.517   8.685  0.1203 -0.1948  0.4736
  692MOL0     C93340   0.328   7.451   8.685 -0.6713  0.4122 -0.9353
  692MOL0     C93341   0.271   7.391   8.806 -1.3541 -0.5033 -0.5362
  692MOL0     C93342   0.349   7.399   8.930 -0.0496 -1.3843  0.4793
  692MOL0     O93343   0.314   7.346   9.053 -0.2713 -0.3611  0.2844
  692MOL0     C93344   0.177   7.293   9.064  0.2671 -0.1973  0.0229
  692MOL0     C93345   0.141   7.255   9.210  0.2881  0.4886  0.4424
  692MOL0     C93346   0.043   7.132   9.222  0.1299 -0.1796  0.0959
  692MOL0     C93347   0.033   7.091   9.369  0.8076 -0.2377  0.1786
  692MOL0     C93348   0.135   7.008   9.417  0.3589 -0.2734  0.1766
  692MOL0     C93349   0.233   6.947   9.448 -0.2452  0.0960 -0.2370
  692MOL0     C93350   0.468   7.472   8.925  1.0104 -0.7679  0.1250
  692MOL0     C93351   0.519   7.530   8.807 -0.4518  0.6439 -0.2480
  692MOL0     C93352   0.635   7.612   8.822  0.4524 -0.0035 -0.8075
  692MOL0     H93353   0.351   7.375   8.300  1.0317 -1.1774 -0.4190
  692MOL0     H93354   0.412   7.374   8.054 -1.5699  1.3170 -1.1520
  692MOL0     H93355   0.753   7.428   7.952 -0.7588 -1.7557  2.7349
  692MOL0     H93356   0.598   7.345   7.961  3.2300 -1.2324 -0.1056
  692MOL0     H93357   0.693   7.506   7.723  1.5952 -1.3254 -1.9658
  692MOL0     H93358   0.550   7.402   7.722  0.5034 -1.3136 -1.7415
  692MOL0     H93359   0.703   7.199   7.694  1.4704 -2.5652  1.9990
  692MOL0     H93360   0.833   7.285   7.772  0.6719 -3.8930 -1.9237
  692MOL0     H93361   0.731   7.373   7.510 -1.4813 -2.8179  0.1889
  692MOL0     H93362   0.873   7.441   7.599 -4.9230  3.5575 -0.2537
  692MOL0     H93363   1.001   7.265   7.597  0.4866  1.6661  0.7208
  692MOL0     H93364   0.872   7.145   7.546  0.5866  0.2972 -1.4137
  692MOL0     H93365   0.853   7.236   7.335 -1.8554  1.2897  0.6640
  692MOL0     H93366   0.979   7.368   7.358 -1.7842  0.2307  0.7084
  692MOL0     H93367   1.046   7.075   7.399  0.6427 -1.8403 -2.1570
  692MOL0     H93368   1.153   7.227   7.412  0.4361  1.1104 -2.7306
  692MOL0     H93369   1.074   7.069   7.174 -0.2284  0.0606 -2.2853
  692MOL0     H93370   1.050   7.238   7.158 -0.5093  0.1907 -0.3594
  692MOL0     H93371   1.275   7.373   7.173 -1.7764  0.2392 -0.5335
  692MOL0     H93372   1.535   7.324   6.993  0.3215  0.6754  0.1464
  692MOL0     H93373   1.575   7.394   7.145 -0.7648 -1.8364  3.2810
  692MOL0     H93374   1.700   7.157   7.187  1.1855 -0.2250 -0.5181
  692MOL0     H93375   1.672   7.132   7.020  0.7202  2.1902 -1.6836
  692MOL0     H93376   1.783   7.343   6.957 -2.8928 -2.6646 -0.3632
  692MOL0     H93377   1.895   7.227   7.010  3.4441  3.2626 -0.7164
  692MOL0     H93378   1.791   7.467   7.170  0.3707 -0.8372  3.1963
  692MOL0     H93379   1.954   7.454   7.107 -1.3918  2.2500 -2.2552
  692MOL0     H93380   2.179   7.341   7.330  0.0415 -0.6845  2.4509
  692MOL0     H93381   2.293   7.503   7.457 -0.7032  2.6749  0.8068
  692MOL0     H93382   2.565   7.713   7.670 -1.4404 -0.6827 -1.5428
  692MOL0     H93383   2.694   7.901   7.730  0.4175 -2.6830 -0.3938
  692MOL0     H93384   2.543   8.299   7.754 -0.7560  2.9052  2.4310
  692MOL0     H93385   2.570   8.283   7.926 -0.3326 -1.7102  0.9029
  692MOL0     H93386   2.744   8.423   7.799 -1.8084  0.6385  1.9504
  692MOL0     H93387   2.778   8.313   7.929 -1.9830 -1.3400 -0.5407
  692MOL0     H93388   2.910   8.189   7.825 -2.2448 -0.5565  1.0882
  692MOL0     H93389   2.834   8.170   7.674  0.6749 -0.5294  0.3196
  692MOL0     H93390   2.997   8.411   7.752 -1.2884 -0.2519  1.7411
  692MOL0     H93391   2.903   8.396   7.602 -1.8703  1.8981  2.9901
  692MOL0     H93392   3.039   8.179   7.560  0.0984  2.3067 -1.9007
  692MOL0     H93393   3.131   8.223   7.708  0.7797 -1.8417 -0.5571
  692MOL0     H93394   3.219   8.310   7.466 -0.0767  0.5638 -0.7138
  692MOL0     H93395   3.106   8.432   7.510 -2.5989 -2.8990 -1.4368
  692MOL0     H93396   3.364   8.357   7.643  1.0049  0.7788  0.1479
  692MOL0     H93397   3.245   8.459   7.733  1.6954  0.0640 -0.0335
  692MOL0     H93398   3.337   8.519   7.450 -2.9097  0.5861  0.1379
  692MOL0     H93399   3.243   8.622   7.546 -1.1983 -1.3535  2.5997
  692MOL0     H93400   2.370   8.164   7.795  0.8080  1.3190 -1.6896
  692MOL0     H93401   2.207   7.975   7.725 -0.0968  1.7075 -3.0536
  692MOL0     H93402   1.921   7.725   7.489  0.1673  1.7009 -3.7918
  692MOL0     H93403   1.805   7.547   7.371 -0.0066 -0.2539 -2.7573
  692MOL0     H93404   0.606   7.740   8.100  1.5904  0.3284  1.2286
  692MOL0     H93405   0.534   7.763   8.320  1.0614 -1.0583  2.9452
  692MOL0     H93406   0.265   7.440   8.597 -4.4423  0.1108  1.5934
  692MOL0     H93407   0.181   7.331   8.804 -2.1840  0.7023 -0.7670
  692MOL0     H93408   0.175   7.206   8.998  2.2301 -0.0968 -0.2226
  692MOL0     H93409   0.111   7.371   9.025 -0.8242 -1.1945 -0.1847
  692MOL0     H93410   0.100   7.338   9.269 -2.3704  0.8428 -1.7061
  692MOL0     H93411   0.230   7.207   9.250  1.1148 -1.2631 -3.0928
  692MOL0     H93412   0.089   7.052   9.163  0.1024  0.0891 -0.2901
  692MOL0     H93413  -0.060   7.146   9.188 -2.2100 -2.1051  5.3070
  692MOL0     H93414   0.017   7.173   9.440  2.7153 -0.9282  1.4797
  692MOL0     H93415  -0.054   7.024   9.368  1.4493 -1.1237  1.3931
  692MOL0     H93416   0.310   6.876   9.471  0.0053  0.5070  0.2247
  692MOL0     H93417   0.530   7.480   9.014  0.8201 -0.1870  0.2093
  692MOL0     H93418   0.672   7.628   8.924  3.3797 -0.2469 -1.7186
  692MOL0     H93419   0.726   7.563   8.784  1.4509 -0.9647  2.4268
  692MOL0     H93420   0.613   7.713   8.787  1.2168  0.7593  0.8188
  693MOL0     O93421   6.559   1.168   3.599 -0.3007  0.4963 -0.1764
  693MOL0     C93422   6.577   1.053   3.571 -1.1988 -0.6002  0.2674
  693MOL0     O93423   6.695   1.008   3.511  0.6206 -0.2973 -0.0290
  693MOL0     C93424   6.750   1.080   3.408 -0.4236  0.7813 -0.5633
  693MOL0     C93425   6.671   1.147   3.310 -0.5128 -0.3809 -0.3742
  693MOL0     C93426   6.741   1.207   3.202  0.0269  0.8154 -0.2306
  693MOL0     C93427   6.885   1.207   3.189 -0.0865  0.1041  0.1457
  693MOL0     O93428   6.956   1.269   3.090 -0.1965 -0.0848 -0.1008
  693MOL0     C93429   6.885   1.362   2.994  0.4702 -0.4029 -0.6618
  693MOL0     C93430   6.988   1.455   2.932  0.1141 -0.1793  0.7423
  693MOL0     C93431   7.082   1.509   3.035 -0.2056 -1.0108 -0.4334
  693MOL0     C93432   7.129   1.658   2.994 -0.1384 -0.4783 -0.5263
  693MOL0     C93433   7.242   1.709   3.077  0.1266  0.4407 -0.0261
  693MOL0     C93434   7.252   1.858   3.071  0.0071 -0.0153  0.4916
  693MOL0     C93435   7.317   1.926   3.196 -0.5117 -0.5387 -0.0595
  693MOL0     C93436   7.474   1.907   3.198  0.6389 -0.2735 -0.1610
  693MOL0     N93437   7.548   1.947   3.315  0.7060 -0.6485  0.0067
  693MOL0     C93438   7.680   1.954   3.335 -0.1718  0.4541 -0.1639
  693MOL0     C93439   7.704   1.994   3.464 -0.8498 -0.0854 -0.1539
  693MOL0     C93440   7.829   2.006   3.553 -0.5337  0.3030  0.5600
  693MOL0     C93441   7.966   1.980   3.474 -0.4439  0.9603  0.4961
  693MOL0     C93442   8.079   1.982   3.574 -0.8486  0.0360 -0.2176
  693MOL0     C93443   8.218   1.969   3.513 -0.4571  0.0231  0.4282
  693MOL0     O93444   8.241   2.071   3.415 -0.6724  0.2930  0.1283
  693MOL0     C93445   8.376   2.095   3.369 -0.1093 -0.3513 -0.8066
  693MOL0     C93446   8.484   2.116   3.450  0.4871 -0.6537 -0.0505
  693MOL0     C93447   8.615   2.144   3.403  0.7409  0.1047 -0.9950
  693MOL0     C93448   8.644   2.145   3.268 -0.6575  0.0662  0.4943
  693MOL0     C93449   8.784   2.159   3.200  0.5097  0.3226  0.4040
  693MOL0     O93450   8.885   2.216   3.274  0.4889  0.5839  0.0716
  693MOL0     C93451   9.010   2.228   3.211  0.0183 -0.4255  0.1148
  693MOL0     C93452   9.092   2.342   3.229 -0.2341  0.1706 -0.1089
  693MOL0     C93453   9.220   2.350   3.177 -0.3040 -0.8236  0.1963
  693MOL0     C93454   9.265   2.247   3.092  0.0910  0.5310 -0.2426
  693MOL0     O93455   9.378   2.261   3.025 -0.2041 -0.4198 -0.2794
  693MOL0     C93456   9.484   2.355   3.055 -0.4411  0.7059 -0.2584
  693MOL0     C93457   9.610   2.293   2.996  0.2208  0.3017 -0.4948
  693MOL0     C93458   9.727   2.355   3.079 -0.4212  0.1325  0.0743
  693MOL0     C93459   9.865   2.323   3.020 -0.1897 -0.7699 -0.0236
  693MOL0     C93460   9.973   2.413   3.102 -0.6459  0.1549  0.9333
  693MOL0     C93461  10.115   2.369   3.072  0.3963 -0.0785  0.0050
  693MOL0     C93462  10.211   2.467   3.131  0.2950 -0.6797  0.3961
  693MOL0     C93463  10.238   2.439   3.279 -1.0906  0.8729 -0.0951
  693MOL0    Cl93464  10.366   2.533   3.340  0.4394 -0.1432  0.5533
  693MOL0     C93465   9.187   2.125   3.077  0.2932  0.2987 -0.5817
  693MOL0     C93466   9.058   2.124   3.127 -0.4438  0.1638 -0.2931
  693MOL0     O93467   8.792   2.112   3.083 -0.3766 -0.1079 -0.4956
  693MOL0     C93468   8.540   2.101   3.184  0.5361  0.1867  0.0736
  693MOL0     C93469   8.411   2.089   3.236 -0.2685  0.3781  0.8718
  693MOL0     N93470   7.587   2.026   3.516  0.7761 -0.9902 -0.2972
  693MOL0     N93471   7.498   1.999   3.428  0.1540  0.0348  0.6334
  693MOL0     C93472   6.952   1.142   3.295 -0.8684 -0.5264  1.2161
  693MOL0     C93473   6.887   1.076   3.395 -0.0030  0.0263  0.3776
  693MOL0     C93474   6.479   0.957   3.593 -0.7075  0.0115 -0.7541
  693MOL0     C93475   6.521   0.828   3.633 -0.1305  0.7927  0.5425
  693MOL0     C93476   6.420   0.735   3.663 -0.3521  0.6811 -0.3449
  693MOL0     C93477   6.288   0.761   3.656  0.3296 -0.7254 -0.1311
  693MOL0     O93478   6.211   0.644   3.686  0.1776  0.3183  0.8726
  693MOL0     C93479   6.066   0.641   3.683 -0.4237 -0.7902 -1.1479
  693MOL0     C93480   6.006   0.538   3.581  0.1792  0.6464 -0.0281
  693MOL0     C93481   5.981   0.602   3.453  0.6902  0.7223  0.1867
  693MOL0     C93482   5.897   0.519   3.361 -0.0766  0.7932  0.5607
  693MOL0     C93483   5.978   0.410   3.303  0.1002  0.3784  0.0459
  693MOL0     C93484   6.047   0.313   3.273 -0.5989 -0.0087 -0.6132
  693MOL0     C93485   6.252   0.881   3.610 -0.0942 -0.8072 -0.5122
  693MOL0     C93486   6.341   0.985   3.574  1.0843  0.5584 -0.2293
  693MOL0     C93487   6.290   1.116   3.504 -0.3452 -0.1255 -0.0135
  693MOL0     H93488   6.563   1.148   3.317 -0.4655 -1.2567  0.5338
  693MOL0     H93489   6.673   1.244   3.126 -0.4684 -0.1281 -0.2685
  693MOL0     H93490   6.821   1.316   2.917 -0.4285  1.3028 -0.9730
  693MOL0     H93491   6.817   1.429   3.047  2.2160  0.2351  0.8307
  693MOL0     H93492   6.923   1.535   2.895 -0.5500 -0.4114  1.3899
  693MOL0     H93493   7.029   1.403   2.844 -3.1419 -0.7157 -0.6088
  693MOL0     H93494   7.167   1.440   3.043  0.4448 -0.7644 -3.7145
  693MOL0     H93495   7.024   1.512   3.127 -0.4272 -1.3226 -0.5617
  693MOL0     H93496   7.149   1.663   2.887 -0.5919  0.5660 -0.5751
  693MOL0     H93497   7.041   1.721   3.008  0.4135 -0.1522  2.0438
  693MOL0     H93498   7.232   1.680   3.182  1.2327  2.0688  0.5844
  693MOL0     H93499   7.336   1.662   3.049 -1.2681 -1.5728 -1.6772
  693MOL0     H93500   7.287   1.873   2.969  0.5683 -1.8528  0.3731
  693MOL0     H93501   7.147   1.889   3.064 -0.0002  0.4607  2.1593
  693MOL0     H93502   7.281   1.882   3.289 -1.1689 -0.0355 -0.0609
  693MOL0     H93503   7.272   2.025   3.205 -1.8857 -1.1817  0.5094
  693MOL0     H93504   7.500   1.804   3.173  2.2704 -0.1702  0.9323
  693MOL0     H93505   7.513   1.964   3.113 -1.9881  1.3463 -0.3836
  693MOL0     H93506   7.765   1.930   3.271  1.3701  0.6025  1.7216
  693MOL0     H93507   7.843   2.109   3.587 -0.5327  1.5006 -2.6864
  693MOL0     H93508   7.825   1.932   3.633  1.9307 -0.6672 -0.1196
  693MOL0     H93509   7.967   1.880   3.428  1.0774 -0.9533  4.2796
  693MOL0     H93510   7.989   2.051   3.394 -3.5390 -2.6221 -4.1348
  693MOL0     H93511   8.058   1.889   3.628  0.3216 -0.0382  0.1419
  693MOL0     H93512   8.075   2.074   3.633  3.3494  0.5473 -0.3947
  693MOL0     H93513   8.228   1.873   3.462 -0.9959 -0.0095  0.3749
  693MOL0     H93514   8.297   1.964   3.589 -1.2747 -1.0800  1.2374
  693MOL0     H93515   8.467   2.138   3.555 -1.0957 -0.9066 -0.2353
  693MOL0     H93516   8.685   2.193   3.470 -0.9683  0.2098  0.8207
  693MOL0     H93517   9.043   2.426   3.278 -3.3795 -2.1716  1.0988
  693MOL0     H93518   9.267   2.448   3.179  1.2770 -1.5548  1.2128
  693MOL0     H93519   9.479   2.455   3.009 -0.2676 -0.0532 -2.0133
  693MOL0     H93520   9.492   2.361   3.164  2.9855 -1.5783 -0.2638
  693MOL0     H93521   9.612   2.183   2.997  0.2898  0.2461  2.7442
  693MOL0     H93522   9.608   2.332   2.894  0.3911 -0.9239 -0.9894
  693MOL0     H93523   9.712   2.463   3.079 -0.2229  0.1820 -1.1268
  693MOL0     H93524   9.725   2.319   3.182 -1.7666  0.5964  0.2237
  693MOL0     H93525   9.877   2.367   2.920  0.0311  1.1916  0.8196
  693MOL0     H93526   9.903   2.220   3.013  2.8207  0.3241 -2.0136
  693MOL0     H93527   9.960   2.395   3.209 -1.4337  2.0251  1.1684
  693MOL0     H93528   9.956   2.518   3.077 -1.5244  0.0173  0.9468
  693MOL0     H93529  10.128   2.266   3.106 -1.6923 -1.6471 -3.3568
  693MOL0     H93530  10.128   2.360   2.963 -4.7488 -1.2386 -0.7900
  693MOL0     H93531  10.169   2.567   3.119 -0.4963 -1.0411  0.1277
  693MOL0     H93532  10.311   2.477   3.086  0.7004  1.3884  1.6033
  693MOL0     H93533  10.146   2.448   3.337 -1.0738  0.0927  0.0605
  693MOL0     H93534  10.274   2.337   3.287 -0.6617  1.0000 -0.3706
  693MOL0     H93535   9.218   2.048   3.007 -2.0870 -0.9112 -0.4040
  693MOL0     H93536   9.001   2.034   3.108 -0.4847  0.1245  0.0065
  693MOL0     H93537   8.564   2.078   3.080 -1.2768  0.5383 -0.4570
  693MOL0     H93538   8.328   2.053   3.177  0.7645 -0.1565 -0.2962
  693MOL0     H93539   7.060   1.134   3.287 -1.0684 -3.5976 -0.2455
  693MOL0     H93540   6.944   1.024   3.471  1.3755  1.3578  0.3049
  693MOL0     H93541   6.623   0.799   3.656  0.0061 -1.1890 -2.0502
  693MOL0     H93542   6.447   0.631   3.680  1.4527  1.4255  1.7693
  693MOL0     H93543   6.018   0.737   3.663  0.4661 -0.0979 -0.0683
  693MOL0     H93544   6.047   0.610   3.786  1.5731 -0.8189 -0.7497
  693MOL0     H93545   5.917   0.489   3.623  0.3130  1.0089  0.7070
  693MOL0     H93546   6.078   0.456   3.580 -0.8455 -0.2657 -0.1622
  693MOL0     H93547   6.078   0.628   3.410  2.5843 -0.7073  3.2944
  693MOL0     H93548   5.920   0.692   3.469 -0.6498 -0.3316  1.2795
  693MOL0     H93549   5.813   0.472   3.413 -0.3443 -0.5943 -1.0354
  693MOL0     H93550   5.874   0.584   3.276  2.8139 -1.7057 -2.4238
  693MOL0     H93551   6.104   0.225   3.250 -0.0995 -0.1017  0.9028
  693MOL0     H93552   6.147   0.908   3.599 -0.1233 -0.1786  1.0449
  693MOL0     H93553   6.281   1.207   3.564  1.3793 -1.3231  2.2031
  693MOL0     H93554   6.360   1.138   3.423 -0.3454 -1.5511 -0.4317
  693MOL0     H93555   6.193   1.102   3.454 -0.8841 -0.3260  1.0705
  694MOL0     O93556   7.592   3.692   8.205 -0.0579 -0.0047  0.4343
  694MOL0     C93557   7.709   3.721   8.200 -0.0215 -0.9127 -0.2254
  694MOL0     O93558   7.761   3.845   8.215  0.4564 -0.0850 -0.2115
  694MOL0     C93559   7.674   3.950   8.235  0.0889 -0.1504 -0.3727
  694MOL0     C93560   7.561   3.942   8.313  0.3758  0.4255 -0.2928
  694MOL0     C93561   7.480   4.058   8.326  0.3237  0.2688  0.6980
  694MOL0     C93562   7.496   4.176   8.259 -0.4627 -0.7973 -0.3825
  694MOL0     O93563   7.398   4.269   8.262  0.4148 -0.5507  0.2217
  694MOL0     C93564   7.410   4.405   8.221 -0.4820  1.0538  0.1231
  694MOL0     C93565   7.305   4.487   8.298  0.8178 -0.6610  0.2775
  694MOL0     C93566   7.160   4.446   8.271 -0.9395 -0.2804 -0.2164
  694MOL0     C93567   7.111   4.454   8.124 -0.5853 -0.7211 -0.2809
  694MOL0     C93568   6.971   4.501   8.098 -0.9695 -0.4577 -0.1135
  694MOL0     C93569   6.926   4.492   7.964 -0.1828  0.5853 -0.2200
  694MOL0     C93570   6.795   4.565   7.934 -0.4117 -1.3208 -0.4619
  694MOL0     C93571   6.667   4.481   7.961  0.0329  0.2978  0.4390
  694MOL0     N93572   6.549   4.570   7.956  0.0470  1.0493 -0.2520
  694MOL0     C93573   6.459   4.582   8.058 -0.4089 -0.1469 -1.2635
  694MOL0     C93574   6.371   4.666   8.006  0.5376  0.2292  0.4539
  694MOL0     C93575   6.247   4.701   8.082 -0.4300 -1.1160 -1.0752
  694MOL0     C93576   6.175   4.566   8.125  0.2842  1.0351 -0.2010
  694MOL0     C93577   6.160   4.477   7.998 -0.5380 -0.2955 -0.1098
  694MOL0     C93578   6.084   4.346   8.012  0.3089  0.0329 -0.4339
  694MOL0     O93579   6.140   4.256   8.108  0.1638  0.3982 -0.3443
  694MOL0     C93580   6.247   4.176   8.058  0.2512  0.8410  0.3654
  694MOL0     C93581   6.377   4.174   8.118 -0.3599 -0.6143  0.3428
  694MOL0     C93582   6.487   4.095   8.074  0.0203 -0.1867  0.4112
  694MOL0     C93583   6.463   4.006   7.968  0.6818 -1.2074  0.1478
  694MOL0     C93584   6.567   3.921   7.909  0.3649  0.8357 -1.2324
  694MOL0     O93585   6.683   3.914   7.981  0.9972 -0.3080  0.3081
  694MOL0     C93586   6.790   3.848   7.934  0.7901 -0.5005 -0.1942
  694MOL0     C93587   6.899   3.919   7.910 -1.1543 -0.5478  1.0000
  694MOL0     C93588   7.023   3.858   7.867 -0.1891 -0.5544  0.1860
  694MOL0     C93589   7.039   3.717   7.861  0.1340 -0.7943  1.0737
  694MOL0     O93590   7.155   3.663   7.830  0.8488  0.0763  0.1190
  694MOL0     C93591   7.171   3.527   7.788  0.1873  0.5173 -0.4308
  694MOL0     C93592   7.267   3.529   7.674 -0.1533 -0.5309  0.3864
  694MOL0     C93593   7.301   3.388   7.624 -0.3494  0.4850  0.2808
  694MOL0     C93594   7.356   3.412   7.480  0.2804 -0.2077 -0.0396
  694MOL0     C93595   7.371   3.272   7.410  0.0785 -0.5251 -0.1182
  694MOL0     C93596   7.358   3.274   7.263 -0.5917  0.0399  0.1563
  694MOL0     C93597   7.470   3.345   7.195  0.5844  0.1124 -0.2650
  694MOL0     C93598   7.491   3.315   7.046 -0.1534  0.0186 -0.0768
  694MOL0    Cl93599   7.347   3.357   6.933  0.4930  0.0577  0.2025
  694MOL0     C93600   6.915   3.645   7.869  0.3309 -0.4711  0.2053
  694MOL0     C93601   6.793   3.710   7.906 -0.6172  0.2137  0.0371
  694MOL0     O93602   6.547   3.868   7.805  0.0628 -0.0178 -0.5113
  694MOL0     C93603   6.327   4.002   7.917 -0.0862 -0.5900 -0.1357
  694MOL0     C93604   6.218   4.079   7.956  0.2392  0.9872 -0.0239
  694MOL0     N93605   6.407   4.707   7.877  1.1347 -0.2301 -0.3170
  694MOL0     N93606   6.508   4.635   7.846  0.5633 -0.6997 -0.5074
  694MOL0     C93607   7.608   4.183   8.166 -0.2127  0.5509  0.4229
  694MOL0     C93608   7.696   4.071   8.160  0.6682 -0.2747  0.1305
  694MOL0     C93609   7.799   3.613   8.163 -0.2996 -0.4407  0.0457
  694MOL0     C93610   7.933   3.614   8.206  0.1647  0.2310  0.4908
  694MOL0     C93611   8.030   3.508   8.175  0.1590 -1.2042  0.4433
  694MOL0     C93612   7.990   3.395   8.106  1.1182 -0.6187  0.0097
  694MOL0     O93613   8.074   3.287   8.085  0.5688  0.1577 -0.2235
  694MOL0     C93614   8.213   3.320   8.064 -0.7496  0.3844 -0.1326
  694MOL0     C93615   8.285   3.187   8.022  0.3975  0.3792 -0.6678
  694MOL0     C93616   8.220   3.142   7.891 -0.4931 -0.1769 -0.5525
  694MOL0     C93617   8.273   3.007   7.853 -0.0335 -0.1909  0.1434
  694MOL0     C93618   8.233   2.888   7.932  0.1911 -0.4639  0.7082
  694MOL0     C93619   8.197   2.792   7.999  0.5521 -0.5162  0.0888
  694MOL0     C93620   7.853   3.385   8.071  0.0868 -0.2017 -0.0112
  694MOL0     C93621   7.763   3.491   8.093 -0.0480  0.0771 -0.5638
  694MOL0     C93622   7.628   3.476   8.034 -0.8518  0.4261 -0.4345
  694MOL0     H93623   7.540   3.852   8.370  4.1007  0.6171  1.7389
  694MOL0     H93624   7.390   4.052   8.386  0.4945  2.3778  1.2270
  694MOL0     H93625   7.515   4.421   8.246  0.0206 -1.9093  0.3193
  694MOL0     H93626   7.407   4.413   8.112 -0.1729 -0.6393 -0.0459
  694MOL0     H93627   7.327   4.589   8.265  2.7150 -1.1909 -0.2568
  694MOL0     H93628   7.326   4.470   8.404  1.2324 -1.1452  0.1208
  694MOL0     H93629   7.083   4.494   8.333 -0.9516 -3.0774  2.1707
  694MOL0     H93630   7.154   4.342   8.306  2.5252  0.0750  1.8609
  694MOL0     H93631   7.181   4.526   8.082  0.8881 -1.7937  0.2273
  694MOL0     H93632   7.128   4.359   8.073  0.2271 -0.9531  0.3831
  694MOL0     H93633   6.909   4.440   8.164 -0.8267 -0.7720 -0.2688
  694MOL0     H93634   6.981   4.606   8.128  1.2506  0.3735 -3.2216
  694MOL0     H93635   6.990   4.550   7.897  1.3499 -0.5969  0.1729
  694MOL0     H93636   6.922   4.388   7.932  0.9724  0.6452 -0.5933
  694MOL0     H93637   6.796   4.590   7.827  0.7106  0.8777  0.0059
  694MOL0     H93638   6.794   4.659   7.989  0.4440 -2.5856  1.8805
  694MOL0     H93639   6.671   4.407   7.881  1.0128 -1.1367  1.7467
  694MOL0     H93640   6.670   4.430   8.058  1.6846  1.9714  1.3146
  694MOL0     H93641   6.466   4.540   8.158 -0.3025  1.8384 -0.3901
  694MOL0     H93642   6.263   4.759   8.173 -3.3727  0.1477 -1.2280
  694MOL0     H93643   6.179   4.760   8.019  0.1934  0.3749 -0.3811
  694MOL0     H93644   6.233   4.509   8.198  2.7757  1.1316 -1.9760
  694MOL0     H93645   6.077   4.590   8.169 -0.6296  0.7303 -1.9971
  694MOL0     H93646   6.253   4.433   7.961 -0.8896 -2.1429  1.0710
  694MOL0     H93647   6.106   4.529   7.919 -0.4096 -2.4345 -1.6912
  694MOL0     H93648   6.051   4.304   7.917 -0.6684  0.3282 -0.2400
  694MOL0     H93649   5.993   4.370   8.068  1.8172 -1.0924  2.7192
  694MOL0     H93650   6.396   4.250   8.194 -0.1424  1.8568 -2.0081
  694MOL0     H93651   6.593   4.105   8.097  0.8106  0.4926 -3.0512
  694MOL0     H93652   6.899   4.027   7.918  1.2499 -0.2149 -1.8346
  694MOL0     H93653   7.105   3.928   7.856  0.5668 -1.4118  0.2159
  694MOL0     H93654   7.216   3.470   7.870 -1.2969 -0.1347 -0.0491
  694MOL0     H93655   7.072   3.491   7.760 -0.5138  1.9572  0.0803
  694MOL0     H93656   7.210   3.590   7.603 -2.4228 -1.3907  1.3435
  694MOL0     H93657   7.354   3.588   7.702 -1.5607  2.5558 -1.2161
  694MOL0     H93658   7.376   3.328   7.678 -0.5443  0.4919  0.5611
  694MOL0     H93659   7.210   3.328   7.612 -0.1382  0.2213 -0.0139
  694MOL0     H93660   7.435   3.488   7.477 -0.9406  1.1208  0.1736
  694MOL0     H93661   7.276   3.458   7.422  0.2090 -2.6092 -2.0001
  694MOL0     H93662   7.295   3.209   7.457  0.4818 -0.5492  0.5311
  694MOL0     H93663   7.461   3.216   7.440  0.0185 -2.1914 -2.7710
  694MOL0     H93664   7.360   3.168   7.236 -1.3795 -0.2781  1.2598
  694MOL0     H93665   7.263   3.320   7.236 -0.2612  1.3083  1.0997
  694MOL0     H93666   7.562   3.309   7.241  0.5669 -1.2928 -1.2700
  694MOL0     H93667   7.461   3.452   7.213  1.2809  0.1537 -0.1332
  694MOL0     H93668   7.572   3.385   7.022 -1.2779  2.5481  2.8804
  694MOL0     H93669   7.524   3.211   7.037 -0.6739 -0.4414  2.5231
  694MOL0     H93670   6.902   3.539   7.887 -1.2935 -0.4320 -0.6043
  694MOL0     H93671   6.699   3.655   7.917  0.5665 -1.9721 -0.2876
  694MOL0     H93672   6.319   3.928   7.838  1.3111 -0.4223 -0.4638
  694MOL0     H93673   6.122   4.079   7.905  1.0196  2.9837 -1.6468
  694MOL0     H93674   7.632   4.266   8.099  0.8524 -0.5743 -0.6337
  694MOL0     H93675   7.784   4.074   8.097 -0.4038  0.1018 -1.3924
  694MOL0     H93676   7.974   3.705   8.249  0.2131  1.7918 -2.5987
  694MOL0     H93677   8.133   3.528   8.199 -0.2143  2.3298 -0.4386
  694MOL0     H93678   8.262   3.349   8.157  0.5436 -0.5495 -0.4781
  694MOL0     H93679   8.220   3.400   7.990 -1.7162  0.1947 -0.4427
  694MOL0     H93680   8.281   3.113   8.103 -0.0101  0.2353 -0.8135
  694MOL0     H93681   8.393   3.201   8.015  1.0361 -3.0034  0.3923
  694MOL0     H93682   8.252   3.227   7.830  0.2091  1.7357  2.2725
  694MOL0     H93683   8.111   3.146   7.894 -0.6906 -2.4857 -2.1896
  694MOL0     H93684   8.238   2.985   7.751 -3.9111  0.1949  1.2131
  694MOL0     H93685   8.381   3.020   7.847  0.0680 -0.0203  1.9933
  694MOL0     H93686   8.163   2.707   8.053  1.1086 -2.6136 -2.6604
  694MOL0     H93687   7.825   3.299   8.011 -0.1757 -1.2984  1.6256
  694MOL0     H93688   7.596   3.562   7.974  2.8873  0.7821 -2.1854
  694MOL0     H93689   7.631   3.390   7.967 -1.1623 -0.4563  0.6442
  694MOL0     H93690   7.543   3.444   8.095 -0.2593 -3.5024 -1.3931
  695MOL0     O93691   7.381   2.735   1.633  0.5779  0.1399 -0.6416
  695MOL0     C93692   7.375   2.845   1.686  0.5560 -0.3079 -0.2524
  695MOL0     O93693   7.261   2.922   1.695 -0.1283  0.1350 -0.3269
  695MOL0     C93694   7.137   2.884   1.662 -0.1979 -0.2440  0.4348
  695MOL0     C93695   7.046   2.989   1.657 -0.0601  0.3245 -0.0101
  695MOL0     C93696   6.904   2.966   1.624 -0.5821  0.2933 -0.2185
  695MOL0     C93697   6.863   2.831   1.593  0.3514 -0.3874 -0.1959
  695MOL0     O93698   6.733   2.819   1.562 -0.0553 -0.4049  0.2995
  695MOL0     C93699   6.682   2.687   1.528 -0.1340  0.5778  0.2779
  695MOL0     C93700   6.526   2.697   1.507  0.0096 -0.3950 -0.1114
  695MOL0     C93701   6.490   2.788   1.384  0.3611  0.5241  0.2762
  695MOL0     C93702   6.335   2.813   1.378  0.0348  0.0813  0.5306
  695MOL0     C93703   6.283   2.893   1.491  0.4320  0.4345 -0.4727
  695MOL0     C93704   6.127   2.914   1.491 -0.0809  0.8189 -0.2329
  695MOL0     C93705   6.077   2.996   1.376  0.4633 -0.7848  0.6138
  695MOL0     C93706   5.929   3.019   1.388  0.3958  0.3714  0.5911
  695MOL0     N93707   5.874   3.070   1.262  0.1191  0.6438 -0.1144
  695MOL0     C93708   5.814   2.985   1.181  0.3577  0.2439  0.7327
  695MOL0     C93709   5.773   3.064   1.072  0.1474 -0.0471 -1.5032
  695MOL0     C93710   5.678   3.028   0.964 -0.2036  0.6918  0.5345
  695MOL0     C93711   5.754   3.032   0.832  0.1833  0.1912  0.2020
  695MOL0     C93712   5.857   2.916   0.815 -1.1575 -0.4041  0.1950
  695MOL0     C93713   5.994   2.936   0.875 -0.0577  0.2047  0.6242
  695MOL0     O93714   6.031   2.828   0.958  0.1034 -0.6232  0.0905
  695MOL0     C93715   6.165   2.801   0.986  0.0288 -0.0444  0.1049
  695MOL0     C93716   6.178   2.690   1.073 -0.5931 -0.1861 -0.2535
  695MOL0     C93717   6.307   2.643   1.096 -0.8183  0.0080  0.2549
  695MOL0     C93718   6.429   2.708   1.042  1.4471  1.0816 -0.5027
  695MOL0     C93719   6.568   2.651   1.051 -0.4921 -0.1936 -0.3707
  695MOL0     O93720   6.588   2.524   1.092  0.9098 -0.3896 -0.4049
  695MOL0     C93721   6.706   2.493   1.161  0.2239  0.1903 -0.0247
  695MOL0     C93722   6.838   2.516   1.118  0.0146  0.1952 -0.1829
  695MOL0     C93723   6.947   2.490   1.202  0.1940 -0.3402 -0.0533
  695MOL0     C93724   6.914   2.437   1.333 -0.0445  0.0186  0.0022
  695MOL0     O93725   7.013   2.405   1.426  0.0066 -0.1171  0.1006
  695MOL0     C93726   7.150   2.458   1.432 -0.1140  0.5183 -0.8798
  695MOL0     C93727   7.239   2.381   1.533  0.0328 -0.3524 -0.0307
  695MOL0     C93728   7.320   2.262   1.468  0.3811 -0.9420 -0.3723
  695MOL0     C93729   7.428   2.201   1.558  0.1950  0.8962  0.2579
  695MOL0     C93730   7.445   2.050   1.524  0.2075 -0.0632 -0.4213
  695MOL0     C93731   7.534   1.982   1.640 -0.3342  0.4618  0.5061
  695MOL0     C93732   7.498   1.834   1.677 -0.3120 -0.0951 -0.2152
  695MOL0     C93733   7.603   1.777   1.765 -0.3035  0.5800 -0.9168
  695MOL0    Cl93734   7.575   1.598   1.772 -0.1648  0.5223 -0.0989
  695MOL0     C93735   6.787   2.416   1.372 -0.3566 -0.2730 -0.6836
  695MOL0     C93736   6.687   2.444   1.291 -0.2834 -0.9539 -0.3997
  695MOL0     O93737   6.658   2.726   1.020 -0.0058  0.5517  0.6187
  695MOL0     C93738   6.408   2.828   0.978  0.0904  0.5455 -0.1308
  695MOL0     C93739   6.282   2.880   0.943  0.6393  0.9785  0.6613
  695MOL0     N93740   5.830   3.192   1.092  0.1317 -0.3434 -0.2216
  695MOL0     N93741   5.896   3.189   1.205  0.4208  0.2085 -0.1844
  695MOL0     C93742   6.962   2.727   1.611  0.4931  0.3664  0.3370
  695MOL0     C93743   7.092   2.752   1.645  0.2997 -0.5715  0.6213
  695MOL0     C93744   7.503   2.904   1.744  0.3245 -0.0789  0.2431
  695MOL0     C93745   7.496   3.017   1.820  0.3321  0.1044 -0.0196
  695MOL0     C93746   7.608   3.070   1.880  0.6421  0.3132 -0.1016
  695MOL0     C93747   7.736   3.013   1.879 -0.3531 -0.6486  0.3938
  695MOL0     O93748   7.835   3.075   1.954  0.2758 -0.4829  0.7174
  695MOL0     C93749   7.958   3.018   1.987  0.2276 -0.2550 -0.4555
  695MOL0     C93750   8.054   3.022   1.877 -0.0772 -0.1865 -0.3534
  695MOL0     C93751   8.052   3.151   1.790  0.2532  1.0383 -0.0228
  695MOL0     C93752   8.144   3.125   1.659  0.9905  0.1048  0.1702
  695MOL0     C93753   8.285   3.110   1.698 -0.5695 -0.8099  0.0416
  695MOL0     C93754   8.406   3.105   1.726  0.8959 -0.4633 -0.1110
  695MOL0     C93755   7.739   2.900   1.805  0.1206 -0.1247  0.5703
  695MOL0     C93756   7.627   2.837   1.742 -0.1537  0.9946 -0.4815
  695MOL0     C93757   7.665   2.701   1.677  0.2144 -0.7076  0.3222
  695MOL0     H93758   7.097   3.084   1.666 -0.3619  0.5440 -0.5373
  695MOL0     H93759   6.835   3.050   1.615 -0.2992  0.4934 -0.5600
  695MOL0     H93760   6.729   2.661   1.433  1.0200 -0.4339  1.1116
  695MOL0     H93761   6.699   2.619   1.612 -0.7078 -0.3820 -0.3613
  695MOL0     H93762   6.500   2.751   1.598  1.4268  2.1625 -1.1069
  695MOL0     H93763   6.486   2.598   1.486 -0.4984 -0.6770  2.0259
  695MOL0     H93764   6.527   2.749   1.289 -1.3459  0.7667 -0.5257
  695MOL0     H93765   6.537   2.885   1.406  2.0322 -0.5522  1.8134
  695MOL0     H93766   6.309   2.858   1.282  2.9257  0.9053  0.0256
  695MOL0     H93767   6.288   2.715   1.380  0.0526  0.0855  1.4605
  695MOL0     H93768   6.317   2.837   1.579  1.9485 -0.3849 -1.5408
  695MOL0     H93769   6.319   2.996   1.483 -3.9255  2.1151 -1.6492
  695MOL0     H93770   6.082   2.815   1.501  1.7119 -0.0041  0.0259
  695MOL0     H93771   6.114   2.970   1.584  1.8782  2.2094 -0.7222
  695MOL0     H93772   6.094   2.937   1.286  0.7280 -0.8108  0.6800
  695MOL0     H93773   6.137   3.088   1.376  0.2013 -0.5842  2.2851
  695MOL0     H93774   5.879   2.930   1.425 -1.4983  0.7432 -0.8837
  695MOL0     H93775   5.907   3.094   1.465 -0.7661 -1.2927  1.9312
  695MOL0     H93776   5.780   2.884   1.200 -1.5910  0.8318  0.6632
  695MOL0     H93777   5.630   2.931   0.974 -0.9333  0.6039 -2.6334
  695MOL0     H93778   5.595   3.099   0.959  0.1720  1.0702 -0.9942
  695MOL0     H93779   5.679   3.015   0.753 -0.2843 -3.2319  1.2245
  695MOL0     H93780   5.798   3.131   0.817 -1.7223  1.0230 -0.2304
  695MOL0     H93781   5.873   2.890   0.709  1.1874 -0.6629  0.5590
  695MOL0     H93782   5.796   2.827   0.834  0.5360 -1.5391  0.5010
  695MOL0     H93783   6.000   3.035   0.922  0.9950  0.6530 -0.4190
  695MOL0     H93784   6.071   2.940   0.797  0.3438 -2.5496  0.8164
  695MOL0     H93785   6.095   2.623   1.094  0.6686 -1.6385  0.2921
  695MOL0     H93786   6.312   2.554   1.157 -2.8681 -1.5388 -1.6855
  695MOL0     H93787   6.849   2.548   1.015 -0.1520  1.1707  0.0900
  695MOL0     H93788   7.049   2.509   1.173  0.8194 -0.8534  1.6971
  695MOL0     H93789   7.217   2.454   1.345  3.5137  2.2419  1.5516
  695MOL0     H93790   7.149   2.561   1.467  0.7231 -0.5322  2.6507
  695MOL0     H93791   7.301   2.459   1.578 -3.9590  2.3561  1.2637
  695MOL0     H93792   7.179   2.333   1.610  3.0674 -1.9690  1.5341
  695MOL0     H93793   7.240   2.189   1.453 -1.5033  0.0599  3.5402
  695MOL0     H93794   7.353   2.288   1.367 -0.9074  0.6530 -0.4197
  695MOL0     H93795   7.402   2.193   1.663  3.3664 -2.9672  1.0038
  695MOL0     H93796   7.517   2.262   1.540  0.3720  0.2762 -1.0983
  695MOL0     H93797   7.476   2.046   1.419  1.2248 -0.7502 -0.1122
  695MOL0     H93798   7.352   1.993   1.532  0.3902 -0.9706 -3.5183
  695MOL0     H93799   7.639   1.987   1.609  0.1949 -1.4280  1.7888
  695MOL0     H93800   7.523   2.032   1.737 -1.9089  0.8856  0.1301
  695MOL0     H93801   7.503   1.780   1.582 -1.0098 -1.3019  0.4020
  695MOL0     H93802   7.401   1.820   1.725 -0.8103 -0.2849 -1.2485
  695MOL0     H93803   7.703   1.801   1.726  1.0844 -5.7125 -2.2785
  695MOL0     H93804   7.599   1.826   1.863  0.8603  2.9411 -1.9669
  695MOL0     H93805   6.776   2.372   1.470  0.2765 -0.8781 -0.8750
  695MOL0     H93806   6.583   2.439   1.323 -0.6051 -0.4636 -1.3441
  695MOL0     H93807   6.500   2.871   0.940  1.9570 -1.6417  1.6133
  695MOL0     H93808   6.264   2.971   0.886 -1.6138  0.3910  0.3510
  695MOL0     H93809   6.946   2.620   1.615  5.9664 -0.7219  1.7808
  695MOL0     H93810   7.155   2.669   1.676 -0.4777 -1.4473 -0.0776
  695MOL0     H93811   7.405   3.076   1.825 -1.0989 -1.9339 -0.7952
  695MOL0     H93812   7.570   3.152   1.940 -1.5227 -1.1731  0.6795
  695MOL0     H93813   7.946   2.915   2.022 -1.3756  0.5043  1.4160
  695MOL0     H93814   8.001   3.074   2.070  3.2945 -3.8273  0.6070
  695MOL0     H93815   8.028   2.933   1.819 -0.9383 -1.2501  1.5509
  695MOL0     H93816   8.154   2.998   1.915 -0.5807 -0.7563  0.6706
  695MOL0     H93817   8.071   3.243   1.846  1.7919 -0.1314  1.4709
  695MOL0     H93818   7.950   3.161   1.752 -0.2499  0.5491  1.1621
  695MOL0     H93819   8.120   3.028   1.616 -1.0894 -0.3348  2.1524
  695MOL0     H93820   8.133   3.212   1.593  0.9111 -0.1907 -0.2101
  695MOL0     H93821   8.506   3.114   1.763  2.5798  5.2997 -4.5207
  695MOL0     H93822   7.839   2.857   1.805  0.4583  0.5925 -1.4887
  695MOL0     H93823   7.770   2.673   1.681  0.0496 -1.7625 -1.6984
  695MOL0     H93824   7.594   2.623   1.707 -2.6030  1.3733 -0.4281
  695MOL0     H93825   7.635   2.709   1.572  2.7385 -2.1233 -0.5631
  696MOL0     O93826   4.208  10.736   7.608 -0.0790  0.0565  0.0314
  696MOL0     C93827   4.166  10.654   7.685 -0.9111  0.0168  0.4276
  696MOL0     O93828   4.251  10.581   7.762  0.0208  0.7163 -1.1278
  696MOL0     C93829   4.381  10.586   7.721  0.3332  0.9663 -0.6371
  696MOL0     C93830   4.463  10.687   7.757 -0.8088 -0.0377  0.3302
  696MOL0     C93831   4.598  10.685   7.746 -0.4523  1.0160  0.0462
  696MOL0     C93832   4.663  10.560   7.707  0.4457 -0.0300 -0.0333
  696MOL0     O93833   4.796  10.542   7.692 -1.5223 -0.5962 -0.0763
  696MOL0     C93834   4.895  10.620   7.752  0.9311  0.0981  0.3948
  696MOL0     C93835   4.925  10.735   7.659  0.5343 -0.6431 -0.4747
  696MOL0     C93836   5.046  10.815   7.714 -0.2531 -0.5780 -0.5556
  696MOL0     C93837   5.060  10.939   7.632 -1.4068 -0.0850  0.3194
  696MOL0     C93838   5.195  11.015   7.648  0.3128 -0.3177  0.5909
  696MOL0     C93839   5.192  11.153   7.582  0.5156 -1.0233  0.0625
  696MOL0     C93840   5.330  11.223   7.605  0.6436  0.0808  0.0563
  696MOL0     C93841   5.323  11.301   7.733 -1.5307  0.2012  0.9674
  696MOL0     N93842   5.457  11.329   7.782  0.1602 -0.0297  0.1690
  696MOL0     C93843   5.516  11.238   7.857 -0.7810 -0.2092 -0.3000
  696MOL0     C93844   5.639  11.288   7.878  0.1025 -0.0040 -0.3475
  696MOL0     C93845   5.754  11.227   7.960 -0.1146  0.4011  0.0851
  696MOL0     C93846   5.830  11.338   8.043  0.5547  0.8565  0.1854
  696MOL0     C93847   5.760  11.414   8.151  0.3529 -0.6156 -0.3224
  696MOL0     C93848   5.856  11.469   8.250  0.6681  0.5939 -0.4986
  696MOL0     O93849   5.948  11.560   8.197 -0.0291 -0.3278 -0.3979
  696MOL0     C93850   6.057  11.604   8.274  0.4096  0.4636 -0.3293
  696MOL0     C93851   6.092  11.566   8.407  0.1686  0.8808  0.5320
  696MOL0     C93852   6.219  11.614   8.460 -0.2174 -0.1540  0.3643
  696MOL0     C93853   6.302  11.702   8.391  0.9507 -0.2852 -0.3408
  696MOL0     C93854   6.433  11.744   8.433 -0.6330  0.0102 -0.0926
  696MOL0     O93855   6.515  11.779   8.332  0.2088 -0.4092  0.0559
  696MOL0     C93856   6.651  11.798   8.338 -0.2979  0.0435 -0.6299
  696MOL0     C93857   6.737  11.799   8.221 -0.7636  0.1494  0.1434
  696MOL0     C93858   6.880  11.806   8.228 -0.6815 -0.2413  0.2570
  696MOL0     C93859   6.941  11.820   8.347 -0.5120 -0.0216 -0.4617
  696MOL0     O93860   7.079  11.844   8.375  0.3096  0.7058  0.1548
  696MOL0     C93861   7.172  11.805   8.273  0.3623  0.0567 -0.0918
  696MOL0     C93862   7.314  11.779   8.325 -0.9560  0.9686  0.2102
  696MOL0     C93863   7.398  11.683   8.247  0.1704 -0.4497  0.7242
  696MOL0     C93864   7.540  11.672   8.309  0.6122  0.0398 -0.1854
  696MOL0     C93865   7.627  11.559   8.249  0.7932  1.3854  0.2330
  696MOL0     C93866   7.657  11.601   8.104  1.0883 -1.2571 -1.0349
  696MOL0     C93867   7.722  11.477   8.031 -0.3226 -0.1683  0.0575
  696MOL0     C93868   7.756  11.508   7.889  0.3167 -0.4488  0.4524
  696MOL0    Cl93869   7.794  11.360   7.801 -0.1754 -0.1164  0.2771
  696MOL0     C93870   6.864  11.830   8.461  0.0345  0.2135 -0.5044
  696MOL0     C93871   6.724  11.817   8.457 -0.3391  0.0161  0.0761
  696MOL0     O93872   6.469  11.715   8.551 -0.3766  0.0058  0.1733
  696MOL0     C93873   6.257  11.727   8.261 -0.8584  0.1286 -0.9260
  696MOL0     C93874   6.143  11.691   8.209  0.0337 -0.7861  0.1131
  696MOL0     N93875   5.642  11.418   7.823 -0.8383  0.3539 -0.6382
  696MOL0     N93876   5.533  11.439   7.763 -0.1985 -0.6700 -1.2629
  696MOL0     C93877   4.577  10.446   7.679 -0.4502 -0.2696 -0.4194
  696MOL0     C93878   4.436  10.466   7.689 -0.2716 -0.4495  0.1658
  696MOL0     C93879   4.026  10.647   7.709  0.0173 -0.4707 -0.0360
  696MOL0     C93880   3.975  10.535   7.769 -0.8369  0.0648  0.4510
  696MOL0     C93881   3.840  10.505   7.784  0.2631 -0.1322  0.0867
  696MOL0     C93882   3.748  10.592   7.711  0.5514  0.4681  0.5796
  696MOL0     O93883   3.610  10.566   7.723 -0.0205 -0.3475 -1.0422
  696MOL0     C93884   3.573  10.435   7.768 -0.2823 -1.0209 -0.0695
  696MOL0     C93885   3.422  10.402   7.746  0.0443 -0.2326  0.6192
  696MOL0     C93886   3.402  10.371   7.595 -0.6537  0.9413 -0.9798
  696MOL0     C93887   3.251  10.363   7.550  0.0701 -0.3390  0.5748
  696MOL0     C93888   3.172  10.283   7.652 -0.9736  0.4349  0.3236
  696MOL0     C93889   3.132  10.214   7.736 -0.7356  0.7989 -0.6476
  696MOL0     C93890   3.795  10.711   7.663  0.1932  0.2054  0.7175
  696MOL0     C93891   3.930  10.743   7.666 -0.4498 -0.9924 -0.1856
  696MOL0     C93892   3.976  10.881   7.608  0.0634  0.3194 -1.9547
  696MOL0     H93893   4.400  10.772   7.781 -0.5982  0.5073 -0.9771
  696MOL0     H93894   4.659  10.773   7.760 -1.7358  1.9287  0.1578
  696MOL0     H93895   4.868  10.650   7.854 -0.9883  0.4983 -0.1886
  696MOL0     H93896   4.984  10.558   7.764 -0.4217 -2.6223 -2.2012
  696MOL0     H93897   4.846  10.811   7.660  1.1417  0.1324  2.8553
  696MOL0     H93898   4.954  10.694   7.562  3.7070 -1.2653  0.6016
  696MOL0     H93899   5.131  10.748   7.702  0.5116  0.1736  0.5312
  696MOL0     H93900   5.026  10.855   7.814 -5.2128  0.6243 -1.7227
  696MOL0     H93901   5.043  10.910   7.528 -2.8223 -0.6051  0.6614
  696MOL0     H93902   4.972  11.000   7.658 -1.4784 -0.3322  0.6656
  696MOL0     H93903   5.229  11.025   7.752  3.3895  1.8464 -0.4812
  696MOL0     H93904   5.270  10.952   7.599  1.9392  1.7954  0.2004
  696MOL0     H93905   5.173  11.155   7.475  0.4064  1.5233  0.0818
  696MOL0     H93906   5.107  11.209   7.622  1.0630  0.0411 -0.2572
  696MOL0     H93907   5.357  11.276   7.513  1.7160  3.1752  2.0080
  696MOL0     H93908   5.412  11.152   7.621  0.4451 -0.7217 -2.1864
  696MOL0     H93909   5.272  11.395   7.708 -0.4904  1.2117  2.5015
  696MOL0     H93910   5.267  11.260   7.818  0.3627 -1.6764  1.3869
  696MOL0     H93911   5.478  11.139   7.878 -1.6956  0.1293 -0.3220
  696MOL0     H93912   5.724  11.141   8.020 -0.7308 -1.4707 -2.7060
  696MOL0     H93913   5.824  11.197   7.881  1.1073  3.1753 -0.0161
  696MOL0     H93914   5.925  11.300   8.082 -0.6543 -2.7770 -0.1113
  696MOL0     H93915   5.861  11.420   7.977 -0.6535  1.6819  0.5974
  696MOL0     H93916   5.684  11.357   8.206 -0.4389  1.3031  0.6673
  696MOL0     H93917   5.700  11.492   8.103  0.4175 -0.0877  0.4356
  696MOL0     H93918   5.902  11.377   8.287 -1.3105 -1.3572 -2.6056
  696MOL0     H93919   5.803  11.515   8.334  0.2975 -1.5784  0.5398
  696MOL0     H93920   6.035  11.479   8.440  3.7749 -2.8391 -2.0708
  696MOL0     H93921   6.253  11.572   8.554  3.5771 -2.4405 -1.7981
  696MOL0     H93922   6.689  11.789   8.125 -0.1542 -1.9138  0.0113
  696MOL0     H93923   6.938  11.796   8.136 -0.2581 -0.5250  0.5485
  696MOL0     H93924   7.146  11.719   8.210  3.2996 -1.5582  0.7441
  696MOL0     H93925   7.180  11.890   8.205  1.1109 -0.2959 -0.4585
  696MOL0     H93926   7.373  11.871   8.337  0.0805  0.4208 -0.5868
  696MOL0     H93927   7.306  11.736   8.425 -0.8681 -1.3345 -0.7214
  696MOL0     H93928   7.356  11.582   8.238  0.6675 -0.5826 -0.2413
  696MOL0     H93929   7.400  11.713   8.142  0.8075 -4.0542 -0.4362
  696MOL0     H93930   7.531  11.657   8.417  1.4213  0.2772 -0.0762
  696MOL0     H93931   7.577  11.776   8.304 -3.9197  2.0357  2.2867
  696MOL0     H93932   7.572  11.464   8.253 -3.0510  3.4023 -0.0788
  696MOL0     H93933   7.722  11.557   8.303  0.6275  0.8796  0.5072
  696MOL0     H93934   7.567  11.626   8.048 -2.0372 -5.4257  1.5764
  696MOL0     H93935   7.729  11.683   8.113  2.0571 -2.3165  2.2412
  696MOL0     H93936   7.647  11.398   8.031 -1.4884  0.8640 -2.1542
  696MOL0     H93937   7.817  11.449   8.079  3.0074  2.7782 -4.0613
  696MOL0     H93938   7.676  11.553   7.829  2.4163 -0.6058 -2.6740
  696MOL0     H93939   7.840  11.577   7.884 -0.0946 -0.0261 -1.1180
  696MOL0     H93940   6.907  11.832   8.561 -1.7005  2.7411  0.2916
  696MOL0     H93941   6.673  11.818   8.553 -0.1243  0.9332  0.1880
  696MOL0     H93942   6.332  11.777   8.201  1.9644 -0.5689  1.8097
  696MOL0     H93943   6.126  11.731   8.110 -1.7046 -0.3677  0.5511
  696MOL0     H93944   4.625  10.351   7.658  1.3339  0.3426  0.6490
  696MOL0     H93945   4.365  10.384   7.678 -1.6185  0.6277  0.4618
  696MOL0     H93946   4.054  10.474   7.811  0.1249 -0.0698 -1.4438
  696MOL0     H93947   3.813  10.422   7.848  0.5371 -1.9884 -2.0808
  696MOL0     H93948   3.606  10.427   7.872 -0.1744 -1.6803 -0.1501
  696MOL0     H93949   3.631  10.358   7.718 -1.1688 -1.8338  0.1279
  696MOL0     H93950   3.363  10.487   7.782  0.7284  0.9646 -0.9338
  696MOL0     H93951   3.397  10.315   7.807 -0.6071  2.1444  4.0123
  696MOL0     H93952   3.448  10.273   7.584  1.0017  1.8887 -3.5682
  696MOL0     H93953   3.447  10.447   7.529 -0.2439  0.0834 -1.7008
  696MOL0     H93954   3.210  10.464   7.550  0.1086 -0.3098  1.9983
  696MOL0     H93955   3.246  10.329   7.446  3.9021  0.1092  0.0919
  696MOL0     H93956   3.090  10.145   7.807  1.8371  0.4370  0.6186
  696MOL0     H93957   3.718  10.780   7.629 -0.8677  0.3836  3.2701
  696MOL0     H93958   3.995  10.867   7.501 -1.4744 -2.0114 -1.9866
  696MOL0     H93959   3.896  10.954   7.622 -0.0284 -0.4089  2.7733
  696MOL0     H93960   4.066  10.921   7.655 -0.1235 -1.3508 -0.0348
  697MOL0     O93961   3.344   1.826  10.146 -0.3273 -0.9728  0.2783
  697MOL0     C93962   3.394   1.711  10.154 -0.3175  0.2945 -0.3250
  697MOL0     O93963   3.526   1.691  10.157 -0.1735  0.2881  0.4123
  697MOL0     C93964   3.625   1.779  10.148 -0.4284 -0.7129  1.9515
  697MOL0     C93965   3.610   1.915  10.188 -0.3851  0.3918 -0.2951
  697MOL0     C93966   3.713   1.997  10.167  0.6212 -0.0230  1.8410
  697MOL0     C93967   3.841   1.947  10.121  0.1338  0.3585 -0.8275
  697MOL0     O93968   3.940   2.038  10.102 -0.3282  0.0725 -0.3563
  697MOL0     C93969   4.074   1.979  10.091 -0.6927  0.3609  0.3477
  697MOL0     C93970   4.180   2.088  10.067 -0.3278  0.3490 -1.3065
  697MOL0     C93971   4.330   2.028  10.075  0.8195  0.9355  0.0395
  697MOL0     C93972   4.393   2.040  10.210 -0.9918  0.2453  0.3518
  697MOL0     C93973   4.544   2.073  10.201  0.0572  0.3273  0.6822
  697MOL0     C93974   4.593   2.200  10.118 -0.7902 -0.2929 -0.0366
  697MOL0     C93975   4.745   2.207  10.123  0.3342  0.7029 -0.6027
  697MOL0     C93976   4.825   2.106  10.031 -0.2986 -0.1351 -0.1927
  697MOL0     N93977   4.966   2.114  10.067 -0.3996  0.3450  0.3659
  697MOL0     C93978   5.043   2.223  10.023  1.3333  0.1768 -0.1272
  697MOL0     C93979   5.153   2.213  10.096 -1.1235 -0.3274  0.7848
  697MOL0     C93980   5.277   2.304  10.095 -0.2575  0.0240 -0.1567
  697MOL0     C93981   5.399   2.236  10.035  0.2841  0.4723 -0.1388
  697MOL0     C93982   5.531   2.306  10.071 -0.1013 -0.0111 -0.2802
  697MOL0     C93983   5.648   2.210  10.062  0.3069  0.1042  0.5076
  697MOL0     O93984   5.679   2.193   9.918  0.4894  0.0188  0.0951
  697MOL0     C93985   5.789   2.117   9.885 -0.1452  0.9450  0.1159
  697MOL0     C93986   5.851   2.042   9.991  0.3371  0.5585  0.6066
  697MOL0     C93987   5.969   1.972   9.973  0.4155 -0.1020 -0.1504
  697MOL0     C93988   6.029   1.976   9.845 -0.1235 -0.3504 -0.0843
  697MOL0     C93989   6.155   1.898   9.819 -0.0480  0.8344  0.7382
  697MOL0     O93990   6.187   1.867   9.685  0.6509  0.8952  0.1742
  697MOL0     C93991   6.288   1.774   9.675  0.2715 -0.3050  0.2199
  697MOL0     C93992   6.417   1.827   9.663 -0.1480  0.2813  0.3789
  697MOL0     C93993   6.521   1.728   9.654 -0.3885 -0.7841 -1.0535
  697MOL0     C93994   6.499   1.594   9.642 -0.1479  0.4358 -0.5695
  697MOL0     O93995   6.610   1.519   9.604  0.0660  0.4642  0.2446
  697MOL0     C93996   6.645   1.408   9.683 -0.1941  0.5725  1.1836
  697MOL0     C93997   6.798   1.395   9.687 -0.5392 -1.1914  0.1826
  697MOL0     C93998   6.862   1.465   9.803  0.4328  0.9442  0.9451
  697MOL0     C93999   6.848   1.399   9.937  0.7796  0.0635  0.4802
  697MOL0     C94000   6.910   1.482  10.046  0.4421 -0.1974 -0.5476
  697MOL0     C94001   6.942   1.396  10.171 -0.6593 -0.7562  0.0011
  697MOL0     C94002   6.956   1.477  10.304  0.1092  0.6436  0.3113
  697MOL0     C94003   6.814   1.522  10.353 -0.3981  0.1507 -0.4782
  697MOL0    Cl94004   6.836   1.634  10.500 -0.1642 -0.2615 -0.4131
  697MOL0     C94005   6.367   1.541   9.646 -0.4418 -0.0580  0.7112
  697MOL0     C94006   6.265   1.633   9.661  0.3608 -0.8155  0.2893
  697MOL0     O94007   6.235   1.868   9.913  0.4716 -0.2872  0.2837
  697MOL0     C94008   5.960   2.041   9.741  0.2891  0.2541  0.5784
  697MOL0     C94009   5.850   2.120   9.753 -0.5406 -0.6182 -0.0671
  697MOL0     N94010   5.157   2.094  10.158 -0.6864 -0.6972 -0.4365
  697MOL0     N94011   5.044   2.031  10.142 -0.8197  0.3510 -0.4934
  697MOL0     C94012   3.854   1.814  10.081  0.8099  0.5983 -0.3985
  697MOL0     C94013   3.744   1.729  10.088 -0.0129  0.1074 -1.8244
  697MOL0     C94014   3.301   1.591  10.178 -0.3962  0.2140 -0.1527
  697MOL0     C94015   3.167   1.616  10.191 -0.0768  0.1629 -0.0874
  697MOL0     C94016   3.071   1.525  10.245 -0.4819  0.7569 -0.4357
  697MOL0     C94017   3.116   1.405  10.295  0.4758 -0.9672 -0.2219
  697MOL0     O94018   3.027   1.320  10.354 -0.0865 -0.0627  0.1272
  697MOL0     C94019   3.071   1.225  10.459 -0.5812  0.0143  0.3130
  697MOL0     C94020   2.961   1.203  10.557  1.4508  0.0132 -0.0527
  697MOL0     C94021   2.870   1.323  10.566  0.4519  0.7545 -0.4577
  697MOL0     C94022   2.749   1.300  10.657  0.5069  0.1978  0.8576
  697MOL0     C94023   2.650   1.212  10.600 -0.2528  0.4280  0.8442
  697MOL0     C94024   2.583   1.128  10.539  0.1215 -0.6523  0.3336
  697MOL0     C94025   3.246   1.364  10.257 -0.9962 -0.3753 -0.8510
  697MOL0     C94026   3.342   1.461  10.201 -0.1336 -1.0033  0.1394
  697MOL0     C94027   3.490   1.423  10.182  0.3853  0.4058 -0.6384
  697MOL0     H94028   3.519   1.957  10.230  0.3723  1.9263 -0.0911
  697MOL0     H94029   3.700   2.104  10.153  0.6925 -0.2915 -0.7671
  697MOL0     H94030   4.105   1.908  10.168 -0.7620 -1.5717 -1.3067
  697MOL0     H94031   4.078   1.923   9.997 -0.0076 -0.8197  1.0499
  697MOL0     H94032   4.184   2.161  10.148  0.0951 -2.2935  1.2200
  697MOL0     H94033   4.160   2.137   9.972  0.9603 -0.0581 -1.7962
  697MOL0     H94034   4.388   2.091  10.007  0.1351  1.1029 -0.3963
  697MOL0     H94035   4.336   1.922  10.049  0.7418  0.7793  0.6413
  697MOL0     H94036   4.358   2.114  10.282  1.8410  0.4137  1.6667
  697MOL0     H94037   4.386   1.947  10.268 -1.9370 -0.8510 -1.4072
  697MOL0     H94038   4.597   2.070  10.296 -0.4609 -0.7766  0.9663
  697MOL0     H94039   4.577   1.983  10.148 -0.7829  1.6412 -2.2998
  697MOL0     H94040   4.564   2.186  10.014  2.6382 -1.5462 -0.9663
  697MOL0     H94041   4.556   2.288  10.173  0.0546 -0.7011  1.2259
  697MOL0     H94042   4.771   2.203  10.229  0.4777 -1.4297 -0.6824
  697MOL0     H94043   4.763   2.313  10.100  0.4991  0.9703  0.6566
  697MOL0     H94044   4.796   2.002  10.052 -0.8570  0.6757  3.8494
  697MOL0     H94045   4.810   2.141   9.928 -2.8992  1.2508  0.5438
  697MOL0     H94046   5.015   2.303   9.956 -2.3072 -0.7175  0.0798
  697MOL0     H94047   5.262   2.398  10.041 -0.5939  0.5205  0.7764
  697MOL0     H94048   5.293   2.328  10.201  0.9919  2.1732 -0.7660
  697MOL0     H94049   5.392   2.134  10.074 -1.4463  0.8319  0.5528
  697MOL0     H94050   5.387   2.227   9.927  2.0644 -1.1593 -0.2613
  697MOL0     H94051   5.527   2.336  10.176  3.2659 -0.2099  0.0291
  697MOL0     H94052   5.542   2.396  10.011  2.2899 -0.2502 -0.3017
  697MOL0     H94053   5.618   2.120  10.117 -0.9746 -1.0976 -2.0133
  697MOL0     H94054   5.737   2.250  10.111 -0.9926  1.3471  1.9775
  697MOL0     H94055   5.798   2.026  10.084 -0.9670  0.7162 -0.0834
  697MOL0     H94056   6.023   1.928  10.056  2.2267 -0.8665 -1.6628
  697MOL0     H94057   6.441   1.933   9.653 -0.0875  0.1206 -1.4559
  697MOL0     H94058   6.628   1.743   9.642 -0.7675  0.8331 -2.8573
  697MOL0     H94059   6.596   1.401   9.780 -0.1089 -0.2454  1.1732
  697MOL0     H94060   6.614   1.320   9.626 -0.1155  1.4187 -0.2164
  697MOL0     H94061   6.840   1.294   9.695  1.7456 -0.2761  0.2179
  697MOL0     H94062   6.841   1.442   9.598 -0.8755 -1.2069  0.0081
  697MOL0     H94063   6.967   1.461   9.772 -0.5795 -2.7323 -2.8038
  697MOL0     H94064   6.825   1.568   9.811  1.0787  1.3459 -0.8031
  697MOL0     H94065   6.900   1.303   9.933 -1.2975 -1.0860 -1.3321
  697MOL0     H94066   6.744   1.376   9.962  0.6056 -3.4899 -2.5323
  697MOL0     H94067   6.844   1.563  10.079  1.8715  0.7777  0.0293
  697MOL0     H94068   6.998   1.532  10.004 -0.3503  0.2377 -1.7282
  697MOL0     H94069   6.872   1.314  10.186  0.4651 -1.7300  0.0547
  697MOL0     H94070   7.036   1.346  10.145 -0.7580 -0.6387 -0.6091
  697MOL0     H94071   7.027   1.557  10.280  0.0557  0.3571 -0.8968
  697MOL0     H94072   7.008   1.412  10.375  0.6726  1.7650  0.9480
  697MOL0     H94073   6.744   1.577  10.290 -2.4773  1.0993  2.4878
  697MOL0     H94074   6.752   1.435  10.379 -1.0129  0.4656 -0.8713
  697MOL0     H94075   6.356   1.433   9.634  1.9658 -0.1969 -0.7478
  697MOL0     H94076   6.161   1.602   9.663 -0.5874  1.9867 -0.2674
  697MOL0     H94077   5.996   2.022   9.640 -2.3420 -2.2965 -0.0068
  697MOL0     H94078   5.822   2.182   9.669 -1.2561  1.5974  1.6996
  697MOL0     H94079   3.947   1.776  10.040 -0.5871 -0.7911 -2.5111
  697MOL0     H94080   3.770   1.630  10.054 -1.3186 -1.0907  0.3958
  697MOL0     H94081   3.122   1.711  10.165  2.2732  1.1927 -0.7166
  697MOL0     H94082   2.968   1.556  10.260  0.1806  2.1590  1.4973
  697MOL0     H94083   3.161   1.267  10.504 -1.5660  1.3844  1.1051
  697MOL0     H94084   3.102   1.134  10.408 -0.5345  1.2003 -1.9009
  697MOL0     H94085   3.020   1.185  10.648  0.7457  1.0742  0.6310
  697MOL0     H94086   2.913   1.105  10.547  1.3945  0.2592 -2.9047
  697MOL0     H94087   2.830   1.353  10.468  0.3326  0.8192 -0.3883
  697MOL0     H94088   2.929   1.402  10.614 -0.0426  2.3930 -2.3575
  697MOL0     H94089   2.789   1.255  10.749 -0.3315  0.5501  1.4135
  697MOL0     H94090   2.697   1.394  10.681 -3.2080 -1.1708 -1.1537
  697MOL0     H94091   2.549   1.054  10.470  2.2279 -1.7357  0.3662
  697MOL0     H94092   3.282   1.265  10.283 -1.7528 -0.4650 -0.1223
  697MOL0     H94093   3.536   1.426  10.083  0.1959  2.1904 -0.7040
  697MOL0     H94094   3.559   1.471  10.253 -0.2014 -1.0202  0.9534
  697MOL0     H94095   3.503   1.321  10.220  1.3612  1.0076  0.7359
  698MOL0     O94096   3.764   0.791   2.284  0.0101  0.8084  0.6168
  698MOL0     C94097   3.773   0.863   2.180  0.2780 -0.0973 -0.1049
  698MOL0     O94098   3.865   0.845   2.083  0.6991  0.5151  0.3122
  698MOL0     C94099   3.985   0.798   2.104  1.1147 -0.5956 -0.1943
  698MOL0     C94100   4.008   0.679   2.169 -0.3063  0.5391  0.5104
  698MOL0     C94101   4.133   0.616   2.179  0.4214  0.3038  0.6876
  698MOL0     C94102   4.238   0.695   2.135  0.4362 -0.6311  0.6141
  698MOL0     O94103   4.367   0.650   2.151  0.9847  0.1680 -0.1358
  698MOL0     C94104   4.425   0.678   2.284 -0.6132  0.2649  0.0483
  698MOL0     C94105   4.580   0.685   2.270 -0.0695  0.0875 -1.0230
  698MOL0     C94106   4.639   0.721   2.412  0.1051  0.3132 -0.3075
  698MOL0     C94107   4.754   0.827   2.413 -0.7810 -0.4367 -0.6637
  698MOL0     C94108   4.800   0.854   2.554 -0.3335 -0.4592 -0.1242
  698MOL0     C94109   4.936   0.933   2.561 -0.0105  0.1366 -0.6254
  698MOL0     C94110   4.933   1.061   2.483  0.8160  0.1555 -0.2456
  698MOL0     C94111   5.061   1.149   2.510  0.5112 -0.2059 -0.4859
  698MOL0     N94112   5.080   1.262   2.422  0.0822  0.2843  0.3421
  698MOL0     C94113   5.031   1.388   2.446  0.4301  0.1489  0.2300
  698MOL0     C94114   5.051   1.460   2.333  0.4801  0.2265 -0.6304
  698MOL0     C94115   5.000   1.606   2.311  0.5789 -0.1507 -0.0783
  698MOL0     C94116   5.086   1.701   2.397 -0.2289 -0.2313 -1.2865
  698MOL0     C94117   5.242   1.686   2.363  0.0964 -0.0710 -0.0534
  698MOL0     C94118   5.333   1.774   2.448  0.7000  0.0731 -0.5211
  698MOL0     O94119   5.349   1.719   2.577  0.2613  0.3435  0.4649
  698MOL0     C94120   5.441   1.783   2.655 -0.7634  0.5896  0.3294
  698MOL0     C94121   5.513   1.898   2.617 -0.8102 -0.6873 -0.8927
  698MOL0     C94122   5.601   1.954   2.715  0.2941  0.0172 -0.0047
  698MOL0     C94123   5.610   1.909   2.850 -0.1534 -0.2325 -0.3747
  698MOL0     C94124   5.686   1.986   2.951 -0.3341 -0.3101  0.6681
  698MOL0     O94125   5.732   2.112   2.913  0.4206  0.3960  0.5157
  698MOL0     C94126   5.828   2.171   2.996 -0.1477 -0.7679 -0.1334
  698MOL0     C94127   5.952   2.203   2.937 -0.2764  1.1266 -0.2813
  698MOL0     C94128   6.061   2.248   3.013 -0.4192 -0.9045  0.3547
  698MOL0     C94129   6.037   2.282   3.144 -0.8023  0.0458  0.4210
  698MOL0     O94130   6.141   2.340   3.209 -0.3877  0.0448  0.4429
  698MOL0     C94131   6.141   2.353   3.346 -0.5416 -0.3422 -0.4130
  698MOL0     C94132   6.260   2.450   3.382  0.4155  0.5011  0.2114
  698MOL0     C94133   6.221   2.594   3.342 -0.3325 -0.5537  0.1770
  698MOL0     C94134   6.239   2.684   3.461 -0.0544 -0.2039  0.3851
  698MOL0     C94135   6.173   2.826   3.442  1.1908 -0.0717 -0.9402
  698MOL0     C94136   6.201   2.916   3.566  0.4069  0.0800 -0.0400
  698MOL0     C94137   6.147   3.052   3.528  0.0012 -1.0937  0.1133
  698MOL0     C94138   6.234   3.121   3.419 -0.0780  0.0453 -0.2794
  698MOL0    Cl94139   6.147   3.251   3.329  0.0686  0.3829  0.1672
  698MOL0     C94140   5.915   2.252   3.199  1.3743 -0.8487  0.1571
  698MOL0     C94141   5.818   2.192   3.126  0.0888 -0.4633 -0.5230
  698MOL0     O94142   5.724   1.928   3.051 -0.1688 -0.5334 -0.0070
  698MOL0     C94143   5.523   1.800   2.880  0.0758  0.4757 -0.0242
  698MOL0     C94144   5.449   1.733   2.784  0.0310 -0.9859 -0.2679
  698MOL0     N94145   5.119   1.383   2.242  0.3655 -0.0254  0.7540
  698MOL0     N94146   5.134   1.265   2.294 -0.7233  0.1659 -0.7226
  698MOL0     C94147   4.218   0.824   2.088  0.3895 -0.4429  0.4825
  698MOL0     C94148   4.093   0.879   2.073 -0.3304 -0.5665  0.3253
  698MOL0     C94149   3.676   0.977   2.156 -0.0863 -0.0779 -0.4107
  698MOL0     C94150   3.546   0.932   2.166  0.6565 -0.6580  0.9022
  698MOL0     C94151   3.443   1.021   2.136  0.4385 -0.7752 -0.5918
  698MOL0     C94152   3.469   1.152   2.101 -0.7203  1.1424 -0.6086
  698MOL0     O94153   3.371   1.246   2.080 -0.3503  0.6148 -0.4161
  698MOL0     C94154   3.334   1.261   1.944 -0.3666  0.8295  0.2416
  698MOL0     C94155   3.223   1.162   1.905 -0.0536  0.1863 -1.2691
  698MOL0     C94156   3.091   1.204   1.975  0.4208  0.5824 -0.7057
  698MOL0     C94157   2.970   1.139   1.918  0.2998 -0.1443  0.5722
  698MOL0     C94158   2.948   1.159   1.773 -0.5043 -0.0438 -0.8194
  698MOL0     C94159   2.940   1.151   1.657 -0.5822  0.1419 -0.1671
  698MOL0     C94160   3.604   1.189   2.083 -1.1649 -0.3065  0.0786
  698MOL0     C94161   3.713   1.103   2.109 -0.3035  0.6923  0.7674
  698MOL0     C94162   3.856   1.152   2.100  0.2580 -0.2815 -0.1983
  698MOL0     H94163   3.920   0.625   2.204 -0.9318  1.1679 -0.0580
  698MOL0     H94164   4.129   0.523   2.235  0.1545 -0.3439 -0.3778
  698MOL0     H94165   4.395   0.778   2.316  0.1474 -0.2790  2.7125
  698MOL0     H94166   4.393   0.609   2.363 -0.8684  3.0968  2.5683
  698MOL0     H94167   4.602   0.774   2.211 -1.1214  0.9233 -0.1966
  698MOL0     H94168   4.624   0.597   2.220  1.4677  0.6659 -0.7300
  698MOL0     H94169   4.685   0.632   2.457 -0.0695  0.9629  1.2094
  698MOL0     H94170   4.557   0.753   2.476 -0.6559 -3.0941  0.5878
  698MOL0     H94171   4.840   0.784   2.362  0.9384  0.6589  1.1540
  698MOL0     H94172   4.739   0.922   2.360 -0.6623 -0.4059 -0.6413
  698MOL0     H94173   4.728   0.919   2.605  1.8779  1.6437  0.4988
  698MOL0     H94174   4.819   0.756   2.597  2.4811 -0.1731 -0.5140
  698MOL0     H94175   4.942   0.959   2.667  0.5717  0.5550 -0.7551
  698MOL0     H94176   5.022   0.872   2.533  2.7072  2.0927  2.7397
  698MOL0     H94177   4.846   1.125   2.501  1.2145  0.2525  1.4659
  698MOL0     H94178   4.927   1.048   2.374 -1.9740  0.3549 -0.2016
  698MOL0     H94179   5.049   1.195   2.609  1.2846 -0.8900 -0.0603
  698MOL0     H94180   5.152   1.090   2.525  1.1564  1.0924  1.0593
  698MOL0     H94181   4.968   1.415   2.531 -4.1463 -0.9421 -2.4789
  698MOL0     H94182   5.003   1.607   2.201  1.3582 -3.0167 -0.1495
  698MOL0     H94183   4.896   1.618   2.344  0.2821 -3.5635  0.5780
  698MOL0     H94184   5.054   1.804   2.379 -1.6090 -0.2679  0.5834
  698MOL0     H94185   5.060   1.680   2.501  1.9970  0.4589 -0.5373
  698MOL0     H94186   5.257   1.719   2.260  1.8335 -2.6495 -0.7207
  698MOL0     H94187   5.266   1.580   2.378 -2.6427 -0.8942 -0.7000
  698MOL0     H94188   5.286   1.871   2.467  1.1393  0.3950 -1.0333
  698MOL0     H94189   5.431   1.782   2.399  2.3915 -2.5247  2.0966
  698MOL0     H94190   5.518   1.947   2.520 -1.5217  0.1775 -0.5033
  698MOL0     H94191   5.664   2.039   2.691 -0.8352  0.8005 -0.2725
  698MOL0     H94192   5.963   2.174   2.833  1.8230 -1.3780  0.5192
  698MOL0     H94193   6.162   2.258   2.974 -1.2642  1.1492 -1.5051
  698MOL0     H94194   6.046   2.400   3.371 -0.2699  0.0855 -0.1800
  698MOL0     H94195   6.158   2.261   3.403  0.3643  1.0565  1.6705
  698MOL0     H94196   6.294   2.436   3.485  0.0575 -1.0572  0.1575
  698MOL0     H94197   6.342   2.414   3.319 -2.8854 -4.8606 -1.7441
  698MOL0     H94198   6.283   2.634   3.260 -0.6653 -0.1477  0.1223
  698MOL0     H94199   6.116   2.601   3.314 -0.4472 -0.3331  0.6643
  698MOL0     H94200   6.343   2.685   3.495  0.0231 -1.6592  0.2563
  698MOL0     H94201   6.196   2.618   3.536  1.3261  0.3177  1.6877
  698MOL0     H94202   6.066   2.807   3.448  1.0060  1.2470  0.8959
  698MOL0     H94203   6.187   2.865   3.341 -1.2145  1.5022 -0.7484
  698MOL0     H94204   6.152   2.871   3.653  2.4153  0.8063  1.5399
  698MOL0     H94205   6.308   2.920   3.587  0.2635 -0.0092  0.7527
  698MOL0     H94206   6.125   3.118   3.612  0.3799  2.1026 -2.0962
  698MOL0     H94207   6.044   3.040   3.495  0.1661  0.5607 -1.1546
  698MOL0     H94208   6.325   3.161   3.465  0.7972 -2.2851  0.1784
  698MOL0     H94209   6.269   3.044   3.350 -1.9836 -0.7540 -0.4245
  698MOL0     H94210   5.889   2.276   3.301 -0.8890  0.2092 -0.6017
  698MOL0     H94211   5.730   2.156   3.178  1.2410  1.6045  3.1858
  698MOL0     H94212   5.538   1.760   2.979  0.8087  1.2222  0.1806
  698MOL0     H94213   5.385   1.652   2.815 -0.1504 -2.0922 -3.2817
  698MOL0     H94214   4.292   0.892   2.049 -1.9120  2.5906  0.9817
  698MOL0     H94215   4.076   0.977   2.029 -1.8673 -0.7839  0.4100
  698MOL0     H94216   3.523   0.829   2.191 -0.0863 -0.8970 -0.6406
  698MOL0     H94217   3.340   0.992   2.154  0.7694 -0.1657  2.9575
  698MOL0     H94218   3.423   1.257   1.881 -0.7280  0.3429 -0.2496
  698MOL0     H94219   3.292   1.362   1.952  1.6995  1.5926  2.5358
  698MOL0     H94220   3.268   1.068   1.941 -1.3954  0.5561  1.7283
  698MOL0     H94221   3.208   1.170   1.797 -1.4660  3.0331 -0.9644
  698MOL0     H94222   3.082   1.313   1.966 -0.2358  0.4256 -2.1605
  698MOL0     H94223   3.093   1.164   2.077 -3.8605  1.4042 -0.1265
  698MOL0     H94224   2.962   1.036   1.953 -1.2331  0.3536  1.7915
  698MOL0     H94225   2.885   1.193   1.960 -1.0566 -0.2715 -1.7970
  698MOL0     H94226   2.947   1.126   1.553 -0.7951 -0.2681 -0.0838
  698MOL0     H94227   3.611   1.290   2.045 -1.4156 -0.4748 -0.4243
  698MOL0     H94228   3.857   1.261   2.110  1.5370 -0.2014 -1.0355
  698MOL0     H94229   3.923   1.107   2.174  2.4062 -0.4846 -2.1512
  698MOL0     H94230   3.907   1.132   2.006 -0.7433 -1.5842 -0.4968
  699MOL0     O94231   9.738   0.335   1.576  0.6172  0.6694  0.1320
  699MOL0     C94232   9.703   0.359   1.461 -0.0693 -0.1894  0.1240
  699MOL0     O94233   9.788   0.408   1.358  0.2954  0.4886  0.2638
  699MOL0     C94234   9.922   0.417   1.373  0.4460 -0.5019  0.2637
  699MOL0     C94235   9.986   0.454   1.491  0.6636  0.1767  0.0812
  699MOL0     C94236  10.127   0.456   1.502 -1.1820 -0.1496  0.0947
  699MOL0     C94237  10.207   0.421   1.392 -0.1826 -1.2482  0.5648
  699MOL0     O94238  10.346   0.438   1.394 -0.2659 -0.2220 -0.1761
  699MOL0     C94239  10.427   0.418   1.278 -0.3793  0.1553  0.5187
  699MOL0     C94240  10.566   0.481   1.276  0.4223  0.5692  0.6707
  699MOL0     C94241  10.658   0.418   1.167  1.0537 -0.3007 -0.3492
  699MOL0     C94242  10.735   0.526   1.087  1.3026  0.3694 -0.5408
  699MOL0     C94243  10.834   0.451   0.984 -1.1132  0.3106  0.2063
  699MOL0     C94244  10.930   0.535   0.901  0.3667 -0.7270  0.3332
  699MOL0     C94245  10.861   0.634   0.809  0.2023 -0.3439  0.2967
  699MOL0     C94246  10.954   0.654   0.681  0.5974 -0.2180 -1.7662
  699MOL0     N94247  10.898   0.764   0.595  0.5522 -0.0369 -0.2305
  699MOL0     C94248  10.861   0.763   0.460 -0.6353 -1.1371 -0.1167
  699MOL0     C94249  10.844   0.888   0.425  0.9737  0.8743  0.1800
  699MOL0     C94250  10.797   0.945   0.291 -0.1917 -0.2854 -0.2750
  699MOL0     C94251  10.922   0.994   0.211 -0.0239 -0.2943 -0.0277
  699MOL0     C94252  10.864   1.048   0.077 -0.1102 -0.3397  0.4245
  699MOL0     C94253  10.768   0.965   0.001  0.2633 -0.3104  0.8747
  699MOL0     O94254  10.623   0.973   0.034 -1.0097 -0.2606 -0.1124
  699MOL0     C94255  10.549   1.062  -0.049  0.0746  0.4802  0.0051
  699MOL0     C94256  10.423   1.022  -0.097 -0.6459 -0.2635 -0.5231
  699MOL0     C94257  10.360   1.095  -0.188 -0.3883 -0.4980  0.2272
  699MOL0     C94258  10.410   1.214  -0.249 -0.0400 -0.2030  0.2468
  699MOL0     C94259  10.334   1.295  -0.343 -0.3713  0.0854 -0.0520
  699MOL0     O94260  10.212   1.251  -0.382  0.7974  0.5963  0.2981
  699MOL0     C94261  10.130   1.334  -0.461 -0.8889  0.5456  0.4581
  699MOL0     C94262  10.069   1.263  -0.562 -0.1228  0.2798  0.5745
  699MOL0     C94263   9.952   1.323  -0.621 -0.7078  0.4171  0.4914
  699MOL0     C94264   9.908   1.454  -0.591 -0.4471  0.6271  0.1228
  699MOL0     O94265   9.800   1.504  -0.656  0.0030  0.9822 -0.0069
  699MOL0     C94266   9.686   1.448  -0.595  0.4407 -0.1338  0.8155
  699MOL0     C94267   9.653   1.482  -0.453  0.0724  0.2108  1.0171
  699MOL0     C94268   9.511   1.440  -0.409  0.4066 -0.7470  0.1747
  699MOL0     C94269   9.503   1.403  -0.254 -0.3790 -0.7503  0.5229
  699MOL0     C94270   9.365   1.344  -0.230 -0.4612 -1.5880 -0.0256
  699MOL0     C94271   9.259   1.451  -0.233  0.2862  0.5675  0.7033
  699MOL0     C94272   9.184   1.454  -0.360  0.2365 -0.6552 -0.1670
  699MOL0     C94273   9.061   1.548  -0.337 -0.2869  0.5670  0.0730
  699MOL0    Cl94274   8.942   1.466  -0.227 -0.3561  0.0344 -0.1343
  699MOL0     C94275   9.984   1.528  -0.506 -0.3305 -0.3582 -0.0541
  699MOL0     C94276  10.091   1.466  -0.435  0.6433  0.2535 -0.5933
  699MOL0     O94277  10.387   1.400  -0.374  0.0358 -0.2206 -0.0366
  699MOL0     C94278  10.532   1.257  -0.191  0.6742  0.7680 -0.2320
  699MOL0     C94279  10.594   1.192  -0.086 -0.7174  0.1410 -0.4776
  699MOL0     N94280  10.875   0.963   0.536 -0.0789  0.0840 -0.3564
  699MOL0     N94281  10.906   0.888   0.636 -0.1171 -0.9636  0.1550
  699MOL0     C94282  10.141   0.364   1.281  0.3671  0.8428  0.3987
  699MOL0     C94283   9.998   0.370   1.273  0.1841  0.4764  0.6236
  699MOL0     C94284   9.560   0.357   1.434 -0.9438 -0.3400  1.3763
  699MOL0     C94285   9.515   0.463   1.348 -0.5162 -0.6456  0.0705
  699MOL0     C94286   9.379   0.466   1.304 -0.2646  0.5284 -0.0912
  699MOL0     C94287   9.293   0.358   1.338  0.1950 -0.1626  0.3237
  699MOL0     O94288   9.158   0.350   1.299 -0.3503  0.9376  0.1153
  699MOL0     C94289   9.102   0.470   1.255 -0.7656 -0.3903 -0.1125
  699MOL0     C94290   8.954   0.436   1.252  0.4277  0.1963  0.2499
  699MOL0     C94291   8.908   0.364   1.124 -0.3763 -0.3584 -0.9601
  699MOL0     C94292   8.879   0.215   1.146 -0.0609  1.6108  0.8630
  699MOL0     C94293   8.833   0.168   1.016 -0.2250 -0.5109  0.7521
  699MOL0     C94294   8.808   0.130   0.904  0.3227  0.2771  0.4458
  699MOL0     C94295   9.343   0.255   1.415  0.5179 -0.2801 -0.4844
  699MOL0     C94296   9.475   0.253   1.473 -0.0617  0.3659  0.2188
  699MOL0     C94297   9.509   0.143   1.571  0.5656 -0.5548  0.1728
  699MOL0     H94298   9.926   0.475   1.579 -1.0423  0.2039 -1.0470
  699MOL0     H94299  10.169   0.488   1.596 -3.0220  0.5410  0.7358
  699MOL0     H94300  10.429   0.310   1.263 -3.2028 -0.1533  1.8414
  699MOL0     H94301  10.379   0.454   1.186  2.1958 -1.4167 -1.6141
  699MOL0     H94302  10.610   0.461   1.374 -0.4822 -0.0685  0.9650
  699MOL0     H94303  10.549   0.588   1.261 -1.9637 -0.0203 -1.5996
  699MOL0     H94304  10.600   0.358   1.096 -0.7534  1.7845 -0.7409
  699MOL0     H94305  10.731   0.349   1.211  0.8976 -0.1918  0.0788
  699MOL0     H94306  10.672   0.600   1.036 -1.1489 -1.9433 -1.1091
  699MOL0     H94307  10.788   0.577   1.168 -2.5990  1.1074  1.8541
  699MOL0     H94308  10.897   0.371   1.026 -1.2568 -0.8980 -1.7641
  699MOL0     H94309  10.768   0.398   0.914  0.1144  0.0630 -0.7960
  699MOL0     H94310  10.988   0.598   0.968 -2.9871  1.4125  1.5202
  699MOL0     H94311  10.984   0.465   0.837 -0.7071  0.0567 -1.5209
  699MOL0     H94312  10.853   0.727   0.866 -2.5302  0.7483 -1.7147
  699MOL0     H94313  10.767   0.600   0.766 -0.1980  2.2586 -1.0430
  699MOL0     H94314  11.055   0.684   0.711 -0.1178  1.9454 -1.3825
  699MOL0     H94315  10.976   0.561   0.628  2.1354 -1.2903  0.5852
  699MOL0     H94316  10.867   0.676   0.396 -0.1549 -0.2847 -1.2541
  699MOL0     H94317  10.749   0.866   0.233 -0.4122  0.9897 -1.8797
  699MOL0     H94318  10.732   1.031   0.311 -1.2884 -1.3694  0.9816
  699MOL0     H94319  10.968   1.078   0.265 -1.2356  0.5183 -0.2295
  699MOL0     H94320  11.001   0.921   0.193  0.7885  0.3287  0.8271
  699MOL0     H94321  10.952   1.074   0.017  1.2016  2.3742  3.2366
  699MOL0     H94322  10.827   1.149   0.098  2.9965  1.7454 -2.9613
  699MOL0     H94323  10.788   0.858  -0.000  1.6042 -0.1169 -1.8896
  699MOL0     H94324  10.781   0.996  -0.103 -0.6909 -1.2282  0.4730
  699MOL0     H94325  10.391   0.919  -0.084  1.7732 -1.4397 -2.7405
  699MOL0     H94326  10.260   1.064  -0.217 -0.7441  1.6114 -0.9976
  699MOL0     H94327  10.110   1.167  -0.590 -1.0047  0.8453 -3.2210
  699MOL0     H94328   9.893   1.279  -0.700 -4.2940  2.2537  1.9427
  699MOL0     H94329   9.608   1.468  -0.669  3.4864 -0.2588 -2.7585
  699MOL0     H94330   9.676   1.341  -0.616 -1.7251  0.3382 -0.8844
  699MOL0     H94331   9.734   1.446  -0.388  1.0296 -2.4036 -1.4473
  699MOL0     H94332   9.652   1.591  -0.436 -3.2508  0.4990 -0.4144
  699MOL0     H94333   9.452   1.529  -0.432  0.6325 -0.2704  1.4140
  699MOL0     H94334   9.484   1.355  -0.473  3.9159 -1.2279 -0.8609
  699MOL0     H94335   9.519   1.496  -0.199 -1.7689 -0.1816  0.0246
  699MOL0     H94336   9.584   1.334  -0.232  0.7382  0.2227 -0.3789
  699MOL0     H94337   9.364   1.300  -0.130  1.5989 -0.8259  0.3832
  699MOL0     H94338   9.352   1.259  -0.299  2.1718 -0.8058 -1.6364
  699MOL0     H94339   9.187   1.428  -0.154  1.9948 -1.5424  1.7531
  699MOL0     H94340   9.291   1.552  -0.206  1.0099 -0.2882  3.3553
  699MOL0     H94341   9.164   1.352  -0.395  0.4946 -0.6129 -0.4484
  699MOL0     H94342   9.240   1.498  -0.444 -0.1621 -0.0770 -0.1353
  699MOL0     H94343   9.102   1.644  -0.305  2.4242  0.7223 -3.2744
  699MOL0     H94344   9.001   1.571  -0.425 -4.1768  0.0100  2.3385
  699MOL0     H94345   9.961   1.632  -0.483 -1.2574  0.0425 -2.5134
  699MOL0     H94346  10.128   1.524  -0.352 -0.4897 -1.0667  0.9002
  699MOL0     H94347  10.579   1.349  -0.226  0.9290  1.3555  1.5651
  699MOL0     H94348  10.694   1.220  -0.055  0.3739 -1.8697 -1.9346
  699MOL0     H94349  10.195   0.322   1.197  0.6360 -1.2973  1.5662
  699MOL0     H94350   9.947   0.316   1.194  3.1720  0.1030 -1.1885
  699MOL0     H94351   9.586   0.531   1.301 -0.2681  0.0423  1.3942
  699MOL0     H94352   9.353   0.557   1.252 -1.7814 -0.6391 -1.4642
  699MOL0     H94353   9.147   0.502   1.160 -0.1840 -1.5297 -0.2463
  699MOL0     H94354   9.127   0.555   1.318 -3.3800  2.7714 -2.9683
  699MOL0     H94355   8.914   0.538   1.252  0.9186  0.3985  1.1275
  699MOL0     H94356   8.918   0.371   1.331 -1.4661 -0.1298 -0.8237
  699MOL0     H94357   8.991   0.377   1.054 -0.1083 -0.0489 -0.5908
  699MOL0     H94358   8.823   0.422   1.086  0.0110  0.4128 -0.6774
  699MOL0     H94359   8.972   0.166   1.177  0.6994  3.5565  1.8596
  699MOL0     H94360   8.800   0.191   1.218 -2.5316  2.6829 -1.3425
  699MOL0     H94361   8.791   0.073   0.815  0.3135  0.1068  0.5567
  699MOL0     H94362   9.275   0.175   1.443 -2.0068  2.3897  1.7289
  699MOL0     H94363   9.427   0.071   1.575  1.9861 -2.3503 -0.9469
  699MOL0     H94364   9.600   0.090   1.540  1.5953 -1.1794  3.8052
  699MOL0     H94365   9.526   0.191   1.668 -1.8190  1.1159 -0.1480
  700MOL0     O94366   0.316   5.054   0.993 -0.6512 -0.7056 -0.8650
  700MOL0     C94367   0.391   5.087   1.084 -0.8641  0.7865 -0.0969
  700MOL0     O94368   0.521   5.035   1.106 -0.3030 -0.6603  0.2831
  700MOL0     C94369   0.559   4.932   1.018 -0.3616 -0.5281 -0.4838
  700MOL0     C94370   0.629   4.971   0.907  0.2198  0.8528  1.6292
  700MOL0     C94371   0.662   4.865   0.814  0.2144 -0.6559  0.3245
  700MOL0     C94372   0.634   4.730   0.835  1.4932 -0.3164 -0.0527
  700MOL0     O94373   0.673   4.649   0.732 -0.6433 -0.1367  0.5054
  700MOL0     C94374   0.723   4.520   0.774 -0.4223  1.0818  0.6148
  700MOL0     C94375   0.781   4.443   0.656 -0.0566 -0.0348  0.2567
  700MOL0     C94376   0.909   4.372   0.703  0.4887 -0.2209  0.0572
  700MOL0     C94377   0.953   4.287   0.581 -0.2265  0.1282  0.6403
  700MOL0     C94378   1.086   4.198   0.605 -0.1475  0.2577 -0.1272
  700MOL0     C94379   1.127   4.123   0.482 -0.3343  0.5107 -0.2352
  700MOL0     C94380   1.252   4.040   0.523  0.4321  0.1401  0.5383
  700MOL0     C94381   1.263   3.915   0.434 -0.3188  0.2710 -0.5814
  700MOL0     N94382   1.379   3.830   0.452 -0.0531  0.3639  0.0794
  700MOL0     C94383   1.500   3.876   0.416 -0.3833 -0.1551  0.0171
  700MOL0     C94384   1.588   3.788   0.471  0.9770 -0.0549 -1.0862
  700MOL0     C94385   1.734   3.803   0.500  0.1706 -0.0033  0.3465
  700MOL0     C94386   1.816   3.698   0.427  0.6359 -0.2498 -0.5648
  700MOL0     C94387   1.842   3.588   0.524 -0.2048  0.0836  1.0435
  700MOL0     C94388   1.977   3.597   0.592 -0.0016  0.2236  0.0110
  700MOL0     O94389   1.987   3.507   0.710 -0.8030 -0.7002  0.0586
  700MOL0     C94390   2.113   3.506   0.780 -0.9944  0.5671 -0.1904
  700MOL0     C94391   2.129   3.415   0.889 -0.3399 -0.1017  0.3265
  700MOL0     C94392   2.249   3.416   0.960  1.0621  0.1567  0.6882
  700MOL0     C94393   2.345   3.512   0.940 -0.5053 -0.6000 -0.2163
  700MOL0     C94394   2.459   3.523   1.023 -0.8014 -0.8672 -0.4317
  700MOL0     O94395   2.467   3.436   1.121 -0.8252 -0.0582  0.5730
  700MOL0     C94396   2.581   3.451   1.202  0.5579 -0.0158 -0.4119
  700MOL0     C94397   2.677   3.345   1.200  0.4553 -0.4153 -0.1264
  700MOL0     C94398   2.803   3.361   1.271  0.2056  0.6437  0.7686
  700MOL0     C94399   2.821   3.475   1.351  0.0340  1.0744  0.8031
  700MOL0     O94400   2.934   3.482   1.420  0.1796 -0.3727  0.5644
  700MOL0     C94401   2.935   3.398   1.542  0.5509  0.1529 -0.1639
  700MOL0     C94402   3.026   3.437   1.659  0.5451  0.2199 -0.7721
  700MOL0     C94403   2.964   3.550   1.733 -0.2810 -0.2755  0.4782
  700MOL0     C94404   3.080   3.633   1.806  0.0034 -0.0567  0.1365
  700MOL0     C94405   3.159   3.538   1.905  0.2482 -0.3959  0.1746
  700MOL0     C94406   3.270   3.602   1.983 -0.2079 -0.1980  0.1616
  700MOL0     C94407   3.226   3.743   2.030 -0.0764  0.1828 -0.0742
  700MOL0     C94408   3.288   3.789   2.158 -0.7621 -0.9668  0.0025
  700MOL0    Cl94409   3.459   3.804   2.149 -0.5003  0.4140 -0.2581
  700MOL0     C94410   2.728   3.581   1.359 -0.0853 -0.4734  0.7994
  700MOL0     C94411   2.606   3.567   1.286 -0.1645  0.5858  0.1850
  700MOL0     O94412   2.532   3.620   1.012 -0.1445  0.4510  0.4448
  700MOL0     C94413   2.345   3.585   0.822 -0.0036 -0.9008  0.4561
  700MOL0     C94414   2.230   3.591   0.745  0.1861 -0.4158 -0.3780
  700MOL0     N94415   1.512   3.687   0.526  0.5440  0.6022 -0.6199
  700MOL0     N94416   1.390   3.713   0.531 -0.3591 -0.2328  1.2545
  700MOL0     C94417   0.572   4.697   0.949  0.8876  0.0688 -0.0280
  700MOL0     C94418   0.535   4.801   1.039 -0.7641  0.3891 -0.4960
  700MOL0     C94419   0.346   5.174   1.187  0.6930 -0.3542 -0.1372
  700MOL0     C94420   0.428   5.208   1.293 -0.0109  0.1554 -0.8097
  700MOL0     C94421   0.402   5.311   1.390  0.3424  0.0717  0.9588
  700MOL0     C94422   0.282   5.380   1.383  0.6517  0.0853  0.0442
  700MOL0     O94423   0.244   5.489   1.463 -0.2344 -0.5962 -0.3210
  700MOL0     C94424   0.351   5.563   1.518 -0.7917 -0.8245 -0.3148
  700MOL0     C94425   0.309   5.682   1.610 -0.3810  0.4836 -1.0167
  700MOL0     C94426   0.279   5.631   1.753  0.6104 -0.4694  0.9671
  700MOL0     C94427   0.392   5.568   1.819 -0.7308 -0.1050  0.3048
  700MOL0     C94428   0.475   5.678   1.861  0.0909 -0.6849 -0.2935
  700MOL0     C94429   0.539   5.775   1.876  0.4482  0.4788 -1.0321
  700MOL0     C94430   0.195   5.343   1.277 -0.1615  0.5691  0.4039
  700MOL0     C94431   0.223   5.249   1.175 -0.3628 -0.1085 -0.3738
  700MOL0     C94432   0.118   5.245   1.070 -0.4639 -0.7327  0.6461
  700MOL0     H94433   0.645   5.078   0.896 -1.4863  0.8768 -1.8146
  700MOL0     H94434   0.723   4.891   0.728 -2.1544  1.4110 -0.8739
  700MOL0     H94435   0.800   4.544   0.848  1.0623  0.3792 -0.6444
  700MOL0     H94436   0.651   4.453   0.821  1.3058 -2.1215 -0.9837
  700MOL0     H94437   0.803   4.516   0.578  2.0413 -1.7609 -0.8858
  700MOL0     H94438   0.706   4.376   0.612 -3.1402  1.9474  2.1156
  700MOL0     H94439   0.880   4.308   0.787  1.5995 -1.6697 -0.6047
  700MOL0     H94440   0.987   4.442   0.737  0.8307 -0.1947 -0.7474
  700MOL0     H94441   0.875   4.214   0.556  2.9091 -3.8724  1.3570
  700MOL0     H94442   0.971   4.349   0.494 -1.5078 -0.6864 -0.2335
  700MOL0     H94443   1.163   4.271   0.633 -0.7250  1.2728 -1.0975
  700MOL0     H94444   1.077   4.130   0.690  0.2052  1.0096  0.5293
  700MOL0     H94445   1.049   4.056   0.445 -0.5499  2.1850 -3.1510
  700MOL0     H94446   1.161   4.191   0.403 -0.6129 -1.6419 -2.3243
  700MOL0     H94447   1.245   4.005   0.626  0.6690 -2.0731 -0.1390
  700MOL0     H94448   1.339   4.106   0.510  0.4127 -0.2323 -2.0322
  700MOL0     H94449   1.172   3.857   0.452 -0.0325  0.0941  0.3261
  700MOL0     H94450   1.269   3.947   0.329 -1.7995  1.6266 -0.2827
  700MOL0     H94451   1.521   3.970   0.366 -1.2203 -0.3234 -0.6562
  700MOL0     H94452   1.772   3.899   0.465 -1.9758  1.3095  1.3754
  700MOL0     H94453   1.742   3.804   0.609 -0.1923 -0.6635  0.3880
  700MOL0     H94454   1.759   3.654   0.344  0.1335 -0.2055 -0.2491
  700MOL0     H94455   1.908   3.744   0.391  0.8345 -0.0392  0.1973
  700MOL0     H94456   1.835   3.493   0.470 -0.8403 -0.0617  1.3835
  700MOL0     H94457   1.771   3.593   0.606 -0.6776  0.1516  0.6345
  700MOL0     H94458   2.005   3.698   0.622  1.2685 -0.6305  1.9895
  700MOL0     H94459   2.054   3.573   0.518  0.6725  0.5266  0.6006
  700MOL0     H94460   2.047   3.349   0.916 -0.7431  1.0093  1.9399
  700MOL0     H94461   2.267   3.348   1.042 -2.7689 -1.9256  0.0407
  700MOL0     H94462   2.655   3.265   1.129 -2.6155  1.0261 -1.0011
  700MOL0     H94463   2.877   3.281   1.264  0.6430  1.0475  0.6896
  700MOL0     H94464   2.839   3.386   1.593  0.8384 -1.5436  0.0093
  700MOL0     H94465   2.977   3.300   1.517 -1.3525 -0.8689  0.4525
  700MOL0     H94466   3.035   3.343   1.713 -1.4992 -0.0542 -0.8285
  700MOL0     H94467   3.123   3.469   1.619  1.4221 -1.3517  0.0266
  700MOL0     H94468   2.918   3.623   1.666  1.1310 -0.2262 -0.4838
  700MOL0     H94469   2.887   3.523   1.807  0.8383 -1.6556  1.1972
  700MOL0     H94470   3.027   3.718   1.849 -0.7939  0.5594 -1.9552
  700MOL0     H94471   3.144   3.682   1.732 -1.5134  2.1322  0.1966
  700MOL0     H94472   3.205   3.457   1.847 -2.7966  0.7942 -4.5157
  700MOL0     H94473   3.093   3.496   1.982  0.9865  0.9472  1.5840
  700MOL0     H94474   3.284   3.532   2.066 -1.5506 -0.2927  0.3214
  700MOL0     H94475   3.355   3.604   1.914  1.3093  1.0345  1.9896
  700MOL0     H94476   3.123   3.747   2.065  0.5915 -2.5084  2.6283
  700MOL0     H94477   3.231   3.818   1.951 -1.2794  1.0057  0.6085
  700MOL0     H94478   3.243   3.881   2.196 -1.2554 -0.5844 -1.4258
  700MOL0     H94479   3.281   3.711   2.234  2.9400 -2.6887 -1.1807
  700MOL0     H94480   2.751   3.664   1.426  1.4299 -2.1201  2.3983
  700MOL0     H94481   2.532   3.646   1.288 -0.2535  0.5422 -0.8535
  700MOL0     H94482   2.433   3.642   0.791 -0.4896  0.6688  1.8071
  700MOL0     H94483   2.227   3.646   0.652 -1.0192 -1.1239 -0.7755
  700MOL0     H94484   0.551   4.591   0.957  0.5041  0.2135  1.1091
  700MOL0     H94485   0.478   4.767   1.125  0.0808 -1.2803 -0.5660
  700MOL0     H94486   0.531   5.174   1.298 -0.4778 -1.2850 -0.4317
  700MOL0     H94487   0.477   5.333   1.465 -0.9285  3.2147  1.4452
  700MOL0     H94488   0.402   5.613   1.436 -0.4973 -0.7788 -0.1043
  700MOL0     H94489   0.432   5.500   1.555 -0.5648 -0.3292  0.0349
  700MOL0     H94490   0.224   5.736   1.569 -2.9297 -0.0623  2.9450
  700MOL0     H94491   0.389   5.756   1.618 -0.9290  1.0032 -0.3095
  700MOL0     H94492   0.204   5.552   1.742  2.0760 -1.7250 -0.4875
  700MOL0     H94493   0.225   5.702   1.816 -0.2796 -0.9788  0.7933
  700MOL0     H94494   0.369   5.519   1.914  3.0958  0.1962  1.5877
  700MOL0     H94495   0.439   5.495   1.752  0.8919  0.6809  0.5424
  700MOL0     H94496   0.598   5.863   1.893 -0.2659  0.4175  2.5827
  700MOL0     H94497   0.096   5.386   1.268 -2.2965 -3.9417 -0.3643
  700MOL0     H94498   0.100   5.142   1.038 -0.4401 -0.0406 -1.8482
  700MOL0     H94499   0.021   5.285   1.102  0.2547  0.2949  1.5791
  700MOL0     H94500   0.144   5.309   0.985  1.4329  1.2681  2.6227
  701MOL0     O94501   2.318  10.000   2.442 -0.5603  0.4657 -0.0651
  701MOL0     C94502   2.322   9.917   2.531  0.0081  0.1241 -0.1529
  701MOL0     O94503   2.219   9.898   2.619 -0.1882  0.5881 -0.0713
  701MOL0     C94504   2.103   9.966   2.610  0.3010  0.1929 -0.0906
  701MOL0     C94505   2.054  10.031   2.722  0.1082 -0.8270 -0.0646
  701MOL0     C94506   1.930  10.107   2.713 -0.5437  0.6040 -0.7796
  701MOL0     C94507   1.863  10.110   2.592 -0.1717 -0.4245  0.0722
  701MOL0     O94508   1.746  10.187   2.574 -1.5343  1.0548 -0.1548
  701MOL0     C94509   1.619  10.132   2.630  0.2045 -0.5310 -0.1869
  701MOL0     C94510   1.500  10.166   2.539 -0.4369  0.0610  0.0632
  701MOL0     C94511   1.463  10.319   2.541 -0.7496  0.4551  0.2110
  701MOL0     C94512   1.399  10.368   2.666 -0.7834 -1.3872 -0.6625
  701MOL0     C94513   1.398  10.520   2.665  0.1731  0.4886 -0.2589
  701MOL0     C94514   1.534  10.579   2.693 -0.0069 -0.5935  0.2692
  701MOL0     C94515   1.531  10.724   2.724  0.2863  0.2822  0.1907
  701MOL0     C94516   1.465  10.808   2.623 -0.7978  0.6507 -0.6796
  701MOL0     N94517   1.516  10.784   2.484  0.3023 -0.1328 -0.1036
  701MOL0     C94518   1.617  10.872   2.426 -0.4609 -0.3221  0.3627
  701MOL0     C94519   1.603  10.863   2.293  0.0261  0.7647  0.0047
  701MOL0     C94520   1.657  10.964   2.200  0.0399 -0.8761 -0.0193
  701MOL0     C94521   1.570  11.029   2.090  0.6174  0.1098 -0.4838
  701MOL0     C94522   1.444  11.091   2.135  0.8090 -0.3764 -0.1050
  701MOL0     C94523   1.377  11.141   2.016 -0.5651 -0.1684  0.1786
  701MOL0     O94524   1.267  11.224   2.041  0.2287 -0.2740  0.3308
  701MOL0     C94525   1.139  11.176   2.047 -0.7310 -0.2385  0.1226
  701MOL0     C94526   1.099  11.038   2.031 -0.1307  0.1986 -0.5064
  701MOL0     C94527   0.963  11.009   2.051 -0.4978  0.3052  0.4208
  701MOL0     C94528   0.868  11.110   2.070 -0.7002  1.1076 -0.1625
  701MOL0     C94529   0.730  11.060   2.094 -1.0216  0.0463 -0.2345
  701MOL0     O94530   0.696  10.922   2.098 -0.2207 -0.2544 -0.2082
  701MOL0     C94531   0.571  10.873   2.105  0.3545  0.1543 -0.7393
  701MOL0     C94532   0.557  10.739   2.149 -0.3772 -0.2524 -0.1463
  701MOL0     C94533   0.425  10.689   2.154  0.1773 -0.4705  0.2117
  701MOL0     C94534   0.314  10.755   2.104 -0.7337  0.5648  0.3977
  701MOL0     O94535   0.206  10.693   2.128 -0.4706  0.1636 -0.2754
  701MOL0     C94536   0.087  10.743   2.058 -0.8904  0.1072  0.6149
  701MOL0     C94537  -0.037  10.661   2.089  0.1649 -0.7758 -0.9850
  701MOL0     C94538  -0.148  10.705   1.997  1.0069 -0.7802 -0.5490
  701MOL0     C94539  -0.270  10.617   2.024 -0.2448  0.6552 -0.5307
  701MOL0     C94540  -0.369  10.606   1.914  0.3542  0.1339 -0.0474
  701MOL0     C94541  -0.440  10.477   1.889  0.2208  0.1811  0.3379
  701MOL0     C94542  -0.524  10.440   2.014  0.4124  0.0534 -0.0777
  701MOL0     C94543  -0.595  10.302   2.021 -0.0559 -0.7178  0.7594
  701MOL0    Cl94544  -0.696  10.292   2.164 -0.4489  0.4115  0.2475
  701MOL0     C94545   0.339  10.880   2.045  0.1183  0.4169 -0.2873
  701MOL0     C94546   0.462  10.940   2.041 -0.7330 -0.2121  0.6492
  701MOL0     O94547   0.655  11.152   2.119 -0.1649  0.2195  0.3165
  701MOL0     C94548   0.908  11.248   2.074  0.6019  0.0035 -0.2891
  701MOL0     C94549   1.042  11.278   2.063  0.5461  0.9691 -1.0624
  701MOL0     N94550   1.502  10.774   2.259 -1.0929 -0.4262  0.6625
  701MOL0     N94551   1.452  10.733   2.376 -0.6101  0.2006  0.4309
  701MOL0     C94552   1.890  10.021   2.486 -0.2848 -0.5594  0.1947
  701MOL0     C94553   2.016   9.961   2.490  0.1575 -0.4844 -0.7106
  701MOL0     C94554   2.439   9.829   2.547 -0.8300 -0.6682 -0.1673
  701MOL0     C94555   2.546   9.850   2.456  0.5160 -0.0959 -0.5986
  701MOL0     C94556   2.673   9.786   2.463 -0.1362 -0.1608  0.3725
  701MOL0     C94557   2.687   9.673   2.549  0.5232 -0.4197 -0.1518
  701MOL0     O94558   2.809   9.603   2.550 -0.0498 -0.3164  0.1402
  701MOL0     C94559   2.934   9.669   2.521 -0.6557  0.9515 -0.6629
  701MOL0     C94560   2.958   9.672   2.368 -0.1212  0.8173  0.2254
  701MOL0     C94561   3.044   9.787   2.319  0.0698 -0.4491 -1.0257
  701MOL0     C94562   3.191   9.809   2.381 -0.5100  0.7268  0.3010
  701MOL0     C94563   3.275   9.689   2.343 -0.1491 -0.2272  0.0547
  701MOL0     C94564   3.335   9.591   2.303  0.4158 -0.3184 -0.1869
  701MOL0     C94565   2.586   9.643   2.631 -0.5442  0.6754  0.1960
  701MOL0     C94566   2.464   9.716   2.632 -0.1822  0.7989 -0.0298
  701MOL0     C94567   2.364   9.673   2.733  0.0014  0.0966 -0.3059
  701MOL0     H94568   2.120  10.025   2.808  0.3582  0.3797 -0.1595
  701MOL0     H94569   1.898  10.172   2.794  1.6029  3.0701 -1.7536
  701MOL0     H94570   1.617  10.023   2.637  0.9632 -0.5280  0.2371
  701MOL0     H94571   1.606  10.170   2.732  0.7414 -2.0926  0.4992
  701MOL0     H94572   1.415  10.103   2.566  0.5856 -0.5171  2.1293
  701MOL0     H94573   1.523  10.139   2.435  3.6474  0.6187  0.6528
  701MOL0     H94574   1.389  10.346   2.466 -2.2331  1.1077  1.8546
  701MOL0     H94575   1.555  10.375   2.521  0.5550 -1.4372  0.5760
  701MOL0     H94576   1.302  10.317   2.676 -0.9879 -0.6931  1.6895
  701MOL0     H94577   1.457  10.339   2.754 -0.7000  0.1358 -0.1775
  701MOL0     H94578   1.355  10.556   2.571 -1.1534 -0.9995 -0.2515
  701MOL0     H94579   1.342  10.567   2.746  2.1671 -0.1048  1.5499
  701MOL0     H94580   1.580  10.532   2.780  0.3154 -1.5035 -0.3711
  701MOL0     H94581   1.601  10.564   2.608  2.1713 -0.6419  1.9289
  701MOL0     H94582   1.636  10.755   2.732  0.0737  0.5594  3.1993
  701MOL0     H94583   1.483  10.739   2.821 -0.1405  0.1565 -0.0005
  701MOL0     H94584   1.358  10.789   2.630 -0.9617  1.3077 -1.2643
  701MOL0     H94585   1.479  10.913   2.651  3.7245 -0.5128  2.8092
  701MOL0     H94586   1.686  10.935   2.480 -1.1127 -0.2645  1.1325
  701MOL0     H94587   1.706  11.040   2.263 -2.9255  0.6418  0.6289
  701MOL0     H94588   1.750  10.920   2.162  3.0063  0.9782  4.1579
  701MOL0     H94589   1.635  11.096   2.032  2.0805  0.1839  1.1572
  701MOL0     H94590   1.541  10.954   2.016 -0.4205 -0.3758  0.4044
  701MOL0     H94591   1.467  11.166   2.211  0.0020 -0.6579  0.4293
  701MOL0     H94592   1.373  11.025   2.186 -0.9073  1.1471 -0.4141
  701MOL0     H94593   1.346  11.056   1.954  0.3722 -2.0263  2.1172
  701MOL0     H94594   1.447  11.198   1.955 -1.1747 -0.8978 -1.2512
  701MOL0     H94595   1.166  10.957   2.002  0.8137  0.3804  1.0185
  701MOL0     H94596   0.932  10.905   2.054  3.3487 -1.0061  3.2310
  701MOL0     H94597   0.637  10.678   2.190 -0.9788 -0.0565  1.3742
  701MOL0     H94598   0.418  10.594   2.205  1.2789 -0.6191  0.1236
  701MOL0     H94599   0.063  10.845   2.088 -0.8864 -0.3722  2.3787
  701MOL0     H94600   0.117  10.736   1.953  1.7366  1.5586  1.1850
  701MOL0     H94601  -0.014  10.558   2.060 -1.6422 -0.8718 -2.2182
  701MOL0     H94602  -0.058  10.670   2.196  1.8076 -1.1965 -0.5990
  701MOL0     H94603  -0.170  10.809   2.021 -0.6100 -1.3960  0.8527
  701MOL0     H94604  -0.125  10.708   1.890  0.0336 -0.2266 -0.7619
  701MOL0     H94605  -0.313  10.661   2.115 -1.9432  0.4752 -1.1969
  701MOL0     H94606  -0.227  10.518   2.040  1.1264  1.0757 -1.5065
  701MOL0     H94607  -0.309  10.622   1.824 -0.4737  1.9312 -0.3281
  701MOL0     H94608  -0.447  10.682   1.925 -0.7249 -1.0175  0.5049
  701MOL0     H94609  -0.505  10.494   1.803  0.5009  0.2376  0.1373
  701MOL0     H94610  -0.362  10.402   1.875 -0.8342 -0.6624 -1.4099
  701MOL0     H94611  -0.611  10.504   2.033 -4.5312 -4.9499 -3.1512
  701MOL0     H94612  -0.455  10.450   2.098  2.9533  0.0402 -2.0458
  701MOL0     H94613  -0.667  10.287   1.940  0.6872  0.7131 -0.2012
  701MOL0     H94614  -0.517  10.226   2.010  0.8664  0.4823 -1.6914
  701MOL0     H94615   0.258  10.939   2.004 -0.9275  1.0240  2.4702
  701MOL0     H94616   0.479  11.035   1.991 -1.9879 -0.8618 -1.1067
  701MOL0     H94617   0.845  11.332   2.102 -0.2518 -1.2297  1.6368
  701MOL0     H94618   1.093  11.374   2.065 -0.0024  1.2712  1.3853
  701MOL0     H94619   1.827  10.017   2.398 -0.0922 -0.3398  0.0433
  701MOL0     H94620   2.039   9.905   2.400 -1.8111  0.1385 -1.6588
  701MOL0     H94621   2.540   9.935   2.389 -0.6738 -1.0382 -1.7430
  701MOL0     H94622   2.747   9.813   2.389 -2.5710 -3.6190 -3.7676
  701MOL0     H94623   3.012   9.605   2.564 -2.9107 -0.8364  1.0482
  701MOL0     H94624   2.943   9.768   2.567  2.1388  0.9261 -0.9620
  701MOL0     H94625   2.864   9.654   2.315  0.5633  0.4424 -0.8835
  701MOL0     H94626   3.015   9.583   2.341  0.5932  0.9326  1.2960
  701MOL0     H94627   2.983   9.870   2.356 -0.4029 -1.3110  0.2349
  701MOL0     H94628   3.055   9.787   2.211 -0.3166 -1.1467 -1.0694
  701MOL0     H94629   3.241   9.902   2.355  0.3086  0.4542  0.8435
  701MOL0     H94630   3.172   9.825   2.488  1.8593  0.4815  0.8210
  701MOL0     H94631   3.372   9.497   2.267  0.0435 -0.2072 -0.8775
  701MOL0     H94632   2.619   9.562   2.696  1.5340  2.8793  2.0980
  701MOL0     H94633   2.266   9.648   2.691  0.3368 -2.3879  0.2407
  701MOL0     H94634   2.393   9.589   2.796 -1.9886  1.6049  2.8472
  701MOL0     H94635   2.344   9.751   2.806 -0.9480 -2.3213  2.2015
  702MOL0     O94636   9.653   4.484  11.232 -0.5532 -0.0029 -0.3826
  702MOL0     C94637   9.608   4.584  11.283  0.3790 -0.9661 -0.9480
  702MOL0     O94638   9.617   4.623  11.413 -0.0419  0.0200  0.1287
  702MOL0     C94639   9.718   4.570  11.489  0.4013 -0.2238 -0.0093
  702MOL0     C94640   9.716   4.437  11.512  0.2051 -0.2890 -0.1364
  702MOL0     C94641   9.816   4.380  11.600  0.5609 -0.5493  0.1935
  702MOL0     C94642   9.909   4.457  11.665 -0.6253 -0.0970 -0.1061
  702MOL0     O94643   9.995   4.389  11.750 -0.4339 -0.7154 -0.2110
  702MOL0     C94644  10.089   4.472  11.821  1.0552 -0.0559  0.6255
  702MOL0     C94645  10.189   4.377  11.893 -0.2188 -0.6228 -0.2602
  702MOL0     C94646  10.259   4.271  11.796 -0.7894 -0.4562 -1.1286
  702MOL0     C94647  10.323   4.155  11.871  0.5633  0.3500  0.7503
  702MOL0     C94648  10.411   4.205  11.984 -0.0045  0.6787  0.1666
  702MOL0     C94649  10.490   4.101  12.046  0.1806  0.6922  0.7076
  702MOL0     C94650  10.561   4.139  12.178 -0.2063 -0.3983 -0.1115
  702MOL0     C94651  10.622   4.274  12.183  1.0337 -0.2187 -0.3460
  702MOL0     N94652  10.700   4.297  12.305  0.3911 -0.5619 -0.2309
  702MOL0     C94653  10.839   4.267  12.321  0.4741  0.7944  0.2294
  702MOL0     C94654  10.871   4.335  12.429  0.1540  0.0200 -0.9039
  702MOL0     C94655  11.011   4.346  12.490  0.1495 -0.1534 -0.3026
  702MOL0     C94656  11.031   4.303  12.633  0.6896  0.3952  0.7068
  702MOL0     C94657  10.975   4.161  12.654 -0.1225  0.2182  0.4677
  702MOL0     C94658  11.030   4.059  12.555 -0.7035 -0.1434  0.9852
  702MOL0     O94659  11.173   4.053  12.569  1.0864 -0.2746  0.0831
  702MOL0     C94660  11.214   3.959  12.657  1.0023  0.2410 -0.4629
  702MOL0     C94661  11.355   3.944  12.660  0.1133 -0.1493 -1.0168
  702MOL0     C94662  11.410   3.857  12.759 -0.0853 -0.6304 -0.3523
  702MOL0     C94663  11.329   3.779  12.843 -0.3917 -0.3400 -0.3745
  702MOL0     C94664  11.384   3.681  12.942  0.2173 -0.0813 -1.1354
  702MOL0     O94665  11.305   3.644  13.051 -0.2014 -0.4702  0.0420
  702MOL0     C94666  11.357   3.613  13.173 -0.0980 -0.1444  0.5740
  702MOL0     C94667  11.293   3.659  13.284 -0.2847 -0.4204 -0.1521
  702MOL0     C94668  11.332   3.623  13.411  0.7953 -0.3660 -0.5280
  702MOL0     C94669  11.448   3.546  13.435 -0.2505 -0.1468  0.2087
  702MOL0     O94670  11.474   3.490  13.561  0.2598  0.8716  0.0432
  702MOL0     C94671  11.605   3.429  13.588  0.3341  0.0112  0.4153
  702MOL0     C94672  11.625   3.427  13.743 -0.2926 -1.1696  0.0139
  702MOL0     C94673  11.667   3.566  13.794 -0.5047  0.1106 -0.0849
  702MOL0     C94674  11.561   3.673  13.782  0.0670  0.9985 -0.3318
  702MOL0     C94675  11.437   3.645  13.851  0.7840  0.3301 -0.0890
  702MOL0     C94676  11.344   3.770  13.826 -0.1155  0.1998  0.0363
  702MOL0     C94677  11.218   3.770  13.915  0.1694 -0.4825  0.3370
  702MOL0     C94678  11.127   3.644  13.893 -0.6716  0.2866  0.1475
  702MOL0    Cl94679  10.980   3.648  13.992  0.3501  0.1975  0.2947
  702MOL0     C94680  11.517   3.498  13.322 -1.3402 -0.2404 -0.0663
  702MOL0     C94681  11.469   3.527  13.195  0.5111 -0.5795  0.5434
  702MOL0     O94682  11.493   3.634  12.913 -0.3440 -1.1535 -0.2231
  702MOL0     C94683  11.192   3.782  12.832  0.3178 -0.0496 -0.1069
  702MOL0     C94684  11.135   3.871  12.739 -0.3926 -0.5281 -0.2337
  702MOL0     N94685  10.755   4.377  12.495  0.6451  0.0250  0.2007
  702MOL0     N94686  10.652   4.356  12.422 -0.4552 -0.7595 -0.9225
  702MOL0     C94687   9.906   4.598  11.647 -0.2471  0.1632  0.0498
  702MOL0     C94688   9.816   4.653  11.555  0.6942  0.4987  0.1956
  702MOL0     C94689   9.508   4.669  11.209  0.4067  0.4162 -0.0867
  702MOL0     C94690   9.434   4.762  11.284  0.3381 -0.8991  0.4459
  702MOL0     C94691   9.327   4.833  11.233 -0.8068  0.3947 -0.0372
  702MOL0     C94692   9.295   4.814  11.103 -0.6399  0.8382  0.8688
  702MOL0     O94693   9.185   4.874  11.044 -0.3918  0.1003  0.2885
  702MOL0     C94694   9.061   4.807  11.064  1.1449 -0.0032  0.5577
  702MOL0     C94695   8.951   4.875  10.969 -0.2045  0.4270  0.3335
  702MOL0     C94696   8.978   5.030  10.952 -0.0927 -0.7495 -0.0554
  702MOL0     C94697   8.836   5.092  10.937  0.2781 -0.5109 -0.0097
  702MOL0     C94698   8.857   5.236  10.915 -0.7194  0.6627 -0.3639
  702MOL0     C94699   8.890   5.350  10.891  0.0402  0.4814 -0.0205
  702MOL0     C94700   9.366   4.724  11.017  0.5859 -0.4485  0.0736
  702MOL0     C94701   9.478   4.655  11.065  0.3122 -0.3617 -0.6535
  702MOL0     C94702   9.550   4.567  10.964  0.3759 -0.2723 -0.7391
  702MOL0     H94703   9.640   4.380  11.460 -0.0209  1.3717 -1.7140
  702MOL0     H94704   9.828   4.273  11.604  1.9094 -0.3899  0.7376
  702MOL0     H94705  10.154   4.526  11.751 -1.7080 -0.1393 -2.2436
  702MOL0     H94706  10.035   4.523  11.901  1.6789 -0.4176  1.2887
  702MOL0     H94707  10.125   4.322  11.962 -0.4572 -0.0660 -0.0255
  702MOL0     H94708  10.265   4.436  11.945  0.0901 -1.4219  0.2000
  702MOL0     H94709  10.334   4.332  11.745 -0.8979  0.3801 -0.3069
  702MOL0     H94710  10.172   4.231  11.741 -2.5166 -1.1569  1.8830
  702MOL0     H94711  10.240   4.094  11.908  1.0677 -1.0346 -0.3136
  702MOL0     H94712  10.386   4.093  11.807  0.3604 -0.6033  1.4582
  702MOL0     H94713  10.484   4.279  11.950  0.7000  0.2435  0.7167
  702MOL0     H94714  10.352   4.251  12.064  1.3061  0.1289  1.4767
  702MOL0     H94715  10.413   4.028  12.070 -0.5729  1.1482 -0.2509
  702MOL0     H94716  10.562   4.070  11.970  0.8448  2.0282  0.7555
  702MOL0     H94717  10.633   4.063  12.208  1.5836  1.0090 -0.6424
  702MOL0     H94718  10.487   4.146  12.258 -0.0916  0.8016 -0.0791
  702MOL0     H94719  10.693   4.293  12.102  0.4653  0.8957 -0.6111
  702MOL0     H94720  10.537   4.344  12.178 -1.6913 -3.2691 -0.5768
  702MOL0     H94721  10.895   4.213  12.245 -2.0055 -1.0990 -0.4080
  702MOL0     H94722  11.081   4.292  12.426 -2.7716 -0.3045 -3.7006
  702MOL0     H94723  11.039   4.451  12.476  0.9793 -0.6362 -2.6965
  702MOL0     H94724  11.135   4.324  12.661  0.9376  0.2075 -0.0620
  702MOL0     H94725  10.971   4.373  12.692 -0.2443  1.8000 -1.7470
  702MOL0     H94726  10.866   4.165  12.659 -0.2678 -2.6508  3.2231
  702MOL0     H94727  11.010   4.141  12.756 -0.9801  3.6643  1.5419
  702MOL0     H94728  10.999   4.074  12.451  1.3771 -3.3267 -0.2552
  702MOL0     H94729  10.979   3.966  12.583  0.7737 -0.3167  3.3837
  702MOL0     H94730  11.419   4.005  12.597  1.1605 -1.9258 -1.7509
  702MOL0     H94731  11.516   3.835  12.763  0.5926  2.2651 -0.5504
  702MOL0     H94732  11.209   3.727  13.282  0.5529  0.7485  1.6029
  702MOL0     H94733  11.279   3.652  13.501  2.4661 -0.3939  0.4950
  702MOL0     H94734  11.619   3.330  13.543  0.5724 -0.7988  2.1869
  702MOL0     H94735  11.674   3.503  13.548 -3.0397  1.5662 -3.2690
  702MOL0     H94736  11.541   3.385  13.799 -1.5428  0.5971 -0.4452
  702MOL0     H94737  11.712   3.361  13.752  2.6635  2.1423 -1.7199
  702MOL0     H94738  11.703   3.552  13.896  2.0617 -3.8017 -1.2883
  702MOL0     H94739  11.751   3.586  13.727 -2.3225  2.1559 -1.9201
  702MOL0     H94740  11.552   3.703  13.677 -1.7017  1.7828  0.0128
  702MOL0     H94741  11.591   3.767  13.830 -1.0814  0.3526  1.7394
  702MOL0     H94742  11.437   3.613  13.956 -2.2861  0.3600  0.0178
  702MOL0     H94743  11.381   3.565  13.800  0.0139  0.2719  0.8203
  702MOL0     H94744  11.391   3.868  13.841  0.0256  0.2122 -0.4613
  702MOL0     H94745  11.317   3.779  13.720 -0.8282  1.4354  0.3054
  702MOL0     H94746  11.172   3.864  13.883  1.2142 -0.6258 -1.8249
  702MOL0     H94747  11.243   3.792  14.019 -0.8139  1.5684  0.1919
  702MOL0     H94748  11.106   3.619  13.789  0.3296 -2.7697  0.5750
  702MOL0     H94749  11.186   3.563  13.935 -0.4257 -0.0258 -0.7913
  702MOL0     H94750  11.595   3.423  13.329 -1.9431 -0.7151  2.3573
  702MOL0     H94751  11.534   3.475  13.125 -0.3906 -2.8487  1.3066
  702MOL0     H94752  11.132   3.727  12.904  2.6623  0.4511  2.3947
  702MOL0     H94753  11.028   3.886  12.748 -0.0389  3.1564 -0.7406
  702MOL0     H94754   9.975   4.662  11.702 -0.0173  2.0380 -2.2758
  702MOL0     H94755   9.804   4.761  11.551 -4.3210  0.2364  0.8390
  702MOL0     H94756   9.449   4.798  11.385 -3.2154 -1.8395  1.4578
  702MOL0     H94757   9.269   4.909  11.284 -3.4901  1.1670 -3.8337
  702MOL0     H94758   9.025   4.814  11.167  0.1655  1.9145  0.1238
  702MOL0     H94759   9.071   4.699  11.048  1.8394  0.2205 -0.6713
  702MOL0     H94760   8.855   4.865  11.021  0.1249 -0.3658  0.8017
  702MOL0     H94761   8.944   4.839  10.867 -0.2932  1.4924 -0.0506
  702MOL0     H94762   9.041   5.054  10.866  0.6157  1.9510  1.1011
  702MOL0     H94763   9.023   5.071  11.043 -1.7272  1.0954 -0.0174
  702MOL0     H94764   8.789   5.052  10.846 -0.8838  1.4873 -0.3445
  702MOL0     H94765   8.769   5.075  11.022  1.2687  0.8704  1.0849
  702MOL0     H94766   8.925   5.443  10.852 -1.8024 -0.0595 -3.2536
  702MOL0     H94767   9.343   4.734  10.912 -0.7160 -4.4161 -0.1643
  702MOL0     H94768   9.655   4.568  10.993  0.2540 -0.6972 -0.2566
  702MOL0     H94769   9.524   4.461  10.978  3.0108 -0.6715  1.9470
  702MOL0     H94770   9.539   4.605  10.862 -1.4270 -1.6858 -1.1317
  703MOL0     O94771  11.420   7.122   7.627  1.1795 -0.3220  0.3078
  703MOL0     C94772  11.319   7.198   7.607  0.3454 -0.3321 -0.7089
  703MOL0     O94773  11.298   7.269   7.495  0.0456  0.5845 -0.1539
  703MOL0     C94774  11.377   7.246   7.381  0.6727  0.1702  0.6773
  703MOL0     C94775  11.315   7.218   7.262  0.4614 -0.3680 -0.0702
  703MOL0     C94776  11.379   7.205   7.144 -0.7470 -0.6856  1.2689
  703MOL0     C94777  11.520   7.215   7.133  0.4018 -0.1754  0.4858
  703MOL0     O94778  11.596   7.229   7.017  0.3611  0.3981  0.3851
  703MOL0     C94779  11.534   7.240   6.887 -0.5096  0.2017  0.5683
  703MOL0     C94780  11.458   7.376   6.870 -0.2102  0.2218 -0.5248
  703MOL0     C94781  11.529   7.497   6.810  0.6802  0.0760  0.0396
  703MOL0     C94782  11.496   7.635   6.872  0.5484  0.4965 -0.3007
  703MOL0     C94783  11.601   7.741   6.813  0.2604  0.6430  0.7171
  703MOL0     C94784  11.576   7.876   6.874 -0.0557 -0.1390 -0.0604
  703MOL0     C94785  11.674   7.983   6.821 -0.1568  0.0883 -0.5668
  703MOL0     C94786  11.627   8.124   6.831  0.2101  0.0777  0.1578
  703MOL0     N94787  11.698   8.207   6.736 -0.7429  0.8337  0.6081
  703MOL0     C94788  11.695   8.340   6.722  0.9134 -0.4707  0.2419
  703MOL0     C94789  11.800   8.377   6.641 -0.0356  0.2562 -0.2379
  703MOL0     C94790  11.826   8.526   6.616  0.7700  1.0931 -0.2773
  703MOL0     C94791  11.813   8.562   6.472  0.3183  0.5599 -0.0618
  703MOL0     C94792  11.880   8.481   6.365 -0.7337  0.1578  0.2597
  703MOL0     C94793  12.028   8.497   6.360 -0.7454 -0.8029  0.5343
  703MOL0     O94794  12.104   8.433   6.254  0.3067 -0.6232 -0.3327
  703MOL0     C94795  12.236   8.461   6.254  0.2235 -0.1162  0.6557
  703MOL0     C94796  12.317   8.383   6.164 -0.6896 -0.3716  0.5312
  703MOL0     C94797  12.458   8.400   6.147  0.1008  0.0070  0.6133
  703MOL0     C94798  12.514   8.494   6.235 -0.5560 -0.3082  1.2494
  703MOL0     C94799  12.660   8.509   6.217 -0.1147  0.1356  0.2501
  703MOL0     O94800  12.722   8.440   6.113 -0.1774  0.2822  0.4137
  703MOL0     C94801  12.862   8.436   6.114 -0.4300  0.5319  0.4408
  703MOL0     C94802  12.934   8.340   6.196  0.1045 -0.2242 -0.4526
  703MOL0     C94803  13.074   8.339   6.213  0.0398  1.2169  1.2177
  703MOL0     C94804  13.147   8.436   6.137  0.3465  0.4355 -0.8072
  703MOL0     O94805  13.287   8.447   6.145  0.4245  0.2900  0.0117
  703MOL0     C94806  13.359   8.373   6.240 -0.3386 -0.0565 -0.9287
  703MOL0     C94807  13.494   8.442   6.255  0.2097 -0.0561  0.5684
  703MOL0     C94808  13.603   8.386   6.156 -0.1069  0.3212  0.4028
  703MOL0     C94809  13.735   8.465   6.196  0.4332 -0.1249  0.2055
  703MOL0     C94810  13.844   8.454   6.092  0.4000 -0.1055  1.1811
  703MOL0     C94811  13.900   8.318   6.050  0.8065 -0.1890 -0.2769
  703MOL0     C94812  13.976   8.246   6.158  0.9958  0.6984 -0.3643
  703MOL0     C94813  14.028   8.113   6.105  0.1253 -0.2475  0.3237
  703MOL0    Cl94814  14.113   8.049   6.244 -0.0725  0.2100 -0.3174
  703MOL0     C94815  13.077   8.523   6.057 -0.0285 -0.4449 -0.4901
  703MOL0     C94816  12.936   8.531   6.049  0.3825  0.4741  0.5917
  703MOL0     O94817  12.710   8.599   6.281 -0.3771  0.3307  0.8161
  703MOL0     C94818  12.440   8.564   6.329  0.7900  0.9344 -0.4672
  703MOL0     C94819  12.307   8.549   6.343  0.6375 -0.1568  0.4728
  703MOL0     N94820  11.871   8.265   6.616 -0.2762  0.6887 -0.5235
  703MOL0     N94821  11.801   8.165   6.660 -0.5857 -0.0890  0.4384
  703MOL0     C94822  11.591   7.235   7.255  0.6065 -0.4416  0.3387
  703MOL0     C94823  11.516   7.233   7.379  0.4286  0.6037  0.5844
  703MOL0     C94824  11.209   7.205   7.709  1.2797  0.1271 -0.8307
  703MOL0     C94825  11.230   7.136   7.830  0.5621  0.1497  0.2896
  703MOL0     C94826  11.137   7.145   7.934 -0.5647 -0.5645 -0.5212
  703MOL0     C94827  11.011   7.211   7.921 -0.3251 -0.5119 -0.2262
  703MOL0     O94828  10.930   7.211   8.036  0.3559 -0.0840  0.3251
  703MOL0     C94829  10.806   7.288   8.040 -0.9025  1.3831 -0.2477
  703MOL0     C94830  10.770   7.304   8.186 -0.3062 -0.3239 -0.4561
  703MOL0     C94831  10.615   7.314   8.208 -0.6215  0.1540  0.1100
  703MOL0     C94832  10.553   7.188   8.149 -0.4248  0.0492  0.6875
  703MOL0     C94833  10.436   7.158   8.220  0.2692  0.4815 -0.0039
  703MOL0     C94834  10.336   7.140   8.287  0.2812  0.7869 -0.1270
  703MOL0     C94835  10.983   7.269   7.796 -1.1702 -0.4473  0.0939
  703MOL0     C94836  11.078   7.273   7.693 -1.9182 -0.7187  0.0945
  703MOL0     C94837  11.053   7.342   7.566  0.0242  0.4512 -0.7231
  703MOL0     H94838  11.207   7.205   7.258  0.6618 -1.8685 -2.5208
  703MOL0     H94839  11.326   7.190   7.051  2.6286  0.6272 -1.0953
  703MOL0     H94840  11.608   7.236   6.806 -1.2455 -0.2883 -0.0997
  703MOL0     H94841  11.466   7.155   6.876  0.5701 -0.6467  0.2585
  703MOL0     H94842  11.411   7.404   6.965 -2.5532 -1.8347 -0.9693
  703MOL0     H94843  11.372   7.344   6.810 -0.6975  0.9586 -0.2385
  703MOL0     H94844  11.496   7.500   6.706  0.2752 -2.5217  0.0332
  703MOL0     H94845  11.637   7.480   6.820  1.0177  1.7293 -0.5025
  703MOL0     H94846  11.392   7.669   6.865  0.9129  1.5782 -0.6525
  703MOL0     H94847  11.519   7.624   6.978  0.7329 -0.1541 -0.4056
  703MOL0     H94848  11.704   7.706   6.824  0.3174 -0.0621 -1.5594
  703MOL0     H94849  11.593   7.751   6.704 -1.8832 -2.4829  0.4551
  703MOL0     H94850  11.474   7.904   6.848  0.8414  1.0736 -2.5626
  703MOL0     H94851  11.584   7.861   6.982 -1.5814 -0.7134  0.0005
  703MOL0     H94852  11.689   7.951   6.718  0.5183  2.7232 -1.3547
  703MOL0     H94853  11.766   7.978   6.879 -0.2075 -2.1212 -0.6168
  703MOL0     H94854  11.519   8.129   6.814  0.0332  1.5888  1.4654
  703MOL0     H94855  11.643   8.163   6.932 -0.5779 -2.8311  1.5408
  703MOL0     H94856  11.619   8.402   6.769 -0.2002 -1.1497 -0.6109
  703MOL0     H94857  11.756   8.588   6.673 -2.4576 -3.1562  0.9518
  703MOL0     H94858  11.925   8.549   6.658 -0.2295  0.7481  2.4617
  703MOL0     H94859  11.707   8.571   6.450 -0.0509  2.9843  2.2749
  703MOL0     H94860  11.840   8.668   6.473 -0.5119  0.8384  3.5089
  703MOL0     H94861  11.847   8.528   6.272 -3.2224 -0.1720  0.9100
  703MOL0     H94862  11.847   8.377   6.368 -0.0605 -0.1098  4.7213
  703MOL0     H94863  12.072   8.464   6.454  3.4076  2.0283 -0.1430
  703MOL0     H94864  12.053   8.603   6.361 -1.4902 -0.6178  0.1879
  703MOL0     H94865  12.271   8.304   6.107 -1.0385  0.1090  0.1363
  703MOL0     H94866  12.515   8.341   6.076  0.7370  1.9575 -0.5641
  703MOL0     H94867  12.879   8.258   6.241  0.8383  0.4024  1.6575
  703MOL0     H94868  13.126   8.262   6.270 -2.9077 -0.3018  2.0401
  703MOL0     H94869  13.319   8.384   6.342  0.0628 -3.4805 -0.2536
  703MOL0     H94870  13.358   8.267   6.212  0.8265 -1.5430  3.6827
  703MOL0     H94871  13.480   8.549   6.238  0.1496 -0.2917 -1.0604
  703MOL0     H94872  13.538   8.426   6.354  2.1366  0.0346 -0.2215
  703MOL0     H94873  13.607   8.278   6.172 -1.8569 -0.0272 -1.1372
  703MOL0     H94874  13.581   8.398   6.049  2.9125  2.8877 -0.0856
  703MOL0     H94875  13.771   8.426   6.292 -0.6606  2.1289  1.5959
  703MOL0     H94876  13.708   8.568   6.219 -0.6545 -0.3750  0.0723
  703MOL0     H94877  13.933   8.507   6.126  1.5611  0.6596 -2.5640
  703MOL0     H94878  13.813   8.498   5.996 -2.7610 -0.3429  1.9834
  703MOL0     H94879  13.821   8.247   6.024  1.3269 -1.2793  0.9590
  703MOL0     H94880  13.976   8.326   5.972  2.7107 -2.0627  1.2216
  703MOL0     H94881  13.914   8.226   6.245  3.0132  0.4991  1.0851
  703MOL0     H94882  14.049   8.315   6.202 -0.6160  0.7160  2.4709
  703MOL0     H94883  13.949   8.047   6.069  1.7972 -1.5819 -1.0275
  703MOL0     H94884  14.098   8.137   6.025  0.1748  1.8632  0.9285
  703MOL0     H94885  13.147   8.577   5.995 -0.2149 -0.8919 -1.1050
  703MOL0     H94886  12.889   8.601   5.981  1.2163 -1.0338 -1.6574
  703MOL0     H94887  12.493   8.619   6.407  0.7951  3.6224 -2.2472
  703MOL0     H94888  12.262   8.600   6.428 -0.3186  2.3361 -1.3661
  703MOL0     H94889  11.697   7.227   7.233  0.0928 -3.5972 -1.6350
  703MOL0     H94890  11.586   7.249   7.460 -0.5219  2.2576  1.1261
  703MOL0     H94891  11.333   7.111   7.853  0.2127  1.0402  3.3009
  703MOL0     H94892  11.158   7.104   8.032  0.9039  1.7306  0.2065
  703MOL0     H94893  10.738   7.230   7.977  0.4949 -1.8416  0.9791
  703MOL0     H94894  10.835   7.387   8.004  5.4425  0.1081  0.2188
  703MOL0     H94895  10.814   7.397   8.223 -1.4258  0.4038 -0.8965
  703MOL0     H94896  10.813   7.227   8.251  0.3027  1.4981  1.4129
  703MOL0     H94897  10.581   7.404   8.156  0.7861  0.0752 -0.9850
  703MOL0     H94898  10.599   7.319   8.317  2.4034 -0.2279  0.6514
  703MOL0     H94899  10.523   7.202   8.045 -0.3711 -0.8128  0.5560
  703MOL0     H94900  10.613   7.097   8.156 -4.2844 -2.7633  0.1883
  703MOL0     H94901  10.248   7.135   8.348  1.5609  2.8613  2.0568
  703MOL0     H94902  10.887   7.317   7.786 -0.2413  1.7838  1.0212
  703MOL0     H94903  10.948   7.373   7.571 -1.0539 -2.9271  1.5397
  703MOL0     H94904  11.117   7.425   7.536 -2.4907  1.6194 -3.3377
  703MOL0     H94905  11.060   7.265   7.489  1.5527 -1.1056  0.8881
  704MOL0     O94906   2.630   2.125  10.348 -0.7814  0.0774 -0.1534
  704MOL0     C94907   2.617   2.054  10.248  0.0923  0.1824 -0.3226
  704MOL0     O94908   2.707   1.971  10.196  0.5579 -0.2963  0.2712
  704MOL0     C94909   2.820   1.945  10.271 -0.0899 -0.0605  0.5815
  704MOL0     C94910   2.817   1.873  10.391  0.0291  0.1781  0.1907
  704MOL0     C94911   2.942   1.833  10.459 -0.0373  0.2320  0.3099
  704MOL0     C94912   3.067   1.863  10.401 -0.3719 -0.3308 -0.7592
  704MOL0     O94913   3.185   1.820  10.445  0.5693  0.4725  0.2432
  704MOL0     C94914   3.186   1.713  10.552 -0.2855 -0.1300  0.5480
  704MOL0     C94915   3.324   1.700  10.625  1.0778 -0.1524 -0.4768
  704MOL0     C94916   3.437   1.680  10.528 -0.6267  0.3438 -0.4066
  704MOL0     C94917   3.577   1.694  10.592 -0.1362 -0.2362  0.3681
  704MOL0     C94918   3.687   1.692  10.493 -0.6230  0.6267 -0.3088
  704MOL0     C94919   3.823   1.683  10.575  0.0911 -0.2329  0.1904
  704MOL0     C94920   3.936   1.719  10.486 -0.0585 -0.9647 -0.1228
  704MOL0     C94921   4.074   1.723  10.562  0.1523 -0.7540  0.3917
  704MOL0     N94922   4.183   1.732  10.464  0.4002 -0.8644  0.4296
  704MOL0     C94923   4.318   1.713  10.492  0.2001 -1.2871  0.0525
  704MOL0     C94924   4.382   1.684  10.379 -0.8145  0.1393 -0.8903
  704MOL0     C94925   4.526   1.637  10.367  0.7190 -0.1146 -0.1287
  704MOL0     C94926   4.616   1.755  10.349  0.1530  0.5954 -0.9489
  704MOL0     C94927   4.760   1.700  10.327 -0.4990 -0.4498 -0.4700
  704MOL0     C94928   4.866   1.808  10.306 -0.2750 -0.7290  0.2425
  704MOL0     O94929   4.886   1.879  10.427  1.0694  0.0927 -0.1414
  704MOL0     C94930   4.996   1.862  10.502  0.5648 -0.8061 -0.5313
  704MOL0     C94931   5.101   1.956  10.486  0.3389 -0.6561  0.1554
  704MOL0     C94932   5.205   1.961  10.578 -0.3930  0.2721 -0.3446
  704MOL0     C94933   5.217   1.859  10.677  0.6406 -0.0537 -0.6231
  704MOL0     C94934   5.337   1.857  10.756 -1.4812 -0.3019 -0.3127
  704MOL0     O94935   5.436   1.962  10.749 -0.4144 -0.1254 -0.1485
  704MOL0     C94936   5.529   1.969  10.851  0.1052  0.3576  0.6798
  704MOL0     C94937   5.527   2.066  10.958  0.3572 -0.9145 -0.4009
  704MOL0     C94938   5.625   2.064  11.065 -0.8316 -0.9501  0.2065
  704MOL0     C94939   5.719   1.958  11.070  0.4935  0.2342  0.2661
  704MOL0     O94940   5.808   1.955  11.177 -0.0489  0.0676  0.6078
  704MOL0     C94941   5.941   1.897  11.156 -0.1847  1.0701 -0.1779
  704MOL0     C94942   6.019   1.917  11.286  0.4408 -0.0272 -0.7691
  704MOL0     C94943   6.139   1.828  11.310 -0.0927  0.5328 -0.6157
  704MOL0     C94944   6.219   1.845  11.437  0.4113 -0.8119 -0.1328
  704MOL0     C94945   6.358   1.789  11.438  0.5026  0.5127 -0.6474
  704MOL0     C94946   6.361   1.636  11.402 -0.5536 -0.0865 -1.0712
  704MOL0     C94947   6.508   1.588  11.408 -0.3763  0.5176 -1.0637
  704MOL0     C94948   6.607   1.641  11.312  0.2468  0.2896  0.2415
  704MOL0    Cl94949   6.767   1.545  11.313 -0.7887 -0.0970 -0.1630
  704MOL0     C94950   5.715   1.863  10.965 -0.1093 -0.3739 -0.6483
  704MOL0     C94951   5.627   1.869  10.859 -0.2579  0.2760 -0.5485
  704MOL0     O94952   5.349   1.758  10.835  0.0119 -0.3009  0.1459
  704MOL0     C94953   5.119   1.759  10.681 -0.0385 -0.2470 -0.6132
  704MOL0     C94954   5.006   1.763  10.597 -0.0309  0.1237  0.5065
  704MOL0     N94955   4.288   1.688  10.280 -0.2368  0.0924 -0.2060
  704MOL0     N94956   4.175   1.715  10.331  0.1601  0.5980 -0.2386
  704MOL0     C94957   3.071   1.934  10.280  0.0574 -1.2396 -1.1451
  704MOL0     C94958   2.948   1.977  10.219 -0.0425 -0.5640  0.0543
  704MOL0     C94959   2.488   2.052  10.173 -0.2334 -0.0980  0.5782
  704MOL0     C94960   2.489   2.005  10.042  0.2378 -0.2360 -0.9541
  704MOL0     C94961   2.367   1.994   9.968  0.4723 -0.2108  0.8646
  704MOL0     C94962   2.242   2.023  10.014  0.0117  0.0843 -0.5625
  704MOL0     O94963   2.134   1.990   9.940 -0.0110  0.4990 -0.3109
  704MOL0     C94964   2.015   1.976  10.015 -0.4856 -0.3775  0.1117
  704MOL0     C94965   2.016   1.844  10.088  0.7890 -0.2946 -0.0806
  704MOL0     C94966   1.883   1.787  10.145  0.1667  0.1769  0.2043
  704MOL0     C94967   1.769   1.812  10.051 -0.0673 -0.8876 -0.8224
  704MOL0     C94968   1.644   1.750  10.115  0.4005 -0.1094  0.0196
  704MOL0     C94969   1.551   1.691  10.150  0.1009  0.2573 -0.2017
  704MOL0     C94970   2.245   2.079  10.144 -1.2323 -0.8001 -1.2545
  704MOL0     C94971   2.361   2.106  10.224 -0.1309 -0.0175  0.5919
  704MOL0     C94972   2.344   2.186  10.344 -0.4147  0.2148  0.1553
  704MOL0     H94973   2.718   1.853  10.429  0.4635  1.6959  2.3608
  704MOL0     H94974   2.925   1.760  10.538  3.5422 -0.3165  0.7211
  704MOL0     H94975   3.111   1.739  10.626  1.4280  1.9807  1.6429
  704MOL0     H94976   3.153   1.621  10.502 -2.0656  0.5190  0.4588
  704MOL0     H94977   3.304   1.605  10.676 -0.9655  1.3509  1.7846
  704MOL0     H94978   3.343   1.789  10.685 -0.2843  0.3986 -0.8305
  704MOL0     H94979   3.423   1.754  10.448 -4.0145 -0.8479 -1.0712
  704MOL0     H94980   3.433   1.584  10.476 -1.0773  0.1597 -0.0323
  704MOL0     H94981   3.576   1.789  10.645  2.0619 -1.2917  2.5634
  704MOL0     H94982   3.598   1.622  10.672 -1.8401 -1.2910 -0.0849
  704MOL0     H94983   3.685   1.600  10.433 -0.8183 -2.2247  3.6569
  704MOL0     H94984   3.679   1.785  10.437 -1.4411 -0.2849 -1.7856
  704MOL0     H94985   3.806   1.758  10.653 -0.0213  0.0948 -0.1525
  704MOL0     H94986   3.851   1.584  10.615  0.3094  0.2327  1.2300
  704MOL0     H94987   3.929   1.816  10.435 -0.9926  0.7681  3.0072
  704MOL0     H94988   3.933   1.641  10.410 -2.3580 -2.6402  1.5311
  704MOL0     H94989   4.061   1.816  10.617 -0.3766 -0.1966 -0.6476
  704MOL0     H94990   4.087   1.635  10.625 -1.5188 -1.0284  0.3964
  704MOL0     H94991   4.367   1.720  10.589  1.4347 -0.1634 -0.6335
  704MOL0     H94992   4.547   1.571  10.451 -2.3481 -1.1975 -0.1104
  704MOL0     H94993   4.534   1.585  10.271 -1.3146 -0.7844  0.0293
  704MOL0     H94994   4.578   1.815  10.266 -0.3630  1.4681 -0.0961
  704MOL0     H94995   4.612   1.817  10.439  0.5235  1.3957 -1.4754
  704MOL0     H94996   4.762   1.634  10.239 -2.3473 -0.3071 -0.6441
  704MOL0     H94997   4.787   1.634  10.410 -1.0135 -1.8666 -1.3843
  704MOL0     H94998   4.833   1.876  10.226  1.7897  2.9503  2.2600
  704MOL0     H94999   4.957   1.757  10.273 -1.1838 -2.2979  0.0582
  704MOL0     H95000   5.100   2.031  10.408 -2.8708 -1.4607 -0.7067
  704MOL0     H95001   5.289   2.028  10.562  0.2867 -0.6657 -0.7462
  704MOL0     H95002   5.460   2.151  10.954  2.6116  1.0889  1.2071
  704MOL0     H95003   5.634   2.146  11.135 -0.1504  1.7847 -2.8509
  704MOL0     H95004   5.940   1.789  11.139 -0.8025  0.9375  0.6080
  704MOL0     H95005   5.994   1.939  11.071 -3.0257  0.5550 -2.3683
  704MOL0     H95006   6.059   2.018  11.272  3.5442 -1.1095 -0.5587
  704MOL0     H95007   5.949   1.907  11.369 -0.4676 -2.2332 -1.7244
  704MOL0     H95008   6.099   1.726  11.312  1.6214 -0.1720 -0.3937
  704MOL0     H95009   6.214   1.845  11.232  0.1705  2.2661 -0.0248
  704MOL0     H95010   6.163   1.809  11.523 -0.3917 -1.2042 -0.7989
  704MOL0     H95011   6.219   1.951  11.462 -0.7691 -0.5906 -0.9773
  704MOL0     H95012   6.387   1.777  11.543  1.2780  0.7100 -0.8273
  704MOL0     H95013   6.429   1.848  11.379  0.2243  1.1263 -0.3678
  704MOL0     H95014   6.303   1.577  11.474  0.7226 -0.6163 -0.4353
  704MOL0     H95015   6.328   1.622  11.299  0.6272  4.3672 -2.2711
  704MOL0     H95016   6.504   1.480  11.395 -2.1583  0.1335  1.8412
  704MOL0     H95017   6.538   1.603  11.512 -2.5430 -1.3141 -0.0960
  704MOL0     H95018   6.555   1.641  11.216 -3.1650  1.1402  1.9451
  704MOL0     H95019   6.627   1.748  11.318 -0.8320  0.5430 -0.4237
  704MOL0     H95020   5.767   1.769  10.982 -3.1416 -1.9932  0.4188
  704MOL0     H95021   5.618   1.794  10.782  0.4385 -0.5900  0.1908
  704MOL0     H95022   5.124   1.673  10.747 -0.7555  0.1639 -0.0144
  704MOL0     H95023   4.925   1.691  10.600 -3.4540  3.4478 -1.7888
  704MOL0     H95024   3.173   1.952  10.245 -0.4079 -0.8266 -2.3452
  704MOL0     H95025   2.962   2.039  10.132  1.2560 -1.8401 -0.6994
  704MOL0     H95026   2.577   1.965   9.994  0.8892 -0.2305  0.2126
  704MOL0     H95027   2.379   1.948   9.870  1.9841 -0.8908  1.3306
  704MOL0     H95028   1.929   1.969   9.948  0.5697 -1.1127 -1.2086
  704MOL0     H95029   2.002   2.064  10.079  3.3604  1.5965 -1.4472
  704MOL0     H95030   2.095   1.840  10.164 -1.3520  1.7295  2.4247
  704MOL0     H95031   2.039   1.775  10.006  0.5074  1.3120 -1.5768
  704MOL0     H95032   1.855   1.819  10.246  1.8890  0.2025  0.7037
  704MOL0     H95033   1.894   1.679  10.159 -2.5433 -0.4610 -1.6812
  704MOL0     H95034   1.751   1.920  10.054  1.9076 -0.5540  0.9249
  704MOL0     H95035   1.785   1.790   9.945  1.3722  0.8745 -1.0122
  704MOL0     H95036   1.458   1.639  10.159  0.5901 -0.3401  2.5652
  704MOL0     H95037   2.155   2.099  10.201 -0.7080 -1.9779  0.0199
  704MOL0     H95038   2.257   2.251  10.336  0.7524  1.5864 -3.6532
  704MOL0     H95039   2.326   2.122  10.432  2.0466  1.9822  2.0813
  704MOL0     H95040   2.433   2.248  10.362  1.1592 -2.1191  0.9382
  705MOL0     O95041   2.631   5.372   7.884 -0.2652  0.7949 -0.6304
  705MOL0     C95042   2.615   5.424   7.779  1.1718  0.2454 -0.6879
  705MOL0     O95043   2.504   5.418   7.712  0.0133  0.0080 -0.1487
  705MOL0     C95044   2.406   5.334   7.765  0.3664 -0.1967 -0.2207
  705MOL0     C95045   2.299   5.387   7.834  0.4784  0.8243 -0.2751
  705MOL0     C95046   2.194   5.305   7.875  1.0414 -0.4034 -0.3537
  705MOL0     C95047   2.183   5.175   7.835  0.0890 -0.1743  0.0569
  705MOL0     O95048   2.076   5.094   7.882 -0.2905 -0.5459 -0.5026
  705MOL0     C95049   2.015   5.130   8.008  0.1483 -0.0573  0.3782
  705MOL0     C95050   1.898   5.029   8.052  0.4248  0.3850 -0.5491
  705MOL0     C95051   1.776   5.038   7.966  0.3845 -0.5197 -0.8809
  705MOL0     C95052   1.661   4.935   7.998  0.0717 -0.2355  0.0296
  705MOL0     C95053   1.594   4.974   8.128 -0.6693  0.0569 -0.2305
  705MOL0     C95054   1.473   4.879   8.144 -0.3601 -0.0586  0.1361
  705MOL0     C95055   1.374   4.932   8.252  0.5097 -0.0593  0.0685
  705MOL0     C95056   1.421   4.905   8.401  0.0063  0.2830 -0.5348
  705MOL0     N95057   1.556   4.960   8.450  0.4928  0.4387 -0.5522
  705MOL0     C95058   1.582   5.082   8.505 -0.5932 -0.2012  0.3415
  705MOL0     C95059   1.710   5.077   8.557  1.1355 -0.0078  0.4636
  705MOL0     C95060   1.786   5.182   8.624  0.0626 -0.0598 -0.4336
  705MOL0     C95061   1.878   5.261   8.540  0.5330 -0.2046  0.6705
  705MOL0     C95062   2.001   5.177   8.508 -0.0577 -0.9232 -0.2786
  705MOL0     C95063   2.100   5.264   8.433 -0.9911 -0.2837  0.8979
  705MOL0     O95064   2.034   5.353   8.335 -0.0223  0.5377  0.0496
  705MOL0     C95065   2.105   5.453   8.265 -1.0249  0.0305 -0.6835
  705MOL0     C95066   2.036   5.531   8.172  0.1103  0.1965 -0.0075
  705MOL0     C95067   2.111   5.622   8.089 -0.5267 -0.3555  0.1162
  705MOL0     C95068   2.249   5.630   8.114  0.1833 -0.1151 -0.0969
  705MOL0     C95069   2.330   5.733   8.039  0.4031  0.0549  0.5888
  705MOL0     O95070   2.465   5.728   8.033 -0.1430 -0.3046  0.1204
  705MOL0     C95071   2.537   5.814   7.956 -0.4337 -0.2482  0.1271
  705MOL0     C95072   2.552   5.800   7.819 -0.6334  0.7775  0.4616
  705MOL0     C95073   2.634   5.878   7.733  0.4223 -1.0522 -0.7973
  705MOL0     C95074   2.699   5.985   7.799  0.1130  0.2517  0.8833
  705MOL0     O95075   2.790   6.065   7.739 -0.1067 -0.0879 -0.1922
  705MOL0     C95076   2.818   6.023   7.605  0.3511  0.3500  0.0417
  705MOL0     C95077   2.928   6.118   7.555  0.2154  0.3396 -0.2390
  705MOL0     C95078   3.006   6.063   7.421 -0.4200 -0.6337  0.0627
  705MOL0     C95079   3.131   6.146   7.401  0.1333 -0.3369  0.2302
  705MOL0     C95080   3.211   6.100   7.268  0.3760 -0.1190 -0.0176
  705MOL0     C95081   3.326   6.183   7.241 -0.3210 -0.6229  0.3268
  705MOL0     C95082   3.438   6.159   7.335 -0.4936 -0.3773  0.0972
  705MOL0     C95083   3.570   6.226   7.295 -0.3823  0.3141  0.5511
  705MOL0    Cl95084   3.676   6.082   7.258  0.0896 -0.4983 -0.8817
  705MOL0     C95085   2.677   6.011   7.935 -0.2476 -0.1710  0.2864
  705MOL0     C95086   2.598   5.924   8.018 -0.2864  0.3793 -0.6664
  705MOL0     O95087   2.264   5.824   7.998 -1.3400 -0.1666 -0.1195
  705MOL0     C95088   2.314   5.553   8.213 -0.3376 -0.4872 -0.5268
  705MOL0     C95089   2.243   5.458   8.279 -0.0472 -0.3321 -0.3253
  705MOL0     N95090   1.750   4.953   8.535  0.0500  0.3227  0.5054
  705MOL0     N95091   1.663   4.880   8.472 -0.9639 -0.5661  0.3473
  705MOL0     C95092   2.296   5.120   7.766  0.0209 -0.1884 -0.1358
  705MOL0     C95093   2.399   5.205   7.725  0.7862 -0.2137  0.5685
  705MOL0     C95094   2.721   5.515   7.721 -0.1594  0.3528  0.8802
  705MOL0     C95095   2.688   5.592   7.603  0.5413  1.4190 -0.3971
  705MOL0     C95096   2.785   5.661   7.527 -0.0117  0.4934 -0.7579
  705MOL0     C95097   2.919   5.662   7.563 -0.9226  0.4369  1.0033
  705MOL0     O95098   3.026   5.707   7.478  0.4837 -0.8667  0.4020
  705MOL0     C95099   3.071   5.599   7.400 -0.6863 -0.2544  0.3957
  705MOL0     C95100   3.184   5.635   7.305 -0.6061  0.4781 -0.0378
  705MOL0     C95101   3.303   5.705   7.369  0.2378  0.3929 -0.9713
  705MOL0     C95102   3.423   5.736   7.276 -0.4184 -0.0761 -1.1375
  705MOL0     C95103   3.488   5.613   7.226  0.3456 -0.5141 -0.4127
  705MOL0     C95104   3.536   5.505   7.190 -0.1791  0.5458  0.5267
  705MOL0     C95105   2.956   5.581   7.674  0.0571 -0.9913  0.7451
  705MOL0     C95106   2.861   5.518   7.755  0.2713  0.2523  0.3046
  705MOL0     C95107   2.908   5.450   7.885  0.3315 -0.3791  0.4007
  705MOL0     H95108   2.280   5.491   7.858  0.7169  0.7427  0.2585
  705MOL0     H95109   2.105   5.353   7.916  0.6150 -1.2835 -0.2274
  705MOL0     H95110   2.088   5.131   8.090  0.7552 -0.4649 -0.1510
  705MOL0     H95111   1.979   5.232   7.993  1.9585  0.3611 -1.4554
  705MOL0     H95112   1.870   5.047   8.156 -1.8350 -0.1575 -1.0014
  705MOL0     H95113   1.933   4.927   8.035 -0.6439 -0.0958  0.0230
  705MOL0     H95114   1.808   5.018   7.863  0.6109  2.6579 -1.5285
  705MOL0     H95115   1.741   5.141   7.969 -0.6295 -0.7969 -2.1098
  705MOL0     H95116   1.584   4.941   7.920 -0.7422  1.0217  0.9005
  705MOL0     H95117   1.713   4.839   8.001  1.2367  0.4088  1.8029
  705MOL0     H95118   1.670   4.957   8.204 -1.4712  1.4215  0.9388
  705MOL0     H95119   1.565   5.079   8.125 -2.9784 -0.4425  1.3525
  705MOL0     H95120   1.410   4.873   8.055 -0.8815  0.5484  0.4536
  705MOL0     H95121   1.508   4.779   8.170 -0.2657 -0.1945 -0.4904
  705MOL0     H95122   1.278   4.880   8.238 -0.5664  0.6244  3.8565
  705MOL0     H95123   1.358   5.040   8.238 -0.8069 -0.1841  0.4655
  705MOL0     H95124   1.335   4.945   8.456 -0.2525  1.5945 -1.8499
  705MOL0     H95125   1.421   4.797   8.421 -2.3000 -0.4506 -3.7536
  705MOL0     H95126   1.515   5.164   8.528 -0.5918  0.2961 -1.3233
  705MOL0     H95127   1.715   5.254   8.665 -1.1636 -0.2769 -2.0691
  705MOL0     H95128   1.836   5.138   8.711 -1.0810 -0.3686  0.0871
  705MOL0     H95129   1.832   5.295   8.447  0.8294 -1.9438 -0.1626
  705MOL0     H95130   1.905   5.348   8.601 -1.3908  0.5916  0.4617
  705MOL0     H95131   1.961   5.095   8.447  1.9313 -1.8558 -0.3874
  705MOL0     H95132   2.040   5.139   8.602 -4.3753 -2.0699  1.2989
  705MOL0     H95133   2.175   5.208   8.377  0.0187  3.7916 -2.3172
  705MOL0     H95134   2.163   5.315   8.507  5.1135 -2.3628 -2.1102
  705MOL0     H95135   1.930   5.506   8.165 -0.1971  1.6284 -0.7309
  705MOL0     H95136   2.053   5.691   8.029  0.5298  0.9108  0.4860
  705MOL0     H95137   2.502   5.719   7.765 -1.0111 -0.1629  2.1256
  705MOL0     H95138   2.628   5.858   7.626 -0.0382 -1.9590 -0.6131
  705MOL0     H95139   2.852   5.920   7.595 -0.7122  0.1026 -1.3312
  705MOL0     H95140   2.736   6.024   7.533  0.5335  1.9831 -0.1935
  705MOL0     H95141   2.878   6.214   7.539  0.7116  0.7614  0.7011
  705MOL0     H95142   3.000   6.133   7.635  1.3194  2.0045 -1.4670
  705MOL0     H95143   3.038   5.963   7.452 -1.5384 -0.0230  3.6752
  705MOL0     H95144   2.951   6.065   7.327 -1.4270  0.5569  0.6387
  705MOL0     H95145   3.196   6.121   7.486  1.7080 -1.8634 -1.3582
  705MOL0     H95146   3.101   6.251   7.411  1.2263  0.0276 -0.2149
  705MOL0     H95147   3.148   6.101   7.179  0.4969  2.1110 -0.1522
  705MOL0     H95148   3.240   5.995   7.276  1.2821  0.1658  0.6622
  705MOL0     H95149   3.365   6.178   7.139  1.2756 -1.8127  0.9521
  705MOL0     H95150   3.291   6.285   7.263 -2.4142 -1.7129  2.5773
  705MOL0     H95151   3.461   6.053   7.348 -1.3705 -0.5369  0.3750
  705MOL0     H95152   3.410   6.195   7.435 -1.0426  2.8022 -1.0975
  705MOL0     H95153   3.561   6.296   7.211  1.2309  0.3614  0.3863
  705MOL0     H95154   3.615   6.291   7.371 -0.8817  1.0070  0.2615
  705MOL0     H95155   2.724   6.098   7.978 -1.2166  0.9895 -0.9131
  705MOL0     H95156   2.587   5.929   8.126  1.4032 -1.9008 -0.3198
  705MOL0     H95157   2.419   5.573   8.231 -1.1337  1.6989  2.5653
  705MOL0     H95158   2.305   5.402   8.348  1.4984  1.7987  0.1151
  705MOL0     H95159   2.294   5.022   7.720  0.6538  0.0039 -0.6010
  705MOL0     H95160   2.488   5.166   7.677 -0.1371 -2.0060  0.2317
  705MOL0     H95161   2.584   5.591   7.572  0.6405  0.1453 -0.7556
  705MOL0     H95162   2.748   5.706   7.436  0.1047  1.2738 -0.4324
  705MOL0     H95163   2.992   5.570   7.330 -0.3588  2.8067 -1.3988
  705MOL0     H95164   3.104   5.518   7.466 -1.1314 -2.2115 -1.6463
  705MOL0     H95165   3.136   5.689   7.223  0.3455 -0.4036 -1.2094
  705MOL0     H95166   3.244   5.547   7.277 -0.5095  0.9968 -1.5933
  705MOL0     H95167   3.350   5.638   7.442  0.9047  1.2024 -0.6403
  705MOL0     H95168   3.274   5.794   7.426 -0.6424  0.3021 -1.2605
  705MOL0     H95169   3.391   5.788   7.186  0.2290 -0.9550 -1.8945
  705MOL0     H95170   3.499   5.797   7.326 -0.9511  0.8189 -1.4049
  705MOL0     H95171   3.592   5.415   7.176  0.5756  0.5218  3.1000
  705MOL0     H95172   3.062   5.571   7.694  0.4652  0.2398 -0.6315
  705MOL0     H95173   3.015   5.458   7.901  0.2386 -3.3349  3.6985
  705MOL0     H95174   2.855   5.484   7.975 -1.3655 -3.0467  0.5412
  705MOL0     H95175   2.884   5.343   7.880  1.3542 -0.5836 -0.3535
  706MOL0     O95176   9.059   3.742   4.178  0.0755  0.3462 -0.1400
  706MOL0     C95177   9.025   3.764   4.065  0.8102 -0.6768  0.0799
  706MOL0     O95178   9.100   3.829   3.967  0.2441  0.1056 -0.0301
  706MOL0     C95179   9.233   3.862   3.986 -0.5335 -1.3311 -0.0619
  706MOL0     C95180   9.332   3.813   4.077 -0.2201 -0.6689 -0.9694
  706MOL0     C95181   9.468   3.856   4.073  0.2142  0.2283  0.1968
  706MOL0     C95182   9.506   3.947   3.971  0.1571 -0.8226  0.2329
  706MOL0     O95183   9.636   3.994   3.969  0.6203  0.3769 -0.5189
  706MOL0     C95184   9.700   4.034   4.100  0.2866  0.5421 -0.3259
  706MOL0     C95185   9.810   3.933   4.117 -0.5003 -0.9060 -0.2715
  706MOL0     C95186   9.916   3.937   4.012 -1.0831  0.0241  0.3795
  706MOL0     C95187  10.057   3.916   4.085  0.7597  0.5983 -0.5705
  706MOL0     C95188  10.185   3.935   4.000  1.0231 -0.1839  0.0669
  706MOL0     C95189  10.193   3.830   3.891 -1.0180 -0.1206 -0.8562
  706MOL0     C95190  10.334   3.819   3.851  0.2949  0.5835  0.1070
  706MOL0     C95191  10.348   3.709   3.745 -0.3180 -0.2014 -0.3357
  706MOL0     N95192  10.439   3.744   3.645 -0.3739 -0.9466  0.0804
  706MOL0     C95193  10.569   3.687   3.643  0.3080  0.6586  0.2537
  706MOL0     C95194  10.633   3.760   3.550  0.1669  0.7764  0.5362
  706MOL0     C95195  10.764   3.737   3.495 -0.4261 -0.1812  0.7634
  706MOL0     C95196  10.862   3.863   3.513  0.6190 -0.0989  0.5998
  706MOL0     C95197  11.008   3.838   3.463  0.4110  0.2178  0.4266
  706MOL0     C95198  11.100   3.948   3.495  0.3860 -0.2160  0.9054
  706MOL0     O95199  11.238   3.910   3.456 -0.2592  0.4834  0.4834
  706MOL0     C95200  11.339   3.986   3.514 -0.0847 -0.2553  0.0056
  706MOL0     C95201  11.327   4.118   3.546  0.7523  0.7638  0.4276
  706MOL0     C95202  11.430   4.193   3.595  0.3946 -0.1781  0.2935
  706MOL0     C95203  11.560   4.136   3.605  0.5843  1.1008  0.8426
  706MOL0     C95204  11.679   4.222   3.624  0.2412  0.7143  0.8240
  706MOL0     O95205  11.801   4.166   3.617  0.2905 -0.4551  0.0559
  706MOL0     C95206  11.908   4.240   3.646  0.2202  0.5182  1.4971
  706MOL0     C95207  11.998   4.188   3.731 -0.3214 -0.2039 -0.6250
  706MOL0     C95208  12.115   4.258   3.755 -0.2376  0.2550  0.4552
  706MOL0     C95209  12.149   4.376   3.679  0.7933  0.0595 -0.2967
  706MOL0     O95210  12.252   4.458   3.700  0.6078  0.4447  0.0808
  706MOL0     C95211  12.369   4.398   3.635  0.3263  0.4030  0.8192
  706MOL0     C95212  12.483   4.372   3.739 -0.0841  0.0456  0.3283
  706MOL0     C95213  12.495   4.499   3.827  0.8150 -1.0002  0.7731
  706MOL0     C95214  12.588   4.471   3.947  0.7623 -0.0381  1.0468
  706MOL0     C95215  12.528   4.388   4.054 -0.4732  0.4263  0.2335
  706MOL0     C95216  12.420   4.453   4.128  0.6944  0.3083  0.1160
  706MOL0     C95217  12.440   4.596   4.169  0.3634  0.2515 -0.6565
  706MOL0     C95218  12.335   4.635   4.278  0.5186 -1.1525 -0.7870
  706MOL0    Cl95219  12.312   4.807   4.261 -0.1648 -0.3154  0.1759
  706MOL0     C95220  12.053   4.427   3.593 -0.1142 -1.0806 -0.3317
  706MOL0     C95221  11.941   4.360   3.571 -0.0958  0.0213 -0.0211
  706MOL0     O95222  11.655   4.342   3.626  0.2407  0.7319 -0.5588
  706MOL0     C95223  11.578   3.999   3.568 -0.5205 -0.7187 -0.2297
  706MOL0     C95224  11.472   3.934   3.521  0.4077  0.3917  0.1469
  706MOL0     N95225  10.550   3.849   3.490  0.5436  0.1422  0.2958
  706MOL0     N95226  10.431   3.831   3.541 -0.3262 -1.4254  0.0864
  706MOL0     C95227   9.411   3.991   3.876  1.3780 -0.5671  0.1583
  706MOL0     C95228   9.277   3.954   3.888  0.3779  0.4479  0.2553
  706MOL0     C95229   8.886   3.728   4.006 -0.0080  0.1259  0.0172
  706MOL0     C95230   8.873   3.718   3.874  0.3517 -0.7518  0.6124
  706MOL0     C95231   8.749   3.703   3.801 -0.0040 -0.1283 -1.1663
  706MOL0     C95232   8.631   3.689   3.876  1.0292  0.8720 -0.3089
  706MOL0     O95233   8.524   3.668   3.796  1.1555  0.1201  0.7976
  706MOL0     C95234   8.395   3.697   3.828  0.1883 -0.1763 -0.5964
  706MOL0     C95235   8.288   3.600   3.779  0.3635  1.1020 -0.1398
  706MOL0     C95236   8.307   3.456   3.835  0.5836  0.9515  0.6830
  706MOL0     C95237   8.174   3.383   3.825  0.1915  0.0382 -0.6069
  706MOL0     C95238   8.198   3.244   3.871  0.6362  0.3059 -0.6502
  706MOL0     C95239   8.202   3.126   3.890  0.9367  0.3824 -0.7835
  706MOL0     C95240   8.637   3.694   4.016 -0.4609 -0.7031  0.0004
  706MOL0     C95241   8.764   3.719   4.078 -0.1881  0.5312 -0.8990
  706MOL0     C95242   8.764   3.723   4.229 -0.0300 -1.4893  0.1178
  706MOL0     H95243   9.307   3.744   4.157 -1.2531  1.1477  0.3506
  706MOL0     H95244   9.532   3.819   4.153  0.7810  0.5991 -0.0821
  706MOL0     H95245   9.735   4.137   4.085 -0.7895  0.7413 -1.6156
  706MOL0     H95246   9.628   4.038   4.182 -0.5676 -0.4720 -1.0072
  706MOL0     H95247   9.760   3.836   4.119  0.0938 -1.2051  2.0201
  706MOL0     H95248   9.855   3.956   4.214  0.0289  1.9935 -1.1182
  706MOL0     H95249   9.907   4.029   3.953 -0.7431 -0.9070 -1.1699
  706MOL0     H95250   9.897   3.868   3.930  0.0513  2.0846 -1.7398
  706MOL0     H95251  10.043   3.985   4.169  1.2153  0.4960 -0.4054
  706MOL0     H95252  10.050   3.816   4.127 -2.5178  0.4128 -1.2487
  706MOL0     H95253  10.175   4.036   3.958 -2.3847 -0.8920 -1.1989
  706MOL0     H95254  10.267   3.930   4.071 -0.0012 -0.3185  1.2723
  706MOL0     H95255  10.156   3.738   3.937  2.5128 -1.2278  0.1261
  706MOL0     H95256  10.127   3.862   3.810 -0.1211 -0.2763 -1.6669
  706MOL0     H95257  10.387   3.805   3.946  0.9040 -0.4025 -0.3602
  706MOL0     H95258  10.354   3.916   3.805  1.0235  1.2036  1.6862
  706MOL0     H95259  10.390   3.627   3.805 -2.2955  0.4298  2.0652
  706MOL0     H95260  10.256   3.679   3.693  1.3960  1.4722 -4.7404
  706MOL0     H95261  10.616   3.612   3.706  3.6103  2.2874 -0.0268
  706MOL0     H95262  10.809   3.648   3.538  1.9392 -1.2958 -3.4540
  706MOL0     H95263  10.751   3.715   3.389 -2.4432 -2.4184  1.4037
  706MOL0     H95264  10.826   3.941   3.444  1.3941 -0.0618  0.2313
  706MOL0     H95265  10.863   3.908   3.612  0.2464  2.0478 -0.3140
  706MOL0     H95266  10.999   3.809   3.358  0.8513  0.0308  0.4364
  706MOL0     H95267  11.057   3.751   3.508  1.2154 -1.4970 -3.3749
  706MOL0     H95268  11.100   3.951   3.605  3.0319  1.1790  0.9506
  706MOL0     H95269  11.064   4.038   3.445  1.3049 -0.7129 -0.7078
  706MOL0     H95270  11.235   4.177   3.544  2.0223  2.9832  2.3778
  706MOL0     H95271  11.423   4.299   3.615  4.5104  0.6975 -1.8165
  706MOL0     H95272  11.985   4.091   3.777  1.8765  0.0722  0.7125
  706MOL0     H95273  12.193   4.208   3.810  3.0118  1.0977 -2.9455
  706MOL0     H95274  12.353   4.306   3.577  1.0545  0.0180  1.2172
  706MOL0     H95275  12.413   4.469   3.565  1.9655 -1.3125  0.0195
  706MOL0     H95276  12.452   4.283   3.794  0.1784 -0.4930 -0.3788
  706MOL0     H95277  12.573   4.357   3.679 -0.0295 -2.8653  1.0013
  706MOL0     H95278  12.542   4.576   3.765  1.7539 -1.1793  1.2420
  706MOL0     H95279  12.399   4.535   3.864 -0.4763 -2.3710 -1.0416
  706MOL0     H95280  12.627   4.561   3.994 -0.3878 -0.4875  2.9645
  706MOL0     H95281  12.674   4.418   3.905  0.6425  2.2444 -2.5492
  706MOL0     H95282  12.606   4.364   4.127 -0.2639  1.0673  0.2292
  706MOL0     H95283  12.484   4.298   4.010  0.9502  0.6943 -1.8894
  706MOL0     H95284  12.325   4.450   4.074  0.4938 -0.2555  0.4863
  706MOL0     H95285  12.404   4.402   4.224 -1.5390  2.3822  0.9640
  706MOL0     H95286  12.424   4.652   4.076 -0.6807 -1.1132 -1.3355
  706MOL0     H95287  12.539   4.618   4.210 -1.0345  2.8258  1.6123
  706MOL0     H95288  12.245   4.580   4.247 -0.7670 -0.4670  1.4583
  706MOL0     H95289  12.358   4.619   4.384  0.6706  2.8654 -0.0534
  706MOL0     H95290  12.066   4.520   3.539 -1.3676 -0.4573  0.3948
  706MOL0     H95291  11.864   4.406   3.510 -0.9853  0.2872  1.2648
  706MOL0     H95292  11.681   3.967   3.564  0.1849  1.4810 -1.3484
  706MOL0     H95293  11.492   3.833   3.488  1.3859 -0.4801  3.0754
  706MOL0     H95294   9.443   4.066   3.804  0.3206 -0.1338  0.1213
  706MOL0     H95295   9.198   3.977   3.817  1.0451 -2.6016 -1.6615
  706MOL0     H95296   8.963   3.737   3.816  0.0705  2.0220  0.9531
  706MOL0     H95297   8.749   3.691   3.693  0.9921 -2.8833 -0.9445
  706MOL0     H95298   8.373   3.799   3.795  4.6242  1.1857 -0.0095
  706MOL0     H95299   8.388   3.697   3.938 -0.0307 -2.4222 -0.5671
  706MOL0     H95300   8.321   3.592   3.675  3.3414 -1.2032  0.8229
  706MOL0     H95301   8.192   3.643   3.807 -2.2252 -2.2198 -3.0945
  706MOL0     H95302   8.341   3.456   3.939 -0.0656 -2.8217  1.0618
  706MOL0     H95303   8.376   3.390   3.781  0.3178 -0.5143  2.0528
  706MOL0     H95304   8.097   3.425   3.891  0.4414 -0.5424  0.0588
  706MOL0     H95305   8.126   3.390   3.726  0.3013 -1.3257 -0.7747
  706MOL0     H95306   8.191   3.022   3.916 -1.4308  0.6133 -0.6017
  706MOL0     H95307   8.547   3.676   4.073  0.1910  2.0436  2.1275
  706MOL0     H95308   8.664   3.750   4.265  0.4895  0.8593 -0.0301
  706MOL0     H95309   8.792   3.628   4.274  0.9669 -1.6526 -0.8026
  706MOL0     H95310   8.824   3.807   4.266 -3.4121  1.2242 -0.0071
  707MOL0     O95311   2.293   5.256   5.298  0.6620  1.2900  0.3320
  707MOL0     C95312   2.178   5.297   5.329 -0.0037 -1.0876 -0.4166
  707MOL0     O95313   2.150   5.429   5.378  0.3621  0.2168  0.0125
  707MOL0     C95314   2.258   5.506   5.389  0.0401 -0.3346 -0.1334
  707MOL0     C95315   2.303   5.589   5.283 -0.7696 -0.2234  0.2764
  707MOL0     C95316   2.405   5.685   5.306  0.5775 -0.4140  0.3819
  707MOL0     C95317   2.472   5.679   5.432  0.4765 -0.8704  0.0013
  707MOL0     O95318   2.572   5.776   5.452 -0.6503  0.0603 -0.0127
  707MOL0     C95319   2.667   5.767   5.560  1.3468 -0.0039  0.7685
  707MOL0     C95320   2.779   5.868   5.542  0.0515 -0.2327 -0.3394
  707MOL0     C95321   2.909   5.807   5.484 -0.3138  0.2410  0.0832
  707MOL0     C95322   2.985   5.712   5.587  1.1955 -0.8897 -0.2119
  707MOL0     C95323   3.090   5.631   5.518 -0.2483  0.5710  0.3166
  707MOL0     C95324   3.199   5.712   5.440 -0.9452 -0.7754  0.7475
  707MOL0     C95325   3.344   5.653   5.464 -0.3521  0.5387 -0.1707
  707MOL0     C95326   3.377   5.678   5.620 -0.1622  0.1935 -0.0562
  707MOL0     N95327   3.515   5.701   5.639 -1.1942  0.3460  0.1169
  707MOL0     C95328   3.627   5.630   5.580 -0.3492 -0.8406 -0.8233
  707MOL0     C95329   3.734   5.715   5.601 -0.1127 -0.0247  0.6016
  707MOL0     C95330   3.876   5.701   5.540  0.4950  0.4718  0.2109
  707MOL0     C95331   3.935   5.842   5.518  0.3652  1.3098  0.0821
  707MOL0     C95332   4.072   5.854   5.437 -0.3823 -0.1156  0.7723
  707MOL0     C95333   4.189   5.786   5.504  0.3049 -0.0759 -0.0362
  707MOL0     O95334   4.258   5.705   5.409  0.1741 -0.2526 -0.1415
  707MOL0     C95335   4.337   5.597   5.446  0.9020  0.0224  0.2776
  707MOL0     C95336   4.382   5.504   5.349 -0.4361 -0.1013  0.1221
  707MOL0     C95337   4.483   5.410   5.377  0.6696  0.0105 -0.4527
  707MOL0     C95338   4.532   5.406   5.514 -0.3791 -0.2009  0.0425
  707MOL0     C95339   4.649   5.316   5.538 -0.2820 -0.1094 -0.3147
  707MOL0     O95340   4.672   5.214   5.455  0.1088 -0.1320 -0.0751
  707MOL0     C95341   4.755   5.120   5.499  1.0925  1.6351 -0.9430
  707MOL0     C95342   4.884   5.141   5.547 -0.4966 -0.0602  0.4434
  707MOL0     C95343   4.963   5.035   5.586  0.4882  0.7170 -0.0801
  707MOL0     C95344   4.928   4.898   5.558 -0.3227 -0.9661  0.2892
  707MOL0     O95345   5.017   4.802   5.597  0.2515 -0.1000  0.7488
  707MOL0     C95346   4.969   4.738   5.715  0.6495 -0.1263  0.1862
  707MOL0     C95347   5.073   4.647   5.781  0.1654  0.7268  0.2816
  707MOL0     C95348   5.194   4.718   5.837  0.0831  0.3162  0.2319
  707MOL0     C95349   5.304   4.617   5.889  0.6012 -1.2496  0.1806
  707MOL0     C95350   5.440   4.668   5.862 -0.2280 -0.5343  0.1595
  707MOL0     C95351   5.548   4.587   5.924  0.2399 -0.8623  0.4608
  707MOL0     C95352   5.553   4.581   6.085  0.9151 -0.9158  1.1428
  707MOL0     C95353   5.695   4.553   6.132  0.6789  0.6636 -0.4160
  707MOL0    Cl95354   5.783   4.423   6.045  0.5393  0.3963  0.3442
  707MOL0     C95355   4.803   4.869   5.496 -0.3103 -0.0813 -0.2807
  707MOL0     C95356   4.718   4.982   5.479 -0.9063 -0.1923 -1.4695
  707MOL0     O95357   4.698   5.329   5.653 -0.3413 -0.6325  1.1082
  707MOL0     C95358   4.480   5.491   5.614 -0.6432 -0.2546  0.2568
  707MOL0     C95359   4.383   5.586   5.579  0.6538 -0.1175  0.4081
  707MOL0     N95360   3.689   5.819   5.681 -0.5520  0.1569  0.2998
  707MOL0     N95361   3.564   5.812   5.700 -0.1383  0.3224 -0.7731
  707MOL0     C95362   2.418   5.611   5.537 -0.1634  0.5041 -0.4208
  707MOL0     C95363   2.313   5.528   5.514  0.0477 -0.8068 -0.3161
  707MOL0     C95364   2.059   5.214   5.303  0.9645 -0.3342 -0.1488
  707MOL0     C95365   1.933   5.280   5.292 -0.7562  0.4984 -0.9560
  707MOL0     C95366   1.823   5.213   5.246 -0.4185 -0.2671  0.4209
  707MOL0     C95367   1.826   5.076   5.204 -0.2911  0.2747  0.4022
  707MOL0     O95368   1.710   5.014   5.158 -0.2817 -0.8763 -0.6890
  707MOL0     C95369   1.706   4.877   5.106 -0.0325 -0.3127  0.0802
  707MOL0     C95370   1.764   4.875   4.969  0.6377  0.0068 -0.1846
  707MOL0     C95371   1.705   4.965   4.863  0.9038 -0.2438  0.1298
  707MOL0     C95372   1.563   4.928   4.816  0.2653 -0.4749 -0.2899
  707MOL0     C95373   1.571   4.807   4.736  0.3430 -0.0130  0.5234
  707MOL0     C95374   1.599   4.707   4.675 -0.0515 -0.1902 -0.4295
  707MOL0     C95375   1.959   5.010   5.209 -0.3123 -0.0609 -0.6028
  707MOL0     C95376   2.069   5.076   5.273  0.5777  0.0429 -0.0013
  707MOL0     C95377   2.192   4.997   5.302 -0.0341  0.2571 -0.3780
  707MOL0     H95378   2.267   5.570   5.182  0.7629  1.5007 -0.6592
  707MOL0     H95379   2.445   5.752   5.231 -2.1337  2.5009  1.3110
  707MOL0     H95380   2.618   5.786   5.656 -1.1961 -2.0179 -0.0133
  707MOL0     H95381   2.710   5.667   5.568 -1.8493 -1.5277  0.6623
  707MOL0     H95382   2.789   5.930   5.632 -2.5343  2.0951 -1.5060
  707MOL0     H95383   2.736   5.944   5.477 -0.8715  0.6614  1.2357
  707MOL0     H95384   2.979   5.887   5.457  2.0005 -1.9176 -0.6347
  707MOL0     H95385   2.870   5.753   5.398 -3.1135 -0.3495  1.5988
  707MOL0     H95386   3.034   5.772   5.664  1.9976 -0.8283 -0.7562
  707MOL0     H95387   2.927   5.630   5.633  0.5606 -1.4976 -2.0081
  707MOL0     H95388   3.130   5.567   5.597  0.4772 -0.7060 -1.0375
  707MOL0     H95389   3.040   5.564   5.448 -3.3010  0.4996  2.3662
  707MOL0     H95390   3.176   5.710   5.333  0.5746 -0.3181  0.3925
  707MOL0     H95391   3.200   5.818   5.467  3.5061 -0.4217 -0.0020
  707MOL0     H95392   3.422   5.699   5.402  1.5554 -0.3997  1.4488
  707MOL0     H95393   3.339   5.546   5.443 -3.4329  0.9100 -2.0181
  707MOL0     H95394   3.300   5.742   5.663 -0.9149  0.5123 -1.7983
  707MOL0     H95395   3.372   5.583   5.674 -0.4213  2.2002  3.7710
  707MOL0     H95396   3.625   5.537   5.525  2.2952 -2.7670  2.0099
  707MOL0     H95397   3.944   5.641   5.601 -2.6782  0.1311  3.7563
  707MOL0     H95398   3.863   5.659   5.440 -0.6494  0.9429  0.1502
  707MOL0     H95399   3.860   5.890   5.454 -0.9679 -2.8376 -1.8125
  707MOL0     H95400   3.942   5.891   5.616 -1.1919 -1.3540  1.6387
  707MOL0     H95401   4.103   5.958   5.420 -1.5595 -0.0652 -1.5077
  707MOL0     H95402   4.054   5.813   5.337 -2.1793  2.0320  0.1398
  707MOL0     H95403   4.155   5.718   5.582  2.7111 -1.1511  0.1791
  707MOL0     H95404   4.251   5.866   5.545  0.5169 -0.6436  0.7792
  707MOL0     H95405   4.352   5.534   5.249 -3.1830 -0.0188  0.8892
  707MOL0     H95406   4.521   5.338   5.305  0.7801  0.5788 -0.9707
  707MOL0     H95407   4.927   5.240   5.562  2.3401 -1.2368  0.8371
  707MOL0     H95408   5.050   5.049   5.650 -0.3571 -2.4409  1.9793
  707MOL0     H95409   4.925   4.807   5.788 -4.4131 -2.9004  0.2495
  707MOL0     H95410   4.881   4.678   5.689  1.8561 -0.7980 -2.7295
  707MOL0     H95411   5.041   4.593   5.871  3.7886  2.2345  2.7265
  707MOL0     H95412   5.096   4.586   5.694  0.6629  0.1505  0.8120
  707MOL0     H95413   5.239   4.777   5.758  0.8022 -2.4492 -1.5854
  707MOL0     H95414   5.162   4.787   5.915 -0.3830  1.1313 -0.6636
  707MOL0     H95415   5.280   4.521   5.842 -0.4419  0.0458 -2.0871
  707MOL0     H95416   5.294   4.610   5.998  1.3337  1.9942  0.5744
  707MOL0     H95417   5.452   4.770   5.898  1.0144 -1.0946  1.4320
  707MOL0     H95418   5.447   4.674   5.753 -0.0154 -3.3981 -0.0597
  707MOL0     H95419   5.555   4.488   5.878  1.2263 -1.6582  2.2130
  707MOL0     H95420   5.641   4.640   5.900  0.7622 -1.6919  0.6153
  707MOL0     H95421   5.479   4.515   6.132 -0.5872 -0.3153 -0.2615
  707MOL0     H95422   5.519   4.681   6.113 -3.1931 -1.0790 -2.1440
  707MOL0     H95423   5.743   4.652   6.132 -2.2774  2.2267  0.7227
  707MOL0     H95424   5.690   4.534   6.239 -2.3488  0.3643 -0.5060
  707MOL0     H95425   4.756   4.772   5.499 -2.2724  0.8462  1.4828
  707MOL0     H95426   4.621   4.947   5.443 -0.9706 -1.6085 -0.0573
  707MOL0     H95427   4.523   5.490   5.714  0.3407 -0.1521 -0.1512
  707MOL0     H95428   4.347   5.659   5.650  1.3733 -0.3202  0.9999
  707MOL0     H95429   2.434   5.622   5.644 -2.7362 -1.3164  0.2594
  707MOL0     H95430   2.253   5.512   5.604 -0.5186  0.6145 -0.4181
  707MOL0     H95431   1.929   5.387   5.308  0.1859  0.7938 -2.4910
  707MOL0     H95432   1.741   5.282   5.234  1.9804  2.6112 -0.7471
  707MOL0     H95433   1.604   4.839   5.115 -0.1285  0.4033  2.9045
  707MOL0     H95434   1.763   4.815   5.177 -2.3200  0.1958  2.5325
  707MOL0     H95435   1.755   4.768   4.946 -3.1273 -0.5442  2.8711
  707MOL0     H95436   1.868   4.905   4.983 -0.2672  2.4652  2.0863
  707MOL0     H95437   1.782   4.969   4.785  1.1141  2.5382  0.4024
  707MOL0     H95438   1.706   5.064   4.909  0.7022 -1.1072  2.0760
  707MOL0     H95439   1.501   4.919   4.905 -2.1487  2.7246 -1.4492
  707MOL0     H95440   1.512   5.009   4.763 -1.9608 -2.6626 -1.7463
  707MOL0     H95441   1.635   4.624   4.617  1.7934 -0.3576  0.8658
  707MOL0     H95442   1.971   4.902   5.198  2.2924  0.1891 -0.6709
  707MOL0     H95443   2.276   5.016   5.235  1.1671 -2.3963  0.2387
  707MOL0     H95444   2.225   5.014   5.405 -3.1426  0.1009  0.7442
  707MOL0     H95445   2.181   4.891   5.281 -0.4548 -0.1675  1.7494
  708MOL0     O95446   1.604   4.381   5.861  0.6239 -0.3739 -0.7382
  708MOL0     C95447   1.485   4.378   5.885 -0.6791  0.3732 -0.1061
  708MOL0     O95448   1.404   4.495   5.899 -0.8964  0.6703 -0.0259
  708MOL0     C95449   1.463   4.613   5.930  0.9808  0.0213  0.4056
  708MOL0     C95450   1.487   4.707   5.828  0.1887 -0.1108  0.1328
  708MOL0     C95451   1.527   4.835   5.859 -0.1545 -0.1642 -0.4458
  708MOL0     C95452   1.557   4.879   5.988 -0.0460  0.8207 -0.7946
  708MOL0     O95453   1.599   5.015   6.001  0.2618 -0.2068 -0.4389
  708MOL0     C95454   1.587   5.075   6.131  0.6126  0.2382  0.7321
  708MOL0     C95455   1.651   5.211   6.098  0.1777  0.1992 -0.6164
  708MOL0     C95456   1.640   5.321   6.198  0.2854 -0.2648  0.3352
  708MOL0     C95457   1.494   5.369   6.222 -0.2647 -0.1073 -0.1597
  708MOL0     C95458   1.487   5.477   6.337  0.0789  0.3210 -0.0399
  708MOL0     C95459   1.368   5.448   6.432  0.8399  0.3050  0.3042
  708MOL0     C95460   1.385   5.328   6.525 -0.4574  0.0632  0.2231
  708MOL0     C95461   1.326   5.339   6.659 -0.7510  0.0472  0.3162
  708MOL0     N95462   1.336   5.218   6.746  0.1659 -0.4364  0.5852
  708MOL0     C95463   1.460   5.186   6.793 -0.0129  0.1895  0.6684
  708MOL0     C95464   1.433   5.050   6.818 -0.3058 -0.0717  0.5695
  708MOL0     C95465   1.529   4.936   6.855  0.7878 -0.0862 -1.0652
  708MOL0     C95466   1.661   4.988   6.905 -0.8044  0.0677  0.2601
  708MOL0     C95467   1.746   4.870   6.978  0.4500  0.4378 -0.2487
  708MOL0     C95468   1.892   4.894   7.015  0.4624 -0.1078  0.6049
  708MOL0     O95469   1.956   4.952   6.901 -0.8353  0.5975 -1.1840
  708MOL0     C95470   2.093   4.959   6.891  0.8534  0.9699  0.0159
  708MOL0     C95471   2.187   4.866   6.936  0.7006  0.2056 -0.2338
  708MOL0     C95472   2.327   4.868   6.897 -0.4675 -0.3814  0.5882
  708MOL0     C95473   2.371   4.969   6.809 -0.2031 -0.0530 -0.2003
  708MOL0     C95474   2.514   4.980   6.759  0.3587 -0.0863 -0.3796
  708MOL0     O95475   2.560   5.093   6.709 -0.3903  0.1826  0.3848
  708MOL0     C95476   2.689   5.108   6.666 -0.3288 -0.0091 -0.0213
  708MOL0     C95477   2.750   5.228   6.700 -0.2115  0.7228  0.4512
  708MOL0     C95478   2.889   5.242   6.679  0.5231  0.2098  0.5975
  708MOL0     C95479   2.957   5.132   6.625  0.5637 -0.5083 -0.8657
  708MOL0     O95480   3.093   5.135   6.614  0.6580 -0.3359 -0.0971
  708MOL0     C95481   3.161   5.164   6.734 -0.9168 -0.3408 -0.4996
  708MOL0     C95482   3.275   5.060   6.750 -0.5822 -0.8941  0.5011
  708MOL0     C95483   3.401   5.102   6.842 -0.0430 -0.2224 -0.2433
  708MOL0     C95484   3.531   5.050   6.783  0.3898 -0.2476  0.1639
  708MOL0     C95485   3.642   5.053   6.884  0.9838 -0.8073 -0.2103
  708MOL0     C95486   3.725   5.182   6.878  0.1714  1.1353 -0.0339
  708MOL0     C95487   3.825   5.218   7.000  0.0169 -0.9388 -0.0176
  708MOL0     C95488   3.907   5.343   6.968  0.1724  0.7059  0.2933
  708MOL0    Cl95489   4.067   5.303   6.899 -0.1883 -0.1629 -0.4702
  708MOL0     C95490   2.890   5.023   6.572 -0.1812  0.2420 -0.5202
  708MOL0     C95491   2.759   5.009   6.596  0.8118  0.2184 -0.4990
  708MOL0     O95492   2.590   4.892   6.790  0.3363 -0.3705 -0.7686
  708MOL0     C95493   2.272   5.064   6.762 -0.1071  0.6569  0.5069
  708MOL0     C95494   2.139   5.053   6.800 -0.0040 -1.1549 -0.1368
  708MOL0     N95495   1.311   5.022   6.784 -0.0683 -0.3241  0.2954
  708MOL0     N95496   1.244   5.119   6.744  0.0117  0.2471 -0.8000
  708MOL0     C95497   1.532   4.783   6.090  0.2105  0.2157  0.3299
  708MOL0     C95498   1.480   4.656   6.061  0.3920 -0.3141  0.6492
  708MOL0     C95499   1.418   4.244   5.892  0.6012  0.2505  0.3839
  708MOL0     C95500   1.496   4.138   5.840  0.0991  0.0916 -0.4728
  708MOL0     C95501   1.443   4.010   5.843  0.1535 -0.7383  0.3924
  708MOL0     C95502   1.321   3.986   5.906 -0.3839  0.2125 -0.5272
  708MOL0     O95503   1.292   3.849   5.926 -0.2754 -0.1297  0.0980
  708MOL0     C95504   1.154   3.811   5.916 -0.4362 -0.6678 -0.4165
  708MOL0     C95505   1.160   3.674   5.866 -0.2896 -0.3193  0.4249
  708MOL0     C95506   1.009   3.625   5.841  0.5118 -0.5924  0.4225
  708MOL0     C95507   0.922   3.604   5.970  0.0128  0.1963  0.4737
  708MOL0     C95508   0.810   3.522   5.943 -0.2463 -0.2678  0.3852
  708MOL0     C95509   0.714   3.455   5.903 -0.5703 -0.0987 -0.2863
  708MOL0     C95510   1.240   4.087   5.958  0.2911 -0.9100 -0.1780
  708MOL0     C95511   1.289   4.218   5.953  0.0892 -0.1419 -0.5281
  708MOL0     C95512   1.196   4.322   6.009  0.0278  0.4673  0.5618
  708MOL0     H95513   1.450   4.696   5.727 -1.2192 -0.2791  0.6470
  708MOL0     H95514   1.519   4.902   5.774  2.8911 -1.8491 -2.2781
  708MOL0     H95515   1.480   5.078   6.157 -0.3889 -1.0999 -2.6297
  708MOL0     H95516   1.637   5.014   6.207 -1.3670  0.8373  2.6206
  708MOL0     H95517   1.605   5.247   6.005 -2.1569 -1.7542 -0.3124
  708MOL0     H95518   1.757   5.195   6.077  0.7716  1.6936  0.9873
  708MOL0     H95519   1.699   5.409   6.169  0.2976 -0.4373 -0.1700
  708MOL0     H95520   1.682   5.280   6.291 -0.6611 -3.7686 -0.6373
  708MOL0     H95521   1.460   5.411   6.127  1.6259  0.1212 -0.7808
  708MOL0     H95522   1.443   5.274   6.242  1.1444 -1.3318 -2.0722
  708MOL0     H95523   1.578   5.486   6.398  0.1817 -1.6478  0.1700
  708MOL0     H95524   1.475   5.574   6.288 -0.1397  0.9140  1.1387
  708MOL0     H95525   1.347   5.541   6.487  1.3401  1.8958 -2.0459
  708MOL0     H95526   1.283   5.418   6.370  2.6009 -2.0848 -1.1052
  708MOL0     H95527   1.491   5.312   6.548 -0.3562 -0.9729 -0.8963
  708MOL0     H95528   1.342   5.236   6.486 -2.2186 -0.9670  4.1019
  708MOL0     H95529   1.380   5.421   6.707  2.5882 -0.5426 -2.0618
  708MOL0     H95530   1.220   5.363   6.645 -0.8112 -0.1745  0.3867
  708MOL0     H95531   1.547   5.250   6.798  1.0422 -1.1611  0.3256
  708MOL0     H95532   1.484   4.883   6.939  3.8843 -1.5130 -0.1575
  708MOL0     H95533   1.543   4.867   6.772  0.1745  1.3140 -2.3856
  708MOL0     H95534   1.719   5.020   6.818 -0.9719 -1.4612 -0.4442
  708MOL0     H95535   1.657   5.065   6.983 -3.0158 -0.9954  1.2930
  708MOL0     H95536   1.764   4.791   6.904  4.2372 -0.3479  1.2963
  708MOL0     H95537   1.692   4.830   7.063 -0.0197  0.1152 -0.6954
  708MOL0     H95538   1.936   4.794   7.022  2.0341  0.2436 -2.6914
  708MOL0     H95539   1.910   4.942   7.112  1.5817 -1.3755  1.0616
  708MOL0     H95540   2.151   4.796   7.011 -2.4559 -0.2507 -2.0353
  708MOL0     H95541   2.393   4.797   6.946  1.0158  1.8477  2.0465
  708MOL0     H95542   2.692   5.300   6.758  1.9550  0.6481  2.8700
  708MOL0     H95543   2.946   5.325   6.719  0.2098 -0.5150  2.7195
  708MOL0     H95544   3.211   5.261   6.726 -0.3374 -0.7184 -1.6237
  708MOL0     H95545   3.100   5.161   6.825  0.4706  0.4942  0.5087
  708MOL0     H95546   3.235   4.969   6.796 -1.2379 -1.5604 -1.3129
  708MOL0     H95547   3.321   5.060   6.650  0.4201 -0.1763  0.9412
  708MOL0     H95548   3.414   5.211   6.844 -3.4051  0.2848 -0.5076
  708MOL0     H95549   3.392   5.064   6.944 -0.9543  2.1690  0.6613
  708MOL0     H95550   3.568   5.096   6.691 -2.7083 -0.0783 -1.1079
  708MOL0     H95551   3.510   4.945   6.759  0.1843  0.3376 -2.5593
  708MOL0     H95552   3.708   4.966   6.873  1.8330 -1.0097  4.3205
  708MOL0     H95553   3.602   5.044   6.985 -0.8557  0.4339 -0.7896
  708MOL0     H95554   3.785   5.189   6.787  2.2901 -0.5462  1.1209
  708MOL0     H95555   3.653   5.264   6.875 -0.6103  0.4479 -1.2995
  708MOL0     H95556   3.899   5.146   7.036 -0.9838 -0.5799  3.0650
  708MOL0     H95557   3.754   5.237   7.081 -0.5920 -1.3315 -0.4572
  708MOL0     H95558   3.843   5.399   6.899 -0.2976 -1.3953 -1.0533
  708MOL0     H95559   3.915   5.397   7.063  1.6116  0.4662  0.3334
  708MOL0     H95560   2.946   4.939   6.532  2.2206  1.5962 -0.2389
  708MOL0     H95561   2.700   4.923   6.568 -0.3709  0.7996  0.1182
  708MOL0     H95562   2.304   5.141   6.693 -1.6191  0.0200 -0.9668
  708MOL0     H95563   2.072   5.136   6.776  0.9223  0.7746  3.2319
  708MOL0     H95564   1.555   4.802   6.195 -1.3066 -2.4300  1.2084
  708MOL0     H95565   1.477   4.577   6.136  1.3484  1.1041  2.2500
  708MOL0     H95566   1.592   4.148   5.792 -0.6061  1.4700 -1.6895
  708MOL0     H95567   1.486   3.918   5.804 -2.9680 -3.4036  2.5757
  708MOL0     H95568   1.091   3.879   5.857 -1.6434 -0.6444  0.8720
  708MOL0     H95569   1.107   3.818   6.014  1.5005  0.0227  0.5096
  708MOL0     H95570   1.203   3.613   5.946 -0.5845 -1.0620  0.0309
  708MOL0     H95571   1.233   3.657   5.786  1.0600  1.2172  1.2788
  708MOL0     H95572   0.998   3.530   5.788 -2.2814 -0.6328  0.9286
  708MOL0     H95573   0.974   3.697   5.767  2.8030  0.5652  0.3583
  708MOL0     H95574   0.980   3.548   6.044 -0.1416  1.5415  1.6445
  708MOL0     H95575   0.888   3.701   6.007  1.8322  1.3658 -0.7109
  708MOL0     H95576   0.625   3.396   5.892 -2.1457  1.9700  0.6517
  708MOL0     H95577   1.136   4.075   5.989 -0.5055  0.6608 -1.9931
  708MOL0     H95578   1.154   4.388   5.932  2.8311  1.5408 -0.1657
  708MOL0     H95579   1.123   4.289   6.084  1.4895  0.0458  1.8601
  708MOL0     H95580   1.256   4.390   6.071 -0.3709  1.1089  0.2630
  709MOL0     O95581   0.238   6.789   2.006 -0.0382  0.4641  0.2831
  709MOL0     C95582   0.285   6.762   2.121 -0.2693  0.2712  0.7036
  709MOL0     O95583   0.422   6.735   2.146 -0.1147 -0.6165 -0.0073
  709MOL0     C95584   0.498   6.732   2.031 -0.2674  0.4979 -0.7256
  709MOL0     C95585   0.512   6.606   1.966 -0.0326 -0.6478  0.1386
  709MOL0     C95586   0.592   6.600   1.846  0.0927  0.0577 -0.9684
  709MOL0     C95587   0.635   6.721   1.785  0.3184  0.2215  0.1486
  709MOL0     O95588   0.713   6.718   1.676 -0.9808 -0.3885 -0.2951
  709MOL0     C95589   0.704   6.618   1.574 -0.0678  0.2162 -0.2995
  709MOL0     C95590   0.774   6.650   1.450  0.3366  0.0178 -0.9729
  709MOL0     C95591   0.761   6.798   1.394  0.1577 -0.1823  0.7673
  709MOL0     C95592   0.874   6.829   1.286 -0.1270  0.2808  0.5418
  709MOL0     C95593   0.832   6.949   1.198 -0.4911 -0.1451  0.3314
  709MOL0     C95594   0.809   7.078   1.274 -0.1517  0.2577  0.7417
  709MOL0     C95595   0.753   7.182   1.172  0.0127 -0.0981  0.2059
  709MOL0     C95596   0.846   7.291   1.120 -0.0153  1.3806  0.3927
  709MOL0     N95597   0.952   7.237   1.036  0.7536 -1.2380 -0.0344
  709MOL0     C95598   1.087   7.248   1.059  0.8773 -0.9203  0.1207
  709MOL0     C95599   1.148   7.171   0.969  0.3585 -0.5284 -0.6677
  709MOL0     C95600   1.291   7.127   0.976  0.0839  0.4932  0.3934
  709MOL0     C95601   1.306   6.976   1.007 -0.1412 -0.0979  0.4667
  709MOL0     C95602   1.224   6.936   1.133  0.1415  0.1066  0.4480
  709MOL0     C95603   1.269   6.803   1.201 -0.2604  0.0692 -0.4869
  709MOL0     O95604   1.254   6.684   1.115  0.7236  0.5363 -1.0553
  709MOL0     C95605   1.356   6.632   1.033 -0.7140 -0.8219 -0.1006
  709MOL0     C95606   1.486   6.686   1.033 -0.3515  0.6506 -0.6971
  709MOL0     C95607   1.594   6.623   0.970 -0.6701 -0.8847  0.1659
  709MOL0     C95608   1.567   6.518   0.887  1.2329 -1.4590 -0.1512
  709MOL0     C95609   1.671   6.469   0.797 -0.3385 -0.5329  0.4527
  709MOL0     O95610   1.631   6.400   0.693 -0.6728  0.5529 -0.0549
  709MOL0     C95611   1.725   6.327   0.625  0.6377 -0.1802  0.5694
  709MOL0     C95612   1.742   6.197   0.659  0.1160  0.0696  0.2834
  709MOL0     C95613   1.834   6.123   0.585  0.2125 -0.8282  0.0805
  709MOL0     C95614   1.908   6.185   0.486  0.0301  0.2549 -0.4642
  709MOL0     O95615   2.004   6.115   0.423 -0.4024 -0.2993  0.7173
  709MOL0     C95616   2.135   6.123   0.488 -0.7114 -0.1555 -0.7281
  709MOL0     C95617   2.228   6.028   0.408  0.1135  0.0445 -0.3695
  709MOL0     C95618   2.243   6.071   0.261  0.4810  0.4533 -0.2816
  709MOL0     C95619   2.322   5.958   0.186  0.3510  0.1833 -0.5448
  709MOL0     C95620   2.368   6.002   0.052  0.2490 -0.1332 -0.0499
  709MOL0     C95621   2.269   6.071  -0.046  0.0003 -0.3031 -0.3888
  709MOL0     C95622   2.338   6.096  -0.181 -0.1907  0.1700  0.1919
  709MOL0     C95623   2.434   6.208  -0.182  0.5418  0.1138  0.4546
  709MOL0    Cl95624   2.339   6.360  -0.162 -0.2867 -0.3251  0.2186
  709MOL0     C95625   1.890   6.319   0.449  0.6314  0.5923  0.2968
  709MOL0     C95626   1.787   6.390   0.516 -0.1217  0.9502  0.1727
  709MOL0     O95627   1.791   6.489   0.832 -0.0808 -0.3329 -0.1836
  709MOL0     C95628   1.437   6.459   0.881  0.4267  0.1500 -0.3714
  709MOL0     C95629   1.332   6.511   0.965  0.0826 -0.8826  0.0282
  709MOL0     N95630   1.049   7.113   0.894 -0.2950  0.0185 -0.5511
  709MOL0     N95631   0.933   7.152   0.932 -0.2966 -0.0371 -0.6778
  709MOL0     C95632   0.617   6.846   1.850  0.2442  0.1639 -0.7440
  709MOL0     C95633   0.548   6.853   1.974 -1.0370  0.3033 -0.0501
  709MOL0     C95634   0.188   6.751   2.226  1.5218  0.0406 -0.1901
  709MOL0     C95635   0.100   6.868   2.233  0.1918 -0.1253  0.5138
  709MOL0     C95636   0.006   6.882   2.337 -0.4316 -0.8313  0.1696
  709MOL0     C95637  -0.001   6.772   2.428 -0.5822 -0.5061  0.6742
  709MOL0     O95638  -0.098   6.771   2.517 -0.2254  0.6763 -0.3075
  709MOL0     C95639  -0.064   6.722   2.652 -0.6224  0.3873  0.1227
  709MOL0     C95640  -0.179   6.644   2.713 -0.5421  0.1236  0.3652
  709MOL0     C95641  -0.140   6.582   2.842  0.5019 -0.1225 -1.1362
  709MOL0     C95642  -0.253   6.549   2.931 -0.7308 -0.5768 -0.2742
  709MOL0     C95643  -0.350   6.460   2.855 -1.2064 -0.2593  0.1194
  709MOL0     C95644  -0.432   6.393   2.786 -0.8243 -0.3031  0.4052
  709MOL0     C95645   0.082   6.659   2.413 -0.1385 -0.3762 -0.6280
  709MOL0     C95646   0.172   6.641   2.307  0.2012  0.7821  0.1799
  709MOL0     C95647   0.235   6.499   2.291 -0.5144 -1.1452  0.4091
  709MOL0     H95648   0.467   6.517   2.008  0.1548 -1.1271 -0.6659
  709MOL0     H95649   0.603   6.505   1.796 -0.2909 -1.0135  0.8928
  709MOL0     H95650   0.747   6.526   1.614  0.2540 -1.9289 -4.9093
  709MOL0     H95651   0.601   6.589   1.547  1.1991 -4.6821 -0.8908
  709MOL0     H95652   0.727   6.575   1.386 -0.3831  0.7489 -1.3326
  709MOL0     H95653   0.882   6.633   1.451  0.5718  1.3272 -1.4108
  709MOL0     H95654   0.770   6.863   1.482  1.2653  0.7816 -0.0220
  709MOL0     H95655   0.659   6.818   1.360  0.3559 -1.8423 -0.9726
  709MOL0     H95656   0.976   6.845   1.321  0.9285  1.8799 -2.8419
  709MOL0     H95657   0.870   6.745   1.216 -0.4947  1.9453 -1.5597
  709MOL0     H95658   0.901   6.979   1.119  0.8013  0.0772  1.5058
  709MOL0     H95659   0.737   6.910   1.159 -1.9889 -0.3623  3.7791
  709MOL0     H95660   0.759   7.062   1.369  1.1304  0.2980  1.4474
  709MOL0     H95661   0.904   7.123   1.305  0.6858 -0.6385 -0.4463
  709MOL0     H95662   0.674   7.240   1.222 -1.3725  0.1922 -2.1643
  709MOL0     H95663   0.705   7.138   1.084  3.5059  0.7640 -2.3142
  709MOL0     H95664   0.792   7.353   1.049 -0.0983 -1.7885 -2.5858
  709MOL0     H95665   0.881   7.357   1.199  2.4213  1.0567 -0.3579
  709MOL0     H95666   1.145   7.293   1.140  3.9750  2.7587 -3.6653
  709MOL0     H95667   1.343   7.137   0.880 -1.0310 -2.7421 -0.7094
  709MOL0     H95668   1.343   7.184   1.052  0.2256  0.0954  0.6000
  709MOL0     H95669   1.266   6.923   0.920 -0.6597 -0.0390  0.6610
  709MOL0     H95670   1.410   6.945   1.020  0.5915  1.2554 -1.6470
  709MOL0     H95671   1.117   6.931   1.111  0.4967 -0.4792 -1.3950
  709MOL0     H95672   1.238   7.016   1.205  4.0239 -1.0742  1.2788
  709MOL0     H95673   1.213   6.801   1.294 -1.6077  3.0124 -1.1317
  709MOL0     H95674   1.372   6.819   1.233 -0.2980  1.4190 -0.9658
  709MOL0     H95675   1.514   6.768   1.098  1.9899 -0.2474 -0.4931
  709MOL0     H95676   1.700   6.649   0.977 -1.3628  3.0497 -1.3951
  709MOL0     H95677   1.683   6.148   0.736  0.9148 -0.7880  0.3673
  709MOL0     H95678   1.859   6.019   0.607  1.5379 -0.4685  0.3943
  709MOL0     H95679   2.174   6.225   0.491  0.9828 -0.7800  1.1946
  709MOL0     H95680   2.134   6.093   0.593  1.7804  2.4180  0.1736
  709MOL0     H95681   2.326   6.017   0.456  0.2536  0.7876 -0.4755
  709MOL0     H95682   2.186   5.927   0.411 -0.7644  0.3388 -1.8092
  709MOL0     H95683   2.145   6.081   0.214 -0.6406  1.8843  2.1568
  709MOL0     H95684   2.292   6.169   0.260 -0.7355  1.0698 -1.5821
  709MOL0     H95685   2.249   5.880   0.165  1.8056 -1.3916 -0.0060
  709MOL0     H95686   2.406   5.919   0.245 -0.3073  3.6260  3.1420
  709MOL0     H95687   2.406   5.910   0.005 -0.6205 -0.6164  0.1677
  709MOL0     H95688   2.446   6.076   0.072  0.7281 -1.5159  4.4169
  709MOL0     H95689   2.189   5.998  -0.060 -0.8806  1.0340 -2.9113
  709MOL0     H95690   2.230   6.169  -0.019 -2.1346 -0.9361 -0.9420
  709MOL0     H95691   2.259   6.116  -0.255 -0.7202  3.5206  1.5047
  709MOL0     H95692   2.386   6.004  -0.216 -1.7973 -1.1153  1.1854
  709MOL0     H95693   2.510   6.183  -0.107  0.8146 -2.3125 -0.5533
  709MOL0     H95694   2.485   6.210  -0.279  0.7831 -1.1006  0.5428
  709MOL0     H95695   1.940   6.350   0.358 -1.1999  1.8074 -0.3567
  709MOL0     H95696   1.755   6.489   0.486  0.2866  0.6894 -1.2001
  709MOL0     H95697   1.414   6.378   0.812  1.7548  0.7343 -1.5523
  709MOL0     H95698   1.228   6.479   0.965 -0.3582  0.4533 -1.1540
  709MOL0     H95699   0.654   6.937   1.805  3.2303 -1.6978 -2.3256
  709MOL0     H95700   0.530   6.948   2.024  0.5561  0.3191  0.5331
  709MOL0     H95701   0.093   6.939   2.151  2.5452  0.0511  0.3976
  709MOL0     H95702  -0.071   6.958   2.341  0.6754  0.4875 -1.7898
  709MOL0     H95703  -0.038   6.807   2.715  0.3405  0.4644 -0.3685
  709MOL0     H95704   0.022   6.656   2.656 -0.4766  0.4016 -1.8087
  709MOL0     H95705  -0.187   6.568   2.635  1.6434 -1.0967  1.2333
  709MOL0     H95706  -0.268   6.706   2.725 -1.4478 -1.2764  1.1234
  709MOL0     H95707  -0.075   6.639   2.907 -2.2079 -1.2504  2.9409
  709MOL0     H95708  -0.094   6.486   2.815 -0.0529 -0.4547 -0.9318
  709MOL0     H95709  -0.220   6.497   3.021 -2.6312 -0.8821  0.2874
  709MOL0     H95710  -0.296   6.641   2.970 -2.6392 -1.9715  1.1007
  709MOL0     H95711  -0.519   6.346   2.744 -0.4618 -2.9127  2.3161
  709MOL0     H95712   0.058   6.564   2.459  2.2355 -1.9281 -2.3451
  709MOL0     H95713   0.155   6.433   2.256  1.6264 -2.4179 -2.4876
  709MOL0     H95714   0.309   6.505   2.210 -0.4686  1.1734  0.5397
  709MOL0     H95715   0.280   6.454   2.379  3.0907 -1.2940 -1.3409
  710MOL0     O95716   0.407   7.857   4.550  0.3528  0.7645 -1.1337
  710MOL0     C95717   0.335   7.796   4.472 -0.4580  0.1416  0.0310
  710MOL0     O95718   0.363   7.778   4.339 -0.8383  0.2317  0.0314
  710MOL0     C95719   0.468   7.818   4.262  0.3803  0.8182 -0.5127
  710MOL0     C95720   0.566   7.912   4.306 -0.1234  0.1015  0.1483
  710MOL0     C95721   0.672   7.938   4.219 -0.8457 -1.0246 -0.0251
  710MOL0     C95722   0.687   7.872   4.096 -0.4171  0.0348 -0.9108
  710MOL0     O95723   0.799   7.896   4.016  0.4281 -0.0474 -0.3635
  710MOL0     C95724   0.928   7.882   4.075  0.0631 -0.8702  0.2554
  710MOL0     C95725   1.031   7.859   3.958 -0.4913  0.0321 -0.6164
  710MOL0     C95726   1.172   7.841   4.023 -0.2880  0.1612 -0.2860
  710MOL0     C95727   1.259   7.797   3.904 -0.0373 -0.3366  0.2352
  710MOL0     C95728   1.411   7.806   3.929 -0.0710 -1.0703 -0.0165
  710MOL0     C95729   1.478   7.943   3.944  0.9744  0.8856  0.3130
  710MOL0     C95730   1.628   7.936   3.983  0.8087 -0.2388 -0.6094
  710MOL0     C95731   1.726   7.991   3.881 -0.2347  0.1347  0.3173
  710MOL0     N95732   1.731   7.901   3.763  0.1281  0.2917 -0.0320
  710MOL0     C95733   1.820   7.800   3.737  0.8113 -0.3090  0.0951
  710MOL0     C95734   1.780   7.735   3.626  0.0861 -0.4377  0.3691
  710MOL0     C95735   1.838   7.591   3.600  0.5265  0.1828 -0.6171
  710MOL0     C95736   1.847   7.552   3.458  0.6622  0.1740 -0.6710
  710MOL0     C95737   1.890   7.407   3.435  0.5836 -0.1495  0.8287
  710MOL0     C95738   2.043   7.405   3.435  0.3034 -0.6330  0.3435
  710MOL0     O95739   2.096   7.489   3.325 -0.9347  0.2485 -0.2821
  710MOL0     C95740   2.236   7.498   3.336  1.0399 -0.5109 -0.2021
  710MOL0     C95741   2.312   7.440   3.430  0.0255  0.6634 -0.7649
  710MOL0     C95742   2.445   7.461   3.448 -0.5759 -0.2924  0.2048
  710MOL0     C95743   2.516   7.554   3.373  0.0581  0.4130  0.6927
  710MOL0     C95744   2.656   7.592   3.386 -0.4747  0.1099  0.1760
  710MOL0     O95745   2.697   7.700   3.301  0.5973 -0.3151  0.6686
  710MOL0     C95746   2.830   7.740   3.316  0.0721  0.5273 -0.1405
  710MOL0     C95747   2.866   7.837   3.409 -0.8338  0.2556 -0.4671
  710MOL0     C95748   3.000   7.879   3.430 -0.2018  0.0586  0.0125
  710MOL0     C95749   3.098   7.817   3.354 -1.0211  0.2829  0.5353
  710MOL0     O95750   3.236   7.844   3.353  0.3623  0.2965  0.4420
  710MOL0     C95751   3.284   7.885   3.484  0.4986 -0.1557 -0.2149
  710MOL0     C95752   3.430   7.850   3.511 -0.0521  0.5208 -0.4784
  710MOL0     C95753   3.519   7.935   3.418 -1.1573 -0.0161 -0.1795
  710MOL0     C95754   3.659   7.888   3.447 -0.6163  0.0758 -0.7931
  710MOL0     C95755   3.765   7.966   3.376 -0.0672  0.5945 -0.3674
  710MOL0     C95756   3.915   7.927   3.418  0.0987  0.5245  0.1677
  710MOL0     C95757   3.942   7.784   3.465 -0.2442 -0.3122 -0.0593
  710MOL0     C95758   4.092   7.740   3.451  0.1355 -0.1434 -0.1216
  710MOL0    Cl95759   4.218   7.835   3.542  0.2032  0.0909 -0.0223
  710MOL0     C95760   3.056   7.720   3.250  0.2114 -0.3477  0.0995
  710MOL0     C95761   2.924   7.680   3.238  0.2429  0.1677  0.4814
  710MOL0     O95762   2.731   7.519   3.446  0.3486 -0.0911 -0.6426
  710MOL0     C95763   2.429   7.633   3.286 -0.4739 -0.6837 -0.5369
  710MOL0     C95764   2.293   7.606   3.275  0.6453  0.3904  0.6328
  710MOL0     N95765   1.678   7.813   3.572 -1.1803  0.2349  0.6126
  710MOL0     N95766   1.658   7.915   3.650 -0.4721 -0.6951  0.4058
  710MOL0     C95767   0.587   7.784   4.057 -0.9961  0.8354 -0.0251
  710MOL0     C95768   0.480   7.755   4.136 -0.5072  0.0812 -0.8494
  710MOL0     C95769   0.213   7.735   4.514  0.4941 -0.2669 -0.1844
  710MOL0     C95770   0.146   7.635   4.437  0.0013  0.8749 -0.7027
  710MOL0     C95771   0.024   7.585   4.476  0.5022 -0.8477 -0.4627
  710MOL0     C95772  -0.031   7.621   4.599 -0.5564  0.3423  0.4903
  710MOL0     O95773  -0.150   7.576   4.639 -0.3538  0.7777  0.4970
  710MOL0     C95774  -0.200   7.604   4.771  0.6429 -0.3289 -0.5359
  710MOL0     C95775  -0.276   7.736   4.788 -0.3916 -0.2040  0.0508
  710MOL0     C95776  -0.328   7.754   4.933  0.8551  0.4571 -0.7833
  710MOL0     C95777  -0.224   7.743   5.050 -0.0792  0.6520  0.5649
  710MOL0     C95778  -0.115   7.841   5.037  0.2408  0.1581  0.1092
  710MOL0     C95779  -0.030   7.921   5.021 -0.4396 -0.8361 -0.5278
  710MOL0     C95780   0.030   7.727   4.670  0.0299 -0.6952  1.0731
  710MOL0     C95781   0.148   7.786   4.628  0.0773  0.1423 -0.1883
  710MOL0     C95782   0.194   7.902   4.715  0.3844 -0.3967 -0.9500
  710MOL0     H95783   0.549   7.970   4.396 -2.2691  0.2283 -0.2770
  710MOL0     H95784   0.744   8.010   4.257 -0.0101 -0.7217 -2.0460
  710MOL0     H95785   0.946   7.974   4.130 -2.2829 -0.0539 -0.2102
  710MOL0     H95786   0.934   7.797   4.143 -0.5021 -0.1998  1.1592
  710MOL0     H95787   1.033   7.944   3.888 -3.5452  0.3198 -0.4617
  710MOL0     H95788   1.000   7.768   3.906 -0.8289 -0.2222  0.0206
  710MOL0     H95789   1.180   7.762   4.098 -0.0733 -2.3469 -2.7842
  710MOL0     H95790   1.197   7.938   4.065 -3.2536 -0.8668  4.6367
  710MOL0     H95791   1.223   7.700   3.866  0.7955 -0.9282  0.9211
  710MOL0     H95792   1.235   7.875   3.832  0.3813 -0.4126  0.0129
  710MOL0     H95793   1.446   7.752   4.018  0.2504 -0.0213  0.5164
  710MOL0     H95794   1.451   7.749   3.844 -0.1459 -1.6615  0.3388
  710MOL0     H95795   1.457   7.994   3.849  2.0227  0.5648 -0.0989
  710MOL0     H95796   1.419   7.996   4.020  1.3695  1.3236  0.3211
  710MOL0     H95797   1.667   7.838   4.014  1.9557  0.3970  0.0595
  710MOL0     H95798   1.630   8.002   4.071 -1.6773 -0.3720 -0.3802
  710MOL0     H95799   1.689   8.083   3.836 -3.1640 -2.1916 -2.5079
  710MOL0     H95800   1.816   8.019   3.937 -1.4989 -0.2728  2.7095
  710MOL0     H95801   1.905   7.774   3.799  0.5530 -0.5328  0.3543
  710MOL0     H95802   1.939   7.594   3.641 -0.6206  0.6570  2.4429
  710MOL0     H95803   1.781   7.527   3.669  1.2629 -1.4974 -1.5017
  710MOL0     H95804   1.744   7.555   3.420 -0.7065  4.6360  2.5078
  710MOL0     H95805   1.899   7.623   3.394 -2.9108  0.8025 -3.1710
  710MOL0     H95806   1.862   7.383   3.332 -2.4360  1.8985  1.0839
  710MOL0     H95807   1.845   7.334   3.502  0.3280  1.1465  2.1153
  710MOL0     H95808   2.083   7.304   3.434 -1.2940 -1.3124 -1.5466
  710MOL0     H95809   2.071   7.437   3.535  1.7449 -0.9876  0.0699
  710MOL0     H95810   2.282   7.358   3.496 -1.6790  1.8694  0.0292
  710MOL0     H95811   2.504   7.412   3.524  2.8688  0.1340 -1.9632
  710MOL0     H95812   2.789   7.885   3.469 -0.1693 -2.4997  2.9472
  710MOL0     H95813   3.028   7.957   3.500 -3.2053 -0.6043  2.1423
  710MOL0     H95814   3.256   7.989   3.503 -1.3499 -1.1416  3.6816
  710MOL0     H95815   3.229   7.819   3.552 -1.4072  1.1433 -0.4264
  710MOL0     H95816   3.445   7.882   3.614  1.0880  3.0874 -1.3506
  710MOL0     H95817   3.459   7.745   3.506  2.6708  1.0488  1.9154
  710MOL0     H95818   3.498   7.923   3.311  3.4494  2.3468 -1.5928
  710MOL0     H95819   3.510   8.042   3.436  3.0459  0.5799 -0.5878
  710MOL0     H95820   3.667   7.782   3.423  0.2689 -0.9251  3.1472
  710MOL0     H95821   3.666   7.892   3.556  1.5219 -0.1500 -0.8783
  710MOL0     H95822   3.760   8.073   3.399 -0.3209  0.6272 -0.5692
  710MOL0     H95823   3.757   7.950   3.268 -2.4920 -0.1184 -0.1404
  710MOL0     H95824   3.976   7.939   3.328  1.8247 -0.3852  1.1532
  710MOL0     H95825   3.945   7.999   3.494  0.3216  0.7151 -0.0986
  710MOL0     H95826   3.888   7.710   3.404  1.4552 -3.9151  2.3980
  710MOL0     H95827   3.909   7.785   3.569 -0.3386  2.4516 -0.0452
  710MOL0     H95828   4.087   7.645   3.505 -1.2333 -1.0507 -1.7500
  710MOL0     H95829   4.120   7.700   3.353  3.7120 -0.0699  0.7516
  710MOL0     H95830   3.133   7.681   3.185 -0.3517 -1.8485  0.3051
  710MOL0     H95831   2.899   7.595   3.175  0.1799 -1.1530  2.2334
  710MOL0     H95832   2.472   7.712   3.225  0.6622 -1.2831 -0.5403
  710MOL0     H95833   2.227   7.674   3.222  2.8143 -0.7050 -3.9408
  710MOL0     H95834   0.592   7.728   3.964  0.5034  0.8807  0.0047
  710MOL0     H95835   0.409   7.680   4.103  4.1315 -3.7794 -3.4080
  710MOL0     H95836   0.189   7.601   4.343  0.8720  1.2190 -0.4406
  710MOL0     H95837  -0.023   7.509   4.415  1.7608 -2.6364  0.7005
  710MOL0     H95838  -0.121   7.598   4.846 -2.3866  0.8825  3.0004
  710MOL0     H95839  -0.273   7.525   4.792  1.5311 -0.3381  2.9776
  710MOL0     H95840  -0.360   7.739   4.718 -1.6923 -0.3758  1.5673
  710MOL0     H95841  -0.209   7.821   4.769  0.8521 -0.8611  1.3526
  710MOL0     H95842  -0.388   7.665   4.953 -1.1402  1.9687  0.3689
  710MOL0     H95843  -0.394   7.840   4.947 -1.0149 -0.6234 -2.4626
  710MOL0     H95844  -0.277   7.753   5.145 -0.0847  0.7694  0.5503
  710MOL0     H95845  -0.177   7.645   5.048  0.3560  0.8701 -0.3598
  710MOL0     H95846   0.052   7.987   5.001 -0.5616 -0.0008  1.4684
  710MOL0     H95847  -0.009   7.768   4.762  0.6909 -0.8259  1.4190
  710MOL0     H95848   0.207   7.995   4.658  0.6853  0.0159 -0.2249
  710MOL0     H95849   0.118   7.924   4.790 -1.0132 -2.3987 -1.7083
  710MOL0     H95850   0.281   7.871   4.773 -1.0665 -3.2925 -0.1615
  711MOL0     O95851   7.050   5.789   5.688 -0.0424 -0.0189 -0.1110
  711MOL0     C95852   7.046   5.798   5.560  1.3493  0.8115 -0.9167
  711MOL0     O95853   7.015   5.691   5.481 -0.2515  0.1479 -0.2909
  711MOL0     C95854   6.975   5.571   5.532  0.1152  0.5849 -0.4248
  711MOL0     C95855   7.057   5.456   5.528 -0.4850  0.4491  0.3283
  711MOL0     C95856   7.002   5.333   5.556  0.0311  0.3768 -0.5343
  711MOL0     C95857   6.871   5.321   5.618 -0.0901  0.4404 -0.6791
  711MOL0     O95858   6.831   5.199   5.664  0.5767  0.2480  0.4675
  711MOL0     C95859   6.787   5.188   5.804  0.3678 -0.7558  1.0682
  711MOL0     C95860   6.642   5.151   5.785  0.1876  0.1860  1.2017
  711MOL0     C95861   6.564   5.173   5.914 -0.2445  0.2541 -1.3034
  711MOL0     C95862   6.584   5.072   6.028 -1.0812  1.1630  0.2804
  711MOL0     C95863   6.513   5.116   6.158  0.0850  0.3595  0.0463
  711MOL0     C95864   6.365   5.107   6.148 -0.2323 -0.5580  0.0909
  711MOL0     C95865   6.308   4.962   6.145  0.3431 -0.0162 -0.2740
  711MOL0     C95866   6.366   4.860   6.247  0.3545 -0.6093  0.8010
  711MOL0     N95867   6.301   4.877   6.375  0.8375 -0.6370  0.1547
  711MOL0     C95868   6.325   4.968   6.470  0.0142 -0.4135 -0.3479
  711MOL0     C95869   6.252   4.942   6.575  0.1653  0.4453 -0.3949
  711MOL0     C95870   6.257   5.017   6.706 -0.1146  0.0424  0.9643
  711MOL0     C95871   6.134   4.989   6.802 -0.7786 -0.3471  0.4787
  711MOL0     C95872   6.018   5.076   6.798  0.0751 -1.3359  0.2763
  711MOL0     C95873   5.908   5.018   6.889  0.1444 -0.3215 -0.3507
  711MOL0     O95874   5.789   5.103   6.880 -0.9914  0.1753 -0.0828
  711MOL0     C95875   5.678   5.065   6.948  1.0277  0.0364  0.1697
  711MOL0     C95876   5.572   5.029   6.865  0.4190  0.5580 -0.0970
  711MOL0     C95877   5.436   5.017   6.919 -0.6153  1.0444 -0.3046
  711MOL0     C95878   5.415   5.052   7.049 -0.3250 -0.2755  0.4279
  711MOL0     C95879   5.286   5.027   7.115  0.0351 -0.1221 -0.0396
  711MOL0     O95880   5.286   5.036   7.255  0.1467  0.9083 -0.1364
  711MOL0     C95881   5.179   5.012   7.334 -0.1455  0.3044  0.3004
  711MOL0     C95882   5.084   4.903   7.336  0.3349  0.5496  0.1807
  711MOL0     C95883   5.004   4.888   7.438  0.1346  0.5382 -0.7910
  711MOL0     C95884   4.989   4.983   7.538 -0.9303  0.2925 -0.6380
  711MOL0     O95885   4.871   4.969   7.607  0.7061 -0.2479  0.8277
  711MOL0     C95886   4.874   4.999   7.747 -0.2599 -0.0234  0.2951
  711MOL0     C95887   4.750   4.948   7.821  0.2295  0.1012 -0.2488
  711MOL0     C95888   4.622   5.004   7.770  0.2310 -0.5413 -1.3000
  711MOL0     C95889   4.498   4.940   7.841 -0.7739 -0.2370 -0.0859
  711MOL0     C95890   4.361   4.995   7.782 -0.3916  0.7122  0.7266
  711MOL0     C95891   4.233   4.920   7.836  0.6506  0.7185  0.5263
  711MOL0     C95892   4.113   5.006   7.794  0.7784 -0.5508  0.7178
  711MOL0     C95893   3.997   4.960   7.876 -0.2223 -0.7127  0.1908
  711MOL0    Cl95894   3.870   5.091   7.852 -0.0142 -0.4289 -0.1336
  711MOL0     C95895   5.080   5.092   7.544  0.2871  0.2999 -0.8486
  711MOL0     C95896   5.176   5.098   7.442  0.4967 -0.9570  0.1530
  711MOL0     O95897   5.188   5.001   7.046  0.4790 -0.2474 -0.5671
  711MOL0     C95898   5.521   5.110   7.123 -0.0077  0.5076 -0.0643
  711MOL0     C95899   5.651   5.106   7.083 -0.3764  0.5490  0.2444
  711MOL0     N95900   6.178   4.831   6.537  0.5559 -0.0051 -0.4301
  711MOL0     N95901   6.210   4.789   6.425  0.4064  0.0495  1.4114
  711MOL0     C95902   6.796   5.440   5.636 -0.1721  0.0061  1.1116
  711MOL0     C95903   6.848   5.560   5.584  0.1970  0.0605 -1.4961
  711MOL0     C95904   7.104   5.918   5.504  0.5360 -0.0770 -0.2326
  711MOL0     C95905   7.167   5.916   5.386  0.8434  0.0512  0.2626
  711MOL0     C95906   7.233   6.024   5.331  0.4454  0.4059  0.0047
  711MOL0     C95907   7.259   6.137   5.397 -0.1632 -1.2792 -0.4267
  711MOL0     O95908   7.313   6.250   5.337  0.1726  0.3607  0.1828
  711MOL0     C95909   7.440   6.241   5.277 -0.8956 -0.4686 -0.3334
  711MOL0     C95910   7.465   6.391   5.223  1.4187  0.3406 -0.2935
  711MOL0     C95911   7.610   6.398   5.172  1.2032  0.4279 -0.4997
  711MOL0     C95912   7.646   6.546   5.144 -0.3888  0.3800  0.1468
  711MOL0     C95913   7.561   6.608   5.034  0.1338 -0.3279 -0.1664
  711MOL0     C95914   7.496   6.642   4.940 -0.3891 -0.0586 -0.0474
  711MOL0     C95915   7.193   6.147   5.517  0.1819 -0.2016 -0.0854
  711MOL0     C95916   7.106   6.044   5.571  0.1198  0.2026  0.3417
  711MOL0     C95917   7.015   6.071   5.687  0.2453 -1.0604 -0.2348
  711MOL0     H95918   7.161   5.483   5.513 -0.1492 -0.2282  1.3422
  711MOL0     H95919   7.065   5.248   5.532 -2.1226 -1.1540 -1.0356
  711MOL0     H95920   6.844   5.105   5.848  4.8281  1.1330 -0.6351
  711MOL0     H95921   6.783   5.281   5.860 -1.9276 -0.0733 -0.0977
  711MOL0     H95922   6.636   5.044   5.762  1.0753  0.6102 -1.3727
  711MOL0     H95923   6.597   5.201   5.698  2.7846  1.0378  0.2552
  711MOL0     H95924   6.458   5.164   5.888 -0.9838  2.2817  0.6516
  711MOL0     H95925   6.591   5.273   5.950  0.0012 -1.4047  3.9990
  711MOL0     H95926   6.545   4.981   5.982  0.5949  0.6974 -0.2756
  711MOL0     H95927   6.692   5.066   6.041 -1.0639  0.0842 -0.2342
  711MOL0     H95928   6.544   5.053   6.243 -2.2704 -1.2809 -0.2283
  711MOL0     H95929   6.542   5.220   6.174  1.8991 -0.1460  0.3072
  711MOL0     H95930   6.324   5.171   6.226  1.7168  0.5689  0.2604
  711MOL0     H95931   6.321   5.152   6.059 -0.7590  3.5871  2.2195
  711MOL0     H95932   6.330   4.920   6.047  1.9843 -0.5431  0.2948
  711MOL0     H95933   6.199   4.955   6.157  0.6323 -4.4993  1.6471
  711MOL0     H95934   6.337   4.758   6.219  3.2044 -1.1631 -0.4532
  711MOL0     H95935   6.475   4.860   6.256  0.4198 -1.7182  0.2246
  711MOL0     H95936   6.401   5.044   6.473 -0.6996  0.3475 -0.9698
  711MOL0     H95937   6.342   4.978   6.761 -0.5499  1.3845  2.6503
  711MOL0     H95938   6.259   5.125   6.686  0.3430  0.1454  1.5638
  711MOL0     H95939   6.093   4.892   6.772 -0.1928 -0.2750 -0.6040
  711MOL0     H95940   6.176   4.975   6.902  1.8236  0.9043 -0.3521
  711MOL0     H95941   5.988   5.093   6.694  1.9449 -1.7757 -0.3675
  711MOL0     H95942   6.049   5.166   6.851  2.3633 -1.8516 -0.1094
  711MOL0     H95943   5.937   5.040   6.992 -1.3416 -0.6138  0.1495
  711MOL0     H95944   5.892   4.910   6.882 -1.3872 -0.1156 -0.2881
  711MOL0     H95945   5.605   5.010   6.763  1.9406  1.5744  0.1740
  711MOL0     H95946   5.358   4.972   6.859 -1.7654  1.0533  1.1331
  711MOL0     H95947   5.083   4.842   7.246 -1.5613  1.4285 -0.4624
  711MOL0     H95948   4.941   4.799   7.443 -0.9364  0.7416 -5.6590
  711MOL0     H95949   4.969   4.959   7.784  0.9052 -0.5640 -2.9865
  711MOL0     H95950   4.881   5.106   7.768 -2.4019  0.1909  0.1113
  711MOL0     H95951   4.749   4.840   7.804  2.4637  0.4070 -2.9898
  711MOL0     H95952   4.776   4.973   7.925 -1.6131  3.1766 -0.4193
  711MOL0     H95953   4.632   5.112   7.782  0.4921 -0.7246  0.4504
  711MOL0     H95954   4.609   4.980   7.664  2.8257 -3.6691 -1.0807
  711MOL0     H95955   4.509   4.973   7.945  0.1454 -0.9184  0.0483
  711MOL0     H95956   4.503   4.831   7.841 -1.2144 -0.2645  0.7007
  711MOL0     H95957   4.358   4.973   7.675 -1.3625  0.4810  0.7911
  711MOL0     H95958   4.363   5.102   7.805  2.4738  1.0865 -0.8814
  711MOL0     H95959   4.226   4.819   7.793 -0.2353  0.0867  2.0813
  711MOL0     H95960   4.231   4.915   7.945 -0.5649  1.3014  0.5516
  711MOL0     H95961   4.108   4.995   7.685 -0.5765  2.7818  0.2958
  711MOL0     H95962   4.142   5.111   7.807 -1.0866  0.1218 -0.1609
  711MOL0     H95963   3.962   4.860   7.850  2.4326 -1.2339 -1.8105
  711MOL0     H95964   4.025   4.964   7.981  1.4338 -0.2531 -0.2418
  711MOL0     H95965   5.050   5.163   7.620  0.9480 -2.6788  2.4932
  711MOL0     H95966   5.255   5.173   7.440  2.4585 -2.9063  0.6001
  711MOL0     H95967   5.502   5.149   7.223 -0.8890  1.4608 -0.5814
  711MOL0     H95968   5.734   5.143   7.142  0.5872  3.8465 -2.8157
  711MOL0     H95969   6.704   5.438   5.694  0.9414  3.2575  3.2710
  711MOL0     H95970   6.779   5.643   5.592  0.7714  0.6053 -2.1046
  711MOL0     H95971   7.171   5.826   5.326  3.1458 -0.0691  0.5123
  711MOL0     H95972   7.233   6.021   5.222 -1.6411 -0.7092 -0.0172
  711MOL0     H95973   7.451   6.161   5.203  1.2992 -0.6303  0.0786
  711MOL0     H95974   7.514   6.214   5.353 -0.5582  0.4087 -0.3386
  711MOL0     H95975   7.467   6.464   5.304 -1.3871 -0.6305  0.7857
  711MOL0     H95976   7.383   6.423   5.158 -1.0776 -1.2216  1.8749
  711MOL0     H95977   7.621   6.341   5.079  1.2385  0.3862 -0.4700
  711MOL0     H95978   7.670   6.354   5.252  0.4467 -0.4280 -0.3908
  711MOL0     H95979   7.637   6.608   5.234  0.6885  0.6274  0.0918
  711MOL0     H95980   7.750   6.549   5.112  1.1227  3.7181  4.4296
  711MOL0     H95981   7.434   6.659   4.855  1.9113  1.2441 -1.5320
  711MOL0     H95982   7.186   6.242   5.568  1.0482 -1.4359  2.5266
  711MOL0     H95983   7.036   6.167   5.736  0.5707  0.8137 -3.6838
  711MOL0     H95984   6.914   6.080   5.647  1.1190  1.0710 -2.1709
  711MOL0     H95985   7.017   5.993   5.764  0.3328 -0.8156  0.0146
  712MOL0     O95986   4.043  11.352   5.579 -0.6715  0.3492 -0.5751
  712MOL0     C95987   3.964  11.415   5.640 -1.1412 -0.3618 -0.8767
  712MOL0     O95988   4.002  11.528   5.712  0.0301 -0.5187 -0.1748
  712MOL0     C95989   4.135  11.551   5.737 -0.0300 -0.1044  0.3153
  712MOL0     C95990   4.230  11.573   5.635  0.1388  0.4272 -0.2175
  712MOL0     C95991   4.355  11.632   5.662  0.5730  0.3168 -0.2694
  712MOL0     C95992   4.397  11.659   5.799  0.8976  0.6413  0.1236
  712MOL0     O95993   4.516  11.724   5.830 -0.1586  0.6497  0.2496
  712MOL0     C95994   4.507  11.866   5.856 -0.0504  0.5063 -0.2998
  712MOL0     C95995   4.654  11.924   5.853  0.1176 -0.0708 -0.1140
  712MOL0     C95996   4.697  11.939   6.002  0.2453 -0.6792 -0.0889
  712MOL0     C95997   4.839  12.001   5.998  0.9126 -0.0541 -0.0920
  712MOL0     C95998   4.905  12.022   6.136 -0.8672 -0.5359  0.0720
  712MOL0     C95999   5.028  12.117   6.126 -0.5448 -0.8150  0.3277
  712MOL0     C96000   5.119  12.094   6.248  0.0521  0.0654 -0.3143
  712MOL0     C96001   5.229  12.202   6.267 -0.3449 -0.5539  0.7785
  712MOL0     N96002   5.172  12.334   6.237  0.0795 -0.9011 -0.2869
  712MOL0     C96003   5.063  12.410   6.278  0.1162  0.5525 -0.0583
  712MOL0     C96004   5.075  12.536   6.216  0.3574  0.7831  0.1279
  712MOL0     C96005   4.964  12.631   6.208  1.8920 -1.5545  0.8024
  712MOL0     C96006   4.879  12.605   6.078  0.8499  0.4989 -0.9956
  712MOL0     C96007   4.923  12.685   5.950 -0.6527 -0.9225  0.8415
  712MOL0     C96008   4.890  12.838   5.946  0.3899  0.1297  0.4338
  712MOL0     O96009   4.749  12.864   5.934  0.2995  0.2805  0.0026
  712MOL0     C96010   4.712  12.998   5.917 -0.1119  0.5288  0.6178
  712MOL0     C96011   4.795  13.100   5.868 -0.0469 -0.0436  0.7652
  712MOL0     C96012   4.740  13.225   5.834 -0.2622 -0.7848 -0.9241
  712MOL0     C96013   4.617  13.255   5.871  0.6183 -1.1218 -0.2333
  712MOL0     C96014   4.569  13.398   5.841  0.2195 -0.8801  0.0352
  712MOL0     O96015   4.612  13.472   5.732  0.2569  0.1991  0.8566
  712MOL0     C96016   4.530  13.585   5.719  0.8192  0.0668  0.1504
  712MOL0     C96017   4.586  13.710   5.770 -0.2991 -0.3624  0.6325
  712MOL0     C96018   4.496  13.824   5.763 -1.0697 -0.1537 -0.0088
  712MOL0     C96019   4.365  13.825   5.708  1.1269  0.5496 -0.0172
  712MOL0     O96020   4.298  13.943   5.723 -0.2626 -0.0069  0.3921
  712MOL0     C96021   4.159  13.937   5.741  0.2623  0.1162 -0.1110
  712MOL0     C96022   4.100  14.067   5.777 -0.1813  0.8248 -0.3241
  712MOL0     C96023   3.959  14.090   5.732 -0.6205 -0.7649 -0.8214
  712MOL0     C96024   3.849  13.990   5.763  1.0277 -0.2117  0.8951
  712MOL0     C96025   3.711  14.030   5.717  0.9441 -0.2426  1.5318
  712MOL0     C96026   3.601  13.924   5.728 -0.0554  0.1795  0.2233
  712MOL0     C96027   3.470  13.957   5.663 -1.1988  0.3331 -0.4261
  712MOL0     C96028   3.398  13.839   5.586 -0.1901 -0.1643 -0.6388
  712MOL0    Cl96029   3.489  13.779   5.451 -0.0450  0.0526 -0.0665
  712MOL0     C96030   4.313  13.699   5.663 -0.2310  0.4096 -0.3650
  712MOL0     C96031   4.401  13.589   5.665  0.0030  1.1481 -0.2852
  712MOL0     O96032   4.489  13.440   5.925 -0.3208 -0.1676 -0.2065
  712MOL0     C96033   4.539  13.156   5.938  0.1410  0.6060  0.6142
  712MOL0     C96034   4.582  13.030   5.958 -0.5417  0.5098 -0.3359
  712MOL0     N96035   5.191  12.530   6.145 -0.6742 -0.1329 -0.1336
  712MOL0     N96036   5.248  12.413   6.153  0.6182  0.0002 -0.0444
  712MOL0     C96037   4.301  11.644   5.896  1.2809  1.0656  0.2600
  712MOL0     C96038   4.181  11.592   5.869  0.4391  0.1885  0.6870
  712MOL0     C96039   3.818  11.388   5.614  0.5519 -0.5130  0.5363
  712MOL0     C96040   3.778  11.246   5.601  0.4986  0.6547 -0.3515
  712MOL0     C96041   3.644  11.217   5.567  0.1168 -0.3784  0.6457
  712MOL0     C96042   3.545  11.324   5.567  0.1204 -0.0958  1.5032
  712MOL0     O96043   3.420  11.277   5.541 -0.2428  0.5431 -0.7419
  712MOL0     C96044   3.306  11.361   5.555  0.3545 -0.5101 -1.2066
  712MOL0     C96045   3.177  11.284   5.616 -0.0589 -0.8078  0.8779
  712MOL0     C96046   3.148  11.154   5.529 -1.1198  0.7560  0.4062
  712MOL0     C96047   3.014  11.089   5.570 -0.2508  0.4052 -0.9382
  712MOL0     C96048   2.956  10.986   5.477  0.4347  0.2769 -0.0814
  712MOL0     C96049   2.886  10.905   5.428  0.3504 -0.4270 -0.6164
  712MOL0     C96050   3.589  11.459   5.581  0.9141  0.1772  0.3245
  712MOL0     C96051   3.727  11.495   5.596 -0.1328  0.8706 -0.3426
  712MOL0     C96052   3.761  11.635   5.589  0.2091  0.7106 -0.1991
  712MOL0     H96053   4.214  11.549   5.530 -0.0485 -1.7277  0.2526
  712MOL0     H96054   4.428  11.648   5.583 -0.0736 -0.5999 -1.0772
  712MOL0     H96055   4.427  11.912   5.797 -0.3196 -2.6039 -2.6381
  712MOL0     H96056   4.474  11.863   5.960  0.6905 -2.3571 -0.0512
  712MOL0     H96057   4.640  12.024   5.812 -2.1802 -0.6317 -0.8127
  712MOL0     H96058   4.725  11.866   5.793  0.2807 -0.7769  0.7284
  712MOL0     H96059   4.695  11.839   6.048 -0.0132 -0.8968 -0.5580
  712MOL0     H96060   4.629  11.999   6.063 -1.3365 -3.1377  0.7450
  712MOL0     H96061   4.906  11.953   5.926 -0.7373 -1.0673 -1.0000
  712MOL0     H96062   4.825  12.100   5.954  0.7973  0.1345  0.3642
  712MOL0     H96063   4.840  12.079   6.203 -0.8873 -3.1237  2.4249
  712MOL0     H96064   4.943  11.931   6.184  2.3782  0.6014 -0.0402
  712MOL0     H96065   5.087  12.105   6.034 -0.7364  1.0564 -0.0824
  712MOL0     H96066   4.979  12.215   6.121 -2.3484 -1.6808  0.0995
  712MOL0     H96067   5.175  12.002   6.228 -1.4846 -0.3873 -2.9324
  712MOL0     H96068   5.064  12.089   6.342  0.5156 -1.5958 -0.0945
  712MOL0     H96069   5.270  12.190   6.368 -3.3817 -0.6410  2.0990
  712MOL0     H96070   5.315  12.180   6.203  1.1394  2.7201  1.4340
  712MOL0     H96071   4.974  12.377   6.332  0.3244  0.3185  0.1449
  712MOL0     H96072   4.892  12.626   6.290  0.4682  1.5676 -0.1119
  712MOL0     H96073   4.993  12.736   6.216  1.9589 -1.4215 -0.8313
  712MOL0     H96074   4.882  12.500   6.048 -0.2668  0.1147  0.1352
  712MOL0     H96075   4.775  12.632   6.098  0.8115  0.1947 -0.7734
  712MOL0     H96076   4.858  12.643   5.872  1.1139 -0.6088 -0.8881
  712MOL0     H96077   5.029  12.661   5.936 -0.6267 -0.3517 -0.0574
  712MOL0     H96078   4.948  12.877   5.862 -0.7677 -1.5857 -1.2493
  712MOL0     H96079   4.929  12.878   6.040 -1.1808  1.2296  0.6468
  712MOL0     H96080   4.895  13.089   5.827 -0.1869  0.6509  0.2085
  712MOL0     H96081   4.812  13.293   5.790  0.9941  0.1188  2.3084
  712MOL0     H96082   4.691  13.705   5.797 -0.1568  0.6567  0.3405
  712MOL0     H96083   4.536  13.917   5.804 -2.2163 -1.0701  3.5727
  712MOL0     H96084   4.115  13.911   5.645  0.7588  1.1528 -0.6272
  712MOL0     H96085   4.125  13.859   5.810  0.9140 -1.3743 -1.4248
  712MOL0     H96086   4.097  14.081   5.885 -2.1971  3.5833 -0.6117
  712MOL0     H96087   4.159  14.151   5.740  1.8770 -0.2975  0.2622
  712MOL0     H96088   3.934  14.189   5.770 -0.0102 -1.3395  1.2225
  712MOL0     H96089   3.962  14.109   5.624 -2.4198 -2.4610 -1.2314
  712MOL0     H96090   3.847  13.967   5.870  0.6650  0.3465  1.0119
  712MOL0     H96091   3.869  13.895   5.712  0.7128 -1.7747  3.4932
  712MOL0     H96092   3.718  14.052   5.610  0.6892 -5.2108  0.2703
  712MOL0     H96093   3.675  14.110   5.782 -4.4355 -0.3597 -0.7907
  712MOL0     H96094   3.646  13.843   5.669  1.9866  2.0372 -0.9257
  712MOL0     H96095   3.578  13.891   5.830 -2.0013 -0.3740 -0.3441
  712MOL0     H96096   3.478  14.045   5.599  0.4416 -1.1534 -2.3994
  712MOL0     H96097   3.407  13.974   5.751  1.0605  1.8341  1.0123
  712MOL0     H96098   3.369  13.763   5.659  0.6879  0.8889  0.8645
  712MOL0     H96099   3.310  13.891   5.548  0.7533  1.1673 -1.1220
  712MOL0     H96100   4.211  13.696   5.626 -0.8194 -0.1693  1.2232
  712MOL0     H96101   4.352  13.495   5.640  2.2869 -0.7337  1.8173
  712MOL0     H96102   4.440  13.193   5.962  0.7611  1.0719  2.6404
  712MOL0     H96103   4.511  12.965   6.010 -2.1862  1.5545 -1.1977
  712MOL0     H96104   4.326  11.660   6.001  1.8349  1.2741  0.0958
  712MOL0     H96105   4.107  11.593   5.949 -0.0075  0.4886  0.2795
  712MOL0     H96106   3.851  11.168   5.621 -1.3505 -0.6440  1.9788
  712MOL0     H96107   3.626  11.113   5.541  0.5928 -1.8305  5.3120
  712MOL0     H96108   3.272  11.411   5.464 -4.4011  0.1087  0.6095
  712MOL0     H96109   3.331  11.436   5.630  2.4587 -0.6894 -1.6506
  712MOL0     H96110   3.089  11.348   5.614 -0.2071 -0.9655 -1.8676
  712MOL0     H96111   3.199  11.253   5.718  3.7938  1.3073  0.8583
  712MOL0     H96112   3.224  11.075   5.526 -0.8780  0.9933 -1.6009
  712MOL0     H96113   3.137  11.189   5.426  1.1041  0.7080  0.0959
  712MOL0     H96114   3.034  11.056   5.672  0.8668 -0.4874 -1.4110
  712MOL0     H96115   2.936  11.161   5.593 -0.4416 -0.5570  1.8626
  712MOL0     H96116   2.827  10.822   5.393 -1.3952  1.1273 -1.4747
  712MOL0     H96117   3.508  11.527   5.554  0.8735 -1.0313 -3.1023
  712MOL0     H96118   3.837  11.655   5.514  1.1806 -2.5424 -0.2330
  712MOL0     H96119   3.674  11.688   5.549 -0.6661  0.6117  1.4587
  712MOL0     H96120   3.797  11.688   5.677 -0.5902 -0.4289  0.8651
  713MOL0     O96121  10.898   1.251   5.434  0.0460  0.1310 -0.3077
  713MOL0     C96122  10.903   1.179   5.339 -0.2537  0.2795  0.7142
  713MOL0     O96123  11.017   1.118   5.289 -0.2850 -0.6656  1.2952
  713MOL0     C96124  11.139   1.163   5.326 -0.7081 -0.9609 -0.9334
  713MOL0     C96125  11.233   1.088   5.252 -0.2750 -0.5050  0.1932
  713MOL0     C96126  11.374   1.119   5.258 -0.4673  0.3302 -0.1611
  713MOL0     C96127  11.412   1.220   5.341  0.6355 -0.5665 -0.1662
  713MOL0     O96128  11.542   1.258   5.328  0.1098 -0.7735 -0.8649
  713MOL0     C96129  11.610   1.302   5.448  0.2908 -0.1945  1.3177
  713MOL0     C96130  11.760   1.307   5.412 -0.0920  1.0521 -0.0549
  713MOL0     C96131  11.822   1.173   5.383 -0.1416 -0.2459 -0.3514
  713MOL0     C96132  11.972   1.185   5.380  0.0539  0.5247 -0.2085
  713MOL0     C96133  12.041   1.043   5.386 -0.5682 -0.0992  0.0074
  713MOL0     C96134  12.192   1.064   5.354 -0.2668  0.9876  0.1037
  713MOL0     C96135  12.221   1.063   5.203 -0.0348 -0.1358 -0.4647
  713MOL0     C96136  12.362   1.009   5.184 -0.4232 -0.6500  0.3430
  713MOL0     N96137  12.412   1.025   5.046  0.0114  0.1504  0.1123
  713MOL0     C96138  12.340   1.027   4.935 -0.4689  0.6374  0.1312
  713MOL0     C96139  12.433   1.038   4.838  0.1703 -0.6612 -0.4517
  713MOL0     C96140  12.403   1.013   4.694  0.0805 -0.3704 -0.0114
  713MOL0     C96141  12.388   0.859   4.660 -0.0881 -0.2955 -0.9001
  713MOL0     C96142  12.384   0.824   4.509 -0.4495 -0.2464 -0.8171
  713MOL0     C96143  12.254   0.870   4.458  0.1904  0.1347 -0.3637
  713MOL0     O96144  12.168   0.757   4.453 -0.2481  0.5318  0.4110
  713MOL0     C96145  12.092   0.735   4.342 -0.2603 -0.1777 -0.4512
  713MOL0     C96146  11.986   0.824   4.300 -0.7227  0.1770 -0.4800
  713MOL0     C96147  11.907   0.802   4.184 -0.1577  0.3004 -0.0065
  713MOL0     C96148  11.936   0.692   4.105 -0.3603  0.0800  0.6513
  713MOL0     C96149  11.868   0.665   3.976  0.3911  0.5453  0.2606
  713MOL0     O96150  11.755   0.739   3.955  0.1874 -0.9291  0.0196
  713MOL0     C96151  11.684   0.708   3.847  0.8133  0.5027 -0.3985
  713MOL0     C96152  11.736   0.739   3.718 -0.8980  0.4569 -0.3063
  713MOL0     C96153  11.650   0.709   3.608 -0.0307  0.3421  0.2760
  713MOL0     C96154  11.518   0.660   3.619  0.0271  0.1782  0.5282
  713MOL0     O96155  11.432   0.660   3.511  0.1554  0.9399 -0.2495
  713MOL0     C96156  11.477   0.684   3.375 -0.2093  0.1145  0.4461
  713MOL0     C96157  11.379   0.638   3.275 -1.2096  0.4183 -0.0462
  713MOL0     C96158  11.244   0.714   3.277  0.0962 -0.1355  0.8496
  713MOL0     C96159  11.164   0.693   3.148 -0.0455  0.2034 -0.9662
  713MOL0     C96160  11.014   0.695   3.176 -0.6208  0.0777 -0.5714
  713MOL0     C96161  10.931   0.651   3.056  0.0118 -0.2431 -0.3844
  713MOL0     C96162  10.783   0.612   3.099 -0.1190 -0.6495 -0.9381
  713MOL0     C96163  10.701   0.552   2.988 -0.0882  0.7620  0.7120
  713MOL0    Cl96164  10.650   0.681   2.875  0.2761 -0.2195 -0.3733
  713MOL0     C96165  11.466   0.637   3.746 -0.2855  0.9770 -0.8768
  713MOL0     C96166  11.544   0.655   3.861  0.3481 -0.2417 -0.1993
  713MOL0     O96167  11.915   0.587   3.893  0.8369  0.1313 -0.1207
  713MOL0     C96168  12.043   0.606   4.143  0.9058  0.0100 -0.9999
  713MOL0     C96169  12.108   0.617   4.262  1.0095 -0.2368  1.0812
  713MOL0     N96170  12.558   1.054   4.888  0.3082  0.3591 -0.8068
  713MOL0     N96171  12.544   1.034   5.019 -0.1535  0.2461  0.8205
  713MOL0     C96172  11.325   1.280   5.428 -1.2031 -1.1604  0.5627
  713MOL0     C96173  11.187   1.265   5.416 -0.4418  0.0608  0.2267
  713MOL0     C96174  10.778   1.134   5.297  0.2069  0.5227  0.5407
  713MOL0     C96175  10.719   1.012   5.344 -0.2092 -0.2250 -1.2579
  713MOL0     C96176  10.585   0.975   5.312 -0.6171  0.0539  0.0732
  713MOL0     C96177  10.505   1.067   5.237  0.2648 -0.0289  0.0242
  713MOL0     O96178  10.366   1.039   5.215  0.5407 -0.9403 -0.2064
  713MOL0     C96179  10.296   0.941   5.288  0.0822  0.2537 -0.1033
  713MOL0     C96180  10.301   0.804   5.217  0.1186 -0.1800  0.3791
  713MOL0     C96181  10.195   0.709   5.270  0.6052  0.4814  0.1035
  713MOL0     C96182  10.203   0.589   5.169 -0.1021  0.1925 -0.3111
  713MOL0     C96183  10.087   0.504   5.191  0.5268  0.3953 -1.2357
  713MOL0     C96184   9.991   0.440   5.216 -0.7149  0.4090  0.2294
  713MOL0     C96185  10.565   1.185   5.184 -0.0141  0.3336  0.4238
  713MOL0     C96186  10.693   1.222   5.215  1.1531  0.6991 -0.7967
  713MOL0     C96187  10.753   1.345   5.159 -0.8686  0.4636 -0.1884
  713MOL0     H96188  11.206   1.026   5.167  1.0834  2.9443 -3.0239
  713MOL0     H96189  11.444   1.066   5.194  0.3153 -3.4051  3.3819
  713MOL0     H96190  11.585   1.408   5.463  1.5787  0.7053 -1.8734
  713MOL0     H96191  11.581   1.232   5.526 -2.2256 -0.5857  0.1416
  713MOL0     H96192  11.834   1.344   5.483  3.2051 -0.1974 -2.5751
  713MOL0     H96193  11.770   1.382   5.333 -2.4694  1.8707  0.3426
  713MOL0     H96194  11.797   1.119   5.291 -0.7769 -2.8836  1.2589
  713MOL0     H96195  11.779   1.110   5.461 -0.0103 -0.0625 -0.1291
  713MOL0     H96196  11.999   1.223   5.281  1.9635 -0.0211  0.0732
  713MOL0     H96197  12.013   1.250   5.458  1.8096 -1.1307  0.3225
  713MOL0     H96198  12.036   0.995   5.484  0.5768  2.1461  1.2568
  713MOL0     H96199  12.002   0.979   5.307  1.4548  0.3555 -1.4328
  713MOL0     H96200  12.230   1.157   5.397  0.1698  0.1969  1.5084
  713MOL0     H96201  12.253   0.981   5.391  1.9020  1.4383 -2.1171
  713MOL0     H96202  12.214   1.167   5.171  2.9361 -0.6092 -3.1131
  713MOL0     H96203  12.148   1.010   5.140 -4.1504  4.1786  0.1368
  713MOL0     H96204  12.441   1.054   5.244  0.0341 -0.6223 -0.2715
  713MOL0     H96205  12.360   0.907   5.224 -2.8221 -0.0772  1.8573
  713MOL0     H96206  12.235   1.009   4.916 -0.3989  0.3342  0.0212
  713MOL0     H96207  12.311   1.062   4.662 -0.3256 -0.4385  1.0083
  713MOL0     H96208  12.486   1.047   4.631  0.6264  0.0316  0.9009
  713MOL0     H96209  12.482   0.813   4.690 -0.4391  1.2143  3.2491
  713MOL0     H96210  12.311   0.805   4.717 -0.2107  0.0543 -0.7292
  713MOL0     H96211  12.402   0.717   4.497 -2.4993 -1.0642  2.2383
  713MOL0     H96212  12.467   0.877   4.461  1.2578 -0.2925  1.8996
  713MOL0     H96213  12.266   0.898   4.353 -0.1086  0.4599 -0.3139
  713MOL0     H96214  12.197   0.949   4.507  0.7912  0.4894 -0.2246
  713MOL0     H96215  11.948   0.903   4.363 -0.3744  0.5318 -0.7055
  713MOL0     H96216  11.839   0.885   4.170 -0.3050  0.6175  2.2498
  713MOL0     H96217  11.839   0.773   3.730 -0.5419 -1.2579  2.2835
  713MOL0     H96218  11.693   0.739   3.513  1.2835 -0.2087  0.6801
  713MOL0     H96219  11.487   0.792   3.365  0.9235 -0.0848 -0.9758
  713MOL0     H96220  11.573   0.635   3.357 -0.4390 -0.6217  1.1687
  713MOL0     H96221  11.420   0.655   3.174  2.3026 -0.3797  1.1010
  713MOL0     H96222  11.361   0.530   3.279  1.0004  0.0125  0.3673
  713MOL0     H96223  11.193   0.675   3.365  1.5428  0.8304  2.1700
  713MOL0     H96224  11.249   0.822   3.293  0.0001  0.4253 -2.3028
  713MOL0     H96225  11.183   0.592   3.109 -1.5149  1.0256 -4.1522
  713MOL0     H96226  11.204   0.762   3.074  2.1825  2.4269  2.0789
  713MOL0     H96227  10.986   0.796   3.210  1.1907  1.4912 -2.9950
  713MOL0     H96228  10.995   0.620   3.254 -1.0514  0.7716  0.0075
  713MOL0     H96229  10.917   0.736   2.988 -0.3518  3.4758  3.9041
  713MOL0     H96230  10.967   0.563   3.002 -3.9233 -2.5131  0.3020
  713MOL0     H96231  10.733   0.700   3.141 -0.7909 -0.4286 -2.1304
  713MOL0     H96232  10.786   0.540   3.181  0.8287  0.9532  0.5063
  713MOL0     H96233  10.767   0.482   2.935  0.5568  3.1473 -1.8533
  713MOL0     H96234  10.614   0.495   3.020  0.9936 -1.4728 -0.0870
  713MOL0     H96235  11.358   0.633   3.757 -0.4842  3.6138 -1.1553
  713MOL0     H96236  11.515   0.630   3.962  3.0368  1.1684  1.0139
  713MOL0     H96237  12.068   0.521   4.079 -0.2713 -2.7587  1.9148
  713MOL0     H96238  12.186   0.543   4.277  2.1003  0.3399 -1.1869
  713MOL0     H96239  11.348   1.360   5.497 -3.9298 -1.8410  2.4498
  713MOL0     H96240  11.121   1.320   5.482  0.7798  2.5689 -0.4700
  713MOL0     H96241  10.771   0.934   5.399  0.0601  1.9798  1.8559
  713MOL0     H96242  10.546   0.884   5.357 -0.5400 -2.0868 -3.7694
  713MOL0     H96243  10.188   0.961   5.288  0.6029  3.5811 -1.1367
  713MOL0     H96244  10.331   0.921   5.390 -0.4317  1.1535  0.2597
  713MOL0     H96245  10.402   0.760   5.219 -1.0524 -3.1315  0.3032
  713MOL0     H96246  10.271   0.824   5.114  1.1881 -0.3398  0.0230
  713MOL0     H96247  10.094   0.753   5.264 -0.4286 -1.6042  1.2115
  713MOL0     H96248  10.213   0.675   5.372  2.4291 -4.1437 -1.5353
  713MOL0     H96249  10.198   0.622   5.065 -0.8563 -2.3688 -1.1708
  713MOL0     H96250  10.292   0.526   5.181  1.0254  1.2388 -2.5749
  713MOL0     H96251   9.906   0.381   5.245 -0.3256 -0.5006 -0.4709
  713MOL0     H96252  10.503   1.253   5.126 -0.9862  0.5096  1.6281
  713MOL0     H96253  10.688   1.413   5.104  4.3678  1.5220 -6.3867
  713MOL0     H96254  10.804   1.405   5.235 -0.6452  2.3948 -1.7651
  713MOL0     H96255  10.829   1.328   5.082 -1.1352  1.8574 -0.7905
  714MOL0     O96256   2.034   7.899   4.390 -0.6003 -0.1763  0.7700
  714MOL0     C96257   2.043   7.861   4.505 -0.4831  0.2457  0.7294
  714MOL0     O96258   2.157   7.817   4.565 -0.1559  0.0330 -0.3184
  714MOL0     C96259   2.281   7.833   4.508  0.5897 -0.2655 -0.0382
  714MOL0     C96260   2.390   7.851   4.600  0.7782 -0.4849  0.2172
  714MOL0     C96261   2.517   7.854   4.554 -1.3854  0.3008  0.1946
  714MOL0     C96262   2.553   7.827   4.424 -0.3555 -0.5571  0.9226
  714MOL0     O96263   2.684   7.829   4.393  0.2102 -0.3961 -0.6159
  714MOL0     C96264   2.729   7.716   4.310 -0.0919 -0.0027 -0.0175
  714MOL0     C96265   2.857   7.761   4.254 -0.0032 -0.1535 -0.9599
  714MOL0     C96266   2.911   7.671   4.134  0.7425  0.8652  0.2404
  714MOL0     C96267   3.013   7.568   4.191  0.1534  0.4892  0.7916
  714MOL0     C96268   3.064   7.452   4.094  0.1423 -0.6677 -0.3048
  714MOL0     C96269   3.148   7.360   4.179  0.5563 -0.2045 -0.0565
  714MOL0     C96270   3.213   7.250   4.094 -0.3923 -1.0304 -0.8405
  714MOL0     C96271   3.137   7.114   4.119 -0.3104  0.9937  0.3656
  714MOL0     N96272   3.163   7.018   4.019 -0.5174  0.3775  1.2810
  714MOL0     C96273   3.282   6.955   3.991  0.0351 -0.1589 -0.5284
  714MOL0     C96274   3.254   6.856   3.904  0.4425  0.2314  0.4894
  714MOL0     C96275   3.350   6.750   3.860  1.1112  0.3683  0.1224
  714MOL0     C96276   3.285   6.657   3.759 -0.3362  1.7576 -0.0892
  714MOL0     C96277   3.390   6.553   3.707 -0.2154  0.0332  0.0020
  714MOL0     C96278   3.514   6.627   3.653  0.1354  0.1495 -0.2499
  714MOL0     O96279   3.591   6.548   3.573 -0.5222  0.4477  0.0196
  714MOL0     C96280   3.711   6.599   3.512  0.8073  0.2804  0.2129
  714MOL0     C96281   3.753   6.732   3.524  0.3062 -0.5403  0.0553
  714MOL0     C96282   3.857   6.772   3.444 -0.7884  0.0458 -0.5142
  714MOL0     C96283   3.931   6.678   3.378  0.1088 -0.1738 -1.1370
  714MOL0     C96284   4.056   6.715   3.318 -0.3208  0.9007 -0.8601
  714MOL0     O96285   4.126   6.611   3.254  0.4917 -0.5001  0.4852
  714MOL0     C96286   4.247   6.644   3.198  0.4277 -0.2233 -0.5898
  714MOL0     C96287   4.363   6.605   3.259  0.8638  0.6980  0.2357
  714MOL0     C96288   4.485   6.631   3.209  0.6434 -0.6299 -0.1867
  714MOL0     C96289   4.499   6.717   3.101  0.3315 -0.8061  0.7999
  714MOL0     O96290   4.634   6.755   3.073  0.1330 -1.1620  0.3644
  714MOL0     C96291   4.663   6.836   2.956 -0.0644  0.0722  0.0866
  714MOL0     C96292   4.758   6.753   2.872  0.6200  0.5077 -0.9191
  714MOL0     C96293   4.747   6.788   2.727 -0.6466  1.0618  0.7511
  714MOL0     C96294   4.841   6.710   2.630 -1.0127  0.0513  0.3275
  714MOL0     C96295   4.805   6.716   2.480  0.0211  0.0265  0.8873
  714MOL0     C96296   4.863   6.852   2.424 -0.2082 -0.6514  0.7623
  714MOL0     C96297   4.843   6.881   2.266 -0.0661 -0.5541 -0.0323
  714MOL0     C96298   4.940   6.980   2.204  0.0532  0.3899 -0.7411
  714MOL0    Cl96299   4.920   7.146   2.281 -0.4307 -0.2639  0.2678
  714MOL0     C96300   4.377   6.757   3.033 -0.2333 -0.5493 -0.0456
  714MOL0     C96301   4.256   6.718   3.080  1.1510  0.3317  0.0487
  714MOL0     O96302   4.115   6.818   3.344  0.0146 -0.4525 -0.3696
  714MOL0     C96303   3.888   6.546   3.369  0.1872  0.5932 -0.7399
  714MOL0     C96304   3.772   6.509   3.436 -0.8147 -0.0428  0.0750
  714MOL0     N96305   3.115   6.853   3.882 -0.2958  1.0637  0.3982
  714MOL0     N96306   3.065   6.956   3.945  0.5010 -0.0531 -0.1229
  714MOL0     C96307   2.452   7.821   4.335 -0.3564 -0.6403  0.5288
  714MOL0     C96308   2.311   7.827   4.371  0.0662 -0.1655  0.1314
  714MOL0     C96309   1.911   7.838   4.572  0.0804 -0.0843  0.5750
  714MOL0     C96310   1.912   7.818   4.709 -0.2762  0.0341 -0.8488
  714MOL0     C96311   1.795   7.805   4.775  0.3125 -0.5126 -0.3308
  714MOL0     C96312   1.670   7.805   4.712 -0.0866 -0.8370  0.1499
  714MOL0     O96313   1.561   7.807   4.798  0.1350 -0.4137  0.2376
  714MOL0     C96314   1.433   7.847   4.739  0.3105  0.7507  0.2330
  714MOL0     C96315   1.320   7.843   4.841 -0.6088 -0.4463  0.6175
  714MOL0     C96316   1.198   7.907   4.787  0.1636 -0.1098  0.6336
  714MOL0     C96317   1.088   7.908   4.905 -0.6521 -0.1723  0.5492
  714MOL0     C96318   1.041   7.768   4.943  0.1408  0.3326  0.5216
  714MOL0     C96319   0.990   7.654   4.956  0.3389  0.0001 -0.2132
  714MOL0     C96320   1.667   7.845   4.576  0.0900 -0.0042 -0.6588
  714MOL0     C96321   1.789   7.858   4.501  0.0277  0.1564 -0.5113
  714MOL0     C96322   1.769   7.873   4.355 -0.1449  0.5728  1.5023
  714MOL0     H96323   2.377   7.852   4.707  0.8259 -0.0186  0.2220
  714MOL0     H96324   2.606   7.864   4.614  0.5265 -0.6794 -2.3144
  714MOL0     H96325   2.737   7.622   4.365  1.2240 -0.5505 -1.0975
  714MOL0     H96326   2.662   7.688   4.228 -0.7904  1.1320  0.1418
  714MOL0     H96327   2.927   7.756   4.338  1.1493 -1.4574 -1.9444
  714MOL0     H96328   2.851   7.865   4.221  2.6194  0.1068 -0.8353
  714MOL0     H96329   2.946   7.730   4.049  0.1812  0.3676 -0.3448
  714MOL0     H96330   2.830   7.622   4.080  1.9266  1.4619 -2.1965
  714MOL0     H96331   3.101   7.626   4.219  1.3546 -1.2221  0.7072
  714MOL0     H96332   2.974   7.505   4.272  0.3452 -0.8065 -0.1048
  714MOL0     H96333   2.978   7.402   4.049 -0.3810  0.1762 -0.2789
  714MOL0     H96334   3.127   7.500   4.019  0.9326 -0.9389  0.1712
  714MOL0     H96335   3.227   7.425   4.217  2.0982  0.7889 -4.4455
  714MOL0     H96336   3.095   7.310   4.261 -2.1642 -0.1922 -1.6946
  714MOL0     H96337   3.318   7.252   4.126 -0.5946 -1.8868 -0.0716
  714MOL0     H96338   3.221   7.273   3.987  1.2098  1.1499 -0.3175
  714MOL0     H96339   3.165   7.068   4.214  1.7287  1.5036  0.0589
  714MOL0     H96340   3.030   7.139   4.117 -0.3724  0.9930 -3.4452
  714MOL0     H96341   3.376   6.982   4.040  0.0291 -0.5002 -0.3304
  714MOL0     H96342   3.434   6.804   3.814  3.5299 -2.2501  1.1853
  714MOL0     H96343   3.380   6.687   3.944 -0.5438  1.2580  1.4469
  714MOL0     H96344   3.203   6.613   3.816  1.0036 -0.6328  0.1683
  714MOL0     H96345   3.234   6.695   3.670 -0.9316 -1.2303 -1.1433
  714MOL0     H96346   3.351   6.490   3.627 -0.5155 -0.4972  0.5551
  714MOL0     H96347   3.411   6.478   3.783 -2.4895 -1.3145 -0.5981
  714MOL0     H96348   3.566   6.673   3.737 -4.3930  1.0435  2.3557
  714MOL0     H96349   3.477   6.709   3.591  0.7710  0.8982  0.3347
  714MOL0     H96350   3.696   6.814   3.566 -4.7277 -2.3981 -2.2737
  714MOL0     H96351   3.884   6.876   3.428  1.2567 -0.4525 -0.6957
  714MOL0     H96352   4.358   6.533   3.340 -1.6759  0.4399 -0.0659
  714MOL0     H96353   4.557   6.580   3.273 -0.6518 -1.9611  0.2502
  714MOL0     H96354   4.579   6.871   2.896 -0.7305 -0.3828  0.7484
  714MOL0     H96355   4.720   6.924   2.986  0.9194  0.1439 -1.7957
  714MOL0     H96356   4.862   6.768   2.901  0.2016 -1.2090  1.8929
  714MOL0     H96357   4.725   6.648   2.875 -0.2548  0.7945 -0.1962
  714MOL0     H96358   4.652   6.760   2.679 -0.0588  2.6973 -1.5532
  714MOL0     H96359   4.745   6.894   2.702 -0.0846  0.8693 -0.1862
  714MOL0     H96360   4.846   6.606   2.663  1.4632  0.1005  0.3503
  714MOL0     H96361   4.943   6.750   2.634 -0.1897 -1.5935 -1.8362
  714MOL0     H96362   4.696   6.718   2.473 -0.2619 -3.1264  2.7009
  714MOL0     H96363   4.843   6.632   2.421  2.2922 -0.4250  2.8326
  714MOL0     H96364   4.813   6.928   2.485 -0.4179 -2.3475  2.8211
  714MOL0     H96365   4.968   6.855   2.454 -0.3213  0.3133  1.1028
  714MOL0     H96366   4.743   6.920   2.246  0.5947 -0.2237 -3.2209
  714MOL0     H96367   4.856   6.784   2.217  1.2347 -1.0913  1.2907
  714MOL0     H96368   5.045   6.951   2.215  0.0468  0.5777 -0.1519
  714MOL0     H96369   4.919   7.007   2.100 -0.0689  0.0067 -0.8169
  714MOL0     H96370   4.372   6.838   2.961 -3.4127  0.7384  1.4755
  714MOL0     H96371   4.173   6.740   3.014  2.0130  1.0106 -0.8387
  714MOL0     H96372   3.941   6.478   3.302  1.6252  1.2006 -0.2582
  714MOL0     H96373   3.719   6.417   3.415 -0.8861  0.3062 -1.3843
  714MOL0     H96374   2.471   7.816   4.228 -0.0653 -0.2173  0.5596
  714MOL0     H96375   2.224   7.824   4.306 -0.5289  0.0259  0.9068
  714MOL0     H96376   2.005   7.822   4.765 -0.3297  2.4738 -0.8421
  714MOL0     H96377   1.782   7.796   4.882 -0.8717  0.3293 -0.3813
  714MOL0     H96378   1.407   7.773   4.663 -1.3332  0.4617  1.0265
  714MOL0     H96379   1.433   7.947   4.694 -1.5231  1.2797  1.2768
  714MOL0     H96380   1.348   7.903   4.927 -2.9267  0.4959  0.7798
  714MOL0     H96381   1.293   7.742   4.874 -2.2166 -0.8952 -1.7449
  714MOL0     H96382   1.160   7.851   4.701 -0.3787  3.8016 -1.9467
  714MOL0     H96383   1.219   8.011   4.760 -1.2754 -0.0725 -0.4731
  714MOL0     H96384   1.120   7.955   4.998 -0.4802  2.0087 -0.5561
  714MOL0     H96385   1.008   7.972   4.866 -0.7159 -0.1434  0.7265
  714MOL0     H96386   0.935   7.564   4.971 -1.7341  1.5703  2.7840
  714MOL0     H96387   1.576   7.845   4.517  0.6712 -0.1873 -1.5935
  714MOL0     H96388   1.809   7.969   4.319  0.0709 -0.7477 -2.1425
  714MOL0     H96389   1.817   7.804   4.285 -0.2055  0.7873  1.2437
  714MOL0     H96390   1.665   7.857   4.328  0.3152 -1.0456  0.5402
  715MOL0     O96391   7.066   9.831  11.019 -0.3335  0.1579 -0.4143
  715MOL0     C96392   6.985   9.826  11.114  0.1939 -0.0521 -0.0506
  715MOL0     O96393   7.014   9.853  11.247  0.1853  0.5200 -0.0884
  715MOL0     C96394   7.143   9.861  11.294 -0.5242 -0.0018 -0.7129
  715MOL0     C96395   7.223   9.966  11.258 -0.0035  0.5531  0.3734
  715MOL0     C96396   7.349   9.983  11.310 -1.0977  0.5758  0.8324
  715MOL0     C96397   7.408   9.887  11.389  0.9289  0.6937  0.1047
  715MOL0     O96398   7.532   9.914  11.450  0.8236  0.1273 -0.0216
  715MOL0     C96399   7.575   9.820  11.549 -0.8379  0.4546 -0.4433
  715MOL0     C96400   7.708   9.880  11.621 -0.0106  1.0260  0.4058
  715MOL0     C96401   7.808   9.771  11.661  0.3848 -0.2387  0.0380
  715MOL0     C96402   7.932   9.846  11.715  0.1541  1.0861  0.3852
  715MOL0     C96403   7.999   9.920  11.604  0.0229  0.4517 -0.2235
  715MOL0     C96404   8.154   9.916  11.625 -0.4997  0.0082 -0.3242
  715MOL0     C96405   8.189   9.982  11.764 -0.0891 -0.3663  0.0486
  715MOL0     C96406   8.319   9.937  11.822 -0.2523 -0.0075  0.1352
  715MOL0     N96407   8.436   9.985  11.741 -1.3989 -0.0341  0.2254
  715MOL0     C96408   8.510   9.910  11.652 -0.6463  0.0891 -0.0531
  715MOL0     C96409   8.613   9.990  11.605 -0.0203  0.5685  0.4302
  715MOL0     C96410   8.729   9.945  11.515 -0.6095 -0.8630 -0.2601
  715MOL0     C96411   8.867  10.002  11.551 -0.4076  0.7084 -0.1185
  715MOL0     C96412   8.979   9.936  11.468 -0.4482 -0.3509 -0.1945
  715MOL0     C96413   9.117   9.993  11.513 -0.5195 -0.2057  0.0642
  715MOL0     O96414   9.185   9.902  11.601 -0.2183  0.0359 -0.0736
  715MOL0     C96415   9.323   9.910  11.607 -0.6809  0.4974  0.4903
  715MOL0     C96416   9.389   9.794  11.579  0.0533  0.1878 -0.5074
  715MOL0     C96417   9.526   9.774  11.610 -0.5401  0.0922 -0.3500
  715MOL0     C96418   9.602   9.875  11.670 -0.4904  0.2334  0.6311
  715MOL0     C96419   9.745   9.866  11.710 -0.7155 -0.7552  0.6087
  715MOL0     O96420   9.817   9.769  11.647  0.0615  0.6512 -0.6820
  715MOL0     C96421   9.940   9.738  11.690  0.4426 -0.3866  0.2823
  715MOL0     C96422   9.967   9.627  11.773  0.2162  0.3580  0.3532
  715MOL0     C96423  10.093   9.599  11.817 -0.0892  0.1612  0.6902
  715MOL0     C96424  10.200   9.678  11.783 -0.1846  0.1427  0.1118
  715MOL0     O96425  10.326   9.646  11.824 -0.4886  0.4034  0.4212
  715MOL0     C96426  10.426   9.753  11.834  1.3142 -0.0848  0.6903
  715MOL0     C96427  10.539   9.697  11.913 -0.4733  0.4376  0.1887
  715MOL0     C96428  10.628   9.612  11.819  0.0555 -0.5258 -0.0870
  715MOL0     C96429  10.747   9.555  11.892  0.4484  0.0244  0.5323
  715MOL0     C96430  10.828   9.470  11.790 -0.1344 -1.4488 -0.2365
  715MOL0     C96431  10.975   9.446  11.821 -0.5647 -0.0136 -0.8130
  715MOL0     C96432  11.048   9.372  11.712  0.2504  1.6259 -0.0789
  715MOL0     C96433  11.195   9.403  11.734 -0.0568  0.2398  0.1999
  715MOL0    Cl96434  11.281   9.261  11.686 -0.5100  0.1581  0.1373
  715MOL0     C96435  10.179   9.795  11.696  0.1127  0.5303 -0.5021
  715MOL0     C96436  10.046   9.819  11.653  0.5693 -0.2943 -0.8194
  715MOL0     O96437   9.780   9.924  11.814  0.0889 -0.7399  0.7967
  715MOL0     C96438   9.536   9.995  11.693 -0.0714 -0.4673  0.4404
  715MOL0     C96439   9.398  10.013  11.663  0.2461  0.2578  0.3634
  715MOL0     N96440   8.606  10.104  11.675 -0.6121 -0.3644  0.2883
  715MOL0     N96441   8.497  10.107  11.752  0.0905  0.0762 -1.0655
  715MOL0     C96442   7.335   9.773  11.419  0.6442  0.2952  0.5282
  715MOL0     C96443   7.200   9.758  11.376 -0.2844 -0.2931  0.8490
  715MOL0     C96444   6.838   9.808  11.089 -0.2731  0.3696  0.5920
  715MOL0     C96445   6.758   9.753  11.192 -0.7841  0.1732 -0.5109
  715MOL0     C96446   6.622   9.740  11.181 -0.0166  0.5279 -0.0551
  715MOL0     C96447   6.556   9.785  11.068  0.0857  0.5025  0.5828
  715MOL0     O96448   6.421   9.782  11.042  0.0729 -0.2251 -0.7134
  715MOL0     C96449   6.341   9.746  11.159  0.2927 -0.0233 -0.9953
  715MOL0     C96450   6.214   9.795  11.112 -0.0957 -0.1431 -0.0175
  715MOL0     C96451   6.203   9.934  11.056 -0.8316  0.1544 -0.1938
  715MOL0     C96452   6.061   9.985  11.046  0.0275 -0.6656  0.9482
  715MOL0     C96453   6.057  10.129  11.060  0.2766 -0.9511 -0.2244
  715MOL0     C96454   6.046  10.249  11.087 -0.6993 -0.6564  0.1161
  715MOL0     C96455   6.624   9.826  10.962 -0.5658  0.4190  0.1723
  715MOL0     C96456   6.767   9.842  10.976 -0.3995 -0.6444 -0.1124
  715MOL0     C96457   6.847   9.901  10.858  0.9583  0.0154 -0.9475
  715MOL0     H96458   7.182  10.042  11.191  0.1230  0.0959 -0.2282
  715MOL0     H96459   7.407  10.073  11.294 -0.3776  0.4320  2.3728
  715MOL0     H96460   7.504   9.820  11.632 -1.1225 -0.4221 -0.6814
  715MOL0     H96461   7.611   9.726  11.507  0.0885 -0.4886  2.2918
  715MOL0     H96462   7.676   9.936  11.709 -2.6308 -0.7429  0.6918
  715MOL0     H96463   7.746   9.948  11.544 -2.1640 -0.7030 -2.4273
  715MOL0     H96464   7.847   9.724  11.570 -0.4147  0.5427 -0.7296
  715MOL0     H96465   7.776   9.703  11.740  2.5472 -1.5342 -0.1056
  715MOL0     H96466   7.907   9.913  11.798  0.6938  2.7599 -0.7612
  715MOL0     H96467   7.995   9.763  11.748 -2.1401 -1.4227 -1.0937
  715MOL0     H96468   7.972   9.880  11.506  0.4689  0.2879 -0.2784
  715MOL0     H96469   7.957  10.021  11.606 -2.6137 -0.5607  0.1224
  715MOL0     H96470   8.202   9.818  11.618 -1.7591 -0.6025 -0.6222
  715MOL0     H96471   8.199   9.981  11.549 -1.8645 -1.1974 -2.2513
  715MOL0     H96472   8.108   9.982  11.838  0.5990  0.1629  0.8168
  715MOL0     H96473   8.196  10.088  11.739 -0.8795 -0.1073  0.8414
  715MOL0     H96474   8.329   9.990  11.917  0.6829  1.4336 -0.7330
  715MOL0     H96475   8.322   9.829  11.840 -0.3011  0.4701  3.6726
  715MOL0     H96476   8.494   9.804  11.636  2.3939 -0.3778 -0.5980
  715MOL0     H96477   8.719   9.836  11.515 -3.0630 -0.7271  1.1220
  715MOL0     H96478   8.701   9.971  11.412 -3.4185 -3.1053 -0.1784
  715MOL0     H96479   8.862  10.108  11.523 -0.0867  0.8934  0.5234
  715MOL0     H96480   8.891   9.995  11.657 -0.5441 -0.6056 -0.1626
  715MOL0     H96481   8.964   9.961  11.363  1.6808  0.0425 -0.4584
  715MOL0     H96482   8.967   9.829  11.483 -2.5984 -0.0706  0.5268
  715MOL0     H96483   9.097  10.085  11.567 -0.1106 -0.5457  0.8071
  715MOL0     H96484   9.182  10.023  11.430 -1.0210  1.8860  0.3770
  715MOL0     H96485   9.333   9.719  11.525  0.4982  0.7551 -1.7967
  715MOL0     H96486   9.579   9.680  11.598  1.3160  0.9784  0.4932
  715MOL0     H96487   9.881   9.561  11.782 -2.1229  2.3549 -3.9012
  715MOL0     H96488  10.106   9.515  11.885 -0.2913  0.1579  0.7239
  715MOL0     H96489  10.458   9.781  11.733 -2.7697  1.7282 -0.2914
  715MOL0     H96490  10.383   9.840  11.886 -2.7429  0.7635 -3.4206
  715MOL0     H96491  10.595   9.785  11.946  0.1918  0.0338  0.1675
  715MOL0     H96492  10.506   9.635  11.997 -0.4646  0.5383  0.2666
  715MOL0     H96493  10.570   9.532  11.772  1.8424 -3.0091  1.6633
  715MOL0     H96494  10.667   9.677  11.740  1.5352 -0.3444  0.7696
  715MOL0     H96495  10.720   9.496  11.980 -2.3416 -0.9079 -0.8037
  715MOL0     H96496  10.809   9.635  11.933 -1.5944  0.6145  2.7338
  715MOL0     H96497  10.825   9.523  11.694 -1.5533  0.3754  0.7533
  715MOL0     H96498  10.782   9.371  11.780  0.2284 -2.0501  2.9151
  715MOL0     H96499  11.030   9.538  11.839  1.4826 -0.8799 -2.3161
  715MOL0     H96500  10.987   9.385  11.912 -1.5363 -2.7840 -2.4084
  715MOL0     H96501  11.032   9.395  11.607 -0.1796 -0.6026 -0.5412
  715MOL0     H96502  11.024   9.268  11.735  2.0829  1.4800  1.4161
  715MOL0     H96503  11.219   9.494  11.679  4.6590 -0.4336  0.7087
  715MOL0     H96504  11.216   9.419  11.840  1.4245  2.0166 -0.3185
  715MOL0     H96505  10.268   9.847  11.663  1.7703  1.2968  4.4040
  715MOL0     H96506  10.031   9.896  11.578  0.1996 -0.4014 -0.8571
  715MOL0     H96507   9.594  10.080  11.728 -1.5224  0.1210  1.5368
  715MOL0     H96508   9.344  10.102  11.696 -1.3083 -1.0201  1.4648
  715MOL0     H96509   7.377   9.687  11.470 -1.0584 -2.2430 -2.0292
  715MOL0     H96510   7.142   9.673  11.410  0.4220 -2.1400 -2.1751
  715MOL0     H96511   6.803   9.738  11.290  1.2329 -2.2082 -1.7133
  715MOL0     H96512   6.567   9.689  11.260 -0.9582  0.9113 -0.4563
  715MOL0     H96513   6.380   9.810  11.238  0.0305  0.0430 -0.9197
  715MOL0     H96514   6.340   9.638  11.177 -3.1801  0.0597  0.1387
  715MOL0     H96515   6.138   9.778  11.190  0.0689  3.2504  1.0115
  715MOL0     H96516   6.184   9.734  11.026  0.3526  0.9563 -0.9830
  715MOL0     H96517   6.250   9.939  10.958 -0.3845 -2.2411 -0.1589
  715MOL0     H96518   6.260  10.008  11.114  2.2565  0.5139 -3.3138
  715MOL0     H96519   6.012   9.960  10.951 -0.1854  3.1257 -0.0849
  715MOL0     H96520   5.995   9.942  11.121 -0.6872  0.1944  0.8219
  715MOL0     H96521   6.050  10.355  11.102 -1.1137 -0.4184 -1.3090
  715MOL0     H96522   6.559   9.843  10.877  3.1236 -1.6741 -3.4665
  715MOL0     H96523   6.913   9.832  10.804  2.3976  0.4872  0.1473
  715MOL0     H96524   6.788   9.946  10.778 -0.1312 -0.2700 -0.3143
  715MOL0     H96525   6.905   9.988  10.892  2.5383 -0.7613 -1.5274
  716MOL0     O96526   2.634   3.773   2.073  0.4080 -0.1946  0.1940
  716MOL0     C96527   2.606   3.790   2.197 -0.7400  0.1956  0.3933
  716MOL0     O96528   2.582   3.912   2.259  0.2870 -0.1693 -0.6630
  716MOL0     C96529   2.573   4.027   2.181 -0.5657 -0.2148 -0.5233
  716MOL0     C96530   2.454   4.071   2.138  1.0275 -0.7937  0.5430
  716MOL0     C96531   2.444   4.198   2.075  0.1160 -0.3327  0.1645
  716MOL0     C96532   2.564   4.263   2.042  0.2623  0.1904  0.5617
  716MOL0     O96533   2.550   4.384   1.987  0.0366 -0.4568  0.2476
  716MOL0     C96534   2.656   4.430   1.900 -0.4797 -0.3830  1.0354
  716MOL0     C96535   2.614   4.559   1.823 -0.5531  0.6202  0.1789
  716MOL0     C96536   2.596   4.690   1.915 -0.2663  0.1642  0.8840
  716MOL0     C96537   2.732   4.749   1.940 -0.6222 -0.4696 -0.4846
  716MOL0     C96538   2.699   4.882   2.025 -0.6335 -0.5480  0.1873
  716MOL0     C96539   2.817   4.966   2.074 -0.3984 -0.6402  0.4005
  716MOL0     C96540   2.780   5.035   2.207 -0.2961 -0.1099  0.0666
  716MOL0     C96541   2.901   5.097   2.273 -0.3618 -0.8290 -0.2242
  716MOL0     N96542   2.958   5.015   2.381 -0.2332 -0.1339  0.3993
  716MOL0     C96543   2.901   4.991   2.506  0.3098  0.5321  0.0587
  716MOL0     C96544   2.966   4.888   2.558  1.0809 -0.7325 -0.2121
  716MOL0     C96545   2.925   4.823   2.695  0.5545 -0.8197 -0.2654
  716MOL0     C96546   3.049   4.806   2.779 -0.1808  0.0312  0.3688
  716MOL0     C96547   3.009   4.806   2.933 -0.9175 -0.3399  0.2730
  716MOL0     C96548   2.898   4.705   2.961 -0.2514  0.0789  0.5104
  716MOL0     O96549   2.924   4.565   2.930 -0.0181 -0.6402 -0.0847
  716MOL0     C96550   2.814   4.473   2.930  0.4883 -0.3308  0.1911
  716MOL0     C96551   2.848   4.356   2.858  0.5041  0.1245  0.5938
  716MOL0     C96552   2.749   4.261   2.851 -0.3667  0.2579 -0.6261
  716MOL0     C96553   2.624   4.272   2.905  0.2902 -0.4702 -0.7927
  716MOL0     C96554   2.529   4.158   2.911 -0.0406  0.7821  0.1631
  716MOL0     O96555   2.414   4.174   2.990 -0.1196 -0.5665 -0.1498
  716MOL0     C96556   2.332   4.069   3.019  0.2416 -0.9657 -0.3765
  716MOL0     C96557   2.304   4.028   3.154  0.7843  0.0629 -0.3965
  716MOL0     C96558   2.216   3.920   3.184 -0.3812  0.2334  0.1325
  716MOL0     C96559   2.149   3.854   3.082 -0.0996  1.3798  0.3711
  716MOL0     O96560   2.070   3.745   3.112 -1.2379  0.6193  0.3059
  716MOL0     C96561   2.013   3.667   3.009 -0.3218 -0.5780  0.6297
  716MOL0     C96562   1.897   3.576   3.062 -0.5689  0.0237  0.4004
  716MOL0     C96563   1.774   3.654   3.101 -0.2163  0.6225  0.0754
  716MOL0     C96564   1.641   3.578   3.137 -0.4529 -0.2988  0.3827
  716MOL0     C96565   1.568   3.545   3.013  1.0827 -0.8404 -0.4177
  716MOL0     C96566   1.432   3.480   3.045  0.3396  0.3598  0.6328
  716MOL0     C96567   1.375   3.427   2.911  0.0764 -0.4487 -0.0730
  716MOL0     C96568   1.227   3.379   2.923 -0.0173 -0.0351 -0.1521
  716MOL0    Cl96569   1.226   3.241   3.039 -0.0650 -0.0373  0.3832
  716MOL0     C96570   2.172   3.894   2.954  0.0040  0.9755  0.5811
  716MOL0     C96571   2.264   3.999   2.925  0.8351  0.2662  0.5311
  716MOL0     O96572   2.551   4.055   2.850 -0.8615 -0.2026 -0.8723
  716MOL0     C96573   2.593   4.387   2.984  0.0747  0.5820  0.2685
  716MOL0     C96574   2.686   4.485   2.995  0.2059  0.4690 -0.1086
  716MOL0     N96575   3.066   4.855   2.471 -0.1548  0.5634  0.1972
  716MOL0     N96576   3.054   4.930   2.367 -0.3902 -0.6272 -0.6058
  716MOL0     C96577   2.692   4.220   2.082  0.7391  0.3050 -1.0257
  716MOL0     C96578   2.695   4.095   2.150  0.3311  0.2297 -0.6249
  716MOL0     C96579   2.553   3.675   2.280 -0.2967  0.1214  0.1918
  716MOL0     C96580   2.589   3.675   2.420  0.8231 -0.0051 -0.0092
  716MOL0     C96581   2.554   3.571   2.501 -0.0296 -0.1159 -0.3257
  716MOL0     C96582   2.488   3.463   2.445  0.7721 -1.1857 -1.6484
  716MOL0     O96583   2.471   3.357   2.538  0.0392  0.7736 -1.0140
  716MOL0     C96584   2.445   3.224   2.488 -0.3078  0.8239 -0.3421
  716MOL0     C96585   2.490   3.124   2.604 -0.2626 -0.5790 -0.5645
  716MOL0     C96586   2.371   3.045   2.667  0.5761 -0.2573 -0.5701
  716MOL0     C96587   2.317   2.927   2.575  0.1103 -0.5095  0.5795
  716MOL0     C96588   2.181   2.904   2.627  0.5162 -0.8511 -0.2275
  716MOL0     C96589   2.067   2.868   2.659  0.2430 -0.5837  1.2039
  716MOL0     C96590   2.444   3.459   2.317 -0.0904  0.8402  0.4168
  716MOL0     C96591   2.480   3.563   2.231 -0.3202 -0.0679  0.6909
  716MOL0     C96592   2.435   3.547   2.090 -0.4008 -0.6631 -0.0693
  716MOL0     H96593   2.360   4.030   2.171  0.1668  1.8845  1.7020
  716MOL0     H96594   2.356   4.241   2.028 -0.4795 -0.8150  0.8344
  716MOL0     H96595   2.745   4.451   1.961 -1.4335 -1.1902  2.7938
  716MOL0     H96596   2.668   4.352   1.825 -2.8098 -0.1896  0.3654
  716MOL0     H96597   2.519   4.518   1.789  0.6364 -2.4522  0.2214
  716MOL0     H96598   2.683   4.568   1.738 -0.5887  0.6516  0.1531
  716MOL0     H96599   2.548   4.677   2.012  0.1113  1.7794  1.3243
  716MOL0     H96600   2.529   4.761   1.865 -2.1132 -1.8606  0.3267
  716MOL0     H96601   2.792   4.685   2.005  1.6670  0.3342 -1.7032
  716MOL0     H96602   2.773   4.778   1.844 -2.1318  1.1936 -0.6930
  716MOL0     H96603   2.630   4.947   1.969 -1.8127 -0.9281  1.1684
  716MOL0     H96604   2.640   4.859   2.114 -1.1873  0.3175  0.0659
  716MOL0     H96605   2.902   4.902   2.100  1.3496  1.6074  0.5454
  716MOL0     H96606   2.851   5.039   2.000  0.0849 -0.5796  0.6724
  716MOL0     H96607   2.746   4.955   2.272 -1.1730 -2.2976 -2.8579
  716MOL0     H96608   2.700   5.109   2.193 -0.7465 -0.5740  0.1747
  716MOL0     H96609   2.985   5.120   2.206 -2.5207  0.6336 -2.6194
  716MOL0     H96610   2.878   5.194   2.318  0.7496 -0.5277 -0.2646
  716MOL0     H96611   2.816   5.043   2.550 -0.1236  0.3658 -0.5693
  716MOL0     H96612   2.854   4.887   2.747  0.2364 -0.7461 -0.7917
  716MOL0     H96613   2.879   4.726   2.676  1.1080 -0.6315 -2.8212
  716MOL0     H96614   3.092   4.710   2.750 -0.7783  0.1966 -1.1173
  716MOL0     H96615   3.122   4.886   2.762  1.7212 -2.3539 -4.3647
  716MOL0     H96616   3.001   4.914   2.949  4.1268  0.3921 -0.3551
  716MOL0     H96617   3.094   4.771   2.993 -1.0831  0.0442  0.7352
  716MOL0     H96618   2.809   4.726   2.901  0.9351 -0.7961 -1.6905
  716MOL0     H96619   2.866   4.700   3.065  0.2992 -0.5481  0.6545
  716MOL0     H96620   2.946   4.335   2.815  0.6199  3.6716 -1.2478
  716MOL0     H96621   2.773   4.171   2.796 -0.8856 -0.5082  0.3705
  716MOL0     H96622   2.359   4.076   3.234  1.5277  0.6280 -1.2331
  716MOL0     H96623   2.206   3.904   3.291  1.7056  2.5065  0.7684
  716MOL0     H96624   1.960   3.733   2.940 -1.9932  1.5733  3.7081
  716MOL0     H96625   2.078   3.598   2.955 -1.1512 -1.0932  0.2638
  716MOL0     H96626   1.874   3.500   2.987  2.0995 -1.5184  1.0015
  716MOL0     H96627   1.948   3.525   3.144 -0.0254  0.1750  0.1667
  716MOL0     H96628   1.802   3.708   3.192 -1.9932  0.0145  1.0248
  716MOL0     H96629   1.748   3.739   3.037 -0.6257  0.0569 -0.5170
  716MOL0     H96630   1.585   3.639   3.208  0.7047 -2.0126  2.9014
  716MOL0     H96631   1.654   3.483   3.190 -0.6818 -2.9947 -3.9055
  716MOL0     H96632   1.633   3.481   2.952  2.2005 -0.0538 -0.0696
  716MOL0     H96633   1.548   3.635   2.954  1.2669 -1.0479 -0.8070
  716MOL0     H96634   1.450   3.391   3.107  2.5519  0.3386  0.0285
  716MOL0     H96635   1.356   3.545   3.088  0.9766  1.0366  0.7401
  716MOL0     H96636   1.428   3.341   2.869 -2.3599 -2.5404  0.9378
  716MOL0     H96637   1.364   3.507   2.837 -1.2193 -0.8865 -0.3700
  716MOL0     H96638   1.168   3.456   2.973  0.3070  0.1416 -0.0399
  716MOL0     H96639   1.180   3.339   2.832 -1.9155  1.0357  0.3014
  716MOL0     H96640   2.114   3.855   2.871  0.1764  3.4244 -0.7616
  716MOL0     H96641   2.281   4.016   2.820 -2.0786 -0.8758 -0.2362
  716MOL0     H96642   2.512   4.392   3.057  0.0857 -2.1406  0.5491
  716MOL0     H96643   2.671   4.571   3.059  0.5209  1.6306 -1.5374
  716MOL0     H96644   2.782   4.276   2.059  2.0524 -1.2988 -0.0091
  716MOL0     H96645   2.791   4.055   2.178 -0.3900 -1.5329 -0.5589
  716MOL0     H96646   2.639   3.750   2.480 -0.0781 -0.4374  1.3253
  716MOL0     H96647   2.573   3.588   2.607  3.8355 -3.1481 -0.3167
  716MOL0     H96648   2.506   3.202   2.400 -1.6697 -0.0190 -1.1038
  716MOL0     H96649   2.347   3.199   2.448 -0.8037  1.0126  0.7166
  716MOL0     H96650   2.537   3.183   2.683 -0.0207 -1.7879  0.2269
  716MOL0     H96651   2.560   3.050   2.562 -0.8467 -0.2477 -2.2147
  716MOL0     H96652   2.292   3.117   2.687 -0.2549 -1.5069  0.8136
  716MOL0     H96653   2.404   3.009   2.765  2.6426 -2.4278 -1.9395
  716MOL0     H96654   2.314   2.962   2.472 -1.4333 -0.9087  0.4568
  716MOL0     H96655   2.381   2.839   2.574  2.0025  0.8124  1.1360
  716MOL0     H96656   1.965   2.854   2.687 -0.4585  1.7375  0.0042
  716MOL0     H96657   2.375   3.384   2.280 -3.2457  1.3143  4.6227
  716MOL0     H96658   2.368   3.461   2.077 -2.8779  1.2014 -0.2609
  716MOL0     H96659   2.376   3.635   2.065 -0.8103 -1.1518 -0.8691
  716MOL0     H96660   2.520   3.544   2.021 -0.2535 -0.3224  0.0987
  717MOL0     O96661   0.046   5.807   4.181 -1.1211 -0.0712 -0.6110
  717MOL0     C96662   0.079   5.695   4.189 -0.5175 -0.2207  0.1362
  717MOL0     O96663   0.200   5.661   4.220 -0.7387  0.8048 -0.3948
  717MOL0     C96664   0.308   5.745   4.221  0.4184 -0.1741 -0.3206
  717MOL0     C96665   0.327   5.847   4.124 -0.7483 -0.5459  0.1242
  717MOL0     C96666   0.447   5.916   4.116 -0.9641 -0.5412 -0.3184
  717MOL0     C96667   0.557   5.885   4.207 -0.3916  0.4635  0.5040
  717MOL0     O96668   0.672   5.957   4.175  0.1693  0.1457 -0.3369
  717MOL0     C96669   0.773   5.946   4.272  0.7194 -0.2216 -0.1660
  717MOL0     C96670   0.896   6.019   4.226  0.0913  0.7558  0.9621
  717MOL0     C96671   0.949   5.956   4.090 -0.0104 -0.4456  0.2920
  717MOL0     C96672   1.085   6.021   4.065 -0.7354 -0.1047 -0.5822
  717MOL0     C96673   1.135   5.988   3.923 -0.6830 -0.6447  0.9743
  717MOL0     C96674   1.267   6.070   3.894  0.2241  0.3050  0.0880
  717MOL0     C96675   1.400   6.012   3.943  0.4098  0.8401  0.3884
  717MOL0     C96676   1.417   5.864   3.887  1.1104  0.2518 -0.1980
  717MOL0     N96677   1.556   5.837   3.866 -0.2681  0.5695  0.4550
  717MOL0     C96678   1.643   5.895   3.775 -0.8901  0.1300  1.4157
  717MOL0     C96679   1.762   5.839   3.797  0.8539 -0.3255  0.0277
  717MOL0     C96680   1.885   5.870   3.716  0.7916  0.1469 -0.2114
  717MOL0     C96681   1.881   5.770   3.607 -0.5168  0.3250 -0.7914
  717MOL0     C96682   1.933   5.634   3.653  1.5006  0.1511  0.0830
  717MOL0     C96683   1.951   5.541   3.528  0.4045 -0.4029  0.3323
  717MOL0     O96684   1.998   5.420   3.581  0.0716 -0.3112 -0.3361
  717MOL0     C96685   1.996   5.303   3.508  0.9218  0.0462  0.1205
  717MOL0     C96686   1.967   5.297   3.377 -0.8734 -0.0495  0.6316
  717MOL0     C96687   1.987   5.176   3.304 -0.0118 -0.1592 -1.1726
  717MOL0     C96688   2.047   5.071   3.376 -0.1688  0.5246  0.4106
  717MOL0     C96689   2.083   4.949   3.298  0.2882 -0.5536 -0.8786
  717MOL0     O96690   2.077   4.956   3.163  0.1932 -0.1024 -0.4236
  717MOL0     C96691   2.111   4.838   3.094  0.2384  0.0972 -0.2319
  717MOL0     C96692   2.200   4.850   2.986 -1.1438  0.2601 -0.4302
  717MOL0     C96693   2.243   4.735   2.910 -0.6435 -0.8400  0.3797
  717MOL0     C96694   2.189   4.611   2.942  0.3454 -0.2737 -0.1647
  717MOL0     O96695   2.241   4.496   2.877 -0.1901 -0.0862  0.1379
  717MOL0     C96696   2.199   4.471   2.742  0.4346 -0.4210 -0.2929
  717MOL0     C96697   2.047   4.425   2.718  0.1685  0.4011 -0.9244
  717MOL0     C96698   2.022   4.348   2.586 -0.6391 -1.1424  0.3387
  717MOL0     C96699   1.878   4.345   2.515  0.1116 -0.1854 -0.4995
  717MOL0     C96700   1.778   4.261   2.583  0.0893 -0.0379  0.1733
  717MOL0     C96701   1.646   4.265   2.504  0.7898  0.1839 -0.1223
  717MOL0     C96702   1.536   4.223   2.614 -0.0064  0.1377  0.0962
  717MOL0     C96703   1.394   4.219   2.556  0.0003 -0.1951 -0.2727
  717MOL0    Cl96704   1.393   4.131   2.404 -0.0354 -0.0629 -0.6673
  717MOL0     C96705   2.091   4.599   3.050 -0.1355  0.2600  0.9153
  717MOL0     C96706   2.056   4.715   3.121 -0.7199  0.2183 -0.8095
  717MOL0     O96707   2.123   4.855   3.363  0.5802 -0.2353 -0.6053
  717MOL0     C96708   2.072   5.072   3.513  0.0786  0.7690  0.3467
  717MOL0     C96709   2.045   5.190   3.583  0.5580  0.4541  0.6762
  717MOL0     N96710   1.751   5.764   3.911 -0.4323  1.0231 -0.2386
  717MOL0     N96711   1.631   5.758   3.952  0.3305  0.0265 -0.5187
  717MOL0     C96712   0.538   5.787   4.304 -0.0401  0.4274 -1.1575
  717MOL0     C96713   0.412   5.719   4.311  0.8159 -0.0457  0.2109
  717MOL0     C96714  -0.004   5.579   4.139  0.9393 -0.2909 -0.0705
  717MOL0     C96715  -0.025   5.481   4.239 -0.1933 -0.4927  0.3029
  717MOL0     C96716  -0.101   5.367   4.218  0.1002 -0.4193  0.4782
  717MOL0     C96717  -0.175   5.350   4.090 -0.3842 -0.3107 -0.5421
  717MOL0     O96718  -0.253   5.246   4.054 -0.1168  0.6979  0.6666
  717MOL0     C96719  -0.237   5.133   4.139 -0.8123  0.1134  0.7661
  717MOL0     C96720  -0.276   5.002   4.082 -0.5736  0.5185 -0.6596
  717MOL0     C96721  -0.244   4.907   4.194  1.1434 -0.0068 -0.6449
  717MOL0     C96722  -0.249   4.765   4.130 -0.0339 -0.7243  0.4842
  717MOL0     C96723  -0.329   4.675   4.213 -0.1216 -0.3445 -0.1295
  717MOL0     C96724  -0.405   4.608   4.277  0.4312 -0.3498 -0.7734
  717MOL0     C96725  -0.160   5.446   3.992  0.3434  0.3064 -0.3644
  717MOL0     C96726  -0.081   5.562   4.014  0.0627  0.3835  0.1196
  717MOL0     C96727  -0.061   5.670   3.899 -0.9157  0.7541  0.3952
  717MOL0     H96728   0.248   5.871   4.054  0.8438  2.1519 -0.8891
  717MOL0     H96729   0.475   5.992   4.044  1.9002 -0.3007  0.9031
  717MOL0     H96730   0.741   5.980   4.372  2.2322 -0.5385  0.4556
  717MOL0     H96731   0.807   5.843   4.286  0.1940 -0.1517  2.0730
  717MOL0     H96732   0.984   6.014   4.292  0.3485  2.5764  0.8070
  717MOL0     H96733   0.867   6.121   4.199 -0.6806 -0.0902 -1.6516
  717MOL0     H96734   0.873   5.978   4.013  1.1666 -0.4444 -0.9104
  717MOL0     H96735   0.954   5.847   4.091  0.7474 -0.4670  3.4281
  717MOL0     H96736   1.081   6.130   4.075  3.3195  0.0491  1.7433
  717MOL0     H96737   1.163   5.975   4.127  0.9291  3.3553  0.1820
  717MOL0     H96738   1.151   5.881   3.905 -0.7435 -0.1727 -2.3683
  717MOL0     H96739   1.061   6.003   3.845  0.4235 -0.8114 -0.1411
  717MOL0     H96740   1.276   6.083   3.786 -2.5361  5.7222  0.1292
  717MOL0     H96741   1.274   6.172   3.935 -2.5910 -0.2006  2.1794
  717MOL0     H96742   1.405   6.014   4.052 -1.1268 -2.4625  0.6414
  717MOL0     H96743   1.477   6.081   3.906  1.0386 -1.6075 -3.5727
  717MOL0     H96744   1.393   5.784   3.958  0.3398  1.7388  1.2785
  717MOL0     H96745   1.362   5.849   3.793  0.0309 -2.4560  0.7724
  717MOL0     H96746   1.625   5.971   3.700 -0.1186 -1.1100 -0.0920
  717MOL0     H96747   1.872   5.974   3.686  0.8838  0.1744 -0.1564
  717MOL0     H96748   1.973   5.856   3.779  0.9282  0.5214 -0.3191
  717MOL0     H96749   1.778   5.752   3.573  0.2878 -0.8111 -2.8128
  717MOL0     H96750   1.941   5.800   3.521  0.4762 -3.6003 -1.6792
  717MOL0     H96751   1.869   5.592   3.731 -0.4867  1.4521 -0.7887
  717MOL0     H96752   2.037   5.651   3.683  1.4169  2.4518 -0.7581
  717MOL0     H96753   2.013   5.597   3.458 -0.3042  0.1859  0.1542
  717MOL0     H96754   1.859   5.527   3.471 -0.7325  0.0633  1.9629
  717MOL0     H96755   1.936   5.389   3.329 -0.6960  0.2254  1.0345
  717MOL0     H96756   1.965   5.177   3.198 -0.4638 -0.6412 -1.0876
  717MOL0     H96757   2.257   4.942   2.971  0.7510 -0.4693  1.7085
  717MOL0     H96758   2.307   4.755   2.824 -1.9415 -1.7330 -0.8358
  717MOL0     H96759   2.208   4.558   2.676  2.8035 -0.2664  0.1580
  717MOL0     H96760   2.265   4.391   2.707  0.8583 -0.1752 -0.0578
  717MOL0     H96761   2.019   4.361   2.802 -1.7196  0.5498 -1.4172
  717MOL0     H96762   1.983   4.514   2.711  1.4354  1.2512 -2.3958
  717MOL0     H96763   2.095   4.385   2.515 -0.7996 -0.8811  0.3101
  717MOL0     H96764   2.038   4.243   2.613 -0.8934 -1.3996 -0.4780
  717MOL0     H96765   1.890   4.300   2.416  0.8758 -1.0514 -0.0275
  717MOL0     H96766   1.852   4.452   2.513 -0.7153 -0.3724 -0.0735
  717MOL0     H96767   1.768   4.305   2.683  0.4250  0.4271  0.0070
  717MOL0     H96768   1.807   4.157   2.570  0.5043  0.2029 -0.9516
  717MOL0     H96769   1.628   4.369   2.475 -2.4262  0.3101  1.8374
  717MOL0     H96770   1.639   4.194   2.421 -3.5765  0.7981 -0.4895
  717MOL0     H96771   1.539   4.288   2.702 -1.5347  2.0066 -1.1598
  717MOL0     H96772   1.568   4.127   2.655  0.8612  0.4362  0.1531
  717MOL0     H96773   1.321   4.163   2.614 -0.0218 -2.2822 -2.1775
  717MOL0     H96774   1.351   4.317   2.533  1.1005 -0.3580 -3.5357
  717MOL0     H96775   2.041   4.503   3.063 -1.0527  0.3681 -1.2503
  717MOL0     H96776   1.991   4.704   3.207  0.6806  0.5768  0.3257
  717MOL0     H96777   2.117   4.992   3.571 -1.5817  1.2072  2.3645
  717MOL0     H96778   2.079   5.198   3.686  2.0533 -0.3760  0.2747
  717MOL0     H96779   0.607   5.757   4.383  0.1639  0.8072 -1.1931
  717MOL0     H96780   0.385   5.643   4.384  0.2213 -0.6965 -0.6666
  717MOL0     H96781   0.021   5.513   4.332  0.3791  1.9868 -0.7364
  717MOL0     H96782  -0.106   5.286   4.290 -2.1842 -0.1045  0.7464
  717MOL0     H96783  -0.294   5.161   4.227 -0.6727  0.6921  0.6759
  717MOL0     H96784  -0.130   5.118   4.158 -0.9619 -4.0118 -0.5023
  717MOL0     H96785  -0.211   4.988   3.995  1.2452  1.2572  0.5268
  717MOL0     H96786  -0.379   4.987   4.047 -2.2555  3.0170  2.6714
  717MOL0     H96787  -0.318   4.916   4.275  1.8933 -2.7364  0.4395
  717MOL0     H96788  -0.149   4.924   4.245  0.0765 -0.3097  1.5483
  717MOL0     H96789  -0.285   4.750   4.027 -1.3634 -0.6274  0.9177
  717MOL0     H96790  -0.149   4.726   4.111  1.1972  2.5161 -0.3847
  717MOL0     H96791  -0.466   4.543   4.337  1.9254  0.5182  1.8300
  717MOL0     H96792  -0.215   5.439   3.899  1.0719 -0.0822 -0.7732
  717MOL0     H96793  -0.137   5.656   3.821 -2.4840  0.3965  1.9245
  717MOL0     H96794  -0.077   5.765   3.950 -2.6456  0.6706  0.0887
  717MOL0     H96795   0.039   5.665   3.855 -0.1017  0.2519  2.1955
  718MOL0     O96796   2.799   0.638   2.458 -0.3166 -0.0773  0.8170
  718MOL0     C96797   2.728   0.694   2.542  0.5146 -0.0890  0.2796
  718MOL0     O96798   2.708   0.650   2.668 -0.1397 -0.3487 -0.0161
  718MOL0     C96799   2.778   0.539   2.709 -0.2411 -0.2993  0.5650
  718MOL0     C96800   2.701   0.429   2.743  0.3052  1.0858  0.7681
  718MOL0     C96801   2.757   0.305   2.774  0.3173 -0.1202  0.7325
  718MOL0     C96802   2.898   0.305   2.776 -0.5605  0.7444 -0.1862
  718MOL0     O96803   2.960   0.186   2.804 -0.9437  0.2316 -0.5902
  718MOL0     C96804   2.919   0.071   2.727 -0.7484  0.1851  0.8712
  718MOL0     C96805   2.835  -0.033   2.800 -0.4437 -0.6314 -0.8553
  718MOL0     C96806   2.898  -0.111   2.924  0.2096 -0.9804  0.7265
  718MOL0     C96807   2.902  -0.265   2.909 -0.0709 -0.7920  0.1411
  718MOL0     C96808   3.000  -0.303   2.805  0.5897 -0.0546 -0.2047
  718MOL0     C96809   3.142  -0.310   2.866  0.2752  0.3902 -0.3549
  718MOL0     C96810   3.258  -0.367   2.783  1.4395  0.5744 -0.7999
  718MOL0     C96811   3.226  -0.508   2.753 -0.0709  0.2053  0.0077
  718MOL0     N96812   3.351  -0.577   2.719  0.2268  0.4764 -0.0611
  718MOL0     C96813   3.454  -0.611   2.801 -0.0966  0.1792 -0.9427
  718MOL0     C96814   3.562  -0.643   2.725 -0.4859  1.5025  0.6423
  718MOL0     C96815   3.695  -0.676   2.786 -0.3448  0.0460 -0.2710
  718MOL0     C96816   3.788  -0.559   2.741 -0.3810 -0.0938  0.0477
  718MOL0     C96817   3.920  -0.575   2.816  0.1428 -0.9817 -0.2581
  718MOL0     C96818   4.031  -0.657   2.748  0.3326  0.0552  0.4679
  718MOL0     O96819   4.065  -0.610   2.615  0.6184 -0.4931 -0.7172
  718MOL0     C96820   4.172  -0.523   2.602 -0.3970  0.0276 -0.1090
  718MOL0     C96821   4.251  -0.548   2.500 -0.3876  1.0056 -0.3957
  718MOL0     C96822   4.371  -0.473   2.474  0.1677  0.3941  0.9894
  718MOL0     C96823   4.390  -0.357   2.553 -0.4996 -0.3166 -0.8555
  718MOL0     C96824   4.507  -0.264   2.521  0.0187 -0.7052 -0.7879
  718MOL0     O96825   4.602  -0.320   2.440  0.4949 -0.2866  0.9891
  718MOL0     C96826   4.698  -0.225   2.393  0.0211  0.0531 -0.3124
  718MOL0     C96827   4.816  -0.195   2.458 -1.4333  0.3507  0.8908
  718MOL0     C96828   4.907  -0.109   2.393 -0.8642  0.1239 -0.4957
  718MOL0     C96829   4.882  -0.050   2.271  0.4970  0.0520  0.4649
  718MOL0     O96830   4.958   0.038   2.200 -0.2380  0.2585  0.0913
  718MOL0     C96831   5.046   0.132   2.260  0.6108  0.5449 -0.6065
  718MOL0     C96832   4.966   0.242   2.310  1.0841  0.0201 -0.5527
  718MOL0     C96833   4.916   0.324   2.191  0.2713 -0.8550  0.2373
  718MOL0     C96834   4.933   0.480   2.209  0.0494  0.2397  0.7785
  718MOL0     C96835   4.897   0.550   2.081  0.1637  0.5183 -0.9387
  718MOL0     C96836   4.957   0.505   1.944  0.0967  0.4978 -0.2067
  718MOL0     C96837   4.934   0.626   1.854  0.7545  0.0965  0.4737
  718MOL0     C96838   5.003   0.622   1.723  0.2220  0.3100  0.8274
  718MOL0    Cl96839   4.932   0.499   1.618 -0.5461 -0.4285  0.0721
  718MOL0     C96840   4.761  -0.077   2.210 -0.1289  0.3881 -0.3732
  718MOL0     C96841   4.672  -0.161   2.269  0.1013 -0.2846 -0.2787
  718MOL0     O96842   4.521  -0.155   2.570 -0.7485  0.0456 -0.2137
  718MOL0     C96843   4.310  -0.334   2.671  0.5825 -0.5701 -0.8322
  718MOL0     C96844   4.208  -0.420   2.694 -0.2866 -0.0282  0.2765
  718MOL0     N96845   3.520  -0.643   2.594 -0.2236 -0.3143  1.4019
  718MOL0     N96846   3.398  -0.602   2.589 -0.1968  0.5911 -1.1271
  718MOL0     C96847   2.974   0.417   2.754  0.4378  0.5370 -0.2783
  718MOL0     C96848   2.921   0.540   2.712  0.0842  0.4936 -0.3503
  718MOL0     C96849   2.664   0.817   2.483 -0.0030  0.9543  0.2735
  718MOL0     C96850   2.717   0.943   2.513  0.1041 -0.0508  0.7554
  718MOL0     C96851   2.653   1.056   2.465 -0.7850  0.3144  0.8213
  718MOL0     C96852   2.524   1.052   2.400 -0.8211  0.2121  0.0948
  718MOL0     O96853   2.466   1.162   2.343  0.2265  0.4468  0.3072
  718MOL0     C96854   2.414   1.246   2.444  0.4037 -0.0988 -0.3902
  718MOL0     C96855   2.282   1.197   2.492  0.7704  0.4669  0.6108
  718MOL0     C96856   2.242   1.285   2.611  0.2773 -0.5088 -0.3799
  718MOL0     C96857   2.122   1.235   2.691 -0.0075  1.2239 -0.4683
  718MOL0     C96858   2.110   1.324   2.815 -0.0551 -0.2639  0.3794
  718MOL0     C96859   2.089   1.388   2.913  0.0516  0.7571 -1.2763
  718MOL0     C96860   2.481   0.928   2.374  0.0128  0.0041 -0.1668
  718MOL0     C96861   2.540   0.804   2.416 -0.4139 -1.0680  0.0781
  718MOL0     C96862   2.486   0.674   2.381  0.0680 -0.5350  0.2548
  718MOL0     H96863   2.594   0.449   2.735  0.2011  0.4444  0.5057
  718MOL0     H96864   2.696   0.219   2.796  0.3526 -0.6828 -1.1380
  718MOL0     H96865   2.863   0.115   2.644  2.8349 -0.7126 -2.3052
  718MOL0     H96866   3.009   0.021   2.690  0.1676  1.2780  1.5699
  718MOL0     H96867   2.793  -0.094   2.720 -1.3841  0.4489 -1.1990
  718MOL0     H96868   2.747   0.019   2.838 -1.3414 -3.5071  1.4146
  718MOL0     H96869   2.838  -0.086   3.012  1.0314 -2.3937  1.7259
  718MOL0     H96870   3.003  -0.083   2.936  0.9510 -3.0199 -0.4556
  718MOL0     H96871   2.927  -0.317   3.001  0.5117 -2.0082 -0.6814
  718MOL0     H96872   2.807  -0.315   2.886 -0.4590 -0.7081  1.5128
  718MOL0     H96873   2.964  -0.400   2.768  0.2978  1.0136 -2.9929
  718MOL0     H96874   3.010  -0.227   2.726 -1.0743  0.9754  0.5333
  718MOL0     H96875   3.164  -0.211   2.908 -0.0262 -1.0894  3.7132
  718MOL0     H96876   3.129  -0.374   2.954  0.5025  2.7617  1.5184
  718MOL0     H96877   3.347  -0.359   2.847  0.1015 -0.9209  1.3990
  718MOL0     H96878   3.266  -0.314   2.688 -1.5971 -0.6874 -1.8565
  718MOL0     H96879   3.178  -0.560   2.837  1.2893  0.3966  0.9294
  718MOL0     H96880   3.158  -0.508   2.667  1.2265  0.8087 -1.0665
  718MOL0     H96881   3.467  -0.593   2.907  1.7622  0.3665 -1.1760
  718MOL0     H96882   3.687  -0.682   2.895  1.2101  0.1238 -0.1254
  718MOL0     H96883   3.719  -0.777   2.752 -1.2299  0.1131 -1.1469
  718MOL0     H96884   3.804  -0.561   2.633 -1.5030  0.7836 -0.1544
  718MOL0     H96885   3.747  -0.460   2.762 -0.5922 -0.5463  2.0418
  718MOL0     H96886   3.899  -0.619   2.913  1.2427 -2.0865 -0.5032
  718MOL0     H96887   3.962  -0.474   2.826 -1.7255 -0.1714 -0.1303
  718MOL0     H96888   3.995  -0.760   2.736  1.1592 -0.0051 -2.1343
  718MOL0     H96889   4.110  -0.667   2.823 -0.5793  1.7193  1.7119
  718MOL0     H96890   4.220  -0.605   2.413 -0.7174  1.2322 -0.4312
  718MOL0     H96891   4.424  -0.494   2.382 -2.0023  1.9730 -0.7514
  718MOL0     H96892   4.834  -0.228   2.560  2.4346  2.1632  0.9845
  718MOL0     H96893   4.999  -0.075   2.439 -0.1317 -0.9046 -1.1544
  718MOL0     H96894   5.104   0.085   2.340  1.4848  0.3371 -1.3370
  718MOL0     H96895   5.111   0.172   2.182  0.4345  1.8097 -0.1156
  718MOL0     H96896   4.879   0.204   2.366  1.6191 -6.4249 -3.2402
  718MOL0     H96897   5.019   0.309   2.379  0.6525 -1.6066  1.4757
  718MOL0     H96898   4.969   0.293   2.100  1.7270 -1.6796  1.3197
  718MOL0     H96899   4.808   0.305   2.182  0.5425 -2.1239 -0.6554
  718MOL0     H96900   5.040   0.501   2.223  0.3664 -1.9007  1.9434
  718MOL0     H96901   4.871   0.511   2.293 -3.1173 -0.3297 -1.2045
  718MOL0     H96902   4.913   0.658   2.089 -1.3604  0.7144 -0.2886
  718MOL0     H96903   4.789   0.540   2.068 -0.2200  1.0357  1.4913
  718MOL0     H96904   5.063   0.481   1.956 -0.1511 -0.2600  0.5805
  718MOL0     H96905   4.897   0.426   1.899 -0.6013  0.6985  0.3494
  718MOL0     H96906   4.961   0.717   1.910 -2.0647  1.7344 -0.5873
  718MOL0     H96907   4.827   0.637   1.832  0.2504  1.3849  3.1032
  718MOL0     H96908   4.989   0.719   1.674 -2.1453 -0.7751 -0.8025
  718MOL0     H96909   5.112   0.610   1.729  0.4908  0.2689 -2.2998
  718MOL0     H96910   4.737  -0.034   2.113  0.7845  0.7672 -0.4403
  718MOL0     H96911   4.579  -0.185   2.219 -0.8203  2.4870 -0.0661
  718MOL0     H96912   4.320  -0.250   2.740 -2.2735  0.3894 -1.4626
  718MOL0     H96913   4.153  -0.401   2.786 -0.2417 -1.2922  0.5827
  718MOL0     H96914   3.077   0.398   2.784  0.1344  2.3462  2.2682
  718MOL0     H96915   2.975   0.633   2.701 -1.1686  1.4775  1.4399
  718MOL0     H96916   2.814   0.947   2.562  1.4500  0.0618 -1.7830
  718MOL0     H96917   2.689   1.157   2.483 -0.6608  0.3027  0.6441
  718MOL0     H96918   2.410   1.350   2.409 -0.8444 -0.9263 -2.9496
  718MOL0     H96919   2.478   1.246   2.532  2.0145 -0.8142 -1.5181
  718MOL0     H96920   2.289   1.091   2.517  1.3222  0.6570  1.2784
  718MOL0     H96921   2.207   1.208   2.412  1.9540  1.5944 -0.4037
  718MOL0     H96922   2.218   1.383   2.569 -3.3128 -1.3420 -0.5758
  718MOL0     H96923   2.323   1.300   2.683 -0.5676 -0.0698  0.5008
  718MOL0     H96924   2.040   1.256   2.622 -0.9333  1.1261  0.5615
  718MOL0     H96925   2.113   1.130   2.720  0.3274  1.2680 -0.2001
  718MOL0     H96926   2.075   1.429   3.011  4.1084  1.6973 -0.8949
  718MOL0     H96927   2.382   0.936   2.331  0.1552  2.4625 -0.1597
  718MOL0     H96928   2.486   0.616   2.474  1.1724  0.4558  0.9155
  718MOL0     H96929   2.385   0.683   2.340  0.9421 -1.4805 -2.2638
  718MOL0     H96930   2.547   0.631   2.301  0.6164  1.5572 -0.5183
  719MOL0     O96931   4.362   6.253   0.128 -0.8080  0.7152  0.2003
  719MOL0     C96932   4.406   6.304   0.026 -0.6666 -0.1608 -0.8791
  719MOL0     O96933   4.536   6.340   0.015 -0.6124  0.2517  0.6977
  719MOL0     C96934   4.607   6.346   0.128 -0.0170  0.0061  0.3717
  719MOL0     C96935   4.713   6.255   0.150 -0.6474  0.4866 -0.1906
  719MOL0     C96936   4.791   6.259   0.262 -0.5792 -0.4659  0.1777
  719MOL0     C96937   4.783   6.377   0.348 -0.6797  0.4872  0.3544
  719MOL0     O96938   4.864   6.404   0.455 -0.6532 -0.0467  0.0076
  719MOL0     C96939   4.977   6.325   0.486 -0.3398 -0.0472  0.4274
  719MOL0     C96940   5.089   6.356   0.387  0.2620  0.9733  0.0180
  719MOL0     C96941   5.149   6.490   0.373  0.9472  0.7884 -1.2893
  719MOL0     C96942   5.246   6.515   0.489 -0.2402  0.1782  0.4469
  719MOL0     C96943   5.298   6.656   0.492 -0.4957 -0.4515  0.3772
  719MOL0     C96944   5.344   6.715   0.358  0.3175  0.6376 -0.2944
  719MOL0     C96945   5.382   6.857   0.394 -0.1065  0.6673  0.0152
  719MOL0     C96946   5.389   6.933   0.262 -0.4169 -0.7563 -0.4418
  719MOL0     N96947   5.521   6.902   0.194  0.2847 -0.2925  0.0536
  719MOL0     C96948   5.645   6.927   0.245 -0.3263  0.2823 -0.2085
  719MOL0     C96949   5.724   6.870   0.152  0.4411  0.6354  0.0410
  719MOL0     C96950   5.869   6.847   0.159 -0.9735 -0.0814  0.0426
  719MOL0     C96951   5.897   6.762   0.285 -0.5908 -0.0957  0.5387
  719MOL0     C96952   5.853   6.613   0.278  0.0809  0.6601  0.2910
  719MOL0     C96953   5.970   6.523   0.221  0.9625  0.1253  0.2489
  719MOL0     O96954   6.071   6.506   0.318 -0.0530  0.4124 -0.4379
  719MOL0     C96955   6.200   6.517   0.278 -0.2969 -0.1395 -0.6942
  719MOL0     C96956   6.259   6.413   0.218 -0.3019 -0.2251 -0.1599
  719MOL0     C96957   6.393   6.414   0.178  1.1082 -0.2008 -0.5465
  719MOL0     C96958   6.469   6.525   0.199  0.2213  1.0086  0.7031
  719MOL0     C96959   6.613   6.520   0.169  0.2900 -0.1435  0.1326
  719MOL0     O96960   6.692   6.618   0.226  0.5454  0.5729  0.5255
  719MOL0     C96961   6.822   6.628   0.200 -0.4162  0.9742 -0.0560
  719MOL0     C96962   6.898   6.587   0.087  0.3810 -0.3846 -0.4815
  719MOL0     C96963   7.035   6.613   0.079  0.3623 -0.5163 -0.7808
  719MOL0     C96964   7.103   6.684   0.181 -0.0477  0.2532 -0.7232
  719MOL0     O96965   7.238   6.711   0.174  0.9441 -0.1384 -1.0171
  719MOL0     C96966   7.302   6.714   0.045 -0.4992 -0.1452  0.6616
  719MOL0     C96967   7.383   6.589   0.025 -0.9499  0.6041 -0.7839
  719MOL0     C96968   7.424   6.588  -0.116 -0.1483 -0.3350 -1.1084
  719MOL0     C96969   7.477   6.446  -0.150 -0.1792  0.0992  0.4260
  719MOL0     C96970   7.531   6.466  -0.289 -0.7154 -0.5531 -0.5289
  719MOL0     C96971   7.606   6.353  -0.349 -0.5709 -1.1637 -0.4737
  719MOL0     C96972   7.509   6.267  -0.438 -0.4076  0.1614 -0.2946
  719MOL0     C96973   7.593   6.142  -0.464 -0.4224 -0.3944 -1.2815
  719MOL0    Cl96974   7.603   6.033  -0.318 -0.5487  0.4553 -0.3905
  719MOL0     C96975   7.030   6.709   0.304 -0.1018  1.0608 -0.0143
  719MOL0     C96976   6.892   6.682   0.307  0.0634  0.5892 -0.0799
  719MOL0     O96977   6.655   6.433   0.099 -0.3837  0.2344 -0.1890
  719MOL0     C96978   6.410   6.634   0.259  0.0975 -0.0164 -0.0784
  719MOL0     C96979   6.275   6.628   0.303 -0.2895 -0.3735 -1.0062
  719MOL0     N96980   5.650   6.821   0.042 -0.4201 -0.0069 -0.4740
  719MOL0     N96981   5.525   6.846   0.070  0.7749 -0.5350  0.5985
  719MOL0     C96982   4.681   6.460   0.325 -0.2531 -0.5073  0.0556
  719MOL0     C96983   4.598   6.455   0.213 -0.2995  0.8714 -0.0587
  719MOL0     C96984   4.325   6.309  -0.099  0.6459 -0.0826  1.6020
  719MOL0     C96985   4.198   6.245  -0.092  0.1771 -0.1685  0.1975
  719MOL0     C96986   4.106   6.258  -0.196 -0.0118 -0.1230 -0.5292
  719MOL0     C96987   4.137   6.320  -0.316  0.3512  0.2869  0.1079
  719MOL0     O96988   4.047   6.333  -0.422 -0.0541  0.1887 -0.1790
  719MOL0     C96989   3.929   6.246  -0.425 -0.5272  0.1516  0.0111
  719MOL0     C96990   3.849   6.286  -0.552  0.2135 -0.9273  0.1280
  719MOL0     C96991   3.708   6.234  -0.572  0.5026  0.6237 -0.3283
  719MOL0     C96992   3.693   6.076  -0.582 -0.3592 -0.2488 -1.2607
  719MOL0     C96993   3.724   6.048  -0.724  0.4712 -0.6027  0.5184
  719MOL0     C96994   3.770   6.038  -0.837  0.1887 -0.6067 -0.1309
  719MOL0     C96995   4.260   6.386  -0.320 -0.1646  0.1085  0.2369
  719MOL0     C96996   4.350   6.388  -0.220  0.0792  0.1314  0.6496
  719MOL0     C96997   4.476   6.466  -0.240 -0.2698 -0.6716  0.4836
  719MOL0     H96998   4.723   6.177   0.075  0.3840  1.2489 -0.8499
  719MOL0     H96999   4.863   6.182   0.286  0.5968  0.8533  1.0005
  719MOL0     H97000   5.013   6.353   0.586 -0.3758 -1.5118  0.8893
  719MOL0     H97001   4.959   6.217   0.486  1.6543 -0.4654  2.6714
  719MOL0     H97002   5.053   6.328   0.288 -0.0602  2.8282 -0.4220
  719MOL0     H97003   5.170   6.284   0.402 -0.0823  1.0045  2.3703
  719MOL0     H97004   5.072   6.568   0.371 -1.2455 -1.2745 -1.5187
  719MOL0     H97005   5.198   6.498   0.276 -1.8836  1.2511 -2.7867
  719MOL0     H97006   5.197   6.484   0.582 -1.6352  0.9287 -0.0131
  719MOL0     H97007   5.326   6.441   0.480 -1.4201 -1.2712  1.4218
  719MOL0     H97008   5.213   6.711   0.532 -0.9006 -1.3242  0.7320
  719MOL0     H97009   5.369   6.664   0.575  1.1152 -2.5743 -0.6919
  719MOL0     H97010   5.423   6.651   0.318  0.9437 -0.1521  2.0622
  719MOL0     H97011   5.257   6.730   0.293 -0.3704  2.0651  0.8969
  719MOL0     H97012   5.482   6.848   0.437  0.5835 -2.0660 -1.8363
  719MOL0     H97013   5.302   6.899   0.455 -1.2554 -4.3984  2.5408
  719MOL0     H97014   5.313   6.902   0.190  0.3970 -0.4226 -1.4737
  719MOL0     H97015   5.397   7.039   0.287 -2.2347 -1.1969  2.4533
  719MOL0     H97016   5.676   6.984   0.333  0.5157  3.0624 -2.1748
  719MOL0     H97017   5.908   6.800   0.068  2.1399 -0.3653  1.4166
  719MOL0     H97018   5.913   6.947   0.167 -0.4496  0.0550 -3.2577
  719MOL0     H97019   6.006   6.753   0.293 -0.3254  0.8786 -1.3935
  719MOL0     H97020   5.863   6.808   0.379 -1.0462 -3.0972  1.9848
  719MOL0     H97021   5.777   6.606   0.200  1.0293  3.1713 -0.9740
  719MOL0     H97022   5.809   6.573   0.370 -4.2175  2.7721 -0.6011
  719MOL0     H97023   6.010   6.559   0.126 -0.0163 -0.8169 -0.5482
  719MOL0     H97024   5.932   6.422   0.201 -0.9051  0.6207  1.0680
  719MOL0     H97025   6.207   6.326   0.180 -2.2844  0.1349  1.5584
  719MOL0     H97026   6.437   6.330   0.125  2.6081  0.4217 -0.3360
  719MOL0     H97027   6.861   6.525   0.006  0.5375 -0.9645 -0.1199
  719MOL0     H97028   7.091   6.580  -0.008  1.3565 -0.2340 -0.2618
  719MOL0     H97029   7.237   6.741  -0.038  0.5554  2.7562  0.6618
  719MOL0     H97030   7.374   6.796   0.042 -1.2745  0.6056  1.9949
  719MOL0     H97031   7.464   6.606   0.097 -3.1074  3.6975  1.1440
  719MOL0     H97032   7.328   6.499   0.053  0.1491  0.1714  0.0844
  719MOL0     H97033   7.335   6.597  -0.178 -1.5618 -1.5599  0.6258
  719MOL0     H97034   7.489   6.672  -0.141 -2.5675  1.1626 -2.7857
  719MOL0     H97035   7.395   6.374  -0.144  0.1338 -0.1110  3.4747
  719MOL0     H97036   7.553   6.421  -0.075  1.6508  4.0015  0.1104
  719MOL0     H97037   7.609   6.542  -0.278 -3.9500  2.8766  0.8378
  719MOL0     H97038   7.459   6.509  -0.359 -2.2650  0.9485  1.8459
  719MOL0     H97039   7.687   6.396  -0.409 -0.9970  0.7093  0.2481
  719MOL0     H97040   7.672   6.306  -0.276  2.4766  2.2792 -0.7175
  719MOL0     H97041   7.483   6.315  -0.533  3.5659  2.5316 -0.4124
  719MOL0     H97042   7.414   6.258  -0.385 -0.2302  2.7692  0.6209
  719MOL0     H97043   7.543   6.085  -0.544 -1.8296  1.6223 -1.9182
  719MOL0     H97044   7.690   6.179  -0.498 -0.3255  2.9189  2.0603
  719MOL0     H97045   7.086   6.751   0.387  0.3291  0.6320 -0.0860
  719MOL0     H97046   6.840   6.705   0.400 -1.4907 -1.2290 -0.4325
  719MOL0     H97047   6.473   6.720   0.276 -0.0147 -0.2171  1.5190
  719MOL0     H97048   6.228   6.707   0.362  0.1872 -1.1031  0.3968
  719MOL0     H97049   4.665   6.544   0.391  0.5606 -0.4384  0.1776
  719MOL0     H97050   4.526   6.535   0.218  0.2805  1.3344  1.4860
  719MOL0     H97051   4.167   6.185  -0.008 -4.4749  2.4439  0.7049
  719MOL0     H97052   4.011   6.204  -0.188  1.0009 -1.7077  2.4834
  719MOL0     H97053   3.873   6.261  -0.332  1.1727 -0.2630  1.1406
  719MOL0     H97054   3.964   6.142  -0.422 -0.7564  0.0299  3.6148
  719MOL0     H97055   3.917   6.255  -0.632  1.4373 -0.2734  0.8829
  719MOL0     H97056   3.833   6.394  -0.549 -1.5543 -1.1567 -0.0419
  719MOL0     H97057   3.675   6.283  -0.664  1.6624  3.1767  0.5224
  719MOL0     H97058   3.651   6.262  -0.483  1.0132  0.9853 -0.1129
  719MOL0     H97059   3.768   6.038  -0.512 -0.9044  0.1659 -0.4390
  719MOL0     H97060   3.593   6.049  -0.548 -0.7799  2.9641  0.3432
  719MOL0     H97061   3.811   6.034  -0.936 -1.8565 -0.8740 -1.0299
  719MOL0     H97062   4.284   6.432  -0.416 -0.6719  1.2038  0.6186
  719MOL0     H97063   4.476   6.521  -0.335 -0.6339  0.9996  1.4169
  719MOL0     H97064   4.476   6.538  -0.158  1.7788 -0.4814  0.3708
  719MOL0     H97065   4.563   6.402  -0.223 -0.0566  0.0374  2.3542
  720MOL0     O97066   6.672   1.088   4.941  0.6096 -0.2017 -0.5183
  720MOL0     C97067   6.701   1.172   4.857 -0.2153 -0.1854 -0.0453
  720MOL0     O97068   6.770   1.141   4.734  0.0196  0.4108  0.9717
  720MOL0     C97069   6.802   1.014   4.692  0.2824  0.3975 -0.3794
  720MOL0     C97070   6.806   0.894   4.772 -0.0245 -0.9313  0.3788
  720MOL0     C97071   6.845   0.774   4.706 -0.6673  0.0212  0.1223
  720MOL0     C97072   6.903   0.775   4.578 -0.4257  0.5123  0.1071
  720MOL0     O97073   6.960   0.667   4.507  0.2235  0.1484  0.1077
  720MOL0     C97074   6.972   0.535   4.569  0.0473  0.1354 -0.6962
  720MOL0     C97075   7.086   0.529   4.660 -0.3195  0.7067 -0.1506
  720MOL0     C97076   7.210   0.549   4.578  0.0669  0.7891 -0.6634
  720MOL0     C97077   7.344   0.518   4.647 -1.1463  0.2972 -0.4498
  720MOL0     C97078   7.455   0.586   4.564 -0.6553  0.6807 -0.7540
  720MOL0     C97079   7.592   0.543   4.624 -0.1759 -0.1245 -0.6061
  720MOL0     C97080   7.711   0.611   4.552  0.2097  0.3304  0.2811
  720MOL0     C97081   7.705   0.765   4.558  0.0874 -0.9154  0.1206
  720MOL0     N97082   7.820   0.837   4.509 -0.7026  1.1476  0.4438
  720MOL0     C97083   7.815   0.934   4.401  0.0163  0.2144 -0.2059
  720MOL0     C97084   7.940   0.983   4.396  0.3143 -0.5432  0.1241
  720MOL0     C97085   7.998   1.071   4.289  0.1070  1.2669 -0.8527
  720MOL0     C97086   7.930   1.204   4.306 -0.5111 -0.6183  0.0615
  720MOL0     C97087   7.984   1.305   4.205  1.0954 -0.4964 -0.1618
  720MOL0     C97088   8.127   1.336   4.228  0.2475  0.0734  0.0694
  720MOL0     O97089   8.175   1.448   4.147 -0.1535  0.5804 -0.2855
  720MOL0     C97090   8.301   1.418   4.104 -0.4236  0.4045  0.8732
  720MOL0     C97091   8.411   1.476   4.166 -0.0479  0.0291 -0.2061
  720MOL0     C97092   8.545   1.476   4.118  0.0972  0.5963 -0.0479
  720MOL0     C97093   8.574   1.390   4.014 -0.6011  0.8921  0.5121
  720MOL0     C97094   8.714   1.391   3.968 -0.7029 -0.2924  0.3949
  720MOL0     O97095   8.790   1.503   3.999 -0.0272  0.4120 -0.2280
  720MOL0     C97096   8.927   1.478   3.960 -0.8037  0.2260  0.0776
  720MOL0     C97097   9.025   1.434   4.054 -0.2800  0.3904  0.6857
  720MOL0     C97098   9.168   1.437   4.022 -0.4411  0.9932 -0.0245
  720MOL0     C97099   9.208   1.484   3.897 -0.6302 -0.5802 -0.1568
  720MOL0     O97100   9.336   1.502   3.845 -0.4001 -0.3125 -0.1225
  720MOL0     C97101   9.469   1.471   3.918  0.5665 -0.0762  0.0937
  720MOL0     C97102   9.516   1.565   4.018  0.7830  0.5039 -0.6240
  720MOL0     C97103   9.645   1.527   4.095  0.3779 -0.1372 -0.3394
  720MOL0     C97104   9.672   1.639   4.200  0.2957  0.7928  0.3449
  720MOL0     C97105   9.796   1.607   4.286  0.1455 -0.1718 -0.0569
  720MOL0     C97106   9.832   1.713   4.398  0.2343  0.8962  1.1731
  720MOL0     C97107   9.897   1.840   4.339 -0.7767 -0.7265 -0.4367
  720MOL0     C97108   9.988   1.909   4.446  0.2675 -0.4069  0.5023
  720MOL0    Cl97109  10.159   1.861   4.441  0.0418 -0.2070  0.2966
  720MOL0     C97110   9.110   1.517   3.798  0.8360  0.7678 -0.6744
  720MOL0     C97111   8.973   1.519   3.830  0.2300 -0.3018  0.2508
  720MOL0     O97112   8.755   1.300   3.890 -0.1154 -0.4513 -0.6233
  720MOL0     C97113   8.462   1.337   3.942  0.6616 -0.2057  0.8914
  720MOL0     C97114   8.331   1.346   3.988 -0.4801 -1.1770 -0.1077
  720MOL0     N97115   8.017   0.918   4.488  0.2981  0.1711 -0.2340
  720MOL0     N97116   7.947   0.833   4.556  0.4011  0.2508 -0.1148
  720MOL0     C97117   6.902   0.890   4.504  0.5363 -0.3584 -0.2518
  720MOL0     C97118   6.856   1.012   4.562  0.5849 -0.1927 -0.0182
  720MOL0     C97119   6.686   1.313   4.886  0.7503 -0.6801 -0.3775
  720MOL0     C97120   6.707   1.399   4.775 -1.1137 -0.0445 -0.0462
  720MOL0     C97121   6.671   1.539   4.791 -0.3993  0.3589  0.2958
  720MOL0     C97122   6.603   1.583   4.906 -0.8430  0.2525 -0.5570
  720MOL0     O97123   6.560   1.720   4.910  0.7749  0.0214 -0.0100
  720MOL0     C97124   6.504   1.770   5.027 -0.6582 -0.3634 -0.2937
  720MOL0     C97125   6.402   1.885   4.995 -0.5825  0.1068 -0.3867
  720MOL0     C97126   6.404   2.019   5.074  0.7224 -0.5779  0.0596
  720MOL0     C97127   6.541   2.091   5.080 -0.7809 -0.3205  0.0281
  720MOL0     C97128   6.613   2.097   4.948 -0.7752  0.5254 -0.4528
  720MOL0     C97129   6.684   2.085   4.846  0.0429  0.8932 -0.4453
  720MOL0     C97130   6.595   1.493   5.017  0.1620  0.1737 -0.3650
  720MOL0     C97131   6.634   1.362   5.012 -0.4951  0.3546 -0.0294
  720MOL0     C97132   6.614   1.283   5.137  0.0153 -0.0905 -0.5529
  720MOL0     H97133   6.784   0.889   4.878 -2.4073 -0.3669 -0.0378
  720MOL0     H97134   6.851   0.681   4.763  0.0514  0.4846  0.8224
  720MOL0     H97135   6.879   0.522   4.625 -0.1810  4.8371  0.4498
  720MOL0     H97136   6.972   0.462   4.488  4.7566 -0.7073 -0.2268
  720MOL0     H97137   7.085   0.435   4.716  1.9120  0.2391 -0.7991
  720MOL0     H97138   7.078   0.611   4.732 -1.7918 -0.1963  0.7485
  720MOL0     H97139   7.201   0.657   4.567  1.5149  1.0447  0.3755
  720MOL0     H97140   7.203   0.503   4.479  0.0772  3.0963 -1.8136
  720MOL0     H97141   7.334   0.560   4.748  2.8516  0.0467  0.2413
  720MOL0     H97142   7.365   0.412   4.659 -0.1879  0.6641  1.7204
  720MOL0     H97143   7.451   0.547   4.462 -1.0841 -1.9361  0.1967
  720MOL0     H97144   7.443   0.695   4.562  1.8695  1.0529  0.3277
  720MOL0     H97145   7.604   0.564   4.731 -1.2901  0.9545 -0.6623
  720MOL0     H97146   7.594   0.436   4.602 -0.9391  0.1053 -1.8829
  720MOL0     H97147   7.714   0.582   4.447  1.5177  0.1842  0.3432
  720MOL0     H97148   7.801   0.578   4.605 -1.2188 -1.9473  1.4686
  720MOL0     H97149   7.619   0.811   4.507  0.3672  1.2060  1.4233
  720MOL0     H97150   7.700   0.785   4.666 -1.5763 -0.1837 -0.0535
  720MOL0     H97151   7.738   0.949   4.327  1.4848 -2.0977 -2.3690
  720MOL0     H97152   8.106   1.079   4.306  0.3100 -1.3597 -0.4814
  720MOL0     H97153   7.989   1.034   4.187  0.5938  0.0083 -0.4613
  720MOL0     H97154   7.821   1.193   4.298 -0.4276 -2.5188  1.0123
  720MOL0     H97155   7.964   1.249   4.399 -2.0556  1.2125 -0.2063
  720MOL0     H97156   7.927   1.398   4.210  3.0931  0.7227  1.6166
  720MOL0     H97157   7.977   1.267   4.103  2.1996  0.4565 -0.6095
  720MOL0     H97158   8.183   1.249   4.192  0.4860  1.1901 -2.4867
  720MOL0     H97159   8.133   1.359   4.334 -1.3634  0.6686  0.0587
  720MOL0     H97160   8.401   1.529   4.260  2.1838 -1.9416  1.2404
  720MOL0     H97161   8.619   1.522   4.182 -0.0409  0.2118  0.3957
  720MOL0     H97162   8.991   1.398   4.151  0.5388 -3.8075 -0.3693
  720MOL0     H97163   9.255   1.421   4.085 -0.2611  0.5304 -0.3862
  720MOL0     H97164   9.450   1.373   3.963 -0.6529  0.4128  0.6992
  720MOL0     H97165   9.548   1.444   3.847  0.3107 -1.3359  0.2763
  720MOL0     H97166   9.534   1.656   3.961 -1.2438  0.0551 -2.1229
  720MOL0     H97167   9.430   1.579   4.084 -1.1086 -4.6871 -1.4891
  720MOL0     H97168   9.627   1.434   4.150  0.6515  0.5701  1.0053
  720MOL0     H97169   9.723   1.499   4.024  1.2236 -3.9832  1.8070
  720MOL0     H97170   9.593   1.649   4.275  0.6392  1.1837  0.6546
  720MOL0     H97171   9.684   1.737   4.153 -0.9489  1.5652  1.5744
  720MOL0     H97172   9.883   1.594   4.222  0.1278 -1.4534  0.1562
  720MOL0     H97173   9.791   1.507   4.330 -1.2875 -0.7726 -1.5117
  720MOL0     H97174   9.737   1.739   4.446  0.4028  2.8092  0.5473
  720MOL0     H97175   9.899   1.666   4.471  0.9335  2.0087  1.2713
  720MOL0     H97176   9.817   1.912   4.318  1.0087  1.7487  0.7458
  720MOL0     H97177   9.953   1.828   4.246 -2.5259 -1.3663 -1.4681
  720MOL0     H97178   9.995   2.018   4.437  3.6080 -0.5549 -0.2556
  720MOL0     H97179   9.944   1.880   4.542 -3.7291  0.2556 -0.9777
  720MOL0     H97180   9.145   1.528   3.696  4.2392 -0.6760  0.1928
  720MOL0     H97181   8.903   1.532   3.749  0.3014  0.2624  0.2777
  720MOL0     H97182   8.478   1.284   3.848  1.9642 -1.2416  1.6601
  720MOL0     H97183   8.254   1.295   3.932  1.2164 -3.1618 -0.7670
  720MOL0     H97184   6.933   0.900   4.400 -1.2993  0.5971 -0.7496
  720MOL0     H97185   6.865   1.103   4.503 -1.6481  0.8297  1.1118
  720MOL0     H97186   6.743   1.365   4.679 -0.3927 -1.5903  0.7276
  720MOL0     H97187   6.689   1.606   4.708 -1.2795  1.4002  0.9203
  720MOL0     H97188   6.597   1.801   5.075 -0.5114  0.2174 -0.9335
  720MOL0     H97189   6.450   1.684   5.066  0.1896 -0.5186  0.5647
  720MOL0     H97190   6.304   1.836   5.002 -0.7886  0.6851  1.0458
  720MOL0     H97191   6.411   1.912   4.890  0.3127  1.7538  0.0950
  720MOL0     H97192   6.367   2.002   5.176  0.8094 -2.8488 -0.2265
  720MOL0     H97193   6.331   2.076   5.017 -0.9548 -3.6197 -1.0677
  720MOL0     H97194   6.541   2.191   5.123  1.9931 -1.6558  3.6953
  720MOL0     H97195   6.613   2.038   5.144 -1.0514  0.0801  0.6722
  720MOL0     H97196   6.746   2.068   4.761 -0.9757  0.2454 -1.0845
  720MOL0     H97197   6.557   1.519   5.115 -0.2585 -4.7450  1.0388
  720MOL0     H97198   6.703   1.223   5.157  0.7446  1.3472  0.7327
  720MOL0     H97199   6.592   1.350   5.221  1.3463 -2.7984  2.1254
  720MOL0     H97200   6.523   1.224   5.122 -0.7757 -0.1558  3.4456
  721MOL0     O97201   6.686   7.797   6.602  0.3645 -0.2906  0.4207
  721MOL0     C97202   6.613   7.701   6.622 -1.0289  0.4442 -1.3723
  721MOL0     O97203   6.484   7.720   6.684 -0.0436  0.7863  0.6447
  721MOL0     C97204   6.434   7.849   6.675  0.5430  0.3087 -0.2777
  721MOL0     C97205   6.414   7.905   6.548  0.4304 -0.1659  0.3459
  721MOL0     C97206   6.329   8.023   6.527  0.3404  1.0066 -0.8985
  721MOL0     C97207   6.279   8.090   6.639 -0.7210 -0.4237  0.0549
  721MOL0     O97208   6.209   8.206   6.613  0.2410 -0.7073 -0.8830
  721MOL0     C97209   6.285   8.327   6.630  0.4480  0.6395  0.0871
  721MOL0     C97210   6.220   8.412   6.748  0.2927  1.1514 -0.1141
  721MOL0     C97211   6.085   8.465   6.706 -0.2257  0.7641  0.3663
  721MOL0     C97212   6.083   8.587   6.611 -0.6944 -0.1457  0.7733
  721MOL0     C97213   5.934   8.646   6.596  0.1998  0.7835 -0.0390
  721MOL0     C97214   5.898   8.737   6.717  0.2022  0.7045 -0.3934
  721MOL0     C97215   5.759   8.801   6.710  0.0187  0.0109  0.4061
  721MOL0     C97216   5.744   8.910   6.827  0.0859  0.0230  0.1193
  721MOL0     N97217   5.628   8.994   6.798  0.5772  0.0824  0.2983
  721MOL0     C97218   5.540   9.019   6.897  0.0096 -0.4355 -0.3112
  721MOL0     C97219   5.435   9.077   6.845  0.6745  0.4221 -0.2680
  721MOL0     C97220   5.301   9.106   6.902  0.3551  0.8191  0.2773
  721MOL0     C97221   5.205   8.977   6.914  0.3482 -0.2912 -0.1362
  721MOL0     C97222   5.062   9.000   6.978  0.4678 -0.0247 -0.0565
  721MOL0     C97223   4.977   9.114   6.928  0.4326 -0.7122 -0.7242
  721MOL0     O97224   5.003   9.146   6.800 -0.8251 -0.6800  0.0705
  721MOL0     C97225   4.921   9.226   6.733 -0.2398 -0.0162 -0.7840
  721MOL0     C97226   4.934   9.225   6.596  0.6140 -0.0799 -0.0418
  721MOL0     C97227   4.852   9.295   6.513 -0.1580 -0.1925 -0.3649
  721MOL0     C97228   4.751   9.373   6.568 -0.4638 -0.2344 -0.6624
  721MOL0     C97229   4.651   9.437   6.484  0.6079  0.9660  0.0031
  721MOL0     O97230   4.565   9.522   6.552  0.6261  0.0338 -0.1946
  721MOL0     C97231   4.452   9.573   6.482  1.1785 -0.6525 -0.0215
  721MOL0     C97232   4.375   9.500   6.382  0.3476  0.2045  0.2719
  721MOL0     C97233   4.252   9.555   6.320 -0.7503  0.8987 -0.7360
  721MOL0     C97234   4.208   9.678   6.366 -0.0043 -0.0635 -1.0252
  721MOL0     O97235   4.093   9.732   6.312 -0.0930  0.2338 -0.0005
  721MOL0     C97236   3.993   9.801   6.385  1.0306  0.2399 -0.2349
  721MOL0     C97237   3.990   9.951   6.373 -0.6742 -0.0844 -0.0736
  721MOL0     C97238   3.871  10.023   6.435  0.6969 -0.4115 -0.2650
  721MOL0     C97239   3.868  10.173   6.391  0.2231  0.3104  0.5525
  721MOL0     C97240   3.776  10.267   6.477  0.2305 -0.5062 -0.1142
  721MOL0     C97241   3.628  10.232   6.450  0.5350 -0.8596 -0.6558
  721MOL0     C97242   3.536  10.329   6.526  0.4650 -0.1485  0.6793
  721MOL0     C97243   3.385  10.302   6.481  0.2147 -0.6857 -0.2680
  721MOL0    Cl97244   3.273  10.381   6.597  0.1844 -0.1363  0.0939
  721MOL0     C97245   4.281   9.750   6.463  0.1381  0.7046  0.5888
  721MOL0     C97246   4.405   9.699   6.514 -0.5283 -0.5160  0.0098
  721MOL0     O97247   4.652   9.413   6.367 -0.0841  0.2529 -0.5806
  721MOL0     C97248   4.742   9.380   6.707  0.3702 -0.5606  0.3945
  721MOL0     C97249   4.815   9.298   6.788 -0.2622  0.6518 -0.1567
  721MOL0     N97250   5.467   9.096   6.711  0.1530 -0.0295  0.3704
  721MOL0     N97251   5.586   9.051   6.683  0.0696 -1.0318 -0.3568
  721MOL0     C97252   6.307   8.033   6.770 -0.0008  0.0364 -0.6039
  721MOL0     C97253   6.378   7.911   6.784  0.3716  0.0657 -1.2531
  721MOL0     C97254   6.669   7.557   6.604  0.5783 -0.4485 -1.2824
  721MOL0     C97255   6.608   7.464   6.688  0.2845 -0.0124 -0.4509
  721MOL0     C97256   6.651   7.329   6.689 -1.3055 -1.2081 -0.3366
  721MOL0     C97257   6.755   7.288   6.607 -0.9986  0.0906  0.0928
  721MOL0     O97258   6.822   7.159   6.612 -0.3840  0.2060  0.0078
  721MOL0     C97259   6.758   7.045   6.673  0.0064 -0.1215  0.2015
  721MOL0     C97260   6.652   6.969   6.593  0.1347  1.1899  0.1272
  721MOL0     C97261   6.717   6.866   6.493 -0.6750  0.1750  0.7300
  721MOL0     C97262   6.757   6.937   6.360 -0.5394  0.5636  0.0330
  721MOL0     C97263   6.803   6.843   6.256  0.1965  0.1119 -0.7896
  721MOL0     C97264   6.837   6.750   6.181 -0.3891 -0.2847  0.0255
  721MOL0     C97265   6.815   7.386   6.528  0.0816 -0.0663  0.0506
  721MOL0     C97266   6.768   7.515   6.523  0.4664 -0.4679  1.1270
  721MOL0     C97267   6.819   7.610   6.422 -0.0481  0.3133  0.4496
  721MOL0     H97268   6.442   7.858   6.454 -1.5415 -0.8380  0.0564
  721MOL0     H97269   6.305   8.047   6.425 -0.1860 -1.3728 -1.4087
  721MOL0     H97270   6.392   8.306   6.641  0.3541 -0.9558 -1.5112
  721MOL0     H97271   6.275   8.379   6.534  3.0736 -1.5723 -1.5527
  721MOL0     H97272   6.294   8.487   6.777  0.9675  1.4220 -2.2838
  721MOL0     H97273   6.200   8.340   6.828  1.4082 -2.1972 -2.6012
  721MOL0     H97274   6.048   8.501   6.803 -0.1644  0.2466  0.5804
  721MOL0     H97275   6.021   8.387   6.665  0.4689  0.8260 -0.8837
  721MOL0     H97276   6.147   8.669   6.645  1.0573 -1.0052 -0.2953
  721MOL0     H97277   6.131   8.552   6.519 -3.3742  1.4710 -1.3886
  721MOL0     H97278   5.931   8.696   6.499 -1.4414 -2.2878 -1.7367
  721MOL0     H97279   5.868   8.559   6.593  1.1432 -0.2990  4.0832
  721MOL0     H97280   5.907   8.679   6.810 -0.8071  0.5671 -0.3661
  721MOL0     H97281   5.967   8.822   6.718 -0.8809  1.6177  0.0107
  721MOL0     H97282   5.687   8.721   6.732  1.0039 -0.9292  0.2822
  721MOL0     H97283   5.740   8.842   6.611  3.0765 -1.6493 -1.0213
  721MOL0     H97284   5.737   8.866   6.927 -0.6561  1.9765  0.9898
  721MOL0     H97285   5.831   8.977   6.830  0.2011  0.0733 -2.4384
  721MOL0     H97286   5.549   8.970   6.993  0.8502  0.0690 -0.1201
  721MOL0     H97287   5.312   9.143   7.005  0.6706  2.5904 -0.3483
  721MOL0     H97288   5.258   9.189   6.844  0.7564  1.9454  1.5278
  721MOL0     H97289   5.190   8.940   6.812 -0.2024 -0.1809 -0.0980
  721MOL0     H97290   5.248   8.892   6.967  2.1628 -0.8965 -2.4198
  721MOL0     H97291   5.064   9.001   7.087 -1.3232  2.7477  0.0650
  721MOL0     H97292   5.012   8.905   6.962  1.2492 -0.3284 -0.7879
  721MOL0     H97293   4.997   9.202   6.990 -1.5665 -3.0920  3.7833
  721MOL0     H97294   4.873   9.082   6.934 -0.1573  0.8684 -1.9068
  721MOL0     H97295   5.011   9.164   6.550  0.0667 -0.7714 -0.0591
  721MOL0     H97296   4.859   9.266   6.409 -0.6039 -4.5911  0.6109
  721MOL0     H97297   4.410   9.407   6.339  1.6365  0.6681  0.2687
  721MOL0     H97298   4.202   9.500   6.242 -0.2533 -2.2787  1.0089
  721MOL0     H97299   3.903   9.762   6.338 -0.2493  3.3791 -0.6054
  721MOL0     H97300   3.995   9.769   6.490  2.1995  0.4978 -0.1541
  721MOL0     H97301   4.085   9.993   6.407 -1.1282  0.8429  0.0693
  721MOL0     H97302   3.986   9.972   6.266 -1.6779  0.9407  0.1411
  721MOL0     H97303   3.776   9.971   6.420 -1.3409  2.8839  0.3011
  721MOL0     H97304   3.882  10.020   6.543  0.4847  2.7059 -0.0490
  721MOL0     H97305   3.846  10.176   6.284 -2.2210 -1.0051  0.9454
  721MOL0     H97306   3.963  10.224   6.405  0.2100  0.7961 -0.9919
  721MOL0     H97307   3.783  10.371   6.443 -1.1558 -0.4502 -0.3009
  721MOL0     H97308   3.795  10.259   6.584 -3.2399  1.4687  0.7920
  721MOL0     H97309   3.603  10.234   6.343 -0.2853 -0.3042 -0.4671
  721MOL0     H97310   3.591  10.134   6.479 -0.6719 -0.1448  0.3355
  721MOL0     H97311   3.556  10.437   6.517  2.8941 -0.6111 -0.1422
  721MOL0     H97312   3.541  10.298   6.631  2.3241  1.0916  1.0209
  721MOL0     H97313   3.367  10.318   6.374  2.3371 -2.0884 -0.9256
  721MOL0     H97314   3.368  10.196   6.503  0.8459 -0.0928  3.7286
  721MOL0     H97315   4.244   9.846   6.497 -1.0904  1.8939 -3.4426
  721MOL0     H97316   4.455   9.759   6.590 -1.7560  2.7062 -1.5229
  721MOL0     H97317   4.664   9.438   6.756 -0.8450 -2.0243  0.2886
  721MOL0     H97318   4.784   9.289   6.891  0.6425  0.4934  0.1127
  721MOL0     H97319   6.266   8.085   6.857  2.5052 -0.0039  0.6908
  721MOL0     H97320   6.398   7.869   6.882 -1.4156 -1.0590 -1.3204
  721MOL0     H97321   6.521   7.481   6.749  0.5215 -0.3598 -0.0099
  721MOL0     H97322   6.603   7.258   6.755 -1.4113 -1.0395 -0.2311
  721MOL0     H97323   6.706   7.082   6.761  0.2755 -0.5838  0.5571
  721MOL0     H97324   6.836   6.980   6.715 -0.2570  0.3828  1.5060
  721MOL0     H97325   6.594   7.045   6.539 -0.3632 -0.0581 -1.1659
  721MOL0     H97326   6.599   6.904   6.663  2.8787 -4.4995 -2.4215
  721MOL0     H97327   6.643   6.789   6.470 -1.8950  1.1278  1.3111
  721MOL0     H97328   6.806   6.823   6.539  0.8288 -0.6564 -2.6808
  721MOL0     H97329   6.669   6.994   6.327 -0.5410  0.5663  0.0415
  721MOL0     H97330   6.830   7.019   6.361 -0.0975  0.1639  0.8257
  721MOL0     H97331   6.880   6.671   6.123  0.5946  0.9637 -0.9947
  721MOL0     H97332   6.899   7.358   6.465 -0.1071  0.9162 -0.6621
  721MOL0     H97333   6.748   7.686   6.390  1.1600  0.4047 -2.2545
  721MOL0     H97334   6.905   7.666   6.461 -0.9198  1.6173  0.5434
  721MOL0     H97335   6.865   7.547   6.345  0.6127 -0.2270  1.2591
  722MOL0     O97336   1.069   3.173   7.026  0.0150  0.8183 -0.2360
  722MOL0     C97337   1.149   3.123   6.941 -0.3197 -0.3832 -0.2205
  722MOL0     O97338   1.287   3.146   6.946  0.3033 -0.3501 -0.0502
  722MOL0     C97339   1.335   3.179   7.068  0.3895 -0.9702  0.4692
  722MOL0     C97340   1.343   3.085   7.169  0.8357  0.6438 -0.5782
  722MOL0     C97341   1.394   3.110   7.296  0.4760  0.1604  0.3759
  722MOL0     C97342   1.445   3.241   7.327 -0.0668 -1.0421 -1.0996
  722MOL0     O97343   1.488   3.261   7.455  0.3229 -0.7305 -0.4338
  722MOL0     C97344   1.494   3.399   7.505  0.0084  0.4913  0.7149
  722MOL0     C97345   1.633   3.460   7.481  0.4015  0.3882 -0.3980
  722MOL0     C97346   1.735   3.395   7.568 -1.3790 -0.1218 -0.5503
  722MOL0     C97347   1.863   3.461   7.524  0.3962  0.5885  0.1376
  722MOL0     C97348   1.973   3.412   7.614  0.2229  0.0872 -0.2680
  722MOL0     C97349   2.114   3.481   7.596 -0.0830 -0.4114  0.7950
  722MOL0     C97350   2.229   3.462   7.699 -0.4621  0.0657 -0.3079
  722MOL0     C97351   2.278   3.316   7.721 -0.3639 -0.6816  0.6527
  722MOL0     N97352   2.379   3.257   7.628 -0.2278  0.0824 -0.6208
  722MOL0     C97353   2.506   3.300   7.604 -0.2042 -0.1640 -0.2238
  722MOL0     C97354   2.546   3.216   7.501 -0.3420 -0.0452 -1.3020
  722MOL0     C97355   2.683   3.198   7.448 -0.0718 -0.2738 -0.0595
  722MOL0     C97356   2.764   3.081   7.500  0.4574  0.0166  0.6624
  722MOL0     C97357   2.761   3.060   7.642 -0.5756  0.0975  0.7206
  722MOL0     C97358   2.850   3.164   7.707 -0.4651 -0.6017 -1.1298
  722MOL0     O97359   2.851   3.132   7.851 -0.2345 -0.3988 -0.4950
  722MOL0     C97360   2.955   3.184   7.928 -0.3314  1.0525 -0.8626
  722MOL0     C97361   2.997   3.099   8.034  0.4766  0.5130  0.8530
  722MOL0     C97362   3.104   3.130   8.121  0.5386  0.5787  0.3150
  722MOL0     C97363   3.157   3.261   8.117  0.5289 -0.2593 -0.8620
  722MOL0     C97364   3.245   3.310   8.226  0.7313  0.7687  0.2650
  722MOL0     O97365   3.272   3.439   8.217  0.1156  0.0097 -0.3961
  722MOL0     C97366   3.366   3.501   8.299 -0.1791  0.3960  0.1734
  722MOL0     C97367   3.458   3.459   8.396  0.9523  0.3569 -0.2285
  722MOL0     C97368   3.545   3.539   8.469 -0.5282  0.7667  1.4896
  722MOL0     C97369   3.543   3.674   8.449  0.1434 -0.3007  0.3952
  722MOL0     O97370   3.591   3.768   8.533 -0.7826 -0.2572 -0.2669
  722MOL0     C97371   3.652   3.731   8.660  0.1372  0.7840 -0.3603
  722MOL0     C97372   3.808   3.710   8.651 -0.1040 -0.4276  0.1529
  722MOL0     C97373   3.878   3.846   8.677  0.4670 -0.5849  0.1421
  722MOL0     C97374   4.034   3.836   8.665  0.1589  0.0671 -0.1149
  722MOL0     C97375   4.098   3.972   8.686  0.2306 -0.1160 -0.9313
  722MOL0     C97376   4.234   3.971   8.754 -0.5008  0.1671 -0.4229
  722MOL0     C97377   4.350   3.908   8.675 -1.0666 -0.9117  0.2700
  722MOL0     C97378   4.404   4.004   8.571 -0.0637  0.4180  0.0647
  722MOL0    Cl97379   4.517   3.927   8.459  0.1560 -0.1741  0.3477
  722MOL0     C97380   3.461   3.728   8.347  0.1783 -0.1549  0.2196
  722MOL0     C97381   3.379   3.640   8.261 -0.2830 -0.9585  0.2679
  722MOL0     O97382   3.288   3.232   8.307 -0.4288  0.4086  0.3843
  722MOL0     C97383   3.112   3.343   8.012  0.9398 -0.4172  0.6068
  722MOL0     C97384   3.016   3.309   7.915  0.2216 -0.4319 -0.0521
  722MOL0     N97385   2.439   3.130   7.480 -0.2177 -0.3076  0.3876
  722MOL0     N97386   2.341   3.154   7.547 -0.1875 -0.2199  0.3789
  722MOL0     C97387   1.447   3.332   7.220 -0.2489 -1.0994 -0.7191
  722MOL0     C97388   1.397   3.301   7.093  0.3649 -0.4657 -0.4302
  722MOL0     C97389   1.104   3.055   6.820  0.0799  0.2903  0.3618
  722MOL0     C97390   0.965   3.020   6.820  0.1478  0.1050  0.1019
  722MOL0     C97391   0.897   2.984   6.696 -0.8369 -1.1691  0.3849
  722MOL0     C97392   0.971   2.962   6.578  0.3948 -0.0353 -0.1502
  722MOL0     O97393   0.900   2.928   6.465  0.1182 -0.9169  0.3343
  722MOL0     C97394   0.807   2.815   6.472  0.6075 -0.3100  1.1659
  722MOL0     C97395   0.676   2.820   6.389  0.5827  0.0779 -0.9011
  722MOL0     C97396   0.600   2.951   6.415  0.5517  0.1668 -0.7644
  722MOL0     C97397   0.477   2.973   6.330 -0.8972 -0.7804 -0.2917
  722MOL0     C97398   0.522   3.049   6.218 -0.2896 -0.6039  0.4301
  722MOL0     C97399   0.555   3.113   6.117 -0.1202  0.4006 -0.3111
  722MOL0     C97400   1.108   2.980   6.588  0.2546 -0.5911  0.0668
  722MOL0     C97401   1.178   3.032   6.698 -0.6030  0.3969 -0.2581
  722MOL0     C97402   1.316   3.078   6.664  0.0402  0.2101 -0.4610
  722MOL0     H97403   1.306   2.985   7.151 -0.0913  0.7777  0.4080
  722MOL0     H97404   1.386   3.033   7.372 -0.0745 -1.8455 -1.6212
  722MOL0     H97405   1.415   3.462   7.464  1.5435  2.3880  0.5045
  722MOL0     H97406   1.485   3.400   7.614 -0.5873  0.3157  0.6699
  722MOL0     H97407   1.624   3.568   7.498 -2.3096  0.0070  1.0601
  722MOL0     H97408   1.651   3.463   7.373  0.9623 -0.5380 -0.3401
  722MOL0     H97409   1.736   3.288   7.544  0.1575  0.0408 -1.2794
  722MOL0     H97410   1.710   3.419   7.672 -1.9887  1.2381 -0.9956
  722MOL0     H97411   1.882   3.439   7.419 -0.0890  3.0550 -0.5216
  722MOL0     H97412   1.848   3.569   7.533  2.1882  0.9432 -0.7032
  722MOL0     H97413   1.946   3.425   7.719  0.4308 -3.9159  0.4342
  722MOL0     H97414   1.977   3.305   7.592  1.9396  0.3877 -1.7006
  722MOL0     H97415   2.147   3.448   7.496  1.2534 -1.7649  1.6325
  722MOL0     H97416   2.091   3.587   7.588 -0.2272 -0.5005 -0.1926
  722MOL0     H97417   2.211   3.517   7.792  0.5716  3.4439 -1.9522
  722MOL0     H97418   2.310   3.519   7.652 -0.0657 -1.4146 -1.4985
  722MOL0     H97419   2.322   3.323   7.821 -1.5862 -1.8954  1.3112
  722MOL0     H97420   2.192   3.250   7.730 -0.4183 -0.4715  1.8265
  722MOL0     H97421   2.565   3.373   7.658 -2.1542  0.6412  0.9234
  722MOL0     H97422   2.683   3.197   7.338  1.0810  2.6430 -0.1825
  722MOL0     H97423   2.730   3.295   7.464 -0.2120 -0.1080 -0.6068
  722MOL0     H97424   2.716   2.992   7.457 -1.5801  1.1789  0.3946
  722MOL0     H97425   2.869   3.093   7.471  0.4570 -2.0803 -0.3706
  722MOL0     H97426   2.801   2.962   7.670  1.9238  0.9015  0.2591
  722MOL0     H97427   2.657   3.062   7.674 -0.7063  0.0572  0.2936
  722MOL0     H97428   2.832   3.271   7.694  0.7932  0.0579  1.7980
  722MOL0     H97429   2.955   3.158   7.677  0.5999  1.5886  1.7511
  722MOL0     H97430   2.948   3.003   8.045 -1.9884  1.6521  0.6484
  722MOL0     H97431   3.121   3.060   8.202 -1.1943  0.7634  0.8851
  722MOL0     H97432   3.466   3.351   8.409 -0.2956  0.3421  0.6687
  722MOL0     H97433   3.612   3.496   8.543  0.0894 -0.7850  0.1068
  722MOL0     H97434   3.628   3.823   8.715  0.3676  0.9483 -0.5339
  722MOL0     H97435   3.599   3.650   8.711 -0.2109 -0.3976 -2.4999
  722MOL0     H97436   3.842   3.644   8.731 -0.7563 -1.8864 -0.7453
  722MOL0     H97437   3.836   3.660   8.558  2.3647  0.1219  0.5212
  722MOL0     H97438   3.841   3.907   8.594  0.8072 -1.1143 -0.4069
  722MOL0     H97439   3.842   3.876   8.776 -0.2087 -3.0163  0.7147
  722MOL0     H97440   4.068   3.798   8.569 -1.3181  1.5199 -1.2636
  722MOL0     H97441   4.066   3.764   8.742 -0.6988  1.6362  1.8083
  722MOL0     H97442   4.026   4.031   8.745 -1.1692 -0.3840 -2.3153
  722MOL0     H97443   4.111   4.019   8.588  0.9718 -1.3816 -1.4576
  722MOL0     H97444   4.249   4.068   8.803 -0.6089 -0.0988  0.1550
  722MOL0     H97445   4.216   3.908   8.842  0.3614  1.3328  0.6295
  722MOL0     H97446   4.325   3.815   8.623  0.2650 -1.3356  0.3709
  722MOL0     H97447   4.431   3.882   8.743 -0.9046 -0.2860  0.3282
  722MOL0     H97448   4.318   4.045   8.516 -0.6904 -0.5067  0.3169
  722MOL0     H97449   4.454   4.091   8.615  1.7121  0.0203 -1.0792
  722MOL0     H97450   3.455   3.835   8.330 -1.3915 -0.6192 -2.7164
  722MOL0     H97451   3.336   3.691   8.176  1.0567 -0.4462 -0.1284
  722MOL0     H97452   3.149   3.444   8.000  1.0366 -0.4685  0.4730
  722MOL0     H97453   2.991   3.391   7.848  2.2648 -0.1310 -0.5116
  722MOL0     H97454   1.481   3.435   7.225 -0.4186 -1.0474 -0.6316
  722MOL0     H97455   1.404   3.372   7.012  0.4329 -2.3932 -2.2194
  722MOL0     H97456   0.907   3.026   6.911 -1.8024  1.4358 -1.1537
  722MOL0     H97457   0.791   2.963   6.703 -0.7808 -1.3797  0.6431
  722MOL0     H97458   0.781   2.782   6.573 -0.3766 -0.0023  1.0282
  722MOL0     H97459   0.866   2.741   6.417 -2.1960 -0.8291 -1.4511
  722MOL0     H97460   0.623   2.729   6.420  1.2275 -0.0696 -0.1976
  722MOL0     H97461   0.708   2.810   6.285  0.8498  1.8432 -1.0125
  722MOL0     H97462   0.666   3.038   6.409 -0.1173  0.9598  1.9328
  722MOL0     H97463   0.552   2.937   6.512 -1.4271 -0.1992 -1.7416
  722MOL0     H97464   0.433   2.874   6.315 -1.1804 -0.4372 -1.9639
  722MOL0     H97465   0.402   3.030   6.385 -1.4820 -2.4566  0.7384
  722MOL0     H97466   0.560   3.159   6.020 -1.6320  0.1010 -0.5659
  722MOL0     H97467   1.174   2.970   6.503  0.8217  2.1272  0.0770
  722MOL0     H97468   1.384   3.031   6.736  0.0016  3.0806  1.6048
  722MOL0     H97469   1.355   3.062   6.563  1.2026  1.1544 -0.1873
  722MOL0     H97470   1.337   3.183   6.684 -1.2653  0.2134  1.0544
  723MOL0     O97471   4.790   8.814   4.476  0.0433 -0.1446  0.0570
  723MOL0     C97472   4.853   8.726   4.417  0.7318  0.7776 -0.3521
  723MOL0     O97473   4.985   8.723   4.395 -0.1037  0.4629 -0.9360
  723MOL0     C97474   5.062   8.840   4.396 -0.8557  0.5291  0.7363
  723MOL0     C97475   5.207   8.825   4.399  0.0472  0.7767 -0.6125
  723MOL0     C97476   5.292   8.929   4.378  0.1343 -0.5423  0.6109
  723MOL0     C97477   5.236   9.055   4.354 -0.5473  0.6455 -0.0659
  723MOL0     O97478   5.319   9.160   4.319  0.7573  0.6788 -0.6108
  723MOL0     C97479   5.440   9.165   4.391 -0.0468  0.2833 -0.1397
  723MOL0     C97480   5.548   9.198   4.285  0.1162 -0.3648  0.2351
  723MOL0     C97481   5.689   9.235   4.350 -0.2564 -0.3742 -0.6217
  723MOL0     C97482   5.784   9.120   4.370  0.3312 -0.1120  0.6148
  723MOL0     C97483   5.930   9.160   4.337  1.0527 -0.0402  0.3218
  723MOL0     C97484   5.972   9.272   4.441  0.5244  0.2965  0.9485
  723MOL0     C97485   6.123   9.295   4.404 -0.1743 -0.5973 -0.4740
  723MOL0     C97486   6.208   9.308   4.532  0.6865 -0.2949  0.2905
  723MOL0     N97487   6.340   9.379   4.505 -0.5428 -0.1066 -0.4632
  723MOL0     C97488   6.347   9.519   4.498  0.1197  0.8067 -0.0732
  723MOL0     C97489   6.478   9.540   4.499 -0.5734 -0.0715 -0.5828
  723MOL0     C97490   6.541   9.673   4.462 -0.1729  0.1374  0.1558
  723MOL0     C97491   6.535   9.700   4.306  0.4600 -0.2416  0.0183
  723MOL0     C97492   6.581   9.839   4.262 -0.4484 -0.0769  0.1131
  723MOL0     C97493   6.633   9.836   4.113 -1.0487  0.4537 -0.7048
  723MOL0     O97494   6.748   9.759   4.112 -0.0846 -0.0056 -0.1483
  723MOL0     C97495   6.874   9.796   4.169 -0.4754 -0.1299  0.2063
  723MOL0     C97496   6.918   9.928   4.187 -0.2026 -0.1617 -0.4425
  723MOL0     C97497   7.033   9.967   4.260 -0.0240 -0.0174  0.6301
  723MOL0     C97498   7.120   9.868   4.299 -0.8731 -0.2286 -0.0418
  723MOL0     C97499   7.246   9.896   4.381 -0.8503  0.0217  0.8010
  723MOL0     O97500   7.275  10.029   4.388 -0.1952  0.8591 -0.6212
  723MOL0     C97501   7.398  10.055   4.435  0.0656 -0.8897  0.2113
  723MOL0     C97502   7.441  10.032   4.564  1.1801  0.1313 -0.4468
  723MOL0     C97503   7.566  10.076   4.606 -1.0471  1.3060 -0.8558
  723MOL0     C97504   7.655  10.144   4.524 -0.0127 -0.0075  0.8382
  723MOL0     O97505   7.773  10.187   4.567 -0.0803  0.3560  0.1208
  723MOL0     C97506   7.766  10.278   4.683 -0.3100  0.5115  0.0453
  723MOL0     C97507   7.919  10.295   4.717  0.0206  0.7724 -0.3907
  723MOL0     C97508   7.995  10.362   4.600  0.3157 -0.0076  0.6725
  723MOL0     C97509   8.109  10.455   4.649 -0.0407 -0.5746  1.3119
  723MOL0     C97510   8.202  10.504   4.528 -0.2836  0.1998 -0.6228
  723MOL0     C97511   8.292  10.607   4.599 -0.2617 -0.7790  0.2119
  723MOL0     C97512   8.417  10.644   4.518 -0.4902 -0.0880  0.0709
  723MOL0     C97513   8.518  10.719   4.605 -0.1440 -0.6575 -0.3588
  723MOL0    Cl97514   8.451  10.878   4.686  0.1858  0.0042  0.1077
  723MOL0     C97515   7.614  10.164   4.386 -0.7769  0.4006  0.1362
  723MOL0     C97516   7.485  10.114   4.341 -0.3590 -0.2786  0.0001
  723MOL0     O97517   7.312   9.797   4.428  0.4133 -0.7540 -0.2320
  723MOL0     C97518   7.087   9.738   4.264 -0.5615  0.4375 -0.6033
  723MOL0     C97519   6.965   9.696   4.216  0.0044  0.2345 -0.0249
  723MOL0     N97520   6.553   9.420   4.508  0.0859 -0.6939 -0.0500
  723MOL0     N97521   6.468   9.328   4.496 -0.0780  0.0768  0.6503
  723MOL0     C97522   5.107   9.075   4.345  0.6451 -0.9550  0.3476
  723MOL0     C97523   5.014   8.971   4.367  0.1574  0.3362  0.7196
  723MOL0     C97524   4.769   8.624   4.343 -0.1373 -1.0610 -0.2355
  723MOL0     C97525   4.825   8.563   4.235  0.5042  0.2981 -0.1877
  723MOL0     C97526   4.755   8.463   4.162 -0.7424 -0.1430  0.1284
  723MOL0     C97527   4.616   8.434   4.193 -0.0207  0.8442 -0.2688
  723MOL0     O97528   4.530   8.343   4.132 -0.0900  0.3079  0.5223
  723MOL0     C97529   4.547   8.266   4.006 -0.3936 -0.1117 -0.1049
  723MOL0     C97530   4.655   8.155   4.002 -0.0555 -0.0995  0.3174
  723MOL0     C97531   4.674   8.099   3.861  0.9300  0.7135 -0.1535
  723MOL0     C97532   4.746   8.187   3.762  0.1348  0.1140 -0.5414
  723MOL0     C97533   4.885   8.208   3.805 -0.3563 -0.0763 -0.5914
  723MOL0     C97534   5.003   8.208   3.851 -0.3608  0.3192  0.9369
  723MOL0     C97535   4.560   8.503   4.299  0.5732  0.0352 -0.4454
  723MOL0     C97536   4.626   8.601   4.374 -0.4375 -1.0847  0.1719
  723MOL0     C97537   4.551   8.674   4.494  0.5299  0.8538  0.3762
  723MOL0     H97538   5.249   8.725   4.411 -0.4034  0.6971  0.4279
  723MOL0     H97539   5.399   8.914   4.370  0.5701  1.3782  2.1559
  723MOL0     H97540   5.430   9.248   4.462 -1.5381  0.2253 -0.2567
  723MOL0     H97541   5.478   9.083   4.451  0.2760  1.2233  0.9810
  723MOL0     H97542   5.527   9.291   4.231  1.4222  0.5548  1.2341
  723MOL0     H97543   5.559   9.117   4.213  3.9600  0.5227 -0.4398
  723MOL0     H97544   5.671   9.282   4.447  0.0667 -1.2095 -0.1467
  723MOL0     H97545   5.734   9.301   4.276  1.0163  2.9036  2.8072
  723MOL0     H97546   5.781   9.072   4.468 -0.3787 -2.6707 -0.5700
  723MOL0     H97547   5.739   9.048   4.300 -1.6484  1.8797 -0.2964
  723MOL0     H97548   5.991   9.071   4.322  2.5282  1.0781 -0.5371
  723MOL0     H97549   5.932   9.198   4.235 -2.0031  1.2674  0.6258
  723MOL0     H97550   5.919   9.367   4.426  0.7491  0.3846  0.7039
  723MOL0     H97551   5.953   9.238   4.543 -0.3569  1.5544  1.2281
  723MOL0     H97552   6.129   9.386   4.343 -2.3103 -0.9612 -1.3095
  723MOL0     H97553   6.171   9.216   4.346  1.1067 -0.6614  0.6356
  723MOL0     H97554   6.153   9.365   4.607  3.4324  2.3507  0.5217
  723MOL0     H97555   6.215   9.211   4.582 -0.4882 -0.7742 -0.4357
  723MOL0     H97556   6.256   9.578   4.491  0.0106  0.6162 -0.2993
  723MOL0     H97557   6.486   9.755   4.508 -1.4315 -0.0101 -1.0246
  723MOL0     H97558   6.640   9.686   4.506  0.0031  2.8676 -0.8904
  723MOL0     H97559   6.593   9.623   4.254 -0.3366 -0.9559  0.1653
  723MOL0     H97560   6.430   9.676   4.284  0.8723 -0.4717 -1.8773
  723MOL0     H97561   6.645   9.886   4.337  0.7720 -1.9448  0.3125
  723MOL0     H97562   6.488   9.896   4.260 -1.7988 -2.1829 -1.1425
  723MOL0     H97563   6.652   9.936   4.074  1.3685  0.7678  1.0612
  723MOL0     H97564   6.555   9.782   4.057 -0.2097 -1.5572 -0.0166
  723MOL0     H97565   6.862  10.013   4.148  2.0420  1.1663 -0.9160
  723MOL0     H97566   7.051  10.069   4.295 -0.4523  0.8355 -1.5035
  723MOL0     H97567   7.374  10.001   4.644  1.1852  1.4138  0.0815
  723MOL0     H97568   7.597  10.046   4.706  0.5369  0.9462 -1.4188
  723MOL0     H97569   7.736  10.379   4.655  0.6409  0.4765 -1.1756
  723MOL0     H97570   7.701  10.232   4.758 -2.2851 -0.7749 -2.3170
  723MOL0     H97571   7.916  10.357   4.807 -1.4710  0.6561 -0.3336
  723MOL0     H97572   7.968  10.202   4.746  5.3877  3.6297  1.0179
  723MOL0     H97573   8.040  10.283   4.538 -0.0979  1.4391 -1.5623
  723MOL0     H97574   7.925  10.412   4.533  2.9587  2.1381 -0.6964
  723MOL0     H97575   8.163  10.404   4.730  0.8081 -1.9825 -0.0833
  723MOL0     H97576   8.074  10.550   4.690  0.4770  0.8859 -1.4539
  723MOL0     H97577   8.146  10.550   4.446 -0.3055  1.3239  0.0011
  723MOL0     H97578   8.265  10.418   4.503 -1.0992 -0.7238  0.3784
  723MOL0     H97579   8.252  10.708   4.613  2.9433  0.4791  1.1616
  723MOL0     H97580   8.334  10.565   4.691  1.1691  1.0149  0.4289
  723MOL0     H97581   8.400  10.706   4.430  0.0930  1.2204  0.8583
  723MOL0     H97582   8.461  10.548   4.491  1.2991  0.9778 -0.9461
  723MOL0     H97583   8.548  10.654   4.688 -3.1500 -1.1120  0.4811
  723MOL0     H97584   8.598  10.736   4.531 -1.3951 -1.3550 -1.9500
  723MOL0     H97585   7.675  10.213   4.310  2.1719 -1.8432  0.8815
  723MOL0     H97586   7.451  10.122   4.239 -1.9087 -2.1536  0.3061
  723MOL0     H97587   7.157   9.657   4.281  1.1998  2.3135  1.9242
  723MOL0     H97588   6.930   9.593   4.211 -0.8787  0.4498  1.2388
  723MOL0     H97589   5.069   9.175   4.324  0.5849 -1.1486 -0.4758
  723MOL0     H97590   4.908   8.989   4.353 -0.3914 -3.3649 -1.0642
  723MOL0     H97591   4.921   8.576   4.187  1.8630 -0.9335  2.0690
  723MOL0     H97592   4.800   8.414   4.075 -2.8818 -0.7918 -0.6844
  723MOL0     H97593   4.565   8.337   3.925  0.2963  0.2805  0.3833
  723MOL0     H97594   4.451   8.215   4.000  0.0199 -1.3219  2.3741
  723MOL0     H97595   4.620   8.079   4.073 -4.2619  1.1493 -0.1751
  723MOL0     H97596   4.756   8.188   4.027  1.5252 -3.2185 -1.3768
  723MOL0     H97597   4.575   8.066   3.830  0.9573 -0.4500  0.9382
  723MOL0     H97598   4.730   8.005   3.867 -0.7482 -0.2722  0.8244
  723MOL0     H97599   4.750   8.147   3.661 -1.3005 -0.1439 -0.5187
  723MOL0     H97600   4.707   8.290   3.763 -0.1908  0.0006  0.9173
  723MOL0     H97601   5.106   8.202   3.880 -0.4412  0.6132  1.2978
  723MOL0     H97602   4.458   8.487   4.333 -0.1563  0.4014 -2.3223
  723MOL0     H97603   4.523   8.769   4.447  3.7885  1.5455 -0.4065
  723MOL0     H97604   4.463   8.610   4.507 -0.4369  2.3064  1.3256
  723MOL0     H97605   4.602   8.687   4.590 -0.6159  2.1030  0.8565
  724MOL0     O97606   2.594   9.699   4.952  0.3388 -0.2220  0.3875
  724MOL0     C97607   2.657   9.799   4.980 -0.2413  0.0997  0.6923
  724MOL0     O97608   2.604   9.920   5.018 -0.9799  0.6564  0.0406
  724MOL0     C97609   2.468   9.922   5.012 -0.2512 -0.5295  0.2753
  724MOL0     C97610   2.411   9.986   4.903  0.2183 -0.0332  0.2101
  724MOL0     C97611   2.266   9.996   4.903 -0.7135  0.2750  0.0526
  724MOL0     C97612   2.188   9.954   5.018 -0.6951 -0.3428 -0.0214
  724MOL0     O97613   2.050   9.968   5.032  0.2025  0.3517  0.2312
  724MOL0     C97614   1.987  10.072   4.951  0.7399 -0.0745 -0.5442
  724MOL0     C97615   1.826  10.068   4.975  0.2294  0.4415 -0.4343
  724MOL0     C97616   1.753   9.943   4.943  0.4878  0.8314  0.2821
  724MOL0     C97617   1.611   9.932   4.977  0.8500  0.0138 -0.7421
  724MOL0     C97618   1.544   9.805   4.921  0.5526 -0.3416  0.4081
  724MOL0     C97619   1.551   9.797   4.764  1.0017  0.6834 -1.1017
  724MOL0     C97620   1.493   9.922   4.685 -0.1695  0.0132  0.1607
  724MOL0     C97621   1.592   9.959   4.579 -0.5806 -0.4398 -0.1357
  724MOL0     N97622   1.547  10.095   4.531  0.1806  0.3789  0.7707
  724MOL0     C97623   1.558  10.216   4.606 -0.1022  0.3343 -0.3471
  724MOL0     C97624   1.484  10.309   4.534 -0.3782  0.1309  0.5281
  724MOL0     C97625   1.476  10.456   4.551 -1.1287 -0.3390 -0.2893
  724MOL0     C97626   1.582  10.506   4.648 -0.4823  0.0341  0.4773
  724MOL0     C97627   1.525  10.525   4.791  0.7479 -0.3341  0.9318
  724MOL0     C97628   1.613  10.522   4.911 -0.2344  0.4465 -0.0194
  724MOL0     O97629   1.690  10.399   4.907  0.3128 -0.7820  0.6812
  724MOL0     C97630   1.823  10.426   4.921 -0.3611  0.8552 -0.2126
  724MOL0     C97631   1.912  10.434   4.806 -0.0542  0.2754  0.3933
  724MOL0     C97632   2.044  10.448   4.822 -0.4005  0.4578 -0.1485
  724MOL0     C97633   2.105  10.450   4.953 -0.2622  0.2796  0.7356
  724MOL0     C97634   2.251  10.447   4.966  0.1556  0.8237 -0.7625
  724MOL0     O97635   2.332  10.443   4.854  0.4015 -0.2571 -0.7355
  724MOL0     C97636   2.471  10.415   4.878  0.2363  0.8787 -0.4454
  724MOL0     C97637   2.533  10.341   4.982  0.0703  0.4376 -0.7204
  724MOL0     C97638   2.666  10.314   4.979 -0.0448 -0.5266 -0.2630
  724MOL0     C97639   2.752  10.378   4.884 -0.4864 -0.6538 -0.8208
  724MOL0     O97640   2.886  10.347   4.874 -0.5272 -0.8046  0.3930
  724MOL0     C97641   2.950  10.355   4.740 -0.6480 -0.7457  0.1355
  724MOL0     C97642   3.086  10.268   4.742  0.4582  0.2077  0.3069
  724MOL0     C97643   3.178  10.276   4.858 -0.5588  0.5647 -0.8435
  724MOL0     C97644   3.257  10.403   4.851 -0.7368  0.0476 -0.0391
  724MOL0     C97645   3.376  10.434   4.947 -0.7909  0.6473  0.9260
  724MOL0     C97646   3.504  10.357   4.939  0.4735 -0.3581  0.9232
  724MOL0     C97647   3.602  10.391   4.823  0.5003 -0.1483 -0.0107
  724MOL0     C97648   3.577  10.298   4.700 -0.1780 -0.2900 -0.3092
  724MOL0    Cl97649   3.536  10.114   4.727  0.0104 -0.0879 -0.0666
  724MOL0     C97650   2.688  10.454   4.786 -0.0901 -0.3740 -0.7913
  724MOL0     C97651   2.549  10.478   4.777  0.0312 -0.0318  0.5422
  724MOL0     O97652   2.288  10.452   5.085 -0.6994 -0.5764  0.2397
  724MOL0     C97653   2.020  10.439   5.064  0.5391 -0.5142 -0.3088
  724MOL0     C97654   1.882  10.421   5.043  0.5419 -0.5031 -0.4145
  724MOL0     N97655   1.432  10.246   4.423 -1.0771  0.1229 -0.2059
  724MOL0     N97656   1.469  10.124   4.420  0.5206  0.5430  0.3878
  724MOL0     C97657   2.262   9.894   5.119  0.5738  0.0422 -0.0428
  724MOL0     C97658   2.396   9.884   5.118 -0.2362  1.1503 -0.4573
  724MOL0     C97659   2.802   9.778   4.961  0.3682  0.6315 -0.3402
  724MOL0     C97660   2.852   9.645   4.954  0.7197 -0.0574 -0.0667
  724MOL0     C97661   2.992   9.624   4.931  1.1363 -0.1027  0.7600
  724MOL0     C97662   3.078   9.730   4.933 -0.2018 -0.0181  0.1924
  724MOL0     O97663   3.202   9.683   4.936 -0.3080  0.3708  0.9375
  724MOL0     C97664   3.301   9.788   4.932  0.2142  0.1593 -0.4584
  724MOL0     C97665   3.437   9.743   4.978 -0.4226 -0.5027 -0.6832
  724MOL0     C97666   3.536   9.853   4.929  0.1208  0.1636 -0.9349
  724MOL0     C97667   3.657   9.815   5.007 -0.4300 -0.9233  0.7341
  724MOL0     C97668   3.761   9.916   4.982  0.0429 -0.3692  0.9041
  724MOL0     C97669   3.843  10.001   4.962 -0.1075 -0.0610  0.9910
  724MOL0     C97670   3.035   9.859   4.945  0.3884  0.7115 -0.1181
  724MOL0     C97671   2.898   9.882   4.966  0.1324 -0.6989  0.0164
  724MOL0     C97672   2.879  10.028   4.990 -0.5576  0.2351 -0.0985
  724MOL0     H97673   2.477  10.011   4.820  0.6553 -2.8108 -0.3628
  724MOL0     H97674   2.236  10.039   4.808  1.1418  2.3113  0.2995
  724MOL0     H97675   2.029  10.168   4.984  2.0550 -1.7720  3.3260
  724MOL0     H97676   2.003  10.044   4.847 -3.0045 -0.6334 -1.0858
  724MOL0     H97677   1.791  10.147   4.908  0.8897 -0.4424 -1.8745
  724MOL0     H97678   1.813  10.102   5.078  1.9865  0.9438 -0.3286
  724MOL0     H97679   1.803   9.864   4.999  0.2677  2.2824  2.6535
  724MOL0     H97680   1.764   9.935   4.834  1.6924  2.1903  0.2755
  724MOL0     H97681   1.599   9.926   5.086 -1.8455 -2.9852 -1.0682
  724MOL0     H97682   1.550  10.018   4.950 -0.9850 -0.5085  1.4664
  724MOL0     H97683   1.577   9.710   4.965 -2.2749 -2.0830 -0.9591
  724MOL0     H97684   1.440   9.799   4.955  0.1631 -1.7136 -0.8977
  724MOL0     H97685   1.655   9.774   4.742  0.8011 -0.6254 -0.7515
  724MOL0     H97686   1.495   9.712   4.723  2.5370  0.3749 -2.6578
  724MOL0     H97687   1.473  10.005   4.753  0.2334 -1.2753  1.9376
  724MOL0     H97688   1.402   9.900   4.629  0.3015 -1.6708  0.0123
  724MOL0     H97689   1.695   9.957   4.615 -0.4878 -3.8011 -0.2231
  724MOL0     H97690   1.597   9.883   4.500  0.7254  0.0140 -0.5138
  724MOL0     H97691   1.595  10.236   4.706 -2.3066  2.0177  0.2050
  724MOL0     H97692   1.492  10.508   4.456  0.2142 -0.2577 -0.0309
  724MOL0     H97693   1.376  10.477   4.590 -0.1296  0.1473  2.1647
  724MOL0     H97694   1.678  10.455   4.655 -1.0943 -1.0286  1.6688
  724MOL0     H97695   1.608  10.602   4.604 -0.3574  0.3515  1.2276
  724MOL0     H97696   1.449  10.449   4.810  0.2009  0.6563  3.0838
  724MOL0     H97697   1.473  10.621   4.784 -1.9942 -1.8823 -2.6091
  724MOL0     H97698   1.555  10.534   5.002 -1.5328 -1.1482 -0.5899
  724MOL0     H97699   1.682  10.607   4.913 -2.9753  2.8015 -0.0473
  724MOL0     H97700   1.869  10.427   4.707  0.3463 -0.4345  0.2552
  724MOL0     H97701   2.109  10.430   4.737  1.2126 -2.5712  1.5476
  724MOL0     H97702   2.466  10.297   5.054 -2.7237  1.3901 -2.5690
  724MOL0     H97703   2.706  10.243   5.052  1.4172  0.7781  0.2786
  724MOL0     H97704   2.887  10.313   4.661 -2.2786  0.2563  0.8385
  724MOL0     H97705   2.960  10.461   4.716 -0.7120 -0.8787 -0.4976
  724MOL0     H97706   3.061  10.162   4.733  0.7665  0.1569  0.0002
  724MOL0     H97707   3.138  10.301   4.651 -0.7958  0.7015 -0.2656
  724MOL0     H97708   3.133  10.265   4.956  1.2271 -2.8856 -0.2468
  724MOL0     H97709   3.245  10.190   4.850 -0.6952  0.6419 -3.8966
  724MOL0     H97710   3.194  10.490   4.870 -0.5986  0.1652 -0.1209
  724MOL0     H97711   3.298  10.412   4.750 -1.6949 -0.7388 -0.5220
  724MOL0     H97712   3.351  10.405   5.049 -0.8495  1.2959  1.1031
  724MOL0     H97713   3.406  10.539   4.951 -1.8286  0.9371  3.8311
  724MOL0     H97714   3.560  10.371   5.032  0.9702  0.9131  0.4540
  724MOL0     H97715   3.472  10.255   4.913 -0.4483 -0.2659  1.6558
  724MOL0     H97716   3.705  10.385   4.860  1.1119 -0.4092 -1.6873
  724MOL0     H97717   3.586  10.495   4.795 -0.3500 -0.5109 -0.9302
  724MOL0     H97718   3.485  10.328   4.650  0.3438 -1.1910 -1.8696
  724MOL0     H97719   3.667  10.303   4.638 -1.5681  1.3537 -2.3125
  724MOL0     H97720   2.736  10.507   4.703 -0.5127  4.7637  1.8148
  724MOL0     H97721   2.507  10.532   4.693  0.3119  0.7720  0.9050
  724MOL0     H97722   2.052  10.437   5.167  0.5608 -1.5323 -0.3232
  724MOL0     H97723   1.816  10.425   5.129 -1.3310 -1.5058 -1.7331
  724MOL0     H97724   2.204   9.859   5.204  1.6244 -0.2344  0.5638
  724MOL0     H97725   2.446   9.829   5.197 -1.1487  0.1593 -0.5490
  724MOL0     H97726   2.793   9.554   4.955  0.4071  0.1188 -1.0382
  724MOL0     H97727   3.024   9.525   4.903 -1.9794 -0.3246 -2.8701
  724MOL0     H97728   3.280   9.863   5.009 -3.2787  1.8721 -2.7658
  724MOL0     H97729   3.297   9.854   4.845  0.7127  2.3545  1.0757
  724MOL0     H97730   3.462   9.644   4.939  0.2984  0.7636 -3.7593
  724MOL0     H97731   3.431   9.733   5.087  0.1317 -0.9844 -0.6884
  724MOL0     H97732   3.508   9.956   4.953  2.4810  0.3438  1.4453
  724MOL0     H97733   3.556   9.844   4.822  2.9261  0.3141 -0.4990
  724MOL0     H97734   3.637   9.820   5.115  0.2607  0.7061  0.8061
  724MOL0     H97735   3.691   9.715   4.979 -2.0766 -0.9407 -1.4834
  724MOL0     H97736   3.915  10.079   4.947  0.8525 -1.1173 -0.2507
  724MOL0     H97737   3.104   9.943   4.950  2.4054 -0.9235  0.9820
  724MOL0     H97738   2.778  10.070   4.987 -0.5904  0.1073 -2.2755
  724MOL0     H97739   2.919  10.047   5.090 -0.2593 -0.4559 -0.0809
  724MOL0     H97740   2.948  10.076   4.920  1.3522 -0.0156  1.5254
  725MOL0     O97741   3.536   1.375   8.867 -0.1430  0.1726 -0.6401
  725MOL0     C97742   3.524   1.281   8.942  0.9191  0.4610  0.1171
  725MOL0     O97743   3.477   1.288   9.070 -0.6984 -0.5205 -0.1401
  725MOL0     C97744   3.447   1.412   9.108 -0.5543  0.1320  0.5608
  725MOL0     C97745   3.538   1.503   9.165 -0.1167 -0.5243  0.4232
  725MOL0     C97746   3.506   1.632   9.206  0.0518 -0.1820  0.8212
  725MOL0     C97747   3.371   1.674   9.184  0.2492 -1.1730 -0.0871
  725MOL0     O97748   3.321   1.796   9.211  0.2739  0.1620 -0.1218
  725MOL0     C97749   3.418   1.900   9.226  0.4525 -0.2654  0.5669
  725MOL0     C97750   3.341   2.021   9.247 -0.8634 -0.6496 -0.7710
  725MOL0     C97751   3.262   2.045   9.114 -0.3768 -0.0206 -0.0557
  725MOL0     C97752   3.217   2.189   9.129  0.5133 -1.0607  0.5017
  725MOL0     C97753   3.111   2.240   9.019  0.0240 -1.3445 -0.0173
  725MOL0     C97754   3.169   2.242   8.877  0.6081  0.5731 -0.1834
  725MOL0     C97755   3.277   2.345   8.854 -0.2640  0.0940 -0.6186
  725MOL0     C97756   3.288   2.391   8.711  0.2403  0.7336  0.7117
  725MOL0     N97757   3.384   2.315   8.626 -0.2950  0.0824 -0.3620
  725MOL0     C97758   3.528   2.316   8.627  0.7953 -0.9529 -0.3701
  725MOL0     C97759   3.572   2.209   8.550 -0.0973 -0.0292 -0.6230
  725MOL0     C97760   3.716   2.179   8.508 -0.3266  1.0086  0.8298
  725MOL0     C97761   3.761   2.293   8.412  0.3919 -0.3269 -0.7779
  725MOL0     C97762   3.901   2.285   8.375  0.8985 -0.2658 -0.9429
  725MOL0     C97763   3.956   2.413   8.303  0.5020 -0.0016 -0.3813
  725MOL0     O97764   3.932   2.533   8.382 -0.7217  0.2222  0.7076
  725MOL0     C97765   4.039   2.595   8.445  0.6563  0.1720 -0.2257
  725MOL0     C97766   4.022   2.735   8.474 -0.9315  0.4691 -0.3814
  725MOL0     C97767   4.118   2.804   8.551  0.0798  0.0905 -0.6714
  725MOL0     C97768   4.237   2.741   8.585  0.4394  0.4592  0.8658
  725MOL0     C97769   4.352   2.812   8.657 -0.0752  0.1187  0.2844
  725MOL0     O97770   4.471   2.740   8.653 -0.0732 -0.5340  0.6954
  725MOL0     C97771   4.586   2.783   8.700 -0.6491  0.1579 -0.2696
  725MOL0     C97772   4.709   2.726   8.652  0.9544  0.6948  0.5037
  725MOL0     C97773   4.834   2.772   8.703  0.4095  0.5991 -0.4135
  725MOL0     C97774   4.842   2.866   8.804  0.1305 -0.0018  0.8285
  725MOL0     O97775   4.952   2.917   8.850 -0.4477  0.2745 -0.3665
  725MOL0     C97776   5.064   2.915   8.767 -0.2959 -0.9931  0.1192
  725MOL0     C97777   5.160   2.998   8.861  0.7781 -0.1823 -0.1794
  725MOL0     C97778   5.306   2.975   8.810 -0.1541  0.0686  0.2133
  725MOL0     C97779   5.411   3.027   8.913  0.1713 -0.3090 -0.1358
  725MOL0     C97780   5.544   3.026   8.834  0.6701 -0.0250  0.5419
  725MOL0     C97781   5.653   3.103   8.908 -0.2298 -0.1439 -0.4755
  725MOL0     C97782   5.793   3.075   8.847 -0.2484  0.6274  0.4880
  725MOL0     C97783   5.849   3.180   8.751 -0.6705 -0.1122  0.3078
  725MOL0    Cl97784   5.915   3.114   8.602 -0.1202  0.2010  0.0527
  725MOL0     C97785   4.728   2.918   8.853  0.4523  0.0094 -0.3237
  725MOL0     C97786   4.600   2.878   8.804  0.6568  0.3783 -0.1937
  725MOL0     O97787   4.341   2.925   8.702  0.1372 -0.2513 -0.2680
  725MOL0     C97788   4.255   2.606   8.544 -0.7691  1.1987  0.8079
  725MOL0     C97789   4.158   2.533   8.476  0.7170  0.1840  0.1298
  725MOL0     N97790   3.460   2.132   8.522 -0.1733  0.5568  0.3001
  725MOL0     N97791   3.356   2.198   8.559  0.6834 -0.1227 -0.3754
  725MOL0     C97792   3.279   1.589   9.126  0.5826 -0.6766  0.2772
  725MOL0     C97793   3.314   1.456   9.104  1.1034 -0.3854  0.2462
  725MOL0     C97794   3.572   1.149   8.910 -0.1908  0.6823  0.1779
  725MOL0     C97795   3.505   1.033   8.955 -0.0404  0.4034  0.0406
  725MOL0     C97796   3.551   0.897   8.922  0.2461  0.6455 -0.7453
  725MOL0     C97797   3.668   0.876   8.838  0.5226  0.0671  0.9540
  725MOL0     O97798   3.717   0.753   8.796  0.2110 -0.2216  0.9619
  725MOL0     C97799   3.762   0.653   8.890 -0.4347  0.3297 -0.6366
  725MOL0     C97800   3.826   0.714   9.019  0.6862  0.4485 -0.2633
  725MOL0     C97801   3.941   0.813   9.012 -0.4142  0.2955  0.5227
  725MOL0     C97802   4.000   0.848   9.147  0.7298  1.3049  0.4967
  725MOL0     C97803   4.103   0.951   9.127  0.8523  0.4637 -0.4020
  725MOL0     C97804   4.172   1.042   9.114  0.1857  0.1009 -0.0625
  725MOL0     C97805   3.712   0.994   8.769  0.2947  0.7976 -0.8928
  725MOL0     C97806   3.681   1.125   8.814 -0.4936  0.3887 -1.2399
  725MOL0     C97807   3.777   1.237   8.769  0.4666  0.9275 -0.2476
  725MOL0     H97808   3.643   1.477   9.163 -0.2103 -0.8827 -1.4107
  725MOL0     H97809   3.571   1.709   9.247 -0.0631  1.7334 -2.2688
  725MOL0     H97810   3.475   1.883   9.318  2.3379  0.4184 -0.4206
  725MOL0     H97811   3.478   1.905   9.135 -0.4106  0.7417  0.0383
  725MOL0     H97812   3.414   2.100   9.269 -0.1835 -1.2204 -0.9183
  725MOL0     H97813   3.281   2.020   9.338  0.8591  1.5374  0.4896
  725MOL0     H97814   3.183   1.974   9.088  0.7041 -1.3821  0.2393
  725MOL0     H97815   3.329   2.029   9.029 -1.0677  1.6486 -0.9551
  725MOL0     H97816   3.173   2.211   9.226 -1.0361 -0.8590 -0.2118
  725MOL0     H97817   3.299   2.259   9.112 -1.3057  1.3294  1.0930
  725MOL0     H97818   3.014   2.189   9.025 -0.6343 -0.0255  1.2599
  725MOL0     H97819   3.089   2.344   9.043  0.9879 -1.0901 -0.2001
  725MOL0     H97820   3.216   2.147   8.851 -2.7633 -1.9186  1.8123
  725MOL0     H97821   3.085   2.262   8.809 -1.6490 -3.3516  1.0989
  725MOL0     H97822   3.377   2.319   8.889 -0.4758  1.1322  0.8321
  725MOL0     H97823   3.235   2.427   8.913 -1.9771  0.1732 -1.8416
  725MOL0     H97824   3.188   2.384   8.668  2.0418 -0.7619 -3.8524
  725MOL0     H97825   3.319   2.495   8.720  0.7057  0.5017  2.1577
  725MOL0     H97826   3.581   2.401   8.671 -0.9225 -0.5082  0.9398
  725MOL0     H97827   3.780   2.162   8.595  0.2153 -0.0736  0.2349
  725MOL0     H97828   3.713   2.092   8.442 -0.1338  1.3880  0.3141
  725MOL0     H97829   3.700   2.289   8.321  1.6095  0.9385 -1.6960
  725MOL0     H97830   3.747   2.390   8.461  1.6635 -0.8527  0.7235
  725MOL0     H97831   3.903   2.216   8.291 -0.9281  0.6496 -1.8090
  725MOL0     H97832   3.951   2.264   8.470 -0.2647 -1.3598 -0.5578
  725MOL0     H97833   3.893   2.421   8.213 -2.1098 -1.5823  1.1791
  725MOL0     H97834   4.061   2.399   8.276  0.7456 -1.2507  1.0807
  725MOL0     H97835   3.930   2.776   8.435 -1.0118 -0.2580 -0.9733
  725MOL0     H97836   4.102   2.905   8.588  1.6323 -0.2951  1.2499
  725MOL0     H97837   4.701   2.644   8.582 -0.9616  1.7042 -0.5287
  725MOL0     H97838   4.919   2.719   8.662  1.8900  2.0698  0.6157
  725MOL0     H97839   5.106   2.819   8.735 -2.6973 -1.3602 -2.3248
  725MOL0     H97840   5.038   2.971   8.676  4.5755  0.2039 -0.7877
  725MOL0     H97841   5.129   3.103   8.857  0.5222 -0.1936  1.0438
  725MOL0     H97842   5.144   2.962   8.963  1.1411  0.2489  0.0360
  725MOL0     H97843   5.322   2.867   8.804  0.4174  0.2295 -2.9805
  725MOL0     H97844   5.326   3.029   8.717  0.7144  1.1378  0.9871
  725MOL0     H97845   5.413   2.975   9.009  0.1049 -0.8449 -0.4214
  725MOL0     H97846   5.383   3.131   8.934  0.8878 -0.5146  2.1133
  725MOL0     H97847   5.533   3.072   8.735  1.0280  1.2417  1.0745
  725MOL0     H97848   5.576   2.923   8.813 -0.8842 -0.6667  1.1943
  725MOL0     H97849   5.637   3.211   8.916 -1.4606 -0.3745  0.4366
  725MOL0     H97850   5.656   3.065   9.011  1.8879  1.5549  0.1790
  725MOL0     H97851   5.784   2.986   8.784 -1.0324  1.1947 -0.2283
  725MOL0     H97852   5.867   3.051   8.924  0.1021 -4.1256 -1.0225
  725MOL0     H97853   5.761   3.234   8.714  0.0733 -1.0860 -3.3269
  725MOL0     H97854   5.904   3.263   8.796  0.1731  0.9622 -2.4498
  725MOL0     H97855   4.738   2.987   8.936 -0.1302 -2.1101  1.6381
  725MOL0     H97856   4.509   2.914   8.853 -2.0332 -2.5230 -2.6491
  725MOL0     H97857   4.345   2.556   8.578  0.4292  2.5380 -0.3224
  725MOL0     H97858   4.174   2.428   8.452 -1.4458 -0.3953  0.9947
  725MOL0     H97859   3.175   1.619   9.113  0.0966 -1.3962  2.1998
  725MOL0     H97860   3.232   1.392   9.075  2.5092 -4.0542  3.3902
  725MOL0     H97861   3.418   1.021   9.019 -1.6131 -4.7315 -2.5505
  725MOL0     H97862   3.488   0.827   8.976 -0.1640  2.1249  0.7712
  725MOL0     H97863   3.831   0.586   8.840 -0.8285  0.3395 -1.2016
  725MOL0     H97864   3.676   0.589   8.915  0.9170 -2.0153 -1.7055
  725MOL0     H97865   3.844   0.629   9.086 -0.7985 -1.1870 -1.8214
  725MOL0     H97866   3.751   0.773   9.071  1.9950  0.3728  1.8084
  725MOL0     H97867   3.898   0.902   8.965 -0.5894  2.5322  4.4111
  725MOL0     H97868   4.026   0.769   8.959 -0.0582 -1.8733  2.7127
  725MOL0     H97869   3.918   0.887   9.209 -1.2202  0.5662 -1.5053
  725MOL0     H97870   4.034   0.756   9.196 -0.1598  1.1049  0.7533
  725MOL0     H97871   4.245   1.120   9.103 -0.5499  0.6172 -1.6919
  725MOL0     H97872   3.790   0.990   8.693 -1.0881 -0.9013 -2.3097
  725MOL0     H97873   3.793   1.231   8.661 -2.0403  1.5428 -0.7087
  725MOL0     H97874   3.751   1.339   8.799  3.2359  1.7543 -0.3515
  725MOL0     H97875   3.872   1.223   8.822  1.0595 -1.1107 -1.7328
  726MOL0     O97876   1.955   4.007   1.022  0.0050 -0.2647  0.4287
  726MOL0     C97877   2.079   4.033   1.019  0.0768 -0.0106  0.2166
  726MOL0     O97878   2.135   4.136   0.952 -0.6164 -0.1843  0.1104
  726MOL0     C97879   2.038   4.238   0.932 -0.5206  0.3228  0.2283
  726MOL0     C97880   2.030   4.336   1.030  0.0651  0.7828  0.8679
  726MOL0     C97881   1.937   4.443   1.004 -0.2760  0.2106 -0.1830
  726MOL0     C97882   1.866   4.450   0.884  0.4536  0.3129  0.1566
  726MOL0     O97883   1.787   4.556   0.882  0.2573 -0.1677  0.8524
  726MOL0     C97884   1.703   4.575   0.769  0.6893 -0.5197 -0.3807
  726MOL0     C97885   1.789   4.636   0.658  0.6779 -0.7373  0.8462
  726MOL0     C97886   1.811   4.791   0.669 -0.0077 -0.2254 -0.3534
  726MOL0     C97887   1.696   4.881   0.629 -0.2801 -0.1928 -0.6074
  726MOL0     C97888   1.684   4.885   0.473  0.6892  0.0144  1.0305
  726MOL0     C97889   1.558   4.962   0.432  0.5154 -0.9959  0.3424
  726MOL0     C97890   1.551   5.007   0.283 -0.3117 -0.1678  0.8863
  726MOL0     C97891   1.638   5.119   0.233 -0.2623 -0.1992  0.2382
  726MOL0     N97892   1.606   5.250   0.290 -0.1128  0.4974  0.0357
  726MOL0     C97893   1.673   5.310   0.408  0.4319 -0.0211  0.3891
  726MOL0     C97894   1.603   5.428   0.423  0.1880 -0.4599 -0.0795
  726MOL0     C97895   1.625   5.540   0.525  1.1989 -0.7697  0.1639
  726MOL0     C97896   1.774   5.584   0.525  1.2407  0.0037  0.3791
  726MOL0     C97897   1.808   5.716   0.461  0.6005  0.1275 -0.7110
  726MOL0     C97898   1.795   5.713   0.306  0.0308  0.2986 -0.6215
  726MOL0     O97899   1.908   5.636   0.260  0.0428 -0.2618 -0.4861
  726MOL0     C97900   1.959   5.661   0.136 -0.2465  0.4755  0.6358
  726MOL0     C97901   2.092   5.629   0.108  0.0913 -0.1320 -1.1484
  726MOL0     C97902   2.149   5.643  -0.013  0.7151  0.1923  0.5871
  726MOL0     C97903   2.071   5.685  -0.128 -0.2519 -0.5229 -0.6071
  726MOL0     C97904   2.120   5.701  -0.255 -0.1207  0.8791 -0.1083
  726MOL0     O97905   2.252   5.752  -0.260 -0.2204  0.0191 -0.6336
  726MOL0     C97906   2.313   5.761  -0.387 -0.6720 -0.6753  0.0067
  726MOL0     C97907   2.254   5.781  -0.516 -0.4789 -0.1567 -1.2785
  726MOL0     C97908   2.339   5.795  -0.632  0.3716  0.0857  0.3030
  726MOL0     C97909   2.480   5.762  -0.630  1.0110 -0.4071  0.0314
  726MOL0     O97910   2.563   5.732  -0.736 -0.5566  0.0489 -0.0918
  726MOL0     C97911   2.527   5.749  -0.867 -0.6531  0.3011 -0.5069
  726MOL0     C97912   2.623   5.667  -0.957 -0.9553 -0.9677  0.1067
  726MOL0     C97913   2.752   5.751  -0.989 -0.8652  0.7837 -0.5405
  726MOL0     C97914   2.738   5.854  -1.098  0.2768  0.0805 -0.1826
  726MOL0     C97915   2.865   5.937  -1.108 -0.5607 -0.0738 -0.0904
  726MOL0     C97916   2.855   6.018  -1.237  0.8677 -0.8234  0.2384
  726MOL0     C97917   2.963   6.124  -1.265 -1.2156 -1.2220 -0.1450
  726MOL0     C97918   2.937   6.216  -1.383 -0.8369 -0.1789  0.7418
  726MOL0    Cl97919   2.829   6.360  -1.334  0.5786 -0.1962  0.0627
  726MOL0     C97920   2.528   5.744  -0.497  0.0960 -0.5842 -0.0280
  726MOL0     C97921   2.452   5.748  -0.387  0.3636 -0.2158 -0.6816
  726MOL0     O97922   2.052   5.650  -0.349 -0.0750  0.7808 -0.4629
  726MOL0     C97923   1.935   5.710  -0.103 -0.3464  0.6343 -0.2187
  726MOL0     C97924   1.879   5.694   0.020  0.2230 -0.8650 -0.5687
  726MOL0     N97925   1.506   5.432   0.330 -0.1004 -0.2824  1.2149
  726MOL0     N97926   1.506   5.337   0.251 -0.3223 -0.6151  0.1320
  726MOL0     C97927   1.871   4.349   0.793  0.3266 -0.1294  1.0194
  726MOL0     C97928   1.959   4.244   0.815  0.4434 -0.3673 -0.3256
  726MOL0     C97929   2.157   3.963   1.124  0.5128  0.7564  1.1304
  726MOL0     C97930   2.252   4.041   1.189  0.7773  0.0539  0.6371
  726MOL0     C97931   2.335   3.983   1.289 -0.0956 -0.1453  0.8256
  726MOL0     C97932   2.319   3.846   1.326 -0.4749 -0.1491  0.5049
  726MOL0     O97933   2.380   3.796   1.440  0.1922  0.6534  0.6765
  726MOL0     C97934   2.349   3.664   1.488 -0.0612  0.1007 -0.1677
  726MOL0     C97935   2.455   3.621   1.594  0.4509 -0.6099  0.1082
  726MOL0     C97936   2.475   3.473   1.605 -0.4870  0.0490 -0.5996
  726MOL0     C97937   2.536   3.428   1.746 -0.3644 -0.4925  0.3028
  726MOL0     C97938   2.598   3.292   1.742  0.3037 -0.3783 -0.3244
  726MOL0     C97939   2.689   3.202   1.729 -0.1838  0.6850  0.9184
  726MOL0     C97940   2.224   3.770   1.254  0.6367 -0.1318 -0.5239
  726MOL0     C97941   2.140   3.823   1.150 -0.1898 -0.6799  0.2860
  726MOL0     C97942   2.064   3.720   1.085 -0.5918  0.3566 -0.5893
  726MOL0     H97943   2.093   4.338   1.117 -0.0896  1.3045  0.9676
  726MOL0     H97944   1.948   4.532   1.064  0.9534  1.8133 -2.5881
  726MOL0     H97945   1.651   4.487   0.730 -1.3867 -0.0584  1.1811
  726MOL0     H97946   1.635   4.647   0.815 -0.6166 -0.4381 -2.3346
  726MOL0     H97947   1.727   4.615   0.570 -0.7786 -0.0167  1.6529
  726MOL0     H97948   1.882   4.579   0.653 -0.4693 -2.8144  1.9785
  726MOL0     H97949   1.894   4.831   0.610 -1.6763  1.1663 -1.8684
  726MOL0     H97950   1.824   4.814   0.775 -0.2603  0.0481 -0.3796
  726MOL0     H97951   1.603   4.846   0.675  0.2169 -2.1932 -1.0417
  726MOL0     H97952   1.716   4.985   0.658 -0.0462 -0.7430  1.3783
  726MOL0     H97953   1.773   4.935   0.431  0.6522 -0.0279  0.9010
  726MOL0     H97954   1.696   4.791   0.418  0.7399 -0.0588  1.1660
  726MOL0     H97955   1.469   4.900   0.447 -0.6968  0.3974 -0.7755
  726MOL0     H97956   1.549   5.050   0.496 -1.7170 -0.8734 -0.0547
  726MOL0     H97957   1.448   5.036   0.263 -0.4762 -1.8135 -0.9328
  726MOL0     H97958   1.569   4.918   0.223  0.5769  0.2518  0.5054
  726MOL0     H97959   1.745   5.096   0.234  0.3966  2.5369  1.5995
  726MOL0     H97960   1.605   5.130   0.129 -3.4036 -1.7391  0.9753
  726MOL0     H97961   1.758   5.260   0.452 -0.5014 -1.8152  0.2288
  726MOL0     H97962   1.557   5.625   0.515 -0.1835 -1.7535  0.8314
  726MOL0     H97963   1.617   5.493   0.624 -2.1416  0.7700  0.7489
  726MOL0     H97964   1.821   5.593   0.623 -1.3642  1.0640  1.6351
  726MOL0     H97965   1.824   5.498   0.480  0.9921 -1.3994  2.6564
  726MOL0     H97966   1.910   5.748   0.481  0.9961  0.4347 -3.0025
  726MOL0     H97967   1.734   5.785   0.503 -0.7023 -1.4844 -0.2265
  726MOL0     H97968   1.805   5.814   0.265 -0.5427  0.5009 -0.2731
  726MOL0     H97969   1.697   5.675   0.276  0.2310 -0.4313 -0.3692
  726MOL0     H97970   2.157   5.602   0.191  0.1361  0.2260 -1.0678
  726MOL0     H97971   2.250   5.611  -0.034  0.5008 -0.3020  0.3068
  726MOL0     H97972   2.147   5.800  -0.523 -0.5377 -0.2873 -0.7143
  726MOL0     H97973   2.285   5.822  -0.722  0.7456  0.8150  0.2904
  726MOL0     H97974   2.428   5.706  -0.882 -1.4136  1.5521  0.6514
  726MOL0     H97975   2.522   5.857  -0.887 -3.6339  0.5312  0.9998
  726MOL0     H97976   2.646   5.569  -0.914 -1.7012  0.5673  4.5951
  726MOL0     H97977   2.566   5.645  -1.047 -1.5402  0.3542  0.1168
  726MOL0     H97978   2.771   5.809  -0.898  0.9805  3.7646 -2.6280
  726MOL0     H97979   2.834   5.681  -1.006 -0.6431  0.8945  0.0317
  726MOL0     H97980   2.647   5.914  -1.090  0.4030  0.3603 -0.7819
  726MOL0     H97981   2.713   5.804  -1.192 -3.3432  0.9159  0.1997
  726MOL0     H97982   2.952   5.872  -1.099 -0.2323  0.3127 -0.4509
  726MOL0     H97983   2.876   6.019  -1.035  0.1391  0.7060 -1.0457
  726MOL0     H97984   2.867   5.953  -1.325  0.4399  0.4565 -0.8009
  726MOL0     H97985   2.756   6.065  -1.244  1.8301  1.2640 -0.1663
  726MOL0     H97986   3.062   6.079  -1.278 -0.4933 -0.3993  1.9699
  726MOL0     H97987   2.979   6.183  -1.174  1.0498  2.7105 -2.7552
  726MOL0     H97988   3.024   6.270  -1.421 -0.1162 -1.5121  0.4387
  726MOL0     H97989   2.884   6.162  -1.462 -0.1735  0.6045 -0.2587
  726MOL0     H97990   2.629   5.707  -0.509  0.0319 -0.2854 -1.6938
  726MOL0     H97991   2.502   5.733  -0.291 -2.1025  0.5389  0.8343
  726MOL0     H97992   1.879   5.753  -0.185  3.0680  1.5062 -2.3217
  726MOL0     H97993   1.777   5.728   0.034  0.1997 -0.8362 -0.8062
  726MOL0     H97994   1.821   4.346   0.697  0.5511 -1.1470  0.9293
  726MOL0     H97995   1.959   4.169   0.736  1.0829  0.8128 -1.4773
  726MOL0     H97996   2.251   4.149   1.177 -3.6376 -0.0940 -2.4106
  726MOL0     H97997   2.413   4.041   1.336  1.7237 -0.4971 -1.5817
  726MOL0     H97998   2.344   3.588   1.409  3.3641 -1.8460  1.2576
  726MOL0     H97999   2.251   3.664   1.536 -0.7691 -2.5279 -1.4080
  726MOL0     H98000   2.429   3.661   1.693  1.4218  0.0647  0.1043
  726MOL0     H98001   2.555   3.659   1.569  0.8609 -1.8515 -0.1738
  726MOL0     H98002   2.542   3.440   1.525 -2.4273 -1.8168 -1.5619
  726MOL0     H98003   2.383   3.416   1.589 -1.0180 -0.0047  2.1408
  726MOL0     H98004   2.617   3.493   1.779  0.1951 -1.3765  0.7043
  726MOL0     H98005   2.470   3.441   1.832  2.6013  0.5312  2.5901
  726MOL0     H98006   2.760   3.123   1.726  0.6907  1.4734 -0.7000
  726MOL0     H98007   2.209   3.664   1.274  0.8757  0.3841  3.1964
  726MOL0     H98008   2.016   3.762   0.995  1.5699 -1.0240 -2.4988
  726MOL0     H98009   2.122   3.629   1.068 -0.4653  0.2994  0.1169
  726MOL0     H98010   1.982   3.699   1.155  0.1027 -1.5457 -0.2890
  727MOL0     O98011   5.112   6.108   5.243  0.3398  0.1308 -0.7893
  727MOL0     C98012   5.200   6.090   5.328 -0.2499 -0.0190 -0.3737
  727MOL0     O98013   5.326   6.051   5.298  0.5457 -1.1752  0.0295
  727MOL0     C98014   5.364   6.051   5.163 -0.1199  0.3027 -0.9739
  727MOL0     C98015   5.415   5.934   5.108 -0.7315  0.1507 -0.4537
  727MOL0     C98016   5.447   5.925   4.973 -0.3642 -0.3088  1.0273
  727MOL0     C98017   5.439   6.040   4.891  0.3799  0.0365 -0.1661
  727MOL0     O98018   5.482   6.048   4.760 -0.7395  0.0908 -0.8478
  727MOL0     C98019   5.627   6.034   4.737  0.6213  0.3802 -0.0004
  727MOL0     C98020   5.659   5.964   4.605  0.0379  0.2526 -1.3397
  727MOL0     C98021   5.611   5.814   4.626 -0.5556 -0.5036  0.3376
  727MOL0     C98022   5.641   5.732   4.501 -0.2439 -0.1443  0.5052
  727MOL0     C98023   5.633   5.579   4.527  0.4816 -0.0872 -0.3651
  727MOL0     C98024   5.644   5.509   4.386 -1.2582 -0.3465 -0.9139
  727MOL0     C98025   5.684   5.361   4.408 -0.2633 -1.4792 -0.2713
  727MOL0     C98026   5.737   5.320   4.269  0.0561 -0.3872 -1.2076
  727MOL0     N98027   5.799   5.184   4.279  0.1251  0.6628  0.3946
  727MOL0     C98028   5.922   5.151   4.238  0.5583  0.8544  0.4477
  727MOL0     C98029   5.944   5.017   4.264 -0.7020 -0.7094 -0.1665
  727MOL0     C98030   6.057   4.926   4.227  0.1205 -0.1152  0.2830
  727MOL0     C98031   6.192   4.989   4.248 -0.3293  0.3394 -0.3829
  727MOL0     C98032   6.311   4.913   4.182  0.2208  0.5991  0.0464
  727MOL0     C98033   6.432   4.995   4.189  0.4391  0.2783  0.7614
  727MOL0     O98034   6.546   4.919   4.162 -0.2711 -0.2068 -0.4914
  727MOL0     C98035   6.667   4.991   4.170  0.5601 -0.3824  0.9088
  727MOL0     C98036   6.684   5.134   4.193  0.0755  0.1431 -1.0148
  727MOL0     C98037   6.820   5.176   4.188  0.1294 -0.3076 -0.4216
  727MOL0     C98038   6.927   5.099   4.143 -0.4570 -0.7954 -0.1846
  727MOL0     C98039   7.067   5.154   4.110 -0.0621 -0.2303  0.5911
  727MOL0     O98040   7.173   5.070   4.091 -0.3235  0.5410 -0.4131
  727MOL0     C98041   7.294   5.113   4.040  0.1489  0.5297 -0.0391
  727MOL0     C98042   7.292   5.170   3.913 -0.6155 -0.1472 -0.0386
  727MOL0     C98043   7.415   5.232   3.869  1.0939 -0.4963 -0.5373
  727MOL0     C98044   7.527   5.222   3.952 -0.8224 -0.1216  0.3507
  727MOL0     O98045   7.654   5.257   3.913 -0.3143  0.2857 -0.5257
  727MOL0     C98046   7.659   5.380   3.833  0.2457 -0.1613 -0.4550
  727MOL0     C98047   7.805   5.432   3.821 -0.7102  0.6556 -0.0740
  727MOL0     C98048   7.860   5.355   3.705 -0.4337  0.4098  0.0753
  727MOL0     C98049   8.003   5.382   3.685  0.0850  0.4881 -0.6442
  727MOL0     C98050   8.041   5.307   3.550 -0.9455 -0.0206 -0.2862
  727MOL0     C98051   8.188   5.321   3.510 -0.3542  0.1966 -0.0542
  727MOL0     C98052   8.234   5.240   3.383 -0.0384  0.4290  0.6959
  727MOL0     C98053   8.358   5.300   3.306  0.3077 -0.4503 -0.1655
  727MOL0    Cl98054   8.513   5.240   3.362  0.0475 -0.1590 -0.4013
  727MOL0     C98055   7.523   5.159   4.073  0.9408 -0.0090 -0.6438
  727MOL0     C98056   7.404   5.104   4.122 -0.3614  0.7780  0.3296
  727MOL0     O98057   7.073   5.282   4.108 -0.3864 -0.3256 -0.3719
  727MOL0     C98058   6.908   4.966   4.129  0.8403 -0.2144 -0.4179
  727MOL0     C98059   6.782   4.910   4.149  0.3328 -0.7988  0.1442
  727MOL0     N98060   5.825   4.971   4.318 -0.5751  0.6732  0.1723
  727MOL0     N98061   5.736   5.068   4.320 -0.4120  0.5181  0.0276
  727MOL0     C98062   5.391   6.152   4.948  0.1774  0.7604  0.0052
  727MOL0     C98063   5.367   6.166   5.086  1.2701 -0.4361 -0.3671
  727MOL0     C98064   5.172   6.096   5.474 -1.4361 -0.1568  0.5213
  727MOL0     C98065   5.256   6.177   5.558  0.0147 -0.0707  0.7443
  727MOL0     C98066   5.230   6.186   5.698  0.5224 -0.6159 -0.0373
  727MOL0     C98067   5.123   6.120   5.749  0.1014  1.2070 -0.5354
  727MOL0     O98068   5.069   6.123   5.872  0.3441  0.2199 -0.0050
  727MOL0     C98069   5.117   6.213   5.974 -0.0870 -1.3815  0.7960
  727MOL0     C98070   5.220   6.139   6.063 -0.3648 -0.0827  0.1286
  727MOL0     C98071   5.153   6.040   6.161  0.0155  0.4906  0.3107
  727MOL0     C98072   5.232   6.045   6.298 -0.5958 -0.0489  1.0591
  727MOL0     C98073   5.173   5.952   6.394 -0.4769  0.2610 -0.3438
  727MOL0     C98074   5.107   5.870   6.456 -0.3951 -0.0624  0.0238
  727MOL0     C98075   5.037   6.049   5.664 -0.9516  0.1383  0.1905
  727MOL0     C98076   5.067   6.026   5.523  0.9610 -0.7356  0.1017
  727MOL0     C98077   4.979   5.935   5.439 -0.4038 -0.2345  0.6128
  727MOL0     H98078   5.412   5.846   5.172  0.0524  0.9550  0.7139
  727MOL0     H98079   5.482   5.834   4.925 -1.0522 -1.2859  2.3222
  727MOL0     H98080   5.678   6.131   4.743  0.9944  0.2614 -1.0748
  727MOL0     H98081   5.676   5.978   4.817  0.4960 -2.0903 -1.5505
  727MOL0     H98082   5.767   5.975   4.591  0.3352  1.3200  1.2422
  727MOL0     H98083   5.605   6.006   4.520  1.8778  1.4662 -1.9852
  727MOL0     H98084   5.504   5.818   4.647 -0.7436  2.5149 -0.6468
  727MOL0     H98085   5.665   5.763   4.707 -0.0917 -1.2578 -0.4385
  727MOL0     H98086   5.580   5.764   4.416  1.8549  0.0999 -0.9793
  727MOL0     H98087   5.745   5.746   4.469 -0.0167 -1.3009  0.6916
  727MOL0     H98088   5.713   5.545   4.593 -1.8849 -3.0553  1.2044
  727MOL0     H98089   5.536   5.559   4.574 -2.1088 -1.3875 -5.4538
  727MOL0     H98090   5.556   5.527   4.324  0.8137  0.9592 -3.7018
  727MOL0     H98091   5.722   5.558   4.327 -0.7066 -0.8373 -0.6020
  727MOL0     H98092   5.597   5.304   4.443 -0.5535  0.5607  2.7621
  727MOL0     H98093   5.756   5.350   4.489 -1.2713  2.3409  1.4073
  727MOL0     H98094   5.646   5.313   4.209 -1.1818  2.9100  0.0407
  727MOL0     H98095   5.807   5.397   4.237 -2.6898  3.5098  1.3087
  727MOL0     H98096   6.000   5.218   4.202  4.7592 -1.7411  3.8226
  727MOL0     H98097   6.039   4.833   4.282 -2.7859 -0.7987 -1.6269
  727MOL0     H98098   6.042   4.918   4.119  1.0563 -1.4189  0.2269
  727MOL0     H98099   6.186   5.095   4.225 -1.5843 -0.0239 -1.9309
  727MOL0     H98100   6.213   4.990   4.355  1.5617  2.5603 -0.7038
  727MOL0     H98101   6.281   4.881   4.082 -4.7740  1.0557  1.1269
  727MOL0     H98102   6.319   4.826   4.248 -0.7202  0.4481 -0.0185
  727MOL0     H98103   6.446   5.022   4.294 -1.7403  0.2214  1.0995
  727MOL0     H98104   6.419   5.082   4.123 -1.8945 -0.2293  0.4794
  727MOL0     H98105   6.600   5.199   4.218  0.0875 -0.6207  1.2551
  727MOL0     H98106   6.836   5.278   4.223 -0.7892 -0.1159 -0.5229
  727MOL0     H98107   7.197   5.193   3.866  0.1923 -0.8614 -2.1276
  727MOL0     H98108   7.405   5.298   3.783  0.0880  0.6999  0.4584
  727MOL0     H98109   7.619   5.369   3.732  1.2669 -0.5129 -0.8409
  727MOL0     H98110   7.603   5.454   3.890  0.6581  1.5908 -2.2014
  727MOL0     H98111   7.800   5.538   3.793  3.3439  0.5895 -1.7108
  727MOL0     H98112   7.870   5.409   3.906  1.4088  0.2010 -1.7283
  727MOL0     H98113   7.863   5.247   3.719 -0.1835 -0.1543 -3.4922
  727MOL0     H98114   7.805   5.378   3.613  1.9118 -0.7145 -1.6881
  727MOL0     H98115   8.070   5.351   3.766  1.0717  0.1988 -1.5435
  727MOL0     H98116   8.030   5.488   3.674  1.4765  0.2868  0.5789
  727MOL0     H98117   7.986   5.350   3.466 -0.7494  1.6972  0.4295
  727MOL0     H98118   8.017   5.200   3.551 -0.1950 -0.2006 -0.5559
  727MOL0     H98119   8.211   5.427   3.494  3.1019 -0.3120  0.6949
  727MOL0     H98120   8.251   5.273   3.585 -0.8977 -1.9678 -0.9102
  727MOL0     H98121   8.149   5.233   3.314  1.0345  0.3210 -0.6373
  727MOL0     H98122   8.266   5.138   3.407  2.8797  1.1642  0.1987
  727MOL0     H98123   8.360   5.260   3.204 -0.1461  0.0321 -0.3669
  727MOL0     H98124   8.344   5.408   3.310 -0.7886 -0.4943 -1.6804
  727MOL0     H98125   7.616   5.150   4.128 -0.4968  1.9625  2.4059
  727MOL0     H98126   7.402   5.064   4.223  3.2493  0.0504  0.2571
  727MOL0     H98127   6.982   4.893   4.097  0.1367 -0.7135 -0.9380
  727MOL0     H98128   6.766   4.802   4.148  1.0425 -0.9389  1.4339
  727MOL0     H98129   5.389   6.240   4.886 -2.2160 -1.4345 -3.4067
  727MOL0     H98130   5.334   6.256   5.138  0.2181 -1.0947  0.1406
  727MOL0     H98131   5.339   6.233   5.516  1.1351 -1.2012  1.3788
  727MOL0     H98132   5.293   6.252   5.755 -0.9669  1.5360 -0.7485
  727MOL0     H98133   5.041   6.272   6.028  0.8521  0.4732  0.1808
  727MOL0     H98134   5.164   6.291   5.914  0.0204 -2.4662 -0.5546
  727MOL0     H98135   5.283   6.215   6.110 -1.9168 -0.0329  2.3132
  727MOL0     H98136   5.291   6.085   5.999  2.4892  2.3938  0.9769
  727MOL0     H98137   5.167   5.939   6.122  0.6952  0.0735  1.5637
  727MOL0     H98138   5.045   6.058   6.165 -0.0820  0.2108 -0.8514
  727MOL0     H98139   5.332   6.008   6.274 -1.0533  0.7745 -2.6351
  727MOL0     H98140   5.230   6.148   6.334 -2.0430  0.1688  0.4086
  727MOL0     H98141   5.040   5.798   6.498 -0.3328 -0.8765 -1.2372
  727MOL0     H98142   4.957   5.995   5.713 -0.7046  0.2144  0.6791
  727MOL0     H98143   5.027   5.876   5.360 -0.7422 -0.8952  0.8962
  727MOL0     H98144   4.924   5.860   5.496 -1.1086 -2.0921 -2.2738
  727MOL0     H98145   4.920   5.998   5.372  1.2962  0.4495 -0.3084
  728MOL0     O98146   4.294   6.239   7.751  0.6459  0.0504 -0.1662
  728MOL0     C98147   4.347   6.166   7.666 -0.2201  0.1595 -0.0508
  728MOL0     O98148   4.290   6.069   7.594  0.0181  0.7816  0.2444
  728MOL0     C98149   4.167   6.017   7.626 -0.1115  0.3813  0.2702
  728MOL0     C98150   4.075   5.987   7.524 -0.6890 -0.6006  0.2786
  728MOL0     C98151   3.947   5.934   7.552 -0.3132  0.1884 -0.2806
  728MOL0     C98152   3.905   5.913   7.684 -0.7536 -0.1099 -0.6171
  728MOL0     O98153   3.780   5.879   7.712 -0.3607 -0.6072  0.1568
  728MOL0     C98154   3.694   5.990   7.731 -1.0942 -0.2302 -0.2883
  728MOL0     C98155   3.593   6.002   7.628 -0.1498 -0.6040 -0.6219
  728MOL0     C98156   3.451   6.016   7.696  0.0234  0.3666 -0.4189
  728MOL0     C98157   3.380   5.889   7.713 -0.5231  0.1835 -0.4118
  728MOL0     C98158   3.234   5.906   7.747 -0.8664 -0.1269  0.1657
  728MOL0     C98159   3.184   5.796   7.847 -0.5109 -0.6178  0.2498
  728MOL0     C98160   3.040   5.830   7.888  0.6409 -0.2645 -0.1880
  728MOL0     C98161   3.028   5.954   7.979  0.8367 -0.9657  0.9200
  728MOL0     N98162   3.138   5.992   8.073  0.8775  0.2518 -0.1254
  728MOL0     C98163   3.196   5.897   8.150 -0.4475 -0.6978  0.2722
  728MOL0     C98164   3.254   5.960   8.252  0.0597  0.1660  0.3485
  728MOL0     C98165   3.335   5.910   8.372  0.0499 -0.5702  0.1898
  728MOL0     C98166   3.362   5.757   8.359  0.0411 -0.7234 -0.4815
  728MOL0     C98167   3.450   5.714   8.481  0.7160  0.6747  0.0048
  728MOL0     C98168   3.507   5.566   8.461  0.7496  0.0928 -0.6739
  728MOL0     O98169   3.565   5.514   8.581  0.0990 -0.0411 -0.0022
  728MOL0     C98170   3.696   5.566   8.602 -0.4318  0.9771 -0.3373
  728MOL0     C98171   3.701   5.664   8.695  0.6219 -0.1384  0.4615
  728MOL0     C98172   3.822   5.726   8.728  0.2487  0.6645  0.9106
  728MOL0     C98173   3.943   5.687   8.669 -0.5519 -0.2760 -0.1486
  728MOL0     C98174   4.074   5.748   8.710  0.3508  0.5872 -0.7677
  728MOL0     O98175   4.183   5.660   8.686 -0.8541 -0.7701 -0.5460
  728MOL0     C98176   4.301   5.732   8.675  0.4992  0.2665  0.4535
  728MOL0     C98177   4.353   5.804   8.789  0.3024 -0.3493 -0.0970
  728MOL0     C98178   4.458   5.897   8.766 -0.1183 -0.2736 -0.4097
  728MOL0     C98179   4.504   5.929   8.634 -0.3385  0.0653  0.3177
  728MOL0     O98180   4.606   6.009   8.597  0.1423 -0.4658  0.0680
  728MOL0     C98181   4.668   6.085   8.694 -0.1482 -0.6272 -0.2480
  728MOL0     C98182   4.808   6.118   8.652 -0.1608 -0.4959 -1.0326
  728MOL0     C98183   4.858   6.242   8.725  0.8362  0.2140 -0.6451
  728MOL0     C98184   5.008   6.274   8.695 -0.7744 -1.3648  0.7167
  728MOL0     C98185   5.043   6.424   8.730 -0.2505  0.4050  0.3503
  728MOL0     C98186   5.148   6.480   8.638  0.2401  0.6758 -0.8404
  728MOL0     C98187   5.179   6.634   8.672 -0.2871  0.3588  0.0164
  728MOL0     C98188   5.321   6.676   8.622 -0.4945  0.8713  0.8096
  728MOL0    Cl98189   5.466   6.619   8.714  0.1865 -0.2277  0.0158
  728MOL0     C98190   4.448   5.856   8.526  0.3832  0.2988 -0.4358
  728MOL0     C98191   4.352   5.755   8.542 -0.5392 -0.0242  0.1356
  728MOL0     O98192   4.073   5.867   8.743  0.4123 -0.2001 -0.2566
  728MOL0     C98193   3.946   5.580   8.582  0.1532  0.3466  0.1525
  728MOL0     C98194   3.816   5.521   8.543  0.0371  0.6008 -0.7818
  728MOL0     N98195   3.228   6.092   8.227 -0.3004 -0.0795 -0.3858
  728MOL0     N98196   3.158   6.108   8.130  0.0561 -0.6982  0.2795
  728MOL0     C98197   3.998   5.935   7.785 -0.1316  0.2873  0.9690
  728MOL0     C98198   4.122   5.986   7.754 -0.0325 -0.5283 -0.1783
  728MOL0     C98199   4.493   6.180   7.634 -0.3936  0.7539 -0.0925
  728MOL0     C98200   4.537   6.149   7.504  0.0303 -0.5107  0.6343
  728MOL0     C98201   4.667   6.159   7.469  0.2037 -0.3064 -0.3767
  728MOL0     C98202   4.769   6.186   7.557  0.4638 -0.4633 -0.6942
  728MOL0     O98203   4.891   6.197   7.502  0.2404  0.2423  0.5189
  728MOL0     C98204   5.005   6.230   7.584  0.5779  0.1900 -0.0380
  728MOL0     C98205   5.132   6.181   7.531  0.0975 -0.0390 -0.4583
  728MOL0     C98206   5.149   6.243   7.394  0.5244 -0.1223 -0.6497
  728MOL0     C98207   5.289   6.213   7.332 -0.0188 -0.4869  0.2950
  728MOL0     C98208   5.316   6.071   7.330  0.6179  0.1849  0.2520
  728MOL0     C98209   5.340   5.948   7.329  0.4724 -0.5660  0.4052
  728MOL0     C98210   4.724   6.213   7.690  0.2699  0.2291  0.0921
  728MOL0     C98211   4.595   6.216   7.734  0.0242  0.1368 -0.1654
  728MOL0     C98212   4.551   6.257   7.866  0.1592  0.0360  0.3140
  728MOL0     H98213   4.097   6.021   7.424 -0.3389  2.6361  1.3413
  728MOL0     H98214   3.878   5.922   7.469 -1.1433 -3.2774  0.7560
  728MOL0     H98215   3.653   5.980   7.833  0.5566 -0.0994  0.4127
  728MOL0     H98216   3.745   6.087   7.739  0.2991 -1.0877  3.5437
  728MOL0     H98217   3.601   5.926   7.550  0.9320  2.2555 -3.5083
  728MOL0     H98218   3.614   6.096   7.575 -0.2733 -1.0934 -1.5548
  728MOL0     H98219   3.393   6.082   7.630 -1.5204 -0.1432  0.3890
  728MOL0     H98220   3.445   6.066   7.793  1.6332  0.0252 -0.1239
  728MOL0     H98221   3.389   5.820   7.628  2.7536  0.8927 -0.7826
  728MOL0     H98222   3.424   5.835   7.797 -4.1881 -1.4604  0.6592
  728MOL0     H98223   3.221   6.005   7.790 -0.9379 -0.0672  0.0057
  728MOL0     H98224   3.186   5.897   7.649  0.1460 -1.9972 -0.2040
  728MOL0     H98225   3.177   5.698   7.800  0.7919 -0.5682 -0.0831
  728MOL0     H98226   3.250   5.785   7.933  0.0200 -2.5882 -0.3616
  728MOL0     H98227   2.990   5.748   7.941  3.5601 -1.6570  0.6091
  728MOL0     H98228   2.973   5.849   7.803 -0.9148 -4.9826 -0.3177
  728MOL0     H98229   3.025   6.039   7.910  0.8292 -0.2282  1.8137
  728MOL0     H98230   2.935   5.938   8.034 -2.0768  1.1311 -2.9000
  728MOL0     H98231   3.189   5.790   8.136  1.6801 -0.7090 -1.1770
  728MOL0     H98232   3.431   5.962   8.367  0.7424 -1.8054  0.3417
  728MOL0     H98233   3.294   5.939   8.470 -0.0986  1.6988 -0.4925
  728MOL0     H98234   3.264   5.708   8.362 -0.4098  0.1781  1.6434
  728MOL0     H98235   3.417   5.732   8.269  0.3083 -1.3228 -0.1585
  728MOL0     H98236   3.387   5.723   8.570  0.7877 -0.5687  0.1901
  728MOL0     H98237   3.533   5.785   8.484  1.8152 -0.5452 -0.8045
  728MOL0     H98238   3.574   5.559   8.375 -1.1532 -2.2353 -2.0906
  728MOL0     H98239   3.428   5.494   8.437 -0.6761  1.1353  0.7124
  728MOL0     H98240   3.612   5.694   8.749  1.4876 -1.0388  2.4778
  728MOL0     H98241   3.816   5.806   8.802 -2.8419 -0.3503  1.9137
  728MOL0     H98242   4.303   5.801   8.886  0.9963 -0.1259  0.2735
  728MOL0     H98243   4.520   5.946   8.839  0.1697  0.7343 -1.3066
  728MOL0     H98244   4.607   6.175   8.708  0.3868 -0.3608  0.4363
  728MOL0     H98245   4.680   6.035   8.790  2.0760  0.9112  0.3628
  728MOL0     H98246   4.872   6.035   8.684  0.5427  1.0072  1.9156
  728MOL0     H98247   4.807   6.138   8.545 -0.3289 -2.4564 -1.4294
  728MOL0     H98248   4.790   6.320   8.690 -0.1581 -1.2548 -2.1395
  728MOL0     H98249   4.849   6.255   8.833  2.6813 -0.4613 -0.3623
  728MOL0     H98250   5.021   6.259   8.588  0.0262  1.0280  0.4133
  728MOL0     H98251   5.089   6.223   8.748 -0.9422  1.3475  3.9482
  728MOL0     H98252   5.082   6.420   8.832  2.5698 -0.0261 -0.6470
  728MOL0     H98253   4.945   6.472   8.725 -1.5657 -2.2063 -1.1210
  728MOL0     H98254   5.240   6.425   8.661  0.2337  1.8044  2.5055
  728MOL0     H98255   5.112   6.451   8.539 -2.2381 -2.5507  0.7899
  728MOL0     H98256   5.191   6.644   8.781  5.6292 -2.7929  0.0790
  728MOL0     H98257   5.112   6.705   8.622  0.1170 -0.4286 -1.6932
  728MOL0     H98258   5.333   6.642   8.518  1.8019  1.9807  0.6534
  728MOL0     H98259   5.319   6.785   8.626 -3.4123  0.8906  0.9240
  728MOL0     H98260   4.491   5.860   8.427  0.0110 -4.1124 -0.9527
  728MOL0     H98261   4.323   5.708   8.448 -0.3855 -1.8440  0.9563
  728MOL0     H98262   4.040   5.537   8.549  2.5322  3.3820  2.3835
  728MOL0     H98263   3.824   5.438   8.474 -0.4972  1.1779 -1.5597
  728MOL0     H98264   3.961   5.923   7.886 -0.4914 -1.2751  0.6754
  728MOL0     H98265   4.196   6.007   7.830  0.5851  0.6500 -1.0674
  728MOL0     H98266   4.462   6.121   7.430 -0.5857 -2.3630  1.8941
  728MOL0     H98267   4.684   6.129   7.367  0.5803  0.2700 -0.4888
  728MOL0     H98268   4.987   6.203   7.689 -0.0997  1.7113  0.2676
  728MOL0     H98269   4.999   6.339   7.581  0.6853  0.1764 -1.0081
  728MOL0     H98270   5.126   6.073   7.521  1.6150 -0.3751  1.5242
  728MOL0     H98271   5.219   6.216   7.588 -1.0208  2.7553 -0.2760
  728MOL0     H98272   5.121   6.349   7.394 -0.3823 -0.3502 -0.6980
  728MOL0     H98273   5.073   6.205   7.324  0.7962  1.0119 -1.6056
  728MOL0     H98274   5.291   6.252   7.229 -2.8078 -0.8272  0.0281
  728MOL0     H98275   5.363   6.267   7.392  0.7944  1.7443 -2.4818
  728MOL0     H98276   5.367   5.845   7.341 -0.9848 -0.8396  1.6591
  728MOL0     H98277   4.802   6.247   7.757 -0.1769 -0.3789  0.9289
  728MOL0     H98278   4.490   6.175   7.906 -0.0631 -1.4618 -2.7837
  728MOL0     H98279   4.637   6.274   7.932  0.4971  2.1497 -0.5870
  728MOL0     H98280   4.487   6.345   7.855  2.1078  1.3589 -1.1090
  729MOL0     O98281   3.937   9.794   6.809  0.3959 -0.1197 -0.2357
  729MOL0     C98282   3.835   9.762   6.746  0.1826  0.5033  0.3448
  729MOL0     O98283   3.823   9.648   6.675 -0.7000  1.3091 -0.3780
  729MOL0     C98284   3.912   9.554   6.706 -1.5495  0.5301  0.5023
  729MOL0     C98285   4.026   9.522   6.628  0.2621 -0.9243  0.7052
  729MOL0     C98286   4.115   9.426   6.652 -0.8585 -0.5959  0.0141
  729MOL0     C98287   4.111   9.363   6.783 -1.0772 -1.0011 -0.4260
  729MOL0     O98288   4.219   9.289   6.823 -0.5916  0.5041 -0.0391
  729MOL0     C98289   4.176   9.152   6.836  0.0540  0.2728 -1.3821
  729MOL0     C98290   4.297   9.066   6.886  0.5053  0.2117 -0.2002
  729MOL0     C98291   4.418   9.043   6.785  0.7723 -0.1278  0.1079
  729MOL0     C98292   4.372   9.039   6.635 -0.6412 -0.9002  0.3532
  729MOL0     C98293   4.498   9.048   6.545 -0.1524  0.2023  0.9781
  729MOL0     C98294   4.593   8.933   6.540 -0.1178  0.0366 -0.1774
  729MOL0     C98295   4.538   8.798   6.480  0.5686  0.1121  0.1298
  729MOL0     C98296   4.524   8.791   6.329 -0.5835 -0.1091 -0.3726
  729MOL0     N98297   4.655   8.834   6.275 -0.4923 -0.0764  0.0822
  729MOL0     C98298   4.767   8.755   6.293  0.8219 -0.0518  0.2204
  729MOL0     C98299   4.870   8.831   6.245  0.3289  0.2673 -0.0867
  729MOL0     C98300   5.009   8.802   6.247 -0.2280  0.3593  0.5934
  729MOL0     C98301   5.091   8.920   6.314 -0.3792  0.7968 -1.2047
  729MOL0     C98302   5.171   8.990   6.212 -0.1344 -0.8331 -0.6498
  729MOL0     C98303   5.245   9.102   6.296  0.3337 -0.4669  0.3279
  729MOL0     O98304   5.349   9.159   6.211 -0.0059 -0.0450 -0.0917
  729MOL0     C98305   5.474   9.143   6.251 -0.2765  0.6222  0.4620
  729MOL0     C98306   5.514   9.029   6.316 -0.9149  0.1586  0.2943
  729MOL0     C98307   5.661   9.011   6.339  0.0834  0.5383 -0.4434
  729MOL0     C98308   5.748   9.115   6.324 -0.2342  0.0291  1.0639
  729MOL0     C98309   5.886   9.102   6.372  0.3177  0.2876  0.9253
  729MOL0     O98310   5.975   9.185   6.304  0.1895 -0.1780  1.1458
  729MOL0     C98311   6.105   9.163   6.319 -0.2208 -0.4048  0.0114
  729MOL0     C98312   6.187   9.097   6.220 -0.3472  0.5615 -0.8046
  729MOL0     C98313   6.306   9.049   6.261 -0.2058  0.1158  1.2264
  729MOL0     C98314   6.362   9.084   6.390  0.3211  0.7771  1.0130
  729MOL0     O98315   6.483   9.034   6.425  0.4126 -0.5510  0.6144
  729MOL0     C98316   6.579   9.131   6.483 -0.2315  0.1797 -0.1600
  729MOL0     C98317   6.635   9.221   6.365  0.7583  0.5255 -0.5094
  729MOL0     C98318   6.774   9.184   6.311 -0.5226  0.0833  0.2128
  729MOL0     C98319   6.790   9.027   6.288 -0.0000 -0.4119 -2.0821
  729MOL0     C98320   6.929   8.993   6.342 -0.3033 -0.0078  0.6072
  729MOL0     C98321   6.956   8.844   6.335  0.3451 -0.3962 -0.2018
  729MOL0     C98322   7.108   8.817   6.350 -0.1510 -0.0079  1.1942
  729MOL0     C98323   7.146   8.671   6.335  1.0459 -0.0208 -0.5457
  729MOL0    Cl98324   7.148   8.613   6.159  0.1731 -0.2837 -0.2840
  729MOL0     C98325   6.286   9.166   6.478 -0.2631  0.0161 -0.4243
  729MOL0     C98326   6.158   9.202   6.440 -0.1190 -0.1940 -0.5118
  729MOL0     O98327   5.910   9.019   6.458 -0.5934  0.6776  0.1102
  729MOL0     C98328   5.693   9.236   6.280  0.0473  0.6122  1.0818
  729MOL0     C98329   5.558   9.249   6.248 -0.0975 -0.5102  0.2603
  729MOL0     N98330   4.816   8.953   6.201  0.2852 -0.3808  0.6385
  729MOL0     N98331   4.683   8.958   6.225  0.0786  0.2560  0.5707
  729MOL0     C98332   4.006   9.394   6.870  0.0907  0.1459 -0.5066
  729MOL0     C98333   3.905   9.486   6.832  0.3412 -0.1053  0.2064
  729MOL0     C98334   3.718   9.848   6.740 -0.2246  0.1596 -0.1891
  729MOL0     C98335   3.711   9.946   6.839 -0.4007  0.8238  0.5835
  729MOL0     C98336   3.597  10.028   6.857 -0.5354  0.0867  0.0121
  729MOL0     C98337   3.489  10.019   6.773  0.2752 -0.3270 -0.7229
  729MOL0     O98338   3.384  10.099   6.796  0.2823  1.2296 -0.4299
  729MOL0     C98339   3.252  10.041   6.772 -0.2324  0.3428 -0.1941
  729MOL0     C98340   3.151  10.128   6.841 -0.4017  0.2809  0.9232
  729MOL0     C98341   3.005  10.070   6.806  0.0111 -0.4240  0.3825
  729MOL0     C98342   2.892  10.144   6.878 -0.7606  0.5823  0.1678
  729MOL0     C98343   2.778  10.051   6.910 -0.1115 -1.0825 -0.9744
  729MOL0     C98344   2.686   9.972   6.934 -0.0785  0.5322 -0.1763
  729MOL0     C98345   3.494   9.921   6.675 -0.1121 -0.1908 -0.4940
  729MOL0     C98346   3.603   9.833   6.655 -0.2338  1.1053 -0.6607
  729MOL0     C98347   3.578   9.711   6.554 -0.2371  0.3194  0.1435
  729MOL0     H98348   4.039   9.577   6.535 -0.8417 -1.5573  0.1649
  729MOL0     H98349   4.199   9.403   6.588 -0.0535 -2.6090  1.6776
  729MOL0     H98350   4.101   9.144   6.916  3.4157  1.2270  2.1622
  729MOL0     H98351   4.142   9.106   6.743 -0.2857  0.1238 -1.1885
  729MOL0     H98352   4.252   8.972   6.919 -0.5466  0.6721 -0.2949
  729MOL0     H98353   4.338   9.113   6.976 -0.7362  1.5432 -0.2992
  729MOL0     H98354   4.453   8.941   6.802  2.3896  0.4523  0.3605
  729MOL0     H98355   4.500   9.113   6.800  0.4501  0.4535 -0.7690
  729MOL0     H98356   4.304   8.954   6.623  1.6978 -2.8771  0.2853
  729MOL0     H98357   4.319   9.134   6.626  1.2346  0.1754 -0.1436
  729MOL0     H98358   4.471   9.064   6.441 -1.4936  2.9417  1.6400
  729MOL0     H98359   4.567   9.128   6.576  2.2806 -1.1404 -0.6750
  729MOL0     H98360   4.692   8.959   6.499 -0.4987  1.6750 -0.1036
  729MOL0     H98361   4.627   8.911   6.642  0.5428 -3.9876 -1.1002
  729MOL0     H98362   4.442   8.781   6.531 -0.7534  2.4767 -1.4035
  729MOL0     H98363   4.605   8.720   6.516  1.1889  0.3830 -0.4202
  729MOL0     H98364   4.495   8.689   6.304  2.6470 -1.1557 -0.2556
  729MOL0     H98365   4.440   8.855   6.301 -0.7239 -0.3488 -0.5057
  729MOL0     H98366   4.778   8.654   6.331  0.1871 -0.3616 -0.3843
  729MOL0     H98367   5.033   8.710   6.301 -0.4494  1.3020  2.3630
  729MOL0     H98368   5.034   8.783   6.142 -3.0522 -2.0684  0.2057
  729MOL0     H98369   5.029   8.999   6.357 -0.8076 -1.2510  2.3490
  729MOL0     H98370   5.153   8.887   6.398 -0.0142  0.3145 -1.6514
  729MOL0     H98371   5.124   9.029   6.121 -0.0742  0.0755 -0.3027
  729MOL0     H98372   5.244   8.914   6.184  0.2907 -0.1527 -1.4449
  729MOL0     H98373   5.281   9.074   6.395 -1.8476  1.4611  1.7541
  729MOL0     H98374   5.176   9.183   6.322 -0.3916  0.0707 -2.8718
  729MOL0     H98375   5.441   8.949   6.325 -0.1412 -0.3976  2.1704
  729MOL0     H98376   5.697   8.913   6.368  0.2303  1.4276  2.7454
  729MOL0     H98377   6.142   9.069   6.125  0.3692  1.8076 -1.5390
  729MOL0     H98378   6.374   8.992   6.199  2.3093  0.8553  3.1082
  729MOL0     H98379   6.534   9.196   6.558  2.0149  0.6649  0.8270
  729MOL0     H98380   6.663   9.083   6.535 -1.2774 -1.4976  0.0660
  729MOL0     H98381   6.564   9.237   6.284 -0.3042  2.1650  0.6826
  729MOL0     H98382   6.657   9.319   6.409  4.0476  0.3480 -1.4746
  729MOL0     H98383   6.786   9.236   6.215  0.4792  1.4788  1.0606
  729MOL0     H98384   6.852   9.216   6.381  0.9108 -0.0205 -1.2589
  729MOL0     H98385   6.771   9.011   6.181 -5.5719 -0.6568 -1.3766
  729MOL0     H98386   6.712   8.967   6.335  0.8387  1.7397  2.5868
  729MOL0     H98387   6.949   9.011   6.448  4.0464 -1.8409  0.3204
  729MOL0     H98388   7.013   9.043   6.293 -0.8672 -0.2384 -0.6241
  729MOL0     H98389   6.905   8.816   6.427 -0.6993 -1.8010 -1.1692
  729MOL0     H98390   6.899   8.809   6.248 -1.6798  0.2126  0.8178
  729MOL0     H98391   7.142   8.864   6.443  1.4198  0.7902  0.2592
  729MOL0     H98392   7.160   8.872   6.271 -0.5157 -0.8819  0.3322
  729MOL0     H98393   7.237   8.652   6.391  1.4146 -0.7330 -1.3655
  729MOL0     H98394   7.068   8.608   6.377  0.9416 -2.5712 -4.0818
  729MOL0     H98395   6.323   9.187   6.577 -1.9332  0.9262  0.0553
  729MOL0     H98396   6.101   9.253   6.517  0.3932  0.5424 -0.6125
  729MOL0     H98397   5.770   9.312   6.268  0.6674 -0.2830 -1.1806
  729MOL0     H98398   5.513   9.344   6.222  2.3683  0.9266  0.8803
  729MOL0     H98399   3.997   9.348   6.968  1.1768  0.2740 -0.3369
  729MOL0     H98400   3.824   9.516   6.898  0.5887 -0.4625  0.6744
  729MOL0     H98401   3.796   9.971   6.900 -0.4992  0.4872  0.8644
  729MOL0     H98402   3.595  10.101   6.937 -2.3374 -1.3292  1.3495
  729MOL0     H98403   3.237   9.940   6.812 -2.5675  0.6890 -0.0598
  729MOL0     H98404   3.227  10.030   6.666 -2.3258 -1.0596  0.3817
  729MOL0     H98405   3.153  10.231   6.806 -0.3943 -0.7650 -2.4621
  729MOL0     H98406   3.166  10.125   6.950  2.0229 -0.4443  0.6360
  729MOL0     H98407   2.995   9.962   6.818  0.4200 -0.3303  1.8389
  729MOL0     H98408   2.990  10.088   6.699 -1.1303  0.9033  0.7322
  729MOL0     H98409   2.930  10.169   6.978 -1.2258 -1.4012  0.8752
  729MOL0     H98410   2.862  10.233   6.823 -0.2922  0.3345 -0.5001
  729MOL0     H98411   2.605   9.904   6.950 -0.3214  0.3540 -2.0196
  729MOL0     H98412   3.404   9.882   6.627 -0.4051 -1.3290  0.9068
  729MOL0     H98413   3.665   9.711   6.488 -0.4092  1.8006 -0.1045
  729MOL0     H98414   3.573   9.620   6.615  0.4194  1.3788  1.8523
  729MOL0     H98415   3.484   9.722   6.500 -1.1528 -1.2024  1.3363
  730MOL0     O98416   8.337   9.046   9.228 -0.1050 -0.6368  0.7539
  730MOL0     C98417   8.283   8.937   9.220  0.3157 -0.5449  0.1869
  730MOL0     O98418   8.350   8.821   9.199  0.1405 -0.1619 -0.0766
  730MOL0     C98419   8.482   8.813   9.145  0.9235  0.7855 -0.8743
  730MOL0     C98420   8.574   8.916   9.125 -0.3108  0.1838 -0.1894
  730MOL0     C98421   8.696   8.892   9.055 -0.0817 -0.6717 -0.4823
  730MOL0     C98422   8.731   8.751   9.028 -0.0195 -0.2836 -0.2876
  730MOL0     O98423   8.851   8.731   8.960 -0.4046 -1.3050 -0.2050
  730MOL0     C98424   8.905   8.609   8.985  0.0553 -0.0058 -0.1513
  730MOL0     C98425   9.059   8.600   8.958 -0.5448 -0.5562  0.5284
  730MOL0     C98426   9.144   8.683   9.053  0.0996  0.4152  0.1161
  730MOL0     C98427   9.285   8.686   9.019 -1.3607 -0.1881  0.7647
  730MOL0     C98428   9.358   8.773   9.120 -0.2358 -0.0837 -0.2395
  730MOL0     C98429   9.509   8.792   9.087  0.1786  0.1078 -0.3125
  730MOL0     C98430   9.561   8.874   9.206 -0.6050 -0.6179  0.8479
  730MOL0     C98431   9.709   8.906   9.182 -0.3272 -0.2721  0.3134
  730MOL0     N98432   9.765   8.988   9.278 -0.1567  1.4101 -0.6436
  730MOL0     C98433   9.811   9.116   9.264 -0.2397 -0.3696  0.4780
  730MOL0     C98434   9.862   9.150   9.385 -0.4002  0.5625 -0.1944
  730MOL0     C98435   9.924   9.276   9.413 -0.6597  0.8623 -0.2119
  730MOL0     C98436  10.062   9.286   9.364 -0.8615 -0.1794 -0.4132
  730MOL0     C98437  10.161   9.190   9.437 -0.6902 -0.2026 -0.4092
  730MOL0     C98438  10.308   9.213   9.404  0.5103  0.0681 -0.0269
  730MOL0     O98439  10.384   9.131   9.489  0.6724  0.1358  0.3446
  730MOL0     C98440  10.429   9.195   9.600  0.0865  0.1236 -0.0806
  730MOL0     C98441  10.383   9.310   9.665  0.0113 -0.4928 -1.0290
  730MOL0     C98442  10.451   9.367   9.773  0.0247 -1.0168 -0.1683
  730MOL0     C98443  10.565   9.305   9.827  0.7341 -0.7357  0.6830
  730MOL0     C98444  10.634   9.374   9.936 -0.8540 -0.0527 -0.0760
  730MOL0     O98445  10.565   9.474   9.999 -0.2969  1.3002  0.1837
  730MOL0     C98446  10.614   9.514  10.121 -0.7351 -0.5849 -0.1319
  730MOL0     C98447  10.710   9.619  10.135 -0.4326 -0.3526 -0.4762
  730MOL0     C98448  10.747   9.666  10.262  0.0080  0.0657  0.4256
  730MOL0     C98449  10.697   9.607  10.381 -0.0804 -0.2553 -0.4864
  730MOL0     O98450  10.743   9.655  10.502 -0.2248 -0.7352 -0.2011
  730MOL0     C98451  10.777   9.557  10.605  0.1626  0.3503  0.1773
  730MOL0     C98452  10.742   9.619  10.736  0.1526  0.5888 -0.5633
  730MOL0     C98453  10.722   9.507  10.842 -0.1605  0.7621  0.1118
  730MOL0     C98454  10.674   9.578  10.974 -0.5036 -1.0313 -0.4716
  730MOL0     C98455  10.613   9.464  11.062 -0.3413 -0.1550 -0.6315
  730MOL0     C98456  10.608   9.495  11.215 -0.6024  0.3399 -0.1874
  730MOL0     C98457  10.743   9.490  11.283  0.2490 -0.4727 -0.5697
  730MOL0     C98458  10.821   9.372  11.270 -0.2592  1.0044 -0.6474
  730MOL0    Cl98459  10.710   9.246  11.309 -0.2405  0.2909 -0.2329
  730MOL0     C98460  10.603   9.502  10.365  0.5818  0.5469  0.0620
  730MOL0     C98461  10.567   9.455  10.240 -0.4769  0.2558 -0.2853
  730MOL0     O98462  10.748   9.340   9.959 -0.9593  0.1102  0.4279
  730MOL0     C98463  10.607   9.178   9.771  0.1512 -0.7523 -0.5999
  730MOL0     C98464  10.535   9.128   9.664  0.1681 -0.1950 -0.0974
  730MOL0     N98465   9.848   9.038   9.471  0.3599  0.0130 -0.0533
  730MOL0     N98466   9.783   8.949   9.407  0.2577  0.4591  0.0992
  730MOL0     C98467   8.634   8.659   9.048 -0.8576 -0.2273 -0.5834
  730MOL0     C98468   8.517   8.684   9.106  0.2890 -0.2938 -0.5135
  730MOL0     C98469   8.137   8.918   9.258  0.9184  0.4610 -0.1325
  730MOL0     C98470   8.085   8.789   9.262 -0.5208 -0.6808  0.2610
  730MOL0     C98471   7.947   8.767   9.295  0.1791 -1.0574  0.3331
  730MOL0     C98472   7.860   8.878   9.285  0.1211 -0.4061  0.7145
  730MOL0     O98473   7.726   8.852   9.287  0.2824 -0.0058  0.6918
  730MOL0     C98474   7.666   8.815   9.164  0.6593 -0.1601  0.2717
  730MOL0     C98475   7.578   8.924   9.124 -0.0486  0.8731  0.2822
  730MOL0     C98476   7.469   8.888   9.025  0.2894 -0.2248 -0.0756
  730MOL0     C98477   7.387   9.013   8.965 -0.2537  0.6870 -0.0872
  730MOL0     C98478   7.247   9.003   8.995  0.0341 -0.8345 -0.1549
  730MOL0     C98479   7.129   8.988   8.991  0.1019  0.1287  0.5563
  730MOL0     C98480   7.913   9.008   9.293 -0.0497 -0.6657 -0.1919
  730MOL0     C98481   8.050   9.028   9.280 -0.9495 -0.2592 -0.3130
  730MOL0     C98482   8.096   9.177   9.281  0.5013  0.6032  0.2970
  730MOL0     H98483   8.547   9.020   9.143 -2.0622 -0.3509  0.4298
  730MOL0     H98484   8.747   8.979   9.015  1.4294 -0.1124  2.4446
  730MOL0     H98485   8.888   8.580   9.089 -2.9835  2.8968  0.3199
  730MOL0     H98486   8.864   8.544   8.906  1.3204  1.4459 -2.1193
  730MOL0     H98487   9.077   8.629   8.853 -1.3579  1.8515  0.9914
  730MOL0     H98488   9.100   8.499   8.967 -0.7730 -0.5359  2.0142
  730MOL0     H98489   9.139   8.648   9.156 -0.2294  1.4515  0.4665
  730MOL0     H98490   9.112   8.787   9.051  2.0380  1.0482 -0.8147
  730MOL0     H98491   9.328   8.586   9.011  0.5282  0.4528  2.2492
  730MOL0     H98492   9.292   8.728   8.919 -0.7565 -0.7399  0.5715
  730MOL0     H98493   9.319   8.875   9.118 -1.6404 -0.6083 -0.3641
  730MOL0     H98494   9.342   8.740   9.223  1.2658 -0.5292 -0.1160
  730MOL0     H98495   9.552   8.693   9.069 -1.1972 -0.3684 -1.0680
  730MOL0     H98496   9.528   8.843   8.992 -1.6459  0.9686 -0.2513
  730MOL0     H98497   9.556   8.811   9.295 -0.3411 -2.3517 -0.3081
  730MOL0     H98498   9.506   8.968   9.218 -2.2891 -1.3282 -0.8047
  730MOL0     H98499   9.760   8.809   9.176  1.0072  0.4430 -0.5195
  730MOL0     H98500   9.732   8.956   9.088  2.5824  1.0381  1.5714
  730MOL0     H98501   9.806   9.180   9.177  3.7115 -1.7992 -1.0348
  730MOL0     H98502   9.859   9.343   9.357 -0.5380  0.6795 -0.5751
  730MOL0     H98503   9.916   9.299   9.520  3.9707  1.1170  0.2862
  730MOL0     H98504  10.067   9.262   9.258  0.1154 -0.1733 -0.3804
  730MOL0     H98505  10.104   9.387   9.357  0.4098 -0.8023 -2.7211
  730MOL0     H98506  10.131   9.090   9.406  5.7854 -2.5895 -0.5269
  730MOL0     H98507  10.141   9.197   9.544 -0.9399  2.0222 -0.5467
  730MOL0     H98508  10.326   9.320   9.420 -0.6831  0.3785 -0.6062
  730MOL0     H98509  10.311   9.172   9.303 -0.1843 -1.8426  0.6841
  730MOL0     H98510  10.298   9.368   9.630  0.1166 -0.3503 -1.0495
  730MOL0     H98511  10.405   9.449   9.828  1.6687 -1.1933  1.5434
  730MOL0     H98512  10.742   9.675  10.048  0.0637  0.3616  0.1583
  730MOL0     H98513  10.823   9.743  10.267 -1.0789  1.4543 -2.1995
  730MOL0     H98514  10.729   9.461  10.588  0.4508 -0.3050  2.6627
  730MOL0     H98515  10.884   9.534  10.603 -0.1051 -1.0150  0.7913
  730MOL0     H98516  10.832   9.677  10.759  2.2336 -2.4170 -0.5593
  730MOL0     H98517  10.651   9.679  10.731 -2.0982 -2.0920  3.2006
  730MOL0     H98518  10.650   9.431  10.810  1.3398 -1.3656  1.5923
  730MOL0     H98519  10.818   9.456  10.852 -0.1208  0.8852  0.3623
  730MOL0     H98520  10.597   9.656  10.963 -2.8977 -3.1991 -0.0068
  730MOL0     H98521  10.756   9.620  11.033 -2.1354  0.0532  1.1486
  730MOL0     H98522  10.664   9.368  11.052 -1.1421 -0.6826  0.1557
  730MOL0     H98523  10.507   9.450  11.037 -0.9050  1.4161  0.6850
  730MOL0     H98524  10.565   9.593  11.234 -2.0918 -0.6842  2.1654
  730MOL0     H98525  10.551   9.431  11.284  3.1934 -1.4017  1.6156
  730MOL0     H98526  10.738   9.512  11.390  0.3445  0.8796 -0.8309
  730MOL0     H98527  10.805   9.570  11.242  0.4043 -1.4418 -2.3635
  730MOL0     H98528  10.873   9.365  11.174  3.0396  1.5608  0.9534
  730MOL0     H98529  10.897   9.361  11.348 -1.0457  1.3391  0.1854
  730MOL0     H98530  10.556   9.458  10.452  0.1040  3.5460  1.4719
  730MOL0     H98531  10.487   9.384  10.219  0.4974 -0.8693 -0.3419
  730MOL0     H98532  10.695   9.124   9.805 -1.2824 -1.6690  1.8785
  730MOL0     H98533  10.569   9.034   9.621 -0.7171  0.6340 -2.7927
  730MOL0     H98534   8.659   8.556   9.025  0.7481 -0.2038  0.8509
  730MOL0     H98535   8.454   8.601   9.135  0.7892 -0.3417  0.4652
  730MOL0     H98536   8.149   8.701   9.259  0.1225 -0.5082  3.9257
  730MOL0     H98537   7.909   8.666   9.299 -1.6790 -0.3864  0.2539
  730MOL0     H98538   7.608   8.723   9.176  1.1939 -0.5218  0.1410
  730MOL0     H98539   7.745   8.798   9.089 -1.8971 -2.5654 -2.1002
  730MOL0     H98540   7.635   9.009   9.084 -0.1521  1.3103  1.0462
  730MOL0     H98541   7.526   8.967   9.210 -0.4383  0.9452  0.0140
  730MOL0     H98542   7.396   8.818   9.065 -1.3009  0.7295 -1.1755
  730MOL0     H98543   7.506   8.839   8.934  0.5698  0.9334 -0.6016
  730MOL0     H98544   7.427   9.103   9.011  0.9135  0.0619  0.1636
  730MOL0     H98545   7.410   9.021   8.858 -0.1981 -1.9512 -0.3350
  730MOL0     H98546   7.023   8.974   8.977  0.1729 -0.1259  0.2726
  730MOL0     H98547   7.846   9.094   9.297 -0.3994 -0.9992  2.2179
  730MOL0     H98548   8.188   9.194   9.337 -0.2909 -0.9667  2.1861
  730MOL0     H98549   8.116   9.207   9.178 -0.0996 -0.3618 -0.1113
  730MOL0     H98550   8.022   9.250   9.315 -0.3374 -0.4468  0.8000
  731MOL0     O98551   5.526   8.464   9.314 -0.2769  0.5164  0.4080
  731MOL0     C98552   5.468   8.510   9.408 -0.2036  0.3728 -0.3711
  731MOL0     O98553   5.514   8.588   9.509  0.4151  0.4423  0.3526
  731MOL0     C98554   5.644   8.618   9.543  0.6439  0.6016  0.4810
  731MOL0     C98555   5.761   8.608   9.459  1.0440  0.2395 -0.5519
  731MOL0     C98556   5.879   8.646   9.519 -0.5136 -1.1427  0.2337
  731MOL0     C98557   5.888   8.687   9.652 -0.3453 -1.1488  0.1178
  731MOL0     O98558   6.017   8.713   9.694 -0.0760  0.0509  0.0828
  731MOL0     C98559   6.034   8.726   9.841  1.5974 -0.2998 -0.4346
  731MOL0     C98560   6.173   8.755   9.872  0.1734 -0.2335 -0.3351
  731MOL0     C98561   6.205   8.909   9.840 -0.1401 -0.2236 -0.7471
  731MOL0     C98562   6.360   8.941   9.853  0.0194 -0.0938  0.9508
  731MOL0     C98563   6.430   8.960   9.716 -0.1766 -0.1838  0.4267
  731MOL0     C98564   6.390   8.857   9.610 -0.4332 -0.2348  0.5496
  731MOL0     C98565   6.458   8.881   9.472  0.0071 -0.4901 -0.8859
  731MOL0     C98566   6.407   8.779   9.375 -0.0287  0.7316  0.5047
  731MOL0     N98567   6.480   8.788   9.252  0.2449 -0.1010  0.2232
  731MOL0     C98568   6.604   8.745   9.215 -0.1812  0.3183 -0.4696
  731MOL0     C98569   6.628   8.798   9.099  1.0056 -0.0084  0.0949
  731MOL0     C98570   6.758   8.794   9.015 -0.5468  1.2922 -0.8454
  731MOL0     C98571   6.768   8.664   8.937  0.3701  0.3249  0.6693
  731MOL0     C98572   6.915   8.608   8.931  0.3561  0.6862  0.4284
  731MOL0     C98573   6.927   8.499   8.825  0.7803 -0.0776  0.8285
  731MOL0     O98574   7.063   8.458   8.831  0.2278 -0.4969 -0.0016
  731MOL0     C98575   7.171   8.527   8.770 -1.3025 -0.2716  0.2952
  731MOL0     C98576   7.161   8.658   8.732  0.2735 -0.8739 -0.1810
  731MOL0     C98577   7.270   8.730   8.678  0.4920 -0.8678 -0.5427
  731MOL0     C98578   7.398   8.670   8.675  0.7180 -0.5260 -0.3458
  731MOL0     C98579   7.521   8.727   8.638 -0.4757 -0.5307  0.0983
  731MOL0     O98580   7.521   8.795   8.525 -0.1814 -0.3398  1.0816
  731MOL0     C98581   7.633   8.872   8.501  0.6899 -0.2973 -0.0327
  731MOL0     C98582   7.640   8.991   8.576 -0.2253 -0.0249  0.9568
  731MOL0     C98583   7.741   9.080   8.551 -0.4756  0.0104  0.4272
  731MOL0     C98584   7.835   9.062   8.448 -0.2329  1.2058 -0.2882
  731MOL0     O98585   7.919   9.165   8.417 -0.4233  0.1967 -0.2200
  731MOL0     C98586   8.042   9.143   8.353  0.1039 -0.7446 -0.0321
  731MOL0     C98587   8.126   9.270   8.363 -0.2246 -0.3213  0.1202
  731MOL0     C98588   8.168   9.309   8.511  0.5597 -0.3825  0.7427
  731MOL0     C98589   8.288   9.233   8.558  0.2681  0.6661  0.7400
  731MOL0     C98590   8.339   9.250   8.698 -0.5349  0.4477  0.5073
  731MOL0     C98591   8.450   9.149   8.735  0.1215 -0.1190  0.3732
  731MOL0     C98592   8.585   9.200   8.674 -0.0486  0.2220  0.6203
  731MOL0     C98593   8.641   9.312   8.772  0.4124  0.0867  1.2877
  731MOL0    Cl98594   8.788   9.386   8.698 -0.1474  0.3202 -0.3808
  731MOL0     C98595   7.835   8.938   8.377 -0.2661  0.8181  0.1092
  731MOL0     C98596   7.725   8.848   8.403 -0.6020 -0.0090 -0.2767
  731MOL0     O98597   7.617   8.720   8.720  0.6822  1.1001  0.7819
  731MOL0     C98598   7.405   8.535   8.727 -0.8729 -0.0500 -0.1099
  731MOL0     C98599   7.300   8.469   8.772  0.4101  0.7762  1.0196
  731MOL0     N98600   6.519   8.877   9.060 -0.0255  0.1562 -0.1460
  731MOL0     N98601   6.431   8.862   9.150 -0.1309 -1.0568 -0.3097
  731MOL0     C98602   5.769   8.702   9.727  0.0873 -0.8977 -0.4342
  731MOL0     C98603   5.649   8.669   9.673 -0.3424 -0.0242  0.1640
  731MOL0     C98604   5.318   8.486   9.413  0.0002 -1.1579 -0.9726
  731MOL0     C98605   5.257   8.480   9.288  0.7373 -0.1956 -0.2829
  731MOL0     C98606   5.124   8.466   9.268 -0.5056  0.1006 -0.2460
  731MOL0     C98607   5.043   8.440   9.388 -0.0049 -0.0528  0.1752
  731MOL0     O98608   4.905   8.410   9.371 -0.2893  0.2784  0.0869
  731MOL0     C98609   4.801   8.425   9.472 -0.4675  0.0491 -0.5848
  731MOL0     C98610   4.668   8.458   9.408  0.7167 -0.6487 -0.3157
  731MOL0     C98611   4.558   8.442   9.511  0.5847 -0.6238 -0.2806
  731MOL0     C98612   4.422   8.428   9.446  0.6743  0.1729  0.0157
  731MOL0     C98613   4.374   8.542   9.369 -0.8103 -0.1564 -0.2263
  731MOL0     C98614   4.329   8.635   9.311  0.9043 -0.6155 -0.5521
  731MOL0     C98615   5.104   8.432   9.512 -0.5555  0.1631  0.8585
  731MOL0     C98616   5.241   8.471   9.531 -0.0363  0.1606 -0.0746
  731MOL0     C98617   5.297   8.484   9.668 -0.3536 -0.3641 -0.3936
  731MOL0     H98618   5.765   8.561   9.362  1.4944 -1.7715  0.3863
  731MOL0     H98619   5.976   8.655   9.472 -0.8143  1.5972  0.0161
  731MOL0     H98620   5.982   8.815   9.878 -0.2198 -1.2076 -0.6606
  731MOL0     H98621   6.004   8.636   9.895  1.5607 -0.6773 -1.0757
  731MOL0     H98622   6.240   8.690   9.815  1.4678  0.4604  0.3389
  731MOL0     H98623   6.178   8.728   9.977  0.1592  0.3234 -0.1873
  731MOL0     H98624   6.156   8.965   9.920 -2.0108 -0.3382 -1.7739
  731MOL0     H98625   6.163   8.939   9.744 -1.7866  1.2639  0.3905
  731MOL0     H98626   6.368   9.036   9.907 -4.0353  3.1412 -3.3509
  731MOL0     H98627   6.412   8.871   9.919  1.0107  2.1305  2.6725
  731MOL0     H98628   6.402   9.055   9.669  1.8376  0.2953  0.0991
  731MOL0     H98629   6.538   8.978   9.722 -0.5150  2.3087  0.0150
  731MOL0     H98630   6.400   8.757   9.654  0.1283  0.8308  3.0586
  731MOL0     H98631   6.283   8.871   9.589 -0.9921 -0.2459  3.0446
  731MOL0     H98632   6.567   8.872   9.478  0.1152  0.2922 -1.4298
  731MOL0     H98633   6.426   8.975   9.425  2.1736  0.0967 -1.2981
  731MOL0     H98634   6.423   8.681   9.422  0.7397 -0.2421 -1.6455
  731MOL0     H98635   6.304   8.806   9.352  0.7788  1.5755 -2.6154
  731MOL0     H98636   6.664   8.693   9.289  1.8766  2.4494 -0.5030
  731MOL0     H98637   6.772   8.875   8.943 -0.4785  0.2851 -2.0023
  731MOL0     H98638   6.832   8.792   9.095 -2.2824  1.7431  0.8343
  731MOL0     H98639   6.698   8.583   8.959  2.4838 -1.4973  1.1570
  731MOL0     H98640   6.741   8.691   8.835  0.2771  0.4062  0.7149
  731MOL0     H98641   6.944   8.567   9.028  0.2046 -3.8408 -1.1738
  731MOL0     H98642   6.966   8.701   8.904 -3.5805  2.6214 -1.0712
  731MOL0     H98643   6.902   8.524   8.722  2.3532  1.4247  0.7734
  731MOL0     H98644   6.864   8.416   8.859  2.5332 -1.2247  1.3838
  731MOL0     H98645   7.062   8.703   8.729  0.3220 -0.7339  0.2677
  731MOL0     H98646   7.255   8.834   8.652 -0.8703 -0.3496  2.0492
  731MOL0     H98647   7.579   9.016   8.661  0.5470  0.3753  1.4000
  731MOL0     H98648   7.743   9.179   8.597 -0.4459 -0.0067  0.4642
  731MOL0     H98649   8.095   9.075   8.421  4.0075  4.8379  3.3584
  731MOL0     H98650   8.030   9.106   8.251 -1.8201 -1.2426  0.3352
  731MOL0     H98651   8.218   9.269   8.302 -0.2424  0.0770  0.0852
  731MOL0     H98652   8.066   9.349   8.317 -2.2369 -0.6501  2.0550
  731MOL0     H98653   8.191   9.416   8.512  0.5785 -0.2659 -2.4410
  731MOL0     H98654   8.090   9.289   8.585 -0.3672 -0.1751 -0.1578
  731MOL0     H98655   8.376   9.250   8.494  1.1518 -4.0258  0.3207
  731MOL0     H98656   8.266   9.127   8.543 -1.9356  0.9903  1.3800
  731MOL0     H98657   8.252   9.227   8.760 -0.0921  1.5873  1.5962
  731MOL0     H98658   8.365   9.354   8.714 -2.2941  0.7264  1.8996
  731MOL0     H98659   8.461   9.149   8.844 -0.8389  0.0703  0.4730
  731MOL0     H98660   8.419   9.051   8.698  0.2790 -0.0031 -0.0716
  731MOL0     H98661   8.560   9.236   8.574 -2.7913 -1.9275  0.3996
  731MOL0     H98662   8.658   9.120   8.665  1.6990  1.8479 -0.4525
  731MOL0     H98663   8.568   9.389   8.800 -1.8236 -1.0851 -0.9871
  731MOL0     H98664   8.660   9.261   8.867  1.1047 -1.4125  0.3715
  731MOL0     H98665   7.907   8.915   8.300 -0.9574  0.1970 -0.3614
  731MOL0     H98666   7.719   8.756   8.345 -2.5554 -0.2463  0.2294
  731MOL0     H98667   7.498   8.481   8.742 -2.7240 -3.5586 -0.1770
  731MOL0     H98668   7.323   8.366   8.797 -2.1504  0.0345  0.5313
  731MOL0     H98669   5.767   8.724   9.834  1.5832  1.9773 -0.8979
  731MOL0     H98670   5.560   8.683   9.734 -1.1958  4.4289 -1.6663
  731MOL0     H98671   5.314   8.484   9.196 -1.2537 -2.9564 -1.7953
  731MOL0     H98672   5.074   8.476   9.172 -0.8885  1.2004  0.0467
  731MOL0     H98673   4.825   8.501   9.546 -2.8592  0.5586 -0.2479
  731MOL0     H98674   4.793   8.327   9.519 -0.9219  1.2718  2.0497
  731MOL0     H98675   4.668   8.380   9.330  0.7196  0.2526 -1.2394
  731MOL0     H98676   4.673   8.556   9.361  0.9215 -0.1431  0.7420
  731MOL0     H98677   4.556   8.527   9.580 -0.8079 -1.7603  1.1677
  731MOL0     H98678   4.576   8.353   9.572  1.2666  0.6936  1.5419
  731MOL0     H98679   4.412   8.346   9.373 -1.6120  0.6962 -0.3495
  731MOL0     H98680   4.343   8.401   9.517  0.7213  0.6987  0.2715
  731MOL0     H98681   4.282   8.713   9.256 -3.6038 -2.6742 -0.1360
  731MOL0     H98682   5.030   8.423   9.591 -1.3587  0.0346  0.1122
  731MOL0     H98683   5.230   8.463   9.752 -2.6681  2.4753 -1.3364
  731MOL0     H98684   5.394   8.435   9.682  1.4716  3.4859  2.4292
  731MOL0     H98685   5.329   8.589   9.676  2.4391 -1.2191  1.1309
  732MOL0     O98686   1.470  10.834   5.048  1.0793  0.3284  0.2375
  732MOL0     C98687   1.449  10.934   5.112  0.8386  0.3367 -0.3975
  732MOL0     O98688   1.348  11.020   5.070  0.0303 -0.1124  0.2438
  732MOL0     C98689   1.260  10.980   4.971  1.2596  1.6564 -0.5358
  732MOL0     C98690   1.183  10.858   4.987 -0.7474 -0.3875  0.3652
  732MOL0     C98691   1.098  10.818   4.889  0.7111  0.5264 -1.0863
  732MOL0     C98692   1.079  10.902   4.779  0.8483  1.1508  0.1302
  732MOL0     O98693   0.994  10.854   4.676 -0.7030 -0.2975 -0.0325
  732MOL0     C98694   0.881  10.938   4.655  0.5436  0.1299 -0.6364
  732MOL0     C98695   0.775  10.869   4.573 -0.9791 -0.9855  0.5203
  732MOL0     C98696   0.704  10.966   4.484 -0.4980 -0.8941  0.4925
  732MOL0     C98697   0.561  10.926   4.447 -0.4453 -0.5874 -0.5287
  732MOL0     C98698   0.551  10.793   4.376 -0.9237  0.1898 -0.3594
  732MOL0     C98699   0.419  10.769   4.318 -0.1741  0.0639  0.2723
  732MOL0     C98700   0.389  10.632   4.247  0.8626 -0.9456 -0.8779
  732MOL0     C98701   0.374  10.513   4.344 -0.6927  0.5511  0.1433
  732MOL0     N98702   0.298  10.398   4.303 -0.3169  0.1326 -0.2983
  732MOL0     C98703   0.157  10.388   4.284  0.8312  0.0754 -0.3855
  732MOL0     C98704   0.141  10.270   4.214 -0.3078  0.0699 -1.3536
  732MOL0     C98705   0.020  10.222   4.157  0.0612  0.5060  0.5641
  732MOL0     C98706  -0.049  10.107   4.241 -0.5653  0.0243 -1.2450
  732MOL0     C98707  -0.085  10.158   4.381 -0.2360  0.2563 -1.0742
  732MOL0     C98708  -0.169  10.059   4.452 -0.0901 -0.7562 -0.0516
  732MOL0     O98709  -0.298  10.114   4.487  0.4578 -0.0729  0.7331
  732MOL0     C98710  -0.370  10.026   4.545  0.1978  0.9635  0.1748
  732MOL0     C98711  -0.451   9.938   4.469  0.7957 -0.6867  0.3672
  732MOL0     C98712  -0.530   9.832   4.529 -0.7830 -0.0540  0.0550
  732MOL0     C98713  -0.522   9.813   4.661 -0.3943  0.8082 -0.8927
  732MOL0     C98714  -0.596   9.697   4.727  0.1935  0.5484 -0.0728
  732MOL0     O98715  -0.662   9.612   4.643 -0.2273  0.3961 -0.6099
  732MOL0     C98716  -0.776   9.561   4.686  1.0624  0.8228  0.6488
  732MOL0     C98717  -0.792   9.417   4.689  0.5741 -0.7528 -0.3854
  732MOL0     C98718  -0.909   9.353   4.717  0.2080  0.2087 -0.0224
  732MOL0     C98719  -1.022   9.432   4.732 -0.7928  0.6447  0.9724
  732MOL0     O98720  -1.141   9.364   4.756  0.1136 -0.0336  0.0389
  732MOL0     C98721  -1.216   9.410   4.873 -0.1859 -0.3178  0.2802
  732MOL0     C98722  -1.156   9.355   5.006 -0.8317 -0.7657  0.6379
  732MOL0     C98723  -1.160   9.202   5.010  0.0804  0.1429 -0.6099
  732MOL0     C98724  -1.167   9.138   5.150 -0.0427  0.5254 -0.5444
  732MOL0     C98725  -1.194   8.983   5.129  0.3337 -0.7572 -0.0552
  732MOL0     C98726  -1.267   8.911   5.246 -0.6106 -0.0366  0.2441
  732MOL0     C98727  -1.291   8.772   5.212 -0.3343  0.3847 -0.2209
  732MOL0     C98728  -1.168   8.677   5.220 -0.0320  0.0778  1.5616
  732MOL0    Cl98729  -1.204   8.535   5.134  0.1545 -0.5390 -0.3662
  732MOL0     C98730  -1.014   9.570   4.720 -0.1979  0.2462  0.1548
  732MOL0     C98731  -0.891   9.631   4.707 -0.0387  0.1033 -0.1075
  732MOL0     O98732  -0.623   9.708   4.849  0.7684  0.5552 -0.0017
  732MOL0     C98733  -0.440   9.909   4.746 -0.1939  0.3369  1.1012
  732MOL0     C98734  -0.370  10.002   4.687 -0.5148 -0.4494  0.6073
  732MOL0     N98735   0.268  10.209   4.203  0.4123  0.5907  0.0634
  732MOL0     N98736   0.363  10.286   4.254  0.2127 -0.2754 -0.2194
  732MOL0     C98737   1.141  11.027   4.772  0.8526 -0.5214  0.2443
  732MOL0     C98738   1.235  11.060   4.863  0.7995  1.0386 -0.4567
  732MOL0     C98739   1.535  10.969   5.235  0.1045  1.1189 -0.4271
  732MOL0     C98740   1.547  11.104   5.264 -0.8507 -0.5201  0.6887
  732MOL0     C98741   1.620  11.147   5.377 -0.5407 -0.6903 -0.4219
  732MOL0     C98742   1.698  11.053   5.457 -0.8723 -0.1064  0.1830
  732MOL0     O98743   1.786  11.107   5.547 -0.4444 -0.0079 -0.1756
  732MOL0     C98744   1.885  11.016   5.598  1.1940  0.7364  0.2429
  732MOL0     C98745   1.999  11.090   5.683 -0.4144  0.0628 -0.5627
  732MOL0     C98746   2.086  11.175   5.597 -0.4252  0.3286  0.6103
  732MOL0     C98747   2.133  11.294   5.677 -0.5979  0.4121  0.7958
  732MOL0     C98748   2.223  11.383   5.600  0.5929 -0.5064  0.3963
  732MOL0     C98749   2.289  11.461   5.533 -0.0170 -0.1026 -0.6537
  732MOL0     C98750   1.678  10.918   5.423  0.1080  0.1752 -0.9369
  732MOL0     C98751   1.594  10.874   5.319 -0.4285 -0.5150  0.2767
  732MOL0     C98752   1.576  10.726   5.292 -0.2791 -0.0651 -0.0588
  732MOL0     H98753   1.207  10.795   5.072  1.7249  0.4506  0.3482
  732MOL0     H98754   1.058  10.717   4.884 -0.1728  0.5519  2.3629
  732MOL0     H98755   0.834  10.975   4.747  0.1640 -1.5974 -0.1116
  732MOL0     H98756   0.927  11.016   4.593  2.1141  0.0634  0.4017
  732MOL0     H98757   0.706  10.813   4.636 -2.3767  0.9331  0.7717
  732MOL0     H98758   0.828  10.797   4.509 -0.2569  1.2414 -1.5502
  732MOL0     H98759   0.763  10.980   4.393 -0.2837 -0.5417  0.6835
  732MOL0     H98760   0.703  11.062   4.537 -0.2855 -1.9094  2.4237
  732MOL0     H98761   0.521  10.914   4.548  3.6873 -1.1014  1.2504
  732MOL0     H98762   0.507  11.001   4.389 -1.4023 -1.8481 -1.3250
  732MOL0     H98763   0.627  10.791   4.297 -0.9016  0.0199 -0.3350
  732MOL0     H98764   0.580  10.716   4.449 -1.3352 -1.3106 -1.7033
  732MOL0     H98765   0.356  10.779   4.407  1.9379  0.1072  1.8529
  732MOL0     H98766   0.387  10.846   4.247 -2.1597 -1.8335 -1.0099
  732MOL0     H98767   0.453  10.598   4.165 -0.3391 -3.4052 -0.8741
  732MOL0     H98768   0.292  10.656   4.202  1.3797  3.0130 -0.2363
  732MOL0     H98769   0.465  10.486   4.397 -0.2116  1.7231 -0.0663
  732MOL0     H98770   0.315  10.562   4.422 -1.7986  2.5822 -1.8799
  732MOL0     H98771   0.087  10.467   4.310  1.0495  0.1700 -0.0731
  732MOL0     H98772  -0.044  10.309   4.139  0.6803  0.7656 -0.4171
  732MOL0     H98773   0.039  10.188   4.055 -0.8548 -2.0645  1.1788
  732MOL0     H98774  -0.146  10.070   4.206  0.1813 -2.0681 -1.2426
  732MOL0     H98775   0.014  10.019   4.254 -2.8259 -1.2614  2.1557
  732MOL0     H98776  -0.148  10.247   4.373  1.5987  1.6876 -0.3916
  732MOL0     H98777   0.006  10.183   4.438 -0.7463 -2.2564  1.0356
  732MOL0     H98778  -0.118  10.031   4.545 -0.4199 -0.2967  0.2735
  732MOL0     H98779  -0.178   9.968   4.393 -2.7192  0.0493 -1.0066
  732MOL0     H98780  -0.453   9.944   4.360  0.4791  0.3322  0.4203
  732MOL0     H98781  -0.577   9.762   4.461 -2.7951  3.1242 -2.0894
  732MOL0     H98782  -0.696   9.369   4.675  0.2732 -2.4254  2.4774
  732MOL0     H98783  -0.909   9.244   4.718 -0.8369  0.1711  2.2056
  732MOL0     H98784  -1.228   9.518   4.881 -0.0063 -0.2083 -0.7576
  732MOL0     H98785  -1.323   9.384   4.874 -1.0466  2.5231  3.9648
  732MOL0     H98786  -1.049   9.375   5.006 -1.0015  0.3104 -0.8411
  732MOL0     H98787  -1.197   9.411   5.091 -2.6519  1.8836 -1.7891
  732MOL0     H98788  -1.241   9.177   4.940  1.1650 -0.6709 -1.6070
  732MOL0     H98789  -1.065   9.171   4.966  1.8957  2.1970  1.6067
  732MOL0     H98790  -1.237   9.188   5.218  3.2403  1.0926  2.6756
  732MOL0     H98791  -1.069   9.153   5.195  0.8533  0.9584 -2.5485
  732MOL0     H98792  -1.099   8.931   5.120  1.5267  0.5491  3.3503
  732MOL0     H98793  -1.250   8.970   5.036 -0.3675  0.8413  0.1054
  732MOL0     H98794  -1.213   8.924   5.340 -0.2602  3.1036 -0.2785
  732MOL0     H98795  -1.367   8.956   5.256 -0.6126  0.4350 -1.5531
  732MOL0     H98796  -1.343   8.765   5.115 -0.2275  2.5628 -0.4904
  732MOL0     H98797  -1.360   8.732   5.287 -0.0965  0.0889 -0.1595
  732MOL0     H98798  -1.079   8.718   5.171 -0.4897  0.0247  0.6525
  732MOL0     H98799  -1.145   8.660   5.325  3.6113 -1.3291  0.6594
  732MOL0     H98800  -1.107   9.626   4.724 -1.2575 -0.8317 -4.1655
  732MOL0     H98801  -0.891   9.739   4.704 -0.2949  0.1098  0.0783
  732MOL0     H98802  -0.431   9.916   4.854  0.4188 -2.2084  1.2809
  732MOL0     H98803  -0.303  10.065   4.744  1.8571 -0.6458 -1.7962
  732MOL0     H98804   1.115  11.105   4.702  0.3441 -0.9959 -0.1064
  732MOL0     H98805   1.265  11.164   4.848 -1.2085  1.6398 -0.6418
  732MOL0     H98806   1.504  11.179   5.200 -0.6044  0.9790  2.2140
  732MOL0     H98807   1.639  11.252   5.401 -1.8333 -0.2220 -1.3561
  732MOL0     H98808   1.928  10.975   5.506  2.8600  2.3791  0.2207
  732MOL0     H98809   1.829  10.945   5.659 -3.6335  2.5436 -1.5453
  732MOL0     H98810   2.064  11.015   5.730 -0.8104 -0.3206 -0.6170
  732MOL0     H98811   1.947  11.145   5.762  1.4848 -0.0430  0.8499
  732MOL0     H98812   2.037  11.212   5.506  0.6096  0.3874  0.0536
  732MOL0     H98813   2.171  11.111   5.570  0.6049  2.1927 -0.8501
  732MOL0     H98814   2.049  11.354   5.713 -0.7007  1.5149 -1.1194
  732MOL0     H98815   2.199  11.261   5.758 -0.8754 -2.2653  0.0206
  732MOL0     H98816   2.356  11.531   5.487 -1.4844  2.6822  1.1918
  732MOL0     H98817   1.724  10.837   5.478 -2.4076 -2.5300 -2.4766
  732MOL0     H98818   1.615  10.693   5.195 -0.9076  1.8372 -1.0204
  732MOL0     H98819   1.619  10.676   5.379 -0.6743 -1.3279 -0.5754
  732MOL0     H98820   1.468  10.711   5.306  0.0145 -1.5186  0.8145
  733MOL0     O98821   9.601   7.234   6.152 -0.2802 -0.0720  0.4581
  733MOL0     C98822   9.699   7.287   6.211  1.4794 -0.4372  0.1248
  733MOL0     O98823   9.693   7.367   6.321  0.3785 -0.3020 -0.3784
  733MOL0     C98824   9.567   7.394   6.355  0.5234 -0.5619  0.5646
  733MOL0     C98825   9.507   7.308   6.444  1.1705 -1.3526 -0.5593
  733MOL0     C98826   9.379   7.324   6.481  0.5329 -0.4460  0.2147
  733MOL0     C98827   9.297   7.439   6.438 -0.0094  0.3951 -0.0095
  733MOL0     O98828   9.167   7.468   6.472  0.4607 -0.4167 -0.1171
  733MOL0     C98829   9.100   7.369   6.549 -0.3363  1.1169 -0.4977
  733MOL0     C98830   8.942   7.383   6.567  0.3502 -0.0996  1.2214
  733MOL0     C98831   8.880   7.313   6.446 -0.4913 -0.5072 -1.1593
  733MOL0     C98832   8.732   7.290   6.441 -0.0751  0.5766 -0.2149
  733MOL0     C98833   8.685   7.225   6.313 -0.4443 -0.3830  0.3192
  733MOL0     C98834   8.540   7.182   6.319 -0.4264  0.5064  0.5623
  733MOL0     C98835   8.495   7.104   6.201  0.7168  0.5532 -0.6274
  733MOL0     C98836   8.351   7.063   6.177  0.3595  0.0012  0.3073
  733MOL0     N98837   8.276   7.180   6.122  0.2973 -0.7317 -0.1648
  733MOL0     C98838   8.144   7.178   6.110  0.3608 -0.4074 -0.5013
  733MOL0     C98839   8.130   7.292   6.030  0.9024  0.3363  1.0131
  733MOL0     C98840   7.987   7.333   5.988 -0.5558  0.0989 -0.4626
  733MOL0     C98841   7.976   7.439   5.872  0.0444 -0.4386 -0.5824
  733MOL0     C98842   8.030   7.374   5.740  0.6979  1.0311  0.4225
  733MOL0     C98843   8.019   7.473   5.624 -1.2373 -0.5108 -0.0524
  733MOL0     O98844   8.035   7.409   5.493  0.5388  0.2594 -0.4395
  733MOL0     C98845   8.157   7.386   5.443 -0.5122 -0.0010 -0.4159
  733MOL0     C98846   8.271   7.422   5.511  0.1163 -0.0349 -0.2901
  733MOL0     C98847   8.391   7.408   5.439  0.8141 -0.1825 -0.1571
  733MOL0     C98848   8.396   7.334   5.308 -0.6618 -0.9499  0.1094
  733MOL0     C98849   8.520   7.331   5.233  0.1870  0.1536 -0.1641
  733MOL0     O98850   8.627   7.391   5.289  0.4924  0.0022  0.2556
  733MOL0     C98851   8.749   7.399   5.233  0.0698 -0.5504 -0.1717
  733MOL0     C98852   8.796   7.524   5.198 -1.0393  0.9401  0.3236
  733MOL0     C98853   8.928   7.535   5.148 -0.1202  0.4327 -0.3178
  733MOL0     C98854   9.005   7.411   5.135 -0.6542 -0.2205  0.4051
  733MOL0     O98855   9.133   7.408   5.071 -0.0271  0.3340 -0.5978
  733MOL0     C98856   9.171   7.526   4.995  0.3087  0.2413  0.6380
  733MOL0     C98857   9.291   7.494   4.908 -0.7638 -0.5620  0.7289
  733MOL0     C98858   9.335   7.608   4.815  0.4210  0.7206 -0.2537
  733MOL0     C98859   9.415   7.714   4.879 -0.4722  0.1875 -0.3135
  733MOL0     C98860   9.450   7.839   4.794 -0.4061  0.2656  0.1030
  733MOL0     C98861   9.556   7.799   4.690  0.9328  0.2345  0.3305
  733MOL0     C98862   9.588   7.914   4.602 -0.7129  1.1262 -0.7630
  733MOL0     C98863   9.479   7.989   4.535 -0.4151 -0.0961 -1.1260
  733MOL0    Cl98864   9.397   7.871   4.427  0.2815  0.0370 -0.2598
  733MOL0     C98865   8.955   7.287   5.176 -0.7421  0.1353  0.1799
  733MOL0     C98866   8.828   7.282   5.231  0.0536 -1.8498  0.1345
  733MOL0     O98867   8.522   7.265   5.129  0.1376  1.0090  0.2954
  733MOL0     C98868   8.276   7.286   5.256 -0.2964  0.0528 -0.4323
  733MOL0     C98869   8.166   7.317   5.327  0.5505 -0.0406 -0.2958
  733MOL0     N98870   8.249   7.360   6.009 -0.0647  0.5395  0.1208
  733MOL0     N98871   8.340   7.285   6.062 -0.2431  0.1324  0.4377
  733MOL0     C98872   9.368   7.535   6.357  1.3506 -0.2134 -0.3638
  733MOL0     C98873   9.498   7.514   6.317  0.0982  0.9631 -0.8581
  733MOL0     C98874   9.831   7.249   6.154  0.3401  0.3236 -0.6848
  733MOL0     C98875   9.840   7.120   6.093  0.2749 -0.6153  0.0088
  733MOL0     C98876   9.967   7.084   6.039  0.7248  0.6128 -0.1314
  733MOL0     C98877  10.078   7.163   6.072 -0.6011  0.3234  0.3165
  733MOL0     O98878  10.203   7.112   6.041 -0.7962 -0.0794 -0.3345
  733MOL0     C98879  10.237   7.000   6.132  0.7006 -0.5644 -0.4389
  733MOL0     C98880  10.385   7.003   6.155  0.2721  1.3930 -0.9292
  733MOL0     C98881  10.430   6.908   6.263  0.0141  0.3610 -0.3553
  733MOL0     C98882  10.578   6.913   6.317 -0.0613  0.0929  0.0966
  733MOL0     C98883  10.671   6.875   6.204 -0.3260  0.2344  0.4110
  733MOL0     C98884  10.738   6.854   6.111  0.6090  1.8360 -0.1762
  733MOL0     C98885  10.071   7.278   6.137  0.7817 -0.5921  0.0031
  733MOL0     C98886   9.947   7.330   6.170 -0.5613  0.2637  0.4824
  733MOL0     C98887   9.949   7.467   6.224  0.1685 -0.1637  0.0694
  733MOL0     H98888   9.557   7.226   6.494  0.8713  1.3906  4.8701
  733MOL0     H98889   9.339   7.259   6.558 -0.0193  0.5904  0.8339
  733MOL0     H98890   9.112   7.267   6.511 -0.3657  0.6803  0.6177
  733MOL0     H98891   9.145   7.372   6.649 -1.3459 -0.5178  0.0525
  733MOL0     H98892   8.909   7.487   6.567 -1.0608 -0.5134  2.4354
  733MOL0     H98893   8.921   7.338   6.664  2.4007  1.6778  2.5778
  733MOL0     H98894   8.932   7.217   6.440  2.3787  0.6568  2.2663
  733MOL0     H98895   8.905   7.368   6.354  2.4176  0.8921  0.3495
  733MOL0     H98896   8.701   7.224   6.522 -0.8034  1.6859  0.4481
  733MOL0     H98897   8.683   7.388   6.431  0.8903  0.8602 -2.9907
  733MOL0     H98898   8.697   7.295   6.230 -1.2913  1.8832  2.0028
  733MOL0     H98899   8.741   7.132   6.298 -1.9279 -0.9926 -1.8873
  733MOL0     H98900   8.529   7.123   6.411 -1.1543  0.4907  0.4742
  733MOL0     H98901   8.481   7.273   6.328  1.2358  1.5168  1.6430
  733MOL0     H98902   8.538   7.005   6.217 -2.6958 -0.9224  0.0741
  733MOL0     H98903   8.539   7.152   6.112 -1.8612  1.4677 -1.4972
  733MOL0     H98904   8.347   6.974   6.114  0.8274 -0.4909  0.9610
  733MOL0     H98905   8.294   7.038   6.267 -3.6689  0.3580 -1.8911
  733MOL0     H98906   8.069   7.109   6.147  1.6094 -1.3502  0.3440
  733MOL0     H98907   7.927   7.244   5.969 -1.2011  0.2216  0.8898
  733MOL0     H98908   7.944   7.372   6.081 -1.1864 -1.4083 -0.0955
  733MOL0     H98909   7.870   7.467   5.864 -0.2949 -1.8422 -1.3090
  733MOL0     H98910   8.037   7.528   5.886  0.0851 -0.5799  0.2374
  733MOL0     H98911   7.967   7.288   5.720 -0.3994  1.4655  1.8628
  733MOL0     H98912   8.136   7.348   5.750  0.5957  0.0773 -0.7333
  733MOL0     H98913   8.090   7.555   5.642 -1.0367 -0.5461 -0.6545
  733MOL0     H98914   7.921   7.521   5.617 -0.7237  0.4513 -1.1416
  733MOL0     H98915   8.280   7.478   5.603 -1.2788  0.2847 -0.3323
  733MOL0     H98916   8.487   7.443   5.476  1.4190  0.3403 -2.0799
  733MOL0     H98917   8.735   7.612   5.215  1.0557  2.7642 -1.0158
  733MOL0     H98918   8.966   7.634   5.127 -1.2486  1.2199  1.1613
  733MOL0     H98919   9.085   7.552   4.932 -3.1340  0.1672  4.8501
  733MOL0     H98920   9.197   7.613   5.055 -0.3218  1.4718 -0.7822
  733MOL0     H98921   9.373   7.490   4.980  1.6377  3.1106 -1.4706
  733MOL0     H98922   9.292   7.403   4.849  3.8859  1.0333 -2.1650
  733MOL0     H98923   9.387   7.564   4.729  0.7067  1.2216 -0.3437
  733MOL0     H98924   9.247   7.657   4.772 -1.0363 -1.3712  0.2407
  733MOL0     H98925   9.508   7.672   4.918 -1.5938 -0.9194  1.3082
  733MOL0     H98926   9.364   7.748   4.970 -0.6607 -2.5194  0.6913
  733MOL0     H98927   9.494   7.910   4.865  2.5183 -1.2536 -0.0411
  733MOL0     H98928   9.353   7.869   4.753  0.4428  2.5552 -0.3871
  733MOL0     H98929   9.651   7.767   4.733  1.5710 -0.1433 -1.2683
  733MOL0     H98930   9.527   7.713   4.629  3.4701  0.1570 -0.8809
  733MOL0     H98931   9.651   7.868   4.524 -1.1977 -0.0861 -0.4615
  733MOL0     H98932   9.649   7.981   4.662 -3.5792  1.6499  1.7618
  733MOL0     H98933   9.419   8.036   4.614  1.0064  2.4467 -1.4461
  733MOL0     H98934   9.518   8.069   4.472 -1.4750 -0.6810 -2.5702
  733MOL0     H98935   9.011   7.197   5.152 -1.2247  0.3566 -2.0677
  733MOL0     H98936   8.783   7.189   5.264 -2.9788 -0.5286 -0.0125
  733MOL0     H98937   8.276   7.217   5.172 -0.3903 -1.8084  1.0155
  733MOL0     H98938   8.076   7.266   5.294 -1.2459  1.5040  1.9179
  733MOL0     H98939   9.313   7.622   6.322  0.6550 -1.1494 -1.6589
  733MOL0     H98940   9.553   7.583   6.253  0.3481 -0.8752 -2.7322
  733MOL0     H98941   9.750   7.062   6.075 -0.1027  0.3791 -1.6248
  733MOL0     H98942   9.981   6.988   5.991 -1.6425 -0.5401  1.2792
  733MOL0     H98943  10.185   6.916   6.086 -1.8778  1.9164 -2.4697
  733MOL0     H98944  10.190   7.017   6.229  0.2607  2.9016 -1.0971
  733MOL0     H98945  10.402   7.103   6.195 -0.9020  1.2418 -0.0047
  733MOL0     H98946  10.435   6.980   6.060 -0.6060 -0.5111 -0.9783
  733MOL0     H98947  10.426   6.809   6.217  1.2399 -0.3191  0.9136
  733MOL0     H98948  10.358   6.905   6.346  1.4460  0.5331  0.9517
  733MOL0     H98949  10.611   7.008   6.360  0.8822 -0.7636  1.3435
  733MOL0     H98950  10.586   6.844   6.401 -1.2330  2.0100  1.8423
  733MOL0     H98951  10.805   6.824   6.032 -1.2034 -3.1602 -0.1994
  733MOL0     H98952  10.155   7.346   6.149  0.3042  0.0996 -0.4922
  733MOL0     H98953   9.950   7.472   6.333 -1.7853 -1.1281  0.1877
  733MOL0     H98954  10.030   7.527   6.181  0.0630 -0.9262 -1.2597
  733MOL0     H98955   9.856   7.517   6.195  0.4506  0.2881 -0.0651
  734MOL0     O98956   0.365   7.134   1.450 -0.4503  0.0310  0.2123
  734MOL0     C98957   0.409   7.021   1.476  1.0301 -0.3247  1.1896
  734MOL0     O98958   0.452   6.982   1.593  0.1518 -0.1937 -0.0562
  734MOL0     C98959   0.431   7.075   1.695  0.6002 -0.4528  0.5128
  734MOL0     C98960   0.337   7.054   1.799 -0.6295  0.8911  0.5718
  734MOL0     C98961   0.327   7.141   1.906 -0.5474  0.5098  0.2733
  734MOL0     C98962   0.412   7.256   1.915  0.4245 -0.1038  0.2720
  734MOL0     O98963   0.380   7.351   2.009 -0.1698  0.0098  0.6971
  734MOL0     C98964   0.422   7.485   1.998 -0.2704  0.4500 -0.2428
  734MOL0     C98965   0.401   7.553   2.140 -0.6776  0.2406  0.3801
  734MOL0     C98966   0.374   7.695   2.115  0.1431 -0.5418 -0.3099
  734MOL0     C98967   0.313   7.760   2.239 -0.5654 -0.4146  0.6087
  734MOL0     C98968   0.296   7.912   2.211  0.7629  0.5899 -0.5254
  734MOL0     C98969   0.179   7.946   2.112  0.6526  0.1754  0.5203
  734MOL0     C98970   0.039   7.890   2.165  0.0742  0.7650 -0.5317
  734MOL0     C98971  -0.068   7.914   2.067  0.3582 -0.5291 -0.0889
  734MOL0     N98972  -0.109   8.059   2.046 -0.6111  0.5577 -1.1687
  734MOL0     C98973  -0.165   8.132   2.143  0.4569  0.5140 -0.6503
  734MOL0     C98974  -0.219   8.233   2.076  0.1600 -0.1243  0.4735
  734MOL0     C98975  -0.289   8.355   2.134  0.2563  0.2447 -0.7840
  734MOL0     C98976  -0.440   8.361   2.114  0.0045 -0.0331  0.8010
  734MOL0     C98977  -0.527   8.467   2.192 -1.3467  0.7589  0.7306
  734MOL0     C98978  -0.492   8.605   2.147 -0.1142  0.4278  0.1148
  734MOL0     O98979  -0.528   8.696   2.249  0.3569 -0.5987  0.2063
  734MOL0     C98980  -0.654   8.734   2.285  0.3976  0.2921 -0.2798
  734MOL0     C98981  -0.668   8.814   2.397 -0.6199 -0.5896  1.0571
  734MOL0     C98982  -0.799   8.857   2.431 -0.3698 -0.2438 -0.1012
  734MOL0     C98983  -0.910   8.807   2.371  1.0873 -0.2153 -0.3329
  734MOL0     C98984  -1.044   8.859   2.413 -0.2147 -0.1197  1.0118
  734MOL0     O98985  -1.151   8.835   2.335 -0.2307 -0.4875  0.6015
  734MOL0     C98986  -1.271   8.906   2.356 -0.7729 -0.4752 -0.4088
  734MOL0     C98987  -1.286   9.032   2.305  0.0892  0.0122 -0.6079
  734MOL0     C98988  -1.412   9.100   2.308  0.4708 -0.0291 -0.4931
  734MOL0     C98989  -1.522   9.033   2.359  0.2271  0.1670  0.3685
  734MOL0     O98990  -1.647   9.098   2.335  0.6437  0.3497 -0.1773
  734MOL0     C98991  -1.769   9.025   2.328 -0.0307  0.0980 -0.0914
  734MOL0     C98992  -1.885   9.108   2.267  0.0191 -0.2944 -1.1981
  734MOL0     C98993  -1.910   9.255   2.314 -0.2455  0.7115  0.0821
  734MOL0     C98994  -1.909   9.256   2.469 -0.2689 -0.6813 -0.1009
  734MOL0     C98995  -1.893   9.399   2.525 -0.0667  0.5118  0.2525
  734MOL0     C98996  -1.912   9.400   2.676 -0.2159  0.1672  0.9910
  734MOL0     C98997  -1.897   9.542   2.730  0.1947  0.5140  0.5518
  734MOL0     C98998  -1.952   9.540   2.870 -1.1573 -0.2443  0.4788
  734MOL0    Cl98999  -1.814   9.501   2.972 -0.1136 -0.0746 -0.3592
  734MOL0     C99000  -1.511   8.905   2.414  0.8574 -0.7989 -0.2747
  734MOL0     C99001  -1.384   8.844   2.412 -0.5813 -0.5059 -0.2684
  734MOL0     O99002  -1.046   8.911   2.523  0.0477  0.0972 -0.5429
  734MOL0     C99003  -0.893   8.722   2.267  0.0305 -0.4940  1.1063
  734MOL0     C99004  -0.768   8.682   2.220  1.1593 -0.2836 -0.2451
  734MOL0     N99005  -0.204   8.219   1.946 -0.2204  0.4800  0.5730
  734MOL0     N99006  -0.129   8.116   1.926 -0.2296 -0.0197 -0.0868
  734MOL0     C99007   0.499   7.283   1.809  0.0597  0.4569  0.4745
  734MOL0     C99008   0.515   7.191   1.706 -0.0777  0.9209  0.6703
  734MOL0     C99009   0.404   6.911   1.369 -0.3198 -0.2533 -0.1326
  734MOL0     C99010   0.397   6.785   1.404 -0.1246  0.1386 -1.0303
  734MOL0     C99011   0.377   6.680   1.318  0.0359  0.5497 -0.5889
  734MOL0     C99012   0.379   6.701   1.184  0.1649  0.3834  0.0449
  734MOL0     O99013   0.364   6.598   1.092  0.4483 -0.1035  0.8086
  734MOL0     C99014   0.496   6.565   1.048 -0.0891  0.3955 -0.6999
  734MOL0     C99015   0.570   6.468   1.142 -0.4172  0.2160  0.6937
  734MOL0     C99016   0.471   6.348   1.164  0.0244  0.5272 -0.0751
  734MOL0     C99017   0.549   6.222   1.194  0.4885  0.3137 -0.2820
  734MOL0     C99018   0.644   6.245   1.307  0.5483  0.4142 -0.0184
  734MOL0     C99019   0.716   6.282   1.394  0.0411  0.0484  0.2509
  734MOL0     C99020   0.406   6.830   1.131 -0.1444 -0.2467 -0.0603
  734MOL0     C99021   0.409   6.932   1.230 -0.1982 -0.4998  0.2071
  734MOL0     C99022   0.409   7.073   1.176  0.3679  0.7637  0.2569
  734MOL0     H99023   0.273   6.966   1.797  2.6243 -1.6161 -0.5832
  734MOL0     H99024   0.261   7.120   1.990 -0.1815  0.1249  0.4703
  734MOL0     H99025   0.530   7.483   1.982  0.2486 -3.2570  2.3898
  734MOL0     H99026   0.377   7.540   1.915  0.9157  2.3159  0.3044
  734MOL0     H99027   0.497   7.554   2.193  0.2172  0.9301 -1.1360
  734MOL0     H99028   0.322   7.506   2.198  0.3092 -1.8778  0.0825
  734MOL0     H99029   0.303   7.714   2.034  3.9301  0.6036 -3.7286
  734MOL0     H99030   0.470   7.744   2.095  0.1772  0.4017  1.9011
  734MOL0     H99031   0.216   7.717   2.267  0.2572 -1.6816  1.5959
  734MOL0     H99032   0.376   7.741   2.326  1.6845 -0.3101 -0.9177
  734MOL0     H99033   0.278   7.966   2.304 -0.8582  0.5817 -0.8033
  734MOL0     H99034   0.389   7.951   2.169  0.2164  3.9198  1.0456
  734MOL0     H99035   0.168   8.055   2.108 -1.6818  0.0051  0.7757
  734MOL0     H99036   0.213   7.910   2.015 -2.8816  0.0227 -0.8089
  734MOL0     H99037   0.013   7.938   2.260  3.2851 -2.3982  2.2453
  734MOL0     H99038   0.033   7.784   2.193  1.5745  1.3445  2.3677
  734MOL0     H99039  -0.038   7.884   1.966  3.9158  2.5081 -0.1628
  734MOL0     H99040  -0.160   7.861   2.093  0.1086  0.2774  0.7399
  734MOL0     H99041  -0.161   8.112   2.250  2.0971 -0.9663 -0.9393
  734MOL0     H99042  -0.266   8.355   2.241 -0.4813  4.3635 -0.4588
  734MOL0     H99043  -0.249   8.444   2.084  1.8769 -1.3788 -2.4940
  734MOL0     H99044  -0.452   8.369   2.005  1.8606 -3.9027  0.1686
  734MOL0     H99045  -0.468   8.258   2.138  1.1902 -0.9935 -1.5858
  734MOL0     H99046  -0.496   8.440   2.293 -1.9125 -2.0154  0.2481
  734MOL0     H99047  -0.633   8.453   2.166 -1.2003  0.2500  0.3983
  734MOL0     H99048  -0.543   8.624   2.053  0.8261 -1.4381 -0.8467
  734MOL0     H99049  -0.385   8.623   2.135  0.1107 -1.1641 -0.6235
  734MOL0     H99050  -0.587   8.845   2.461  0.4983 -0.4247 -0.3948
  734MOL0     H99051  -0.805   8.920   2.519  3.4951 -0.7954  0.7464
  734MOL0     H99052  -1.203   9.070   2.247 -0.0380 -2.7431 -2.7702
  734MOL0     H99053  -1.436   9.200   2.274 -0.2514  0.2739  0.8493
  734MOL0     H99054  -1.759   8.939   2.262  0.3518  2.6004 -3.5740
  734MOL0     H99055  -1.794   8.994   2.430 -1.3602  1.1987 -0.0461
  734MOL0     H99056  -1.868   9.113   2.159  1.2048 -2.6075 -1.1739
  734MOL0     H99057  -1.979   9.056   2.291 -0.1185 -0.1499 -1.4197
  734MOL0     H99058  -1.833   9.317   2.266 -0.1766 -0.2470 -1.1013
  734MOL0     H99059  -2.007   9.286   2.274 -1.4765 -0.4171  2.0761
  734MOL0     H99060  -1.826   9.200   2.513 -1.9506 -1.6264  1.9988
  734MOL0     H99061  -2.005   9.212   2.499 -2.4860 -0.3598 -5.5352
  734MOL0     H99062  -1.975   9.460   2.486  0.2359  0.5963 -0.2525
  734MOL0     H99063  -1.794   9.438   2.498  1.8503 -3.1934  1.2345
  734MOL0     H99064  -2.009   9.358   2.704  0.2854  0.2183  2.9454
  734MOL0     H99065  -1.834   9.339   2.721  1.0705 -0.4548 -1.8856
  734MOL0     H99066  -1.949   9.620   2.675 -0.3989  2.5948  3.7897
  734MOL0     H99067  -1.791   9.571   2.727  0.0284  1.2897 -3.6450
  734MOL0     H99068  -1.989   9.637   2.904 -0.1790 -0.0208  0.9322
  734MOL0     H99069  -2.038   9.474   2.885 -0.3365 -2.1163 -2.2884
  734MOL0     H99070  -1.604   8.861   2.450  1.4807 -0.4451  1.9028
  734MOL0     H99071  -1.373   8.740   2.440  0.8270 -0.3035  0.0148
  734MOL0     H99072  -0.976   8.683   2.209  1.6579 -0.8485 -1.0899
  734MOL0     H99073  -0.774   8.628   2.127 -1.6692  0.4490 -0.5903
  734MOL0     H99074   0.561   7.372   1.805  2.3002 -0.9230  2.0201
  734MOL0     H99075   0.597   7.212   1.638 -0.4212  1.0959  0.3024
  734MOL0     H99076   0.412   6.752   1.506  0.1915 -1.2024 -1.4931
  734MOL0     H99077   0.366   6.583   1.365  2.0863  1.0265  1.0400
  734MOL0     H99078   0.562   6.651   1.035 -0.4938  0.4803 -2.3147
  734MOL0     H99079   0.480   6.522   0.949 -2.0438  1.1415 -0.7536
  734MOL0     H99080   0.607   6.519   1.231  0.4675  1.5366 -0.3987
  734MOL0     H99081   0.659   6.435   1.088  1.9144  2.8869  2.5958
  734MOL0     H99082   0.406   6.318   1.081 -1.2813 -3.4117  2.1055
  734MOL0     H99083   0.403   6.370   1.247  0.7457  0.8224  0.4456
  734MOL0     H99084   0.492   6.130   1.189  4.3378 -2.2597 -4.1242
  734MOL0     H99085   0.615   6.224   1.106  0.1008  1.1351 -0.5641
  734MOL0     H99086   0.795   6.305   1.462  0.3722 -1.2081  0.3065
  734MOL0     H99087   0.426   6.856   1.028  2.7498  0.2399  0.5206
  734MOL0     H99088   0.424   7.073   1.068 -1.6867  1.9170 -0.0771
  734MOL0     H99089   0.309   7.117   1.188  0.0714  0.1893 -0.0022
  734MOL0     H99090   0.486   7.135   1.222  1.4724 -0.5098  0.1927
  735MOL0     O99091  10.820   2.236   8.181 -0.2599 -0.1734 -0.1190
  735MOL0     C99092  10.797   2.150   8.101  0.3321 -0.5133  0.1731
  735MOL0     O99093  10.886   2.059   8.062  0.1876  0.5125 -0.4731
  735MOL0     C99094  11.025   2.047   8.089  0.6550  0.1784 -0.0781
  735MOL0     C99095  11.115   2.152   8.134  0.9095 -1.0000  0.6464
  735MOL0     C99096  11.252   2.129   8.159 -0.5286  0.4964 -1.0811
  735MOL0     C99097  11.305   1.999   8.149  0.6999  0.4002  0.9417
  735MOL0     O99098  11.436   1.956   8.156  0.3422  0.3382  0.3076
  735MOL0     C99099  11.542   2.052   8.166 -0.9957 -0.6374  0.2985
  735MOL0     C99100  11.683   1.992   8.135  1.1779  0.1693 -0.4009
  735MOL0     C99101  11.773   2.109   8.084  0.0490  0.5555 -0.3938
  735MOL0     C99102  11.931   2.086   8.107 -0.2108  1.0190 -0.1704
  735MOL0     C99103  11.994   1.964   8.038  0.2051  0.1456  0.2229
  735MOL0     C99104  12.137   1.944   8.090  0.5364  0.3420 -0.0617
  735MOL0     C99105  12.203   1.810   8.053 -0.3029 -0.3290  0.4995
  735MOL0     C99106  12.339   1.769   8.105  0.0633 -0.6324 -0.0839
  735MOL0     N99107  12.436   1.871   8.056 -0.3836  0.0227  0.2882
  735MOL0     C99108  12.513   1.946   8.132  0.2700 -1.0823 -0.3697
  735MOL0     C99109  12.594   2.013   8.052 -0.7377 -0.1900  1.1575
  735MOL0     C99110  12.707   2.104   8.087  0.0208 -0.4922 -1.5319
  735MOL0     C99111  12.728   2.226   7.997  0.7358  0.9357  0.6667
  735MOL0     C99112  12.845   2.307   8.043  0.4680 -0.2603 -0.4274
  735MOL0     C99113  12.830   2.363   8.187 -0.0458 -1.2351 -0.7204
  735MOL0     O99114  12.921   2.476   8.215  0.5187  0.3324  0.1895
  735MOL0     C99115  13.056   2.436   8.228 -0.3016  0.0446 -0.6043
  735MOL0     C99116  13.102   2.362   8.339 -0.1175  0.8449  0.4845
  735MOL0     C99117  13.238   2.333   8.351  0.1211 -0.3172  1.1936
  735MOL0     C99118  13.331   2.370   8.247 -0.4139 -0.0999  0.6540
  735MOL0     C99119  13.476   2.318   8.252  0.9544 -0.1576 -0.4007
  735MOL0     O99120  13.502   2.226   8.348  0.4783 -0.1665 -0.4177
  735MOL0     C99121  13.629   2.177   8.371  0.4838  0.9060  0.1057
  735MOL0     C99122  13.726   2.133   8.279 -0.3135 -0.1118  0.3569
  735MOL0     C99123  13.844   2.057   8.314  0.2481 -0.3114  0.1666
  735MOL0     C99124  13.869   2.037   8.449 -0.6571  0.5464 -0.2214
  735MOL0     O99125  13.979   1.959   8.491 -0.0491  0.2642 -0.8081
  735MOL0     C99126  14.053   1.879   8.406 -0.2719  0.4863  0.9716
  735MOL0     C99127  14.131   1.776   8.484 -0.4082 -0.5440 -0.2196
  735MOL0     C99128  14.190   1.659   8.407  0.4507  0.2083 -0.1586
  735MOL0     C99129  14.264   1.701   8.276  0.2254 -0.0860  0.0524
  735MOL0     C99130  14.383   1.795   8.290 -0.3085  0.0983  0.0122
  735MOL0     C99131  14.510   1.736   8.354 -0.2732 -0.1455 -0.0601
  735MOL0     C99132  14.613   1.712   8.249  0.5405 -0.6121  0.4322
  735MOL0     C99133  14.692   1.846   8.203 -0.1667  0.3834 -0.9710
  735MOL0    Cl99134  14.843   1.783   8.137 -0.1509  0.1891 -0.4497
  735MOL0     C99135  13.785   2.097   8.544 -0.3384 -0.3039  0.1616
  735MOL0     C99136  13.665   2.154   8.505  0.3569  0.0689 -0.0560
  735MOL0     O99137  13.556   2.357   8.163 -0.7781 -0.3181  0.5724
  735MOL0     C99138  13.285   2.454   8.137 -0.6045  0.5399 -0.6884
  735MOL0     C99139  13.153   2.490   8.132  0.1636 -0.0973  0.4462
  735MOL0     N99140  12.570   1.968   7.928 -1.0929 -0.4435 -0.1730
  735MOL0     N99141  12.478   1.887   7.927 -0.1273  0.0912  0.0148
  735MOL0     C99142  11.219   1.899   8.099 -0.0915 -0.9543  0.2322
  735MOL0     C99143  11.079   1.921   8.073 -0.4822  0.1887  0.6717
  735MOL0     C99144  10.651   2.142   8.044 -0.4603 -0.4448  1.2138
  735MOL0     C99145  10.562   2.244   8.074  0.4573  0.6262 -0.3030
  735MOL0     C99146  10.430   2.227   8.048  0.0437  0.1396  0.3649
  735MOL0     C99147  10.377   2.103   7.985 -0.1251  0.0387 -0.3820
  735MOL0     O99148  10.245   2.065   7.965  0.3198 -0.1970 -0.4114
  735MOL0     C99149  10.153   2.129   8.052  0.7612  1.0654  0.9887
  735MOL0     C99150  10.054   2.028   8.118 -0.0820  0.1802  0.5103
  735MOL0     C99151   9.983   2.091   8.242 -0.4090 -0.3449 -0.1548
  735MOL0     C99152   9.871   1.995   8.289 -0.0816  0.0136 -0.3620
  735MOL0     C99153   9.932   1.879   8.354  0.4592 -0.2636 -0.1134
  735MOL0     C99154   9.973   1.784   8.425  0.3208  0.4170 -0.6458
  735MOL0     C99155  10.466   2.014   7.940 -0.7689  0.0668 -0.1214
  735MOL0     C99156  10.604   2.030   7.969 -0.0546  0.3422  0.6152
  735MOL0     C99157  10.702   1.930   7.901  0.5253 -0.1216 -0.1465
  735MOL0     H99158  11.090   2.258   8.143 -0.5632 -1.2099 -0.5670
  735MOL0     H99159  11.315   2.206   8.203  1.4286 -1.3340 -0.5513
  735MOL0     H99160  11.522   2.135   8.098  1.2534  2.1971  2.7856
  735MOL0     H99161  11.539   2.095   8.267  1.6345  0.7549 -0.1244
  735MOL0     H99162  11.677   1.921   8.052  1.0967  2.0354 -2.0798
  735MOL0     H99163  11.721   1.941   8.224 -2.1397 -0.4756  0.7936
  735MOL0     H99164  11.751   2.209   8.121  1.0733  1.8509 -3.0045
  735MOL0     H99165  11.758   2.117   7.975 -0.4689 -0.9892 -0.4603
  735MOL0     H99166  11.984   2.172   8.065  2.2189  0.0670  0.7697
  735MOL0     H99167  11.964   2.066   8.210 -3.6219 -3.2034  0.3729
  735MOL0     H99168  11.937   1.874   8.061 -0.7031  0.5239 -0.4263
  735MOL0     H99169  11.985   1.974   7.929  1.4393 -2.5893 -0.1890
  735MOL0     H99170  12.200   2.033   8.077  0.1188  0.3700 -2.1091
  735MOL0     H99171  12.126   1.929   8.198  2.0806 -2.8384 -0.2296
  735MOL0     H99172  12.220   1.811   7.945  2.7428 -3.4894  0.7675
  735MOL0     H99173  12.139   1.724   8.078 -0.4334 -0.4301 -0.1756
  735MOL0     H99174  12.347   1.761   8.214 -2.9420 -0.6077  0.2318
  735MOL0     H99175  12.378   1.683   8.050  0.6239  0.1985 -1.0206
  735MOL0     H99176  12.500   1.976   8.235  0.2526 -3.3316  0.3511
  735MOL0     H99177  12.688   2.146   8.187  3.2210  1.9125 -1.7635
  735MOL0     H99178  12.800   2.049   8.077  0.0200 -0.4110 -2.0059
  735MOL0     H99179  12.736   2.191   7.893  2.4061 -1.7955  1.6363
  735MOL0     H99180  12.635   2.283   8.006 -0.0191  0.2020 -1.6717
  735MOL0     H99181  12.872   2.382   7.968  0.9044 -0.0964 -0.1091
  735MOL0     H99182  12.927   2.235   8.047 -0.9732 -2.1620 -2.5258
  735MOL0     H99183  12.824   2.285   8.263  1.9772  1.1058  2.0566
  735MOL0     H99184  12.729   2.404   8.198  0.0900 -1.6652  3.3145
  735MOL0     H99185  13.035   2.327   8.416 -0.3002 -0.1031 -0.0869
  735MOL0     H99186  13.271   2.275   8.437  1.4792 -1.0189  0.2399
  735MOL0     H99187  13.713   2.152   8.172  3.0968 -2.2259 -0.5814
  735MOL0     H99188  13.910   2.028   8.233  0.3636  0.3188  0.0245
  735MOL0     H99189  13.985   1.827   8.336  0.5583  0.0123  0.4969
  735MOL0     H99190  14.119   1.936   8.340  0.2582  0.8937  1.8525
  735MOL0     H99191  14.211   1.825   8.542  0.2635 -1.0258 -0.7211
  735MOL0     H99192  14.070   1.728   8.560  0.6624  1.8070  2.2858
  735MOL0     H99193  14.260   1.606   8.472 -0.2217 -1.4197 -0.7258
  735MOL0     H99194  14.102   1.596   8.393  0.5836  0.1933 -0.9858
  735MOL0     H99195  14.191   1.756   8.217  2.0946  1.4819 -0.9163
  735MOL0     H99196  14.287   1.603   8.232  1.3470 -0.6947  1.8706
  735MOL0     H99197  14.356   1.892   8.334  1.9941  1.4926 -1.4431
  735MOL0     H99198  14.418   1.835   8.194  1.6774 -1.9958 -0.2206
  735MOL0     H99199  14.562   1.796   8.429  1.7732 -2.8762  0.8819
  735MOL0     H99200  14.485   1.639   8.399  1.0940 -0.1756  0.6859
  735MOL0     H99201  14.565   1.672   8.160  0.9864  0.5233 -0.3341
  735MOL0     H99202  14.682   1.643   8.299  0.7386  0.3986  1.6094
  735MOL0     H99203  14.650   1.916   8.129 -1.0739 -0.4127 -1.2332
  735MOL0     H99204  14.718   1.909   8.288 -0.2023 -2.0086  0.9183
  735MOL0     H99205  13.798   2.058   8.645 -1.0386  0.1146  0.4183
  735MOL0     H99206  13.589   2.187   8.574  2.9454 -0.2152  3.1929
  735MOL0     H99207  13.343   2.486   8.050 -1.3760  1.2342 -0.9609
  735MOL0     H99208  13.117   2.548   8.047 -0.1253 -1.9143 -0.7236
  735MOL0     H99209  11.253   1.796   8.102  1.1161 -0.5627  3.1747
  735MOL0     H99210  11.014   1.839   8.045 -0.6787 -0.6080  3.2219
  735MOL0     H99211  10.599   2.324   8.136  1.3237  1.5002 -1.8877
  735MOL0     H99212  10.376   2.312   8.089  0.6067  0.1605  1.0686
  735MOL0     H99213  10.100   2.204   7.993 -0.1011  0.2229  0.6553
  735MOL0     H99214  10.201   2.185   8.132 -0.2691  3.4115  0.0352
  735MOL0     H99215  10.119   1.950   8.158  1.1265  0.1862 -1.3506
  735MOL0     H99216   9.986   1.986   8.043 -1.0553  1.6076  0.5482
  735MOL0     H99217   9.932   2.184   8.215 -2.0836 -1.2604 -0.3290
  735MOL0     H99218  10.063   2.110   8.314  1.0860 -2.7490 -1.0470
  735MOL0     H99219   9.806   2.023   8.372  1.5952 -0.8081  1.3344
  735MOL0     H99220   9.804   1.957   8.212 -0.0603 -1.1037  0.1499
  735MOL0     H99221  10.003   1.701   8.484 -2.4270 -0.7369 -0.7173
  735MOL0     H99222  10.432   1.919   7.900 -1.5589 -2.0052  4.7353
  735MOL0     H99223  10.785   1.980   7.849  0.9583 -0.5309  0.1380
  735MOL0     H99224  10.757   1.864   7.969  0.8809 -1.7618 -1.9280
  735MOL0     H99225  10.645   1.864   7.835  0.3310  1.1861 -1.3519
  736MOL0     O99226   5.715   2.802   3.598  0.5016  0.7943  0.4829
  736MOL0     C99227   5.726   2.689   3.569 -0.5431  0.4163  0.4495
  736MOL0     O99228   5.651   2.618   3.483 -0.6728 -0.0796 -0.1928
  736MOL0     C99229   5.532   2.660   3.434  0.3476  0.4356  0.2756
  736MOL0     C99230   5.452   2.763   3.497 -0.3648  0.7491  0.3294
  736MOL0     C99231   5.326   2.794   3.435 -0.1281  0.6019 -0.0363
  736MOL0     C99232   5.288   2.738   3.312  0.7513  0.8620  0.6174
  736MOL0     O99233   5.171   2.776   3.247  0.2775  0.6995  0.0099
  736MOL0     C99234   5.054   2.818   3.330  0.6952 -0.6171  0.2550
  736MOL0     C99235   4.922   2.787   3.264  0.3215  0.2847 -0.5420
  736MOL0     C99236   4.821   2.761   3.377 -0.3402  0.9132  0.5505
  736MOL0     C99237   4.803   2.890   3.464  0.4110  0.3335  0.5625
  736MOL0     C99238   4.705   2.850   3.575  0.3891 -0.0801  0.1407
  736MOL0     C99239   4.693   2.971   3.674  0.8167  1.5842  0.2594
  736MOL0     C99240   4.603   2.949   3.796 -0.2839  0.3202  0.3118
  736MOL0     C99241   4.579   3.072   3.877  0.9662 -0.1184 -0.8380
  736MOL0     N99242   4.704   3.132   3.928 -0.5998 -0.1104 -0.5304
  736MOL0     C99243   4.791   3.069   4.020  0.1879 -0.9888 -0.3084
  736MOL0     C99244   4.906   3.141   3.999  0.1535  1.0128  0.0129
  736MOL0     C99245   5.029   3.152   4.089  0.5680  0.3694  0.5871
  736MOL0     C99246   5.044   3.044   4.200 -0.9560 -0.4910  0.3419
  736MOL0     C99247   5.146   3.080   4.299 -0.1504  0.3293 -0.8838
  736MOL0     C99248   5.274   3.119   4.240 -0.3681 -0.1261  0.2475
  736MOL0     O99249   5.368   3.117   4.349  0.4889 -0.5319 -0.0206
  736MOL0     C99250   5.483   3.194   4.341 -0.8485  0.8590 -0.4095
  736MOL0     C99251   5.530   3.264   4.231 -0.1712  0.1888  0.5303
  736MOL0     C99252   5.658   3.325   4.234 -0.5874 -0.2216 -1.1597
  736MOL0     C99253   5.735   3.331   4.355  0.0866 -0.1032 -0.0603
  736MOL0     C99254   5.873   3.383   4.358 -0.5141 -0.6382 -0.9993
  736MOL0     O99255   5.935   3.409   4.476 -0.2834  0.3346  0.3064
  736MOL0     C99256   6.064   3.465   4.481 -0.5965 -0.5223 -0.3609
  736MOL0     C99257   6.081   3.579   4.543  0.6103  0.0595 -0.7110
  736MOL0     C99258   6.204   3.631   4.570 -0.6633 -0.2634 -0.2741
  736MOL0     C99259   6.317   3.565   4.541 -0.7687 -0.1002  0.1321
  736MOL0     O99260   6.442   3.609   4.569 -0.1752 -0.1778 -0.0626
  736MOL0     C99261   6.466   3.684   4.692 -0.9072 -0.0497  0.1710
  736MOL0     C99262   6.622   3.668   4.725 -0.1554 -0.0875  0.3219
  736MOL0     C99263   6.715   3.699   4.603 -0.4924  0.6143  0.4242
  736MOL0     C99264   6.716   3.845   4.560 -0.0113  0.0542  0.5194
  736MOL0     C99265   6.796   3.868   4.425 -0.1925 -0.3447  0.1863
  736MOL0     C99266   6.938   3.805   4.412 -0.2156 -0.5111 -0.0108
  736MOL0     C99267   7.036   3.845   4.300  0.0929  0.6750  0.2367
  736MOL0     C99268   7.124   3.717   4.261 -0.6630 -0.0286 -0.4432
  736MOL0    Cl99269   7.218   3.649   4.404  0.0275 -0.1685  0.0320
  736MOL0     C99270   6.308   3.460   4.449  0.2103 -0.0077  0.4689
  736MOL0     C99271   6.183   3.406   4.429  0.7754  0.8023  0.4307
  736MOL0     O99272   5.914   3.411   4.250  0.2908  0.4981 -0.7113
  736MOL0     C99273   5.681   3.266   4.470  0.1136  0.4854  0.4277
  736MOL0     C99274   5.561   3.192   4.452 -0.0271 -0.8439 -1.4423
  736MOL0     N99275   4.884   3.234   3.893  0.1415 -0.0732  0.7287
  736MOL0     N99276   4.764   3.226   3.858 -0.1421  0.5390  0.3739
  736MOL0     C99277   5.372   2.642   3.252  0.0714 -0.4711  0.2581
  736MOL0     C99278   5.490   2.602   3.310  0.3987 -0.7853 -0.5166
  736MOL0     C99279   5.836   2.633   3.653  0.1871 -0.4534  1.2714
  736MOL0     C99280   5.932   2.720   3.710 -0.2268  0.4395 -0.1329
  736MOL0     C99281   6.034   2.671   3.802  0.6480  0.2559 -0.1040
  736MOL0     C99282   6.052   2.537   3.816  0.2658  0.5734  0.3262
  736MOL0     O99283   6.146   2.481   3.897  0.0220 -0.1488 -0.2907
  736MOL0     C99284   6.171   2.548   4.021  0.0007 -0.1613 -0.5555
  736MOL0     C99285   6.261   2.455   4.107  0.0671  0.5918 -0.2850
  736MOL0     C99286   6.271   2.482   4.260 -0.5410  0.8869 -0.4701
  736MOL0     C99287   6.335   2.621   4.283  0.7415  0.0703 -0.4691
  736MOL0     C99288   6.473   2.622   4.237 -0.4052  0.0052 -0.0259
  736MOL0     C99289   6.591   2.616   4.199  0.0347  1.0091  0.1692
  736MOL0     C99290   5.975   2.445   3.748  0.6593  0.5274  0.4807
  736MOL0     C99291   5.861   2.489   3.669 -0.2842  1.3710  0.0700
  736MOL0     C99292   5.767   2.386   3.611  0.2506  0.5069  0.1338
  736MOL0     H99293   5.473   2.813   3.590  0.0145 -0.2468  0.7943
  736MOL0     H99294   5.257   2.873   3.462 -2.3521 -0.9025 -1.0781
  736MOL0     H99295   5.058   2.771   3.429  2.7914  0.4098  0.7288
  736MOL0     H99296   5.056   2.925   3.349 -0.0499 -0.6107  0.3027
  736MOL0     H99297   4.924   2.696   3.204 -0.8735  1.1849 -2.0202
  736MOL0     H99298   4.882   2.859   3.192  1.0100  2.2253  0.9351
  736MOL0     H99299   4.854   2.668   3.426  0.4281  0.0886 -1.4470
  736MOL0     H99300   4.722   2.733   3.341  0.4799 -1.6603  0.0798
  736MOL0     H99301   4.894   2.934   3.504 -0.3794  2.4028  0.2067
  736MOL0     H99302   4.750   2.965   3.404  0.3424  1.3073  1.8063
  736MOL0     H99303   4.603   2.826   3.543  0.1163  0.4255  0.6063
  736MOL0     H99304   4.745   2.763   3.627  1.7754  0.8835  0.7627
  736MOL0     H99305   4.796   2.980   3.711  0.8274  1.7232  0.1977
  736MOL0     H99306   4.663   3.063   3.623  2.2004  0.5309 -2.7052
  736MOL0     H99307   4.655   2.879   3.861 -0.0039  0.0913 -0.1512
  736MOL0     H99308   4.507   2.905   3.766  0.1910 -1.7851  1.6711
  736MOL0     H99309   4.499   3.135   3.837 -2.5268 -5.2669 -3.1235
  736MOL0     H99310   4.524   3.042   3.967  2.7409  0.2474  0.4318
  736MOL0     H99311   4.769   2.982   4.080  1.4235 -0.4897  0.9240
  736MOL0     H99312   5.111   3.155   4.017  0.5270  1.0033  0.5643
  736MOL0     H99313   5.033   3.255   4.125  4.8868  0.9092 -0.8829
  736MOL0     H99314   4.958   3.037   4.267 -1.3885  1.2377  0.0215
  736MOL0     H99315   5.060   2.949   4.149  2.1105  1.7302 -3.4048
  736MOL0     H99316   5.160   2.996   4.367  2.3644  1.2907 -0.0957
  736MOL0     H99317   5.100   3.159   4.359  1.7864  1.4184 -0.7378
  736MOL0     H99318   5.272   3.213   4.184  0.2364 -0.8095 -0.9496
  736MOL0     H99319   5.298   3.052   4.157  0.3292 -1.2316  1.3209
  736MOL0     H99320   5.477   3.268   4.137 -1.1812  2.5667  1.1102
  736MOL0     H99321   5.690   3.396   4.159  1.1195  1.9617  1.4482
  736MOL0     H99322   5.997   3.645   4.567  0.3815 -0.3846 -0.2690
  736MOL0     H99323   6.218   3.727   4.617 -3.0619 -0.2809  0.6130
  736MOL0     H99324   6.453   3.792   4.676  2.2637  0.3508 -0.5023
  736MOL0     H99325   6.408   3.649   4.777 -1.2383  3.6478  1.6378
  736MOL0     H99326   6.662   3.730   4.806  0.1330  3.2349 -2.1494
  736MOL0     H99327   6.644   3.568   4.763  1.6792  0.3235  0.4190
  736MOL0     H99328   6.818   3.679   4.635 -0.7209  0.2623  0.9474
  736MOL0     H99329   6.707   3.625   4.523  1.2040  0.3340  0.4635
  736MOL0     H99330   6.747   3.899   4.650  0.1877 -1.0181  1.1116
  736MOL0     H99331   6.613   3.879   4.546  0.1434 -0.2454 -1.6821
  736MOL0     H99332   6.803   3.974   4.401 -1.8670 -0.1638  0.4119
  736MOL0     H99333   6.738   3.821   4.345  1.5773 -0.9124 -0.8213
  736MOL0     H99334   6.999   3.839   4.497  1.5998 -0.5997 -1.2139
  736MOL0     H99335   6.927   3.697   4.421  0.4604 -0.6469 -0.7300
  736MOL0     H99336   7.106   3.928   4.314  0.4387  0.4840 -0.3118
  736MOL0     H99337   6.990   3.879   4.206 -1.3215 -2.7182 -0.4356
  736MOL0     H99338   7.061   3.635   4.225  0.5708 -0.4961 -1.6459
  736MOL0     H99339   7.192   3.744   4.180 -2.5785  0.7327 -1.8721
  736MOL0     H99340   6.390   3.403   4.405  0.5127 -2.8059  4.1975
  736MOL0     H99341   6.180   3.314   4.372 -1.3383  0.8862  0.3413
  736MOL0     H99342   5.727   3.273   4.568  0.8912 -2.9378  0.4309
  736MOL0     H99343   5.518   3.144   4.540  1.6186 -1.3978 -0.9012
  736MOL0     H99344   5.354   2.596   3.156  1.1942 -0.6139  0.1050
  736MOL0     H99345   5.544   2.522   3.259  0.1269 -1.1990 -0.1612
  736MOL0     H99346   5.915   2.827   3.711 -0.0679  0.4867 -1.2846
  736MOL0     H99347   6.087   2.746   3.859 -0.2194  3.0415 -2.7155
  736MOL0     H99348   6.069   2.549   4.061  0.0911 -4.2322  0.2812
  736MOL0     H99349   6.218   2.646   4.015  1.3784 -0.8728 -2.1687
  736MOL0     H99350   6.359   2.432   4.067  0.3071 -1.5042  1.3208
  736MOL0     H99351   6.218   2.357   4.084 -0.9769  2.0647 -6.2193
  736MOL0     H99352   6.333   2.407   4.311  0.0202  1.1525 -0.7536
  736MOL0     H99353   6.169   2.483   4.299 -0.9697  1.6368 -1.5632
  736MOL0     H99354   6.287   2.704   4.231  1.8917  1.6157  0.8376
  736MOL0     H99355   6.339   2.637   4.391  0.8891  0.5688 -0.5470
  736MOL0     H99356   6.674   2.606   4.132 -1.8013  0.3791 -2.1523
  736MOL0     H99357   5.988   2.339   3.767 -0.6101 -0.0990 -1.7794
  736MOL0     H99358   5.661   2.412   3.603 -0.6097 -2.3794  0.8798
  736MOL0     H99359   5.794   2.360   3.508 -3.2024  2.3464 -1.3867
  736MOL0     H99360   5.763   2.288   3.661 -1.5750 -1.5252 -3.5388
  737MOL0     O99361   4.230   5.350   7.737 -0.2121 -0.0671  0.0613
  737MOL0     C99362   4.246   5.402   7.852  1.0392  0.8818 -0.3092
  737MOL0     O99363   4.348   5.471   7.895 -0.5155 -0.6471  0.2326
  737MOL0     C99364   4.440   5.520   7.809 -0.2850 -0.4788  0.4359
  737MOL0     C99365   4.430   5.651   7.760  0.3630  0.4018 -0.4444
  737MOL0     C99366   4.537   5.707   7.684 -0.2085  0.0897 -0.0514
  737MOL0     C99367   4.642   5.622   7.633 -1.0007  0.0601  0.8284
  737MOL0     O99368   4.747   5.664   7.546  0.5622  0.4890  0.0029
  737MOL0     C99369   4.786   5.800   7.570  0.0169  0.2318 -0.5029
  737MOL0     C99370   4.916   5.812   7.489  0.0257  0.1679  0.2449
  737MOL0     C99371   4.889   5.853   7.342  0.6815 -0.5069  1.1317
  737MOL0     C99372   5.008   5.858   7.258 -0.7352 -0.4743  0.1539
  737MOL0     C99373   4.983   5.917   7.126 -0.1754 -0.6255  0.2200
  737MOL0     C99374   5.110   5.937   7.039 -0.0929  0.0850 -0.8933
  737MOL0     C99375   5.063   5.970   6.895  0.3096  0.6560 -0.3756
  737MOL0     C99376   5.164   6.051   6.816 -0.0615 -0.2358  0.5102
  737MOL0     N99377   5.298   5.978   6.809  0.6160  0.3726  1.0203
  737MOL0     C99378   5.403   6.004   6.880 -0.2809  0.3567 -0.1025
  737MOL0     C99379   5.500   5.921   6.838  0.1574 -0.5202 -0.1992
  737MOL0     C99380   5.630   5.896   6.909 -0.3703  0.6556 -0.5902
  737MOL0     C99381   5.593   5.825   7.037  0.1441 -0.0783  0.5470
  737MOL0     C99382   5.561   5.672   7.019  0.3451  0.0281 -0.3083
  737MOL0     C99383   5.484   5.615   7.135 -0.0060  0.9277 -0.2758
  737MOL0     O99384   5.554   5.619   7.260  0.5987 -0.0856 -0.2787
  737MOL0     C99385   5.485   5.572   7.368  0.9581 -0.2925 -0.6665
  737MOL0     C99386   5.520   5.601   7.499  0.3154 -0.6215 -0.3370
  737MOL0     C99387   5.428   5.584   7.603  0.1029  0.6217 -1.0821
  737MOL0     C99388   5.313   5.511   7.589  0.1073  1.2776 -0.2659
  737MOL0     C99389   5.226   5.471   7.703 -0.9368  0.3200  0.0482
  737MOL0     O99390   5.114   5.405   7.682 -0.3450 -0.6718 -0.5288
  737MOL0     C99391   5.041   5.353   7.792  0.3635  0.1816  0.3076
  737MOL0     C99392   4.920   5.414   7.839  0.1545  0.0755 -0.4682
  737MOL0     C99393   4.841   5.374   7.949  0.1419  0.6065 -0.1592
  737MOL0     C99394   4.877   5.253   8.019 -0.1994  0.3439 -0.6853
  737MOL0     O99395   4.822   5.203   8.138  0.4499 -0.1438  0.8792
  737MOL0     C99396   4.674   5.206   8.126 -0.6135  0.3306  0.5356
  737MOL0     C99397   4.602   5.314   8.203 -0.1122  0.0588 -0.2366
  737MOL0     C99398   4.582   5.246   8.346 -0.0463 -0.0821  0.4577
  737MOL0     C99399   4.539   5.354   8.451  0.8623  0.2094 -0.2485
  737MOL0     C99400   4.506   5.280   8.587  0.6753  0.2179 -0.2949
  737MOL0     C99401   4.634   5.237   8.655  0.3996 -0.0698 -0.6304
  737MOL0     C99402   4.616   5.217   8.808 -0.2442  0.1027  0.0019
  737MOL0     C99403   4.549   5.081   8.828 -0.4220 -0.2706 -0.9860
  737MOL0    Cl99404   4.500   5.055   9.003  0.0107  0.2038 -0.1245
  737MOL0     C99405   5.004   5.199   7.983 -0.3503  0.8033  0.1840
  737MOL0     C99406   5.081   5.248   7.873 -0.5223  0.3854 -0.2073
  737MOL0     O99407   5.262   5.508   7.814  0.3534  0.1259 -0.3297
  737MOL0     C99408   5.280   5.463   7.457 -0.9720  0.4573  0.0598
  737MOL0     C99409   5.369   5.497   7.354  0.2572  0.6236 -1.3451
  737MOL0     N99410   5.458   5.846   6.733  0.3866 -0.5258  0.4942
  737MOL0     N99411   5.323   5.874   6.725 -0.5431  0.1165  0.9520
  737MOL0     C99412   4.636   5.491   7.663 -0.2230  0.1621 -0.4825
  737MOL0     C99413   4.540   5.440   7.747  0.6527 -0.5726 -0.5940
  737MOL0     C99414   4.148   5.375   7.963 -0.2069 -0.1800 -0.1184
  737MOL0     C99415   4.196   5.317   8.083  0.1237 -0.3514  0.7858
  737MOL0     C99416   4.109   5.289   8.190  0.2556 -0.4522 -0.5915
  737MOL0     C99417   3.972   5.311   8.176  1.1348  0.4048  0.1992
  737MOL0     O99418   3.890   5.247   8.265 -0.1382  0.3118 -0.5611
  737MOL0     C99419   3.744   5.246   8.245 -0.8579 -0.6523 -0.0494
  737MOL0     C99420   3.683   5.128   8.180  0.0546 -0.2327  1.3961
  737MOL0     C99421   3.532   5.126   8.184 -0.2583  0.1727 -0.1200
  737MOL0     C99422   3.470   5.032   8.289 -0.2320  0.3772 -0.5336
  737MOL0     C99423   3.466   5.094   8.424 -0.3959  0.3877  1.0326
  737MOL0     C99424   3.471   5.156   8.524  0.1450  0.0482  0.1347
  737MOL0     C99425   3.931   5.357   8.045  0.0825 -0.3321  0.4974
  737MOL0     C99426   4.020   5.386   7.941 -0.6893 -0.2799 -0.3751
  737MOL0     C99427   3.965   5.444   7.819  0.0410 -0.4625 -0.6392
  737MOL0     H99428   4.342   5.699   7.801 -0.2937  0.4313 -1.8253
  737MOL0     H99429   4.533   5.813   7.659  1.8086  0.0794 -0.5966
  737MOL0     H99430   4.712   5.869   7.529  0.9258  4.1333  3.5727
  737MOL0     H99431   4.803   5.820   7.676  0.1552  0.9780 -0.6588
  737MOL0     H99432   4.960   5.713   7.479  0.1450  0.4445 -2.6902
  737MOL0     H99433   4.984   5.883   7.538 -0.9941  1.3755 -0.0104
  737MOL0     H99434   4.834   5.947   7.335  1.9628  0.2312  0.6261
  737MOL0     H99435   4.823   5.776   7.301 -0.6935  1.6733 -1.0639
  737MOL0     H99436   5.075   5.921   7.318  2.7968 -2.3547 -1.4946
  737MOL0     H99437   5.045   5.755   7.260  0.9763  0.0996 -0.2212
  737MOL0     H99438   4.915   5.850   7.073  0.3084  1.3217 -3.1951
  737MOL0     H99439   4.938   6.017   7.128 -3.4894 -2.0026  0.5804
  737MOL0     H99440   5.172   6.018   7.079 -0.4026 -0.0915 -0.0138
  737MOL0     H99441   5.166   5.844   7.053 -0.5945  0.2101  3.4584
  737MOL0     H99442   4.964   6.016   6.897  1.2942  2.9191 -0.4098
  737MOL0     H99443   5.037   5.874   6.848  0.4267 -1.3895  3.3328
  737MOL0     H99444   5.138   6.059   6.710  1.3903 -2.0664 -0.0493
  737MOL0     H99445   5.181   6.154   6.847  0.4793  0.4171 -1.7665
  737MOL0     H99446   5.402   6.072   6.965 -4.1682 -0.0241  0.3226
  737MOL0     H99447   5.692   5.829   6.847  1.4309 -0.5239  2.2804
  737MOL0     H99448   5.691   5.984   6.931 -1.4252  1.1706  0.3255
  737MOL0     H99449   5.683   5.827   7.099  1.1856 -3.8826 -0.5555
  737MOL0     H99450   5.517   5.885   7.088 -1.5108 -1.1694 -0.5043
  737MOL0     H99451   5.660   5.625   7.021  1.0094  1.3319  2.4478
  737MOL0     H99452   5.500   5.671   6.929 -1.5829  2.8724  0.8287
  737MOL0     H99453   5.460   5.512   7.107 -1.6344  1.0137  0.6698
  737MOL0     H99454   5.390   5.668   7.148 -1.6293 -1.9622  0.8054
  737MOL0     H99455   5.615   5.652   7.510  0.2698 -0.8064  1.1817
  737MOL0     H99456   5.448   5.634   7.697 -1.2507  1.7984 -1.3815
  737MOL0     H99457   4.910   5.516   7.801  0.8208  1.1719  2.0897
  737MOL0     H99458   4.747   5.419   7.981 -1.6499 -2.8900 -0.0029
  737MOL0     H99459   4.640   5.201   8.022 -0.4580 -2.4288  0.5475
  737MOL0     H99460   4.631   5.111   8.158 -0.4401  0.3409  0.7995
  737MOL0     H99461   4.656   5.405   8.230 -2.6678  1.4799  0.3312
  737MOL0     H99462   4.506   5.341   8.158 -0.7509 -1.7060 -0.0236
  737MOL0     H99463   4.514   5.161   8.333  1.6631 -1.4177 -0.1367
  737MOL0     H99464   4.671   5.190   8.376 -2.2045 -2.8973  2.0823
  737MOL0     H99465   4.444   5.404   8.428 -0.5645 -2.7960 -1.3951
  737MOL0     H99466   4.612   5.435   8.449  0.6206  0.4368 -0.0335
  737MOL0     H99467   4.438   5.196   8.572 -0.1379  0.5918  1.1711
  737MOL0     H99468   4.452   5.346   8.655 -0.4407  0.5465 -1.4461
  737MOL0     H99469   4.687   5.155   8.606  0.3329 -0.6087  0.1811
  737MOL0     H99470   4.706   5.319   8.642  0.6902 -0.0015  1.1487
  737MOL0     H99471   4.549   5.292   8.850 -0.4356 -1.5087  2.8622
  737MOL0     H99472   4.707   5.214   8.870 -0.5692  1.9480  0.6257
  737MOL0     H99473   4.459   5.074   8.767 -0.9240  1.7951 -0.5579
  737MOL0     H99474   4.620   5.002   8.804  1.5591  1.1994 -0.2503
  737MOL0     H99475   5.037   5.118   8.048  1.3422 -0.7368 -2.4221
  737MOL0     H99476   5.177   5.200   7.858 -0.7870 -1.0403  2.2548
  737MOL0     H99477   5.196   5.397   7.438 -2.3802  1.8305  1.3284
  737MOL0     H99478   5.340   5.463   7.255 -0.3141 -0.8928 -0.6784
  737MOL0     H99479   4.707   5.427   7.611 -0.1124  0.5324 -0.7888
  737MOL0     H99480   4.550   5.335   7.772  4.5071 -0.2732 -0.2372
  737MOL0     H99481   4.302   5.299   8.093  0.3334  1.2926  1.9071
  737MOL0     H99482   4.146   5.232   8.275  1.9923 -1.2942 -1.8451
  737MOL0     H99483   3.721   5.338   8.191  2.8715  1.7731  2.0774
  737MOL0     H99484   3.703   5.273   8.343  3.2299  3.9706  0.7991
  737MOL0     H99485   3.723   5.032   8.214 -0.5831 -2.9044 -4.1644
  737MOL0     H99486   3.704   5.129   8.072 -1.9037 -0.0915  0.9906
  737MOL0     H99487   3.501   5.085   8.087  1.4872 -2.0005  0.1571
  737MOL0     H99488   3.486   5.225   8.190 -2.3963 -0.7629 -0.1782
  737MOL0     H99489   3.370   4.994   8.267 -0.3346  0.1717  0.2611
  737MOL0     H99490   3.531   4.942   8.300 -1.4550 -0.1629  2.8373
  737MOL0     H99491   3.461   5.203   8.620  1.8881  0.7185  0.0234
  737MOL0     H99492   3.826   5.380   8.034 -0.1744 -2.0496 -1.0456
  737MOL0     H99493   3.863   5.475   7.841  0.5889  0.9700 -0.0137
  737MOL0     H99494   4.024   5.530   7.788  2.6705 -0.4879  3.5776
  737MOL0     H99495   3.952   5.365   7.744 -1.0326 -1.7198  0.8145
  738MOL0     O99496   8.706   4.020   9.901 -0.1480 -0.1412 -0.7485
  738MOL0     C99497   8.671   4.116   9.832 -0.1359 -0.2287 -0.0821
  738MOL0     O99498   8.733   4.153   9.713 -0.3549 -0.8761 -0.7004
  738MOL0     C99499   8.846   4.093   9.652  0.0509 -0.0306 -0.0567
  738MOL0     C99500   8.922   3.990   9.702  0.3801 -0.3917  0.2654
  738MOL0     C99501   9.037   3.947   9.641  0.6084  1.6589  0.0804
  738MOL0     C99502   9.079   4.009   9.527 -0.1608 -0.1892 -0.4436
  738MOL0     O99503   9.195   3.952   9.481  0.6939 -0.5687  0.3897
  738MOL0     C99504   9.252   3.990   9.354  0.0487 -0.1112 -0.3170
  738MOL0     C99505   9.245   3.891   9.240 -0.1094  0.9505 -0.5697
  738MOL0     C99506   9.287   3.951   9.108  0.2579 -0.8465 -0.1447
  738MOL0     C99507   9.431   3.940   9.085  1.0351  0.4885  0.3669
  738MOL0     C99508   9.480   4.025   8.968  0.3711  0.0813 -0.0653
  738MOL0     C99509   9.420   3.977   8.838  0.0203  0.0307 -0.9031
  738MOL0     C99510   9.489   4.043   8.715 -0.2725  0.1074  0.4051
  738MOL0     C99511   9.427   3.984   8.582 -0.4340  0.1669  0.5003
  738MOL0     N99512   9.492   4.049   8.471 -0.3597 -0.1056 -0.1827
  738MOL0     C99513   9.632   4.047   8.439 -1.0798 -0.3678 -0.1449
  738MOL0     C99514   9.660   4.163   8.377 -0.6796  0.0815  0.3786
  738MOL0     C99515   9.793   4.216   8.334 -0.2601 -0.0841 -0.6022
  738MOL0     C99516   9.852   4.130   8.227  0.5485  0.2893 -0.6422
  738MOL0     C99517   9.990   4.175   8.181 -0.2338  0.1466  0.6353
  738MOL0     C99518   9.995   4.287   8.083 -0.1303  0.5003  0.5091
  738MOL0     O99519  10.116   4.303   8.014 -1.5304 -0.2234 -0.3423
  738MOL0     C99520  10.227   4.356   8.082 -0.2163 -0.1399 -0.4255
  738MOL0     C99521  10.214   4.434   8.196 -0.0086  0.5526 -0.3149
  738MOL0     C99522  10.322   4.511   8.237  0.1228  0.3947  0.2975
  738MOL0     C99523  10.455   4.490   8.188  0.3382  0.0069 -0.3323
  738MOL0     C99524  10.572   4.560   8.249 -0.3732  0.2225  0.3763
  738MOL0     O99525  10.694   4.540   8.189 -0.3540 -0.0932  0.5375
  738MOL0     C99526  10.807   4.597   8.245  0.7294 -0.2554  0.2005
  738MOL0     C99527  10.837   4.725   8.204  0.2819 -0.3765  0.6598
  738MOL0     C99528  10.965   4.772   8.227 -0.0448  0.0921  0.8136
  738MOL0     C99529  11.051   4.697   8.305 -0.0296 -0.3729  0.0602
  738MOL0     O99530  11.175   4.756   8.307 -0.1042  1.2544 -0.2540
  738MOL0     C99531  11.265   4.714   8.411 -0.2909 -0.8949  0.0851
  738MOL0     C99532  11.339   4.841   8.460  0.1188 -0.6333 -0.3172
  738MOL0     C99533  11.241   4.948   8.510 -0.3338  0.0594 -0.3476
  738MOL0     C99534  11.140   4.916   8.622 -0.1532  0.2814  0.2074
  738MOL0     C99535  11.062   5.037   8.678 -0.1064  0.7199 -0.4242
  738MOL0     C99536  10.960   4.988   8.769  0.2024 -0.2559  0.5852
  738MOL0     C99537  10.824   4.950   8.690 -1.0529  0.3999  0.8340
  738MOL0     C99538  10.719   4.883   8.790  0.2674  0.2975 -0.0600
  738MOL0    Cl99539  10.786   4.733   8.854 -0.1864  0.1409  0.0939
  738MOL0     C99540  11.012   4.578   8.365  0.4040 -1.0971  0.5583
  738MOL0     C99541  10.885   4.526   8.335  1.3841  0.3691  0.0040
  738MOL0     O99542  10.549   4.636   8.343  0.6371  0.7725 -0.0589
  738MOL0     C99543  10.467   4.404   8.075 -0.6148  0.0103  0.6150
  738MOL0     C99544  10.350   4.347   8.015 -0.5239  0.1358 -0.2545
  738MOL0     N99545   9.537   4.227   8.362 -0.8796 -0.1889 -0.1840
  738MOL0     N99546   9.443   4.160   8.411  0.1936  0.0674  0.0620
  738MOL0     C99547   9.001   4.114   9.472 -0.4459  0.4972  0.9605
  738MOL0     C99548   8.887   4.155   9.534  0.7688 -0.0146 -0.1124
  738MOL0     C99549   8.547   4.180   9.875  0.1011 -0.0381 -0.2510
  738MOL0     C99550   8.450   4.109   9.954 -0.6446  0.2268  1.1539
  738MOL0     C99551   8.316   4.146   9.970 -0.3289  0.7371 -0.2683
  738MOL0     C99552   8.275   4.265   9.912 -0.3563 -0.4174  0.0650
  738MOL0     O99553   8.150   4.322   9.918 -0.4419 -0.2564 -0.7058
  738MOL0     C99554   8.043   4.240   9.958  0.5760 -0.5359  0.3134
  738MOL0     C99555   7.904   4.301   9.924  0.0925 -0.1558 -0.1588
  738MOL0     C99556   7.868   4.419  10.008  0.2176  0.1034 -0.2087
  738MOL0     C99557   7.723   4.467   9.989 -0.5414  0.7125 -0.2604
  738MOL0     C99558   7.693   4.578  10.081  0.2146  0.2954 -0.7804
  738MOL0     C99559   7.688   4.674  10.155 -1.1817  0.4342 -0.5421
  738MOL0     C99560   8.372   4.345   9.850 -0.2886 -0.1586 -0.3196
  738MOL0     C99561   8.509   4.309   9.832  0.0452  0.7468 -0.0548
  738MOL0     C99562   8.604   4.407   9.784 -0.5060 -0.6042  0.7596
  738MOL0     H99563   8.895   3.946   9.797  3.0805 -2.0845  0.3516
  738MOL0     H99564   9.093   3.859   9.672 -2.7898 -1.6995 -2.4279
  738MOL0     H99565   9.223   4.089   9.316 -0.4915  0.0136  0.4135
  738MOL0     H99566   9.355   4.000   9.388 -0.7913  3.3048  1.7144
  738MOL0     H99567   9.141   3.859   9.232  0.0503  0.1360  0.4015
  738MOL0     H99568   9.301   3.801   9.268 -1.4526  0.2024 -0.2034
  738MOL0     H99569   9.267   4.058   9.114  2.3684 -0.4965  3.0823
  738MOL0     H99570   9.231   3.914   9.022 -0.5611  0.1428 -0.0603
  738MOL0     H99571   9.487   3.979   9.170  1.7076  0.8711 -0.2350
  738MOL0     H99572   9.471   3.838   9.075  2.3387  1.1034 -1.1529
  738MOL0     H99573   9.466   4.129   9.000  2.3249  0.4391 -0.2377
  738MOL0     H99574   9.588   4.023   8.952  0.6301  2.3860  1.0333
  738MOL0     H99575   9.426   3.869   8.828  1.4606 -0.1955  1.5327
  738MOL0     H99576   9.314   4.003   8.836 -0.6649 -2.3617  0.4157
  738MOL0     H99577   9.596   4.022   8.725  0.7156  3.4221 -1.7205
  738MOL0     H99578   9.485   4.152   8.705  0.0069  0.1704  0.9678
  738MOL0     H99579   9.439   3.875   8.574 -0.5212  0.0492  1.7989
  738MOL0     H99580   9.320   4.003   8.583 -0.2644  1.2021  0.4669
  738MOL0     H99581   9.710   3.980   8.473  1.6353  2.7123  0.1263
  738MOL0     H99582   9.789   4.320   8.301 -2.3945  0.9698  2.5333
  738MOL0     H99583   9.857   4.206   8.423 -3.3828 -4.0087  1.5072
  738MOL0     H99584   9.862   4.028   8.265 -0.3589  0.0367 -1.0629
  738MOL0     H99585   9.781   4.124   8.144 -0.9318 -0.6111  0.6424
  738MOL0     H99586  10.034   4.101   8.112 -2.9628  0.6523 -1.8401
  738MOL0     H99587  10.050   4.200   8.269 -0.1254  1.3137  0.2475
  738MOL0     H99588   9.971   4.385   8.124  1.3364  1.1339 -0.0765
  738MOL0     H99589   9.908   4.269   8.019 -0.5306 -2.4476  1.7276
  738MOL0     H99590  10.120   4.430   8.250  1.7765 -2.7860  3.0011
  738MOL0     H99591  10.304   4.584   8.316 -3.0619  0.9883 -0.8517
  738MOL0     H99592  10.772   4.773   8.132  0.6832 -2.2104 -1.0105
  738MOL0     H99593  10.998   4.860   8.173 -0.4934  0.5618  1.2894
  738MOL0     H99594  11.214   4.681   8.502 -1.5988  1.1912  0.1827
  738MOL0     H99595  11.334   4.638   8.373 -0.4994 -0.6119 -0.8797
  738MOL0     H99596  11.421   4.809   8.526 -1.1718 -2.6117  0.4482
  738MOL0     H99597  11.395   4.883   8.377  2.0013 -3.2346 -0.4964
  738MOL0     H99598  11.306   5.030   8.543  1.4080 -1.2197 -0.4832
  738MOL0     H99599  11.187   4.987   8.423 -0.3242 -0.2682 -0.5002
  738MOL0     H99600  11.193   4.863   8.702 -1.8634  0.7606  1.7006
  738MOL0     H99601  11.077   4.837   8.580  1.0324 -0.6844  0.1641
  738MOL0     H99602  11.008   5.079   8.592 -0.9011  1.4371  0.4054
  738MOL0     H99603  11.121   5.118   8.721  1.4063 -0.2216 -0.6576
  738MOL0     H99604  10.985   4.905   8.835  0.9342  1.7320  2.9536
  738MOL0     H99605  10.932   5.068   8.838 -1.2041 -0.8507  0.7542
  738MOL0     H99606  10.843   4.879   8.609  0.1262 -0.5034  1.8575
  738MOL0     H99607  10.789   5.043   8.646 -0.1819 -0.4808 -1.9718
  738MOL0     H99608  10.709   4.954   8.872  2.1412  2.6101 -1.7057
  738MOL0     H99609  10.620   4.867   8.746  0.7012 -2.5292 -0.2331
  738MOL0     H99610  11.078   4.519   8.427  1.8477 -0.2167 -0.0906
  738MOL0     H99611  10.867   4.425   8.369  2.3403  0.1473 -0.1022
  738MOL0     H99612  10.549   4.382   8.007 -1.9205 -1.6189 -0.5054
  738MOL0     H99613  10.348   4.286   7.925  5.1611  0.8229 -1.2502
  738MOL0     H99614   9.037   4.169   9.385 -0.2226 -3.1583 -1.4979
  738MOL0     H99615   8.828   4.237   9.493  0.5096 -1.1432 -2.1304
  738MOL0     H99616   8.485   4.026  10.015  2.3958 -1.3935 -2.3252
  738MOL0     H99617   8.243   4.101  10.036  0.0165  1.4910  0.6626
  738MOL0     H99618   8.042   4.216  10.065 -4.0515 -1.3319  0.2893
  738MOL0     H99619   8.048   4.144   9.907 -0.4592 -0.2537 -0.3342
  738MOL0     H99620   7.825   4.227   9.942  1.9476 -2.6655 -1.6849
  738MOL0     H99621   7.906   4.329   9.818 -2.2631  0.5436 -0.0640
  738MOL0     H99622   7.937   4.504  10.000  0.4725  0.2431  2.3501
  738MOL0     H99623   7.880   4.392  10.114 -3.1612 -0.6034  0.0906
  738MOL0     H99624   7.700   4.515   9.894  0.5004  0.4687 -0.6539
  738MOL0     H99625   7.661   4.379  10.013  0.7536  0.0389  0.7384
  738MOL0     H99626   7.696   4.765  10.213 -1.8219  0.9203 -1.2050
  738MOL0     H99627   8.349   4.448   9.824 -1.3424 -0.3191 -0.0872
  738MOL0     H99628   8.687   4.407   9.854 -1.6755  2.9870  2.4061
  738MOL0     H99629   8.633   4.380   9.682  0.3290  3.6775 -0.3456
  738MOL0     H99630   8.560   4.507   9.784 -1.1949 -0.8997  0.9822
  739MOL0     O99631   4.875   1.989   9.382  0.1428 -0.0069  0.2559
  739MOL0     C99632   4.940   1.887   9.369 -0.7778 -0.0145  0.3696
  739MOL0     O99633   5.057   1.884   9.306 -0.5447  0.1099  0.4517
  739MOL0     C99634   5.137   1.993   9.268 -0.0094  0.2497  0.1993
  739MOL0     C99635   5.094   2.084   9.166  0.2127 -0.8117 -0.4985
  739MOL0     C99636   5.187   2.177   9.114 -0.4552  0.5198 -1.7539
  739MOL0     C99637   5.326   2.180   9.150 -0.0464  1.1100  0.0642
  739MOL0     O99638   5.418   2.253   9.073 -1.3150 -0.6063  0.1377
  739MOL0     C99639   5.555   2.277   9.130  0.4205  0.2529  0.5209
  739MOL0     C99640   5.656   2.170   9.095 -0.0392  0.0305  0.2618
  739MOL0     C99641   5.675   2.147   8.941 -1.1784  0.8027  0.4075
  739MOL0     C99642   5.772   2.037   8.894  0.4812  1.2097 -0.4136
  739MOL0     C99643   5.915   2.066   8.949  0.4825  0.1644  0.6226
  739MOL0     C99644   6.016   1.962   8.880 -0.2175 -0.2634 -0.1929
  739MOL0     C99645   6.161   2.011   8.890 -0.1724  0.9479 -0.5317
  739MOL0     C99646   6.248   1.922   8.804 -1.0195  1.7223 -0.0523
  739MOL0     N99647   6.389   1.946   8.839 -0.5452  0.2884 -0.0218
  739MOL0     C99648   6.469   2.038   8.779  0.6751  0.6882 -0.2517
  739MOL0     C99649   6.589   2.028   8.840 -0.3051 -0.6926  0.0404
  739MOL0     C99650   6.710   2.117   8.820  0.0068  0.7539  0.1516
  739MOL0     C99651   6.841   2.052   8.862  0.1022 -0.1986 -0.3778
  739MOL0     C99652   6.870   1.930   8.772  0.6769  0.1289 -0.5984
  739MOL0     C99653   6.989   1.863   8.830 -1.5475  0.2392 -0.8503
  739MOL0     O99654   7.104   1.951   8.815 -0.1577  0.9234 -0.7576
  739MOL0     C99655   7.219   1.914   8.879 -0.7351  1.3849  0.2866
  739MOL0     C99656   7.239   1.812   8.984  0.1355 -0.6000  1.1466
  739MOL0     C99657   7.370   1.782   9.030 -0.8417 -0.2968  0.2459
  739MOL0     C99658   7.479   1.859   8.989  0.4406 -0.6549 -0.0832
  739MOL0     C99659   7.616   1.836   9.045  0.1948 -1.9300  0.6505
  739MOL0     O99660   7.638   1.742   9.148 -0.8919  0.1723  0.1244
  739MOL0     C99661   7.767   1.746   9.205 -0.3089  0.7279  0.1041
  739MOL0     C99662   7.860   1.643   9.192  0.1025  0.3370 -0.3246
  739MOL0     C99663   7.985   1.658   9.255  0.3297 -0.3449  0.2753
  739MOL0     C99664   8.024   1.772   9.320 -0.0223 -1.3278  0.6334
  739MOL0     O99665   8.150   1.777   9.365 -0.4617 -0.2124  0.4056
  739MOL0     C99666   8.254   1.690   9.319  0.1508 -0.8853  0.5335
  739MOL0     C99667   8.380   1.755   9.369 -0.2770 -0.5183 -0.0533
  739MOL0     C99668   8.501   1.710   9.287 -0.4458  0.7423  0.7264
  739MOL0     C99669   8.641   1.753   9.325  0.5403 -0.2720 -0.9523
  739MOL0     C99670   8.757   1.666   9.274  0.7513  0.1574 -0.9791
  739MOL0     C99671   8.896   1.737   9.257  0.0195 -0.1678  1.2914
  739MOL0     C99672   8.990   1.728   9.380 -0.1551  0.5091  0.1964
  739MOL0     C99673   9.042   1.589   9.399  0.0610 -0.2834 -0.3171
  739MOL0    Cl99674   9.192   1.580   9.499 -0.0274 -0.1453  0.1188
  739MOL0     C99675   7.930   1.870   9.346  0.3034  0.4967 -0.7871
  739MOL0     C99676   7.808   1.859   9.281 -0.3679 -0.2418  0.8400
  739MOL0     O99677   7.706   1.911   8.999 -0.2008 -0.2372 -0.6586
  739MOL0     C99678   7.465   1.957   8.890 -0.2614 -0.5682 -1.0689
  739MOL0     C99679   7.334   1.982   8.845 -0.5409  0.1191  0.4755
  739MOL0     N99680   6.579   1.938   8.943 -0.2479  0.1839  0.4615
  739MOL0     N99681   6.463   1.892   8.945  0.5867  0.6116 -0.9675
  739MOL0     C99682   5.371   2.086   9.242  0.3143  0.5937 -0.8341
  739MOL0     C99683   5.277   1.991   9.297 -1.0657  0.7766 -0.9594
  739MOL0     C99684   4.881   1.763   9.420 -0.8703  0.1256  0.0227
  739MOL0     C99685   4.944   1.644   9.391  0.6113 -0.4337 -0.1744
  739MOL0     C99686   4.905   1.512   9.429 -0.1790 -0.2011 -0.0294
  739MOL0     C99687   4.783   1.500   9.497  0.2715  0.8305 -0.4648
  739MOL0     O99688   4.737   1.373   9.527  0.5403  0.2650  0.4824
  739MOL0     C99689   4.596   1.348   9.525 -0.2186  0.5680  0.5219
  739MOL0     C99690   4.566   1.237   9.417 -0.3878 -0.0214  0.8362
  739MOL0     C99691   4.585   1.284   9.272  0.2022 -0.9845  0.0708
  739MOL0     C99692   4.565   1.170   9.161  0.4456  0.0990  0.5226
  739MOL0     C99693   4.578   1.231   9.026 -0.5094  0.7839  0.7468
  739MOL0     C99694   4.580   1.280   8.911 -0.4019  0.8251  0.2350
  739MOL0     C99695   4.720   1.621   9.536  0.1958  0.1823  1.0648
  739MOL0     C99696   4.759   1.751   9.489 -0.8792  0.7546  0.4714
  739MOL0     C99697   4.669   1.861   9.535 -0.1937  1.1623  0.5996
  739MOL0     H99698   4.997   2.076   9.118  0.2032  0.1682 -0.6623
  739MOL0     H99699   5.161   2.261   9.050  1.6042  1.5184 -1.3802
  739MOL0     H99700   5.588   2.373   9.090  3.3171 -1.3338 -1.2183
  739MOL0     H99701   5.549   2.286   9.239 -2.3679  0.2971  0.4322
  739MOL0     H99702   5.619   2.075   9.133  0.1330  0.3264  1.2127
  739MOL0     H99703   5.750   2.190   9.149 -0.3679  0.5018  0.6752
  739MOL0     H99704   5.717   2.240   8.902  1.5074  0.1957  1.5826
  739MOL0     H99705   5.577   2.131   8.895  0.0399  0.3845 -2.2323
  739MOL0     H99706   5.745   1.937   8.929  1.5098  0.9031 -0.4693
  739MOL0     H99707   5.784   2.041   8.785 -0.5335 -0.6361 -0.6334
  739MOL0     H99708   5.941   2.169   8.924 -0.1661 -0.3389 -2.6341
  739MOL0     H99709   5.922   2.053   9.057  4.0350  0.9068  0.5762
  739MOL0     H99710   5.994   1.865   8.925 -2.6483  0.2280 -0.1464
  739MOL0     H99711   5.975   1.953   8.778 -3.1734  0.8230  0.7883
  739MOL0     H99712   6.184   1.990   8.995  1.5861  2.0756 -0.6621
  739MOL0     H99713   6.171   2.119   8.878  2.7491  0.9417  1.0487
  739MOL0     H99714   6.232   1.819   8.835  2.7627  0.7606 -0.8129
  739MOL0     H99715   6.231   1.924   8.696  1.2802 -0.0380 -0.5211
  739MOL0     H99716   6.443   2.108   8.701 -2.7016  1.4186  1.3349
  739MOL0     H99717   6.712   2.156   8.717  0.0493 -0.2494 -0.2360
  739MOL0     H99718   6.696   2.199   8.890 -1.8560  0.6549 -0.0620
  739MOL0     H99719   6.920   2.127   8.868  0.8582 -0.9063 -1.1123
  739MOL0     H99720   6.829   2.014   8.964 -2.3795 -1.8004 -1.1730
  739MOL0     H99721   6.883   1.947   8.665  0.1812 -0.6611 -0.7947
  739MOL0     H99722   6.786   1.860   8.783  0.6294  0.6023  4.3704
  739MOL0     H99723   7.015   1.774   8.774 -1.8569  0.8152 -1.9342
  739MOL0     H99724   6.964   1.838   8.934  1.1468 -2.7545 -0.7972
  739MOL0     H99725   7.152   1.760   9.022 -1.7561  1.8079  0.3678
  739MOL0     H99726   7.384   1.698   9.098  0.4406 -0.2872  0.0164
  739MOL0     H99727   7.847   1.551   9.136  0.3353  0.1397 -0.0507
  739MOL0     H99728   8.049   1.571   9.244 -0.0633 -0.4782 -1.2224
  739MOL0     H99729   8.221   1.590   9.349 -2.1118 -0.8491 -1.4931
  739MOL0     H99730   8.266   1.703   9.211 -1.8532  1.3587  0.4814
  739MOL0     H99731   8.367   1.864   9.365 -2.8211 -0.8212 -2.7757
  739MOL0     H99732   8.398   1.717   9.471  1.8826  3.3798  1.2496
  739MOL0     H99733   8.510   1.601   9.290 -2.1524  0.4453 -1.6417
  739MOL0     H99734   8.485   1.731   9.181 -3.2229 -3.8319 -0.0419
  739MOL0     H99735   8.643   1.757   9.434 -1.0596 -1.3697 -0.8398
  739MOL0     H99736   8.633   1.857   9.291  1.3139  0.9921  2.3152
  739MOL0     H99737   8.725   1.630   9.176 -2.5581  1.1647 -0.3699
  739MOL0     H99738   8.770   1.577   9.337 -1.2341 -1.0975 -2.2402
  739MOL0     H99739   8.945   1.717   9.162 -0.7268  2.0829  0.3717
  739MOL0     H99740   8.861   1.839   9.243 -0.6614 -0.1806  2.7200
  739MOL0     H99741   8.945   1.776   9.468 -2.5760  2.5553 -2.0120
  739MOL0     H99742   9.076   1.792   9.356 -1.5021  2.1535 -0.4000
  739MOL0     H99743   8.964   1.538   9.457 -0.6960  2.1092  0.9553
  739MOL0     H99744   9.048   1.542   9.301 -2.6354 -0.5626 -0.4285
  739MOL0     H99745   7.957   1.961   9.399  0.5424 -0.3349  0.5735
  739MOL0     H99746   7.735   1.939   9.288 -0.2284 -0.0462  0.1187
  739MOL0     H99747   7.549   2.022   8.865  0.6335 -0.0760  2.5974
  739MOL0     H99748   7.338   2.065   8.774 -3.2276 -0.3868 -0.3756
  739MOL0     H99749   5.472   2.077   9.280 -0.8708 -2.2165  2.1308
  739MOL0     H99750   5.294   1.919   9.376  3.4036  5.0787  2.5946
  739MOL0     H99751   5.039   1.647   9.339  1.7570 -1.7234  1.7227
  739MOL0     H99752   4.964   1.424   9.405  1.2482  1.1902 -2.0108
  739MOL0     H99753   4.536   1.435   9.498 -0.0628  0.0203 -1.8207
  739MOL0     H99754   4.569   1.301   9.620 -0.7080 -2.9632 -1.1986
  739MOL0     H99755   4.460   1.217   9.433 -0.1017 -2.3657  0.0931
  739MOL0     H99756   4.628   1.150   9.440 -0.2822 -0.0370  0.4840
  739MOL0     H99757   4.690   1.315   9.266 -0.5724  1.6266 -2.5108
  739MOL0     H99758   4.514   1.365   9.250  1.9291  1.0031  1.4896
  739MOL0     H99759   4.638   1.090   9.174 -0.2853 -0.9596 -1.5540
  739MOL0     H99760   4.467   1.125   9.177 -0.8909  2.2272 -1.1312
  739MOL0     H99761   4.565   1.306   8.808  1.0387  0.9758  0.0499
  739MOL0     H99762   4.640   1.610   9.609 -1.0613 -0.9979 -0.4334
  739MOL0     H99763   4.733   1.922   9.599  2.8033  0.4192 -1.4534
  739MOL0     H99764   4.646   1.924   9.448 -0.9559  1.7496  1.2081
  739MOL0     H99765   4.578   1.826   9.584 -0.4334 -0.6711 -1.0029
  740MOL0     O99766   5.384   4.970   8.099  0.6804 -0.3782 -0.4435
  740MOL0     C99767   5.445   5.025   8.185 -0.1657 -1.0046 -0.0730
  740MOL0     O99768   5.585   5.032   8.182  0.3081  0.4792  0.1582
  740MOL0     C99769   5.658   4.960   8.085 -0.2881 -0.0429  0.3276
  740MOL0     C99770   5.620   4.848   8.009  0.7210 -0.9451 -0.4354
  740MOL0     C99771   5.704   4.784   7.917 -0.9287  0.0321 -0.0655
  740MOL0     C99772   5.841   4.833   7.905  1.0346 -0.1840  0.1629
  740MOL0     O99773   5.923   4.782   7.813  0.3670  0.1192 -0.4163
  740MOL0     C99774   5.864   4.705   7.710 -0.5613  0.3958  0.2629
  740MOL0     C99775   5.966   4.679   7.598 -0.7019  0.1892 -0.4834
  740MOL0     C99776   6.105   4.626   7.646  0.9680  0.5938  0.0651
  740MOL0     C99777   6.197   4.620   7.514 -0.2444  1.0793  0.2027
  740MOL0     C99778   6.344   4.579   7.533 -0.4289  0.7059 -0.4697
  740MOL0     C99779   6.362   4.453   7.622 -0.4654  0.0789  0.4197
  740MOL0     C99780   6.491   4.389   7.607 -0.9881  0.1845  0.7730
  740MOL0     C99781   6.513   4.274   7.702  0.6570  0.7332 -0.2092
  740MOL0     N99782   6.637   4.213   7.670 -0.3343 -0.0604  0.2262
  740MOL0     C99783   6.654   4.129   7.573 -0.2899  0.1247 -0.4497
  740MOL0     C99784   6.785   4.105   7.572  0.1237  0.7263 -0.2794
  740MOL0     C99785   6.847   3.997   7.493 -0.9233 -0.2507 -0.3200
  740MOL0     C99786   6.809   3.857   7.544  0.8394 -0.6181  0.2328
  740MOL0     C99787   6.878   3.739   7.475 -0.4927 -0.5660 -1.0956
  740MOL0     C99788   6.834   3.603   7.532  0.1031  0.2775 -0.5207
  740MOL0     O99789   6.944   3.522   7.534 -0.6033 -0.2285  0.5792
  740MOL0     C99790   6.946   3.404   7.473 -0.3231  0.6587 -0.0484
  740MOL0     C99791   6.970   3.385   7.337  0.2542  0.3801  0.3082
  740MOL0     C99792   6.978   3.256   7.280 -0.2329 -0.5787 -0.2480
  740MOL0     C99793   6.963   3.142   7.360  0.1569  0.4297  0.6797
  740MOL0     C99794   7.015   3.017   7.305  0.1093  0.5264  0.5731
  740MOL0     O99795   6.946   2.899   7.327 -0.7276  0.0858 -0.5217
  740MOL0     C99796   6.824   2.887   7.379 -0.5495  0.0928 -0.5846
  740MOL0     C99797   6.701   2.910   7.321 -0.0708 -0.8691 -0.1108
  740MOL0     C99798   6.590   2.903   7.397  0.7527 -0.4532 -1.0217
  740MOL0     C99799   6.590   2.840   7.524  0.3687 -0.1720 -0.9988
  740MOL0     O99800   6.467   2.820   7.579  0.0491 -0.0284 -0.3917
  740MOL0     C99801   6.460   2.794   7.723 -0.5355  1.0192 -0.0835
  740MOL0     C99802   6.375   2.898   7.795 -0.5107 -0.2209  0.3195
  740MOL0     C99803   6.238   2.922   7.733 -0.6086 -0.0741 -0.6602
  740MOL0     C99804   6.134   2.995   7.828 -0.6236  0.4029 -0.0015
  740MOL0     C99805   5.987   2.981   7.778  0.6137 -0.2740  0.3185
  740MOL0     C99806   5.907   3.111   7.781  0.5260 -0.6118 -0.1026
  740MOL0     C99807   5.946   3.203   7.661 -0.3649 -0.5561 -0.7756
  740MOL0     C99808   5.899   3.356   7.683 -0.0409 -0.0583  0.1318
  740MOL0    Cl99809   5.736   3.366   7.738  0.4720 -0.4738  0.5633
  740MOL0     C99810   6.711   2.802   7.582 -0.5791 -0.5666 -0.1911
  740MOL0     C99811   6.828   2.830   7.511  1.0527  0.2216  0.4629
  740MOL0     O99812   7.117   3.021   7.247 -0.0534  0.0306  0.6524
  740MOL0     C99813   6.921   3.166   7.489 -0.1130 -0.2964 -0.8210
  740MOL0     C99814   6.910   3.293   7.546 -0.1841 -0.5011 -0.4244
  740MOL0     N99815   6.848   4.192   7.657  0.3317 -0.2507  0.3888
  740MOL0     N99816   6.754   4.243   7.728  0.4232  0.7177  1.3335
  740MOL0     C99817   5.868   4.950   7.972  0.8067  0.2257  0.2170
  740MOL0     C99818   5.780   5.012   8.062  0.3237  0.6630  0.2934
  740MOL0     C99819   5.361   5.098   8.283 -0.6456 -0.1638  0.2829
  740MOL0     C99820   5.215   5.087   8.276 -0.0286 -0.4919  0.7218
  740MOL0     C99821   5.131   5.162   8.352  0.0554 -0.0283 -0.4549
  740MOL0     C99822   5.185   5.234   8.457  0.0874 -0.4472 -0.9815
  740MOL0     O99823   5.112   5.297   8.552 -0.4850  0.1284 -0.4660
  740MOL0     C99824   4.978   5.333   8.518 -0.5507  0.2690 -0.4489
  740MOL0     C99825   4.980   5.449   8.420 -0.2459 -0.1746 -0.2421
  740MOL0     C99826   5.043   5.573   8.475  0.1940 -1.3608 -0.0623
  740MOL0     C99827   4.975   5.641   8.593  0.1771  0.3187 -0.0647
  740MOL0     C99828   4.833   5.637   8.587 -0.2557  0.0592  0.0775
  740MOL0     C99829   4.714   5.620   8.599  0.0757 -0.5500 -0.0832
  740MOL0     C99830   5.325   5.249   8.465 -0.8132  0.0996 -0.5055
  740MOL0     C99831   5.420   5.182   8.382 -0.1204  0.3702  0.2037
  740MOL0     C99832   5.569   5.213   8.409  0.5976  0.4523  0.0582
  740MOL0     H99833   5.521   4.804   8.006  0.5901 -0.6665 -0.2061
  740MOL0     H99834   5.664   4.695   7.870 -4.3805  0.2054  2.2205
  740MOL0     H99835   5.844   4.605   7.750  0.0022  1.1460  2.6101
  740MOL0     H99836   5.774   4.745   7.662 -0.8967  0.9823  1.3365
  740MOL0     H99837   5.964   4.764   7.528  2.2717  1.8517  1.2578
  740MOL0     H99838   5.928   4.600   7.532  0.5758 -0.5266 -0.3941
  740MOL0     H99839   6.095   4.525   7.687  0.9489 -0.0530 -1.4606
  740MOL0     H99840   6.144   4.697   7.720 -0.1901  2.0167 -0.6301
  740MOL0     H99841   6.154   4.542   7.451  1.9863  0.1378 -0.2427
  740MOL0     H99842   6.183   4.709   7.453  0.6744 -1.1110 -3.4968
  740MOL0     H99843   6.381   4.560   7.432 -0.7618  0.9769 -0.6444
  740MOL0     H99844   6.395   4.660   7.586 -2.6167  0.4709  2.1942
  740MOL0     H99845   6.343   4.491   7.723  0.1358  2.4242 -0.3036
  740MOL0     H99846   6.279   4.387   7.596 -2.2784  1.9081  1.3064
  740MOL0     H99847   6.578   4.452   7.629 -2.0831  1.2302  2.3454
  740MOL0     H99848   6.505   4.366   7.501  1.7926  0.7440  0.9334
  740MOL0     H99849   6.512   4.307   7.806  0.3454 -0.1821  0.0905
  740MOL0     H99850   6.423   4.213   7.689 -1.0284  2.8849  0.8028
  740MOL0     H99851   6.581   4.063   7.527 -1.5158 -0.7061  2.5099
  740MOL0     H99852   6.828   4.013   7.387  0.6471  1.3102 -0.4184
  740MOL0     H99853   6.953   4.019   7.501 -1.3928  2.0773  0.3205
  740MOL0     H99854   6.807   3.862   7.653 -2.5289 -1.2564  0.2890
  740MOL0     H99855   6.707   3.843   7.508  0.2923 -0.0021  1.4830
  740MOL0     H99856   6.984   3.747   7.501  0.3441 -5.1016 -2.2384
  740MOL0     H99857   6.864   3.736   7.366 -2.7241  1.5451 -0.9435
  740MOL0     H99858   6.757   3.566   7.464  0.1333 -1.9167  0.5636
  740MOL0     H99859   6.775   3.612   7.624 -1.5950 -0.2886 -1.5194
  740MOL0     H99860   6.991   3.475   7.280  0.7135 -1.4008 -2.5031
  740MOL0     H99861   7.021   3.237   7.182 -2.8087 -0.9902 -1.3910
  740MOL0     H99862   6.689   2.952   7.222 -0.7843 -0.3200  0.1998
  740MOL0     H99863   6.494   2.933   7.356  0.3577  0.4666  0.4605
  740MOL0     H99864   6.438   2.688   7.733  2.9600  0.0253 -1.3217
  740MOL0     H99865   6.557   2.814   7.771 -0.0323  2.5451 -1.6338
  740MOL0     H99866   6.361   2.864   7.898  1.7959  2.0916  1.5166
  740MOL0     H99867   6.428   2.994   7.806 -0.4602 -0.0621 -1.1709
  740MOL0     H99868   6.253   2.976   7.639  0.9063 -0.2034 -0.5184
  740MOL0     H99869   6.201   2.823   7.704  0.1145 -0.4710 -0.2586
  740MOL0     H99870   6.153   3.102   7.832 -0.0767  0.3888 -1.5494
  740MOL0     H99871   6.152   2.964   7.932  1.4558 -1.4866 -0.8425
  740MOL0     H99872   5.931   2.905   7.833  1.4948 -0.6039  0.7820
  740MOL0     H99873   5.994   2.949   7.673  2.2467  0.8114  0.0597
  740MOL0     H99874   5.800   3.091   7.774 -0.1057  2.5724 -1.9156
  740MOL0     H99875   5.933   3.159   7.876 -2.7427  3.6548 -1.0519
  740MOL0     H99876   5.904   3.157   7.570  0.8525  3.2882 -3.5483
  740MOL0     H99877   6.055   3.200   7.649 -0.4966  0.7974 -2.9178
  740MOL0     H99878   5.952   3.404   7.765 -0.4390  3.1856 -1.3795
  740MOL0     H99879   5.920   3.418   7.595 -2.4466 -0.2078 -0.6187
  740MOL0     H99880   6.711   2.745   7.675 -3.6882  0.6906  0.7126
  740MOL0     H99881   6.925   2.810   7.557  0.9669 -0.5005  0.3319
  740MOL0     H99882   6.901   3.077   7.548 -0.1289 -0.1452 -0.5977
  740MOL0     H99883   6.882   3.299   7.650  1.4091 -2.6483  0.1989
  740MOL0     H99884   5.960   5.006   7.960 -0.2139  1.7444 -0.9429
  740MOL0     H99885   5.813   5.103   8.110 -1.3810  0.8495  1.2011
  740MOL0     H99886   5.163   5.027   8.202 -1.4833  2.5775 -0.9344
  740MOL0     H99887   5.024   5.151   8.339 -0.3478  0.8798  1.5800
  740MOL0     H99888   4.926   5.375   8.605  1.0837  0.1362  0.6333
  740MOL0     H99889   4.933   5.240   8.483  1.3130 -0.5201 -0.8400
  740MOL0     H99890   4.885   5.473   8.371 -0.1672  2.9705  0.8843
  740MOL0     H99891   5.044   5.426   8.334 -2.7201 -0.8648 -2.0039
  740MOL0     H99892   5.040   5.651   8.398 -0.7451  2.3648  3.4723
  740MOL0     H99893   5.145   5.544   8.503  1.1334  1.4259 -0.3406
  740MOL0     H99894   5.016   5.589   8.680  0.0087 -0.1896 -0.2869
  740MOL0     H99895   5.012   5.744   8.594  1.4945 -0.0490 -2.6297
  740MOL0     H99896   4.612   5.590   8.610 -0.1542 -0.2598 -1.3170
  740MOL0     H99897   5.376   5.311   8.538  0.6317  1.2013 -2.3455
  740MOL0     H99898   5.646   5.135   8.408  2.1127  1.8770  0.7278
  740MOL0     H99899   5.596   5.291   8.338  0.5394 -1.0261 -1.6591
  740MOL0     H99900   5.574   5.258   8.508 -0.1314  0.2364  0.1991
  741MOL0     O99901   2.063   2.011   4.584 -0.6959  0.5806 -0.2766
  741MOL0     C99902   2.029   2.116   4.536 -0.7145 -1.4306  0.4559
  741MOL0     O99903   2.107   2.202   4.456  0.1375 -0.3025  0.1884
  741MOL0     C99904   2.241   2.165   4.453  0.6351 -0.4602  0.7559
  741MOL0     C99905   2.283   2.087   4.350 -0.7766 -0.1146  0.4469
  741MOL0     C99906   2.415   2.057   4.323 -0.8475 -0.8722 -0.3898
  741MOL0     C99907   2.514   2.121   4.412  0.1902 -0.1802  0.4973
  741MOL0     O99908   2.644   2.119   4.376  0.5501 -0.9409 -0.2775
  741MOL0     C99909   2.741   2.212   4.438  0.8094  0.1389 -1.0797
  741MOL0     C99910   2.882   2.169   4.388 -0.1532 -0.4055 -0.5494
  741MOL0     C99911   2.968   2.302   4.376 -0.1331  0.3358  0.4736
  741MOL0     C99912   3.112   2.251   4.351 -0.4335 -0.2593  0.1647
  741MOL0     C99913   3.210   2.358   4.295 -0.2918 -0.0556  0.0485
  741MOL0     C99914   3.203   2.504   4.355 -0.1018  0.5378 -0.2588
  741MOL0     C99915   3.320   2.589   4.302  0.5460 -0.1204 -0.7745
  741MOL0     C99916   3.315   2.739   4.338  0.8316 -0.4958  0.1945
  741MOL0     N99917   3.360   2.788   4.470  0.4460  0.2780 -0.2448
  741MOL0     C99918   3.482   2.820   4.488 -1.2522 -0.0753  1.0714
  741MOL0     C99919   3.483   2.889   4.601  0.7367  0.4933 -0.2100
  741MOL0     C99920   3.607   2.937   4.676 -0.1291 -0.2240 -0.1236
  741MOL0     C99921   3.644   2.860   4.801 -0.1451  0.0676  0.9745
  741MOL0     C99922   3.765   2.925   4.855  0.5031  0.9463  0.1004
  741MOL0     C99923   3.831   2.832   4.956 -0.3347 -0.6866 -0.5652
  741MOL0     O99924   3.750   2.775   5.058 -0.0663  0.1513  0.5414
  741MOL0     C99925   3.820   2.670   5.122 -0.3072 -0.0204  0.1760
  741MOL0     C99926   3.746   2.572   5.177 -0.6100 -0.3806 -0.4401
  741MOL0     C99927   3.794   2.474   5.263 -0.9284  0.2853  1.1863
  741MOL0     C99928   3.939   2.473   5.284 -0.0777  0.4344  0.0052
  741MOL0     C99929   4.000   2.364   5.361  1.4795  0.5005  0.3269
  741MOL0     O99930   3.902   2.272   5.409  0.1155  0.1842  0.0086
  741MOL0     C99931   3.945   2.154   5.460 -0.9674  1.1044 -0.4578
  741MOL0     C99932   3.975   2.042   5.377  0.6071  0.3320 -0.1992
  741MOL0     C99933   4.042   1.924   5.425  0.6929  0.7450  0.5099
  741MOL0     C99934   4.077   1.911   5.565  1.0610  0.4270  0.1964
  741MOL0     O99935   4.120   1.790   5.616 -0.2683  0.4178  0.2427
  741MOL0     C99936   4.123   1.778   5.752 -0.0772  0.8736  0.0020
  741MOL0     C99937   4.165   1.635   5.789 -1.3209 -0.1027  0.4107
  741MOL0     C99938   4.276   1.578   5.692  0.7247 -0.9070 -0.0972
  741MOL0     C99939   4.317   1.432   5.735  0.5415 -0.0652 -0.4990
  741MOL0     C99940   4.390   1.363   5.622 -1.1573  0.1836  0.4819
  741MOL0     C99941   4.461   1.231   5.664 -0.3669  1.4978 -0.1303
  741MOL0     C99942   4.358   1.120   5.701 -0.1402  0.1522  1.2522
  741MOL0     C99943   4.412   0.979   5.695 -0.5911  0.8759  0.3783
  741MOL0    Cl99944   4.564   0.979   5.797  0.2324  0.4335 -0.1683
  741MOL0     C99945   4.043   2.027   5.641  0.7249  0.1891  0.1231
  741MOL0     C99946   3.971   2.139   5.600 -0.2435 -0.2374  0.7217
  741MOL0     O99947   4.122   2.355   5.375 -0.1683  1.2791 -0.6375
  741MOL0     C99948   4.014   2.570   5.225 -0.0619  0.0313 -0.3825
  741MOL0     C99949   3.960   2.658   5.138  0.2974  0.1966 -0.4539
  741MOL0     N99950   3.352   2.881   4.654  0.2353 -0.2140 -0.3289
  741MOL0     N99951   3.279   2.824   4.569 -0.1878  0.3084 -0.8190
  741MOL0     C99952   2.467   2.200   4.509 -0.1807  0.0065  0.8431
  741MOL0     C99953   2.334   2.222   4.525  0.2791  0.2908 -0.4047
  741MOL0     C99954   1.891   2.168   4.552  0.4327  0.5047 -0.0987
  741MOL0     C99955   1.865   2.305   4.525 -0.1504  0.0141  0.8011
  741MOL0     C99956   1.738   2.357   4.547 -0.0225 -0.6147  1.3556
  741MOL0     C99957   1.636   2.279   4.581  1.1199 -0.0958  0.0654
  741MOL0     O99958   1.507   2.330   4.590  0.6371 -0.3327 -0.6942
  741MOL0     C99959   1.486   2.472   4.583  0.3337 -0.5531 -0.4793
  741MOL0     C99960   1.330   2.494   4.586  0.8150  0.6210  0.2810
  741MOL0     C99961   1.264   2.436   4.710  0.2257 -0.2108 -0.8283
  741MOL0     C99962   1.109   2.442   4.686  0.0833 -0.6317 -0.6356
  741MOL0     C99963   1.060   2.371   4.569 -0.1829 -0.4228 -0.0742
  741MOL0     C99964   1.020   2.307   4.475 -0.0691 -0.1253 -0.6268
  741MOL0     C99965   1.644   2.147   4.593  0.4537  0.0019 -0.2400
  741MOL0     C99966   1.779   2.091   4.592  1.0807  0.0084  0.0583
  741MOL0     C99967   1.782   1.953   4.630  0.0532  0.0455  0.2410
  741MOL0     H99968   2.211   2.041   4.283  0.3107 -2.3148  0.7113
  741MOL0     H99969   2.442   1.982   4.249 -2.3588 -1.9253  0.0799
  741MOL0     H99970   2.714   2.316   4.417  1.2811  1.0409  2.2599
  741MOL0     H99971   2.739   2.212   4.547  0.7133  0.8235 -1.0748
  741MOL0     H99972   2.888   2.111   4.295 -2.3095 -1.3640 -0.1505
  741MOL0     H99973   2.929   2.109   4.466  0.5460 -0.4633 -1.0056
  741MOL0     H99974   2.972   2.366   4.464 -0.6182  4.3976 -2.2009
  741MOL0     H99975   2.930   2.364   4.294  2.6157  3.3107  1.2698
  741MOL0     H99976   3.139   2.216   4.451 -0.6910 -4.0342 -0.9289
  741MOL0     H99977   3.120   2.170   4.279  1.4697 -1.6358  1.8165
  741MOL0     H99978   3.309   2.324   4.324 -0.6776 -1.3938 -0.1014
  741MOL0     H99979   3.193   2.355   4.186  2.7758 -1.4313 -0.4835
  741MOL0     H99980   3.106   2.552   4.338 -0.0618  0.1672 -1.6136
  741MOL0     H99981   3.208   2.517   4.464 -0.2153  2.0441 -0.4170
  741MOL0     H99982   3.317   2.585   4.192 -1.6645 -2.1046 -0.7173
  741MOL0     H99983   3.416   2.538   4.313  0.6736 -0.3706 -2.6528
  741MOL0     H99984   3.353   2.799   4.254  0.6446  2.7801  2.2668
  741MOL0     H99985   3.209   2.766   4.328  1.2892  0.9731 -1.1391
  741MOL0     H99986   3.571   2.815   4.426 -1.6866  1.4956  0.2659
  741MOL0     H99987   3.687   2.932   4.602 -1.6826  0.8877 -1.9704
  741MOL0     H99988   3.578   3.038   4.706 -0.9383  0.1188 -1.9256
  741MOL0     H99989   3.562   2.843   4.872  1.4055 -4.3918  2.0355
  741MOL0     H99990   3.661   2.755   4.778 -1.6676 -0.2116  1.0257
  741MOL0     H99991   3.748   3.023   4.901  0.8888  1.5605 -1.0236
  741MOL0     H99992   3.833   2.928   4.769  0.9558 -0.8370  0.3666
  741MOL0     H99993   3.901   2.891   5.017 -0.4676 -0.2431 -0.8348
  741MOL0     H99994   3.889   2.755   4.904  0.5258 -0.5509  0.1533
  741MOL0     H99995   3.639   2.563   5.162 -0.7986 -3.1393  1.7339
  741MOL0     H99996   3.722   2.411   5.313 -1.4376  0.5393  0.7844
  741MOL0     H99997   3.932   2.047   5.277 -0.3262  1.4012  0.2371
  741MOL0     H99998   4.068   1.854   5.347  2.0510  0.5907  1.0663
  741MOL0     H99999   4.196   1.851   5.788  0.8803 -0.2273  0.3574
  741MOL0     H    0   4.026   1.794   5.801  0.2249 -2.8075  2.1944
  741MOL0     H    1   4.203   1.636   5.891 -0.9639  2.7229  0.3231
  741MOL0     H    2   4.075   1.573   5.784 -1.2707 -0.1235 -0.4588
  741MOL0     H    3   4.227   1.577   5.593 -1.3777  1.2369  0.8225
  741MOL0     H    4   4.365   1.640   5.685  1.4305 -1.5525  2.4333
  741MOL0     H    5   4.231   1.369   5.759  0.2720  0.2837 -0.5478
  741MOL0     H    6   4.382   1.425   5.823  1.2683 -1.7912 -1.1178
  741MOL0     H    7   4.468   1.437   5.603  1.5932 -1.3208  4.4975
  741MOL0     H    8   4.328   1.360   5.532  0.1851  2.3748 -0.6082
  741MOL0     H    9   4.524   1.207   5.577  0.4496 -0.4322  0.9352
  741MOL0     H   10   4.523   1.251   5.751 -0.8500 -0.7128  0.7831
  741MOL0     H   11   4.271   1.122   5.634  0.4043  0.4096  0.5362
  741MOL0     H   12   4.333   1.122   5.807  1.3966 -2.3138  1.7303
  741MOL0     H   13   4.345   0.910   5.748  0.0139 -2.3361 -2.6334
  741MOL0     H   14   4.438   0.948   5.594  0.5454 -1.6665  1.3644
  741MOL0     H   15   4.080   2.033   5.743  3.8953  1.0875 -0.9726
  741MOL0     H   16   3.940   2.216   5.670 -0.5552 -1.8377  2.4253
  741MOL0     H   17   4.120   2.574   5.248 -0.6993  1.0885  2.9590
  741MOL0     H   18   4.034   2.726   5.096  2.5615 -2.2179 -0.5795
  741MOL0     H   19   2.531   2.252   4.581  3.0056  1.6509 -2.7999
  741MOL0     H   20   2.300   2.299   4.594 -0.2270  0.5892 -0.9827
  741MOL0     H   21   1.951   2.370   4.512  2.7851 -3.1019  2.9104
  741MOL0     H   22   1.733   2.465   4.531 -1.9669 -1.0472 -1.8228
  741MOL0     H   23   1.531   2.516   4.493  0.9455 -1.1138 -0.4585
  741MOL0     H   24   1.535   2.517   4.670 -0.0606  0.0570 -0.5661
  741MOL0     H   25   1.306   2.445   4.492  1.3983 -0.4816  0.6864
  741MOL0     H   26   1.305   2.600   4.574 -0.2529  0.3230 -0.2465
  741MOL0     H   27   1.292   2.507   4.788  2.9423  1.6616 -3.3079
  741MOL0     H   28   1.303   2.334   4.725  2.5782  0.7893  0.3151
  741MOL0     H   29   1.061   2.402   4.776  0.0785  1.3986  0.3329
  741MOL0     H   30   1.081   2.547   4.677  0.7750 -0.2308  1.3591
  741MOL0     H   31   0.981   2.246   4.397  1.5407 -1.9207 -0.0993
  741MOL0     H   32   1.564   2.081   4.625 -0.7864  1.2535 -0.6634
  741MOL0     H   33   1.823   1.933   4.729  4.0110  2.8115 -0.5883
  741MOL0     H   34   1.686   1.901   4.619  0.7298 -0.7656 -2.8688
  741MOL0     H   35   1.847   1.900   4.559  0.3837 -0.0818  0.6359
  742MOL0     O   36   6.562   6.818   7.925  0.8892 -0.0327 -0.2305
  742MOL0     C   37   6.571   6.891   8.021  0.5827  0.3271 -0.4968
  742MOL0     O   38   6.646   7.004   8.016 -0.1446 -0.2591 -0.1363
  742MOL0     C   39   6.714   7.042   7.903  0.0958 -0.6345 -0.1613
  742MOL0     C   40   6.645   7.068   7.782  0.3144  0.1443  0.4376
  742MOL0     C   41   6.709   7.118   7.673  0.4108 -1.1002  0.0704
  742MOL0     C   42   6.852   7.144   7.687 -0.2601  0.2557 -0.3877
  742MOL0     O   43   6.933   7.194   7.585  0.3970 -0.1997 -0.9112
  742MOL0     C   44   6.886   7.207   7.451  0.6494 -0.2375 -0.3955
  742MOL0     C   45   7.009   7.245   7.357  0.5390  0.3099 -0.1869
  742MOL0     C   46   7.042   7.395   7.346  0.8399 -0.5499  0.6729
  742MOL0     C   47   7.178   7.416   7.282  0.2255 -0.6308 -0.1456
  742MOL0     C   48   7.212   7.569   7.295 -0.6443 -0.5502 -0.0069
  742MOL0     C   49   7.355   7.608   7.232  0.6776 -0.4033  0.0778
  742MOL0     C   50   7.393   7.753   7.261  0.2084 -0.5317  0.2098
  742MOL0     C   51   7.528   7.786   7.194  0.3060  0.5788  0.4240
  742MOL0     N   52   7.597   7.899   7.265 -0.4420 -0.2770 -0.2181
  742MOL0     C   53   7.632   7.917   7.397 -0.3155 -0.3111 -0.1653
  742MOL0     C   54   7.719   8.016   7.407 -0.4577 -0.4230 -0.2252
  742MOL0     C   55   7.763   8.075   7.536 -0.2392  0.7005  0.0900
  742MOL0     C   56   7.673   8.183   7.598 -0.0634  0.9420 -0.2199
  742MOL0     C   57   7.703   8.211   7.751 -1.2626 -0.0439 -1.0330
  742MOL0     C   58   7.852   8.240   7.787 -0.0071 -0.6303  0.1107
  742MOL0     O   59   7.871   8.258   7.926 -0.0708 -0.1387  0.0485
  742MOL0     C   60   7.998   8.264   7.972 -0.3194 -0.9054 -0.3612
  742MOL0     C   61   8.004   8.253   8.113 -0.7430  0.1447  0.0710
  742MOL0     C   62   8.127   8.245   8.171  0.1989  0.7510 -0.5525
  742MOL0     C   63   8.249   8.242   8.102 -0.3305  0.0681  0.2245
  742MOL0     C   64   8.383   8.232   8.173  0.2741 -0.0655 -0.8670
  742MOL0     O   65   8.381   8.220   8.305  0.0176 -0.0417 -0.2788
  742MOL0     C   66   8.494   8.205   8.371  0.3115 -0.3070 -0.4683
  742MOL0     C   67   8.555   8.308   8.444  1.2051 -0.2668 -0.2364
  742MOL0     C   68   8.669   8.275   8.514 -0.7713  0.3035 -0.6481
  742MOL0     C   69   8.737   8.160   8.506  0.0583  0.3150  0.9175
  742MOL0     O   70   8.859   8.152   8.567  0.3605  0.0382  0.4571
  742MOL0     C   71   8.963   8.070   8.503 -0.2585 -0.6866  0.0687
  742MOL0     C   72   9.101   8.134   8.541 -1.0870  0.1951  0.0514
  742MOL0     C   73   9.158   8.220   8.428  0.1547 -0.4286 -0.3080
  742MOL0     C   74   9.306   8.262   8.465  0.2008 -0.2891 -0.1850
  742MOL0     C   75   9.405   8.225   8.362  0.1691  0.4651  0.1768
  742MOL0     C   76   9.544   8.266   8.404  0.2587 -0.0628 -0.8064
  742MOL0     C   77   9.634   8.268   8.286  0.3503  0.6305 -0.5183
  742MOL0     C   78   9.629   8.404   8.217 -0.4717 -0.4835  0.2768
  742MOL0    Cl   79   9.787   8.433   8.142 -0.1162  0.0887  0.2027
  742MOL0     C   80   8.678   8.055   8.431 -0.2618 -0.6471  0.2085
  742MOL0     C   81   8.556   8.079   8.370 -0.6549  0.6816  0.4695
  742MOL0     O   82   8.480   8.248   8.109  0.1058  0.6973  0.2804
  742MOL0     C   83   8.234   8.258   7.966 -0.4785  0.0829 -0.5685
  742MOL0     C   84   8.110   8.268   7.898 -0.0249 -0.3601  0.2484
  742MOL0     N   85   7.743   8.067   7.281 -0.4609  0.1438  1.0070
  742MOL0     N   86   7.678   7.991   7.195 -0.1915 -0.2295  0.3879
  742MOL0     C   87   6.921   7.113   7.808 -0.2724  0.1234  0.0666
  742MOL0     C   88   6.855   7.059   7.909  0.2109 -0.5690  0.5695
  742MOL0     C   89   6.478   6.871   8.142 -0.9501  0.7255  0.0868
  742MOL0     C   90   6.431   6.737   8.160 -0.3143 -0.9818  0.1309
  742MOL0     C   91   6.366   6.710   8.275 -0.5296  0.0847 -0.0191
  742MOL0     C   92   6.330   6.811   8.368 -0.5226 -0.2141  0.0771
  742MOL0     O   93   6.258   6.770   8.480  0.2913 -0.2034  0.9262
  742MOL0     C   94   6.324   6.768   8.601 -0.0045 -0.0764 -0.8933
  742MOL0     C   95   6.250   6.694   8.711 -0.6881  0.9977  0.2321
  742MOL0     C   96   6.172   6.800   8.783  0.5877  0.7342  0.2003
  742MOL0     C   97   6.041   6.731   8.825  0.6430  1.1717  0.2718
  742MOL0     C   98   5.959   6.829   8.892 -0.4648 -0.8967 -1.1018
  742MOL0     C   99   5.878   6.895   8.955  0.4051  0.0086 -0.4423
  742MOL0     C  100   6.357   6.946   8.341  0.0384  0.5050 -0.3441
  742MOL0     C  101   6.432   6.976   8.232 -0.4591  0.3162  0.5877
  742MOL0     C  102   6.445   7.116   8.204 -0.2120 -0.3474  0.1933
  742MOL0     H  103   6.537   7.052   7.779  0.3819 -0.0873 -1.5990
  742MOL0     H  104   6.657   7.138   7.580  0.4995 -3.0824 -0.4485
  742MOL0     H  105   6.843   7.108   7.431  0.2837 -0.9030  3.0858
  742MOL0     H  106   6.809   7.285   7.457  0.4981 -0.4998  1.5972
  742MOL0     H  107   6.995   7.201   7.258  0.0213  0.2589 -0.0911
  742MOL0     H  108   7.095   7.189   7.396 -1.0649  0.2105  3.6366
  742MOL0     H  109   7.043   7.435   7.448  2.6145  3.5474 -0.7394
  742MOL0     H  110   6.963   7.447   7.291 -0.6484 -0.5647  2.6617
  742MOL0     H  111   7.249   7.353   7.336  1.5623 -0.5758 -1.7491
  742MOL0     H  112   7.186   7.378   7.180 -0.0094 -3.6187  0.8565
  742MOL0     H  113   7.144   7.614   7.222  0.6751 -0.8128 -1.4749
  742MOL0     H  114   7.199   7.610   7.395  1.6892  0.6223 -0.1103
  742MOL0     H  115   7.424   7.538   7.280 -1.4561 -1.0430  2.4625
  742MOL0     H  116   7.363   7.570   7.130  1.4570 -4.9447  1.6122
  742MOL0     H  117   7.408   7.758   7.369  1.5304 -0.4125  0.0347
  742MOL0     H  118   7.323   7.830   7.229 -0.1052 -2.4108 -4.3885
  742MOL0     H  119   7.584   7.695   7.171 -0.5943  0.1751 -0.2160
  742MOL0     H  120   7.514   7.815   7.089  1.7854 -3.4211 -1.0718
  742MOL0     H  121   7.590   7.851   7.473 -2.7718  1.0328 -0.2465
  742MOL0     H  122   7.784   7.997   7.610  1.1948  2.3741  1.5502
  742MOL0     H  123   7.859   8.117   7.505  0.4304 -0.4026  0.5968
  742MOL0     H  124   7.686   8.279   7.548  0.6369  0.3243 -1.2376
  742MOL0     H  125   7.566   8.168   7.583  0.1891 -1.3174 -0.0310
  742MOL0     H  126   7.676   8.123   7.810  1.8584 -0.9135 -0.7405
  742MOL0     H  127   7.649   8.302   7.779  2.7489  2.7062 -1.3886
  742MOL0     H  128   7.877   8.325   7.722 -0.2971 -0.8646 -0.3083
  742MOL0     H  129   7.911   8.152   7.762  1.7036  0.5670 -0.1797
  742MOL0     H  130   7.912   8.259   8.170 -0.0383  0.6236  1.1900
  742MOL0     H  131   8.124   8.261   8.278  2.0789  1.4420 -0.5613
  742MOL0     H  132   8.495   8.399   8.449  0.9097 -0.5062  2.0025
  742MOL0     H  133   8.700   8.356   8.580 -0.8241 -0.4467  0.3208
  742MOL0     H  134   8.956   7.967   8.542 -3.9941 -0.2297  0.9726
  742MOL0     H  135   8.954   8.069   8.394 -0.3846  0.5500  0.0627
  742MOL0     H  136   9.089   8.196   8.631  2.3261 -3.0520  3.1217
  742MOL0     H  137   9.174   8.059   8.575  1.4401  2.2861 -0.3897
  742MOL0     H  138   9.157   8.173   8.330 -3.2802 -0.6158 -0.2854
  742MOL0     H  139   9.097   8.311   8.431 -0.3705 -0.7914  0.4576
  742MOL0     H  140   9.336   8.227   8.564 -0.4393 -3.3450 -0.9511
  742MOL0     H  141   9.299   8.371   8.458 -1.9415 -0.3624  0.1215
  742MOL0     H  142   9.373   8.267   8.267  0.2449 -0.7509 -0.4017
  742MOL0     H  143   9.404   8.115   8.360  0.2995  0.3963  1.8870
  742MOL0     H  144   9.542   8.359   8.462  1.1155  0.7151 -1.9844
  742MOL0     H  145   9.585   8.190   8.472  0.4561 -0.6388 -1.5654
  742MOL0     H  146   9.602   8.189   8.218 -0.2848 -2.3610  2.9531
  742MOL0     H  147   9.733   8.243   8.326 -1.7414 -2.3045  3.5417
  742MOL0     H  148   9.545   8.418   8.149  0.4737  2.2538 -0.4700
  742MOL0     H  149   9.612   8.476   8.299  2.0873 -3.1333  3.4325
  742MOL0     H  150   8.718   7.954   8.428 -1.7603 -1.3778  2.2126
  742MOL0     H  151   8.500   8.001   8.321 -0.6894 -0.2541  1.9266
  742MOL0     H  152   8.321   8.252   7.901 -1.4637 -1.7733 -1.7916
  742MOL0     H  153   8.102   8.283   7.790  0.4246  1.4014  0.4240
  742MOL0     H  154   7.029   7.130   7.811 -0.4305  1.0489  1.9984
  742MOL0     H  155   6.896   7.032   8.006 -0.7280 -4.0198  0.1231
  742MOL0     H  156   6.457   6.659   8.088  0.7591  0.4041 -1.0291
  742MOL0     H  157   6.337   6.606   8.286  0.9302 -0.4957 -1.3732
  742MOL0     H  158   6.336   6.872   8.632 -0.0451  0.0874 -1.4253
  742MOL0     H  159   6.423   6.723   8.592  0.4315  0.2342  1.4682
  742MOL0     H  160   6.318   6.633   8.772 -0.1451 -2.3961 -3.3595
  742MOL0     H  161   6.185   6.612   8.677  0.3396 -0.4195  1.5120
  742MOL0     H  162   6.147   6.886   8.721  0.3091 -0.4813 -1.4526
  742MOL0     H  163   6.219   6.821   8.880  3.3665 -0.3605 -0.7952
  742MOL0     H  164   5.988   6.672   8.749  3.2546 -0.0816 -0.7113
  742MOL0     H  165   6.063   6.649   8.895  0.4436 -1.9838 -3.0546
  742MOL0     H  166   5.814   6.972   8.994  0.1298 -0.7621  0.6563
  742MOL0     H  167   6.328   7.010   8.424  2.0512 -2.5576  2.9658
  742MOL0     H  168   6.418   7.142   8.101  0.1263 -0.5313  0.0569
  742MOL0     H  169   6.379   7.174   8.269  0.5026 -2.1264  2.6264
  742MOL0     H  170   6.551   7.134   8.223 -0.6208  0.1478  2.2013
  743MOL0     O  171   4.671   4.189   1.671 -0.0464  0.0515  0.2573
  743MOL0     C  172   4.620   4.088   1.720 -0.3386 -0.8177  0.7893
  743MOL0     O  173   4.686   3.984   1.757 -0.6388  0.2411 -0.9091
  743MOL0     C  174   4.827   3.971   1.744  0.2952  0.3685 -0.0311
  743MOL0     C  175   4.874   3.924   1.614 -0.1321 -0.0725 -0.1023
  743MOL0     C  176   5.011   3.910   1.597  0.9406  0.3380  1.0630
  743MOL0     C  177   5.093   3.917   1.712  0.1273  0.3131 -0.3806
  743MOL0     O  178   5.228   3.881   1.729 -0.2194 -0.5490 -0.2432
  743MOL0     C  179   5.313   3.863   1.610  1.1319  0.6578  0.0967
  743MOL0     C  180   5.329   3.987   1.522 -1.2209 -0.0724 -0.3337
  743MOL0     C  181   5.456   3.976   1.435 -0.3138 -0.1037  0.2025
  743MOL0     C  182   5.445   4.052   1.308 -0.5794  0.8684 -0.8478
  743MOL0     C  183   5.439   4.203   1.343 -0.7262 -0.1964  0.3159
  743MOL0     C  184   5.444   4.276   1.210 -0.1213  0.5348 -0.2194
  743MOL0     C  185   5.427   4.429   1.225  0.2303  0.3255  0.5564
  743MOL0     C  186   5.475   4.503   1.100 -0.2528 -0.3702  0.0238
  743MOL0     N  187   5.480   4.645   1.126 -0.2045 -0.0842  0.4437
  743MOL0     C  188   5.541   4.722   1.030 -0.3235 -0.5811 -0.0173
  743MOL0     C  189   5.476   4.842   1.040  0.3322  1.1968  0.3886
  743MOL0     C  190   5.513   4.952   0.940 -0.1431  0.3177 -1.1423
  743MOL0     C  191   5.415   4.982   0.827  0.4172  0.6882  0.3105
  743MOL0     C  192   5.278   5.045   0.881 -0.1582  0.2214  0.5354
  743MOL0     C  193   5.183   5.104   0.765 -0.2218  0.3893 -0.3425
  743MOL0     O  194   5.245   5.196   0.663 -1.2262 -0.0976  1.2786
  743MOL0     C  195   5.312   5.303   0.714  0.7289  0.3821  0.3940
  743MOL0     C  196   5.448   5.330   0.681 -0.3464 -0.0142  0.5287
  743MOL0     C  197   5.507   5.439   0.736  1.5525 -0.6646  0.6389
  743MOL0     C  198   5.447   5.531   0.831  0.8857  0.2004 -0.3088
  743MOL0     C  199   5.500   5.676   0.856  0.0622  0.7739 -0.8863
  743MOL0     O  200   5.637   5.693   0.812  0.2911 -0.3305  0.0393
  743MOL0     C  201   5.710   5.796   0.851 -0.2610 -0.8696 -0.1541
  743MOL0     C  202   5.750   5.829   0.981 -0.3916  0.4446 -0.4231
  743MOL0     C  203   5.816   5.950   1.015 -0.4797  1.1019  0.3827
  743MOL0     C  204   5.872   6.034   0.920  0.3011 -0.0068  0.0913
  743MOL0     O  205   5.935   6.154   0.971  0.1212 -0.4939  0.1103
  743MOL0     C  206   5.938   6.258   0.870  0.4730 -0.4447  0.1091
  743MOL0     C  207   5.944   6.388   0.951 -0.2108 -0.1404  0.3634
  743MOL0     C  208   5.916   6.513   0.867 -0.2460  0.0644  1.0929
  743MOL0     C  209   6.008   6.534   0.741  0.4332  0.4120  0.0894
  743MOL0     C  210   5.980   6.662   0.669  0.4345  0.7758  0.7332
  743MOL0     C  211   6.035   6.792   0.726 -0.5542  1.1266 -0.0081
  743MOL0     C  212   5.926   6.898   0.736 -0.5292 -0.6301  0.5966
  743MOL0     C  213   5.981   7.045   0.750  0.0561 -0.4243  0.5157
  743MOL0    Cl  214   6.044   7.054   0.913  0.3717  0.0235  0.0334
  743MOL0     C  215   5.837   6.001   0.787  0.1019  0.4684 -0.0859
  743MOL0     C  216   5.754   5.890   0.757  0.2655  0.5224  0.4729
  743MOL0     O  217   5.439   5.753   0.930  0.2432  1.0780  0.1248
  743MOL0     C  218   5.311   5.500   0.869  0.6937 -0.1008 -0.2595
  743MOL0     C  219   5.236   5.392   0.805 -0.1329 -0.0272  0.7775
  743MOL0     N  220   5.378   4.839   1.140  0.0683  0.3363 -0.5335
  743MOL0     N  221   5.383   4.718   1.194  0.2118 -0.1355  0.3009
  743MOL0     C  222   5.047   3.972   1.837  1.0165 -0.7050  1.0425
  743MOL0     C  223   4.912   4.003   1.849 -0.4929  0.4053  0.5322
  743MOL0     C  224   4.474   4.094   1.727  0.7920 -0.0117  0.0683
  743MOL0     C  225   4.410   4.177   1.642  0.0252 -0.2760  0.3385
  743MOL0     C  226   4.272   4.173   1.623 -0.3265 -1.0570 -0.1132
  743MOL0     C  227   4.189   4.102   1.713 -0.1850  0.8876  0.1039
  743MOL0     O  228   4.060   4.113   1.686  0.0845 -0.2408  0.0833
  743MOL0     C  229   3.959   4.037   1.767 -0.6278  0.1407 -0.0964
  743MOL0     C  230   3.906   4.109   1.883  0.2616 -0.6923  0.7973
  743MOL0     C  231   3.825   4.233   1.851  0.1039  0.6624 -0.2035
  743MOL0     C  232   3.747   4.280   1.970 -0.7445 -0.0155  0.4641
  743MOL0     C  233   3.634   4.190   2.000 -0.0361 -0.1662  0.6209
  743MOL0     C  234   3.546   4.113   2.028 -0.5480  0.8469  0.6753
  743MOL0     C  235   4.259   4.019   1.805 -0.0713  0.0114 -0.3850
  743MOL0     C  236   4.398   4.010   1.815 -1.7454  0.9375 -0.5883
  743MOL0     C  237   4.455   3.923   1.929 -0.0059 -0.1220 -0.2177
  743MOL0     H  238   4.807   3.909   1.530  0.4937  0.6835 -0.7333
  743MOL0     H  239   5.043   3.874   1.500 -1.2308  3.2824 -0.9205
  743MOL0     H  240   5.410   3.824   1.645  0.3402 -4.5692 -2.5515
  743MOL0     H  241   5.275   3.781   1.549 -2.1932  0.0546  2.6778
  743MOL0     H  242   5.341   4.076   1.585 -0.5570 -1.8202  2.1675
  743MOL0     H  243   5.245   4.008   1.455  1.1446  1.7133 -2.9906
  743MOL0     H  244   5.469   3.872   1.404  1.4232  0.0429  0.3739
  743MOL0     H  245   5.540   4.015   1.493  0.3008 -1.7713  0.5000
  743MOL0     H  246   5.529   4.025   1.243  0.3792  3.2067 -0.6506
  743MOL0     H  247   5.346   4.013   1.282 -0.6796  0.4877  0.0488
  743MOL0     H  248   5.350   4.235   1.398 -2.7846 -2.1933 -1.6634
  743MOL0     H  249   5.531   4.237   1.392  0.2714  0.4379 -1.8987
  743MOL0     H  250   5.534   4.247   1.155 -0.7804  0.5726 -1.3629
  743MOL0     H  251   5.370   4.241   1.136  0.2729 -0.6253 -0.0938
  743MOL0     H  252   5.490   4.471   1.305  3.4690  0.8250 -2.0510
  743MOL0     H  253   5.323   4.462   1.236  0.3340  0.9385 -0.2133
  743MOL0     H  254   5.573   4.471   1.064  0.6832  1.3543  0.9219
  743MOL0     H  255   5.409   4.494   1.013  1.3453  2.2417 -1.5778
  743MOL0     H  256   5.613   4.689   0.957 -2.4127 -4.2964 -0.6404
  743MOL0     H  257   5.517   5.046   0.995  1.2717 -1.3242  1.7956
  743MOL0     H  258   5.606   4.938   0.885 -0.1579 -0.3565 -1.0021
  743MOL0     H  259   5.471   5.056   0.768  1.8380  0.6699  1.5891
  743MOL0     H  260   5.392   4.895   0.764 -3.4744  1.1330  0.8343
  743MOL0     H  261   5.310   5.130   0.941  3.3466  0.5087 -1.4717
  743MOL0     H  262   5.224   4.970   0.939  1.9862 -1.8627 -0.0007
  743MOL0     H  263   5.104   5.165   0.810  1.3438  1.8221  0.5470
  743MOL0     H  264   5.138   5.023   0.707  1.9858  0.6760 -2.6380
  743MOL0     H  265   5.514   5.276   0.614 -0.8954 -0.0607  0.0144
  743MOL0     H  266   5.606   5.456   0.695  0.8170 -2.4977 -2.1594
  743MOL0     H  267   5.719   5.760   1.059  0.7468 -0.2901 -0.6025
  743MOL0     H  268   5.816   6.001   1.111  1.0563  1.3417  0.2801
  743MOL0     H  269   6.022   6.233   0.805  0.7044  1.6068 -0.4318
  743MOL0     H  270   5.849   6.259   0.807  0.1097 -0.1874  0.6164
  743MOL0     H  271   5.877   6.384   1.037 -0.3215  1.7445  0.4173
  743MOL0     H  272   6.047   6.397   0.986  1.3403 -1.7998 -3.2377
  743MOL0     H  273   5.812   6.502   0.834  0.0602 -1.5605  0.5756
  743MOL0     H  274   5.937   6.602   0.926  0.7153 -0.6286  1.8182
  743MOL0     H  275   5.993   6.447   0.676 -0.4653  0.7240 -0.1332
  743MOL0     H  276   6.115   6.545   0.763  1.1008  0.3487 -2.6810
  743MOL0     H  277   5.871   6.663   0.658  0.3408 -0.0752  1.4355
  743MOL0     H  278   6.005   6.645   0.564  0.8191 -1.8991  1.1817
  743MOL0     H  279   6.057   6.772   0.831  0.0462  4.1083  0.5123
  743MOL0     H  280   6.124   6.819   0.669 -1.3495 -2.2310 -3.2463
  743MOL0     H  281   5.857   6.872   0.817 -0.1626  0.6215  1.3502
  743MOL0     H  282   5.870   6.899   0.642  0.4972  3.0501 -0.1730
  743MOL0     H  283   6.056   7.078   0.678 -2.3801  3.3071 -0.5668
  743MOL0     H  284   5.900   7.116   0.729  1.6609  0.7842 -1.9421
  743MOL0     H  285   5.878   6.066   0.710 -0.7640  0.1212 -0.8420
  743MOL0     H  286   5.721   5.890   0.653 -0.8049 -1.6809  0.7414
  743MOL0     H  287   5.272   5.571   0.942  2.0330  0.7096 -0.2969
  743MOL0     H  288   5.131   5.375   0.825  0.2048 -0.7067  2.0719
  743MOL0     H  289   5.111   3.991   1.922 -0.5306  0.5815  1.9901
  743MOL0     H  290   4.865   4.037   1.941 -1.1493  0.0746  0.3233
  743MOL0     H  291   4.466   4.249   1.584 -1.2264  0.3325 -0.1492
  743MOL0     H  292   4.225   4.231   1.544  1.6830 -0.9514 -1.2970
  743MOL0     H  293   4.000   3.947   1.813 -4.3351  0.3182  4.2190
  743MOL0     H  294   3.875   4.022   1.699 -0.4853  3.9866 -1.3737
  743MOL0     H  295   3.984   4.145   1.950  0.5594 -0.0594  0.1380
  743MOL0     H  296   3.843   4.038   1.936 -0.1405 -0.7089  0.3074
  743MOL0     H  297   3.763   4.220   1.762  1.2255 -1.2244 -0.7764
  743MOL0     H  298   3.900   4.307   1.820 -0.0418  0.3976 -1.2476
  743MOL0     H  299   3.810   4.301   2.057  1.6486  2.3814 -1.6569
  743MOL0     H  300   3.709   4.378   1.943  1.0724  1.4808  2.9495
  743MOL0     H  301   3.463   4.047   2.039 -0.8756  0.9467 -0.9172
  743MOL0     H  302   4.203   3.964   1.881  2.1374  2.3737  3.2870
  743MOL0     H  303   4.451   3.820   1.894  1.7354  0.2877 -1.7714
  743MOL0     H  304   4.560   3.946   1.949  0.8737 -3.0288 -0.9530
  743MOL0     H  305   4.399   3.930   2.023 -2.0637 -0.0662 -1.3936
  744MOL0     O  306   0.274   0.790   9.474 -0.6127 -0.3934  0.6358
  744MOL0     C  307   0.261   0.808   9.347 -0.1952 -0.6612 -0.2752
  744MOL0     O  308   0.362   0.821   9.250  0.7102 -0.1704 -0.3073
  744MOL0     C  309   0.491   0.818   9.292  0.8071  0.3127  0.3752
  744MOL0     C  310   0.573   0.904   9.217  0.8986  0.1094  0.1509
  744MOL0     C  311   0.704   0.919   9.248 -1.1935 -0.2373 -0.1010
  744MOL0     C  312   0.757   0.848   9.361  0.6333  0.0346  0.2183
  744MOL0     O  313   0.889   0.839   9.399  0.2168 -0.5335 -0.3177
  744MOL0     C  314   0.979   0.932   9.334  0.4219 -0.4060 -0.2683
  744MOL0     C  315   1.111   0.917   9.401 -0.2416 -0.7480 -0.6438
  744MOL0     C  316   1.213   1.024   9.352 -0.5546  0.3563 -0.4453
  744MOL0     C  317   1.200   1.158   9.428  0.0501  0.3438 -0.0459
  744MOL0     C  318   1.330   1.224   9.430  0.3953 -0.5197 -0.4426
  744MOL0     C  319   1.339   1.346   9.538 -0.3368  0.3622  1.2342
  744MOL0     C  320   1.484   1.404   9.546  0.2981 -0.0462 -0.0415
  744MOL0     C  321   1.604   1.307   9.542 -0.5246  0.7415  0.8140
  744MOL0     N  322   1.739   1.365   9.555  0.0692  0.2161 -0.4743
  744MOL0     C  323   1.852   1.278   9.575 -0.1189 -0.9930  0.6464
  744MOL0     C  324   1.953   1.357   9.619  0.2171 -1.1036  0.1330
  744MOL0     C  325   2.086   1.313   9.681 -1.1705  0.2098  0.3092
  744MOL0     C  326   2.179   1.255   9.578 -0.0168  0.9105  0.2995
  744MOL0     C  327   2.128   1.126   9.502 -0.3976  0.0523  0.0257
  744MOL0     C  328   2.251   1.075   9.429 -0.0713  0.3923  0.0291
  744MOL0     O  329   2.325   0.986   9.509 -0.1724 -0.0987  0.3427
  744MOL0     C  330   2.458   1.002   9.499  1.2082 -0.0729  0.1319
  744MOL0     C  331   2.529   0.997   9.621 -0.8443  0.9387 -0.6633
  744MOL0     C  332   2.670   0.965   9.612 -0.2370 -1.0095  0.4081
  744MOL0     C  333   2.741   0.978   9.487  0.8772  0.6192 -0.0630
  744MOL0     C  334   2.880   0.955   9.482 -0.6864 -0.4075  0.1354
  744MOL0     O  335   2.934   0.930   9.359 -0.3638  0.0562  0.0675
  744MOL0     C  336   3.068   0.907   9.350  0.4502 -0.1480  0.3931
  744MOL0     C  337   3.109   0.805   9.264 -0.9052  0.1861  0.0695
  744MOL0     C  338   3.245   0.794   9.237 -0.8479  0.8388 -0.1373
  744MOL0     C  339   3.342   0.864   9.300  0.9984 -0.9047 -0.0827
  744MOL0     O  340   3.474   0.850   9.260  0.3311 -0.3445  0.2705
  744MOL0     C  341   3.569   0.870   9.363 -0.4729  0.0654 -0.1072
  744MOL0     C  342   3.654   0.996   9.335 -0.2736 -0.1085 -0.2102
  744MOL0     C  343   3.719   1.053   9.461 -0.8946 -0.5738 -0.1954
  744MOL0     C  344   3.845   1.135   9.434  0.1635  0.4967 -0.1205
  744MOL0     C  345   3.830   1.255   9.337 -0.1720 -0.6877 -0.6563
  744MOL0     C  346   3.965   1.338   9.321  1.1208 -0.0657 -0.3017
  744MOL0     C  347   3.938   1.474   9.237 -1.3656  0.4310  0.2614
  744MOL0     C  348   3.930   1.451   9.085 -0.4102 -0.5073 -0.5787
  744MOL0    Cl  349   4.063   1.335   9.025 -0.3648 -0.0529  0.1521
  744MOL0     C  350   3.299   0.976   9.380 -0.5836  0.1089  1.4562
  744MOL0     C  351   3.162   0.995   9.402 -0.1991  1.2376 -0.2924
  744MOL0     O  352   2.937   0.958   9.586 -0.3377  0.0201 -0.1440
  744MOL0     C  353   2.662   0.995   9.369 -0.6218 -0.8604  0.2834
  744MOL0     C  354   2.521   1.009   9.380  0.1791  0.7066  0.6210
  744MOL0     N  355   1.901   1.486   9.638  1.0745  0.6373 -0.2076
  744MOL0     N  356   1.773   1.477   9.611  0.9839 -0.1153  0.7811
  744MOL0     C  357   0.672   0.765   9.433 -0.0441 -0.7556 -0.8701
  744MOL0     C  358   0.543   0.751   9.400 -0.5740  0.4262 -0.1557
  744MOL0     C  359   0.119   0.838   9.301  0.3722  0.0574 -1.0516
  744MOL0     C  360   0.107   0.922   9.189 -0.0439  0.3555  0.2206
  744MOL0     C  361  -0.019   0.948   9.131 -0.2770 -0.0622  0.6472
  744MOL0     C  362  -0.138   0.901   9.177  0.1632 -1.2835 -0.9758
  744MOL0     O  363  -0.260   0.939   9.110 -0.4152 -0.2960  0.4238
  744MOL0     C  364  -0.390   0.879   9.146  0.0195 -0.2357  0.8322
  744MOL0     C  365  -0.515   0.954   9.088 -0.5414  1.5178 -0.2295
  744MOL0     C  366  -0.508   1.099   9.125 -0.0566  0.5942  0.7941
  744MOL0     C  367  -0.623   1.178   9.072  0.5009 -0.0492  0.4879
  744MOL0     C  368  -0.619   1.174   8.929 -0.0765 -0.7471  0.1070
  744MOL0     C  369  -0.629   1.170   8.806 -0.2051 -0.6977  0.6557
  744MOL0     C  370  -0.126   0.809   9.281 -0.1119 -0.5611 -1.2968
  744MOL0     C  371  -0.000   0.780   9.351  0.1736 -0.6365  0.5770
  744MOL0     C  372  -0.008   0.684   9.464  0.0607 -0.6070 -0.1193
  744MOL0     H  373   0.523   0.953   9.135  1.8547  1.6135  0.4238
  744MOL0     H  374   0.772   0.980   9.189  0.7705 -0.1047  2.1345
  744MOL0     H  375   0.982   0.896   9.231 -3.5146  0.2735 -0.7699
  744MOL0     H  376   0.952   1.038   9.335  2.3848  0.1386  0.7593
  744MOL0     H  377   1.142   0.812   9.397 -0.3916 -0.9729  2.0584
  744MOL0     H  378   1.094   0.932   9.508 -1.9778 -2.3131 -0.6607
  744MOL0     H  379   1.197   1.041   9.245 -2.4345 -0.3639 -0.3214
  744MOL0     H  380   1.313   0.985   9.372 -1.5177 -0.3617  4.0849
  744MOL0     H  381   1.133   1.226   9.374 -1.0831 -1.4485 -0.9807
  744MOL0     H  382   1.167   1.148   9.532  1.0826  1.9154  0.4764
  744MOL0     H  383   1.410   1.153   9.452 -0.6689 -1.2722  1.1802
  744MOL0     H  384   1.356   1.267   9.332  0.6207 -0.8382 -0.5216
  744MOL0     H  385   1.271   1.423   9.501 -0.8662 -0.6973 -0.0623
  744MOL0     H  386   1.304   1.307   9.634 -0.7967 -0.6497  0.6699
  744MOL0     H  387   1.496   1.468   9.634  0.1623 -0.4370  0.2615
  744MOL0     H  388   1.488   1.470   9.459 -2.1880 -0.9840 -0.9351
  744MOL0     H  389   1.595   1.236   9.626  2.3643  0.2529  0.8009
  744MOL0     H  390   1.608   1.261   9.443 -0.3768  0.1907  1.0664
  744MOL0     H  391   1.858   1.172   9.554  1.6826 -1.5060  3.2370
  744MOL0     H  392   2.138   1.395   9.732 -1.3436 -0.4424  1.5992
  744MOL0     H  393   2.071   1.233   9.755 -0.0997 -0.0563  0.2511
  744MOL0     H  394   2.191   1.333   9.502  0.8249 -0.1925 -0.7334
  744MOL0     H  395   2.275   1.244   9.629 -0.3487  1.4292  1.0577
  744MOL0     H  396   2.049   1.146   9.430  1.8188  0.4696 -2.4335
  744MOL0     H  397   2.092   1.048   9.570 -3.0195  1.0851 -0.0593
  744MOL0     H  398   2.309   1.163   9.399 -4.8100  3.5997 -0.7787
  744MOL0     H  399   2.212   1.023   9.341 -1.7673 -0.5050  1.2430
  744MOL0     H  400   2.477   0.985   9.715  1.3883 -1.4826  0.3864
  744MOL0     H  401   2.729   0.949   9.701 -2.6364 -0.6519  2.1399
  744MOL0     H  402   3.030   0.751   9.214 -1.4304  2.7993 -2.1456
  744MOL0     H  403   3.278   0.716   9.169  0.9508 -3.0385  4.5972
  744MOL0     H  404   3.523   0.892   9.459 -1.7220 -1.3324 -0.3407
  744MOL0     H  405   3.633   0.781   9.372 -0.5491  0.2364  3.2101
  744MOL0     H  406   3.724   0.974   9.254 -2.6031 -0.0197 -2.3676
  744MOL0     H  407   3.592   1.078   9.297 -0.2100 -0.2800 -0.6922
  744MOL0     H  408   3.649   1.109   9.524 -0.2261 -0.9662  0.9362
  744MOL0     H  409   3.752   0.972   9.526 -1.7432  1.3073  2.7788
  744MOL0     H  410   3.915   1.072   9.378 -1.4350  1.1311 -3.0209
  744MOL0     H  411   3.875   1.181   9.529 -3.3006  2.7809  0.0364
  744MOL0     H  412   3.760   1.326   9.382  1.6864  0.4352  0.6318
  744MOL0     H  413   3.792   1.232   9.238  0.8471  2.0821 -1.7838
  744MOL0     H  414   3.996   1.373   9.420  0.6206  3.0279 -1.1338
  744MOL0     H  415   4.048   1.284   9.276  0.6790  1.7221 -3.5179
  744MOL0     H  416   4.028   1.535   9.248 -1.8773  1.4027 -0.7441
  744MOL0     H  417   3.858   1.541   9.269 -0.0599  2.9889 -1.4997
  744MOL0     H  418   3.835   1.407   9.055  0.6461 -4.1215  0.8712
  744MOL0     H  419   3.940   1.546   9.031 -2.9476  1.5894  2.2782
  744MOL0     H  420   3.365   1.057   9.410 -3.8121  3.0694  1.1372
  744MOL0     H  421   3.132   1.080   9.464 -1.5184  0.7248 -0.2060
  744MOL0     H  422   2.719   1.008   9.278 -0.6406 -2.6605 -0.0228
  744MOL0     H  423   2.471   1.015   9.284  0.4861  0.8845  0.4687
  744MOL0     H  424   0.713   0.712   9.518 -0.6656  1.8684  1.1748
  744MOL0     H  425   0.488   0.677   9.458  0.6936  0.3277  0.9850
  744MOL0     H  426   0.194   0.964   9.140 -1.5086  2.8693 -0.4240
  744MOL0     H  427  -0.029   0.998   9.035  0.1947  0.1408  0.7006
  744MOL0     H  428  -0.413   0.890   9.252  0.9193  0.0304  1.0141
  744MOL0     H  429  -0.388   0.776   9.109 -0.1623  0.0768 -0.0545
  744MOL0     H  430  -0.614   0.928   9.127 -0.2214  0.1909 -0.2626
  744MOL0     H  431  -0.501   0.944   8.980  1.4148 -1.8219  0.1775
  744MOL0     H  432  -0.420   1.141   9.076 -0.3355 -1.3784 -1.6106
  744MOL0     H  433  -0.514   1.106   9.234  1.4092  2.0835  0.8228
  744MOL0     H  434  -0.715   1.126   9.102 -0.8890  2.6375  1.2241
  744MOL0     H  435  -0.629   1.273   9.127 -0.1497 -0.2661  0.8061
  744MOL0     H  436  -0.649   1.179   8.701 -4.5861  2.4679  1.4835
  744MOL0     H  437  -0.209   0.743   9.300 -0.2356  0.2327  1.2219
  744MOL0     H  438   0.035   0.747   9.542  1.7552  1.5942 -2.6571
  744MOL0     H  439  -0.108   0.641   9.470  1.1881 -3.6067 -0.7731
  744MOL0     H  440   0.054   0.594   9.450 -3.0585 -3.5922  3.3505
  745MOL0     O  441  10.107  10.970   4.878 -0.6711  0.0979  0.0599
  745MOL0     C  442  10.047  11.050   4.954 -0.0444  0.4056 -0.0301
  745MOL0     O  443  10.072  11.184   4.954  0.4696  0.3955 -0.5465
  745MOL0     C  444  10.188  11.224   4.894  0.3012  0.1555 -1.3642
  745MOL0     C  445  10.316  11.183   4.932  0.0740  0.2027 -0.1931
  745MOL0     C  446  10.433  11.228   4.870 -1.0452  0.9760 -0.2438
  745MOL0     C  447  10.426  11.308   4.757 -0.7352 -0.0167  0.7336
  745MOL0     O  448  10.535  11.360   4.689 -0.2349  0.2109  0.2204
  745MOL0     C  449  10.667  11.322   4.728 -0.5436 -0.3643 -0.3855
  745MOL0     C  450  10.739  11.402   4.836  0.2053 -0.0799  0.0750
  745MOL0     C  451  10.731  11.341   4.980  0.0869 -0.0971 -0.1521
  745MOL0     C  452  10.841  11.399   5.075 -0.5739  0.5896 -0.0957
  745MOL0     C  453  10.855  11.563   5.066  0.7011 -0.3664  0.7055
  745MOL0     C  454  10.964  11.623   5.155  0.2573 -0.5909 -0.1754
  745MOL0     C  455  10.975  11.574   5.300 -0.3492  1.1135 -0.7563
  745MOL0     C  456  11.087  11.629   5.385  0.6431 -0.9308 -0.0412
  745MOL0     N  457  11.200  11.684   5.318 -0.4489 -0.0064  1.0594
  745MOL0     C  458  11.215  11.806   5.260  0.1942  0.5699 -0.6765
  745MOL0     C  459  11.331  11.802   5.199 -1.6658  1.7031  0.3967
  745MOL0     C  460  11.397  11.908   5.116  0.0868 -0.3487  0.0875
  745MOL0     C  461  11.518  11.986   5.176 -0.1735  1.0512  0.3794
  745MOL0     C  462  11.488  12.048   5.310  0.5138 -0.0698 -0.8898
  745MOL0     C  463  11.421  12.189   5.305  1.0470 -0.3905 -0.6833
  745MOL0     O  464  11.295  12.192   5.231  0.6979  0.6581 -0.2245
  745MOL0     C  465  11.173  12.167   5.291  0.2481  0.7871 -0.5001
  745MOL0     C  466  11.154  12.158   5.427 -0.4175  0.0980 -0.3693
  745MOL0     C  467  11.030  12.129   5.485  0.0442  0.3751  0.0190
  745MOL0     C  468  10.919  12.101   5.403  0.4131 -0.5523  1.2792
  745MOL0     C  469  10.790  12.067   5.456 -0.1523  0.0180 -0.8045
  745MOL0     O  470  10.689  12.014   5.372 -0.3464 -0.2633  1.7277
  745MOL0     C  471  10.568  11.999   5.438 -0.5050  0.9956 -0.6746
  745MOL0     C  472  10.505  12.095   5.525 -0.0587  1.1282 -0.3721
  745MOL0     C  473  10.382  12.067   5.585 -0.3538 -0.0109 -0.2591
  745MOL0     C  474  10.310  11.952   5.554  0.1391 -0.1237  0.7440
  745MOL0     O  475  10.199  11.929   5.631  0.4474  0.4615  0.1402
  745MOL0     C  476  10.123  11.810   5.606  0.4377  0.0916 -0.2637
  745MOL0     C  477  10.029  11.775   5.716 -0.7676 -0.5543  0.5102
  745MOL0     C  478   9.903  11.864   5.733 -0.2489  0.0751 -0.5550
  745MOL0     C  479   9.931  11.972   5.845  0.3111 -0.8151 -0.4739
  745MOL0     C  480   9.797  12.040   5.900  0.8352 -0.7214  1.0459
  745MOL0     C  481   9.721  11.962   6.006 -0.0859 -0.2446  0.8683
  745MOL0     C  482   9.583  12.020   6.037  0.3620 -0.2473  0.6846
  745MOL0     C  483   9.534  12.015   6.180 -0.2393 -0.2252 -0.7196
  745MOL0    Cl  484   9.620  12.095   6.308 -0.1435 -0.1853  0.4973
  745MOL0     C  485  10.370  11.862   5.456  0.0069 -0.0111 -0.2330
  745MOL0     C  486  10.493  11.887   5.405  0.3884 -0.2788 -0.0429
  745MOL0     O  487  10.786  12.087   5.580  1.0796 -0.0669  1.0378
  745MOL0     C  488  10.930  12.124   5.261 -0.3943 -0.2665 -0.7972
  745MOL0     C  489  11.055  12.149   5.214  1.2230  0.1521  0.1486
  745MOL0     N  490  11.387  11.677   5.202  0.7508  0.0773  0.2776
  745MOL0     N  491  11.300  11.604   5.269 -0.2900 -0.6081  0.3950
  745MOL0     C  492  10.297  11.343   4.714  0.1645 -2.1200 -0.1807
  745MOL0     C  493  10.175  11.307   4.784  0.0217  1.1714 -0.0591
  745MOL0     C  494   9.933  11.002   5.037 -0.8187 -0.2627 -0.3161
  745MOL0     C  495   9.841  11.086   5.104  0.2346 -0.3286  0.1375
  745MOL0     C  496   9.727  11.032   5.173 -0.1843 -0.3934 -0.0334
  745MOL0     C  497   9.713  10.899   5.191 -0.7612  0.0851 -0.4611
  745MOL0     O  498   9.607  10.857   5.267  0.0134 -0.1094  0.2261
  745MOL0     C  499   9.531  10.746   5.216 -0.1866 -0.7804  0.3339
  745MOL0     C  500   9.469  10.784   5.077 -0.0173  0.0539  1.0455
  745MOL0     C  501   9.349  10.877   5.094  0.1271 -0.3386  0.1039
  745MOL0     C  502   9.226  10.793   5.106  0.2650  0.0722 -0.1272
  745MOL0     C  503   9.113  10.878   5.097  0.0452 -0.4146 -0.3827
  745MOL0     C  504   9.009  10.945   5.099 -0.0485  0.7605 -0.0328
  745MOL0     C  505   9.811  10.815   5.140  0.0223  0.0879  0.2290
  745MOL0     C  506   9.925  10.861   5.061  0.2907 -0.2507 -0.1327
  745MOL0     C  507  10.027  10.758   5.029 -0.3885  0.7963 -0.1010
  745MOL0     H  508  10.327  11.111   5.012  0.6121  0.2544 -0.2206
  745MOL0     H  509  10.531  11.196   4.905 -0.1385  2.2553 -1.4718
  745MOL0     H  510  10.669  11.216   4.755 -0.9410 -0.4497 -0.6714
  745MOL0     H  511  10.728  11.352   4.642  0.4800  2.4704  1.1867
  745MOL0     H  512  10.697  11.503   4.839  0.4118  0.1455 -2.4001
  745MOL0     H  513  10.844  11.420   4.811 -0.1319 -0.3376 -1.6346
  745MOL0     H  514  10.734  11.235   4.957 -2.5205 -0.0543 -1.0844
  745MOL0     H  515  10.632  11.361   5.024 -0.7510 -1.5448 -1.2688
  745MOL0     H  516  10.819  11.368   5.178 -0.1454 -0.9959 -0.4628
  745MOL0     H  517  10.939  11.361   5.047 -0.6265 -0.0363  0.5430
  745MOL0     H  518  10.881  11.607   4.969  1.1026 -2.9141 -0.4320
  745MOL0     H  519  10.760  11.606   5.098  0.0269  0.2228 -1.8329
  745MOL0     H  520  11.063  11.603   5.114  1.3884  2.5970  0.6865
  745MOL0     H  521  10.946  11.731   5.148  2.4870 -0.2296 -1.0901
  745MOL0     H  522  11.005  11.469   5.299  4.8751  2.3136  0.4495
  745MOL0     H  523  10.879  11.588   5.351  0.0391 -0.3010  0.4472
  745MOL0     H  524  11.046  11.703   5.454  0.8367 -0.7554 -0.1100
  745MOL0     H  525  11.120  11.553   5.456 -1.2228 -0.4028  1.4598
  745MOL0     H  526  11.149  11.891   5.275  0.8083  0.7352  1.4712
  745MOL0     H  527  11.423  11.861   5.020 -0.4400 -1.0724  0.2920
  745MOL0     H  528  11.319  11.983   5.103 -1.6679 -1.2972  3.7609
  745MOL0     H  529  11.597  11.913   5.195  1.6406  3.2063  1.6217
  745MOL0     H  530  11.565  12.059   5.109 -0.0485  1.9194  1.3851
  745MOL0     H  531  11.583  12.065   5.362  0.1391 -1.1797  0.2027
  745MOL0     H  532  11.432  11.980   5.375 -0.7484  1.3048 -0.4863
  745MOL0     H  533  11.484  12.251   5.240  0.3175  0.3793 -0.6609
  745MOL0     H  534  11.417  12.243   5.400  3.0103 -0.1183 -0.7075
  745MOL0     H  535  11.234  12.159   5.501 -0.8040  2.0670  0.0771
  745MOL0     H  536  11.011  12.123   5.592 -1.4068  2.5240 -0.0307
  745MOL0     H  537  10.539  12.195   5.550 -1.0927  1.5080 -0.4254
  745MOL0     H  538  10.343  12.127   5.666 -0.8162 -1.4922  0.6581
  745MOL0     H  539  10.068  11.809   5.511 -2.5436 -0.9939  1.3601
  745MOL0     H  540  10.194  11.727   5.599  3.1639  2.0930  1.7046
  745MOL0     H  541   9.992  11.676   5.688 -2.9588  0.6819 -1.2564
  745MOL0     H  542  10.087  11.771   5.809  1.3319 -1.0433 -0.7567
  745MOL0     H  543   9.880  11.909   5.637 -2.6680 -1.6134 -0.8573
  745MOL0     H  544   9.814  11.806   5.759 -2.3142  2.2417 -2.3576
  745MOL0     H  545   9.996  12.045   5.797  1.1647 -0.5969  0.9581
  745MOL0     H  546   9.988  11.932   5.929  1.2773 -0.3335 -0.8952
  745MOL0     H  547   9.732  12.056   5.813  0.0872  0.7623  1.8405
  745MOL0     H  548   9.809  12.138   5.946  1.5340 -0.3371  0.0673
  745MOL0     H  549   9.717  11.856   5.980 -0.0567 -0.0162 -0.0961
  745MOL0     H  550   9.787  11.991   6.089  0.3575  0.5898  0.2472
  745MOL0     H  551   9.508  11.974   5.972 -1.0158 -1.6195  3.1056
  745MOL0     H  552   9.572  12.123   6.002 -1.6824 -1.1587 -1.6645
  745MOL0     H  553   9.434  12.060   6.179 -1.4653 -2.7348 -0.2973
  745MOL0     H  554   9.519  11.915   6.221  2.2684 -0.6684 -0.7111
  745MOL0     H  555  10.319  11.770   5.428 -2.2786  1.0412  0.2427
  745MOL0     H  556  10.547  11.818   5.340  2.2995  1.5206 -0.4819
  745MOL0     H  557  10.847  12.112   5.192  0.1805  1.4269 -1.8327
  745MOL0     H  558  11.057  12.150   5.105 -2.1017 -1.4018 -0.0503
  745MOL0     H  559  10.285  11.410   4.629  0.0593 -1.5099  0.3111
  745MOL0     H  560  10.080  11.338   4.741 -1.2574 -0.7071  1.2642
  745MOL0     H  561   9.841  11.194   5.104 -0.5585 -0.3292 -0.1950
  745MOL0     H  562   9.665  11.106   5.223  1.0525  0.5949  0.0862
  745MOL0     H  563   9.452  10.716   5.284  0.6849  1.4282  2.4753
  745MOL0     H  564   9.598  10.660   5.208  0.8995 -0.1192  1.7686
  745MOL0     H  565   9.441  10.687   5.035 -1.1028  0.3996  0.9436
  745MOL0     H  566   9.544  10.820   5.007  0.3159  0.5632  1.6474
  745MOL0     H  567   9.355  10.961   5.024  3.4087  2.2248  3.1549
  745MOL0     H  568   9.362  10.938   5.183  0.1321 -2.4532  1.6265
  745MOL0     H  569   9.226  10.725   5.020  1.9498 -0.9840  0.6527
  745MOL0     H  570   9.237  10.722   5.189  1.6887  0.3451 -0.0573
  745MOL0     H  571   8.906  10.973   5.097 -1.0013 -2.4105 -1.0585
  745MOL0     H  572   9.813  10.709   5.164 -0.2866  0.3021  1.2535
  745MOL0     H  573  10.125  10.799   5.054  0.7197 -2.3438  1.3350
  745MOL0     H  574  10.029  10.673   5.098  1.1016 -1.0292 -2.2502
  745MOL0     H  575  10.020  10.719   4.927 -0.2491 -1.6843  0.7475
  746MOL0     O  576   1.322   0.373   1.333 -0.3681  0.0845  0.6682
  746MOL0     C  577   1.351   0.258   1.284  0.1094  0.2835 -0.6741
  746MOL0     O  578   1.467   0.228   1.222 -0.1666 -0.0531  1.3190
  746MOL0     C  579   1.510   0.323   1.140  0.3890 -0.0578  0.3003
  746MOL0     C  580   1.483   0.328   1.006 -0.6896 -0.6653  0.0057
  746MOL0     C  581   1.550   0.409   0.916  0.5456  0.2115 -0.4335
  746MOL0     C  582   1.651   0.493   0.960 -0.1367 -0.6364  0.1550
  746MOL0     O  583   1.711   0.576   0.863  0.0877 -0.5273 -0.1313
  746MOL0     C  584   1.806   0.675   0.913  0.1662  0.1761  0.0616
  746MOL0     C  585   1.894   0.734   0.799  0.0499 -0.4953 -0.0080
  746MOL0     C  586   1.848   0.868   0.749  0.2020  0.8033  0.6918
  746MOL0     C  587   1.869   0.871   0.599  0.9521  0.2306  0.1057
  746MOL0     C  588   1.870   1.009   0.538 -1.3061 -0.0508  0.6462
  746MOL0     C  589   1.735   1.080   0.538 -0.3154  0.0649  0.7697
  746MOL0     C  590   1.736   1.203   0.449  0.8138  0.4784  0.3724
  746MOL0     C  591   1.800   1.322   0.522  0.0603 -1.0104  0.0152
  746MOL0     N  592   1.848   1.432   0.440 -1.0082  0.6215  0.4324
  746MOL0     C  593   1.978   1.447   0.380  0.6360 -0.4158 -1.1370
  746MOL0     C  594   1.978   1.572   0.331  0.6239  0.1640 -0.4221
  746MOL0     C  595   2.098   1.634   0.260 -0.3285  0.2794 -0.8787
  746MOL0     C  596   2.151   1.761   0.330 -0.4399  0.4319 -0.2726
  746MOL0     C  597   2.227   1.728   0.459  0.1153 -0.9075 -0.2765
  746MOL0     C  598   2.357   1.801   0.474  0.4792 -0.7660  0.5162
  746MOL0     O  599   2.464   1.745   0.402  0.6145 -0.4235 -0.4958
  746MOL0     C  600   2.590   1.791   0.425 -0.2742  0.3531  0.1207
  746MOL0     C  601   2.696   1.707   0.384 -0.1423  1.2865  0.2334
  746MOL0     C  602   2.831   1.742   0.389 -0.1258  0.5115  1.3277
  746MOL0     C  603   2.871   1.864   0.453  0.7373  0.9907 -0.0479
  746MOL0     C  604   3.007   1.895   0.483 -0.2796  0.7387 -0.1601
  746MOL0     O  605   3.106   1.831   0.411 -0.0673  0.1868  0.0143
  746MOL0     C  606   3.241   1.829   0.438 -0.1272  0.4038  0.1320
  746MOL0     C  607   3.299   1.715   0.436  0.0067  0.0788  0.6507
  746MOL0     C  608   3.443   1.705   0.455 -0.5338 -0.0142 -0.1692
  746MOL0     C  609   3.519   1.817   0.494 -0.3672  0.0113 -0.0204
  746MOL0     O  610   3.649   1.816   0.521  0.2579  0.4313 -0.4333
  746MOL0     C  611   3.739   1.904   0.451 -0.2080  0.1733  0.1050
  746MOL0     C  612   3.801   2.006   0.541 -0.0064 -0.2618  0.0067
  746MOL0     C  613   3.877   2.098   0.453  1.2899 -0.1003 -0.1190
  746MOL0     C  614   3.965   2.190   0.537  0.7012  0.4407 -0.1095
  746MOL0     C  615   4.080   2.113   0.608  0.2580  0.4080  0.3941
  746MOL0     C  616   4.186   2.037   0.528  0.0754 -0.3229 -0.4088
  746MOL0     C  617   4.292   1.991   0.622 -0.0089  0.0141 -0.3537
  746MOL0     C  618   4.397   1.904   0.562  0.1791 -0.3310  0.7401
  746MOL0    Cl  619   4.509   1.844   0.687 -0.0940  0.1218 -0.1244
  746MOL0     C  620   3.442   1.939   0.501 -0.3283  0.6210 -0.5562
  746MOL0     C  621   3.307   1.939   0.484  0.5923  0.2504 -0.5878
  746MOL0     O  622   3.030   1.967   0.578 -0.1093 -0.5745 -0.4591
  746MOL0     C  623   2.763   1.956   0.495 -0.3171  0.6177 -0.3535
  746MOL0     C  624   2.633   1.914   0.486  0.2589  1.0904  0.3059
  746MOL0     N  625   1.855   1.627   0.361 -0.3369 -0.8239  0.2290
  746MOL0     N  626   1.784   1.545   0.424  0.5690  0.0260  0.2555
  746MOL0     C  627   1.685   0.489   1.094 -1.0152  0.5564 -0.0236
  746MOL0     C  628   1.617   0.398   1.189  0.3800  0.1768 -0.4319
  746MOL0     C  629   1.260   0.142   1.322  0.6817 -0.0877 -0.4007
  746MOL0     C  630   1.320   0.015   1.346  0.3959 -0.2215  0.2100
  746MOL0     C  631   1.241  -0.097   1.382 -0.4667 -0.1978 -0.1437
  746MOL0     C  632   1.106  -0.080   1.415  0.3954  0.0587  0.0591
  746MOL0     O  633   1.042  -0.192   1.465  0.2445  0.1254 -0.3443
  746MOL0     C  634   0.892  -0.197   1.457  0.7506 -0.5507 -0.6125
  746MOL0     C  635   0.826  -0.157   1.592  0.0014 -0.2315  0.1068
  746MOL0     C  636   0.684  -0.193   1.606 -0.2187  0.8606 -0.5278
  746MOL0     C  637   0.645  -0.208   1.757 -0.1567  0.0297 -0.0388
  746MOL0     C  638   0.504  -0.258   1.754 -0.3699  0.3265 -0.1664
  746MOL0     C  639   0.398  -0.310   1.741  0.5527  0.5760 -0.3201
  746MOL0     C  640   1.049   0.046   1.400  0.5368  0.6635 -0.5975
  746MOL0     C  641   1.122   0.155   1.360 -0.9552 -0.2037  0.1061
  746MOL0     C  642   1.055   0.278   1.344 -0.3407 -0.1487  0.1452
  746MOL0     H  643   1.412   0.257   0.966 -1.6050  0.5491 -0.5722
  746MOL0     H  644   1.524   0.398   0.811 -1.8380 -0.9191  0.2220
  746MOL0     H  645   1.752   0.755   0.964 -0.6393 -0.0820 -0.3662
  746MOL0     H  646   1.871   0.626   0.986  0.3090 -0.4952 -0.4992
  746MOL0     H  647   1.908   0.663   0.717  0.9564  1.2787 -1.4434
  746MOL0     H  648   1.994   0.753   0.839 -0.1843 -1.0736  0.8820
  746MOL0     H  649   1.912   0.940   0.800  0.1588 -1.3126  4.0263
  746MOL0     H  650   1.743   0.886   0.772 -0.6471  0.3105 -2.2916
  746MOL0     H  651   1.964   0.817   0.589  0.0102 -1.6747  0.9283
  746MOL0     H  652   1.801   0.800   0.551  1.0820  1.3738 -1.8766
  746MOL0     H  653   1.947   1.073   0.582 -0.4907  1.5248 -2.7143
  746MOL0     H  654   1.907   0.981   0.439 -0.2429  1.9578  0.4086
  746MOL0     H  655   1.650   1.018   0.509 -3.1548  3.0175  2.1484
  746MOL0     H  656   1.707   1.112   0.639 -0.3654  0.6982  0.5568
  746MOL0     H  657   1.638   1.240   0.418  2.1244  0.8716 -3.9336
  746MOL0     H  658   1.793   1.190   0.356 -0.1976  3.5805 -0.7918
  746MOL0     H  659   1.735   1.356   0.604  0.9529  1.7996 -0.3390
  746MOL0     H  660   1.888   1.286   0.576 -0.0916  0.5983  1.4485
  746MOL0     H  661   2.053   1.368   0.377 -1.3319 -2.3605 -1.7522
  746MOL0     H  662   2.157   1.542   0.255  0.4609  0.7543 -0.5181
  746MOL0     H  663   2.074   1.652   0.155 -2.0934  0.8178 -0.4113
  746MOL0     H  664   2.211   1.811   0.253 -0.5324 -4.0332 -3.6157
  746MOL0     H  665   2.063   1.813   0.368 -2.6437 -3.1824 -0.0244
  746MOL0     H  666   2.277   1.631   0.466 -0.5105 -1.2858 -0.9602
  746MOL0     H  667   2.170   1.750   0.550  2.0042 -2.5070  1.3936
  746MOL0     H  668   2.384   1.798   0.580  0.5424  0.1752  0.5316
  746MOL0     H  669   2.327   1.902   0.443 -4.6753 -1.3672  2.6099
  746MOL0     H  670   2.656   1.614   0.344 -0.2380  1.6534 -0.5416
  746MOL0     H  671   2.912   1.684   0.345  0.9915  2.4153  0.7576
  746MOL0     H  672   3.240   1.624   0.424 -2.7352  1.8824 -0.2887
  746MOL0     H  673   3.489   1.607   0.446  0.1205  0.4549 -3.1799
  746MOL0     H  674   3.810   1.839   0.399 -0.7011 -0.4105  0.1476
  746MOL0     H  675   3.685   1.962   0.376 -1.8984 -1.8314 -0.3168
  746MOL0     H  676   3.731   2.059   0.606  0.1077 -1.2752  0.9950
  746MOL0     H  677   3.870   1.947   0.602 -0.4011 -1.1669 -0.4012
  746MOL0     H  678   3.941   2.042   0.384 -0.8682 -3.1297  0.1347
  746MOL0     H  679   3.807   2.165   0.401 -2.9543 -3.0291  1.2607
  746MOL0     H  680   3.907   2.229   0.622  0.9604 -0.3315  0.4325
  746MOL0     H  681   4.009   2.266   0.473 -1.0097  1.1774 -0.4568
  746MOL0     H  682   4.037   2.043   0.680 -1.6290  1.1045 -0.0040
  746MOL0     H  683   4.134   2.192   0.660 -0.3476  0.1067  1.5072
  746MOL0     H  684   4.142   1.959   0.465 -1.8343  0.9705 -0.7600
  746MOL0     H  685   4.220   2.116   0.461 -1.5707  0.4338 -0.4031
  746MOL0     H  686   4.244   1.943   0.708  2.4085 -0.3519  0.8924
  746MOL0     H  687   4.337   2.074   0.678 -0.0879 -0.4190  0.3744
  746MOL0     H  688   4.346   1.823   0.510 -1.4772  0.5825  0.8619
  746MOL0     H  689   4.445   1.959   0.480 -1.8174  4.0405  2.1795
  746MOL0     H  690   3.486   2.034   0.529  1.6272 -0.1851 -0.7606
  746MOL0     H  691   3.245   2.028   0.494 -1.0046 -0.7456 -1.2246
  746MOL0     H  692   2.783   2.056   0.534  2.9460  0.4444 -1.2421
  746MOL0     H  693   2.547   1.980   0.490  0.4499  1.2828  1.8854
  746MOL0     H  694   1.762   0.548   1.142 -1.5638  0.3512  1.1418
  746MOL0     H  695   1.648   0.379   1.291 -1.8147 -2.0150 -0.0824
  746MOL0     H  696   1.428   0.003   1.339  0.6023  0.2349  2.0469
  746MOL0     H  697   1.287  -0.194   1.393  2.0475  0.9319  0.0818
  746MOL0     H  698   0.860  -0.298   1.429 -1.6306  0.7763 -3.1719
  746MOL0     H  699   0.852  -0.138   1.374  2.0440 -0.0380 -0.8909
  746MOL0     H  700   0.822  -0.048   1.600 -1.0088 -0.3413  1.3875
  746MOL0     H  701   0.901  -0.195   1.662  2.2676  0.6112 -1.7507
  746MOL0     H  702   0.675  -0.288   1.553  1.7344  0.1767  0.2761
  746MOL0     H  703   0.627  -0.118   1.550  3.2590  2.0963 -2.7134
  746MOL0     H  704   0.705  -0.287   1.803 -1.2609 -0.4477  0.6406
  746MOL0     H  705   0.648  -0.113   1.810 -1.1386 -1.0432  2.0506
  746MOL0     H  706   0.308  -0.367   1.729 -0.6273  2.4654 -0.9079
  746MOL0     H  707   0.950   0.063   1.442  0.9746  0.2343  0.6580
  746MOL0     H  708   0.946   0.273   1.352 -0.3271 -2.1692 -0.5049
  746MOL0     H  709   1.090   0.350   1.418 -1.5518 -1.3786  1.9770
  746MOL0     H  710   1.076   0.325   1.247 -2.1272  1.8221  0.6230
  747MOL0     O  711   0.620   4.720   7.259 -0.5347 -0.0004 -0.3888
  747MOL0     C  712   0.700   4.709   7.355 -0.2525  0.3654 -0.0238
  747MOL0     O  713   0.726   4.593   7.425 -0.1391 -0.4371 -0.0832
  747MOL0     C  714   0.689   4.484   7.358  1.1981  0.0525 -0.9228
  747MOL0     C  715   0.562   4.422   7.383  1.0336 -1.1421 -0.5804
  747MOL0     C  716   0.530   4.300   7.314  0.7068 -0.2037  0.0593
  747MOL0     C  717   0.624   4.238   7.231 -0.2501 -0.6600  0.5691
  747MOL0     O  718   0.611   4.106   7.177  0.5663 -0.7393 -1.0891
  747MOL0     C  719   0.479   4.070   7.130 -0.2917 -0.4990 -0.3572
  747MOL0     C  720   0.494   4.020   6.993 -0.5193 -0.0557  0.3279
  747MOL0     C  721   0.535   4.124   6.886 -0.7297  0.2603  0.2842
  747MOL0     C  722   0.503   4.085   6.736  0.1592 -0.6049 -0.9876
  747MOL0     C  723   0.569   4.179   6.641  0.1896 -0.0623 -0.2124
  747MOL0     C  724   0.468   4.205   6.524 -0.6018  0.0938 -1.5258
  747MOL0     C  725   0.511   4.329   6.439 -0.5376 -0.4859  0.7695
  747MOL0     C  726   0.411   4.382   6.334 -0.2310  0.5330  0.0782
  747MOL0     N  727   0.476   4.470   6.231 -0.2313  0.1716 -0.2348
  747MOL0     C  728   0.408   4.560   6.168 -0.1184  0.1088 -0.0751
  747MOL0     C  729   0.490   4.615   6.082  0.0629  0.8570  0.9049
  747MOL0     C  730   0.451   4.727   5.991 -0.0357  0.4831  0.1545
  747MOL0     C  731   0.411   4.854   6.071 -0.0831  0.1809 -0.3121
  747MOL0     C  732   0.529   4.943   6.113  0.6125  0.4843  0.2151
  747MOL0     C  733   0.653   4.876   6.153  0.1523  0.0351  0.5071
  747MOL0     O  734   0.764   4.949   6.214 -0.1955 -0.3011  1.2088
  747MOL0     C  735   0.738   5.029   6.317  0.3736  0.5153  0.4723
  747MOL0     C  736   0.637   5.007   6.411 -0.3138  0.6807  0.2523
  747MOL0     C  737   0.619   5.087   6.519  0.5009  0.3832 -0.0049
  747MOL0     C  738   0.705   5.195   6.535 -0.4361  0.7267  0.0421
  747MOL0     C  739   0.684   5.295   6.639  0.9746 -0.4257 -0.0120
  747MOL0     O  740   0.558   5.314   6.687 -0.2503  0.5859 -0.4432
  747MOL0     C  741   0.509   5.421   6.767  0.0277 -0.5656  0.1474
  747MOL0     C  742   0.572   5.551   6.774  0.2517 -0.1440  0.1071
  747MOL0     C  743   0.504   5.654   6.840 -0.3606  0.6391  0.0231
  747MOL0     C  744   0.386   5.632   6.909  0.4249  0.2119  0.5968
  747MOL0     O  745   0.331   5.736   6.969  0.0010 -0.2118 -0.3569
  747MOL0     C  746   0.192   5.753   6.989  0.0491  0.8050 -0.1871
  747MOL0     C  747   0.158   5.704   7.136 -0.7128  0.1960  0.4294
  747MOL0     C  748  -0.001   5.689   7.156 -0.4127 -0.4865  0.5718
  747MOL0     C  749  -0.019   5.644   7.298  0.5183  0.7181  0.1702
  747MOL0     C  750  -0.160   5.673   7.355 -0.6723 -0.1751 -0.4429
  747MOL0     C  751  -0.272   5.599   7.280  0.2851 -0.9481 -1.3420
  747MOL0     C  752  -0.394   5.705   7.281 -0.4436  0.7477  0.2223
  747MOL0     C  753  -0.378   5.813   7.178 -0.0306  0.4740  0.6436
  747MOL0    Cl  754  -0.340   5.775   7.007 -0.2735  0.7308  0.3154
  747MOL0     C  755   0.330   5.499   6.907  0.0282 -0.7865 -0.2773
  747MOL0     C  756   0.389   5.398   6.833  0.3012 -0.3964 -1.2351
  747MOL0     O  757   0.784   5.368   6.660 -0.5154  0.1122 -0.1030
  747MOL0     C  758   0.813   5.215   6.442  0.2724 -0.0818 -0.2132
  747MOL0     C  759   0.825   5.133   6.329 -0.3630  0.5029  0.1470
  747MOL0     N  760   0.612   4.550   6.080  0.4647 -0.0712  0.3124
  747MOL0     N  761   0.606   4.471   6.183 -1.4576 -0.6488  0.3228
  747MOL0     C  762   0.747   4.299   7.211 -0.0485 -0.5354 -0.1360
  747MOL0     C  763   0.780   4.422   7.272  0.0870 -0.7526  0.1304
  747MOL0     C  764   0.750   4.845   7.412 -0.0406  1.0215  0.1303
  747MOL0     C  765   0.678   4.963   7.381  0.3036  0.4814 -0.0232
  747MOL0     C  766   0.718   5.089   7.426  0.3593 -0.0158 -0.3138
  747MOL0     C  767   0.834   5.101   7.502  0.1454  0.7616  0.1768
  747MOL0     O  768   0.858   5.236   7.533 -0.5187 -0.8288 -0.6835
  747MOL0     C  769   0.962   5.272   7.630 -0.3249 -0.5473 -0.7230
  747MOL0     C  770   0.981   5.419   7.653 -0.8030 -0.5485 -0.1405
  747MOL0     C  771   0.850   5.507   7.667 -0.8469 -0.3372  0.6923
  747MOL0     C  772   0.884   5.661   7.690  0.5699  0.5016  0.4730
  747MOL0     C  773   0.976   5.662   7.804  0.4011  0.5108  0.4636
  747MOL0     C  774   1.056   5.667   7.893  0.2407 -0.0469 -0.0193
  747MOL0     C  775   0.920   4.992   7.511  0.1775  0.2817 -0.0288
  747MOL0     C  776   0.880   4.866   7.468  0.3295 -0.7942 -0.3060
  747MOL0     C  777   0.992   4.768   7.471  0.7312 -0.0540 -0.3332
  747MOL0     H  778   0.491   4.462   7.454  1.5368  0.2158 -0.8139
  747MOL0     H  779   0.430   4.261   7.332  0.5847 -0.2974 -0.7871
  747MOL0     H  780   0.430   3.992   7.189  1.1711  0.2956  2.0327
  747MOL0     H  781   0.407   4.153   7.125 -1.6219 -1.6569 -2.6765
  747MOL0     H  782   0.399   3.974   6.966 -1.5466  0.2525  3.0463
  747MOL0     H  783   0.563   3.935   6.993  1.4954  1.4460 -2.1219
  747MOL0     H  784   0.642   4.142   6.898 -0.3011 -1.4077 -0.6730
  747MOL0     H  785   0.487   4.221   6.904 -2.9062 -1.0866  2.2345
  747MOL0     H  786   0.545   3.986   6.714  3.2625  0.9398 -2.6156
  747MOL0     H  787   0.394   4.083   6.731  0.1598  0.2998 -1.3869
  747MOL0     H  788   0.601   4.273   6.688  0.4545  1.3206 -2.9086
  747MOL0     H  789   0.666   4.140   6.610  1.1697  2.0863 -0.0667
  747MOL0     H  790   0.442   4.119   6.462  0.7175 -0.1624 -1.7622
  747MOL0     H  791   0.378   4.228   6.580  1.3328  2.2926  0.9208
  747MOL0     H  792   0.596   4.294   6.380 -1.7493 -1.1087 -0.6894
  747MOL0     H  793   0.544   4.408   6.507  0.1641 -0.2674  0.1868
  747MOL0     H  794   0.358   4.299   6.286  0.8517 -1.2426  1.8140
  747MOL0     H  795   0.335   4.441   6.387 -0.6276  2.0668 -2.0587
  747MOL0     H  796   0.307   4.594   6.189 -0.4375 -0.6815 -0.2993
  747MOL0     H  797   0.537   4.744   5.926  2.6900 -2.0698  2.8233
  747MOL0     H  798   0.365   4.695   5.931  0.3204  1.9546 -1.2203
  747MOL0     H  799   0.348   4.915   6.006  2.0548  0.4733 -2.2622
  747MOL0     H  800   0.346   4.832   6.156  1.1161  1.5964  1.0438
  747MOL0     H  801   0.481   4.989   6.200 -0.8633 -0.9566  0.2080
  747MOL0     H  802   0.550   5.036   6.059  2.1593  0.3691  0.5722
  747MOL0     H  803   0.695   4.842   6.058 -3.3538  0.2549 -1.2744
  747MOL0     H  804   0.640   4.796   6.226 -0.7316  0.1023  0.4371
  747MOL0     H  805   0.572   4.921   6.396 -2.1690  2.1261 -0.3695
  747MOL0     H  806   0.539   5.083   6.592  0.9311  3.2509  0.7557
  747MOL0     H  807   0.661   5.573   6.715 -2.2759  1.5197 -3.5138
  747MOL0     H  808   0.552   5.751   6.844 -0.3466  0.8136 -2.5043
  747MOL0     H  809   0.163   5.858   6.998 -0.2865  0.7641 -0.7633
  747MOL0     H  810   0.123   5.708   6.917 -0.1713  0.1481  0.4116
  747MOL0     H  811   0.203   5.606   7.149  2.4639  1.2517 -1.4516
  747MOL0     H  812   0.207   5.770   7.209  0.8499  0.3662 -0.7242
  747MOL0     H  813  -0.048   5.786   7.139  0.4043 -0.3139 -0.8234
  747MOL0     H  814  -0.042   5.623   7.079  3.2914 -0.7901 -1.3626
  747MOL0     H  815   0.050   5.705   7.358  0.2181  4.2331 -2.6751
  747MOL0     H  816   0.014   5.541   7.308  2.1189  0.9721 -1.8955
  747MOL0     H  817  -0.175   5.781   7.342  1.1040  0.4624  2.1160
  747MOL0     H  818  -0.170   5.653   7.462 -0.0660  0.0317 -0.3460
  747MOL0     H  819  -0.240   5.545   7.190 -0.2752 -0.0798 -2.0852
  747MOL0     H  820  -0.307   5.518   7.345  0.2478 -0.3911 -0.6539
  747MOL0     H  821  -0.403   5.749   7.381 -0.2324 -0.6481  0.8853
  747MOL0     H  822  -0.491   5.657   7.265 -0.5773 -0.5891  3.9756
  747MOL0     H  823  -0.474   5.864   7.169 -2.0604 -2.6597  2.6504
  747MOL0     H  824  -0.304   5.884   7.216  1.0811 -0.9031  1.1179
  747MOL0     H  825   0.230   5.475   6.942  0.1135 -1.1586 -0.2806
  747MOL0     H  826   0.350   5.299   6.817 -2.6663  1.1353 -4.7933
  747MOL0     H  827   0.896   5.285   6.449 -1.0724  1.4335  2.0413
  747MOL0     H  828   0.908   5.134   6.259  0.3148 -1.0512  0.8803
  747MOL0     H  829   0.829   4.255   7.154  0.5620  2.4561 -1.7524
  747MOL0     H  830   0.869   4.473   7.238 -0.0291 -1.7615 -1.7892
  747MOL0     H  831   0.584   4.957   7.329 -1.2449 -4.2302  2.7233
  747MOL0     H  832   0.659   5.178   7.404 -3.6774 -0.0716  7.0705
  747MOL0     H  833   1.057   5.224   7.607 -0.1278 -0.4667 -0.1175
  747MOL0     H  834   0.927   5.220   7.720 -0.5309  0.1446 -0.3979
  747MOL0     H  835   1.034   5.450   7.562 -0.1443  0.4648  0.5637
  747MOL0     H  836   1.048   5.420   7.739  0.1017 -1.3227 -0.8060
  747MOL0     H  837   0.797   5.482   7.760 -1.1997 -0.2455  0.5207
  747MOL0     H  838   0.783   5.510   7.581 -1.1313 -3.9182  0.6575
  747MOL0     H  839   0.943   5.703   7.607  3.1755 -1.2225  1.3254
  747MOL0     H  840   0.791   5.716   7.704 -0.4122 -0.2905 -2.2680
  747MOL0     H  841   1.126   5.663   7.974  1.9120 -0.7716 -1.4238
  747MOL0     H  842   1.011   5.024   7.561 -0.5686  2.2076  0.1955
  747MOL0     H  843   0.964   4.671   7.512  0.5103 -0.3070 -1.0714
  747MOL0     H  844   1.041   4.757   7.375  1.0745  1.6102 -0.3814
  747MOL0     H  845   1.074   4.804   7.534  1.7185 -0.8204 -1.1523
  748MOL0     O  846   5.302   9.800   6.756 -0.0385 -0.6046 -0.1470
  748MOL0     C  847   5.341   9.721   6.672 -0.1258  0.3687 -0.2858
  748MOL0     O  848   5.267   9.670   6.569 -0.0445  0.2677 -0.5076
  748MOL0     C  849   5.157   9.741   6.528 -0.4064  0.0401 -0.9842
  748MOL0     C  850   5.146   9.885   6.536 -0.1035  0.3502  0.4706
  748MOL0     C  851   5.021   9.946   6.493 -0.8756 -0.0429 -0.8250
  748MOL0     C  852   4.920   9.865   6.451 -0.5839 -0.1135  0.5864
  748MOL0     O  853   4.813   9.935   6.417  0.3804 -0.3866  0.2632
  748MOL0     C  854   4.687   9.873   6.387  0.5528  0.5191 -0.2824
  748MOL0     C  855   4.584   9.977   6.326  0.3862  0.3945  0.1575
  748MOL0     C  856   4.638  10.073   6.219 -0.2097  0.6376  0.3583
  748MOL0     C  857   4.624  10.005   6.084 -0.7090  0.6775 -0.7484
  748MOL0     C  858   4.690  10.079   5.973 -0.3564  0.3520  0.0611
  748MOL0     C  859   4.847  10.071   5.961  0.0299 -0.2390 -0.3205
  748MOL0     C  860   4.899   9.938   5.902  0.2415  0.2598 -0.5471
  748MOL0     C  861   4.989   9.851   5.996  0.0789 -0.4958 -0.2095
  748MOL0     N  862   5.092   9.942   6.041 -0.2530  0.0241  0.3135
  748MOL0     C  863   5.158   9.925   6.160  0.5952  0.3888  0.8112
  748MOL0     C  864   5.260  10.011   6.153  0.8504 -0.0277 -0.2131
  748MOL0     C  865   5.351  10.035   6.262 -0.5453  0.0620 -0.1388
  748MOL0     C  866   5.466   9.919   6.270  0.7319 -0.5706  0.5634
  748MOL0     C  867   5.545   9.944   6.397 -1.4577 -0.2015  0.1639
  748MOL0     C  868   5.685   9.869   6.388  0.3490  0.0405  0.0116
  748MOL0     O  869   5.763   9.947   6.475 -0.4990  0.0234 -0.0082
  748MOL0     C  870   5.878   9.904   6.530  0.0046  0.1275  0.1392
  748MOL0     C  871   5.927   9.987   6.620  0.7042  0.3383 -0.6438
  748MOL0     C  872   6.029   9.945   6.708  0.0214 -1.1403  0.1987
  748MOL0     C  873   6.102   9.827   6.691 -0.2306  0.4870  0.8889
  748MOL0     C  874   6.215   9.797   6.769 -0.5308 -0.7462  0.0752
  748MOL0     O  875   6.298   9.694   6.715 -0.8035  0.6982 -0.7738
  748MOL0     C  876   6.390   9.642   6.794  0.1672 -0.0994  0.7559
  748MOL0     C  877   6.526   9.680   6.798 -0.1852 -0.0277  0.1217
  748MOL0     C  878   6.614   9.609   6.884 -0.0654 -0.8632  0.7880
  748MOL0     C  879   6.572   9.500   6.962 -0.5144  0.5776 -0.3335
  748MOL0     O  880   6.673   9.427   7.010  0.3848 -0.1665 -0.4014
  748MOL0     C  881   6.653   9.336   7.123 -0.1323  1.3680  0.6368
  748MOL0     C  882   6.679   9.190   7.084 -1.8707 -1.9212  0.8358
  748MOL0     C  883   6.567   9.141   6.995 -0.4244  0.3039 -0.4033
  748MOL0     C  884   6.595   8.994   6.955 -0.1424  0.0257  0.0318
  748MOL0     C  885   6.484   8.932   6.855 -0.0761 -0.9956 -0.0456
  748MOL0     C  886   6.536   8.790   6.804  0.1996  0.2290 -0.0052
  748MOL0     C  887   6.465   8.758   6.667 -0.7036  0.2327  0.1690
  748MOL0     C  888   6.530   8.636   6.601  0.2155  0.1862 -0.3976
  748MOL0    Cl  889   6.696   8.676   6.528  0.0523  0.2655  0.0060
  748MOL0     C  890   6.436   9.462   6.963 -0.7720  1.2089 -0.5911
  748MOL0     C  891   6.348   9.533   6.876 -0.2658  0.6225  0.2248
  748MOL0     O  892   6.247   9.859   6.870  0.6423 -0.2429 -0.0373
  748MOL0     C  893   6.039   9.730   6.605 -0.8834 -0.7389  0.2324
  748MOL0     C  894   5.933   9.777   6.526 -0.3503 -0.7735 -1.0505
  748MOL0     N  895   5.267  10.063   6.029 -0.5229  0.3438 -0.3785
  748MOL0     N  896   5.167  10.028   5.963  0.2922  0.0588  1.0353
  748MOL0     C  897   4.924   9.724   6.448 -1.1695  0.3324  0.4577
  748MOL0     C  898   5.044   9.663   6.488 -0.3710 -0.3115  0.6194
  748MOL0     C  899   5.476   9.660   6.698 -0.0832  0.8331  0.2423
  748MOL0     C  900   5.494   9.525   6.666  0.0225 -0.2177  0.0091
  748MOL0     C  901   5.621   9.467   6.679 -0.4401 -0.7084 -0.5249
  748MOL0     C  902   5.736   9.539   6.721  0.3826 -0.3772  0.6401
  748MOL0     O  903   5.861   9.497   6.746  0.2873 -0.0684 -0.1534
  748MOL0     C  904   5.877   9.358   6.742 -0.0305 -0.2908  0.1354
  748MOL0     C  905   6.013   9.337   6.812  0.2793  0.7335  0.1027
  748MOL0     C  906   6.062   9.194   6.808 -0.5744 -0.9518 -0.0494
  748MOL0     C  907   6.083   9.126   6.937  0.1581  0.4032 -0.0474
  748MOL0     C  908   5.971   9.123   7.037  0.1838  0.3490  0.4551
  748MOL0     C  909   5.870   9.134   7.114 -0.2004 -0.3987  0.7198
  748MOL0     C  910   5.712   9.673   6.753  0.8445 -0.1384  0.4829
  748MOL0     C  911   5.588   9.737   6.743  0.2827  0.5835 -0.6490
  748MOL0     C  912   5.573   9.882   6.784  0.0225  0.7210 -0.8144
  748MOL0     H  913   5.232   9.951   6.550  0.6560 -0.1258 -1.5534
  748MOL0     H  914   5.016  10.054   6.483  0.3295 -0.0971 -2.3449
  748MOL0     H  915   4.696   9.799   6.308  3.4797  0.1051  0.3057
  748MOL0     H  916   4.658   9.822   6.480  2.1962 -0.9633 -0.5169
  748MOL0     H  917   4.553  10.035   6.414  0.0381 -2.1813  1.8415
  748MOL0     H  918   4.496   9.920   6.298  1.7377 -1.8661  0.2192
  748MOL0     H  919   4.743  10.099   6.234  0.2586  0.3147 -1.9958
  748MOL0     H  920   4.569  10.157   6.230 -3.2734 -1.7856  1.4143
  748MOL0     H  921   4.661   9.904   6.098 -2.1840  0.3947  1.8362
  748MOL0     H  922   4.521  10.004   6.046 -1.5031  2.5398  1.1206
  748MOL0     H  923   4.647  10.035   5.882 -0.9195 -1.8307  1.3236
  748MOL0     H  924   4.661  10.185   5.968  0.4223  0.5313 -1.0306
  748MOL0     H  925   4.877  10.146   5.887 -0.0610  0.0708 -0.0446
  748MOL0     H  926   4.900  10.091   6.054  1.3492 -1.4574 -0.7692
  748MOL0     H  927   4.967   9.967   5.821  1.5962 -1.5436 -0.1169
  748MOL0     H  928   4.826   9.868   5.860  0.3039 -0.4624  0.5171
  748MOL0     H  929   4.937   9.819   6.086  1.4805 -0.6520  0.5732
  748MOL0     H  930   5.032   9.764   5.946  2.0684  0.2241  0.1631
  748MOL0     H  931   5.125   9.855   6.237  1.2122 -2.3535 -1.2800
  748MOL0     H  932   5.405  10.128   6.240 -1.2460 -0.1045 -2.8792
  748MOL0     H  933   5.299  10.046   6.358 -2.2466  1.5345 -1.1668
  748MOL0     H  934   5.422   9.819   6.264 -0.3782 -0.0822  0.3795
  748MOL0     H  935   5.528   9.932   6.181  0.4239 -1.3931  0.2262
  748MOL0     H  936   5.486   9.912   6.483 -2.4635  2.6485  0.6497
  748MOL0     H  937   5.576  10.049   6.399  0.0146 -0.5943 -0.5882
  748MOL0     H  938   5.726   9.882   6.288 -0.0763  1.6763  0.0207
  748MOL0     H  939   5.666   9.763   6.410 -0.1058 -0.3043 -1.8774
  748MOL0     H  940   5.880  10.082   6.643  0.4881  0.2091 -0.5460
  748MOL0     H  941   6.073  10.020   6.773  0.8515  0.1210 -1.7297
  748MOL0     H  942   6.561   9.766   6.742 -0.1780  0.5454  0.9884
  748MOL0     H  943   6.712   9.655   6.887 -0.2207 -0.4573 -0.0121
  748MOL0     H  944   6.721   9.372   7.201  2.1713 -1.2612 -0.0006
  748MOL0     H  945   6.555   9.347   7.171 -0.6034  0.2478 -0.0139
  748MOL0     H  946   6.775   9.184   7.031 -1.7434 -1.2189  0.9787
  748MOL0     H  947   6.700   9.128   7.171  4.7768  0.5527  1.5574
  748MOL0     H  948   6.479   9.141   7.060  1.7304 -1.4989  2.8154
  748MOL0     H  949   6.545   9.211   6.914  1.6679  2.2483  0.6020
  748MOL0     H  950   6.603   8.936   7.047 -1.7074 -0.7467 -0.2981
  748MOL0     H  951   6.694   9.002   6.907  0.0414  2.0955  0.6824
  748MOL0     H  952   6.480   8.999   6.768 -0.3734 -0.5034  0.3453
  748MOL0     H  953   6.393   8.928   6.915 -1.6097 -3.4089 -2.2904
  748MOL0     H  954   6.644   8.800   6.784  0.4133  1.1951  1.4973
  748MOL0     H  955   6.522   8.711   6.878  2.5829 -0.6749 -0.4302
  748MOL0     H  956   6.476   8.846   6.602  3.2143 -0.4871 -0.4002
  748MOL0     H  957   6.357   8.749   6.683 -0.8309  0.7687 -0.3425
  748MOL0     H  958   6.524   8.555   6.674 -1.1420 -0.1044 -0.8084
  748MOL0     H  959   6.459   8.599   6.526 -1.3541 -0.7605  1.4676
  748MOL0     H  960   6.391   9.385   7.025 -1.1327  0.4089 -1.8074
  748MOL0     H  961   6.248   9.493   6.877 -1.7174  3.9281  0.8065
  748MOL0     H  962   6.071   9.626   6.601  1.2993 -0.2076  1.9703
  748MOL0     H  963   5.892   9.697   6.465  0.7302 -0.0911 -2.7365
  748MOL0     H  964   4.832   9.674   6.416 -0.8034  0.4650 -0.8876
  748MOL0     H  965   5.062   9.556   6.484 -1.7781 -0.5306 -0.4985
  748MOL0     H  966   5.412   9.462   6.631 -1.0227  0.0999  1.7821
  748MOL0     H  967   5.624   9.358   6.671 -1.4381 -0.8651  0.8485
  748MOL0     H  968   5.871   9.334   6.636 -1.7117 -0.7085  0.2954
  748MOL0     H  969   5.794   9.320   6.803  0.5838 -1.0475  0.5119
  748MOL0     H  970   6.008   9.367   6.917 -0.4054 -0.8503  0.5473
  748MOL0     H  971   6.093   9.387   6.756  1.0938  1.4711  1.8453
  748MOL0     H  972   6.157   9.177   6.756  0.2814 -0.2076  1.2325
  748MOL0     H  973   5.988   9.137   6.751 -1.0772 -1.8412  1.4239
  748MOL0     H  974   6.117   9.027   6.907 -1.6727  0.3389 -2.1413
  748MOL0     H  975   6.161   9.184   6.987 -0.2623  0.2890  0.7561
  748MOL0     H  976   5.790   9.143   7.185 -1.0451  0.7233 -0.3307
  748MOL0     H  977   5.797   9.725   6.795  0.1370  1.6938 -0.2228
  748MOL0     H  978   5.552   9.885   6.891  0.3968  1.6163 -0.7533
  748MOL0     H  979   5.669   9.927   6.758  0.2668 -0.6901 -2.5593
  748MOL0     H  980   5.499   9.945   6.734 -1.6474  1.8233  2.7083
  749MOL0     O  981   2.062   7.360   6.854 -0.5453  0.8547  0.3900
  749MOL0     C  982   2.151   7.339   6.776 -0.2653  0.1848  0.1093
  749MOL0     O  983   2.135   7.281   6.653 -0.1253  0.0840  0.3626
  749MOL0     C  984   2.023   7.221   6.606 -0.5383  0.7602  0.2176
  749MOL0     C  985   1.912   7.173   6.688  0.7988  0.8616  0.0504
  749MOL0     C  986   1.802   7.108   6.630  0.2787 -0.3401  1.1911
  749MOL0     C  987   1.786   7.109   6.488  0.1469 -0.3267 -0.8060
  749MOL0     O  988   1.676   7.050   6.445 -0.1409  0.3434  0.8237
  749MOL0     C  989   1.629   7.084   6.311 -0.1535 -1.0929  0.3005
  749MOL0     C  990   1.505   7.004   6.278 -0.5420  0.1225  0.8597
  749MOL0     C  991   1.546   6.858   6.252  0.2483 -0.0836  0.1784
  749MOL0     C  992   1.429   6.773   6.199 -0.7215 -0.0833 -0.2437
  749MOL0     C  993   1.472   6.625   6.224  0.2286 -0.6034  0.3178
  749MOL0     C  994   1.360   6.522   6.191  1.1612  0.2142  0.0871
  749MOL0     C  995   1.319   6.502   6.041 -0.3742 -0.7600  0.1276
  749MOL0     C  996   1.424   6.420   5.963 -0.2105 -0.5518  0.5388
  749MOL0     N  997   1.380   6.435   5.817 -0.0462  0.3766  0.2157
  749MOL0     C  998   1.474   6.448   5.720 -0.1410 -0.0864  0.1267
  749MOL0     C  999   1.407   6.420   5.606 -0.4430 -0.9902  0.0130
  749MOL0     C 1000   1.479   6.424   5.474  0.7371 -0.3052  0.1199
  749MOL0     C 1001   1.455   6.546   5.381 -0.9856  0.2971 -0.5146
  749MOL0     C 1002   1.510   6.675   5.441 -0.2709  0.3366 -0.4412
  749MOL0     C 1003   1.657   6.667   5.489  0.2072  0.0956  0.4898
  749MOL0     O 1004   1.704   6.806   5.506 -0.0064 -0.5482  0.0485
  749MOL0     C 1005   1.841   6.825   5.526  0.2838  0.3968 -0.0055
  749MOL0     C 1006   1.884   6.961   5.510 -0.6910 -0.4925 -0.3717
  749MOL0     C 1007   2.016   6.999   5.534 -0.4764  0.1544  0.0735
  749MOL0     C 1008   2.111   6.901   5.576 -0.2170  1.7847 -0.1630
  749MOL0     C 1009   2.251   6.936   5.588 -0.3860  0.4223  0.2354
  749MOL0     O 1010   2.335   6.828   5.621  0.2444 -0.2741 -0.0507
  749MOL0     C 1011   2.472   6.845   5.635 -0.1187 -0.9607  0.3036
  749MOL0     C 1012   2.529   6.761   5.732  0.2685 -0.6123  0.5093
  749MOL0     C 1013   2.672   6.751   5.748  0.4273  0.1122 -0.7121
  749MOL0     C 1014   2.756   6.840   5.688  0.7569  0.4461  0.6498
  749MOL0     O 1015   2.888   6.833   5.712 -0.4969  0.4658  0.0943
  749MOL0     C 1016   2.989   6.890   5.619 -0.0078  0.2859  0.5196
  749MOL0     C 1017   3.131   6.845   5.650  0.4162 -0.4531  1.0019
  749MOL0     C 1018   3.158   6.694   5.661  0.1832 -0.5276  0.0934
  749MOL0     C 1019   3.308   6.667   5.687  0.1931 -0.1236  0.0703
  749MOL0     C 1020   3.383   6.721   5.565 -0.7406  0.1492  0.4842
  749MOL0     C 1021   3.512   6.652   5.569  0.0767  0.3582  0.0669
  749MOL0     C 1022   3.604   6.715   5.471 -0.6222  0.1439  0.8788
  749MOL0     C 1023   3.745   6.673   5.494  0.4089 -0.2681  0.1942
  749MOL0    Cl 1024   3.795   6.702   5.659 -0.0770 -0.2891  0.0924
  749MOL0     C 1025   2.699   6.927   5.592 -0.6790  0.4191 -0.3703
  749MOL0     C 1026   2.564   6.926   5.565  0.0994 -0.5434 -0.9121
  749MOL0     O 1027   2.293   7.047   5.572  0.3392  0.3033  0.6376
  749MOL0     C 1028   2.069   6.771   5.589  0.1555  0.5963  1.1081
  749MOL0     C 1029   1.940   6.734   5.566  0.0507 -0.0909  0.0693
  749MOL0     N 1030   1.278   6.366   5.631  0.3247 -0.0221  0.4949
  749MOL0     N 1031   1.259   6.388   5.760 -0.5675 -0.7546  0.0875
  749MOL0     C 1032   1.880   7.169   6.409 -0.6318  0.6774 -0.6062
  749MOL0     C 1033   1.999   7.217   6.465  0.2335 -0.8655  0.2985
  749MOL0     C 1034   2.284   7.387   6.811  1.0413  1.4779 -0.5716
  749MOL0     C 1035   2.323   7.384   6.945 -0.6689  0.2359  0.3918
  749MOL0     C 1036   2.451   7.418   6.985  0.2959  0.7285  0.7012
  749MOL0     C 1037   2.549   7.447   6.885 -0.4805  1.1104 -0.5305
  749MOL0     O 1038   2.681   7.460   6.908 -1.5855  0.8578  0.3904
  749MOL0     C 1039   2.724   7.451   7.044 -0.1909 -0.2794  0.6186
  749MOL0     C 1040   2.880   7.469   7.053 -0.7832  0.2539  0.5488
  749MOL0     C 1041   2.922   7.620   7.064 -0.2290 -0.2198 -0.0968
  749MOL0     C 1042   2.884   7.700   6.941  0.0894  0.1084 -0.0359
  749MOL0     C 1043   2.981   7.809   6.921  0.0146 -0.5131 -0.0756
  749MOL0     C 1044   3.063   7.894   6.899  0.7476 -0.5059 -0.7238
  749MOL0     C 1045   2.504   7.453   6.753 -0.3868 -0.4896 -0.0816
  749MOL0     C 1046   2.376   7.431   6.711  0.5005  0.1797 -1.4478
  749MOL0     C 1047   2.344   7.466   6.571  0.4202 -0.7757 -0.5088
  749MOL0     H 1048   1.907   7.170   6.796  2.8205  1.3605  0.1985
  749MOL0     H 1049   1.729   7.054   6.691  0.5607 -1.9531  0.1638
  749MOL0     H 1050   1.609   7.191   6.318  1.7507 -0.7692  1.6877
  749MOL0     H 1051   1.710   7.062   6.241  0.4389 -0.1262  0.6656
  749MOL0     H 1052   1.445   7.030   6.190 -0.4475 -1.6233  0.2325
  749MOL0     H 1053   1.442   7.001   6.368 -1.6264 -1.1779  0.0985
  749MOL0     H 1054   1.577   6.814   6.347 -1.5739  2.7687  2.2408
  749MOL0     H 1055   1.620   6.851   6.172 -1.0352 -0.7482 -0.9975
  749MOL0     H 1056   1.339   6.803   6.253 -0.1935  0.6462  0.2714
  749MOL0     H 1057   1.404   6.791   6.094 -1.3220 -2.5732 -0.5855
  749MOL0     H 1058   1.568   6.593   6.183  0.8627 -2.5255  2.9924
  749MOL0     H 1059   1.489   6.623   6.332 -1.3506  0.4446  0.6254
  749MOL0     H 1060   1.392   6.426   6.231  2.4574  0.7626  0.4290
  749MOL0     H 1061   1.278   6.547   6.259  0.5762 -0.5978 -0.3098
  749MOL0     H 1062   1.303   6.595   5.986 -2.1444 -2.7997 -3.0994
  749MOL0     H 1063   1.227   6.443   6.038 -0.4786 -0.9511  3.1326
  749MOL0     H 1064   1.510   6.482   5.990 -1.2384  0.2701  2.0755
  749MOL0     H 1065   1.449   6.318   5.995 -1.6093 -0.8494  0.7197
  749MOL0     H 1066   1.581   6.466   5.725 -0.1852  0.1378  0.2766
  749MOL0     H 1067   1.587   6.421   5.495  0.5073  0.7860  1.6259
  749MOL0     H 1068   1.454   6.330   5.424  1.0390  0.5832 -1.7968
  749MOL0     H 1069   1.506   6.538   5.285  0.6267  4.0097 -0.1355
  749MOL0     H 1070   1.346   6.554   5.371 -1.2168  2.2989  2.3144
  749MOL0     H 1071   1.439   6.691   5.524  1.5535  0.7878  1.1063
  749MOL0     H 1072   1.504   6.757   5.369 -2.4171  1.6012  1.0604
  749MOL0     H 1073   1.703   6.608   5.410 -4.6204 -1.2855 -1.7075
  749MOL0     H 1074   1.663   6.614   5.585  0.3236  0.2335  0.5604
  749MOL0     H 1075   1.808   7.035   5.487  0.0688 -0.1295 -1.8019
  749MOL0     H 1076   2.038   7.105   5.531 -2.6517  0.7625  2.2286
  749MOL0     H 1077   2.479   6.687   5.793  0.6458 -1.5935 -0.3537
  749MOL0     H 1078   2.716   6.688   5.824 -2.0424  1.7095  2.2295
  749MOL0     H 1079   2.956   6.866   5.517  1.8745 -0.5387  0.0624
  749MOL0     H 1080   2.989   6.999   5.625  1.3239  0.4216 -1.0734
  749MOL0     H 1081   3.189   6.888   5.567 -1.4958  0.3038 -0.0041
  749MOL0     H 1082   3.165   6.890   5.743  1.6223  1.4139 -0.2747
  749MOL0     H 1083   3.105   6.656   5.748 -1.1588  1.4024  0.1918
  749MOL0     H 1084   3.122   6.650   5.567 -1.5150 -0.0730  0.4892
  749MOL0     H 1085   3.337   6.562   5.694  2.0860  0.2083 -1.8431
  749MOL0     H 1086   3.349   6.714   5.776  0.2960 -0.2943  0.1146
  749MOL0     H 1087   3.394   6.830   5.569 -0.7998  0.1428  0.9398
  749MOL0     H 1088   3.333   6.700   5.471  0.7577  2.5555 -0.9547
  749MOL0     H 1089   3.548   6.669   5.671  0.3911  1.0043 -0.1433
  749MOL0     H 1090   3.499   6.544   5.558  1.7299  0.3328 -2.6448
  749MOL0     H 1091   3.599   6.823   5.486  0.0634  0.4211 -0.6915
  749MOL0     H 1092   3.578   6.683   5.369  0.0129  2.0251  0.0895
  749MOL0     H 1093   3.750   6.567   5.469 -0.3925 -0.8920  2.4609
  749MOL0     H 1094   3.823   6.723   5.435  0.7903 -1.5053 -0.3871
  749MOL0     H 1095   2.752   7.011   5.548 -1.7574  1.5055  0.3730
  749MOL0     H 1096   2.520   7.010   5.511 -1.5302 -0.4387  0.4755
  749MOL0     H 1097   2.129   6.685   5.618  1.1613  0.1208 -1.9877
  749MOL0     H 1098   1.917   6.629   5.573  0.7245 -0.3168 -0.8541
  749MOL0     H 1099   1.873   7.176   6.300 -1.7255  1.1336 -0.5188
  749MOL0     H 1100   2.064   7.270   6.397 -0.4334 -2.5578 -1.7647
  749MOL0     H 1101   2.259   7.359   7.029  0.2411 -1.9700  0.4894
  749MOL0     H 1102   2.477   7.415   7.091 -1.1858 -1.5456  1.0753
  749MOL0     H 1103   2.696   7.353   7.084 -2.1798  1.2567  3.2911
  749MOL0     H 1104   2.685   7.535   7.103  1.6149 -1.2502  3.4130
  749MOL0     H 1105   2.938   7.415   6.978  1.7551  1.4228  1.5271
  749MOL0     H 1106   2.910   7.424   7.148 -2.5810  0.4640  1.2648
  749MOL0     H 1107   3.029   7.618   7.086 -0.4914 -1.7965  1.2550
  749MOL0     H 1108   2.880   7.667   7.153 -0.8535 -0.0017 -0.4991
  749MOL0     H 1109   2.888   7.632   6.855 -4.6218  1.7160 -1.8221
  749MOL0     H 1110   2.779   7.729   6.948  0.0329 -0.2898  0.9891
  749MOL0     H 1111   3.131   7.976   6.905 -0.2663  0.2702  0.7885
  749MOL0     H 1112   2.583   7.489   6.688 -0.1981 -0.8023 -0.0308
  749MOL0     H 1113   2.420   7.519   6.513 -1.7458  3.1585 -0.1035
  749MOL0     H 1114   2.328   7.374   6.515 -1.3250  0.7620 -2.7026
  749MOL0     H 1115   2.259   7.534   6.559  0.1834 -1.2496 -1.5686
  750MOL0     O 1116   5.101   5.501   1.489 -0.4979 -0.0887 -0.6771
  750MOL0     C 1117   5.120   5.438   1.382 -0.1050 -0.6657  0.4946
  750MOL0     O 1118   5.020   5.384   1.298 -0.3321 -0.1962 -0.3461
  750MOL0     C 1119   4.904   5.349   1.362 -1.3292  0.2987 -0.1150
  750MOL0     C 1120   4.895   5.281   1.487 -0.7307  0.3941  0.3982
  750MOL0     C 1121   4.773   5.239   1.542 -0.0204 -0.1638 -0.0283
  750MOL0     C 1122   4.660   5.253   1.464  0.9375 -0.1906  0.6273
  750MOL0     O 1123   4.547   5.196   1.514 -0.2994 -0.1793  0.0439
  750MOL0     C 1124   4.421   5.248   1.479  0.3821  0.8191  1.1655
  750MOL0     C 1125   4.303   5.176   1.537 -0.3476 -0.5864  0.2357
  750MOL0     C 1126   4.169   5.217   1.476  0.3021  0.7311 -0.5517
  750MOL0     C 1127   4.053   5.149   1.559  0.5335 -0.5796  0.9785
  750MOL0     C 1128   3.911   5.213   1.522  0.2533 -0.5956 -0.6927
  750MOL0     C 1129   3.794   5.129   1.590  0.4316  0.3933 -0.2136
  750MOL0     C 1130   3.797   5.134   1.747  0.1258  0.8976 -0.3939
  750MOL0     C 1131   3.753   5.262   1.816 -0.2975  0.0159  0.0656
  750MOL0     N 1132   3.736   5.235   1.958 -0.3640  0.4677 -0.4145
  750MOL0     C 1133   3.829   5.204   2.052  0.6913 -0.5958 -0.2182
  750MOL0     C 1134   3.762   5.173   2.166 -0.9531 -0.4743  0.3472
  750MOL0     C 1135   3.812   5.116   2.286 -0.9329 -0.8395 -0.2279
  750MOL0     C 1136   3.836   4.962   2.279 -0.5218 -0.7137 -0.7477
  750MOL0     C 1137   3.895   4.917   2.414  0.4748  0.4776 -0.0700
  750MOL0     C 1138   3.913   4.762   2.410  0.7773 -0.5180 -0.1136
  750MOL0     O 1139   4.029   4.710   2.342 -0.0739  0.0008 -0.5231
  750MOL0     C 1140   4.153   4.739   2.412 -0.2672  0.1554  0.6533
  750MOL0     C 1141   4.164   4.758   2.551 -0.5772  0.3758  0.5358
  750MOL0     C 1142   4.288   4.808   2.599  0.1281 -1.2954 -0.0295
  750MOL0     C 1143   4.388   4.862   2.514 -0.2291  0.2935 -0.2757
  750MOL0     C 1144   4.519   4.921   2.572  0.0616 -1.2769  0.2658
  750MOL0     O 1145   4.629   4.920   2.492 -0.2078  0.4117  0.3042
  750MOL0     C 1146   4.764   4.952   2.529  1.2615  0.4281 -0.5361
  750MOL0     C 1147   4.854   4.982   2.430  0.4753 -0.2799 -0.5880
  750MOL0     C 1148   4.992   5.005   2.447  0.5193 -0.4339 -0.6965
  750MOL0     C 1149   5.039   5.008   2.575 -0.4523  0.7588  0.8616
  750MOL0     O 1150   5.169   5.034   2.607  0.3294  0.8096 -0.5703
  750MOL0     C 1151   5.236   5.131   2.523  0.5324  0.2284 -0.6917
  750MOL0     C 1152   5.164   5.268   2.518 -0.4312  0.1461 -0.1323
  750MOL0     C 1153   5.233   5.351   2.406 -0.1751 -0.5897 -0.2303
  750MOL0     C 1154   5.164   5.490   2.403 -0.0118  0.2205  0.2641
  750MOL0     C 1155   5.250   5.579   2.311 -0.2093  1.0230  0.6136
  750MOL0     C 1156   5.175   5.703   2.259 -0.2696  0.5049 -0.0371
  750MOL0     C 1157   5.270   5.809   2.198  0.3548  0.2100 -0.2995
  750MOL0     C 1158   5.318   5.790   2.059  0.1838  0.5124  0.2222
  750MOL0    Cl 1159   5.186   5.745   1.955  0.7678  0.3783 -0.2950
  750MOL0     C 1160   4.957   4.957   2.677  0.1431  0.7189 -0.4030
  750MOL0     C 1161   4.821   4.932   2.653 -0.1263 -0.0957  0.5822
  750MOL0     O 1162   4.520   4.951   2.690 -0.0884 -0.0954  0.0096
  750MOL0     C 1163   4.383   4.831   2.378 -0.2706 -0.1850  0.1376
  750MOL0     C 1164   4.263   4.768   2.335  0.0382 -0.5942 -0.0752
  750MOL0     N 1165   3.631   5.189   2.144 -0.3430 -0.3719  0.4282
  750MOL0     N 1166   3.613   5.228   2.021 -0.5149 -0.3966  0.2019
  750MOL0     C 1167   4.664   5.329   1.347  0.2053 -0.8565 -0.3221
  750MOL0     C 1168   4.785   5.376   1.296 -0.7128  0.5049 -0.3109
  750MOL0     C 1169   5.262   5.449   1.328 -0.5482 -0.3161 -0.0580
  750MOL0     C 1170   5.294   5.389   1.203 -0.6721  0.3868 -0.0626
  750MOL0     C 1171   5.423   5.372   1.157 -0.6790 -0.4522  0.0170
  750MOL0     C 1172   5.538   5.427   1.219  1.1294  0.7096  0.1516
  750MOL0     O 1173   5.661   5.427   1.177 -0.4693  0.1393  0.3064
  750MOL0     C 1174   5.754   5.370   1.277  0.3876  0.0838  0.3829
  750MOL0     C 1175   5.882   5.457   1.269 -0.1485 -0.8218  0.3657
  750MOL0     C 1176   5.988   5.394   1.358  0.2650  0.0502 -1.3446
  750MOL0     C 1177   6.132   5.453   1.336  0.0011  1.1418  0.0817
  750MOL0     C 1178   6.135   5.586   1.393  0.3776  0.1216 -0.7372
  750MOL0     C 1179   6.115   5.694   1.446 -0.7006  0.5530  0.1874
  750MOL0     C 1180   5.508   5.479   1.348 -0.0336 -0.1265  1.3527
  750MOL0     C 1181   5.377   5.482   1.404 -0.2402 -0.5548 -0.2973
  750MOL0     C 1182   5.373   5.516   1.548 -0.2481 -0.0517 -0.2586
  750MOL0     H 1183   4.985   5.288   1.549  1.8318  1.9243 -3.1419
  750MOL0     H 1184   4.764   5.179   1.632 -0.2354 -0.9962 -0.5963
  750MOL0     H 1185   4.410   5.357   1.486 -0.2581  0.9684 -1.1298
  750MOL0     H 1186   4.398   5.231   1.373 -1.8500  2.0381  1.3972
  750MOL0     H 1187   4.305   5.213   1.640  3.6302  1.1004 -0.2750
  750MOL0     H 1188   4.323   5.069   1.543 -1.2480 -0.7790 -0.0630
  750MOL0     H 1189   4.178   5.165   1.381 -0.8213 -3.1072  1.2418
  750MOL0     H 1190   4.153   5.325   1.469 -1.7870  0.6210  1.3401
  750MOL0     H 1191   4.053   5.044   1.531 -4.0221 -0.6746  0.7382
  750MOL0     H 1192   4.075   5.151   1.667  4.1399 -4.5844  0.6055
  750MOL0     H 1193   3.907   5.319   1.550  2.5844 -0.1968 -1.6507
  750MOL0     H 1194   3.895   5.221   1.415  0.6391  1.0607 -0.6624
  750MOL0     H 1195   3.704   5.175   1.548 -0.6293 -3.2598 -2.4532
  750MOL0     H 1196   3.798   5.028   1.547 -1.2790 -0.8154  2.2200
  750MOL0     H 1197   3.894   5.097   1.782  0.9577  3.0825 -0.1869
  750MOL0     H 1198   3.715   5.067   1.773 -0.0511  1.2291 -0.0957
  750MOL0     H 1199   3.832   5.337   1.806  2.6862 -2.9518 -0.2170
  750MOL0     H 1200   3.659   5.295   1.771  0.0138  3.0761  1.4273
  750MOL0     H 1201   3.937   5.196   2.047  1.1338  3.0052  0.9772
  750MOL0     H 1202   3.912   5.153   2.310 -0.1091 -2.0798 -1.5277
  750MOL0     H 1203   3.749   5.141   2.372 -1.4931 -0.9290 -0.6093
  750MOL0     H 1204   3.745   4.905   2.261 -1.2758  0.3114 -0.2832
  750MOL0     H 1205   3.900   4.930   2.196  1.7364  3.2003 -0.7788
  750MOL0     H 1206   3.823   4.945   2.492 -1.4820 -2.4875 -0.6457
  750MOL0     H 1207   3.994   4.961   2.427  0.1000  1.5020 -0.5127
  750MOL0     H 1208   3.823   4.727   2.358  0.0350  2.3440 -0.9154
  750MOL0     H 1209   3.915   4.735   2.516 -1.7364  1.6899  0.5909
  750MOL0     H 1210   4.089   4.716   2.617 -0.6555 -0.4083 -0.0399
  750MOL0     H 1211   4.308   4.803   2.706  1.1675 -1.8756 -0.2327
  750MOL0     H 1212   4.825   4.993   2.326  0.7284 -1.0737 -0.7431
  750MOL0     H 1213   5.048   5.046   2.363  0.5246  0.3938 -0.2971
  750MOL0     H 1214   5.341   5.133   2.554  0.4573 -0.3450 -0.3900
  750MOL0     H 1215   5.244   5.086   2.424  2.9714 -1.0153 -0.0055
  750MOL0     H 1216   5.058   5.253   2.494 -0.2530 -1.1184 -0.1880
  750MOL0     H 1217   5.178   5.315   2.616  0.6314  0.1113 -0.2529
  750MOL0     H 1218   5.342   5.350   2.420 -0.1939 -0.5836 -0.0876
  750MOL0     H 1219   5.212   5.305   2.309  0.3892 -0.1977 -0.5457
  750MOL0     H 1220   5.160   5.534   2.503  0.1946  0.9671 -0.0511
  750MOL0     H 1221   5.058   5.489   2.376 -0.0685 -4.5464 -0.0838
  750MOL0     H 1222   5.278   5.530   2.217 -1.3907 -2.9338  2.1223
  750MOL0     H 1223   5.342   5.602   2.367 -1.2564  2.2719  1.8953
  750MOL0     H 1224   5.101   5.657   2.193 -0.9202 -1.2645  1.8291
  750MOL0     H 1225   5.126   5.756   2.341  2.1662  1.7439  0.7154
  750MOL0     H 1226   5.356   5.831   2.262  0.4708  4.1473 -1.5594
  750MOL0     H 1227   5.205   5.896   2.199 -1.2811 -0.9168  2.4807
  750MOL0     H 1228   5.357   5.889   2.033  0.2489  1.3672  3.1999
  750MOL0     H 1229   5.399   5.718   2.047 -1.4043 -1.0150 -2.1039
  750MOL0     H 1230   5.000   4.946   2.776  1.4725  2.0428 -0.8101
  750MOL0     H 1231   4.762   4.915   2.742  1.3345  2.0508  2.0625
  750MOL0     H 1232   4.451   4.860   2.298 -1.8163  0.1225 -1.1279
  750MOL0     H 1233   4.232   4.749   2.233  0.9469 -1.3432 -0.2369
  750MOL0     H 1234   4.582   5.334   1.276 -1.2396 -0.7203  1.2966
  750MOL0     H 1235   4.783   5.414   1.194 -3.9633  1.8483  0.1521
  750MOL0     H 1236   5.222   5.351   1.131 -1.3805 -1.2682  1.4462
  750MOL0     H 1237   5.456   5.322   1.067  3.0252 -0.6695  1.2972
  750MOL0     H 1238   5.782   5.269   1.244  0.8787  0.9077 -1.9295
  750MOL0     H 1239   5.711   5.367   1.378  0.1116 -1.6054  0.2405
  750MOL0     H 1240   5.870   5.563   1.295  1.8973 -0.8177  1.4654
  750MOL0     H 1241   5.908   5.448   1.163 -1.3335 -0.5618  0.0305
  750MOL0     H 1242   6.009   5.288   1.345  3.2577  0.4416 -0.3910
  750MOL0     H 1243   5.950   5.401   1.460  0.1669  0.1361 -1.3859
  750MOL0     H 1244   6.199   5.376   1.376 -3.0777 -1.3425  0.8426
  750MOL0     H 1245   6.157   5.455   1.229  1.0019 -1.6925  0.1686
  750MOL0     H 1246   6.089   5.784   1.498 -0.4172 -0.4315  2.1081
  750MOL0     H 1247   5.594   5.524   1.398 -0.0304  1.2396  0.1783
  750MOL0     H 1248   5.296   5.453   1.594 -1.8741  0.5183 -2.0116
  750MOL0     H 1249   5.469   5.493   1.593 -0.0079  2.4214  0.6344
  750MOL0     H 1250   5.346   5.621   1.563 -1.5660 -0.1008 -1.9089
  751MOL0     O 1251   9.349   4.971   4.296 -0.5392 -0.2152  0.4201
  751MOL0     C 1252   9.257   5.036   4.338  0.1192  0.7947 -0.4075
  751MOL0     O 1253   9.239   5.171   4.315  0.1213  0.0527 -0.2041
  751MOL0     C 1254   9.337   5.257   4.281  0.4386 -1.0606  0.3925
  751MOL0     C 1255   9.450   5.235   4.202 -0.0977  0.1529  0.2647
  751MOL0     C 1256   9.560   5.322   4.186  0.7775  0.2198  0.0293
  751MOL0     C 1257   9.549   5.449   4.248 -0.4424  0.4953  0.6863
  751MOL0     O 1258   9.663   5.533   4.254  0.6216  1.2989 -0.8234
  751MOL0     C 1259   9.780   5.469   4.313  0.8813  0.0944  0.3783
  751MOL0     C 1260   9.799   5.506   4.460  0.1403  0.7334 -0.2950
  751MOL0     C 1261   9.874   5.643   4.470  0.1265  0.0952  1.1506
  751MOL0     C 1262  10.023   5.617   4.485  0.1199 -0.0991 -0.4976
  751MOL0     C 1263  10.107   5.744   4.472 -0.4319 -0.1214 -0.3562
  751MOL0     C 1264  10.251   5.725   4.499 -0.0332  0.2442  0.3167
  751MOL0     C 1265  10.318   5.673   4.370 -0.1372  0.0994 -0.1294
  751MOL0     C 1266  10.419   5.567   4.395 -0.4579 -0.0580  0.6054
  751MOL0     N 1267  10.540   5.630   4.452 -0.1208  0.8426  0.2401
  751MOL0     C 1268  10.570   5.618   4.584  0.5682 -0.5306  0.6634
  751MOL0     C 1269  10.662   5.707   4.602 -0.8423 -1.7099 -0.1503
  751MOL0     C 1270  10.734   5.759   4.731  0.0915  0.6351 -0.6436
  751MOL0     C 1271  10.888   5.780   4.721 -0.6379  0.0974  0.2212
  751MOL0     C 1272  10.940   5.842   4.846 -1.3235 -0.3184 -0.0486
  751MOL0     C 1273  11.084   5.881   4.825  1.1802 -0.3703  0.0603
  751MOL0     O 1274  11.122   5.940   4.945  0.3154 -0.2249  0.0836
  751MOL0     C 1275  11.256   5.960   4.972  0.8138  0.4780  0.1037
  751MOL0     C 1276  11.363   5.918   4.884 -0.0882 -1.6528 -0.1523
  751MOL0     C 1277  11.493   5.958   4.918 -0.4564  0.7855 -0.0109
  751MOL0     C 1278  11.519   6.033   5.038  0.1526 -0.6079  0.1522
  751MOL0     C 1279  11.655   6.077   5.081  0.5680 -0.2204 -0.0418
  751MOL0     O 1280  11.662   6.155   5.192  0.2984 -0.7124  0.1863
  751MOL0     C 1281  11.778   6.163   5.257 -0.2202  0.5607  0.2932
  751MOL0     C 1282  11.872   6.262   5.232  0.2359 -1.0522  0.7151
  751MOL0     C 1283  11.986   6.273   5.305 -0.4893  1.1343  0.0657
  751MOL0     C 1284  12.015   6.178   5.406 -0.8962 -0.2032  0.7556
  751MOL0     O 1285  12.122   6.208   5.486  0.1412  0.3889  0.2608
  751MOL0     C 1286  12.132   6.128   5.606  0.3095 -0.1125  0.0829
  751MOL0     C 1287  12.265   6.167   5.673  0.3987  0.3606 -0.5266
  751MOL0     C 1288  12.304   6.054   5.763 -0.1714  1.0581 -0.4797
  751MOL0     C 1289  12.432   6.078   5.836  0.5667 -0.5148  0.9121
  751MOL0     C 1290  12.439   6.186   5.950  0.9228 -0.9397 -0.5835
  751MOL0     C 1291  12.306   6.188   6.041 -0.2097 -0.1236 -0.5642
  751MOL0     C 1292  12.319   6.274   6.155  0.7541  0.6094 -0.3453
  751MOL0     C 1293  12.209   6.259   6.266 -0.8415  0.3302  0.2008
  751MOL0    Cl 1294  12.138   6.421   6.327 -0.5796  0.4167  0.3084
  751MOL0     C 1295  11.917   6.071   5.430 -0.0459  0.1311  0.3850
  751MOL0     C 1296  11.806   6.058   5.349  0.3640 -0.4948  0.1965
  751MOL0     O 1297  11.747   6.034   5.019  0.4802  0.6889 -0.4261
  751MOL0     C 1298  11.409   6.068   5.121 -1.3651 -0.6105  0.5685
  751MOL0     C 1299  11.286   6.035   5.089 -0.3844  0.2348  0.5486
  751MOL0     N 1300  10.693   5.767   4.478 -0.5165  0.1728 -0.4795
  751MOL0     N 1301  10.625   5.703   4.388  0.4327 -0.2552  0.5829
  751MOL0     C 1302   9.427   5.486   4.307  0.0312 -0.4358 -0.2065
  751MOL0     C 1303   9.321   5.391   4.323  0.7007  0.4026 -0.2378
  751MOL0     C 1304   9.155   4.965   4.422  0.7807  0.8109 -0.0310
  751MOL0     C 1305   9.059   5.054   4.472  0.5256 -0.6522 -0.0395
  751MOL0     C 1306   8.949   5.011   4.544  0.2829 -0.7880  0.3759
  751MOL0     C 1307   8.944   4.884   4.593  0.4031 -0.1245 -0.5219
  751MOL0     O 1308   8.839   4.860   4.678  0.1916  0.3350  0.2223
  751MOL0     C 1309   8.781   4.725   4.681  0.7216  0.1141 -0.2816
  751MOL0     C 1310   8.630   4.740   4.717  1.4505  0.4857 -0.0283
  751MOL0     C 1311   8.602   4.812   4.852 -0.2798 -0.3800  0.1290
  751MOL0     C 1312   8.626   4.711   4.967 -0.3139 -0.2365  0.0118
  751MOL0     C 1313   8.582   4.771   5.093 -0.9506  0.5898  0.7530
  751MOL0     C 1314   8.543   4.825   5.197 -0.4459 -1.1649  0.6911
  751MOL0     C 1315   9.033   4.792   4.543 -0.8638  0.2207  0.0939
  751MOL0     C 1316   9.139   4.825   4.456  0.4093 -0.2575 -0.3523
  751MOL0     C 1317   9.216   4.718   4.384 -0.0557  0.0389  0.4474
  751MOL0     H 1318   9.452   5.146   4.140  0.1910 -0.5451  1.2706
  751MOL0     H 1319   9.645   5.291   4.127 -1.1388 -0.4740 -2.5683
  751MOL0     H 1320   9.768   5.361   4.316 -0.3307  0.1328 -1.3703
  751MOL0     H 1321   9.874   5.498   4.264  1.0561 -1.4070 -0.2292
  751MOL0     H 1322   9.854   5.420   4.500 -1.4337  0.7098  1.9732
  751MOL0     H 1323   9.698   5.508   4.502 -1.3422 -2.8433 -3.1708
  751MOL0     H 1324   9.830   5.708   4.547  0.0749 -0.1972  1.3676
  751MOL0     H 1325   9.857   5.692   4.373  1.3017  0.2377  1.0034
  751MOL0     H 1326  10.044   5.573   4.582 -0.6556  0.9148  0.1489
  751MOL0     H 1327  10.042   5.546   4.404 -1.4500  1.0110 -1.9316
  751MOL0     H 1328  10.087   5.792   4.375 -3.0792 -0.9461 -0.3045
  751MOL0     H 1329  10.063   5.812   4.545 -1.8292  1.4535 -2.5355
  751MOL0     H 1330  10.293   5.825   4.515  2.6172 -0.5183 -1.2036
  751MOL0     H 1331  10.273   5.665   4.588  1.2980  0.7341  0.3460
  751MOL0     H 1332  10.381   5.749   4.324 -0.6490 -1.1820 -3.1406
  751MOL0     H 1333  10.242   5.655   4.294  1.7220 -0.9822 -1.8294
  751MOL0     H 1334  10.371   5.498   4.466 -0.5556  2.0298  2.7070
  751MOL0     H 1335  10.431   5.511   4.302  0.1248  0.1681  0.5440
  751MOL0     H 1336  10.527   5.553   4.659  1.4960 -0.1948  1.5038
  751MOL0     H 1337  10.685   5.851   4.764 -2.2836 -0.5605 -0.5849
  751MOL0     H 1338  10.702   5.684   4.804  0.1099 -0.7782 -2.0320
  751MOL0     H 1339  10.941   5.688   4.695  1.3768  1.3017 -0.1735
  751MOL0     H 1340  10.899   5.851   4.638 -3.4030  1.3279  0.7967
  751MOL0     H 1341  10.950   5.774   4.931  2.9730 -1.2774 -1.0556
  751MOL0     H 1342  10.887   5.933   4.875  3.8208  2.8075  1.0431
  751MOL0     H 1343  11.100   5.935   4.731 -0.0862  2.4312  1.3723
  751MOL0     H 1344  11.126   5.780   4.816 -0.8592 -1.5050  2.2406
  751MOL0     H 1345  11.339   5.858   4.797 -1.3120 -1.2112 -0.1386
  751MOL0     H 1346  11.572   5.924   4.850 -1.1407 -2.1513  0.5357
  751MOL0     H 1347  11.851   6.344   5.164  0.7271  1.8075  3.7530
  751MOL0     H 1348  12.057   6.354   5.293 -0.0988  1.2469  2.5793
  751MOL0     H 1349  12.057   6.127   5.685  1.2788  0.1763  1.0194
  751MOL0     H 1350  12.134   6.022   5.576 -1.1942 -0.5980  1.5911
  751MOL0     H 1351  12.347   6.186   5.603  2.7250  1.7304  2.3133
  751MOL0     H 1352  12.255   6.250   5.744  0.5251  0.0021 -0.0853
  751MOL0     H 1353  12.229   6.038   5.840 -0.2730 -2.0325 -1.0691
  751MOL0     H 1354  12.314   5.957   5.713  4.7191  0.6814  0.7766
  751MOL0     H 1355  12.503   6.110   5.760  0.1460 -1.7653 -0.0357
  751MOL0     H 1356  12.467   5.982   5.875  3.2062 -0.9224 -2.0928
  751MOL0     H 1357  12.428   6.288   5.911 -1.3288 -1.0682 -0.4069
  751MOL0     H 1358  12.524   6.169   6.016  0.2276  0.2820  0.6614
  751MOL0     H 1359  12.218   6.219   5.985 -0.7722  2.4297  1.5293
  751MOL0     H 1360  12.269   6.090   6.072 -1.2375 -0.2539 -2.0898
  751MOL0     H 1361  12.304   6.369   6.103 -0.3133 -0.5271 -2.2265
  751MOL0     H 1362  12.418   6.269   6.202  1.0679 -2.3151 -1.1408
  751MOL0     H 1363  12.136   6.197   6.212  0.2207  0.6689 -1.7149
  751MOL0     H 1364  12.244   6.202   6.353 -3.1199  4.4124  4.2330
  751MOL0     H 1365  11.932   6.002   5.512  1.2482  0.2585  0.2719
  751MOL0     H 1366  11.748   5.970   5.376 -0.0646 -0.4974 -0.6956
  751MOL0     H 1367  11.428   6.119   5.215  0.3597 -1.2365  0.6005
  751MOL0     H 1368  11.208   6.062   5.160 -0.4045 -1.6057  1.2625
  751MOL0     H 1369   9.425   5.587   4.346  1.6641  0.0483 -1.2438
  751MOL0     H 1370   9.227   5.420   4.370  0.4866 -1.2012  0.3801
  751MOL0     H 1371   9.057   5.159   4.444  1.2696 -0.3901  0.8538
  751MOL0     H 1372   8.880   5.080   4.591  0.8145 -0.1415  0.2416
  751MOL0     H 1373   8.837   4.662   4.752 -0.1292 -0.1522  0.1744
  751MOL0     H 1374   8.779   4.685   4.580 -3.5516 -1.4502  0.2057
  751MOL0     H 1375   8.597   4.637   4.729  2.7962  0.2686  2.2867
  751MOL0     H 1376   8.578   4.796   4.638  0.7534 -1.4318 -0.9746
  751MOL0     H 1377   8.497   4.843   4.845  0.6617  2.7901 -2.0937
  751MOL0     H 1378   8.668   4.896   4.873  0.1889 -0.6526 -0.2328
  751MOL0     H 1379   8.566   4.620   4.952  0.2053 -0.3185 -1.7647
  751MOL0     H 1380   8.731   4.682   4.972 -0.0975  0.5732  0.2998
  751MOL0     H 1381   8.509   4.875   5.285  1.3620 -1.0300  1.3595
  751MOL0     H 1382   9.022   4.686   4.564 -0.0033  0.2291  0.6528
  751MOL0     H 1383   9.322   4.739   4.395 -0.2905  0.7158  1.5126
  751MOL0     H 1384   9.183   4.621   4.422  0.9894 -0.5151 -0.0168
  751MOL0     H 1385   9.196   4.723   4.276 -1.6015 -1.1502  0.6370
  752MOL0     O 1386   4.693   9.803   5.528  0.0551  0.2233  0.6361
  752MOL0     C 1387   4.758   9.769   5.431 -0.8026 -0.6084 -0.2709
  752MOL0     O 1388   4.705   9.753   5.306 -0.6687  0.1378  0.0017
  752MOL0     C 1389   4.568   9.749   5.301 -0.4224 -0.6658  1.0209
  752MOL0     C 1390   4.489   9.642   5.339  0.2421  0.4315 -0.8860
  752MOL0     C 1391   4.356   9.636   5.311 -0.4330 -0.3208 -0.2491
  752MOL0     C 1392   4.291   9.748   5.244 -0.2238  0.0499 -0.6171
  752MOL0     O 1393   4.162   9.720   5.192 -0.5538 -0.0914  0.3250
  752MOL0     C 1394   4.141   9.785   5.061  0.3877  0.2128  0.5584
  752MOL0     C 1395   4.033   9.710   4.987  0.1778  0.4990  0.0475
  752MOL0     C 1396   4.083   9.574   4.948 -0.0790 -0.1275 -0.3461
  752MOL0     C 1397   4.027   9.523   4.813  0.2257  0.2326  1.4676
  752MOL0     C 1398   4.083   9.386   4.793  0.3383  1.3389  0.0081
  752MOL0     C 1399   4.011   9.308   4.676  0.2034  0.4878 -0.0036
  752MOL0     C 1400   4.091   9.193   4.615 -0.1188  0.0382  0.4696
  752MOL0     C 1401   4.127   9.088   4.714  0.1627  0.0621 -0.3546
  752MOL0     N 1402   4.170   8.959   4.663 -0.1017  0.0845  0.8828
  752MOL0     C 1403   4.094   8.893   4.565  0.4779 -0.0017 -0.2244
  752MOL0     C 1404   4.162   8.783   4.546  0.8585  0.4750  0.3065
  752MOL0     C 1405   4.132   8.663   4.451 -0.6173 -0.1021  0.4237
  752MOL0     C 1406   4.062   8.538   4.507 -0.7540  0.3603  0.5137
  752MOL0     C 1407   4.140   8.486   4.628 -0.3823  0.0462  0.2251
  752MOL0     C 1408   4.150   8.340   4.626  0.1657 -0.3520  0.1129
  752MOL0     O 1409   4.229   8.286   4.514  0.1202 -0.0941 -0.0468
  752MOL0     C 1410   4.367   8.290   4.512 -0.3298 -0.3265 -0.2786
  752MOL0     C 1411   4.423   8.208   4.425 -0.3762 -0.1015  0.5075
  752MOL0     C 1412   4.561   8.193   4.410  0.2857 -0.4676  0.0692
  752MOL0     C 1413   4.647   8.264   4.500 -0.2527 -0.2195 -0.2413
  752MOL0     C 1414   4.791   8.253   4.487  0.6164 -0.9285  0.0142
  752MOL0     O 1415   4.871   8.290   4.597  0.2562 -0.2275  0.5426
  752MOL0     C 1416   5.001   8.304   4.575 -0.0873  0.2323  1.2570
  752MOL0     C 1417   5.093   8.205   4.614  0.6828  0.8361  0.3634
  752MOL0     C 1418   5.227   8.221   4.601  0.0738  0.5750 -0.9288
  752MOL0     C 1419   5.278   8.350   4.574 -0.2754  0.4369 -0.0021
  752MOL0     O 1420   5.411   8.387   4.579 -0.3923 -0.3187 -0.9679
  752MOL0     C 1421   5.503   8.283   4.575 -0.1181 -0.2013  0.1098
  752MOL0     C 1422   5.637   8.347   4.554 -0.2280 -0.7526 -1.0997
  752MOL0     C 1423   5.753   8.252   4.558  0.5103 -0.3486 -0.2201
  752MOL0     C 1424   5.892   8.312   4.582  0.3228 -0.5998 -0.5830
  752MOL0     C 1425   5.940   8.401   4.460 -0.3284 -0.3775 -0.4547
  752MOL0     C 1426   6.092   8.428   4.466 -0.1613 -0.1235 -0.7593
  752MOL0     C 1427   6.145   8.512   4.346 -1.1622  0.0751 -0.1640
  752MOL0     C 1428   6.294   8.506   4.355 -0.3417 -0.3672  0.2262
  752MOL0    Cl 1429   6.363   8.537   4.509  0.0793  0.0157  0.4055
  752MOL0     C 1430   5.194   8.446   4.525 -0.2404 -0.2377  0.8891
  752MOL0     C 1431   5.057   8.419   4.520 -0.0522 -0.1612  0.9960
  752MOL0     O 1432   4.834   8.217   4.378 -0.3421  0.0937  0.3685
  752MOL0     C 1433   4.592   8.333   4.614  0.8363  0.4418  0.1928
  752MOL0     C 1434   4.449   8.346   4.612  0.4486 -0.4797  0.2730
  752MOL0     N 1435   4.271   8.773   4.628  0.2457  0.1610 -0.0714
  752MOL0     N 1436   4.272   8.879   4.700  0.5779  0.5816  0.0856
  752MOL0     C 1437   4.373   9.865   5.212  0.1050  0.2913  0.6935
  752MOL0     C 1438   4.506   9.863   5.238  0.0638  0.6548  0.4027
  752MOL0     C 1439   4.903   9.730   5.460  0.3363 -0.6744  0.4658
  752MOL0     C 1440   4.959   9.732   5.592 -0.3878  0.0511  0.4221
  752MOL0     C 1441   5.087   9.686   5.628 -0.1461  0.8193 -0.2372
  752MOL0     C 1442   5.170   9.630   5.526  1.2409  0.9891 -1.0818
  752MOL0     O 1443   5.292   9.582   5.555 -0.5198  0.1922  0.1068
  752MOL0     C 1444   5.391   9.689   5.556  0.1378 -0.2516  0.2374
  752MOL0     C 1445   5.537   9.625   5.548  0.4220  0.2301 -0.3885
  752MOL0     C 1446   5.544   9.509   5.658  0.4569  0.0339  0.9444
  752MOL0     C 1447   5.696   9.472   5.689  0.5929  0.4612 -0.3442
  752MOL0     C 1448   5.762   9.436   5.569  0.4951 -0.6404  0.5086
  752MOL0     C 1449   5.810   9.401   5.462  0.4455  0.0165  0.9689
  752MOL0     C 1450   5.121   9.639   5.400 -0.0576  0.2945 -0.1245
  752MOL0     C 1451   4.995   9.692   5.359  0.0853  0.5097 -0.4048
  752MOL0     C 1452   4.957   9.682   5.209  0.3494  0.1184 -0.9855
  752MOL0     H 1453   4.525   9.546   5.373 -1.4961 -0.6248 -1.8964
  752MOL0     H 1454   4.295   9.547   5.320 -0.6765 -0.5317 -3.1111
  752MOL0     H 1455   4.114   9.891   5.065  0.5712  0.2708  0.2921
  752MOL0     H 1456   4.233   9.778   5.003 -0.8049  0.6830 -1.4960
  752MOL0     H 1457   4.017   9.772   4.898  4.4329  1.4280 -0.2601
  752MOL0     H 1458   3.937   9.691   5.036  0.0153 -1.3115 -0.8776
  752MOL0     H 1459   4.052   9.502   5.024 -0.6935 -0.5889 -1.0282
  752MOL0     H 1460   4.192   9.577   4.941 -0.1122 -0.8610 -1.2905
  752MOL0     H 1461   3.919   9.526   4.827 -0.0097 -0.2757 -0.0022
  752MOL0     H 1462   4.069   9.581   4.730  0.1544 -1.5583  0.1155
  752MOL0     H 1463   4.190   9.398   4.774  0.9039 -0.1040  1.9712
  752MOL0     H 1464   4.063   9.331   4.885 -3.7001 -0.2621 -1.5781
  752MOL0     H 1465   3.912   9.274   4.708 -0.3594 -0.1707 -2.2606
  752MOL0     H 1466   3.989   9.369   4.588 -0.3415  1.8132  1.0015
  752MOL0     H 1467   4.186   9.234   4.579 -1.0295  0.3391 -1.6895
  752MOL0     H 1468   4.038   9.160   4.526 -0.1917  2.0416 -0.2639
  752MOL0     H 1469   4.189   9.135   4.791 -0.5962  0.1605  0.2031
  752MOL0     H 1470   4.028   9.064   4.752  0.3267 -0.5640 -0.3185
  752MOL0     H 1471   4.003   8.911   4.509 -0.2871 -1.4105  0.5008
  752MOL0     H 1472   4.070   8.705   4.372  0.5155 -1.8678 -1.4784
  752MOL0     H 1473   4.228   8.632   4.410 -1.3188 -0.9565 -0.6020
  752MOL0     H 1474   3.961   8.564   4.540 -1.0352 -0.7968  0.6004
  752MOL0     H 1475   4.057   8.456   4.435 -0.6793  1.4846 -0.8213
  752MOL0     H 1476   4.099   8.515   4.725 -0.0614 -0.8067  0.6207
  752MOL0     H 1477   4.240   8.528   4.632 -0.8857  1.6004 -1.7238
  752MOL0     H 1478   4.051   8.293   4.636  0.6180 -0.9224  2.8486
  752MOL0     H 1479   4.204   8.319   4.719 -1.5763 -2.7381  0.6929
  752MOL0     H 1480   4.356   8.165   4.351 -0.6967  3.2717 -1.3918
  752MOL0     H 1481   4.600   8.139   4.324 -1.7538  0.5863 -1.6295
  752MOL0     H 1482   5.069   8.103   4.645 -0.1703  0.4814 -1.3564
  752MOL0     H 1483   5.289   8.137   4.634 -3.3753 -1.7005  0.2821
  752MOL0     H 1484   5.498   8.223   4.666  2.3843 -1.8697 -0.7352
  752MOL0     H 1485   5.482   8.216   4.491 -3.1016  0.9253 -0.1737
  752MOL0     H 1486   5.640   8.410   4.465  0.1244  1.1959  0.2316
  752MOL0     H 1487   5.652   8.414   4.639  0.5590 -3.7954  1.3671
  752MOL0     H 1488   5.724   8.178   4.634 -3.5188  1.1754 -0.0632
  752MOL0     H 1489   5.755   8.216   4.455  1.1888  3.8512 -1.8479
  752MOL0     H 1490   5.969   8.235   4.592 -1.0199 -2.2899 -2.5089
  752MOL0     H 1491   5.883   8.373   4.673 -1.0875  1.6254 -2.1010
  752MOL0     H 1492   5.877   8.490   4.453  0.7475  0.8007  2.9341
  752MOL0     H 1493   5.918   8.349   4.366  2.6269 -0.8398 -0.9717
  752MOL0     H 1494   6.121   8.486   4.554  0.6365  0.6515 -1.5121
  752MOL0     H 1495   6.146   8.335   4.482 -0.9928 -1.2610 -3.9224
  752MOL0     H 1496   6.119   8.618   4.361  2.5604  1.2643 -1.1619
  752MOL0     H 1497   6.105   8.480   4.250 -1.1091 -0.0017 -0.1601
  752MOL0     H 1498   6.340   8.410   4.328  0.2821 -0.8141  2.6271
  752MOL0     H 1499   6.340   8.580   4.289 -0.3585 -1.0362 -0.5581
  752MOL0     H 1500   5.236   8.538   4.485 -0.6942 -0.7669 -0.8734
  752MOL0     H 1501   4.991   8.497   4.483 -0.4529 -1.6670 -1.7448
  752MOL0     H 1502   4.659   8.367   4.692  1.4895 -0.7130  0.1526
  752MOL0     H 1503   4.414   8.413   4.690  2.0807  0.1120  0.5210
  752MOL0     H 1504   4.336   9.940   5.143 -1.0466  0.2259  1.2274
  752MOL0     H 1505   4.571   9.946   5.213 -1.5202  2.3969  1.7247
  752MOL0     H 1506   4.892   9.755   5.675 -2.1844  1.2225 -1.2487
  752MOL0     H 1507   5.118   9.691   5.732  2.9680  1.4961 -1.0746
  752MOL0     H 1508   5.373   9.746   5.648  0.6786 -0.1118  0.2606
  752MOL0     H 1509   5.388   9.750   5.465  2.8320 -0.4618 -0.0778
  752MOL0     H 1510   5.620   9.693   5.568 -0.5919  1.1439  0.8720
  752MOL0     H 1511   5.542   9.593   5.443 -0.0927  1.9810 -0.9718
  752MOL0     H 1512   5.491   9.427   5.609  2.3484 -0.5908 -0.1963
  752MOL0     H 1513   5.484   9.551   5.739  3.0305  2.6861  1.6475
  752MOL0     H 1514   5.744   9.562   5.729  0.0286  1.9257 -2.7570
  752MOL0     H 1515   5.687   9.387   5.757  1.1131  0.1803 -0.6161
  752MOL0     H 1516   5.841   9.355   5.370 -2.0999 -1.6505  0.8648
  752MOL0     H 1517   5.194   9.602   5.328 -0.4390  1.5105 -1.1780
  752MOL0     H 1518   4.905   9.589   5.185  1.8978 -1.1539  0.3432
  752MOL0     H 1519   4.908   9.775   5.178 -0.6180  0.1721  0.6114
  752MOL0     H 1520   5.046   9.672   5.146 -0.7109 -0.2143 -2.5018
  753MOL0     O 1521   0.557   1.820  10.875 -0.0525 -0.4359  0.3313
  753MOL0     C 1522   0.503   1.708  10.896 -0.5502  0.0855 -0.3843
  753MOL0     O 1523   0.393   1.661  10.837 -0.0254  0.1509  1.1357
  753MOL0     C 1524   0.317   1.748  10.763 -0.8664  0.6314  0.8154
  753MOL0     C 1525   0.269   1.713  10.631  0.0233 -0.2436 -0.3129
  753MOL0     C 1526   0.209   1.808  10.547 -0.1721 -0.2203 -0.2966
  753MOL0     C 1527   0.168   1.928  10.602 -0.7337 -0.1541  0.3165
  753MOL0     O 1528   0.108   2.017  10.520 -1.0160 -0.8310  0.0187
  753MOL0     C 1529   0.187   2.139  10.515 -0.2501 -0.2937  0.6864
  753MOL0     C 1530   0.126   2.234  10.418  0.0074  0.2537  0.8210
  753MOL0     C 1531   0.219   2.318  10.341 -0.2593  0.3830 -0.0982
  753MOL0     C 1532   0.171   2.362  10.203 -1.2989  0.1484  0.2634
  753MOL0     C 1533   0.227   2.492  10.148 -1.1178  0.8070 -0.1327
  753MOL0     C 1534   0.385   2.489  10.148  0.2906  0.2013 -0.6697
  753MOL0     C 1535   0.444   2.618  10.103 -0.1482 -0.1149  0.3709
  753MOL0     C 1536   0.415   2.748  10.179 -0.5310  0.9504  0.1989
  753MOL0     N 1537   0.462   2.747  10.318 -0.0290 -0.0410 -0.2206
  753MOL0     C 1538   0.589   2.773  10.368  0.3534  0.3094  0.3098
  753MOL0     C 1539   0.571   2.790  10.493  0.0321 -0.4781  0.8840
  753MOL0     C 1540   0.683   2.815  10.575  0.2025 -0.0272 -0.0486
  753MOL0     C 1541   0.660   2.907  10.688  0.6644 -0.1207 -0.4678
  753MOL0     C 1542   0.613   3.045  10.629 -0.4881  0.3539 -0.7205
  753MOL0     C 1543   0.583   3.132  10.749  0.1597 -0.4319 -0.0397
  753MOL0     O 1544   0.712   3.157  10.814 -0.0097  0.5097 -0.7005
  753MOL0     C 1545   0.795   3.256  10.772 -0.7985  1.3782 -0.4013
  753MOL0     C 1546   0.929   3.238  10.806  0.1292  0.4796  0.4902
  753MOL0     C 1547   1.031   3.311  10.750  0.1757 -0.5327  0.6382
  753MOL0     C 1548   1.004   3.411  10.665  0.4069  0.2036 -0.5090
  753MOL0     C 1549   1.117   3.485  10.610 -0.2860  0.2755 -0.0657
  753MOL0     O 1550   1.220   3.512  10.696 -0.1897 -0.6517 -0.1936
  753MOL0     C 1551   1.321   3.588  10.644  0.1611  0.0661 -0.2898
  753MOL0     C 1552   1.443   3.537  10.605  0.5129 -0.5313 -0.6160
  753MOL0     C 1553   1.543   3.604  10.536  0.1166  0.0244 -0.4877
  753MOL0     C 1554   1.521   3.728  10.501 -0.6383 -0.5921  0.3536
  753MOL0     O 1555   1.628   3.792  10.442  0.3113 -0.1463 -0.3019
  753MOL0     C 1556   1.625   3.936  10.408 -0.7946 -0.2731 -0.0963
  753MOL0     C 1557   1.673   4.037  10.517  0.1613 -0.4886  0.9994
  753MOL0     C 1558   1.817   4.042  10.539  0.1965  0.2337  0.1691
  753MOL0     C 1559   1.891   4.139  10.450  0.6704  0.5581  0.4470
  753MOL0     C 1560   2.024   4.183  10.498  0.1681  0.4554  0.1920
  753MOL0     C 1561   2.124   4.230  10.394  0.7777  0.2505 -0.1756
  753MOL0     C 1562   2.259   4.221  10.459 -0.2976 -0.6859  0.6672
  753MOL0     C 1563   2.351   4.265  10.346 -0.1362 -0.6693 -0.3542
  753MOL0    Cl 1564   2.485   4.333  10.422  0.1879 -0.3633  0.0198
  753MOL0     C 1565   1.400   3.792  10.541  0.3681 -1.0970 -0.3685
  753MOL0     C 1566   1.303   3.729  10.622  0.3289  0.2746 -0.2867
  753MOL0     O 1567   1.097   3.535  10.500 -0.2480 -0.5092 -0.1513
  753MOL0     C 1568   0.869   3.437  10.628  0.1022  0.0097 -0.9486
  753MOL0     C 1569   0.763   3.366  10.684 -0.0271  0.0525  0.0969
  753MOL0     N 1570   0.443   2.765  10.536  0.1053 -0.6920  0.8772
  753MOL0     N 1571   0.384   2.739  10.426 -0.5072 -0.0654  0.6496
  753MOL0     C 1572   0.198   1.957  10.738  0.3946 -0.6304  0.1482
  753MOL0     C 1573   0.257   1.861  10.825 -0.4670 -0.6324  0.0023
  753MOL0     C 1574   0.562   1.630  11.006  0.8153  0.1570 -0.1806
  753MOL0     C 1575   0.661   1.535  10.981  0.2059 -1.2927 -0.4890
  753MOL0     C 1576   0.702   1.460  11.093 -0.7563 -1.0766  0.1982
  753MOL0     C 1577   0.662   1.489  11.223 -0.0064  0.6107 -1.0156
  753MOL0     O 1578   0.709   1.424  11.337 -0.5129  0.3065  0.3602
  753MOL0     C 1579   0.809   1.321  11.330  0.0025 -0.6875 -0.5933
  753MOL0     C 1580   0.952   1.385  11.336 -0.2799 -0.2770 -0.2252
  753MOL0     C 1581   1.056   1.269  11.343  0.6612 -0.5274  0.2310
  753MOL0     C 1582   1.075   1.207  11.203 -0.0529  0.4434  0.4494
  753MOL0     C 1583   0.979   1.114  11.151  0.4372 -0.0035 -0.2041
  753MOL0     C 1584   0.907   1.017  11.130  0.1259  0.0268  0.8832
  753MOL0     C 1585   0.569   1.586  11.240 -0.2234 -0.3888  0.2357
  753MOL0     C 1586   0.519   1.665  11.140  0.4092  0.1069 -0.7031
  753MOL0     C 1587   0.416   1.771  11.173  0.6007  0.8135  0.0361
  753MOL0     H 1588   0.305   1.615  10.599  1.2613  0.5291 -1.3574
  753MOL0     H 1589   0.183   1.780  10.445  0.6863  0.3248 -0.6715
  753MOL0     H 1590   0.203   2.188  10.612 -0.2445  1.3086 -0.0996
  753MOL0     H 1591   0.287   2.109  10.482  0.0142  1.6972 -0.4754
  753MOL0     H 1592   0.049   2.294  10.469  0.4350  0.8324  0.8019
  753MOL0     H 1593   0.066   2.178  10.346 -0.1072  1.8803 -0.4120
  753MOL0     H 1594   0.326   2.299  10.349 -0.2603  0.9281  2.0128
  753MOL0     H 1595   0.217   2.417  10.387  0.2183  0.8824 -1.1182
  753MOL0     H 1596   0.196   2.281  10.134  0.3121  1.1011 -0.3311
  753MOL0     H 1597   0.063   2.378  10.201 -1.4711 -0.5195 -3.4217
  753MOL0     H 1598   0.193   2.488  10.044  1.5234 -3.4333 -1.1021
  753MOL0     H 1599   0.185   2.575  10.206  1.0003  1.4419  0.5882
  753MOL0     H 1600   0.425   2.465  10.247 -1.8235 -0.4957  0.0817
  753MOL0     H 1601   0.408   2.408  10.078 -3.3273 -0.6273 -1.0815
  753MOL0     H 1602   0.405   2.632  10.001  1.0409  1.5422  0.0972
  753MOL0     H 1603   0.552   2.606  10.093 -0.1816 -0.2703  0.1879
  753MOL0     H 1604   0.463   2.833  10.130 -1.4896 -0.0219 -2.6458
  753MOL0     H 1605   0.308   2.765  10.164 -1.1114 -0.5207  2.2398
  753MOL0     H 1606   0.680   2.788  10.310  0.1535  1.7612  0.3442
  753MOL0     H 1607   0.722   2.722  10.618 -0.0875  0.2826  0.9138
  753MOL0     H 1608   0.764   2.852  10.511  0.5780  0.2153  0.5537
  753MOL0     H 1609   0.582   2.869  10.755  0.4328 -1.5098 -1.4764
  753MOL0     H 1610   0.758   2.922  10.735  0.9909  0.3658 -1.2837
  753MOL0     H 1611   0.516   3.037  10.580 -1.3242 -2.0166  1.1053
  753MOL0     H 1612   0.694   3.099  10.578  1.8348  0.0072  2.2706
  753MOL0     H 1613   0.502   3.088  10.807  0.7457 -1.7651 -0.1879
  753MOL0     H 1614   0.542   3.226  10.710  3.1169  1.3849  0.9063
  753MOL0     H 1615   0.957   3.165  10.881 -0.0584  0.4258  0.5096
  753MOL0     H 1616   1.132   3.289  10.785  0.2522 -2.3890 -0.5580
  753MOL0     H 1617   1.458   3.434  10.636  0.4210 -1.6221 -3.8425
  753MOL0     H 1618   1.632   3.555  10.498  1.2428  1.8558 -0.3445
  753MOL0     H 1619   1.700   3.941  10.328 -0.4368  2.0250  0.2927
  753MOL0     H 1620   1.525   3.971  10.381 -2.1880 -3.0121  1.0460
  753MOL0     H 1621   1.638   4.137  10.490 -0.0637 -0.5390  1.1030
  753MOL0     H 1622   1.627   4.001  10.610 -1.0021 -0.5623  0.4119
  753MOL0     H 1623   1.818   4.077  10.643 -2.6833 -0.4507  0.5081
  753MOL0     H 1624   1.866   3.944  10.534  1.8467  1.0817 -1.5381
  753MOL0     H 1625   1.831   4.230  10.443  2.3518  1.6270 -1.6112
  753MOL0     H 1626   1.890   4.090  10.352 -0.3910 -1.2140  1.3007
  753MOL0     H 1627   2.066   4.092  10.543 -1.3956 -1.2287 -1.5951
  753MOL0     H 1628   2.008   4.248  10.584  1.7387  0.7069  0.3351
  753MOL0     H 1629   2.105   4.170  10.305  0.0952  0.1621  0.0248
  753MOL0     H 1630   2.103   4.335  10.372 -2.1807 -0.2451 -0.1041
  753MOL0     H 1631   2.284   4.122  10.498  1.0375 -0.1365  1.2667
  753MOL0     H 1632   2.271   4.293  10.540  1.8622  1.3663 -1.3279
  753MOL0     H 1633   2.367   4.181  10.279  0.9014  0.8609 -2.1331
  753MOL0     H 1634   2.324   4.351  10.283  2.0353 -0.6706 -1.3530
  753MOL0     H 1635   1.374   3.895  10.518  1.9854 -0.2021  1.4434
  753MOL0     H 1636   1.212   3.776  10.658  0.9623  1.3153 -0.0108
  753MOL0     H 1637   0.842   3.525  10.570  0.3890  0.2525 -0.7163
  753MOL0     H 1638   0.657   3.387  10.674 -0.2454 -1.5065 -1.3404
  753MOL0     H 1639   0.155   2.049  10.776  1.4647  0.5641 -1.3952
  753MOL0     H 1640   0.279   1.897  10.924 -1.6039 -2.2220  0.8853
  753MOL0     H 1641   0.703   1.515  10.883 -2.5153  2.5781 -2.6973
  753MOL0     H 1642   0.788   1.397  11.070 -0.8828 -0.9096 -0.7994
  753MOL0     H 1643   0.789   1.255  11.245  0.1224 -1.7086  0.1474
  753MOL0     H 1644   0.797   1.261  11.420 -0.6714  2.7395  1.7886
  753MOL0     H 1645   0.966   1.446  11.425  0.8028 -0.9330  0.0765
  753MOL0     H 1646   0.969   1.437  11.241  1.0674 -1.7983 -0.8819
  753MOL0     H 1647   1.023   1.208  11.428 -0.0803  0.9319  1.0352
  753MOL0     H 1648   1.153   1.309  11.375 -0.2755  0.6446  1.7891
  753MOL0     H 1649   1.085   1.293  11.136 -1.0167  2.5367  2.8487
  753MOL0     H 1650   1.170   1.154  11.200  0.2164  0.7507 -4.1181
  753MOL0     H 1651   0.830   0.942  11.133 -0.5521  0.6906  4.3605
  753MOL0     H 1652   0.544   1.614  11.342  1.9705 -1.2588  1.0875
  753MOL0     H 1653   0.445   1.829  11.261 -0.1628  0.6996  0.3731
  753MOL0     H 1654   0.412   1.840  11.088  2.4945  1.0270  0.0697
  753MOL0     H 1655   0.318   1.725  11.191  0.6377  0.5727 -0.3478
  754MOL0     O 1656   3.774   4.091   3.023 -0.2140  0.1126  0.1801
  754MOL0     C 1657   3.771   3.979   3.062 -1.2510  0.3627 -0.6252
  754MOL0     O 1658   3.883   3.907   3.092  0.5214 -0.7121  0.1834
  754MOL0     C 1659   4.004   3.974   3.118 -0.9926 -0.0361  0.5217
  754MOL0     C 1660   4.023   4.041   3.235 -0.2719  0.1258 -0.1544
  754MOL0     C 1661   4.149   4.102   3.260 -0.0868 -0.2421  0.0434
  754MOL0     C 1662   4.258   4.097   3.159 -0.0912 -0.5627 -0.2175
  754MOL0     O 1663   4.387   4.146   3.172  0.1680 -0.5035 -0.6004
  754MOL0     C 1664   4.454   4.106   3.293  0.2753  0.0308 -0.3614
  754MOL0     C 1665   4.602   4.080   3.259  0.2267  0.5582 -1.2058
  754MOL0     C 1666   4.673   4.044   3.396  0.3032  0.0847 -0.2767
  754MOL0     C 1667   4.794   3.965   3.375  0.0247  0.5991 -0.4881
  754MOL0     C 1668   4.843   3.901   3.507 -0.0189 -0.3909  0.4179
  754MOL0     C 1669   4.966   3.816   3.474 -0.4855  0.6253 -0.5218
  754MOL0     C 1670   5.035   3.781   3.599 -0.5416  0.6427 -0.3988
  754MOL0     C 1671   5.101   3.902   3.668  0.0094  0.1456 -0.0475
  754MOL0     N 1672   5.224   3.946   3.592  0.1488  0.2227 -0.1056
  754MOL0     C 1673   5.236   4.055   3.512  0.1064 -0.5959  0.0030
  754MOL0     C 1674   5.364   4.090   3.493 -0.1199 -0.2925 -0.3633
  754MOL0     C 1675   5.424   4.222   3.432  0.1642 -0.3607  1.0543
  754MOL0     C 1676   5.441   4.224   3.272  0.6585 -0.2144  0.7271
  754MOL0     C 1677   5.522   4.108   3.228  0.0123  0.4242  0.8086
  754MOL0     C 1678   5.542   4.115   3.075  0.1403  1.5677 -0.4042
  754MOL0     O 1679   5.634   4.206   3.032  0.0033  0.0032 -0.5588
  754MOL0     C 1680   5.749   4.144   2.993 -0.0766  0.0113 -0.5982
  754MOL0     C 1681   5.848   4.130   3.085  1.1149  0.0299 -0.7731
  754MOL0     C 1682   5.968   4.075   3.046 -0.5063  0.3725  0.6723
  754MOL0     C 1683   5.993   4.038   2.914  0.3142 -0.6639 -0.1297
  754MOL0     C 1684   6.129   3.985   2.877 -0.2357 -0.1230 -0.1695
  754MOL0     O 1685   6.143   3.956   2.739  0.2496  0.0810 -0.1641
  754MOL0     C 1686   6.275   3.924   2.699 -0.1723 -0.2494 -0.3415
  754MOL0     C 1687   6.310   3.800   2.664 -0.2727 -0.0965 -0.3962
  754MOL0     C 1688   6.449   3.764   2.631  0.9681 -0.3651 -0.6691
  754MOL0     C 1689   6.543   3.868   2.638 -0.2219 -1.1610 -1.4979
  754MOL0     O 1690   6.666   3.826   2.600  0.0607 -0.7194  0.4271
  754MOL0     C 1691   6.771   3.926   2.619 -0.3829  0.4766 -0.6167
  754MOL0     C 1692   6.905   3.856   2.592  0.4190 -0.1723  0.7312
  754MOL0     C 1693   6.946   3.746   2.694  0.8779  0.4768 -0.4131
  754MOL0     C 1694   6.888   3.762   2.840 -0.4972  0.5940 -0.6754
  754MOL0     C 1695   6.895   3.645   2.931 -0.8012 -0.6301 -0.0284
  754MOL0     C 1696   7.049   3.627   2.980  1.0218 -0.0894 -0.4143
  754MOL0     C 1697   7.044   3.532   3.099 -0.7330  0.3919 -0.8367
  754MOL0     C 1698   7.186   3.483   3.127  1.2086  0.8015  0.1133
  754MOL0    Cl 1699   7.303   3.612   3.179 -0.1289  0.2834  0.7932
  754MOL0     C 1700   6.510   3.993   2.679 -0.0136 -1.3861 -0.4825
  754MOL0     C 1701   6.377   4.018   2.708 -0.1227 -0.2610  0.0506
  754MOL0     O 1702   6.217   3.982   2.963  0.1010  0.8427 -0.8075
  754MOL0     C 1703   5.885   4.049   2.822 -0.5988 -0.1193  0.2274
  754MOL0     C 1704   5.757   4.097   2.863 -0.3638  0.1568  0.1831
  754MOL0     N 1705   5.441   4.001   3.577 -0.6498  1.3102  0.5199
  754MOL0     N 1706   5.358   3.914   3.621 -0.9017  1.1045  0.1423
  754MOL0     C 1707   4.227   4.035   3.042 -0.3559 -0.2183  1.3511
  754MOL0     C 1708   4.110   3.964   3.028 -0.6889  0.1570  0.4235
  754MOL0     C 1709   3.648   3.906   3.093 -0.2967  1.0915  0.2975
  754MOL0     C 1710   3.649   3.788   3.167  0.1118 -0.6272 -0.0758
  754MOL0     C 1711   3.540   3.713   3.193  0.9633  0.1458 -0.0737
  754MOL0     C 1712   3.414   3.760   3.162  1.0776 -0.0060 -1.2145
  754MOL0     O 1713   3.308   3.681   3.212  0.2158  0.2860 -0.4100
  754MOL0     C 1714   3.195   3.667   3.130  0.9435 -0.3511  0.3958
  754MOL0     C 1715   3.129   3.534   3.157 -0.6518  0.2353 -0.9359
  754MOL0     C 1716   3.215   3.418   3.078 -0.1160  0.2810  0.1059
  754MOL0     C 1717   3.205   3.394   2.927 -0.3652  0.3387 -0.7052
  754MOL0     C 1718   3.147   3.262   2.906  0.3518 -0.1906 -0.2797
  754MOL0     C 1719   3.113   3.144   2.904 -0.0437 -0.2204 -0.1935
  754MOL0     C 1720   3.396   3.881   3.097 -0.4552 -0.0081  0.2848
  754MOL0     C 1721   3.517   3.952   3.050 -0.2209  0.3898  0.6051
  754MOL0     C 1722   3.497   4.063   2.950  0.3100 -0.1684  0.5664
  754MOL0     H 1723   3.948   4.042   3.314  0.5634  1.1076  0.6512
  754MOL0     H 1724   4.157   4.165   3.348 -3.5419  0.8368 -0.2693
  754MOL0     H 1725   4.463   4.186   3.367  3.3787  0.4613 -1.0538
  754MOL0     H 1726   4.410   4.017   3.338 -1.6916  0.4571 -1.3582
  754MOL0     H 1727   4.636   4.175   3.215  2.1931 -0.0459 -1.0842
  754MOL0     H 1728   4.602   3.997   3.188 -2.5361  0.9606 -1.7773
  754MOL0     H 1729   4.608   3.994   3.469  0.0289 -0.2525 -0.7443
  754MOL0     H 1730   4.709   4.129   3.454 -0.3815  0.3095 -0.1681
  754MOL0     H 1731   4.769   3.883   3.307 -4.6506  0.3575  1.2269
  754MOL0     H 1732   4.866   4.036   3.333 -1.2880  2.7424  0.7162
  754MOL0     H 1733   4.859   3.972   3.588  0.4196  0.6417 -0.5599
  754MOL0     H 1734   4.757   3.848   3.550 -1.0617  1.7691  1.1224
  754MOL0     H 1735   4.925   3.730   3.419 -0.2303 -0.1678  0.4809
  754MOL0     H 1736   5.036   3.857   3.401 -1.8969  1.2038 -1.6055
  754MOL0     H 1737   5.116   3.717   3.563 -1.8741 -0.2402 -1.9105
  754MOL0     H 1738   4.962   3.732   3.664 -1.3298 -2.5542 -3.3990
  754MOL0     H 1739   5.041   3.987   3.700 -2.0796 -1.1742 -0.3178
  754MOL0     H 1740   5.136   3.868   3.766  2.3655 -0.0545 -0.8927
  754MOL0     H 1741   5.142   4.107   3.495  0.5265  0.8598  1.7468
  754MOL0     H 1742   5.370   4.310   3.466  2.2875  2.0140 -1.3382
  754MOL0     H 1743   5.526   4.217   3.471 -0.0738 -2.4661  1.5618
  754MOL0     H 1744   5.339   4.224   3.234  0.7217  1.6265  0.4382
  754MOL0     H 1745   5.488   4.318   3.242 -0.6601  0.6869  1.3771
  754MOL0     H 1746   5.480   4.010   3.252  0.1210  0.2207  0.1738
  754MOL0     H 1747   5.619   4.099   3.279  0.6413  1.5454 -0.1229
  754MOL0     H 1748   5.440   4.138   3.043 -1.4155  2.2475  4.3496
  754MOL0     H 1749   5.560   4.012   3.042 -1.7703  0.6161  1.3512
  754MOL0     H 1750   5.837   4.161   3.189 -0.9914 -0.0483 -0.9340
  754MOL0     H 1751   6.047   4.060   3.120  0.0633 -0.6380 -0.1246
  754MOL0     H 1752   6.237   3.720   2.658 -1.5194  1.0927 -1.7524
  754MOL0     H 1753   6.479   3.665   2.598  1.1611  0.5794 -3.5997
  754MOL0     H 1754   6.750   4.010   2.552 -0.3157  0.1419 -1.0647
  754MOL0     H 1755   6.771   3.961   2.722 -2.5501  0.4119 -0.5573
  754MOL0     H 1756   6.913   3.824   2.488 -0.5531  3.2412 -0.4993
  754MOL0     H 1757   6.984   3.929   2.611  2.0330 -0.8930 -2.5971
  754MOL0     H 1758   6.896   3.655   2.659 -0.5579  0.5944  1.1896
  754MOL0     H 1759   7.051   3.714   2.698 -0.0337 -2.9896 -0.5170
  754MOL0     H 1760   6.780   3.779   2.829 -1.0516 -1.1610  1.3243
  754MOL0     H 1761   6.925   3.845   2.901 -0.5325 -0.5195  0.9137
  754MOL0     H 1762   6.859   3.547   2.896 -4.4582 -0.0071  1.5076
  754MOL0     H 1763   6.823   3.650   3.014  0.1731 -2.8373  1.0392
  754MOL0     H 1764   7.106   3.580   2.900 -1.9484 -3.2471 -0.9064
  754MOL0     H 1765   7.079   3.725   3.019 -2.4368  0.9017  0.1063
  754MOL0     H 1766   6.981   3.447   3.070 -2.4621  1.2298  0.3349
  754MOL0     H 1767   6.998   3.579   3.186 -0.2587  0.0044 -0.3681
  754MOL0     H 1768   7.187   3.418   3.215  0.3710  2.5209  1.4689
  754MOL0     H 1769   7.217   3.424   3.041 -4.2165  1.4557 -2.7357
  754MOL0     H 1770   6.577   4.078   2.687 -0.6579 -1.0420  2.6715
  754MOL0     H 1771   6.353   4.116   2.750 -1.8738 -0.9636  0.7568
  754MOL0     H 1772   5.896   4.024   2.717  0.1365 -1.3328  0.5770
  754MOL0     H 1773   5.680   4.130   2.793 -1.1605  0.9653  1.4055
  754MOL0     H 1774   4.297   4.032   2.959 -1.0597  3.0877  0.5273
  754MOL0     H 1775   4.098   3.916   2.932  0.2713  1.3194 -0.2973
  754MOL0     H 1776   3.741   3.756   3.215  1.0869  0.2932 -1.2545
  754MOL0     H 1777   3.545   3.621   3.250 -3.2202  1.2156  2.4438
  754MOL0     H 1778   3.207   3.684   3.023 -0.6105  3.2207  0.6358
  754MOL0     H 1779   3.121   3.744   3.154 -1.1201 -2.2206  0.3869
  754MOL0     H 1780   3.027   3.531   3.116 -0.5652  4.1535 -1.8683
  754MOL0     H 1781   3.123   3.516   3.264  1.0775 -2.4790 -1.2169
  754MOL0     H 1782   3.188   3.328   3.133  1.2956 -1.3848 -1.7739
  754MOL0     H 1783   3.323   3.424   3.091  0.1364 -0.3245 -1.4999
  754MOL0     H 1784   3.155   3.472   2.869 -0.6791  0.2448 -0.5608
  754MOL0     H 1785   3.306   3.384   2.886  0.5517  1.1869  1.2040
  754MOL0     H 1786   3.071   3.046   2.910 -1.0322  0.1394 -0.8404
  754MOL0     H 1787   3.296   3.908   3.065 -0.5182 -0.0862  0.4157
  754MOL0     H 1788   3.395   4.085   2.917  0.7062 -0.7299 -1.1586
  754MOL0     H 1789   3.533   4.155   2.997 -0.6430  0.2201  0.5625
  754MOL0     H 1790   3.564   4.051   2.864  0.0342  0.9431  0.1742
  755MOL0     O 1791   7.444   5.397   3.524  0.1714 -0.6136 -0.1234
  755MOL0     C 1792   7.366   5.464   3.454 -0.0781 -0.5072  0.6373
  755MOL0     O 1793   7.389   5.492   3.323  0.3205 -0.1612  0.0375
  755MOL0     C 1794   7.493   5.432   3.255 -0.4284  0.4529 -0.7851
  755MOL0     C 1795   7.515   5.290   3.267  0.2053 -0.0442 -0.0134
  755MOL0     C 1796   7.625   5.227   3.200 -0.4153 -0.4523  0.2496
  755MOL0     C 1797   7.711   5.302   3.116  1.0772  0.2454  0.0436
  755MOL0     O 1798   7.812   5.244   3.048  0.6662  1.1430  0.2171
  755MOL0     C 1799   7.885   5.132   3.107 -0.6519  0.1208  1.2300
  755MOL0     C 1800   8.038   5.137   3.049  0.3094 -0.4150  0.3604
  755MOL0     C 1801   8.053   5.097   2.906  0.4288  1.1569  0.1848
  755MOL0     C 1802   8.000   5.200   2.810  0.8639 -0.7631 -0.3132
  755MOL0     C 1803   8.027   5.153   2.665 -0.5124 -0.2330 -0.5079
  755MOL0     C 1804   7.962   5.256   2.572  0.0739  0.1491  0.5146
  755MOL0     C 1805   7.984   5.216   2.420 -0.1747 -0.4637  0.2196
  755MOL0     C 1806   7.930   5.326   2.324  0.5900 -0.0545 -0.0443
  755MOL0     N 1807   7.786   5.330   2.301 -0.2801 -0.1439 -0.6477
  755MOL0     C 1808   7.687   5.360   2.389 -0.4458  0.3708  0.5528
  755MOL0     C 1809   7.577   5.299   2.337  0.5997  0.4171  0.1134
  755MOL0     C 1810   7.430   5.299   2.378  0.3054 -0.3116  0.2350
  755MOL0     C 1811   7.378   5.427   2.450  0.4816  0.5959 -0.1944
  755MOL0     C 1812   7.231   5.429   2.433  1.0259 -0.6337  0.1555
  755MOL0     C 1813   7.183   5.563   2.483 -0.9413 -0.3700 -0.2523
  755MOL0     O 1814   7.202   5.573   2.627 -0.5820  0.3955  0.1923
  755MOL0     C 1815   7.103   5.567   2.720  0.2395 -0.0564 -0.2000
  755MOL0     C 1816   6.975   5.523   2.694  1.1885 -0.4529 -0.2102
  755MOL0     C 1817   6.884   5.514   2.802  0.1852 -0.1510  0.3678
  755MOL0     C 1818   6.933   5.529   2.934 -1.0583  0.9972  0.0644
  755MOL0     C 1819   6.849   5.512   3.053  0.0045  0.6619 -0.2587
  755MOL0     O 1820   6.725   5.467   3.027  0.0272 -0.1690 -0.1467
  755MOL0     C 1821   6.636   5.452   3.133  0.6633 -0.0542  0.3298
  755MOL0     C 1822   6.660   5.400   3.265  0.3018 -0.9352 -0.6837
  755MOL0     C 1823   6.552   5.388   3.352  0.1596  0.0197 -0.4836
  755MOL0     C 1824   6.416   5.422   3.319  0.5360  0.8391 -0.6952
  755MOL0     O 1825   6.316   5.407   3.415  0.6310 -0.0079 -0.2037
  755MOL0     C 1826   6.199   5.487   3.411 -0.6844 -0.2011 -0.2414
  755MOL0     C 1827   6.112   5.495   3.538  0.0136 -0.4507 -0.2625
  755MOL0     C 1828   6.186   5.520   3.670 -1.0883  0.0721 -0.1416
  755MOL0     C 1829   6.258   5.654   3.678 -0.3080 -0.6432 -0.0681
  755MOL0     C 1830   6.363   5.670   3.796  0.6916  1.3059  0.2178
  755MOL0     C 1831   6.365   5.814   3.843  0.0702 -0.4701  0.4908
  755MOL0     C 1832   6.468   5.839   3.947 -0.6169 -0.2097  1.0592
  755MOL0     C 1833   6.471   5.992   3.982  0.1228  0.2237  0.7615
  755MOL0    Cl 1834   6.492   6.093   3.842  0.1138  0.4319 -0.2938
  755MOL0     C 1835   6.390   5.472   3.189 -0.8079 -1.2394 -0.6219
  755MOL0     C 1836   6.497   5.471   3.096 -0.6782 -0.5905  0.1694
  755MOL0     O 1837   6.898   5.543   3.163  0.5177  0.2245  0.2316
  755MOL0     C 1838   7.070   5.552   2.964 -0.0963 -0.8663  0.3694
  755MOL0     C 1839   7.150   5.580   2.854 -0.7340 -0.6540 -0.1311
  755MOL0     N 1840   7.621   5.239   2.218 -0.1062 -0.4053 -0.4624
  755MOL0     N 1841   7.745   5.256   2.196  0.5110  0.5029  0.5051
  755MOL0     C 1842   7.679   5.435   3.101  0.3835 -0.5932  1.2153
  755MOL0     C 1843   7.571   5.500   3.169  0.4039 -0.3761  0.2247
  755MOL0     C 1844   7.234   5.505   3.517  0.3199  0.3387  0.1818
  755MOL0     C 1845   7.120   5.509   3.433 -1.2058 -0.3415 -0.2621
  755MOL0     C 1846   6.996   5.544   3.489  0.5053  0.1825  0.5463
  755MOL0     C 1847   6.988   5.596   3.624  0.4742  0.2518 -0.3901
  755MOL0     O 1848   6.865   5.633   3.682 -0.4321  0.3071 -0.2872
  755MOL0     C 1849   6.747   5.613   3.607  0.6214 -0.4616 -0.1122
  755MOL0     C 1850   6.720   5.719   3.493 -0.1141  0.0520 -0.0335
  755MOL0     C 1851   6.574   5.765   3.483 -0.5500 -0.5899 -0.0020
  755MOL0     C 1852   6.540   5.871   3.373  1.3309 -0.0494 -0.5339
  755MOL0     C 1853   6.595   5.816   3.250 -0.9075 -0.2798 -0.1723
  755MOL0     C 1854   6.658   5.787   3.154 -0.5556 -0.2879  0.0775
  755MOL0     C 1855   7.099   5.596   3.697  0.2746 -0.6182 -0.3490
  755MOL0     C 1856   7.219   5.547   3.651  0.1706 -0.3602  0.2608
  755MOL0     C 1857   7.338   5.565   3.741  0.4538  0.2530  0.1655
  755MOL0     H 1858   7.460   5.217   3.325  4.3355 -1.8486  2.0656
  755MOL0     H 1859   7.625   5.119   3.200 -2.8156 -0.5187  0.0610
  755MOL0     H 1860   7.902   5.141   3.215 -1.3837  0.4263  1.3201
  755MOL0     H 1861   7.833   5.039   3.080  0.9553  0.2684 -3.2399
  755MOL0     H 1862   8.092   5.069   3.116 -3.2984 -4.2453 -0.1739
  755MOL0     H 1863   8.072   5.239   3.069  0.4183  0.0107 -1.7933
  755MOL0     H 1864   8.000   5.003   2.890  1.9245  0.3918 -0.5093
  755MOL0     H 1865   8.159   5.077   2.887  0.7972  1.1723  2.0194
  755MOL0     H 1866   7.894   5.224   2.823  1.0191 -0.8289  1.2897
  755MOL0     H 1867   8.066   5.284   2.833  1.1249 -1.2254  0.6502
  755MOL0     H 1868   8.134   5.151   2.640  0.4211  1.9914  2.6841
  755MOL0     H 1869   7.988   5.054   2.641 -0.5483 -0.7872  1.7071
  755MOL0     H 1870   7.857   5.276   2.593 -0.5480 -0.7447 -1.5254
  755MOL0     H 1871   8.010   5.351   2.597 -0.3482  1.0370 -1.8401
  755MOL0     H 1872   7.947   5.117   2.393 -1.1407 -0.0475 -0.0002
  755MOL0     H 1873   8.092   5.209   2.402 -0.1585  2.9749 -1.6335
  755MOL0     H 1874   7.963   5.420   2.370  1.3402 -0.1970 -0.2733
  755MOL0     H 1875   7.986   5.314   2.230  0.9912 -3.8864  0.5205
  755MOL0     H 1876   7.692   5.410   2.485 -1.2589  1.6037 -0.0104
  755MOL0     H 1877   7.366   5.277   2.292  1.9658 -0.1505 -1.1011
  755MOL0     H 1878   7.426   5.203   2.430  0.2302 -0.8338 -0.7043
  755MOL0     H 1879   7.403   5.418   2.556 -0.4317 -1.0509 -0.0951
  755MOL0     H 1880   7.421   5.516   2.402 -0.3462  2.0941  1.6927
  755MOL0     H 1881   7.172   5.345   2.471 -0.6531  0.4109 -0.0092
  755MOL0     H 1882   7.211   5.433   2.326  2.8879  3.1824 -0.2390
  755MOL0     H 1883   7.080   5.597   2.468 -0.4695  3.8301  3.6746
  755MOL0     H 1884   7.251   5.639   2.441 -0.0752 -0.1046  1.5401
  755MOL0     H 1885   6.931   5.509   2.596 -1.1628  2.3603  0.3180
  755MOL0     H 1886   6.779   5.491   2.789 -1.1697  4.6752  0.7159
  755MOL0     H 1887   6.759   5.369   3.299 -0.6233 -3.4308 -0.0889
  755MOL0     H 1888   6.581   5.339   3.444 -0.4867 -0.4735 -0.5395
  755MOL0     H 1889   6.216   5.586   3.368  1.2392 -0.3614  0.0661
  755MOL0     H 1890   6.145   5.428   3.335 -0.6294  0.0940 -0.5130
  755MOL0     H 1891   6.029   5.564   3.522  1.1568  0.6210 -2.0546
  755MOL0     H 1892   6.060   5.399   3.540 -2.9022  1.0451  1.7652
  755MOL0     H 1893   6.107   5.508   3.745 -1.8667  1.8480 -0.6199
  755MOL0     H 1894   6.261   5.442   3.684 -0.0431  1.1757  0.6814
  755MOL0     H 1895   6.182   5.732   3.685 -0.5897 -0.8632 -0.6262
  755MOL0     H 1896   6.323   5.666   3.591 -0.8070 -0.7660 -0.4657
  755MOL0     H 1897   6.462   5.647   3.754  1.5892  0.7237  2.5240
  755MOL0     H 1898   6.334   5.613   3.884  3.1940  1.4715  1.2413
  755MOL0     H 1899   6.386   5.879   3.758 -1.5509  1.2616  1.3429
  755MOL0     H 1900   6.264   5.838   3.880 -0.3925 -3.4255  1.4496
  755MOL0     H 1901   6.570   5.815   3.918 -0.9639 -0.0127 -0.4175
  755MOL0     H 1902   6.434   5.777   4.030 -1.0862 -0.1811  0.8936
  755MOL0     H 1903   6.380   6.026   4.033  1.4429  3.2805  1.2975
  755MOL0     H 1904   6.551   6.000   4.056  3.6696 -4.5935 -2.0130
  755MOL0     H 1905   6.289   5.502   3.165 -0.2907  1.5280  0.2704
  755MOL0     H 1906   6.480   5.516   2.999  0.9437  1.7819  0.9047
  755MOL0     H 1907   7.120   5.548   3.060  0.5798 -4.8327  0.0014
  755MOL0     H 1908   7.257   5.593   2.862 -0.5942 -2.2007  0.8842
  755MOL0     H 1909   7.722   5.493   3.021  2.7515 -0.3334  2.5824
  755MOL0     H 1910   7.555   5.607   3.160 -1.8517 -0.6137  0.8593
  755MOL0     H 1911   7.122   5.504   3.324 -0.8860  2.0147 -0.4150
  755MOL0     H 1912   6.909   5.545   3.423  1.0500  0.8801 -0.1845
  755MOL0     H 1913   6.666   5.618   3.680  1.0576  1.5699  0.2823
  755MOL0     H 1914   6.745   5.516   3.556 -1.6814  0.2814 -1.5682
  755MOL0     H 1915   6.741   5.674   3.395 -2.2088 -0.6834 -0.1918
  755MOL0     H 1916   6.776   5.812   3.507 -1.2090  0.2590  4.2032
  755MOL0     H 1917   6.546   5.801   3.582 -4.1249 -2.8809  0.0029
  755MOL0     H 1918   6.513   5.675   3.471 -3.2124  1.2500 -1.3104
  755MOL0     H 1919   6.433   5.890   3.359  0.3511 -1.2166  3.8324
  755MOL0     H 1920   6.579   5.970   3.399  0.5404  0.5698 -1.6440
  755MOL0     H 1921   6.716   5.755   3.070  0.3013 -2.6111  1.4401
  755MOL0     H 1922   7.090   5.613   3.804  2.6823  0.1868 -0.2233
  755MOL0     H 1923   7.329   5.653   3.805 -3.8286 -0.6977  1.1806
  755MOL0     H 1924   7.343   5.482   3.812 -3.4080 -0.3758 -0.0464
  755MOL0     H 1925   7.427   5.573   3.679  1.3571 -0.9437  1.2453
  756MOL0     O 1926   8.736   6.814   9.650 -1.1367 -0.0903  0.1658
  756MOL0     C 1927   8.671   6.733   9.721  0.2473  0.0157  0.2606
  756MOL0     O 1928   8.559   6.772   9.780 -0.3107  0.3135 -0.5243
  756MOL0     C 1929   8.519   6.905   9.771 -0.7793  0.1073  0.4690
  756MOL0     C 1930   8.593   7.003   9.838  0.0422  0.4402 -0.0928
  756MOL0     C 1931   8.538   7.126   9.855  0.4032  0.3988  0.1232
  756MOL0     C 1932   8.411   7.163   9.799  0.5062 -0.4000 -0.9570
  756MOL0     O 1933   8.359   7.294   9.796 -0.2226 -0.1808 -0.1144
  756MOL0     C 1934   8.455   7.402   9.783 -0.9108  0.9692  0.0151
  756MOL0     C 1935   8.554   7.390   9.665  0.5247  0.7682 -0.2704
  756MOL0     C 1936   8.652   7.513   9.664 -0.7513 -0.6553 -0.0037
  756MOL0     C 1937   8.574   7.641   9.633 -0.6768  0.6145 -0.4565
  756MOL0     C 1938   8.657   7.767   9.610 -0.0976  0.5842 -0.1614
  756MOL0     C 1939   8.587   7.865   9.506 -0.1021  1.0292 -1.1259
  756MOL0     C 1940   8.678   7.962   9.446 -0.8559 -0.0179  0.1542
  756MOL0     C 1941   8.746   8.050   9.549  0.0701  0.0967 -0.0073
  756MOL0     N 1942   8.824   8.147   9.477  0.1719 -0.4558 -0.0089
  756MOL0     C 1943   8.967   8.140   9.458  0.2200  0.1233  0.2160
  756MOL0     C 1944   9.001   8.264   9.426  1.3697 -1.1117 -0.0955
  756MOL0     C 1945   9.129   8.315   9.382  0.2513  0.0591 -0.9439
  756MOL0     C 1946   9.176   8.416   9.491  0.1952  1.0819  0.3071
  756MOL0     C 1947   9.323   8.439   9.489  0.5854  0.1282 -0.2107
  756MOL0     C 1948   9.378   8.509   9.374 -0.2495 -0.4656 -0.2178
  756MOL0     O 1949   9.481   8.438   9.304  0.0192 -0.0972 -0.4314
  756MOL0     C 1950   9.620   8.464   9.317  0.0651 -0.5352  0.7372
  756MOL0     C 1951   9.682   8.518   9.439 -0.4386 -0.2890 -0.0908
  756MOL0     C 1952   9.819   8.538   9.436  0.5559 -0.4147  0.2218
  756MOL0     C 1953   9.893   8.530   9.319  0.2634  0.9766 -0.0504
  756MOL0     C 1954  10.041   8.551   9.324  0.0793 -0.2421  0.0047
  756MOL0     O 1955  10.096   8.581   9.442 -0.4363 -0.4547 -0.0037
  756MOL0     C 1956  10.228   8.607   9.463  0.1193  0.3402 -0.0721
  756MOL0     C 1957  10.259   8.732   9.514  0.4932 -0.4301 -0.5337
  756MOL0     C 1958  10.382   8.748   9.571 -0.0515 -0.6643  0.0935
  756MOL0     C 1959  10.489   8.659   9.570 -0.3220  0.3701  0.5113
  756MOL0     O 1960  10.607   8.697   9.625 -0.0646  0.4217 -0.6015
  756MOL0     C 1961  10.707   8.601   9.672  0.9341 -0.1476 -0.0587
  756MOL0     C 1962  10.844   8.661   9.711  0.4527  0.1290 -0.1692
  756MOL0     C 1963  10.825   8.765   9.823  0.8389 -0.0831 -0.3502
  756MOL0     C 1964  10.959   8.828   9.855 -0.0706 -0.8187  0.0856
  756MOL0     C 1965  10.952   8.931   9.966 -0.4654  0.0969 -0.1483
  756MOL0     C 1966  11.090   9.005   9.975  0.0545 -0.1709 -0.5920
  756MOL0     C 1967  11.080   9.116  10.075 -0.1055 -0.1112  0.7300
  756MOL0     C 1968  11.211   9.198  10.084 -0.1517  0.0969 -0.4672
  756MOL0    Cl 1969  11.353   9.091  10.126  0.1638  0.0957 -0.2226
  756MOL0     C 1970  10.461   8.534   9.508 -0.1841  0.3238  0.1278
  756MOL0     C 1971  10.329   8.505   9.467 -0.8182  0.4510  1.1924
  756MOL0     O 1972  10.099   8.523   9.226  0.2839 -0.4401 -0.2117
  756MOL0     C 1973   9.826   8.487   9.200 -0.9610 -0.6914 -0.1437
  756MOL0     C 1974   9.693   8.447   9.200 -0.2920 -0.1655  0.2783
  756MOL0     N 1975   8.888   8.344   9.424  0.0162  0.0176  0.3704
  756MOL0     N 1976   8.781   8.280   9.464 -0.6126 -0.1960 -0.8063
  756MOL0     C 1977   8.341   7.062   9.742  0.2618  0.2035  0.0151
  756MOL0     C 1978   8.385   6.934   9.727  0.0414 -0.1733 -0.2711
  756MOL0     C 1979   8.713   6.595   9.752 -0.2199  0.3463 -0.7191
  756MOL0     C 1980   8.650   6.522   9.857  0.7932 -0.3962  0.0917
  756MOL0     C 1981   8.672   6.382   9.861  0.4472  0.7008 -0.3952
  756MOL0     C 1982   8.761   6.314   9.787 -0.4179 -0.0206  0.4301
  756MOL0     O 1983   8.796   6.184   9.809 -0.2212  0.0099  0.6524
  756MOL0     C 1984   8.685   6.097   9.788  0.0892  0.4923  0.3356
  756MOL0     C 1985   8.724   5.946   9.813  0.4482  0.3452 -0.8847
  756MOL0     C 1986   8.827   5.903   9.719 -0.3830  0.7885  0.1690
  756MOL0     C 1987   8.780   5.855   9.576  0.0093 -0.1233  0.2513
  756MOL0     C 1988   8.647   5.799   9.567 -0.3166 -0.6965 -0.2467
  756MOL0     C 1989   8.534   5.761   9.569  0.1614  0.3371 -0.0627
  756MOL0     C 1990   8.841   6.389   9.701  0.1619 -0.6882  0.7261
  756MOL0     C 1991   8.812   6.524   9.677  0.1467  0.3592  0.3874
  756MOL0     C 1992   8.904   6.586   9.568 -0.3057 -0.4384  0.2717
  756MOL0     H 1993   8.691   6.974   9.873  0.5565 -2.3972 -3.3810
  756MOL0     H 1994   8.581   7.204   9.917  0.0320 -1.6226  3.1536
  756MOL0     H 1995   8.397   7.494   9.780  0.2970  1.7422 -0.4834
  756MOL0     H 1996   8.520   7.406   9.871 -0.0879 -2.6351 -0.2765
  756MOL0     H 1997   8.506   7.387   9.567  2.3648 -0.7402 -1.2123
  756MOL0     H 1998   8.606   7.296   9.688 -0.6202 -0.0029 -0.7584
  756MOL0     H 1999   8.721   7.499   9.580  1.7981 -1.2801  2.0733
  756MOL0     H 2000   8.714   7.531   9.752  0.8349  1.8068 -1.4978
  756MOL0     H 2001   8.518   7.616   9.543  1.7879  0.5782 -2.0925
  756MOL0     H 2002   8.512   7.669   9.718  0.4129  0.8931  0.2735
  756MOL0     H 2003   8.661   7.810   9.711  1.1268 -2.1803  1.0652
  756MOL0     H 2004   8.756   7.737   9.576  0.0070  2.7730 -2.0362
  756MOL0     H 2005   8.545   7.806   9.425  0.7823  1.1108 -1.6640
  756MOL0     H 2006   8.512   7.919   9.565  1.6572  2.1508  0.1991
  756MOL0     H 2007   8.613   8.018   9.379  0.4572  4.2258  2.1027
  756MOL0     H 2008   8.761   7.914   9.392 -1.1778  0.0990 -0.4482
  756MOL0     H 2009   8.663   8.099   9.601 -0.8547 -2.8180  1.4844
  756MOL0     H 2010   8.807   7.987   9.614 -1.4398 -2.3710 -0.8219
  756MOL0     H 2011   9.032   8.055   9.475  1.6570  0.2655 -3.6282
  756MOL0     H 2012   9.195   8.228   9.384 -0.1832 -0.2727  0.6309
  756MOL0     H 2013   9.127   8.345   9.277 -0.2016 -0.6515 -1.1398
  756MOL0     H 2014   9.114   8.504   9.471 -3.6752 -1.5903 -0.8191
  756MOL0     H 2015   9.153   8.371   9.588 -0.9778  1.2563  0.1310
  756MOL0     H 2016   9.371   8.341   9.495 -0.0295 -0.4826 -3.2678
  756MOL0     H 2017   9.343   8.503   9.575 -2.2782  0.0836  0.6161
  756MOL0     H 2018   9.403   8.607   9.415 -1.4369 -0.6383  0.9991
  756MOL0     H 2019   9.299   8.541   9.306 -1.3342 -0.1057  1.1589
  756MOL0     H 2020   9.620   8.527   9.528 -2.6866  4.8877 -1.7969
  756MOL0     H 2021   9.866   8.561   9.531  0.6798 -0.1854  0.1029
  756MOL0     H 2022  10.192   8.816   9.530  1.1467 -0.3028  1.9043
  756MOL0     H 2023  10.399   8.842   9.623  0.7324 -2.0472  2.4933
  756MOL0     H 2024  10.673   8.543   9.759  2.3296  0.2487  0.7896
  756MOL0     H 2025  10.733   8.527   9.597  1.2922 -1.4723  1.3146
  756MOL0     H 2026  10.914   8.587   9.752  1.0483  0.6017 -0.3158
  756MOL0     H 2027  10.894   8.695   9.620  1.7371 -0.8926  0.1156
  756MOL0     H 2028  10.755   8.838   9.779 -1.8526 -3.5250 -2.2781
  756MOL0     H 2029  10.781   8.714   9.909 -0.0627  3.0066  1.1964
  756MOL0     H 2030  10.994   8.881   9.766  1.2074 -2.0734 -0.1827
  756MOL0     H 2031  11.021   8.740   9.873 -0.3551 -0.6741  2.0920
  756MOL0     H 2032  10.922   8.879  10.058 -0.2225  0.5720  0.2024
  756MOL0     H 2033  10.872   8.999   9.936 -3.6091 -2.4493  1.7033
  756MOL0     H 2034  11.153   8.928  10.022 -0.6363  0.8267  2.1462
  756MOL0     H 2035  11.129   9.043   9.880 -0.1422  1.3471 -0.0822
  756MOL0     H 2036  11.052   9.079  10.174 -1.3996  1.8007  1.1270
  756MOL0     H 2037  11.003   9.186  10.041  0.4355  1.1593  2.0550
  756MOL0     H 2038  11.231   9.241   9.985  0.4520 -0.1092 -0.4397
  756MOL0     H 2039  11.201   9.279  10.156 -0.8384  1.4182 -1.9888
  756MOL0     H 2040  10.544   8.466   9.491  0.1741  1.2227 -2.2040
  756MOL0     H 2041  10.306   8.407   9.425 -2.2300  1.6492 -1.0426
  756MOL0     H 2042   9.892   8.483   9.114  0.6643  1.1881  0.9357
  756MOL0     H 2043   9.655   8.419   9.103  0.6071  4.3696 -1.6357
  756MOL0     H 2044   8.240   7.085   9.709  0.3679  0.1730 -0.3303
  756MOL0     H 2045   8.321   6.857   9.683  0.1514 -1.6891  2.0569
  756MOL0     H 2046   8.570   6.557   9.921 -1.2602 -3.4561 -0.5747
  756MOL0     H 2047   8.605   6.325   9.924 -0.3841  3.0854  0.9899
  756MOL0     H 2048   8.662   6.097   9.681  1.6981 -1.2696 -0.0642
  756MOL0     H 2049   8.597   6.127   9.846 -0.0768  0.2398  0.2226
  756MOL0     H 2050   8.634   5.884   9.813 -0.4884  1.6012 -2.6983
  756MOL0     H 2051   8.762   5.938   9.915 -2.0000 -0.3270  0.0360
  756MOL0     H 2052   8.888   5.828   9.769 -1.3006 -0.9908 -1.2438
  756MOL0     H 2053   8.892   5.989   9.701 -1.0922  0.9435 -1.9954
  756MOL0     H 2054   8.787   5.931   9.497  0.8356 -2.5654 -2.2062
  756MOL0     H 2055   8.851   5.776   9.552  0.1058 -0.8713  2.8137
  756MOL0     H 2056   8.434   5.723   9.572  0.5824 -0.8274 -0.1763
  756MOL0     H 2057   8.909   6.330   9.640 -1.1480 -1.0563 -0.4180
  756MOL0     H 2058   8.963   6.670   9.604  1.1310 -1.3582  0.1295
  756MOL0     H 2059   8.974   6.513   9.527 -0.8350 -0.8070  0.0111
  756MOL0     H 2060   8.836   6.625   9.491  0.7956 -0.0184 -0.5148
  757MOL0     O 2061   8.461   0.637   0.847 -0.4777  0.0081  0.1834
  757MOL0     C 2062   8.516   0.590   0.742 -0.7685  0.0661 -0.2276
  757MOL0     O 2063   8.459   0.520   0.638  0.5656 -0.6241 -0.4256
  757MOL0     C 2064   8.315   0.527   0.622 -0.3015 -0.1743  0.3521
  757MOL0     C 2065   8.208   0.566   0.714  0.1929  0.3236  0.0333
  757MOL0     C 2066   8.073   0.555   0.686 -0.4674 -0.2464 -0.0751
  757MOL0     C 2067   8.040   0.522   0.553 -0.0645 -0.0554  0.1041
  757MOL0     O 2068   7.906   0.515   0.532  0.2733 -0.8994 -0.9042
  757MOL0     C 2069   7.869   0.407   0.447 -0.1600 -0.3852 -0.5597
  757MOL0     C 2070   7.836   0.460   0.310  0.3862  0.0143  0.7039
  757MOL0     C 2071   7.811   0.346   0.204 -0.8852 -0.5276 -0.1010
  757MOL0     C 2072   7.683   0.268   0.226  0.7644 -0.5412 -0.2312
  757MOL0     C 2073   7.689   0.144   0.313 -0.0941 -0.4737 -0.0030
  757MOL0     C 2074   7.552   0.072   0.325 -0.2164 -0.9315  0.0014
  757MOL0     C 2075   7.544  -0.084   0.351  0.0813  1.0211  0.8123
  757MOL0     C 2076   7.548  -0.166   0.221  0.4456 -0.1583 -0.3504
  757MOL0     N 2077   7.534  -0.309   0.247  0.0788  0.6435  0.1816
  757MOL0     C 2078   7.449  -0.389   0.170  0.5886  0.1055  0.0442
  757MOL0     C 2079   7.485  -0.518   0.195  0.1339  0.3730  0.3535
  757MOL0     C 2080   7.418  -0.643   0.134  0.6544  1.0782  0.1621
  757MOL0     C 2081   7.269  -0.628   0.099 -0.1622  0.3181 -0.1680
  757MOL0     C 2082   7.212  -0.752   0.055  0.2983 -0.5380 -0.3378
  757MOL0     C 2083   7.057  -0.741   0.060 -1.2353 -0.4829  0.4215
  757MOL0     O 2084   7.002  -0.866  -0.005 -0.1534 -0.8793 -0.1516
  757MOL0     C 2085   6.873  -0.872  -0.059  1.0205  0.1584 -0.1670
  757MOL0     C 2086   6.794  -0.765  -0.084  0.3509 -0.2710 -1.0054
  757MOL0     C 2087   6.688  -0.771  -0.166  0.6668 -0.5307  0.5275
  757MOL0     C 2088   6.625  -0.896  -0.190 -0.1639  0.7948  0.3336
  757MOL0     C 2089   6.490  -0.905  -0.255  0.1140 -0.1316 -0.2166
  757MOL0     O 2090   6.453  -0.798  -0.330 -0.5754  0.0622 -0.6077
  757MOL0     C 2091   6.329  -0.809  -0.395 -0.2261  0.6527  0.2524
  757MOL0     C 2092   6.210  -0.798  -0.326  0.2200  0.5615  0.0900
  757MOL0     C 2093   6.087  -0.803  -0.388  1.4099 -0.4169 -0.0029
  757MOL0     C 2094   6.079  -0.838  -0.520 -0.9180  0.8014  0.6971
  757MOL0     O 2095   5.969  -0.837  -0.591 -0.7269 -0.1002 -0.5679
  757MOL0     C 2096   5.892  -0.707  -0.580  1.1356  0.4489  0.4413
  757MOL0     C 2097   5.760  -0.722  -0.658 -0.6778  0.7895  0.0738
  757MOL0     C 2098   5.651  -0.814  -0.612  0.4269  0.2035 -0.3630
  757MOL0     C 2099   5.603  -0.786  -0.469 -0.5035  0.0458  0.3243
  757MOL0     C 2100   5.471  -0.851  -0.439 -0.1345  0.4474 -0.1393
  757MOL0     C 2101   5.419  -0.820  -0.297  0.4738  0.1113 -0.0235
  757MOL0     C 2102   5.278  -0.874  -0.282 -0.0451  0.6287  0.5694
  757MOL0     C 2103   5.167  -0.795  -0.360 -0.6735  0.1038 -0.1950
  757MOL0    Cl 2104   5.158  -0.626  -0.308 -0.1619 -0.2979 -0.0407
  757MOL0     C 2105   6.207  -0.847  -0.600 -0.2879 -0.8187 -0.5876
  757MOL0     C 2106   6.331  -0.833  -0.529 -0.8097  0.4504 -0.2159
  757MOL0     O 2107   6.429  -1.008  -0.233 -0.3121 -0.7557  0.4754
  757MOL0     C 2108   6.693  -1.012  -0.137 -1.1942  0.0538 -0.5443
  757MOL0     C 2109   6.817  -1.003  -0.073  1.6956  1.0084 -0.6344
  757MOL0     N 2110   7.594  -0.511   0.280  0.8063 -0.3564 -0.2926
  757MOL0     N 2111   7.628  -0.390   0.299  0.4095 -0.6688 -0.2872
  757MOL0     C 2112   8.134   0.510   0.455 -0.6781 -0.4473  1.1625
  757MOL0     C 2113   8.264   0.490   0.493 -0.3628  0.0871  0.6122
  757MOL0     C 2114   8.662   0.597   0.733 -0.7411  0.1166 -0.3951
  757MOL0     C 2115   8.727   0.568   0.612 -0.6230 -0.2093  0.2089
  757MOL0     C 2116   8.868   0.576   0.586 -0.5383  0.1782 -0.0960
  757MOL0     C 2117   8.955   0.621   0.691 -0.4760  0.0230 -0.0266
  757MOL0     O 2118   9.098   0.631   0.687 -0.4332  0.4040 -0.3920
  757MOL0     C 2119   9.160   0.605   0.564 -1.7306 -0.4260 -0.1938
  757MOL0     C 2120   9.315   0.617   0.587 -0.3986  0.0865  0.5912
  757MOL0     C 2121   9.399   0.571   0.465  0.2959 -0.7700  0.5834
  757MOL0     C 2122   9.542   0.553   0.493 -0.4162 -0.4551  0.2739
  757MOL0     C 2123   9.601   0.685   0.535 -0.4220 -0.0698 -0.0852
  757MOL0     C 2124   9.664   0.786   0.575 -0.3659 -0.2973 -0.3909
  757MOL0     C 2125   8.892   0.661   0.813  0.0560  0.5810 -0.3185
  757MOL0     C 2126   8.754   0.646   0.835  0.1862 -0.1856 -0.0574
  757MOL0     C 2127   8.708   0.672   0.970 -0.0334  0.0738  1.1248
  757MOL0     H 2128   8.224   0.603   0.814  2.1785 -0.0588 -0.1008
  757MOL0     H 2129   7.994   0.574   0.757 -1.0403 -2.5356 -0.0157
  757MOL0     H 2130   7.945   0.329   0.450  0.0331 -0.1649  0.7709
  757MOL0     H 2131   7.779   0.365   0.492  0.7809  0.0457  1.8326
  757MOL0     H 2132   7.924   0.520   0.283  2.4521 -1.8111  3.0006
  757MOL0     H 2133   7.742   0.517   0.311 -0.3119 -0.9712 -1.5506
  757MOL0     H 2134   7.900   0.285   0.186 -0.2335  0.1044  0.8528
  757MOL0     H 2135   7.797   0.406   0.114 -0.8983  0.4949  0.5671
  757MOL0     H 2136   7.609   0.342   0.256  1.2577  0.7615 -2.0782
  757MOL0     H 2137   7.643   0.236   0.129 -0.2796 -2.0169  0.6463
  757MOL0     H 2138   7.764   0.077   0.272  3.0199  1.9869  1.2905
  757MOL0     H 2139   7.723   0.163   0.415 -0.3294 -0.4289  0.0688
  757MOL0     H 2140   7.507   0.119   0.413  2.2937 -0.6555  1.2289
  757MOL0     H 2141   7.498   0.083   0.231 -1.7181 -0.4015  0.8930
  757MOL0     H 2142   7.443  -0.094   0.389 -2.2792 -0.3759 -4.7626
  757MOL0     H 2143   7.622  -0.110   0.423  3.2574 -0.8444 -2.9156
  757MOL0     H 2144   7.466  -0.126   0.161  1.3975  0.6485 -1.1459
  757MOL0     H 2145   7.646  -0.149   0.177  0.2696  1.2685 -0.2533
  757MOL0     H 2146   7.367  -0.349   0.111 -1.2065  0.8649  2.8641
  757MOL0     H 2147   7.477  -0.680   0.049 -0.5433  0.8727 -0.6118
  757MOL0     H 2148   7.423  -0.722   0.209 -1.7406  1.2113  0.5525
  757MOL0     H 2149   7.220  -0.591   0.189  2.8238  0.9093  1.3291
  757MOL0     H 2150   7.256  -0.557   0.017 -0.7992 -2.6257 -2.8352
  757MOL0     H 2151   7.248  -0.826   0.126  2.6206  2.1155  1.4717
  757MOL0     H 2152   7.253  -0.780  -0.043  0.8673  0.9510 -0.5462
  757MOL0     H 2153   7.035  -0.649   0.005  2.6648 -0.5732 -1.6494
  757MOL0     H 2154   7.021  -0.733   0.163 -1.7698 -4.9661  0.7989
  757MOL0     H 2155   6.839  -0.671  -0.052 -0.0350  0.0519 -1.4093
  757MOL0     H 2156   6.637  -0.680  -0.196 -0.1960 -0.9794  0.5970
  757MOL0     H 2157   6.227  -0.785  -0.220 -0.3446 -2.4965  0.6318
  757MOL0     H 2158   5.996  -0.792  -0.330  1.7083  0.2006  0.3569
  757MOL0     H 2159   5.853  -0.676  -0.483 -0.6565  3.8632 -1.1945
  757MOL0     H 2160   5.957  -0.621  -0.597 -0.2926  1.7421  1.2485
  757MOL0     H 2161   5.718  -0.623  -0.681 -1.2566  0.1569 -1.7820
  757MOL0     H 2162   5.799  -0.768  -0.749 -1.0102 -0.3870  0.5128
  757MOL0     H 2163   5.567  -0.802  -0.681  0.2899 -0.2262 -0.2734
  757MOL0     H 2164   5.689  -0.916  -0.625  1.2073  0.4906 -0.4365
  757MOL0     H 2165   5.589  -0.679  -0.454  2.2497  0.9035 -2.1646
  757MOL0     H 2166   5.677  -0.827  -0.400 -0.1322 -0.2226 -0.2259
  757MOL0     H 2167   5.485  -0.959  -0.450  1.7852  0.1645  3.4691
  757MOL0     H 2168   5.402  -0.812  -0.515  0.0116 -0.4286 -0.7456
  757MOL0     H 2169   5.478  -0.873  -0.222 -0.6274 -1.5331 -0.2855
  757MOL0     H 2170   5.429  -0.712  -0.281 -2.6775  0.4169  0.5272
  757MOL0     H 2171   5.249  -0.880  -0.177 -1.6782  3.8657  0.4146
  757MOL0     H 2172   5.295  -0.981  -0.300  2.2779  1.0489 -0.0635
  757MOL0     H 2173   5.176  -0.805  -0.468  0.1671 -3.5301  0.0988
  757MOL0     H 2174   5.076  -0.846  -0.327 -0.3977 -0.8293 -0.8611
  757MOL0     H 2175   6.194  -0.858  -0.708 -0.4136 -0.7996 -0.5739
  757MOL0     H 2176   6.424  -0.823  -0.584 -0.5364 -1.5219 -0.1683
  757MOL0     H 2177   6.641  -1.107  -0.137  1.3512 -1.4013  0.4917
  757MOL0     H 2178   6.868  -1.097  -0.056  1.4391  0.8142 -0.9166
  757MOL0     H 2179   8.122   0.466   0.356  2.6133 -2.2012  1.3987
  757MOL0     H 2180   8.333   0.457   0.416 -1.2271 -0.1186 -0.0822
  757MOL0     H 2181   8.666   0.527   0.532  0.8985 -1.9000 -0.1622
  757MOL0     H 2182   8.912   0.551   0.491  1.4485  1.5325  0.3995
  757MOL0     H 2183   9.137   0.668   0.477  1.6758 -1.8096 -2.3176
  757MOL0     H 2184   9.137   0.502   0.539 -1.7778 -1.2505  2.8467
  757MOL0     H 2185   9.349   0.571   0.681  1.9286  2.0113  0.7702
  757MOL0     H 2186   9.321   0.725   0.603 -0.0646  0.5178 -2.0879
  757MOL0     H 2187   9.388   0.637   0.379  0.1170  0.4797  1.5424
  757MOL0     H 2188   9.361   0.473   0.434 -0.1298 -0.9747  1.6781
  757MOL0     H 2189   9.566   0.474   0.565 -0.9719 -2.0220 -1.1914
  757MOL0     H 2190   9.608   0.528   0.410  1.6138  0.6368  1.4866
  757MOL0     H 2191   9.681   0.880   0.623 -2.5579 -0.3789  0.6881
  757MOL0     H 2192   8.960   0.695   0.890 -0.8685  1.7628 -0.0010
  757MOL0     H 2193   8.661   0.578   1.000 -1.1957  0.2029 -0.1741
  757MOL0     H 2194   8.785   0.688   1.045 -0.3534  1.9948  1.0898
  757MOL0     H 2195   8.642   0.759   0.975  0.4892  0.4872  0.8383
  758MOL0     O 2196   9.992   7.553   5.650  0.5220  0.5724 -0.0744
  758MOL0     C 2197  10.113   7.543   5.648 -0.0577  0.5875  0.1052
  758MOL0     O 2198  10.201   7.623   5.707 -0.8181  0.6039  0.7389
  758MOL0     C 2199  10.161   7.724   5.794  0.2370 -0.2654  0.9158
  758MOL0     C 2200  10.048   7.708   5.872 -0.0507  0.3760  0.5372
  758MOL0     C 2201  10.004   7.816   5.938  0.9564 -0.2214 -0.6394
  758MOL0     C 2202  10.055   7.946   5.916  0.0438  0.0921 -1.4573
  758MOL0     O 2203  10.003   8.053   5.988 -0.2133  0.3165  0.8941
  758MOL0     C 2204   9.877   8.086   5.928 -0.6067 -0.4078 -0.9605
  758MOL0     C 2205   9.886   8.124   5.787 -0.2244  0.1318 -0.0464
  758MOL0     C 2206   9.964   8.261   5.780  0.7290  0.0278 -0.8034
  758MOL0     C 2207   9.988   8.323   5.648 -0.7449  0.6451  0.7895
  758MOL0     C 2208  10.094   8.440   5.640 -0.4649  0.5821  0.0573
  758MOL0     C 2209  10.042   8.558   5.732 -0.3772  0.4066  0.6570
  758MOL0     C 2210  10.126   8.679   5.729  0.2646  0.1023 -0.1434
  758MOL0     C 2211  10.274   8.653   5.774  1.1392 -0.0244 -0.0721
  758MOL0     N 2212  10.351   8.761   5.717  0.6293 -0.9191  0.6915
  758MOL0     C 2213  10.423   8.743   5.599 -0.3724  0.8746 -0.4562
  758MOL0     C 2214  10.423   8.858   5.535 -0.8444 -0.6170 -0.0109
  758MOL0     C 2215  10.494   8.906   5.405  0.3464  0.5227 -0.9478
  758MOL0     C 2216  10.607   9.008   5.435 -0.4940 -0.3902  0.8223
  758MOL0     C 2217  10.722   8.947   5.519 -0.7787 -0.5690 -0.3072
  758MOL0     C 2218  10.804   9.060   5.594  0.8739 -0.0536  0.7212
  758MOL0     O 2219  10.841   9.165   5.505 -0.4763  0.1894  0.0790
  758MOL0     C 2220  10.958   9.165   5.428 -0.2731 -0.8067  0.0748
  758MOL0     C 2221  10.995   9.264   5.341 -0.4278  0.1650  0.8700
  758MOL0     C 2222  11.118   9.266   5.268  0.4254  0.3576  0.8123
  758MOL0     C 2223  11.217   9.166   5.286  0.2547 -0.2946  0.3032
  758MOL0     C 2224  11.353   9.164   5.249 -0.2100 -0.2324  1.6537
  758MOL0     O 2225  11.425   9.055   5.300 -0.1680  0.4729 -0.5294
  758MOL0     C 2226  11.561   9.049   5.279 -0.5193 -0.1538 -0.0400
  758MOL0     C 2227  11.648   9.060   5.383 -1.0087 -0.4831 -0.3298
  758MOL0     C 2228  11.791   9.047   5.370  0.3039 -0.0535 -0.3480
  758MOL0     C 2229  11.841   9.038   5.239  0.1851  0.0015 -0.0009
  758MOL0     O 2230  11.973   9.052   5.238  0.5057  0.2762 -0.2503
  758MOL0     C 2231  12.045   9.069   5.116 -0.5696 -0.8220 -0.2960
  758MOL0     C 2232  12.194   9.092   5.145  0.7012 -0.1234  0.0129
  758MOL0     C 2233  12.202   9.196   5.254 -0.2897 -0.2164 -0.3894
  758MOL0     C 2234  12.348   9.219   5.285  0.1001  0.7990 -0.6197
  758MOL0     C 2235  12.393   9.334   5.389  1.1652 -0.3229  0.7799
  758MOL0     C 2236  12.543   9.347   5.388  0.3890  1.0839 -0.3594
  758MOL0     C 2237  12.591   9.460   5.480  0.1524 -0.2406 -0.2644
  758MOL0     C 2238  12.726   9.427   5.532 -0.3738  0.0656 -0.3329
  758MOL0    Cl 2239  12.796   9.547   5.639 -0.2035  0.0502 -0.2914
  758MOL0     C 2240  11.755   9.032   5.127 -0.4005 -0.8496  0.0821
  758MOL0     C 2241  11.617   9.039   5.150  0.9471  1.0062  0.0079
  758MOL0     O 2242  11.393   9.258   5.176 -0.9138 -0.0793  0.2795
  758MOL0     C 2243  11.168   9.055   5.353  0.1072  0.6038 -0.5366
  758MOL0     C 2244  11.046   9.054   5.429 -0.1220  0.4714 -0.4947
  758MOL0     N 2245  10.353   8.950   5.613  0.7742 -0.1452  0.1285
  758MOL0     N 2246  10.315   8.885   5.718  0.2999 -0.3006  0.7125
  758MOL0     C 2247  10.174   7.958   5.848 -0.0185 -0.6944  1.0637
  758MOL0     C 2248  10.227   7.845   5.778  0.1096 -0.2532  0.1228
  758MOL0     C 2249  10.156   7.420   5.589 -0.1344  0.5260 -0.0851
  758MOL0     C 2250  10.114   7.397   5.458 -0.6723 -0.5946 -1.1779
  758MOL0     C 2251  10.164   7.288   5.394  0.8504  0.2562  0.1428
  758MOL0     C 2252  10.234   7.188   5.461  0.2500  1.4300  1.0271
  758MOL0     O 2253  10.266   7.066   5.403 -0.2370 -0.5914 -0.4272
  758MOL0     C 2254  10.249   7.038   5.265 -0.2776  0.2794 -0.3006
  758MOL0     C 2255  10.310   6.900   5.231 -0.7637  0.0834  1.0233
  758MOL0     C 2256  10.454   6.889   5.270 -0.1862 -0.4463  0.0474
  758MOL0     C 2257  10.511   6.746   5.255 -0.7568 -0.6695 -0.0712
  758MOL0     C 2258  10.645   6.743   5.294 -0.2702 -0.0868 -0.1192
  758MOL0     C 2259  10.767   6.718   5.312 -0.4974  0.2364  0.4718
  758MOL0     C 2260  10.254   7.198   5.596  0.0047 -0.3147  0.4100
  758MOL0     C 2261  10.218   7.313   5.664  0.8898  0.4138 -0.7080
  758MOL0     C 2262  10.232   7.336   5.809 -0.5435  0.6030  0.2991
  758MOL0     H 2263  10.007   7.609   5.890  0.1606  0.3502  0.8852
  758MOL0     H 2264   9.928   7.798   6.014  2.6326 -2.3369  0.6289
  758MOL0     H 2265   9.809   8.000   5.937  1.2633 -1.8267  0.5416
  758MOL0     H 2266   9.838   8.162   5.996  1.5417 -1.3639  1.5220
  758MOL0     H 2267   9.779   8.134   5.767 -0.9362 -2.1949  2.0721
  758MOL0     H 2268   9.917   8.037   5.729 -1.2813  1.0527 -2.0783
  758MOL0     H 2269  10.062   8.241   5.825  1.4158 -0.4744 -2.4515
  758MOL0     H 2270   9.911   8.330   5.846  1.8951 -0.9480  1.2471
  758MOL0     H 2271  10.027   8.251   5.576 -1.1770  2.1819 -1.0604
  758MOL0     H 2272   9.886   8.348   5.616 -0.2028  0.1419 -1.5152
  758MOL0     H 2273  10.194   8.408   5.669 -0.7936  1.4553  2.3102
  758MOL0     H 2274  10.102   8.457   5.532 -0.5253 -0.7071 -0.1644
  758MOL0     H 2275   9.942   8.584   5.696  0.1102 -0.4270 -1.3903
  758MOL0     H 2276  10.043   8.518   5.834  0.2083 -1.5294 -0.0549
  758MOL0     H 2277  10.080   8.756   5.791  0.8094  0.3389 -0.0290
  758MOL0     H 2278  10.135   8.711   5.625 -2.1768  0.2932 -0.3398
  758MOL0     H 2279  10.284   8.645   5.883 -2.6270 -3.9073  0.2528
  758MOL0     H 2280  10.311   8.560   5.731  0.6378 -0.1978 -0.1262
  758MOL0     H 2281  10.470   8.648   5.577 -3.5151 -1.3883  1.6571
  758MOL0     H 2282  10.537   8.814   5.364 -4.2587 -2.3920  0.0116
  758MOL0     H 2283  10.417   8.955   5.345 -0.6530  2.9348  2.0495
  758MOL0     H 2284  10.649   9.043   5.340  0.7280  0.9149  1.8144
  758MOL0     H 2285  10.562   9.096   5.481  2.0683  1.9753 -0.8785
  758MOL0     H 2286  10.786   8.898   5.445  0.1000  0.7292 -0.4228
  758MOL0     H 2287  10.680   8.870   5.585 -1.3970  0.6320  0.7446
  758MOL0     H 2288  10.886   9.012   5.648  2.7709  2.6666  0.4772
  758MOL0     H 2289  10.742   9.117   5.664  0.0100  0.3654 -0.3525
  758MOL0     H 2290  10.933   9.353   5.336  1.7786  1.8250  1.4657
  758MOL0     H 2291  11.146   9.349   5.203  2.1453 -1.4381 -0.8888
  758MOL0     H 2292  11.618   9.076   5.486  1.9727 -1.0715  0.7383
  758MOL0     H 2293  11.851   9.058   5.459  3.0454 -1.3196 -1.9195
  758MOL0     H 2294  12.039   8.980   5.052 -0.2182 -2.8727  2.3726
  758MOL0     H 2295  12.002   9.162   5.076  0.6027  0.6574  1.6740
  758MOL0     H 2296  12.242   8.997   5.171  2.6357  0.8298  0.1551
  758MOL0     H 2297  12.243   9.123   5.052 -0.7900 -0.3696 -0.8788
  758MOL0     H 2298  12.159   9.293   5.228 -2.5479 -1.5234 -1.8223
  758MOL0     H 2299  12.155   9.165   5.348 -0.9428  0.8024 -0.3625
  758MOL0     H 2300  12.382   9.259   5.189 -0.4584  2.1816 -0.2670
  758MOL0     H 2301  12.402   9.127   5.308 -0.5623  0.1005 -1.7820
  758MOL0     H 2302  12.361   9.317   5.492 -0.5091 -0.1167  0.3212
  758MOL0     H 2303  12.350   9.427   5.350  0.2589 -0.4452  1.4562
  758MOL0     H 2304  12.578   9.254   5.433 -2.6569  0.4268  0.9647
  758MOL0     H 2305  12.572   9.367   5.285  0.2684  2.6916 -0.1094
  758MOL0     H 2306  12.517   9.476   5.559 -2.0768  3.3348 -2.7783
  758MOL0     H 2307  12.596   9.555   5.425 -1.3335  1.3411  2.1629
  758MOL0     H 2308  12.716   9.332   5.585  0.5048 -0.4925 -1.1337
  758MOL0     H 2309  12.790   9.413   5.445  0.5190  1.7059  0.0291
  758MOL0     H 2310  11.801   9.020   5.029 -1.2158  0.5943 -0.4981
  758MOL0     H 2311  11.548   9.029   5.068 -0.7361  0.2888  1.4533
  758MOL0     H 2312  11.229   8.966   5.365 -0.6558  0.1761  0.2818
  758MOL0     H 2313  11.037   8.966   5.492  0.8390  0.8562  0.2066
  758MOL0     H 2314  10.225   8.052   5.832  1.7342 -1.8858 -0.8162
  758MOL0     H 2315  10.311   7.862   5.712 -0.7503  1.1867 -0.6522
  758MOL0     H 2316  10.053   7.471   5.408  1.1266  1.7445 -0.0943
  758MOL0     H 2317  10.144   7.274   5.289  1.8399 -1.5573  0.1485
  758MOL0     H 2318  10.294   7.115   5.201 -1.4630  0.9837 -0.3292
  758MOL0     H 2319  10.142   7.035   5.240 -0.6727 -0.6818  1.4020
  758MOL0     H 2320  10.306   6.898   5.122 -0.4007  0.9389  0.9883
  758MOL0     H 2321  10.244   6.821   5.269 -1.2436 -1.9658 -3.3959
  758MOL0     H 2322  10.462   6.926   5.372 -4.5045  0.8521  0.0934
  758MOL0     H 2323  10.516   6.951   5.204  0.7017 -1.6090 -0.2489
  758MOL0     H 2324  10.457   6.687   5.329 -1.5319  0.8946  0.6654
  758MOL0     H 2325  10.509   6.704   5.154 -1.8741 -1.1165  0.1190
  758MOL0     H 2326  10.870   6.701   5.335  0.0818  1.4172 -1.0439
  758MOL0     H 2327  10.286   7.110   5.650 -2.0679 -0.7889  0.9445
  758MOL0     H 2328  10.263   7.248   5.865 -3.4158  0.5700  2.0402
  758MOL0     H 2329  10.298   7.420   5.835  2.0767 -1.2996  0.1766
  758MOL0     H 2330  10.129   7.363   5.832 -0.4205  3.6134 -1.9868
  759MOL0     O 2331   4.612   7.040   7.996  0.5101 -0.3749 -0.4003
  759MOL0     C 2332   4.566   7.005   7.883  0.5912 -0.3843  0.0703
  759MOL0     O 2333   4.607   7.045   7.769 -0.5410 -0.7215  1.0610
  759MOL0     C 2334   4.679   7.157   7.761 -0.3078 -0.0194 -0.3875
  759MOL0     C 2335   4.814   7.150   7.729  0.3472 -0.3421 -0.2784
  759MOL0     C 2336   4.893   7.266   7.695 -0.3577  0.7185 -0.6712
  759MOL0     C 2337   4.838   7.393   7.710 -0.3674  0.2456  0.2165
  759MOL0     O 2338   4.919   7.503   7.689  0.3078  0.5504  0.1746
  759MOL0     C 2339   4.980   7.555   7.807 -0.2718  0.0926  0.5689
  759MOL0     C 2340   5.027   7.700   7.783  0.3942  0.1175  0.0968
  759MOL0     C 2341   4.913   7.804   7.772  0.4522  0.7407  0.0509
  759MOL0     C 2342   4.830   7.823   7.898 -0.4058 -0.6464 -0.2251
  759MOL0     C 2343   4.706   7.910   7.865  0.4882 -0.8281  1.1153
  759MOL0     C 2344   4.636   7.947   7.994 -0.4188 -0.4414  0.2666
  759MOL0     C 2345   4.530   8.047   7.965  0.4510 -0.6339 -0.2853
  759MOL0     C 2346   4.584   8.187   7.954 -0.2373  0.3334  0.2775
  759MOL0     N 2347   4.470   8.287   7.944 -0.3196 -0.6870 -0.7307
  759MOL0     C 2348   4.386   8.310   7.837  0.0439  0.1545 -0.3121
  759MOL0     C 2349   4.337   8.435   7.857  0.2018  0.0770 -0.9262
  759MOL0     C 2350   4.251   8.521   7.766  0.6586  0.0455  0.4151
  759MOL0     C 2351   4.301   8.514   7.620 -0.2882 -0.0691 -0.2896
  759MOL0     C 2352   4.425   8.593   7.589  0.1289 -0.1725 -0.5422
  759MOL0     C 2353   4.545   8.585   7.694  0.1725 -0.2227  0.2002
  759MOL0     O 2354   4.662   8.644   7.642 -0.0248  1.0361  0.5161
  759MOL0     C 2355   4.773   8.657   7.731 -0.0206  0.0125  0.4852
  759MOL0     C 2356   4.795   8.578   7.847  0.3939  0.8377  0.5475
  759MOL0     C 2357   4.896   8.608   7.933 -0.1033  0.1401 -0.2556
  759MOL0     C 2358   4.975   8.720   7.917  0.0773 -0.8529  0.1603
  759MOL0     C 2359   5.084   8.752   8.011 -0.7517 -0.4395 -0.6496
  759MOL0     O 2360   5.108   8.883   8.046 -0.4571  0.2621  0.0369
  759MOL0     C 2361   5.213   8.919   8.132 -0.3690  0.3701 -0.2653
  759MOL0     C 2362   5.185   9.012   8.230  0.6272 -1.1128  1.1320
  759MOL0     C 2363   5.283   9.056   8.315  1.2757 -0.2965 -0.4303
  759MOL0     C 2364   5.413   9.006   8.310 -0.0710  1.0367 -0.2985
  759MOL0     O 2365   5.481   9.052   8.418  0.3949  0.6746 -0.7238
  759MOL0     C 2366   5.583   9.148   8.388 -0.0929 -0.6020 -0.6071
  759MOL0     C 2367   5.618   9.234   8.515  0.3597  1.1668 -0.3041
  759MOL0     C 2368   5.497   9.322   8.576 -0.7999  0.6540  0.8511
  759MOL0     C 2369   5.515   9.472   8.525 -0.3106  0.6930  0.0701
  759MOL0     C 2370   5.515   9.502   8.374  0.6347  0.3065 -0.7776
  759MOL0     C 2371   5.505   9.657   8.358 -0.8607  0.7781 -0.4387
  759MOL0     C 2372   5.525   9.714   8.212 -0.7578  0.3986  0.2299
  759MOL0     C 2373   5.596   9.852   8.206 -0.1103  0.5144  0.3180
  759MOL0    Cl 2374   5.639   9.883   8.030 -0.5784  0.1449 -0.2705
  759MOL0     C 2375   5.455   8.922   8.212  0.2599 -0.4258  0.5710
  759MOL0     C 2376   5.351   8.881   8.122 -0.0759  1.4867  0.6306
  759MOL0     O 2377   5.154   8.660   8.048 -0.6730 -0.3825 -0.7839
  759MOL0     C 2378   4.943   8.813   7.807  0.1349  0.2600 -0.5070
  759MOL0     C 2379   4.840   8.780   7.717  0.3582  0.7936 -0.8384
  759MOL0     N 2380   4.393   8.487   7.979 -0.2696  0.3195 -0.3640
  759MOL0     N 2381   4.469   8.390   8.025  0.3112  0.6807  0.4572
  759MOL0     C 2382   4.704   7.399   7.756 -0.1113 -0.0445 -0.1335
  759MOL0     C 2383   4.624   7.286   7.774 -1.4158 -0.3224  0.7018
  759MOL0     C 2384   4.460   6.903   7.880  0.9649  0.6541 -0.0793
  759MOL0     C 2385   4.419   6.836   7.761  0.3413 -0.0556  0.0828
  759MOL0     C 2386   4.308   6.746   7.748  0.4229  1.1775 -0.0310
  759MOL0     C 2387   4.243   6.713   7.863  0.5213  0.7480  0.4906
  759MOL0     O 2388   4.132   6.629   7.852 -0.0480  0.2237  0.0614
  759MOL0     C 2389   4.043   6.584   7.959 -0.3812 -0.5195 -1.1200
  759MOL0     C 2390   3.964   6.454   7.922 -0.8381 -0.7202  0.1194
  759MOL0     C 2391   3.889   6.398   8.050 -0.4153  0.0877  0.4498
  759MOL0     C 2392   3.821   6.265   8.024  0.1546 -0.2741 -0.2325
  759MOL0     C 2393   3.691   6.268   7.963 -0.5673  0.2927  0.2089
  759MOL0     C 2394   3.569   6.276   7.923 -0.0560  0.4461 -0.8469
  759MOL0     C 2395   4.280   6.770   7.980 -0.0248  0.3718  0.0718
  759MOL0     C 2396   4.384   6.856   7.994 -0.5493 -0.6060  0.7748
  759MOL0     C 2397   4.403   6.910   8.130  0.5980  0.0552 -0.1856
  759MOL0     H 2398   4.872   7.059   7.715  0.9859  0.0353 -0.1293
  759MOL0     H 2399   4.989   7.255   7.646 -1.2764  0.1237 -2.4510
  759MOL0     H 2400   4.909   7.575   7.887 -0.7806  3.7422 -0.6000
  759MOL0     H 2401   5.052   7.480   7.841 -0.4838 -0.2023  0.3749
  759MOL0     H 2402   5.090   7.699   7.694  1.3344  0.3976  0.7521
  759MOL0     H 2403   5.084   7.727   7.872  2.4899  1.3383 -1.5080
  759MOL0     H 2404   4.848   7.754   7.700 -2.2101 -0.7559  3.2340
  759MOL0     H 2405   4.956   7.899   7.738 -3.3096  2.1803 -1.2427
  759MOL0     H 2406   4.793   7.729   7.941 -1.2130 -1.5206 -2.6659
  759MOL0     H 2407   4.885   7.869   7.980 -1.4213  0.5573 -0.1811
  759MOL0     H 2408   4.745   7.994   7.807  0.8887 -1.1487  0.9125
  759MOL0     H 2409   4.643   7.859   7.792  0.5829  1.0585 -0.3718
  759MOL0     H 2410   4.598   7.859   8.046  1.2505 -1.0034  0.6144
  759MOL0     H 2411   4.714   7.983   8.062  1.1543 -2.3351 -0.4418
  759MOL0     H 2412   4.457   8.044   8.046 -0.4234  0.0485 -1.0211
  759MOL0     H 2413   4.488   8.046   7.864  1.9984  3.8277 -1.1820
  759MOL0     H 2414   4.653   8.213   8.036  0.1758  2.7800 -0.7536
  759MOL0     H 2415   4.635   8.200   7.858 -1.5155  1.2377 -0.3014
  759MOL0     H 2416   4.369   8.238   7.758 -0.0436 -0.5626  0.3440
  759MOL0     H 2417   4.158   8.463   7.767  0.8855 -0.3592  2.7173
  759MOL0     H 2418   4.233   8.626   7.789 -2.0534 -0.2016 -0.1947
  759MOL0     H 2419   4.318   8.416   7.574  0.0312  0.1951 -0.7464
  759MOL0     H 2420   4.230   8.560   7.551  3.1043  0.9890 -3.4012
  759MOL0     H 2421   4.393   8.697   7.584 -0.1712 -0.2680 -0.6175
  759MOL0     H 2422   4.466   8.571   7.490 -0.4264 -3.2140 -0.2022
  759MOL0     H 2423   4.569   8.481   7.716  2.6698 -0.1769 -1.8297
  759MOL0     H 2424   4.527   8.643   7.785  1.3883  2.6169 -1.2207
  759MOL0     H 2425   4.744   8.484   7.867 -0.6176  1.0483 -0.8730
  759MOL0     H 2426   4.908   8.541   8.017  2.9250 -1.1153 -1.5464
  759MOL0     H 2427   5.086   9.055   8.232  0.8989 -0.4528  0.8131
  759MOL0     H 2428   5.260   9.114   8.404 -1.0521 -1.2247 -0.3620
  759MOL0     H 2429   5.670   9.085   8.365  1.8567 -0.2754  4.4430
  759MOL0     H 2430   5.543   9.213   8.310  2.0829  1.5301 -0.0500
  759MOL0     H 2431   5.659   9.158   8.583 -0.9010  0.6059 -0.1372
  759MOL0     H 2432   5.695   9.300   8.475  1.4784 -0.7418 -1.4462
  759MOL0     H 2433   5.400   9.287   8.540 -0.6355  0.1725  0.8589
  759MOL0     H 2434   5.502   9.341   8.684 -2.5931  0.2918  1.0364
  759MOL0     H 2435   5.611   9.500   8.570 -0.4474 -2.5010  2.7903
  759MOL0     H 2436   5.433   9.534   8.564 -1.2857  0.5138 -1.5951
  759MOL0     H 2437   5.425   9.460   8.328 -0.3693 -0.0669  1.3866
  759MOL0     H 2438   5.602   9.459   8.325 -0.3399 -1.0800 -1.3539
  759MOL0     H 2439   5.411   9.692   8.400 -0.8531 -1.6033  1.7381
  759MOL0     H 2440   5.582   9.705   8.419 -0.2165 -0.8991  0.1247
  759MOL0     H 2441   5.432   9.721   8.156  0.6082 -1.8147 -2.6039
  759MOL0     H 2442   5.587   9.644   8.156 -1.2212  0.1786 -0.0123
  759MOL0     H 2443   5.540   9.934   8.251 -2.0055 -0.0474 -0.8973
  759MOL0     H 2444   5.690   9.842   8.262  1.1941  0.9157 -1.6871
  759MOL0     H 2445   5.550   8.870   8.211  0.8168  0.5685  0.7127
  759MOL0     H 2446   5.372   8.802   8.049 -0.3394  0.3845  1.7098
  759MOL0     H 2447   4.996   8.907   7.798 -0.8113  0.8879  0.3086
  759MOL0     H 2448   4.812   8.849   7.638 -0.3768  4.3028  2.2278
  759MOL0     H 2449   4.659   7.495   7.779  0.8780  0.1997  0.9100
  759MOL0     H 2450   4.522   7.290   7.812 -2.8341 -1.4005 -2.6766
  759MOL0     H 2451   4.470   6.858   7.667  0.8540 -3.3343 -0.5393
  759MOL0     H 2452   4.286   6.712   7.648 -0.0170 -0.3616  0.5705
  759MOL0     H 2453   3.974   6.663   7.991 -0.5347 -1.2748  0.5208
  759MOL0     H 2454   4.095   6.558   8.052  1.2769  0.6853 -1.6704
  759MOL0     H 2455   4.035   6.384   7.878 -0.5621 -1.4496  1.6766
  759MOL0     H 2456   3.884   6.484   7.853 -0.7943 -1.0998 -0.0992
  759MOL0     H 2457   3.820   6.473   8.090  1.5396  1.5205  1.3077
  759MOL0     H 2458   3.969   6.389   8.124 -0.7890  1.4525  1.0589
  759MOL0     H 2459   3.880   6.198   7.961  0.3183 -0.1857 -0.1734
  759MOL0     H 2460   3.816   6.214   8.121  0.7472  1.5927  0.8299
  759MOL0     H 2461   3.471   6.282   7.881 -0.6238 -0.3638  0.3284
  759MOL0     H 2462   4.208   6.751   8.059 -3.4224  2.9532 -2.1212
  759MOL0     H 2463   4.326   6.875   8.198  1.2637  0.6756  0.9169
  759MOL0     H 2464   4.496   6.881   8.179  0.2520 -1.8332 -0.5814
  759MOL0     H 2465   4.398   7.019   8.122 -0.7914  0.0165 -0.0813
  760MOL0     O 2466   7.394   6.769   2.807 -1.0336  0.0933  0.0023
  760MOL0     C 2467   7.325   6.857   2.845 -0.3926 -0.1727  0.6570
  760MOL0     O 2468   7.363   6.993   2.840  0.6106 -0.3886  0.2207
  760MOL0     C 2469   7.497   7.011   2.816  0.0316 -0.2841  0.2531
  760MOL0     C 2470   7.572   7.060   2.917  0.1064  0.0257 -0.2230
  760MOL0     C 2471   7.701   7.099   2.889  0.4519  0.6964  0.7384
  760MOL0     C 2472   7.750   7.098   2.753 -0.3909  0.2991 -0.5189
  760MOL0     O 2473   7.869   7.155   2.712 -0.5803  1.0305 -0.2796
  760MOL0     C 2474   7.983   7.137   2.794  0.1502 -0.1850  0.9744
  760MOL0     C 2475   8.107   7.176   2.715  0.5721 -0.0164  0.0597
  760MOL0     C 2476   8.228   7.135   2.787 -0.2410  0.3467 -0.5143
  760MOL0     C 2477   8.353   7.150   2.695  0.3754 -0.4820 -0.5989
  760MOL0     C 2478   8.475   7.081   2.764  0.1722 -0.7187 -0.0702
  760MOL0     C 2479   8.596   7.093   2.683 -0.2539 -0.4542  0.0681
  760MOL0     C 2480   8.730   7.045   2.747  0.2511 -0.2578  0.0251
  760MOL0     C 2481   8.753   6.887   2.730 -0.6702 -0.6099 -0.3453
  760MOL0     N 2482   8.893   6.860   2.765  0.0445 -0.0319 -0.0434
  760MOL0     C 2483   8.992   6.896   2.675  0.6345 -0.1688  0.6971
  760MOL0     C 2484   9.096   6.922   2.763 -0.2550 -0.0595  0.5447
  760MOL0     C 2485   9.221   6.988   2.713 -0.8052  0.1985  0.5693
  760MOL0     C 2486   9.356   6.929   2.755 -1.2949  0.7016 -0.5224
  760MOL0     C 2487   9.392   6.990   2.882 -0.4472  0.4910 -0.2898
  760MOL0     C 2488   9.519   6.929   2.941 -0.1741 -0.1809  0.5882
  760MOL0     O 2489   9.627   6.989   2.871  0.5933 -0.5848  0.1881
  760MOL0     C 2490   9.751   6.993   2.933 -0.9417  0.0663  0.3771
  760MOL0     C 2491   9.785   6.928   3.050  0.1709 -0.2140  0.1561
  760MOL0     C 2492   9.917   6.921   3.082  0.4859 -0.0481  0.2292
  760MOL0     C 2493  10.013   7.007   3.018  0.7882 -0.4233 -0.1572
  760MOL0     C 2494  10.161   7.002   3.067  0.4637  0.5008 -0.2512
  760MOL0     O 2495  10.179   6.917   3.172 -0.7624 -0.2776  0.0331
  760MOL0     C 2496  10.294   6.939   3.246 -0.0988  0.1390  0.0273
  760MOL0     C 2497  10.335   7.059   3.295  0.4087 -0.2533 -0.0872
  760MOL0     C 2498  10.446   7.081   3.367 -0.3214  0.9444  0.0995
  760MOL0     C 2499  10.542   6.979   3.389 -0.4552 -0.3395 -0.4182
  760MOL0     O 2500  10.663   6.994   3.437  0.3071 -0.4564 -0.1893
  760MOL0     C 2501  10.738   7.104   3.373  0.9032  1.2706 -0.0322
  760MOL0     C 2502  10.736   7.227   3.472  0.0727  0.2609 -0.0574
  760MOL0     C 2503  10.835   7.325   3.401 -0.5402  1.3633  0.1559
  760MOL0     C 2504  10.868   7.454   3.477 -0.3964  0.4523 -0.3982
  760MOL0     C 2505  10.990   7.535   3.428 -0.7685 -0.2970 -0.0932
  760MOL0     C 2506  11.124   7.459   3.460  0.4574 -0.4089 -1.2258
  760MOL0     C 2507  11.247   7.548   3.496  0.5715  0.5011  0.2945
  760MOL0     C 2508  11.307   7.615   3.373 -0.1043  0.2994 -0.6929
  760MOL0    Cl 2509  11.358   7.484   3.261 -0.0940 -0.1363  0.0631
  760MOL0     C 2510  10.487   6.852   3.366  0.1795  0.2522  0.8328
  760MOL0     C 2511  10.378   6.834   3.279  0.5075 -0.4996 -0.5819
  760MOL0     O 2512  10.238   7.085   3.022 -0.2714  0.1282  0.5136
  760MOL0     C 2513   9.967   7.095   2.914 -0.7212  0.5426  0.1640
  760MOL0     C 2514   9.834   7.081   2.874  0.0737  0.5983  0.3738
  760MOL0     N 2515   9.063   6.891   2.890 -0.3384  0.2048  0.0099
  760MOL0     N 2516   8.937   6.856   2.896  0.1486 -0.5330 -0.3115
  760MOL0     C 2517   7.678   7.027   2.658  0.7875  0.2550 -0.0370
  760MOL0     C 2518   7.549   6.984   2.690  0.5783 -0.2688 -0.4302
  760MOL0     C 2519   7.181   6.822   2.886  0.0820 -0.3552 -0.7720
  760MOL0     C 2520   7.095   6.919   2.945  0.0087  0.6132 -0.0103
  760MOL0     C 2521   6.972   6.886   2.999 -0.4384 -0.6835  0.1040
  760MOL0     C 2522   6.921   6.755   2.998  0.4514  0.2617  0.0915
  760MOL0     O 2523   6.807   6.722   3.068 -0.4771 -0.8023  0.0708
  760MOL0     C 2524   6.773   6.807   3.179  0.8692  0.4733 -0.2147
  760MOL0     C 2525   6.648   6.750   3.249 -0.1723  0.0894  0.9855
  760MOL0     C 2526   6.531   6.703   3.162 -0.6761  1.3816  0.2976
  760MOL0     C 2527   6.439   6.620   3.248  0.8294  0.4046  0.4415
  760MOL0     C 2528   6.307   6.681   3.230 -0.1825  0.3923  0.1512
  760MOL0     C 2529   6.205   6.743   3.201 -0.2874 -0.8080 -0.2418
  760MOL0     C 2530   6.988   6.660   2.915 -0.9690  0.1213 -0.3047
  760MOL0     C 2531   7.119   6.692   2.862  0.0909  0.5864 -0.6833
  760MOL0     C 2532   7.178   6.574   2.789 -0.2692 -0.6041 -0.1877
  760MOL0     H 2533   7.547   7.077   3.021  1.8552  2.2586 -0.0897
  760MOL0     H 2534   7.765   7.142   2.966 -0.3181  2.3606  0.4817
  760MOL0     H 2535   7.979   7.205   2.879 -1.8640  0.6881  0.2428
  760MOL0     H 2536   7.987   7.032   2.826  0.9835 -0.8083 -0.9914
  760MOL0     H 2537   8.114   7.285   2.709  0.6782 -0.0078  0.3208
  760MOL0     H 2538   8.104   7.143   2.611 -2.2460  0.0237  0.0413
  760MOL0     H 2539   8.224   7.032   2.824 -1.4773  0.6525  0.2889
  760MOL0     H 2540   8.231   7.194   2.879 -2.3017 -1.1267  0.5861
  760MOL0     H 2541   8.329   7.090   2.607 -3.1934 -2.2115  1.3181
  760MOL0     H 2542   8.377   7.254   2.670  0.8026 -0.6084 -0.7152
  760MOL0     H 2543   8.497   7.137   2.855 -4.1675  0.7974  0.3031
  760MOL0     H 2544   8.451   6.975   2.782 -2.0150 -0.1779  0.5756
  760MOL0     H 2545   8.586   7.054   2.581  0.3659 -1.8069  0.5022
  760MOL0     H 2546   8.599   7.202   2.677 -1.0055 -0.4962 -1.5620
  760MOL0     H 2547   8.747   7.070   2.853 -2.3430  1.0776  0.2086
  760MOL0     H 2548   8.810   7.098   2.695 -0.4293  1.4507  0.6355
  760MOL0     H 2549   8.689   6.834   2.802 -0.0715 -0.1039  0.5853
  760MOL0     H 2550   8.728   6.850   2.630  2.5773  0.0591 -1.5279
  760MOL0     H 2551   8.988   6.912   2.568 -0.0620  0.2890  0.7861
  760MOL0     H 2552   9.227   6.977   2.604  3.7728 -0.4049  0.6732
  760MOL0     H 2553   9.208   7.093   2.740 -0.8778  0.0351  1.1827
  760MOL0     H 2554   9.348   6.821   2.764 -1.6377  0.8340  0.8967
  760MOL0     H 2555   9.429   6.954   2.677 -3.9328  4.7319 -2.0621
  760MOL0     H 2556   9.312   6.973   2.955 -1.7184 -0.7081 -1.8852
  760MOL0     H 2557   9.401   7.095   2.852 -2.9521  1.2602  1.3008
  760MOL0     H 2558   9.525   6.821   2.923 -1.8029  0.0801 -2.1808
  760MOL0     H 2559   9.520   6.950   3.048  0.1313 -2.5981  1.1152
  760MOL0     H 2560   9.698   6.876   3.089  1.0139 -1.0542  0.9308
  760MOL0     H 2561   9.939   6.859   3.168 -0.0017  3.3429  3.0298
  760MOL0     H 2562  10.285   7.149   3.259  1.0520 -0.7916 -2.5328
  760MOL0     H 2563  10.473   7.185   3.387  0.1186  0.8134  0.1989
  760MOL0     H 2564  10.840   7.074   3.346  0.2302 -1.0218 -0.2465
  760MOL0     H 2565  10.680   7.127   3.282 -0.8664  0.6061  0.8705
  760MOL0     H 2566  10.638   7.271   3.491 -0.0308 -0.1117  0.2671
  760MOL0     H 2567  10.783   7.211   3.569 -0.1337  2.8470  0.5424
  760MOL0     H 2568  10.920   7.267   3.365 -1.0731 -0.4057  1.6202
  760MOL0     H 2569  10.780   7.365   3.315 -1.0273  0.0134 -0.1881
  760MOL0     H 2570  10.883   7.430   3.582  0.8935  0.7234 -0.5074
  760MOL0     H 2571  10.780   7.519   3.482 -1.6306 -1.1938 -0.0813
  760MOL0     H 2572  10.982   7.635   3.472 -1.2302  0.6141 -2.1244
  760MOL0     H 2573  10.990   7.561   3.322 -1.2191  3.2422  0.6560
  760MOL0     H 2574  11.101   7.388   3.540  0.7422 -1.9254 -2.4404
  760MOL0     H 2575  11.145   7.396   3.373  3.0387  0.0530 -1.0244
  760MOL0     H 2576  11.320   7.478   3.539  0.5246 -1.6926 -2.8321
  760MOL0     H 2577  11.220   7.622   3.572  1.6386  2.0414 -0.7628
  760MOL0     H 2578  11.239   7.681   3.318 -1.3586 -2.3639 -2.5729
  760MOL0     H 2579  11.402   7.666   3.391  2.7632 -4.6306 -0.0864
  760MOL0     H 2580  10.548   6.767   3.394  2.0298  1.1999 -0.0933
  760MOL0     H 2581  10.355   6.736   3.238  0.3164 -0.3295 -0.8902
  760MOL0     H 2582  10.037   7.153   2.855  2.1398 -2.5455  0.1890
  760MOL0     H 2583   9.796   7.143   2.794  2.2231 -0.0091 -1.2063
  760MOL0     H 2584   7.703   7.019   2.552 -0.3267  0.1009 -0.3060
  760MOL0     H 2585   7.505   6.927   2.610 -0.0000 -1.2746  0.5730
  760MOL0     H 2586   7.125   7.021   2.964 -0.7291  0.5566  1.6554
  760MOL0     H 2587   6.919   6.968   3.046  2.0373  1.0948 -0.0209
  760MOL0     H 2588   6.746   6.908   3.149  0.3630  0.3809 -0.0857
  760MOL0     H 2589   6.854   6.805   3.253 -0.2071 -0.9116  0.9975
  760MOL0     H 2590   6.615   6.823   3.323 -4.4192 -0.8569  0.2918
  760MOL0     H 2591   6.694   6.667   3.304 -2.1657 -0.5779  1.7139
  760MOL0     H 2592   6.560   6.643   3.075 -4.0211  0.1962 -0.1515
  760MOL0     H 2593   6.488   6.801   3.139  1.7497  3.1197  2.6234
  760MOL0     H 2594   6.425   6.521   3.203 -1.3234  2.1992 -3.3866
  760MOL0     H 2595   6.471   6.610   3.352  1.1399 -0.6421  0.2539
  760MOL0     H 2596   6.108   6.787   3.196 -0.1270  0.4259  3.6754
  760MOL0     H 2597   6.942   6.565   2.890  0.3398  0.0462 -2.7300
  760MOL0     H 2598   7.258   6.520   2.841  1.7820  0.5527 -1.9403
  760MOL0     H 2599   7.099   6.506   2.758 -0.7876 -0.5614  0.9743
  760MOL0     H 2600   7.240   6.614   2.708  0.7568  0.9920  1.3198
  761MOL0     O 2601   8.146   9.830   8.245  0.3193  0.2843  0.5629
  761MOL0     C 2602   8.180   9.889   8.140  0.3561  0.9161  0.4349
  761MOL0     O 2603   8.207   9.821   8.029  0.3702  0.2689 -0.4941
  761MOL0     C 2604   8.178   9.684   8.017 -0.0691  0.2609 -0.6770
  761MOL0     C 2605   8.268   9.611   7.942  0.0416 -0.8394  0.8485
  761MOL0     C 2606   8.241   9.475   7.914 -0.5436 -0.5737  0.4040
  761MOL0     C 2607   8.131   9.404   7.966  0.5679 -0.9047  0.0293
  761MOL0     O 2608   8.113   9.280   7.911  0.4027  0.3685  0.7493
  761MOL0     C 2609   8.007   9.199   7.956  0.1031  0.2057  0.7732
  761MOL0     C 2610   8.020   9.053   7.912 -0.2943  0.0975  0.8190
  761MOL0     C 2611   7.897   8.969   7.952  0.0569 -1.0732  0.4678
  761MOL0     C 2612   7.923   8.815   7.945 -1.0448 -0.6722  0.3374
  761MOL0     C 2613   7.800   8.723   7.933 -0.5063 -0.0541 -0.0502
  761MOL0     C 2614   7.725   8.742   7.802  0.0294 -0.4244 -0.4028
  761MOL0     C 2615   7.586   8.693   7.811  0.1286 -0.5107  0.0518
  761MOL0     C 2616   7.520   8.720   7.672 -0.3143 -1.3967  0.8022
  761MOL0     N 2617   7.392   8.649   7.645  0.1000  0.6120  0.6899
  761MOL0     C 2618   7.296   8.682   7.546 -0.4240  0.4004 -0.3468
  761MOL0     C 2619   7.196   8.599   7.564  0.2518  0.0185  1.0793
  761MOL0     C 2620   7.077   8.583   7.468 -0.4829 -0.0192  0.4961
  761MOL0     C 2621   6.957   8.656   7.529  1.1843 -0.2725 -0.0534
  761MOL0     C 2622   6.892   8.563   7.645  0.5031 -0.2748 -0.4423
  761MOL0     C 2623   6.748   8.583   7.679 -0.1545  0.3228  0.1656
  761MOL0     O 2624   6.722   8.721   7.689 -0.4699 -0.3380  0.7261
  761MOL0     C 2625   6.631   8.756   7.787  0.1049 -0.9419 -1.0157
  761MOL0     C 2626   6.645   8.875   7.856 -0.3258  0.3304 -0.5814
  761MOL0     C 2627   6.546   8.916   7.948 -1.1631 -0.0866  0.7815
  761MOL0     C 2628   6.431   8.844   7.968  0.7097  1.2143 -0.5126
  761MOL0     C 2629   6.326   8.899   8.055 -0.6737  0.3219  0.3431
  761MOL0     O 2630   6.348   9.026   8.106 -1.1390  0.3373  0.4273
  761MOL0     C 2631   6.253   9.097   8.169 -0.1388 -0.4852 -0.0434
  761MOL0     C 2632   6.255   9.235   8.149 -0.2822  0.1489  0.6958
  761MOL0     C 2633   6.157   9.320   8.215 -1.7619 -0.5711  0.4023
  761MOL0     C 2634   6.075   9.267   8.318 -0.0802 -0.5799 -0.1681
  761MOL0     O 2635   5.970   9.342   8.366  0.5962 -0.7330  0.0839
  761MOL0     C 2636   6.009   9.440   8.454 -0.9333  0.2165  0.0674
  761MOL0     C 2637   5.902   9.544   8.475  1.0618  0.1984 -0.5742
  761MOL0     C 2638   5.943   9.677   8.549 -0.2001  0.6948  0.3848
  761MOL0     C 2639   5.992   9.649   8.695 -0.3620 -0.3631  0.2324
  761MOL0     C 2640   6.009   9.785   8.767 -0.1575 -0.9926  0.9960
  761MOL0     C 2641   6.087   9.762   8.889 -0.2394  0.4481  0.0587
  761MOL0     C 2642   6.055   9.880   8.996 -1.0776 -0.6890  0.2955
  761MOL0     C 2643   5.975   9.855   9.124 -0.2569 -0.3409 -0.0866
  761MOL0    Cl 2644   5.799   9.818   9.083 -0.3425  0.4778  0.0707
  761MOL0     C 2645   6.083   9.128   8.347 -0.5803  0.7791 -0.7138
  761MOL0     C 2646   6.172   9.043   8.268 -0.6145 -0.2010 -1.8168
  761MOL0     O 2647   6.220   8.833   8.063 -0.5886 -0.4131  0.2312
  761MOL0     C 2648   6.409   8.718   7.895 -0.7521 -0.4934  0.0362
  761MOL0     C 2649   6.509   8.688   7.801  0.1185 -0.6493 -0.3442
  761MOL0     N 2650   7.221   8.526   7.679 -0.2935  0.2512 -0.3036
  761MOL0     N 2651   7.337   8.557   7.730 -0.0237 -0.5438 -0.1187
  761MOL0     C 2652   8.033   9.481   8.036  0.1173  0.7032  0.1272
  761MOL0     C 2653   8.058   9.615   8.065  0.7504  0.0322  0.4144
  761MOL0     C 2654   8.180  10.037   8.135  0.1872 -0.0605  0.2526
  761MOL0     C 2655   8.210  10.096   8.012  1.1576 -0.2047 -0.4509
  761MOL0     C 2656   8.240  10.231   7.993 -0.1667 -0.0196 -0.1837
  761MOL0     C 2657   8.218  10.316   8.105 -0.7387  0.0439  0.0698
  761MOL0     O 2658   8.222  10.447   8.094  0.1230  0.5511  0.2557
  761MOL0     C 2659   8.332  10.503   8.175  0.2473 -0.0273  0.0738
  761MOL0     C 2660   8.357  10.650   8.125 -0.3805 -0.2680  1.4742
  761MOL0     C 2661   8.492  10.704   8.175  1.3108  0.2636 -0.3785
  761MOL0     C 2662   8.485  10.858   8.178 -0.3188 -0.2429 -0.7248
  761MOL0     C 2663   8.610  10.934   8.176  0.1444  0.6440 -0.0076
  761MOL0     C 2664   8.716  10.981   8.171 -0.5324 -0.5075 -0.0421
  761MOL0     C 2665   8.190  10.263   8.227  0.3065  0.2151  0.0067
  761MOL0     C 2666   8.176  10.130   8.248 -0.1748 -0.1572 -0.6219
  761MOL0     C 2667   8.149  10.083   8.384 -0.2927 -0.0877  0.0019
  761MOL0     H 2668   8.357   9.659   7.902 -2.9045  1.6330 -3.5485
  761MOL0     H 2669   8.318   9.425   7.855  0.8817  0.7886  1.0171
  761MOL0     H 2670   8.015   9.201   8.065 -0.6853  2.9571  0.8546
  761MOL0     H 2671   7.913   9.244   7.922  1.4061  3.2078  0.8842
  761MOL0     H 2672   8.107   9.011   7.962  1.1609 -0.3252 -1.8841
  761MOL0     H 2673   8.037   9.037   7.805 -0.6166 -3.6945  1.2101
  761MOL0     H 2674   7.808   8.997   7.895  0.0477 -0.1263  0.9330
  761MOL0     H 2675   7.881   9.003   8.055  0.7312  1.2855 -0.1445
  761MOL0     H 2676   7.996   8.808   7.865  0.0998 -0.6914  1.3485
  761MOL0     H 2677   7.977   8.767   8.027  0.7894 -1.3606 -1.2097
  761MOL0     H 2678   7.836   8.620   7.938 -1.0221 -0.2090  3.7244
  761MOL0     H 2679   7.728   8.731   8.015 -0.2947 -2.5752  0.4830
  761MOL0     H 2680   7.725   8.848   7.777 -3.0449 -0.3895 -0.7169
  761MOL0     H 2681   7.770   8.681   7.723  0.0822 -1.8614  0.6924
  761MOL0     H 2682   7.522   8.736   7.888 -0.1902  0.8757 -0.9541
  761MOL0     H 2683   7.590   8.587   7.840  1.0954 -0.0342  1.8151
  761MOL0     H 2684   7.494   8.825   7.663 -0.2178 -1.3733  0.7960
  761MOL0     H 2685   7.584   8.689   7.589 -1.3862 -2.1246  0.2246
  761MOL0     H 2686   7.304   8.749   7.461 -2.6390 -0.3927 -1.2359
  761MOL0     H 2687   7.103   8.637   7.376 -4.3201 -0.6983 -1.1943
  761MOL0     H 2688   7.058   8.476   7.450 -3.7193  0.5188  0.1951
  761MOL0     H 2689   6.995   8.755   7.557 -0.1960  0.5699 -1.0750
  761MOL0     H 2690   6.889   8.677   7.446 -1.7203  3.2133  2.8599
  761MOL0     H 2691   6.948   8.579   7.738 -0.7548 -0.0962  0.3066
  761MOL0     H 2692   6.904   8.460   7.612  1.8959 -0.8564  1.6391
  761MOL0     H 2693   6.731   8.525   7.770  2.6344 -2.1548 -0.7448
  761MOL0     H 2694   6.685   8.553   7.594  0.6184  2.5723 -1.3158
  761MOL0     H 2695   6.742   8.920   7.842  3.8763 -6.4589  1.6379
  761MOL0     H 2696   6.576   9.008   7.996  1.7508 -0.6435  0.2069
  761MOL0     H 2697   6.323   9.275   8.075 -2.4421  3.0836  0.1409
  761MOL0     H 2698   6.145   9.424   8.185  1.0728  0.1031  1.2019
  761MOL0     H 2699   6.050   9.396   8.545  0.6270 -0.0714 -0.7204
  761MOL0     H 2700   6.091   9.500   8.413 -3.5884  3.5629 -0.8225
  761MOL0     H 2701   5.855   9.563   8.378 -2.1323 -0.5113  0.7394
  761MOL0     H 2702   5.826   9.493   8.535  0.6499 -0.5690 -1.7221
  761MOL0     H 2703   6.020   9.727   8.490 -1.0955  1.1576 -0.4182
  761MOL0     H 2704   5.856   9.741   8.567  1.4768  2.6297  2.0783
  761MOL0     H 2705   6.083   9.589   8.705 -1.0965 -1.0970  4.4142
  761MOL0     H 2706   5.919   9.588   8.749 -0.3400 -1.1217 -0.5800
  761MOL0     H 2707   5.909   9.827   8.778 -0.0042 -0.4447  0.3395
  761MOL0     H 2708   6.072   9.851   8.707 -0.9236 -0.9909  0.1682
  761MOL0     H 2709   6.051   9.672   8.940  0.9069 -0.2286 -0.2985
  761MOL0     H 2710   6.193   9.759   8.864  0.2513  0.4926  1.9825
  761MOL0     H 2711   5.986   9.952   8.952 -1.7495 -2.5473 -1.8666
  761MOL0     H 2712   6.156   9.919   9.012 -0.5577 -0.9605 -1.9465
  761MOL0     H 2713   6.017   9.765   9.171  0.6460 -0.0273 -0.2770
  761MOL0     H 2714   5.986   9.942   9.188  1.6929  0.8184 -1.8888
  761MOL0     H 2715   6.024   9.079   8.424  1.5185  1.9055  1.7646
  761MOL0     H 2716   6.182   8.936   8.284 -0.8700  0.0947  0.7709
  761MOL0     H 2717   6.315   8.668   7.918 -1.8075  1.3151 -0.1571
  761MOL0     H 2718   6.476   8.606   7.737 -1.0636 -1.8109  1.6347
  761MOL0     H 2719   7.936   9.437   8.055  0.8653 -0.6939  0.9260
  761MOL0     H 2720   7.972   9.659   8.115 -0.5635 -0.9820 -0.8740
  761MOL0     H 2721   8.223  10.049   7.915  3.7646  0.2780 -0.3984
  761MOL0     H 2722   8.284  10.262   7.898  3.0487 -3.6395 -0.1449
  761MOL0     H 2723   8.421  10.445   8.148 -0.8508 -2.5776  1.5334
  761MOL0     H 2724   8.320  10.503   8.284 -0.8063 -0.4450 -0.0280
  761MOL0     H 2725   8.278  10.721   8.152 -1.2498 -0.8637  0.5876
  761MOL0     H 2726   8.364  10.644   8.016  0.3336  0.2751  1.4878
  761MOL0     H 2727   8.568  10.668   8.105  1.0218 -0.6030 -0.2627
  761MOL0     H 2728   8.505  10.671   8.278  0.1915  0.6230 -0.1097
  761MOL0     H 2729   8.440  10.899   8.087  0.2421 -0.5849 -1.1640
  761MOL0     H 2730   8.428  10.894   8.264  3.7668  0.6369  1.8934
  761MOL0     H 2731   8.815  11.022   8.171  0.2368 -1.9907  3.6474
  761MOL0     H 2732   8.180  10.345   8.298  1.2717  0.8455 -0.5523
  761MOL0     H 2733   8.244  10.043   8.422  0.3464  0.6425 -0.7812
  761MOL0     H 2734   8.127  10.174   8.441  1.4378 -0.1580  0.8684
  761MOL0     H 2735   8.071  10.009   8.401  0.6516 -1.0916  0.0990
  762MOL0     O 2736   1.816   1.642   2.904 -0.6103  0.1737 -0.4134
  762MOL0     C 2737   1.805   1.686   2.790  1.3336  0.0836  0.5412
  762MOL0     O 2738   1.906   1.739   2.724 -0.9605 -0.0943  0.7761
  762MOL0     C 2739   2.017   1.775   2.796  0.0737 -0.6531 -0.5083
  762MOL0     C 2740   2.137   1.694   2.798  0.0608 -0.9281 -0.0284
  762MOL0     C 2741   2.249   1.741   2.862 -0.9122 -0.0255  0.6721
  762MOL0     C 2742   2.248   1.859   2.944 -0.0972  0.2340  0.7027
  762MOL0     O 2743   2.358   1.907   2.999  0.7537 -0.4621 -0.3990
  762MOL0     C 2744   2.456   1.813   3.033  0.2158 -0.6721 -0.0663
  762MOL0     C 2745   2.574   1.886   3.097 -0.1338  0.4700  0.0433
  762MOL0     C 2746   2.682   1.783   3.154  0.5041  0.6685  0.1935
  762MOL0     C 2747   2.781   1.741   3.048  0.0034 -0.5681  0.0543
  762MOL0     C 2748   2.915   1.706   3.111  0.1139  0.2423  0.0967
  762MOL0     C 2749   3.011   1.637   3.021  0.3155  0.5444 -0.5555
  762MOL0     C 2750   3.149   1.614   3.074  0.1207  0.3293  0.4937
  762MOL0     C 2751   3.245   1.552   2.973  0.3219  0.8017 -0.4136
  762MOL0     N 2752   3.310   1.663   2.896 -0.3285  1.0657 -0.5883
  762MOL0     C 2753   3.445   1.702   2.921 -0.1284 -0.6640  0.3080
  762MOL0     C 2754   3.467   1.807   2.838 -0.3536  0.1664 -0.7289
  762MOL0     C 2755   3.594   1.886   2.840  0.4238  1.0001  0.6395
  762MOL0     C 2756   3.677   1.872   2.713 -0.3387  0.5931  0.1012
  762MOL0     C 2757   3.822   1.920   2.723  1.0552  0.3471  0.2252
  762MOL0     C 2758   3.900   1.860   2.838  0.1868  0.3726 -0.5167
  762MOL0     O 2759   4.038   1.847   2.820  0.2573 -0.2688  0.6404
  762MOL0     C 2760   4.101   1.755   2.886  0.2658  0.5049  0.1827
  762MOL0     C 2761   4.237   1.725   2.843  0.7944 -0.3678 -0.0718
  762MOL0     C 2762   4.315   1.631   2.916  0.1643  0.1248  0.2384
  762MOL0     C 2763   4.263   1.569   3.031  0.0516 -0.1761  0.2803
  762MOL0     C 2764   4.343   1.478   3.111 -0.2774 -0.5111 -0.0949
  762MOL0     O 2765   4.280   1.405   3.201  0.5520 -0.6738 -0.9458
  762MOL0     C 2766   4.344   1.313   3.284  0.3909 -0.3294  0.5675
  762MOL0     C 2767   4.381   1.184   3.240  0.2115 -0.9027 -0.8566
  762MOL0     C 2768   4.457   1.102   3.325 -0.3597  0.9039 -0.1507
  762MOL0     C 2769   4.491   1.140   3.459 -0.5019 -0.7194  0.6943
  762MOL0     O 2770   4.565   1.076   3.549  0.0816 -0.4181 -0.5471
  762MOL0     C 2771   4.602   0.937   3.516  0.1312 -0.5038 -0.4474
  762MOL0     C 2772   4.485   0.841   3.543 -0.9808 -0.1964 -0.7183
  762MOL0     C 2773   4.412   0.865   3.678 -0.0106  0.2569 -0.0687
  762MOL0     C 2774   4.516   0.871   3.794 -0.4583 -0.6748 -0.4103
  762MOL0     C 2775   4.447   0.845   3.924  0.0691  0.2324 -0.7186
  762MOL0     C 2776   4.413   0.692   3.945  0.6030  0.1198 -0.7791
  762MOL0     C 2777   4.328   0.667   4.070  0.4055  0.3517 -0.4643
  762MOL0     C 2778   4.380   0.734   4.196  0.8241  0.3651 -0.2893
  762MOL0    Cl 2779   4.545   0.681   4.235  0.1393  0.1271  0.2634
  762MOL0     C 2780   4.456   1.274   3.492 -0.0706  0.1378 -0.3840
  762MOL0     C 2781   4.379   1.353   3.409 -0.1043 -0.5172  0.6648
  762MOL0     O 2782   4.461   1.464   3.076  1.0289  0.0459 -0.1077
  762MOL0     C 2783   4.126   1.586   3.062  0.0299  0.0761  1.1709
  762MOL0     C 2784   4.049   1.678   2.997 -0.2994  0.3442  0.2803
  762MOL0     N 2785   3.354   1.824   2.760 -0.7807 -0.4086  0.7531
  762MOL0     N 2786   3.253   1.743   2.807  0.2506  0.9778 -0.3803
  762MOL0     C 2787   2.130   1.936   2.946  0.4432  0.4005  0.0439
  762MOL0     C 2788   2.020   1.899   2.872  0.2668  0.1742  0.9217
  762MOL0     C 2789   1.669   1.671   2.728  0.2910 -0.3154 -0.2224
  762MOL0     C 2790   1.660   1.631   2.594  0.0719  0.0950 -0.4088
  762MOL0     C 2791   1.532   1.590   2.543 -0.3816 -0.2390  1.1051
  762MOL0     C 2792   1.422   1.600   2.619 -0.1892  0.3507  0.1297
  762MOL0     O 2793   1.292   1.574   2.572 -0.7911 -0.0191  0.7773
  762MOL0     C 2794   1.267   1.531   2.440  0.3128 -0.1649 -0.6555
  762MOL0     C 2795   1.121   1.509   2.419  0.4409  0.3728  0.2751
  762MOL0     C 2796   1.049   1.639   2.446  0.4583 -0.6416 -0.2756
  762MOL0     C 2797   0.904   1.631   2.484  0.1859 -0.0108 -0.3837
  762MOL0     C 2798   0.820   1.605   2.362 -1.0874 -0.3188 -0.6659
  762MOL0     C 2799   0.745   1.608   2.269  0.1149  0.3068  0.5861
  762MOL0     C 2800   1.428   1.647   2.747  0.6412 -0.3031  0.1297
  762MOL0     C 2801   1.548   1.682   2.801 -0.8686  0.3147 -1.1729
  762MOL0     C 2802   1.541   1.732   2.945  0.9118  0.4360 -0.1262
  762MOL0     H 2803   2.148   1.599   2.746  0.3988  0.0816 -1.8817
  762MOL0     H 2804   2.327   1.667   2.851 -1.1596 -0.0865 -0.8106
  762MOL0     H 2805   2.438   1.725   3.095 -0.8899 -1.5664 -1.6028
  762MOL0     H 2806   2.505   1.772   2.944  1.8457  1.7167 -0.3631
  762MOL0     H 2807   2.528   1.945   3.176 -0.8288 -1.2850  0.9989
  762MOL0     H 2808   2.616   1.961   3.029  0.7084  0.4448  0.5210
  762MOL0     H 2809   2.624   1.702   3.198 -0.2872  1.6885  1.1002
  762MOL0     H 2810   2.731   1.818   3.245 -1.2355 -0.0826  1.4776
  762MOL0     H 2811   2.740   1.666   2.981  0.9579 -0.1956 -0.9914
  762MOL0     H 2812   2.801   1.831   2.988 -0.0026  0.6534  1.7929
  762MOL0     H 2813   2.953   1.805   3.138  1.7862 -1.0084  2.7607
  762MOL0     H 2814   2.904   1.642   3.199  0.3953 -1.3501 -0.9780
  762MOL0     H 2815   2.974   1.541   2.982 -0.9661  0.4489  0.8350
  762MOL0     H 2816   3.019   1.701   2.932  2.5888  1.0548 -0.0459
  762MOL0     H 2817   3.131   1.551   3.161  1.9192  0.4032  0.9589
  762MOL0     H 2818   3.190   1.708   3.113 -0.3206  0.3617  0.8804
  762MOL0     H 2819   3.321   1.488   3.019 -0.4825  1.1607  1.5029
  762MOL0     H 2820   3.191   1.500   2.893  1.4278  0.6696 -1.0990
  762MOL0     H 2821   3.521   1.676   2.994  0.8632 -0.4072 -0.6038
  762MOL0     H 2822   3.588   1.994   2.860  3.2830  1.5647 -0.9993
  762MOL0     H 2823   3.652   1.838   2.920 -0.1868 -0.4392  0.2521
  762MOL0     H 2824   3.679   1.765   2.694 -1.6313  0.2478  1.6444
  762MOL0     H 2825   3.627   1.918   2.627  0.2985 -2.0878 -1.8162
  762MOL0     H 2826   3.811   2.028   2.731 -2.7392  0.1223 -0.2337
  762MOL0     H 2827   3.871   1.883   2.632  2.8821 -0.9424  1.6752
  762MOL0     H 2828   3.852   1.766   2.866  2.2405 -0.4092  0.6164
  762MOL0     H 2829   3.889   1.925   2.926 -0.5655 -0.5758  0.1101
  762MOL0     H 2830   4.278   1.777   2.757  1.0499  0.8042  0.7302
  762MOL0     H 2831   4.418   1.607   2.889 -0.5697 -2.1102 -0.8319
  762MOL0     H 2832   4.359   1.152   3.139  2.6320 -1.0851 -1.3701
  762MOL0     H 2833   4.485   1.008   3.280  1.9987  0.6875  1.5794
  762MOL0     H 2834   4.651   0.936   3.418 -1.2624  0.9060 -1.2005
  762MOL0     H 2835   4.688   0.908   3.577 -1.1147 -1.6022  0.8472
  762MOL0     H 2836   4.428   0.866   3.452  0.6316  0.3434 -1.6148
  762MOL0     H 2837   4.521   0.738   3.531 -1.1005 -0.1365 -1.6974
  762MOL0     H 2838   4.362   0.960   3.653  1.4538  0.5024 -2.3867
  762MOL0     H 2839   4.343   0.782   3.694  0.0324  0.3784  0.7754
  762MOL0     H 2840   4.551   0.975   3.797  1.1518 -1.1043  3.9251
  762MOL0     H 2841   4.602   0.804   3.788  0.2932  0.0200  1.6157
  762MOL0     H 2842   4.354   0.903   3.921  0.3160  1.0195  2.8591
  762MOL0     H 2843   4.511   0.872   4.008 -1.3604 -2.4398  1.3611
  762MOL0     H 2844   4.363   0.638   3.863 -3.6509  0.8698  1.0551
  762MOL0     H 2845   4.513   0.651   3.960  2.3174  2.0135 -5.1124
  762MOL0     H 2846   4.330   0.559   4.089 -1.0841  0.2207 -0.9205
  762MOL0     H 2847   4.224   0.697   4.055  0.9603  1.4309 -2.5322
  762MOL0     H 2848   4.382   0.842   4.183  0.8972  0.4131  0.0920
  762MOL0     H 2849   4.316   0.715   4.284  0.3986  1.0380 -0.4448
  762MOL0     H 2850   4.476   1.327   3.585 -4.7439  2.1318 -0.2572
  762MOL0     H 2851   4.344   1.450   3.442 -2.7879 -1.2105  0.1197
  762MOL0     H 2852   4.082   1.513   3.128  0.4330 -1.8255 -0.5544
  762MOL0     H 2853   3.947   1.694   3.030 -0.0744 -1.0658  1.8183
  762MOL0     H 2854   2.136   2.031   2.997  0.7090 -1.1122  3.0325
  762MOL0     H 2855   1.938   1.968   2.857 -0.3795 -1.2766 -4.5861
  762MOL0     H 2856   1.744   1.610   2.528  1.0186 -2.2825  1.3845
  762MOL0     H 2857   1.531   1.551   2.441  1.0963  1.5250  0.3622
  762MOL0     H 2858   1.319   1.437   2.419 -1.7510 -0.9550 -2.7036
  762MOL0     H 2859   1.302   1.608   2.370  0.0741  1.5533  1.0401
  762MOL0     H 2860   1.084   1.425   2.479 -3.8504  2.3262  0.7310
  762MOL0     H 2861   1.118   1.485   2.313  3.2086 -1.2457  0.4633
  762MOL0     H 2862   1.064   1.713   2.367  2.5731  0.5547  1.1574
  762MOL0     H 2863   1.086   1.688   2.536 -1.5137 -0.7545  0.6450
  762MOL0     H 2864   0.892   1.535   2.533  1.1209  0.8959  1.7118
  762MOL0     H 2865   0.868   1.715   2.544 -0.9390  1.2427 -2.6565
  762MOL0     H 2866   0.666   1.602   2.197 -0.4689 -1.0621  1.3174
  762MOL0     H 2867   1.330   1.652   2.794  1.2596 -1.5231  1.6213
  762MOL0     H 2868   1.614   1.813   2.940  2.5761 -0.9637  0.5084
  762MOL0     H 2869   1.447   1.779   2.975  0.6680 -0.5871  0.7918
  762MOL0     H 2870   1.566   1.648   3.011 -1.4609 -0.8821 -0.7613
  763MOL0     O 2871   0.903   9.515   9.745  0.8022  0.8545 -0.5532
  763MOL0     C 2872   0.833   9.452   9.815 -0.8591  0.4784 -0.4234
  763MOL0     O 2873   0.866   9.344   9.888  0.1407 -0.1444 -0.3960
  763MOL0     C 2874   1.005   9.314   9.890 -0.1895  0.4898  0.8445
  763MOL0     C 2875   1.106   9.409   9.919 -0.2238  0.2611  0.5984
  763MOL0     C 2876   1.245   9.374   9.912  0.1805 -0.0732  1.1442
  763MOL0     C 2877   1.274   9.250   9.872 -0.5244 -0.0359 -0.4220
  763MOL0     O 2878   1.406   9.217   9.856  0.2845  0.3705  0.0995
  763MOL0     C 2879   1.521   9.287   9.906 -0.3728  1.2128 -0.0552
  763MOL0     C 2880   1.647   9.203   9.884 -0.8604  0.5385  0.1687
  763MOL0     C 2881   1.763   9.247   9.970  0.6328 -0.2262  0.0233
  763MOL0     C 2882   1.886   9.142   9.968  0.3866 -0.6563  0.3111
  763MOL0     C 2883   1.980   9.186  10.069  0.3223  0.0004 -0.4721
  763MOL0     C 2884   2.097   9.092  10.055 -0.5104 -0.0417  0.0035
  763MOL0     C 2885   2.210   9.129  10.152 -0.1287 -0.1543 -0.3393
  763MOL0     C 2886   2.329   9.034  10.135  1.3015 -0.5325  0.1061
  763MOL0     N 2887   2.443   9.065  10.222 -0.3616 -0.0450  0.9997
  763MOL0     C 2888   2.453   9.039  10.359  0.5203  0.0731  0.0794
  763MOL0     C 2889   2.575   9.082  10.383  0.4437 -0.7248 -1.2887
  763MOL0     C 2890   2.641   9.074  10.523 -0.1893 -0.1724 -0.0324
  763MOL0     C 2891   2.759   8.971  10.525  0.3314 -0.7441 -0.2873
  763MOL0     C 2892   2.854   8.965  10.645 -0.2805  0.1437 -0.7889
  763MOL0     C 2893   2.926   9.094  10.670  0.4834  0.2709 -0.2650
  763MOL0     O 2894   2.946   9.101  10.815 -0.3469 -0.2860  0.1844
  763MOL0     C 2895   3.048   9.171  10.869  0.7226  0.3891  0.5714
  763MOL0     C 2896   3.138   9.252  10.792  0.4521  0.8111  0.3705
  763MOL0     C 2897   3.242   9.323  10.852  0.8730 -1.2361 -0.3375
  763MOL0     C 2898   3.266   9.301  10.986 -0.6983 -0.3931  0.8409
  763MOL0     C 2899   3.380   9.366  11.059  0.3144 -0.1772 -0.1068
  763MOL0     O 2900   3.363   9.405  11.192  0.1742  0.4514  0.2761
  763MOL0     C 2901   3.481   9.411  11.261  1.2180  0.4412  0.0074
  763MOL0     C 2902   3.537   9.532  11.290  0.0344  0.1344 -0.1811
  763MOL0     C 2903   3.657   9.534  11.357 -0.5521  0.1334 -0.1170
  763MOL0     C 2904   3.721   9.416  11.401 -0.9775 -0.1722 -0.8881
  763MOL0     O 2905   3.843   9.395  11.456  0.5706  0.7631  0.2171
  763MOL0     C 2906   3.934   9.501  11.446 -0.6855  0.3218 -0.6044
  763MOL0     C 2907   4.057   9.461  11.530  0.0095  0.8151  0.4521
  763MOL0     C 2908   4.029   9.469  11.679 -0.0626  0.5266  0.1014
  763MOL0     C 2909   4.140   9.535  11.763  0.6508  0.1792 -0.1702
  763MOL0     C 2910   4.109   9.540  11.914  0.5703  0.1152 -0.1347
  763MOL0     C 2911   4.225   9.581  12.001  0.1362 -1.0313 -0.5632
  763MOL0     C 2912   4.279   9.721  11.971 -0.0258  0.2462 -0.2975
  763MOL0     C 2913   4.190   9.846  11.981 -0.1276  0.6116  0.4414
  763MOL0    Cl 2914   4.287   9.992  11.959  0.1377  0.2052 -0.1200
  763MOL0     C 2915   3.663   9.297  11.365 -0.4560 -0.3360 -0.3778
  763MOL0     C 2916   3.539   9.288  11.303 -0.1629 -0.3734  0.2486
  763MOL0     O 2917   3.486   9.376  10.990  0.0555  0.1589 -0.4465
  763MOL0     C 2918   3.178   9.222  11.068 -0.7455 -0.6288 -0.0805
  763MOL0     C 2919   3.074   9.154  11.005 -0.0423 -0.8472  0.2937
  763MOL0     N 2920   2.637   9.135  10.274 -0.8455 -0.2440 -0.0658
  763MOL0     N 2921   2.559   9.120  10.175  0.2524  0.2772 -0.7804
  763MOL0     C 2922   1.179   9.158   9.849  0.5054 -0.4445 -0.4714
  763MOL0     C 2923   1.047   9.185   9.860 -0.4618  0.0972  0.0640
  763MOL0     C 2924   0.696   9.507   9.840 -0.2335  0.5031  0.5334
  763MOL0     C 2925   0.620   9.537   9.721 -1.4562  0.1984  0.3074
  763MOL0     C 2926   0.504   9.614   9.745 -0.3506 -0.1592 -0.1720
  763MOL0     C 2927   0.460   9.649   9.870 -0.1578  0.4842  0.8297
  763MOL0     O 2928   0.351   9.723   9.862  0.4557 -0.6639 -0.2881
  763MOL0     C 2929   0.326   9.803   9.978 -0.0601  0.0213 -0.0737
  763MOL0     C 2930   0.220   9.918   9.954  0.1273 -0.9493  0.1064
  763MOL0     C 2931   0.079   9.858   9.925 -1.0777  1.1400 -0.2966
  763MOL0     C 2932  -0.036   9.957   9.932  0.3546 -0.2670  0.1935
  763MOL0     C 2933  -0.006  10.064   9.832 -0.1486  0.3810  0.1012
  763MOL0     C 2934   0.002  10.136   9.737  0.3683 -0.1862  1.0618
  763MOL0     C 2935   0.540   9.628   9.985 -0.0188  1.6716  0.0481
  763MOL0     C 2936   0.657   9.553   9.967  0.3006 -0.5514 -0.0350
  763MOL0     C 2937   0.754   9.548  10.088 -0.1737  0.5094 -0.2156
  763MOL0     H 2938   1.081   9.508   9.955  0.3926  0.0010  1.8079
  763MOL0     H 2939   1.321   9.451   9.923 -0.5805  1.0985 -1.0915
  763MOL0     H 2940   1.551   9.370   9.840  4.1089 -1.3160 -1.6915
  763MOL0     H 2941   1.509   9.316  10.010  0.5208  0.3265  0.3168
  763MOL0     H 2942   1.669   9.202   9.777 -1.1416 -0.4852  0.1035
  763MOL0     H 2943   1.633   9.099   9.915  1.0519  0.1267 -0.2158
  763MOL0     H 2944   1.731   9.264  10.073 -0.9542  0.8424 -0.5969
  763MOL0     H 2945   1.789   9.342   9.922 -2.7310  0.1403 -1.3919
  763MOL0     H 2946   1.848   9.043   9.996  0.0473 -0.2206  1.4470
  763MOL0     H 2947   1.926   9.143   9.866 -2.6301 -0.1823 -0.9798
  763MOL0     H 2948   2.010   9.290  10.049 -0.0333  0.5054  1.4297
  763MOL0     H 2949   1.941   9.190  10.171  1.9207 -0.8890  0.2218
  763MOL0     H 2950   2.059   8.992  10.075  1.6452 -0.6338  1.6060
  763MOL0     H 2951   2.153   9.103   9.961 -1.3997  1.6696 -0.3578
  763MOL0     H 2952   2.179   9.119  10.257 -0.1395 -7.6966 -0.5365
  763MOL0     H 2953   2.244   9.232  10.140 -0.6933  0.4485  2.4726
  763MOL0     H 2954   2.295   8.934  10.163 -0.7906  0.5258  1.5444
  763MOL0     H 2955   2.364   9.046  10.032  0.3648  0.7512 -0.0776
  763MOL0     H 2956   2.377   9.004  10.428 -0.7746  1.8864 -0.3609
  763MOL0     H 2957   2.681   9.171  10.552 -4.4641  2.0153 -0.6019
  763MOL0     H 2958   2.563   9.034  10.588 -0.9529  1.7423  0.2774
  763MOL0     H 2959   2.711   8.873  10.530  0.6732 -1.0002 -1.5643
  763MOL0     H 2960   2.822   8.971  10.435  2.5007 -1.7133  1.1413
  763MOL0     H 2961   2.920   8.878  10.637 -1.4662 -0.9179  0.4882
  763MOL0     H 2962   2.798   8.944  10.737 -0.3998  2.2885 -0.3235
  763MOL0     H 2963   2.859   9.177  10.645  0.8554  0.2189 -1.5189
  763MOL0     H 2964   3.014   9.104  10.607  1.4917 -0.8798  0.9035
  763MOL0     H 2965   3.129   9.267  10.685 -0.2402  0.2081  0.3412
  763MOL0     H 2966   3.307   9.382  10.789  1.5852 -1.4201  0.2132
  763MOL0     H 2967   3.477   9.615  11.253 -1.8025 -0.9073  0.3155
  763MOL0     H 2968   3.715   9.624  11.374  2.5035 -1.8964  1.1884
  763MOL0     H 2969   3.952   9.511  11.339  0.4221 -3.2021 -0.8761
  763MOL0     H 2970   3.896   9.601  11.472  1.5075  1.0384  0.0767
  763MOL0     H 2971   4.089   9.358  11.511 -0.0664  1.0865 -1.2247
  763MOL0     H 2972   4.141   9.523  11.500  0.3955  0.7744  1.3923
  763MOL0     H 2973   3.936   9.523  11.696  0.5505  1.7747 -0.3516
  763MOL0     H 2974   4.017   9.368  11.718 -0.4337  0.4378 -0.2327
  763MOL0     H 2975   4.154   9.637  11.727 -1.6631  0.8052  0.5311
  763MOL0     H 2976   4.226   9.473  11.736 -1.6229 -2.7477 -1.2522
  763MOL0     H 2977   4.074   9.446  11.956 -1.4440  0.7420 -0.3243
  763MOL0     H 2978   4.033   9.617  11.933  2.0589  1.2331  1.6693
  763MOL0     H 2979   4.197   9.560  12.104  0.1941 -2.1960 -0.7669
  763MOL0     H 2980   4.307   9.513  11.976 -0.5204 -1.9294 -0.3045
  763MOL0     H 2981   4.318   9.710  11.869  1.8679 -1.1579  0.5196
  763MOL0     H 2982   4.359   9.738  12.044 -0.7900 -0.8820  0.8421
  763MOL0     H 2983   4.124   9.824  11.896  0.0690 -0.9343  0.6693
  763MOL0     H 2984   4.151   9.858  12.082 -0.5691 -0.7276  0.4517
  763MOL0     H 2985   3.710   9.201  11.384 -3.2051 -1.4866  1.2821
  763MOL0     H 2986   3.478   9.199  11.293  0.4501 -0.7406 -0.2785
  763MOL0     H 2987   3.197   9.200  11.173  2.3728 -2.8497 -0.9761
  763MOL0     H 2988   3.009   9.089  11.062 -0.4967 -0.7834 -0.1363
  763MOL0     H 2989   1.224   9.067   9.810  0.5003 -1.3625  1.5081
  763MOL0     H 2990   0.968   9.114   9.837  0.6196 -1.0016 -0.3262
  763MOL0     H 2991   0.640   9.489   9.626 -0.9625 -1.5218  1.2469
  763MOL0     H 2992   0.445   9.646   9.660 -1.1711 -2.2699 -0.4798
  763MOL0     H 2993   0.419   9.851  10.008  0.3072 -1.4843  1.3018
  763MOL0     H 2994   0.308   9.728  10.056  2.6774 -0.0813  0.5517
  763MOL0     H 2995   0.254   9.981   9.871 -3.7753  0.6674 -0.4521
  763MOL0     H 2996   0.214   9.976  10.046  2.4309  1.5695 -1.2002
  763MOL0     H 2997   0.041   9.785   9.997 -1.7454 -0.9011 -2.5758
  763MOL0     H 2998   0.083   9.807   9.828  2.7345  2.0020 -0.7376
  763MOL0     H 2999  -0.133   9.909   9.915  1.8446 -2.5519 -3.2302
  763MOL0     H 3000  -0.034  10.013  10.025 -0.4217 -0.3770  0.2798
  763MOL0     H 3001  -0.002  10.178   9.639  2.3843 -2.3176 -0.0157
  763MOL0     H 3002   0.512   9.669  10.082 -2.3095  1.8268 -0.6063
  763MOL0     H 3003   0.700   9.583  10.177 -1.1130  3.9157 -1.9450
  763MOL0     H 3004   0.774   9.441  10.095 -0.6961  0.3141 -1.4434
  763MOL0     H 3005   0.842   9.607  10.062 -0.9937  0.8797 -2.3456
  764MOL0     O 3006   0.198   5.305   9.947  0.6660 -0.2651  0.0021
  764MOL0     C 3007   0.311   5.268   9.974 -0.5713  0.5827  0.4268
  764MOL0     O 3008   0.421   5.357  10.004  0.0131  0.1065  0.6240
  764MOL0     C 3009   0.395   5.490  10.042  0.3454  0.2709 -0.6188
  764MOL0     C 3010   0.309   5.518  10.149  0.4384  0.1211 -1.0723
  764MOL0     C 3011   0.283   5.642  10.191  1.0015  0.3646  1.0095
  764MOL0     C 3012   0.331   5.754  10.121 -0.2541 -0.5379  1.0062
  764MOL0     O 3013   0.299   5.883  10.147  0.0202  0.3672  0.6925
  764MOL0     C 3014   0.162   5.909  10.157 -0.0291 -0.3080 -0.6197
  764MOL0     C 3015   0.155   6.022  10.263  0.1312  0.1131 -0.7676
  764MOL0     C 3016   0.016   6.080  10.256  0.3281  0.1085  0.1604
  764MOL0     C 3017  -0.008   6.182  10.365 -0.0898 -0.0917 -0.4465
  764MOL0     C 3018  -0.058   6.108  10.494  0.1334  0.2698  0.8259
  764MOL0     C 3019  -0.030   6.204  10.615  0.7210  0.0448 -0.0429
  764MOL0     C 3020  -0.138   6.312  10.644 -0.3601  0.2048 -0.4246
  764MOL0     C 3021  -0.106   6.394  10.766  0.7396 -0.3207  0.1821
  764MOL0     N 3022  -0.222   6.461  10.828 -0.4802 -0.5733 -0.1607
  764MOL0     C 3023  -0.347   6.494  10.778  0.1687  1.3325 -0.8945
  764MOL0     C 3024  -0.404   6.557  10.885 -0.5800 -0.3352  0.6064
  764MOL0     C 3025  -0.550   6.611  10.890 -0.5067 -0.1624 -1.4568
  764MOL0     C 3026  -0.550   6.759  10.861  0.3533 -0.4479 -0.6702
  764MOL0     C 3027  -0.527   6.777  10.707 -0.1469  0.2875  0.6915
  764MOL0     C 3028  -0.561   6.916  10.648  0.3536  0.9197 -0.0347
  764MOL0     O 3029  -0.523   7.024  10.732 -0.2630  0.2803 -0.0301
  764MOL0     C 3030  -0.393   7.073  10.737  0.3158 -0.6237  0.2627
  764MOL0     C 3031  -0.364   7.171  10.826  0.0744  0.1878 -0.1360
  764MOL0     C 3032  -0.235   7.220  10.828 -0.1520 -0.2968 -0.8972
  764MOL0     C 3033  -0.130   7.172  10.747  0.1892  0.1551 -0.4581
  764MOL0     C 3034   0.010   7.229  10.743 -0.1152 -0.0683 -0.1634
  764MOL0     O 3035   0.086   7.202  10.633  0.1445  0.9335 -0.6395
  764MOL0     C 3036   0.199   7.267  10.609 -0.3048  0.2686  0.0804
  764MOL0     C 3037   0.316   7.246  10.673  0.5126 -0.3781 -0.0813
  764MOL0     C 3038   0.433   7.319  10.646  0.1578 -0.5083  0.0739
  764MOL0     C 3039   0.426   7.424  10.547  0.1883 -0.0820 -0.1450
  764MOL0     O 3040   0.547   7.492  10.528 -0.4886 -0.1435 -0.1468
  764MOL0     C 3041   0.554   7.624  10.465 -0.6630  0.7347 -0.0003
  764MOL0     C 3042   0.504   7.728  10.556  0.0586  0.3467  0.1861
  764MOL0     C 3043   0.501   7.878  10.490  0.6936 -0.2793 -0.6907
  764MOL0     C 3044   0.637   7.925  10.458 -0.3108 -0.4730 -0.2181
  764MOL0     C 3045   0.645   8.084  10.460  0.4542  0.2615  0.4388
  764MOL0     C 3046   0.791   8.124  10.419 -0.1002  0.3663  0.2630
  764MOL0     C 3047   0.804   8.270  10.384  0.4812  0.6889  0.6257
  764MOL0     C 3048   0.946   8.315  10.357  1.4919 -0.2006  0.3297
  764MOL0    Cl 3049   0.956   8.491  10.316 -0.2882 -0.0519  0.0883
  764MOL0     C 3050   0.312   7.441  10.476 -0.9310  1.2951 -0.5721
  764MOL0     C 3051   0.200   7.362  10.510  0.2612 -0.6175 -0.0484
  764MOL0     O 3052   0.046   7.294  10.839 -0.5526 -1.0152 -0.2836
  764MOL0     C 3053  -0.167   7.066  10.655  0.6421 -0.1492 -0.4790
  764MOL0     C 3054  -0.296   7.018  10.652 -0.7038 -0.7117 -0.0256
  764MOL0     N 3055  -0.314   6.563  10.987  0.3880 -0.1466 -0.0287
  764MOL0     N 3056  -0.204   6.507  10.949  0.8340 -0.2735 -0.0625
  764MOL0     C 3057   0.410   5.726  10.005  0.8904  0.7281  0.8270
  764MOL0     C 3058   0.444   5.597   9.972  1.0160 -0.4475 -0.2297
  764MOL0     C 3059   0.318   5.114   9.958  0.3851 -0.6431  0.8720
  764MOL0     C 3060   0.203   5.035   9.966 -0.5756 -0.2364 -0.0002
  764MOL0     C 3061   0.208   4.902   9.924 -0.1176  0.2956 -0.0531
  764MOL0     C 3062   0.334   4.840   9.896  1.0527 -0.9701  0.4236
  764MOL0     O 3063   0.333   4.716   9.844 -0.1807  0.2933 -0.1330
  764MOL0     C 3064   0.455   4.653   9.801 -0.3371 -1.0870 -0.7639
  764MOL0     C 3065   0.496   4.563   9.914  0.1731  0.3829 -0.3145
  764MOL0     C 3066   0.471   4.418   9.896  0.1150  0.1625 -0.1427
  764MOL0     C 3067   0.557   4.335   9.998  1.9033  0.0635 -0.0693
  764MOL0     C 3068   0.692   4.309   9.954  0.2245 -0.2815 -0.0443
  764MOL0     C 3069   0.803   4.287   9.921 -0.3828 -0.3388 -0.3758
  764MOL0     C 3070   0.445   4.918   9.913  0.1786 -0.6306 -0.6251
  764MOL0     C 3071   0.443   5.054   9.957 -0.3059  0.3932  0.7023
  764MOL0     C 3072   0.579   5.119   9.982 -0.0710 -0.5043 -0.2901
  764MOL0     H 3073   0.272   5.435  10.209 -0.6413  0.2910 -1.4795
  764MOL0     H 3074   0.219   5.665  10.275  1.2930  3.2444  0.5612
  764MOL0     H 3075   0.132   5.955  10.062 -1.6231 -1.9200 -0.9550
  764MOL0     H 3076   0.092   5.826  10.166  0.0891 -0.1554  3.2026
  764MOL0     H 3077   0.231   6.100  10.265 -0.0476  0.4057  2.9334
  764MOL0     H 3078   0.181   5.976  10.359  3.2205  0.4971 -1.3437
  764MOL0     H 3079  -0.062   6.003  10.257  1.6811 -1.3771  2.7678
  764MOL0     H 3080   0.004   6.137  10.164  2.9387  1.9542  0.8457
  764MOL0     H 3081   0.087   6.230  10.391  1.0729 -2.4390 -0.1112
  764MOL0     H 3082  -0.086   6.256  10.342  2.6980  2.6072 -2.0526
  764MOL0     H 3083  -0.160   6.072  10.481  1.1366 -2.5922  0.2510
  764MOL0     H 3084  -0.007   6.012  10.508 -2.8070 -1.3584  1.1784
  764MOL0     H 3085  -0.050   6.145  10.705 -2.3542  2.3544  0.9410
  764MOL0     H 3086   0.073   6.243  10.610  0.8640 -0.2549  0.4530
  764MOL0     H 3087  -0.233   6.259  10.656 -0.1421 -0.0961 -0.0160
  764MOL0     H 3088  -0.160   6.374  10.556  0.7163  1.7859  0.3804
  764MOL0     H 3089  -0.063   6.331  10.844  1.9918  1.4179  0.9519
  764MOL0     H 3090  -0.024   6.462  10.741  0.0727 -0.3251 -2.3318
  764MOL0     H 3091  -0.397   6.437  10.701  2.7880  0.2208 -1.8550
  764MOL0     H 3092  -0.624   6.551  10.835 -0.2495 -0.5986 -1.3322
  764MOL0     H 3093  -0.588   6.591  10.991  1.3732 -4.3017 -1.3777
  764MOL0     H 3094  -0.649   6.804  10.872  0.9992  0.6337  1.0632
  764MOL0     H 3095  -0.464   6.804  10.911 -0.2857 -0.3289  0.3532
  764MOL0     H 3096  -0.593   6.702  10.662 -2.5220  1.2846  2.3032
  764MOL0     H 3097  -0.423   6.752  10.684 -0.4745 -1.6327  1.0728
  764MOL0     H 3098  -0.670   6.926  10.645  0.3882  1.1552 -1.5018
  764MOL0     H 3099  -0.534   6.925  10.542  1.3871 -5.4120 -0.7141
  764MOL0     H 3100  -0.425   7.214  10.905 -1.2114  2.1723 -2.1196
  764MOL0     H 3101  -0.213   7.296  10.903  0.1483  0.1917 -1.4679
  764MOL0     H 3102   0.325   7.169  10.749  1.2412 -1.0133 -0.7913
  764MOL0     H 3103   0.527   7.308  10.699  1.5080  1.9291 -1.6143
  764MOL0     H 3104   0.657   7.653  10.446 -1.2020  2.1833 -0.7980
  764MOL0     H 3105   0.497   7.614  10.372  1.3747 -0.0572 -1.2407
  764MOL0     H 3106   0.401   7.708  10.587  0.4529  0.4630  1.6556
  764MOL0     H 3107   0.573   7.729  10.641  0.9809  1.4107 -0.5455
  764MOL0     H 3108   0.440   7.897  10.401  1.2344 -1.5540 -1.3413
  764MOL0     H 3109   0.443   7.929  10.568 -0.2259 -2.1487 -0.0928
  764MOL0     H 3110   0.666   7.904  10.354 -0.4925 -0.6572 -0.2319
  764MOL0     H 3111   0.707   7.890  10.535 -0.3672 -0.6926 -0.2690
  764MOL0     H 3112   0.617   8.134  10.554 -1.4097 -0.0503  0.0885
  764MOL0     H 3113   0.578   8.122  10.383  1.2875 -0.2680 -0.5610
  764MOL0     H 3114   0.860   8.099  10.500  1.0126  1.1097 -0.4297
  764MOL0     H 3115   0.830   8.058  10.340  0.9552  0.6858  0.5062
  764MOL0     H 3116   0.771   8.337  10.464  2.0299  2.8961 -0.4814
  764MOL0     H 3117   0.737   8.284  10.299 -1.2291 -0.6683  1.6700
  764MOL0     H 3118   1.006   8.293  10.446  1.2871 -0.1652  0.4788
  764MOL0     H 3119   0.994   8.259  10.277 -0.2779 -0.1788 -0.8023
  764MOL0     H 3120   0.302   7.509  10.392  0.9414  2.6358  0.2194
  764MOL0     H 3121   0.111   7.382  10.452  0.2293 -0.1334  0.1547
  764MOL0     H 3122  -0.089   7.022  10.593  0.6431 -2.2829  0.9519
  764MOL0     H 3123  -0.323   6.941  10.580 -0.4149  0.3808 -1.3401
  764MOL0     H 3124   0.457   5.799   9.939  1.1221 -2.3403 -2.7429
  764MOL0     H 3125   0.508   5.579   9.886 -2.4221 -1.9630 -2.7120
  764MOL0     H 3126   0.111   5.091   9.973 -0.0777  1.0618 -2.5971
  764MOL0     H 3127   0.128   4.830   9.911  2.7386 -2.8191 -2.1637
  764MOL0     H 3128   0.535   4.727   9.791 -1.1960  0.2541  1.4485
  764MOL0     H 3129   0.449   4.604   9.703 -0.9695  1.9112 -2.3568
  764MOL0     H 3130   0.446   4.589  10.008 -0.0210 -1.5716  0.1692
  764MOL0     H 3131   0.604   4.575   9.911  0.2078 -0.0791 -1.2294
  764MOL0     H 3132   0.508   4.377   9.802  1.3262 -0.0457  0.4095
  764MOL0     H 3133   0.366   4.390   9.910  1.4119 -4.5574  2.0654
  764MOL0     H 3134   0.549   4.373  10.101 -1.6613 -2.1818  0.6848
  764MOL0     H 3135   0.499   4.243  10.015  2.2109 -0.2650 -0.7532
  764MOL0     H 3136   0.898   4.262   9.879 -0.4827 -0.1088 -0.7440
  764MOL0     H 3137   0.544   4.874   9.910  0.6755  0.4309 -0.1335
  764MOL0     H 3138   0.654   5.045   9.954  0.2031  0.4505 -2.3034
  764MOL0     H 3139   0.592   5.196   9.905  0.0367 -0.1001  0.1254
  764MOL0     H 3140   0.586   5.158  10.084 -1.1222 -2.4836  0.5897
  765MOL0     O 3141   3.556   4.920   4.492  0.6088 -0.3644  0.1437
  765MOL0     C 3142   3.635   4.830   4.470  0.1261 -0.3620  0.8992
  765MOL0     O 3143   3.609   4.702   4.485  0.3006 -0.5320 -0.3896
  765MOL0     C 3144   3.481   4.662   4.482 -1.2552  0.1567  0.8852
  765MOL0     C 3145   3.437   4.595   4.368  0.4208  0.3071 -0.8523
  765MOL0     C 3146   3.300   4.566   4.357 -0.1633 -0.1941  0.0324
  765MOL0     C 3147   3.212   4.596   4.469 -0.6767  0.1417 -0.1856
  765MOL0     O 3148   3.078   4.583   4.466 -0.3336 -0.1828 -0.5484
  765MOL0     C 3149   3.019   4.519   4.582 -0.3510 -0.2693 -0.2507
  765MOL0     C 3150   2.941   4.399   4.545 -0.5581 -0.0225  0.7264
  765MOL0     C 3151   2.990   4.268   4.595  0.3394  0.4741  0.0335
  765MOL0     C 3152   2.931   4.244   4.731 -0.9425 -0.1834 -0.0134
  765MOL0     C 3153   2.990   4.131   4.815 -0.2773 -0.6363  0.1299
  765MOL0     C 3154   2.932   4.134   4.960 -0.0352 -0.5402  1.6259
  765MOL0     C 3155   2.947   4.259   5.043  0.2995  0.2736 -0.2869
  765MOL0     C 3156   2.897   4.242   5.189  0.2734  0.6567  0.9843
  765MOL0     N 3157   2.918   4.364   5.263 -1.2909  0.5036  0.5404
  765MOL0     C 3158   2.827   4.467   5.272 -0.3904  0.7600 -0.0327
  765MOL0     C 3159   2.895   4.576   5.330 -0.6801  0.3209  0.7436
  765MOL0     C 3160   2.844   4.713   5.340 -0.7404 -0.0357  0.6777
  765MOL0     C 3161   2.841   4.757   5.493 -0.4075  0.2888 -0.0741
  765MOL0     C 3162   2.970   4.824   5.547  0.4565  0.0624  1.4171
  765MOL0     C 3163   2.949   4.891   5.686 -0.1230  0.1681  0.2036
  765MOL0     O 3164   3.063   4.890   5.771  0.2079  1.0029  0.4199
  765MOL0     C 3165   3.116   4.772   5.814  0.4966 -0.4473  0.3131
  765MOL0     C 3166   3.248   4.778   5.864  0.3286 -0.4041  0.1629
  765MOL0     C 3167   3.301   4.673   5.930  0.5700  0.2321 -0.0130
  765MOL0     C 3168   3.260   4.538   5.914  0.0403 -0.3811  1.0699
  765MOL0     C 3169   3.326   4.424   5.977  0.4809 -0.0058 -0.7540
  765MOL0     O 3170   3.442   4.450   6.051 -0.2446 -0.5492 -0.0704
  765MOL0     C 3171   3.541   4.363   6.095  0.2618  0.9512 -0.0561
  765MOL0     C 3172   3.551   4.226   6.063 -0.0264 -0.0338  0.0467
  765MOL0     C 3173   3.645   4.142   6.120 -0.0975 -0.8263 -0.6031
  765MOL0     C 3174   3.742   4.196   6.199 -0.4159 -0.4737 -1.0807
  765MOL0     O 3175   3.833   4.120   6.263  0.5221  0.7244  0.2897
  765MOL0     C 3176   3.919   4.061   6.166 -0.4887 -0.5075 -1.0459
  765MOL0     C 3177   4.040   4.002   6.242  0.5833 -1.1763  0.0837
  765MOL0     C 3178   4.116   4.104   6.336 -0.5266 -0.2026 -0.1460
  765MOL0     C 3179   4.192   4.042   6.458 -0.1762  0.0459 -0.2673
  765MOL0     C 3180   4.261   4.151   6.540 -0.6471  0.0371  0.6680
  765MOL0     C 3181   4.362   4.098   6.649 -0.1942 -0.1955 -0.1849
  765MOL0     C 3182   4.446   4.208   6.713 -1.1040  0.0253 -0.0992
  765MOL0     C 3183   4.582   4.229   6.617  1.1122 -1.4234  0.1997
  765MOL0    Cl 3184   4.674   4.086   6.636 -0.4004 -0.3454  0.2004
  765MOL0     C 3185   3.728   4.334   6.236  0.5486 -0.4439 -0.6740
  765MOL0     C 3186   3.623   4.417   6.189 -0.4014 -0.1632 -0.0101
  765MOL0     O 3187   3.276   4.315   5.966  0.3528  0.4604  0.0862
  765MOL0     C 3188   3.132   4.526   5.846  0.4952 -0.0093 -0.0417
  765MOL0     C 3189   3.063   4.638   5.799  0.6349  0.1515 -0.4188
  765MOL0     N 3190   3.017   4.529   5.369 -0.6575  0.6222  0.5603
  765MOL0     N 3191   3.029   4.410   5.332 -0.0219 -0.9002  0.2451
  765MOL0     C 3192   3.268   4.653   4.580  0.0634  0.1863  0.0232
  765MOL0     C 3193   3.400   4.687   4.593 -0.0536  0.5684 -0.7044
  765MOL0     C 3194   3.778   4.874   4.426  0.4105  0.4209  0.8780
  765MOL0     C 3195   3.891   4.789   4.440  0.0503  0.6693 -0.4558
  765MOL0     C 3196   4.024   4.829   4.428 -0.3803 -0.1936  0.4744
  765MOL0     C 3197   4.045   4.952   4.367  0.0571  0.7149 -0.2042
  765MOL0     O 3198   4.183   4.988   4.348  0.5460 -0.7452  0.1329
  765MOL0     C 3199   4.219   5.126   4.307  0.4273  0.7145 -0.0663
  765MOL0     C 3200   4.369   5.155   4.292  0.1216  0.1693  0.9001
  765MOL0     C 3201   4.447   5.162   4.424  0.0029  0.3772  0.2326
  765MOL0     C 3202   4.595   5.157   4.412 -0.1298 -0.1471  0.5930
  765MOL0     C 3203   4.657   5.146   4.543  0.0796 -0.4852  0.7205
  765MOL0     C 3204   4.689   5.144   4.658 -0.4693  0.8747 -0.8238
  765MOL0     C 3205   3.943   5.035   4.338 -0.3490 -0.2570  0.3883
  765MOL0     C 3206   3.809   5.001   4.375  0.6663  0.8542 -0.6310
  765MOL0     C 3207   3.709   5.111   4.341  0.1600  0.2270 -1.3332
  765MOL0     H 3208   3.515   4.574   4.295 -1.9170 -2.3607 -2.7888
  765MOL0     H 3209   3.265   4.514   4.268  1.4114 -0.9414 -0.1777
  765MOL0     H 3210   3.098   4.488   4.652 -1.3014 -0.0878  0.9409
  765MOL0     H 3211   2.952   4.590   4.632  2.8133  1.9229  1.3116
  765MOL0     H 3212   2.941   4.388   4.436 -2.0450 -1.5037  0.8377
  765MOL0     H 3213   2.836   4.415   4.571 -0.7551 -0.0039 -0.0571
  765MOL0     H 3214   3.094   4.276   4.626  0.5154 -2.3532  0.3744
  765MOL0     H 3215   2.971   4.183   4.529 -4.5353  0.1635  1.4553
  765MOL0     H 3216   2.941   4.336   4.790  1.1824 -0.2527 -0.1988
  765MOL0     H 3217   2.824   4.221   4.724 -1.1252  1.0547 -1.7784
  765MOL0     H 3218   2.978   4.031   4.772  1.7244 -0.1225 -1.8268
  765MOL0     H 3219   3.099   4.135   4.821 -0.1047  0.5627 -2.6882
  765MOL0     H 3220   2.825   4.110   4.955 -1.2649  4.1725 -1.9915
  765MOL0     H 3221   2.975   4.049   5.014  2.4857  1.1109  2.3801
  765MOL0     H 3222   2.897   4.342   4.990  0.5425  0.5497 -0.0847
  765MOL0     H 3223   3.052   4.284   5.061 -0.1336  1.7401  0.3791
  765MOL0     H 3224   2.790   4.221   5.198  1.1523 -4.6052  2.4307
  765MOL0     H 3225   2.955   4.159   5.231 -1.0840  0.3673  2.3768
  765MOL0     H 3226   2.728   4.463   5.228 -0.1619 -2.6220 -0.4838
  765MOL0     H 3227   2.900   4.787   5.282  0.6014 -1.3905  0.1619
  765MOL0     H 3228   2.743   4.710   5.298 -1.4750 -1.3794  2.3881
  765MOL0     H 3229   2.750   4.814   5.511 -1.2932 -0.6427 -1.4395
  765MOL0     H 3230   2.831   4.664   5.549 -0.8202  0.3475 -0.0510
  765MOL0     H 3231   3.008   4.894   5.471 -1.1273  0.1107  0.6073
  765MOL0     H 3232   3.040   4.741   5.542  1.1429  0.6798  0.5129
  765MOL0     H 3233   2.867   4.854   5.748  0.6611  0.0851  1.2313
  765MOL0     H 3234   2.912   4.993   5.676  0.9603  0.5013 -0.6541
  765MOL0     H 3235   3.287   4.879   5.874  0.9295 -0.5080 -0.9379
  765MOL0     H 3236   3.397   4.682   5.980  0.6835 -1.6746  0.1828
  765MOL0     H 3237   3.484   4.181   5.991  0.5759 -1.5542  0.3918
  765MOL0     H 3238   3.634   4.035   6.104 -4.0068 -0.7119  0.1425
  765MOL0     H 3239   3.866   3.986   6.106  0.2284 -0.3069 -1.9611
  765MOL0     H 3240   3.962   4.136   6.099  5.8084 -1.4355  1.1855
  765MOL0     H 3241   4.000   3.915   6.295 -2.0405  0.8236  1.6303
  765MOL0     H 3242   4.110   3.970   6.164 -0.4217  0.1771 -1.4487
  765MOL0     H 3243   4.190   4.164   6.283  0.3472 -1.4790 -0.4287
  765MOL0     H 3244   4.045   4.180   6.368 -0.3716  0.1700 -0.6785
  765MOL0     H 3245   4.265   3.966   6.427  0.3054 -0.2274  1.4621
  765MOL0     H 3246   4.130   3.977   6.520 -0.5046 -0.7141 -1.3540
  765MOL0     H 3247   4.179   4.208   6.585  0.1705  1.7627  0.0500
  765MOL0     H 3248   4.310   4.220   6.471 -0.1556 -1.9270 -1.0455
  765MOL0     H 3249   4.297   4.064   6.730  1.9386 -1.3887  1.1221
  765MOL0     H 3250   4.423   4.020   6.602 -0.0310 -0.4036  0.3661
  765MOL0     H 3251   4.477   4.186   6.816 -0.5052 -2.4851 -0.7438
  765MOL0     H 3252   4.397   4.306   6.712 -3.2232 -0.9257  1.4285
  765MOL0     H 3253   4.559   4.249   6.512 -1.0864 -1.8361  0.5360
  765MOL0     H 3254   4.632   4.318   6.656  0.4253 -0.5812 -0.7696
  765MOL0     H 3255   3.807   4.374   6.298 -0.3178  1.1007 -0.5281
  765MOL0     H 3256   3.623   4.515   6.236 -0.8454 -0.5163  0.7408
  765MOL0     H 3257   3.088   4.428   5.834  2.3906 -0.8489 -0.4570
  765MOL0     H 3258   2.974   4.625   5.738  1.1076  0.0470 -1.0999
  765MOL0     H 3259   3.206   4.667   4.668 -0.7863 -0.1157 -0.5190
  765MOL0     H 3260   3.440   4.750   4.672  0.0984  0.9560 -1.0808
  765MOL0     H 3261   3.875   4.690   4.482  2.7224  1.0960  1.8775
  765MOL0     H 3262   4.109   4.766   4.453  0.7425  1.5784  1.3609
  765MOL0     H 3263   4.171   5.194   4.379  0.2747 -0.4914  1.0017
  765MOL0     H 3264   4.188   5.140   4.203  0.9396 -1.0884 -0.4898
  765MOL0     H 3265   4.378   5.253   4.246  1.1081  0.3024  1.3575
  765MOL0     H 3266   4.399   5.070   4.229  1.3991  0.8700  0.5368
  765MOL0     H 3267   4.413   5.081   4.488 -1.8214  0.7030 -0.2869
  765MOL0     H 3268   4.438   5.256   4.480  2.1713  0.1267  1.1161
  765MOL0     H 3269   4.627   5.068   4.357  1.6719  2.4661 -2.9429
  765MOL0     H 3270   4.619   5.251   4.363  0.2762 -0.4159  0.2649
  765MOL0     H 3271   4.717   5.152   4.761 -2.4110  3.2527 -0.4058
  765MOL0     H 3272   3.980   5.131   4.302  1.7632 -1.1129  0.0771
  765MOL0     H 3273   3.652   5.134   4.432  0.6754 -4.1010  0.3365
  765MOL0     H 3274   3.751   5.204   4.302  0.4487 -0.7174 -3.3972
  765MOL0     H 3275   3.628   5.071   4.278  1.1655 -0.6727 -2.0887
  766MOL0     O 3276   4.553   5.283  10.608  0.5425 -0.8417 -0.1338
  766MOL0     C 3277   4.538   5.224  10.501  0.0620 -0.5088  0.8109
  766MOL0     O 3278   4.420   5.186  10.450 -0.0102  0.9874  0.1705
  766MOL0     C 3279   4.299   5.169  10.525  0.3947  0.4454 -0.3326
  766MOL0     C 3280   4.200   5.121  10.448  0.4436  0.1072  0.7157
  766MOL0     C 3281   4.074   5.101  10.493  0.3683  0.5020  0.7703
  766MOL0     C 3282   4.041   5.126  10.626  0.1541 -0.5279 -0.3250
  766MOL0     O 3283   3.912   5.100  10.674  0.0692 -0.7362  0.3379
  766MOL0     C 3284   3.822   5.021  10.595 -0.1102 -0.6450  0.0724
  766MOL0     C 3285   3.852   4.876  10.569 -0.1340 -0.4361 -0.5858
  766MOL0     C 3286   3.737   4.794  10.503 -0.1675  0.1104  0.5040
  766MOL0     C 3287   3.767   4.638  10.510 -0.2497  0.9647 -0.1469
  766MOL0     C 3288   3.692   4.545  10.412  0.7157 -0.4064 -0.2799
  766MOL0     C 3289   3.550   4.528  10.458 -0.9750  0.5542 -0.3396
  766MOL0     C 3290   3.448   4.515  10.344 -0.1636 -0.7784  0.1687
  766MOL0     C 3291   3.304   4.477  10.380  0.7342 -0.0732  0.8917
  766MOL0     N 3292   3.198   4.470  10.267  0.4854  0.3581 -0.2275
  766MOL0     C 3293   3.214   4.370  10.174 -0.1992 -0.0886  0.0227
  766MOL0     C 3294   3.088   4.356  10.129  0.1672 -0.4963 -0.5024
  766MOL0     C 3295   3.044   4.268  10.022 -0.7733 -0.9145 -0.3336
  766MOL0     C 3296   3.108   4.128  10.030 -1.0274 -0.5286 -0.6567
  766MOL0     C 3297   3.059   4.065  10.158 -0.3648  0.6068 -0.4793
  766MOL0     C 3298   3.110   3.922  10.175 -0.5237  0.3556  0.0880
  766MOL0     O 3299   3.257   3.925  10.180  0.0239 -0.2694 -1.0801
  766MOL0     C 3300   3.322   3.956  10.309 -0.4518 -0.5523  0.7885
  766MOL0     C 3301   3.446   4.026  10.297  0.3940  0.5795  0.7639
  766MOL0     C 3302   3.509   4.069  10.417  0.1104  0.3799  0.4613
  766MOL0     C 3303   3.458   4.042  10.543  0.9114 -0.9697  0.7327
  766MOL0     C 3304   3.538   4.078  10.656  0.4004 -0.6331  0.0065
  766MOL0     O 3305   3.662   4.110  10.639 -0.3761 -0.2501  0.0290
  766MOL0     C 3306   3.725   4.152  10.752  0.5125  0.8084 -0.7126
  766MOL0     C 3307   3.804   4.076  10.836  0.1008  1.1912  0.1088
  766MOL0     C 3308   3.857   4.141  10.954  0.2883 -0.6222  0.2987
  766MOL0     C 3309   3.839   4.275  10.983 -1.2256 -0.0763 -0.2314
  766MOL0     O 3310   3.878   4.331  11.107 -0.1856  0.1020  0.4708
  766MOL0     C 3311   3.967   4.258  11.201  0.4378  0.5087  0.3224
  766MOL0     C 3312   4.020   4.362  11.297  0.3851 -0.2203  0.5367
  766MOL0     C 3313   4.116   4.467  11.232 -0.1001  0.4624 -0.5644
  766MOL0     C 3314   4.036   4.605  11.237 -0.0909  0.6372  0.9946
  766MOL0     C 3315   4.132   4.716  11.206  0.0803  0.5085  0.5413
  766MOL0     C 3316   4.228   4.740  11.322  0.2288 -0.1078 -0.7688
  766MOL0     C 3317   4.276   4.882  11.353  0.2615  0.3688 -0.7383
  766MOL0     C 3318   4.156   4.959  11.406  0.7073 -0.0675  0.4937
  766MOL0    Cl 3319   4.206   5.117  11.472  0.0819 -0.2085  0.1181
  766MOL0     C 3320   3.763   4.354  10.896 -0.3861 -0.5374  0.1755
  766MOL0     C 3321   3.712   4.299  10.775  0.0870  0.4145  0.7154
  766MOL0     O 3322   3.475   4.094  10.766  0.5728  0.0585  0.3669
  766MOL0     C 3323   3.338   3.978  10.549  0.1428 -0.5838  0.5539
  766MOL0     C 3324   3.276   3.935  10.438  0.4616  0.7494  0.0159
  766MOL0     N 3325   3.003   4.445  10.195  0.5746  0.0428 -0.5935
  766MOL0     N 3326   3.074   4.520  10.271  0.4793  0.1964 -0.1581
  766MOL0     C 3327   4.137   5.184  10.713  0.0481  0.6580  0.8222
  766MOL0     C 3328   4.272   5.200  10.662  0.1529 -0.1180  1.0541
  766MOL0     C 3329   4.655   5.216  10.393 -0.0155  0.0624 -0.7626
  766MOL0     C 3330   4.772   5.262  10.448  0.3712  0.5321 -0.0639
  766MOL0     C 3331   4.885   5.274  10.370  0.2629  0.5743 -0.0350
  766MOL0     C 3332   4.888   5.227  10.236  0.3841 -0.2066 -0.8557
  766MOL0     O 3333   5.006   5.215  10.158 -0.1853 -0.3582 -0.3525
  766MOL0     C 3334   5.105   5.315  10.189 -0.2455  0.8002  0.1582
  766MOL0     C 3335   5.057   5.458  10.179 -0.4293  0.9718 -0.3030
  766MOL0     C 3336   5.152   5.550  10.104 -0.5518 -0.0769 -0.1142
  766MOL0     C 3337   5.105   5.693  10.064  0.1091  0.0474 -0.7481
  766MOL0     C 3338   4.973   5.687   9.993 -0.1361  0.6913 -0.2837
  766MOL0     C 3339   4.866   5.676   9.939  0.2351 -0.1589 -0.4261
  766MOL0     C 3340   4.766   5.183  10.181 -0.1662 -0.0218  0.1172
  766MOL0     C 3341   4.651   5.182  10.257 -0.1801  0.3004 -0.3269
  766MOL0     C 3342   4.531   5.148  10.179 -0.1228  0.2653  0.8170
  766MOL0     H 3343   4.219   5.104  10.342  4.3809 -2.1777  1.5977
  766MOL0     H 3344   4.006   5.056  10.421  0.2798  1.1572  0.4371
  766MOL0     H 3345   3.721   5.017  10.638 -0.5153 -0.6741 -0.8584
  766MOL0     H 3346   3.822   5.070  10.497  3.8248 -0.9045 -0.2041
  766MOL0     H 3347   3.871   4.834  10.668 -2.8868  1.6553  0.9799
  766MOL0     H 3348   3.936   4.862  10.500 -0.8151  1.9477 -1.9985
  766MOL0     H 3349   3.737   4.835  10.402  1.3885 -1.0451  0.0061
  766MOL0     H 3350   3.642   4.816  10.553  0.0998 -0.3773  1.2431
  766MOL0     H 3351   3.870   4.622  10.476  0.3630  1.0663  1.5528
  766MOL0     H 3352   3.757   4.596  10.611 -0.0221 -0.4468 -0.6892
  766MOL0     H 3353   3.692   4.587  10.311  1.2386  0.3264  0.0181
  766MOL0     H 3354   3.741   4.447  10.414  1.2414 -0.1343  1.2834
  766MOL0     H 3355   3.535   4.443  10.525 -0.7290  1.0775  0.3846
  766MOL0     H 3356   3.521   4.607  10.527  0.8456  1.1446 -0.1760
  766MOL0     H 3357   3.476   4.438  10.272  2.0746  1.6361 -1.7418
  766MOL0     H 3358   3.429   4.610  10.293 -1.3125 -1.8642 -1.4926
  766MOL0     H 3359   3.298   4.385  10.437  0.4463 -0.9515 -0.5013
  766MOL0     H 3360   3.267   4.555  10.447  0.8595 -0.5744  1.5457
  766MOL0     H 3361   3.302   4.312  10.147  0.3973  0.6254  0.4117
  766MOL0     H 3362   2.935   4.264  10.030 -0.9248  0.8272 -0.9673
  766MOL0     H 3363   3.079   4.318   9.931 -0.4760 -1.2512 -0.4045
  766MOL0     H 3364   3.075   4.066   9.945  0.3767  2.5711 -3.7387
  766MOL0     H 3365   3.216   4.140  10.028 -1.0877  0.3098  0.2766
  766MOL0     H 3366   2.950   4.061  10.150 -0.2936  0.3679 -1.3996
  766MOL0     H 3367   3.091   4.111  10.252 -0.4230  1.5923 -0.9287
  766MOL0     H 3368   3.073   3.865  10.090 -2.2518 -1.1301  1.7416
  766MOL0     H 3369   3.076   3.871  10.265  0.0425 -3.4768 -1.6879
  766MOL0     H 3370   3.490   4.039  10.199  0.0922 -0.9522  0.4016
  766MOL0     H 3371   3.611   4.106  10.408  0.7715 -1.5737 -0.8168
  766MOL0     H 3372   3.813   3.971  10.811 -3.7274  0.7637  0.0153
  766MOL0     H 3373   3.902   4.078  11.031 -0.0635 -0.3524  0.7319
  766MOL0     H 3374   3.906   4.178  11.244 -1.4205  0.9242 -1.3842
  766MOL0     H 3375   4.056   4.213  11.155 -0.3946 -0.5323 -0.3174
  766MOL0     H 3376   3.935   4.412  11.344 -2.4274 -2.8637 -1.4019
  766MOL0     H 3377   4.071   4.300  11.371  1.2108  0.1441  0.2904
  766MOL0     H 3378   4.212   4.459  11.282 -0.2050 -2.4044 -0.6691
  766MOL0     H 3379   4.131   4.431  11.130 -2.0724  0.7278 -0.9899
  766MOL0     H 3380   4.001   4.632  11.337  0.7223  2.6262  0.7917
  766MOL0     H 3381   3.954   4.603  11.165  1.8020  1.0734 -1.2748
  766MOL0     H 3382   4.062   4.800  11.195 -1.2210 -0.8690 -4.7035
  766MOL0     H 3383   4.181   4.703  11.109  0.2949 -1.5062  0.8837
  766MOL0     H 3384   4.193   4.702  11.419  1.2821 -0.5006 -0.5296
  766MOL0     H 3385   4.310   4.668  11.315 -1.2769 -2.0989  0.8534
  766MOL0     H 3386   4.329   4.935  11.273  2.6500  1.6735  1.5406
  766MOL0     H 3387   4.344   4.866  11.438  2.7295  0.4996 -2.5656
  766MOL0     H 3388   4.072   4.969  11.336  0.5824  0.6100  0.7314
  766MOL0     H 3389   4.103   4.903  11.484  0.5422 -2.1314 -1.0131
  766MOL0     H 3390   3.742   4.457  10.922  6.0803  0.9099  1.4055
  766MOL0     H 3391   3.660   4.364  10.705  0.7935  1.9067  1.5125
  766MOL0     H 3392   3.302   3.956  10.649 -2.5845 -1.9301 -0.6023
  766MOL0     H 3393   3.182   3.883  10.447  1.0092 -0.2169  0.2529
  766MOL0     H 3394   4.109   5.208  10.815 -1.0177  0.8165  0.5122
  766MOL0     H 3395   4.348   5.223  10.735  0.8781  1.3204 -0.0940
  766MOL0     H 3396   4.796   5.311  10.541  1.1756 -0.5187  0.3024
  766MOL0     H 3397   4.971   5.315  10.422  0.3692 -1.1707  1.2453
  766MOL0     H 3398   5.193   5.289  10.130 -0.6949  0.7690 -0.5116
  766MOL0     H 3399   5.144   5.309  10.291 -0.0503  1.1403  0.1053
  766MOL0     H 3400   5.046   5.496  10.281 -0.8913 -0.3900  0.1769
  766MOL0     H 3401   4.958   5.455  10.131 -1.3621  0.5456  1.5647
  766MOL0     H 3402   5.178   5.498  10.011  1.7331  1.5987 -0.4944
  766MOL0     H 3403   5.246   5.571  10.155 -0.7587  1.0434 -0.1735
  766MOL0     H 3404   5.099   5.767  10.145  2.3352  2.2107 -2.4240
  766MOL0     H 3405   5.183   5.735  10.000  1.3184  0.5239  0.9634
  766MOL0     H 3406   4.774   5.667   9.884  0.8624  0.9475 -1.7272
  766MOL0     H 3407   4.773   5.168  10.074 -0.8261 -0.2873  0.1091
  766MOL0     H 3408   4.469   5.230  10.142  1.2418  0.4849 -1.1036
  766MOL0     H 3409   4.564   5.096  10.089 -0.2664  2.1437 -0.3748
  766MOL0     H 3410   4.464   5.074  10.224 -0.5092  0.6687  0.9080
  767MOL0     O 3411   1.594   5.370   3.590 -0.3417  0.2869  0.4633
  767MOL0     C 3412   1.516   5.390   3.682 -0.9019 -0.4158 -0.1416
  767MOL0     O 3413   1.551   5.382   3.811 -0.7057  0.8208  0.3288
  767MOL0     C 3414   1.671   5.330   3.841 -0.4939  0.3874 -0.4429
  767MOL0     C 3415   1.674   5.193   3.821  0.8122 -0.4031 -1.1927
  767MOL0     C 3416   1.792   5.132   3.859  0.0395 -0.1422  0.6203
  767MOL0     C 3417   1.904   5.202   3.906  0.0189  0.1809 -0.0878
  767MOL0     O 3418   2.020   5.146   3.948  0.7996 -0.4967  0.0265
  767MOL0     C 3419   2.037   5.013   3.922  0.8219 -0.0904  0.3285
  767MOL0     C 3420   2.181   4.948   3.935 -0.7425 -0.3661 -0.0271
  767MOL0     C 3421   2.269   5.009   4.050  0.3531  0.6383  0.7407
  767MOL0     C 3422   2.411   4.937   4.051  0.5948 -0.7088 -0.4789
  767MOL0     C 3423   2.495   4.955   4.183 -0.0512 -0.9351 -0.9504
  767MOL0     C 3424   2.528   5.103   4.216  1.1700 -0.5598 -0.0853
  767MOL0     C 3425   2.622   5.171   4.124  0.9114 -0.4858  0.3319
  767MOL0     C 3426   2.764   5.127   4.121 -0.5340  0.2215  0.5407
  767MOL0     N 3427   2.831   5.214   4.029  0.5740 -0.0506  0.9297
  767MOL0     C 3428   2.838   5.350   4.052  1.4340  0.4527 -0.7959
  767MOL0     C 3429   2.950   5.395   3.997  0.0477 -0.0895  0.1198
  767MOL0     C 3430   3.005   5.536   4.006  0.2558 -0.0662 -0.1240
  767MOL0     C 3431   2.978   5.610   3.875 -0.2459 -0.2149 -0.2286
  767MOL0     C 3432   3.055   5.574   3.751 -0.8651  0.6520 -0.3813
  767MOL0     C 3433   3.202   5.599   3.761 -0.2564  0.2281 -0.3526
  767MOL0     O 3434   3.226   5.738   3.783  0.6383  0.5924 -0.3434
  767MOL0     C 3435   3.304   5.809   3.696 -0.3473 -0.3465  0.1136
  767MOL0     C 3436   3.356   5.932   3.747  0.9252  0.4385 -0.2130
  767MOL0     C 3437   3.425   6.015   3.659 -0.7245  0.3335 -0.9965
  767MOL0     C 3438   3.469   5.960   3.536 -0.4944 -0.0913  1.3493
  767MOL0     C 3439   3.556   6.042   3.449 -0.4906  0.0315 -1.1287
  767MOL0     O 3440   3.557   6.017   3.316  0.2563 -0.7238  0.5977
  767MOL0     C 3441   3.625   6.111   3.243  0.8504  0.3339 -1.1999
  767MOL0     C 3442   3.563   6.217   3.174 -0.5718  0.3926  0.1536
  767MOL0     C 3443   3.642   6.315   3.103 -0.4850  1.2209  0.3634
  767MOL0     C 3444   3.785   6.297   3.099 -0.4739  0.4350 -0.8174
  767MOL0     O 3445   3.868   6.387   3.039  0.0338 -0.2955 -0.1244
  767MOL0     C 3446   3.996   6.342   2.990  0.0680  0.2956 -0.4532
  767MOL0     C 3447   4.054   6.432   2.877  1.3190 -0.6452 -1.0513
  767MOL0     C 3448   3.955   6.451   2.768 -0.4424  0.0652  0.4331
  767MOL0     C 3449   4.008   6.545   2.650 -0.3181  0.0779 -0.0508
  767MOL0     C 3450   3.876   6.611   2.591  0.3355 -0.7959 -0.5720
  767MOL0     C 3451   3.921   6.721   2.499  0.4773 -0.3594  0.5686
  767MOL0     C 3452   3.804   6.789   2.424 -0.0013  0.4893 -0.0056
  767MOL0     C 3453   3.846   6.927   2.383  0.8533 -0.3563  0.3807
  767MOL0    Cl 3454   4.008   6.931   2.299 -0.0608 -0.2304  0.6392
  767MOL0     C 3455   3.833   6.179   3.158 -0.1661 -0.4775 -0.5143
  767MOL0     C 3456   3.754   6.084   3.217 -0.2261  0.6474 -0.0600
  767MOL0     O 3457   3.641   6.105   3.511 -0.2724 -0.5868 -0.1451
  767MOL0     C 3458   3.407   5.848   3.479  0.4713  0.5834 -0.3317
  767MOL0     C 3459   3.328   5.771   3.563 -0.1594  1.1405 -0.5931
  767MOL0     N 3460   3.000   5.285   3.931 -0.3507 -0.1740  0.1802
  767MOL0     N 3461   2.944   5.177   3.960  0.8639  0.0295 -0.2791
  767MOL0     C 3462   1.906   5.337   3.910 -0.6673 -0.4350  0.3685
  767MOL0     C 3463   1.788   5.402   3.885 -0.7473 -0.2930 -0.4644
  767MOL0     C 3464   1.378   5.448   3.664 -0.2034 -0.8198 -0.7148
  767MOL0     C 3465   1.317   5.491   3.787  0.1173 -0.4503  0.8423
  767MOL0     C 3466   1.176   5.533   3.795 -0.3161  0.5627 -0.0413
  767MOL0     C 3467   1.111   5.537   3.666  0.8434 -0.0307 -1.2195
  767MOL0     O 3468   0.979   5.576   3.648  0.0762 -0.0168 -0.1129
  767MOL0     C 3469   0.913   5.675   3.725 -0.1812  0.1075 -0.0092
  767MOL0     C 3470   0.769   5.714   3.684 -0.3221 -0.7197  0.2658
  767MOL0     C 3471   0.679   5.583   3.668  0.3139  0.2803  0.0375
  767MOL0     C 3472   0.544   5.602   3.604 -0.1669  0.1986  0.5466
  767MOL0     C 3473   0.442   5.676   3.670 -0.4868  0.6997 -0.8697
  767MOL0     C 3474   0.356   5.741   3.727  0.1012 -0.1583  0.1616
  767MOL0     C 3475   1.180   5.491   3.548 -0.2259  0.0222 -0.4013
  767MOL0     C 3476   1.306   5.446   3.541 -0.7464 -0.6874  0.0416
  767MOL0     C 3477   1.369   5.394   3.414  1.3564  0.4838  0.0865
  767MOL0     H 3478   1.593   5.127   3.791 -1.8260  2.9790 -2.2015
  767MOL0     H 3479   1.799   5.024   3.861 -2.4950 -0.3538  1.3793
  767MOL0     H 3480   1.961   4.954   3.975  1.8107  0.9746  3.1087
  767MOL0     H 3481   2.019   4.993   3.816  0.5406  0.7814  0.2112
  767MOL0     H 3482   2.224   4.978   3.839  1.3162  3.9538  1.9430
  767MOL0     H 3483   2.169   4.840   3.925  0.1285 -0.3922 -1.0092
  767MOL0     H 3484   2.224   5.008   4.150 -0.6702 -0.0961  0.2886
  767MOL0     H 3485   2.293   5.115   4.035  0.5430  0.8096  2.1513
  767MOL0     H 3486   2.404   4.829   4.038 -1.9155 -0.2867 -3.9144
  767MOL0     H 3487   2.475   4.949   3.963  0.3883 -0.3656 -0.5869
  767MOL0     H 3488   2.432   4.912   4.262 -0.1073  1.9005  0.6942
  767MOL0     H 3489   2.595   4.911   4.178  2.3146  3.8650 -1.4636
  767MOL0     H 3490   2.434   5.159   4.219  0.9044 -0.9067 -1.5344
  767MOL0     H 3491   2.564   5.106   4.320 -2.8839  2.7695  1.5305
  767MOL0     H 3492   2.626   5.276   4.153  0.7147 -0.1478 -0.7959
  767MOL0     H 3493   2.584   5.168   4.021  1.3973 -2.7129  0.1568
  767MOL0     H 3494   2.808   5.132   4.221  2.0565 -1.1851 -0.4248
  767MOL0     H 3495   2.766   5.020   4.098  2.1916 -0.2966  2.6085
  767MOL0     H 3496   2.758   5.402   4.104 -1.9613 -3.3066 -1.7280
  767MOL0     H 3497   2.953   5.583   4.090 -0.0114 -2.4903  1.1513
  767MOL0     H 3498   3.111   5.533   4.032 -0.4499 -4.1672  3.4835
  767MOL0     H 3499   2.873   5.586   3.854 -0.3231 -0.3494  0.2790
  767MOL0     H 3500   2.993   5.714   3.904 -0.1023 -0.4614  0.6302
  767MOL0     H 3501   3.021   5.620   3.658 -1.6571  0.4218 -0.2158
  767MOL0     H 3502   3.042   5.466   3.743 -0.2012  0.5066  0.3863
  767MOL0     H 3503   3.252   5.565   3.670  1.0827 -0.9964  0.7962
  767MOL0     H 3504   3.251   5.543   3.841  1.7395  0.5088 -1.3399
  767MOL0     H 3505   3.338   5.944   3.853 -1.6422  0.7138 -0.6252
  767MOL0     H 3506   3.453   6.116   3.685 -4.3892  1.1009  0.4909
  767MOL0     H 3507   3.456   6.233   3.184 -0.7341 -0.9258  0.7531
  767MOL0     H 3508   3.596   6.407   3.069  0.9128  1.1571 -1.8553
  767MOL0     H 3509   4.056   6.331   3.080 -3.6132 -3.8323  1.8491
  767MOL0     H 3510   4.001   6.238   2.958  1.8318  0.5200 -1.0265
  767MOL0     H 3511   4.091   6.530   2.911 -0.3923 -0.5994  0.9139
  767MOL0     H 3512   4.146   6.385   2.845  1.0558 -4.1716  2.5628
  767MOL0     H 3513   3.927   6.357   2.720 -0.7243  0.7063 -0.6885
  767MOL0     H 3514   3.866   6.500   2.809  1.7726  3.1820  1.9789
  767MOL0     H 3515   4.072   6.497   2.575 -2.4014  0.3162 -2.0996
  767MOL0     H 3516   4.054   6.632   2.697  1.1218 -0.2036 -0.8698
  767MOL0     H 3517   3.820   6.655   2.674  1.6463  1.2723 -0.7148
  767MOL0     H 3518   3.812   6.544   2.532 -0.3983 -0.8484  0.2690
  767MOL0     H 3519   3.961   6.794   2.571  0.4587  1.3395 -1.0759
  767MOL0     H 3520   3.996   6.691   2.426  1.6221 -1.7970  2.2620
  767MOL0     H 3521   3.728   6.804   2.501  1.1241 -0.0105  1.2544
  767MOL0     H 3522   3.764   6.739   2.336  1.7928 -0.1792 -0.4850
  767MOL0     H 3523   3.769   6.969   2.318  0.2149 -0.7687  0.8591
  767MOL0     H 3524   3.856   6.997   2.467  0.0630  3.2801 -2.3397
  767MOL0     H 3525   3.939   6.159   3.151 -0.6994 -3.3678 -1.7004
  767MOL0     H 3526   3.800   5.992   3.250  0.7977  1.9585  2.5083
  767MOL0     H 3527   3.424   5.811   3.379 -1.2185  0.8994 -0.7513
  767MOL0     H 3528   3.288   5.682   3.515  3.8625  0.3612 -3.0073
  767MOL0     H 3529   1.993   5.390   3.947  0.2478 -1.6857  0.0740
  767MOL0     H 3530   1.773   5.510   3.888 -0.7429 -0.2390 -1.6426
  767MOL0     H 3531   1.370   5.500   3.881 -0.0760 -1.3568  1.0427
  767MOL0     H 3532   1.126   5.588   3.874 -1.6404  0.2453 -0.6339
  767MOL0     H 3533   0.982   5.758   3.735 -1.5910  1.2440  0.5652
  767MOL0     H 3534   0.902   5.637   3.827  0.6079  2.0851  0.8513
  767MOL0     H 3535   0.768   5.753   3.582 -1.8774  2.3602  1.3360
  767MOL0     H 3536   0.735   5.780   3.764  2.3551  0.7141  0.3163
  767MOL0     H 3537   0.649   5.545   3.766 -1.6786  1.9628  0.1528
  767MOL0     H 3538   0.729   5.506   3.608 -3.1397 -1.3685 -0.9400
  767MOL0     H 3539   0.558   5.644   3.504  1.3320 -0.2981  0.5241
  767MOL0     H 3540   0.501   5.503   3.582  4.1034 -2.0145  1.0680
  767MOL0     H 3541   0.288   5.805   3.780  0.8261 -0.3775  1.4027
  767MOL0     H 3542   1.124   5.491   3.454 -0.9472 -2.2675 -0.0334
  767MOL0     H 3543   1.286   5.353   3.355  0.7164 -0.3681  1.5407
  767MOL0     H 3544   1.434   5.463   3.359 -0.1031  0.9441 -1.1217
  767MOL0     H 3545   1.422   5.302   3.443  2.2188  0.3353 -1.7385
  768MOL0     O 3546   8.944  10.133   6.647 -0.7218 -0.7911  0.2347
  768MOL0     C 3547   8.911  10.089   6.759 -0.2863 -0.1490 -0.6870
  768MOL0     O 3548   8.971  10.127   6.876 -0.8162 -0.4461 -0.7234
  768MOL0     C 3549   9.057  10.236   6.877 -0.2294 -0.5713 -1.4651
  768MOL0     C 3550   9.014  10.361   6.841  0.3418  0.2886 -0.0281
  768MOL0     C 3551   9.099  10.472   6.837 -0.0441 -0.0400  0.4938
  768MOL0     C 3552   9.235  10.462   6.877  0.1084 -0.5414  0.1281
  768MOL0     O 3553   9.325  10.571   6.865 -0.0468  0.6621 -0.3222
  768MOL0     C 3554   9.470  10.542   6.863  0.6393  1.0013 -0.4817
  768MOL0     C 3555   9.550  10.660   6.803  0.3941 -0.1552 -0.5910
  768MOL0     C 3556   9.521  10.689   6.660  0.3148 -0.2433 -0.2346
  768MOL0     C 3557   9.622  10.794   6.616 -0.6159  0.1278 -0.7256
  768MOL0     C 3558   9.554  10.931   6.626  0.7983  0.5072 -0.2620
  768MOL0     C 3559   9.655  11.045   6.580  0.8706  0.5071  0.1234
  768MOL0     C 3560   9.687  11.052   6.428  0.8002  0.1763  0.2981
  768MOL0     C 3561   9.836  11.077   6.401 -0.0866  0.1207 -0.3611
  768MOL0     N 3562   9.899  11.187   6.474  0.8904 -0.2625 -0.0675
  768MOL0     C 3563   9.940  11.201   6.612 -0.8097 -0.4768  0.1119
  768MOL0     C 3564   9.972  11.334   6.611 -0.0212 -1.3414 -0.4425
  768MOL0     C 3565  10.044  11.418   6.718 -0.4431 -0.5506 -0.3589
  768MOL0     C 3566   9.958  11.477   6.830  0.0765 -1.0550  0.2284
  768MOL0     C 3567   9.854  11.577   6.789  0.1797 -0.3072  0.7746
  768MOL0     C 3568   9.808  11.670   6.895 -0.2056  1.4509 -0.6668
  768MOL0     O 3569   9.710  11.764   6.852 -0.1464  0.6584  0.2097
  768MOL0     C 3570   9.572  11.750   6.859 -0.2744 -0.4032 -0.0115
  768MOL0     C 3571   9.515  11.640   6.918 -0.9014 -0.4526 -0.3252
  768MOL0     C 3572   9.368  11.641   6.918 -0.3812  1.2474  0.5529
  768MOL0     C 3573   9.285  11.744   6.868 -1.2401 -0.5136 -1.1527
  768MOL0     C 3574   9.139  11.731   6.875  0.1523 -1.3220 -0.4366
  768MOL0     O 3575   9.080  11.617   6.911 -0.4692  0.1495 -0.1173
  768MOL0     C 3576   8.944  11.591   6.904  0.1617 -0.4596  0.8921
  768MOL0     C 3577   8.857  11.666   6.985  0.7422 -0.3471  0.3979
  768MOL0     C 3578   8.724  11.620   7.018 -0.1252 -0.4081 -0.4530
  768MOL0     C 3579   8.678  11.511   6.957 -0.4239 -0.4527 -0.2877
  768MOL0     O 3580   8.547  11.464   6.972  0.2292  0.4747 -0.7772
  768MOL0     C 3581   8.448  11.535   7.056 -0.4825  0.6253 -0.2302
  768MOL0     C 3582   8.313  11.463   7.061  0.5395  0.0719 -0.7888
  768MOL0     C 3583   8.324  11.348   7.155 -0.1444  0.1987  0.4072
  768MOL0     C 3584   8.185  11.272   7.164  0.3803  0.7075  0.4069
  768MOL0     C 3585   8.168  11.198   7.297 -0.7713  0.5933  0.2358
  768MOL0     C 3586   8.032  11.138   7.315  0.6277  0.4528  0.6475
  768MOL0     C 3587   8.014  11.018   7.220 -0.1412  0.1464  0.2945
  768MOL0     C 3588   7.877  10.953   7.247  0.6304  0.5216  0.1592
  768MOL0    Cl 3589   7.743  11.054   7.176  0.7128  0.2491  0.2408
  768MOL0     C 3590   8.758  11.444   6.861 -0.6583  0.3872 -0.0473
  768MOL0     C 3591   8.892  11.479   6.837  0.2354 -0.3931  0.4552
  768MOL0     O 3592   9.081  11.830   6.824  0.2753 -0.3440 -0.3438
  768MOL0     C 3593   9.349  11.856   6.811  0.5852 -0.0926 -0.4511
  768MOL0     C 3594   9.487  11.858   6.804 -1.2300 -0.9336 -0.4718
  768MOL0     N 3595   9.934  11.395   6.490  0.5431  0.1693 -0.2350
  768MOL0     N 3596   9.898  11.310   6.416 -0.4292  0.6223  0.2606
  768MOL0     C 3597   9.272  10.338   6.929  0.4929 -0.1011 -0.6547
  768MOL0     C 3598   9.184  10.229   6.938  0.3373  0.6789 -0.0661
  768MOL0     C 3599   8.805   9.977   6.764  0.2566 -0.3942 -0.1569
  768MOL0     C 3600   8.753   9.933   6.641 -0.8466  0.3251  0.7492
  768MOL0     C 3601   8.659   9.836   6.636  0.4509 -0.0508 -0.4713
  768MOL0     C 3602   8.610   9.783   6.758  0.2945  0.4027  0.0191
  768MOL0     O 3603   8.525   9.679   6.742 -0.4942 -0.1422  0.0844
  768MOL0     C 3604   8.392   9.734   6.741  0.3357 -1.0656  0.3745
  768MOL0     C 3605   8.307   9.677   6.633  0.0217 -0.2725 -0.4112
  768MOL0     C 3606   8.293   9.530   6.640  0.2735  0.4806 -0.7800
  768MOL0     C 3607   8.166   9.488   6.714  0.4410 -0.6837 -1.2751
  768MOL0     C 3608   8.133   9.342   6.715 -0.0076  0.0579 -0.1848
  768MOL0     C 3609   8.108   9.224   6.718  0.4271  0.2650  0.5533
  768MOL0     C 3610   8.650   9.826   6.878  0.1765  0.3231 -0.1182
  768MOL0     C 3611   8.758   9.920   6.885  0.8184  0.6861  0.1669
  768MOL0     C 3612   8.815   9.948   7.020 -0.2667  0.7719 -0.5399
  768MOL0     H 3613   8.919  10.359   6.789  0.6271 -4.2884 -0.8554
  768MOL0     H 3614   9.057  10.560   6.789  0.8437 -1.2258 -2.7355
  768MOL0     H 3615   9.512  10.523   6.962 -0.0138  1.7664 -0.0429
  768MOL0     H 3616   9.500  10.459   6.799 -2.2052  0.1244 -0.7938
  768MOL0     H 3617   9.658  10.647   6.817  0.7315  0.3306 -2.5409
  768MOL0     H 3618   9.508  10.747   6.854  0.7539  1.6030 -3.0929
  768MOL0     H 3619   9.416  10.717   6.646 -0.5161 -2.5589  0.8778
  768MOL0     H 3620   9.548  10.605   6.596 -0.2738 -2.2591  1.9933
  768MOL0     H 3621   9.713  10.794   6.676 -1.4228 -0.3634  0.5374
  768MOL0     H 3622   9.650  10.767   6.514  2.3800  0.9406 -0.1858
  768MOL0     H 3623   9.465  10.927   6.563  1.0565  3.6357 -0.9896
  768MOL0     H 3624   9.525  10.958   6.728 -0.2542 -1.9386  0.1591
  768MOL0     H 3625   9.618  11.142   6.616 -0.7616 -0.8440  2.3581
  768MOL0     H 3626   9.746  11.025   6.637  0.0979 -0.1422  1.1789
  768MOL0     H 3627   9.621  11.128   6.385  1.4080 -0.2240 -1.4266
  768MOL0     H 3628   9.652  10.956   6.387 -4.8765  1.3288  1.6703
  768MOL0     H 3629   9.890  10.984   6.421  0.0670  0.3834  0.4520
  768MOL0     H 3630   9.861  11.099   6.296  0.2086 -0.9097 -0.5177
  768MOL0     H 3631   9.963  11.124   6.685  3.0515 -0.6762 -1.0690
  768MOL0     H 3632  10.127  11.355   6.752  0.3753 -0.0527 -1.3655
  768MOL0     H 3633  10.089  11.499   6.659  0.0519  0.3503  1.1781
  768MOL0     H 3634   9.922  11.397   6.895 -2.0676 -0.0126  0.4168
  768MOL0     H 3635  10.023  11.538   6.894  0.5793 -0.3806 -0.9016
  768MOL0     H 3636   9.769  11.537   6.732  1.1885 -1.6367  0.1630
  768MOL0     H 3637   9.902  11.653   6.728 -2.3880  2.1210  1.5414
  768MOL0     H 3638   9.897  11.714   6.942  1.4509 -2.6586  0.4412
  768MOL0     H 3639   9.775  11.600   6.972  0.6609  0.0776 -1.4956
  768MOL0     H 3640   9.572  11.561   6.967  0.5378 -0.6328 -2.2105
  768MOL0     H 3641   9.317  11.553   6.956  1.0945 -0.7809 -1.8902
  768MOL0     H 3642   8.881  11.766   7.019  0.3121  0.1669 -0.7615
  768MOL0     H 3643   8.655  11.684   7.072  1.2553 -0.4930  1.5171
  768MOL0     H 3644   8.481  11.540   7.160 -2.1844 -0.8535  0.4331
  768MOL0     H 3645   8.435  11.637   7.017  3.0402  0.4372 -2.4117
  768MOL0     H 3646   8.237  11.527   7.107  0.7827 -1.9545  2.7343
  768MOL0     H 3647   8.275  11.438   6.961  0.6138  1.7100 -1.2549
  768MOL0     H 3648   8.396  11.272   7.124  0.3570  0.1028  1.7439
  768MOL0     H 3649   8.346  11.384   7.256 -0.1540 -0.2493  0.5731
  768MOL0     H 3650   8.189  11.197   7.084 -1.8911 -1.1574  1.9309
  768MOL0     H 3651   8.108  11.348   7.144 -0.3745  0.1695  1.2074
  768MOL0     H 3652   8.183  11.270   7.378  3.5767 -1.3151  1.4093
  768MOL0     H 3653   8.243  11.118   7.305 -2.6732 -1.7662 -2.9107
  768MOL0     H 3654   8.019  11.085   7.410 -0.2204  0.8854  0.7813
  768MOL0     H 3655   7.951  11.210   7.305 -0.3679 -0.7628 -0.5207
  768MOL0     H 3656   8.092  10.941   7.221  0.9200  1.1884 -0.1437
  768MOL0     H 3657   8.015  11.065   7.121  0.9850  0.2225  0.3333
  768MOL0     H 3658   7.882  10.855   7.201  1.0809  0.7949 -0.3832
  768MOL0     H 3659   7.859  10.947   7.355  2.4414  0.6045  0.4905
  768MOL0     H 3660   8.717  11.357   6.812 -2.5829  0.1436  1.8326
  768MOL0     H 3661   8.952  11.427   6.765 -1.0699 -0.4780 -0.6134
  768MOL0     H 3662   9.287  11.936   6.772  0.5222  0.3432  0.5045
  768MOL0     H 3663   9.524  11.945   6.752  0.7161  0.0648  2.3547
  768MOL0     H 3664   9.369  10.326   6.978 -0.4828  1.0927  1.7690
  768MOL0     H 3665   9.221  10.140   6.988  1.1209  1.4819  0.8413
  768MOL0     H 3666   8.772   9.973   6.542 -2.9645 -0.9797 -0.2595
  768MOL0     H 3667   8.608   9.806   6.545 -1.0503 -1.3840  0.7397
  768MOL0     H 3668   8.396   9.842   6.725  0.5883 -1.0223  0.7331
  768MOL0     H 3669   8.344   9.717   6.838 -2.6718  2.4960 -0.2551
  768MOL0     H 3670   8.359   9.700   6.539 -0.3466 -0.3492 -0.6328
  768MOL0     H 3671   8.210   9.727   6.630 -1.5299 -3.0038  0.3704
  768MOL0     H 3672   8.380   9.490   6.692 -1.3920  0.2455  2.0368
  768MOL0     H 3673   8.281   9.494   6.538  2.2324  0.0596 -0.8946
  768MOL0     H 3674   8.182   9.522   6.816 -1.6907  1.4898 -1.5694
  768MOL0     H 3675   8.072   9.536   6.683 -0.0825  0.7438  2.1232
  768MOL0     H 3676   8.090   9.119   6.712  0.3194  0.3411 -1.2217
  768MOL0     H 3677   8.614   9.768   6.963  1.0551 -2.5043 -1.5417
  768MOL0     H 3678   8.783  10.050   7.044  3.1369  1.5918  1.0733
  768MOL0     H 3679   8.777   9.868   7.085 -0.3009  0.9950 -0.2846
  768MOL0     H 3680   8.923   9.947   7.004 -0.5192  1.7955 -2.7295
  769MOL0     O 3681   4.936   4.291   5.858  0.1502  0.4712  0.2786
  769MOL0     C 3682   4.935   4.293   5.733 -0.2029  0.1993 -0.4207
  769MOL0     O 3683   5.049   4.260   5.652 -0.3911  1.2021  0.1452
  769MOL0     C 3684   5.169   4.245   5.706  0.1073  0.4908  0.6357
  769MOL0     C 3685   5.263   4.219   5.602 -0.3991  0.9690 -0.9073
  769MOL0     C 3686   5.402   4.217   5.630  0.2320  0.2865  0.3290
  769MOL0     C 3687   5.445   4.214   5.759  0.1003  0.4970  0.5206
  769MOL0     O 3688   5.580   4.186   5.792  0.3354 -0.3589 -0.0950
  769MOL0     C 3689   5.683   4.234   5.707 -0.3772  0.3021 -0.1129
  769MOL0     C 3690   5.823   4.217   5.761  0.6609  0.1770  0.0289
  769MOL0     C 3691   5.913   4.330   5.701  0.4434  0.3363  0.0259
  769MOL0     C 3692   6.059   4.306   5.744  0.2489  0.3839 -0.2454
  769MOL0     C 3693   6.147   4.420   5.696  0.8062 -0.2118 -0.3063
  769MOL0     C 3694   6.168   4.436   5.545 -0.0926  0.2360  0.4265
  769MOL0     C 3695   6.249   4.563   5.511 -0.6594 -0.4336 -0.5250
  769MOL0     C 3696   6.402   4.553   5.512  0.0629  0.9267  0.7326
  769MOL0     N 3697   6.471   4.685   5.493 -0.7253 -0.1894 -0.0697
  769MOL0     C 3698   6.428   4.799   5.432 -0.2228  0.2230 -0.5029
  769MOL0     C 3699   6.509   4.898   5.470 -0.8224  0.0617  0.4768
  769MOL0     C 3700   6.470   5.040   5.440 -0.2892  0.3961 -0.4089
  769MOL0     C 3701   6.586   5.097   5.360 -0.2965 -0.0637  0.0914
  769MOL0     C 3702   6.577   5.251   5.323  0.2949 -0.7339 -0.0913
  769MOL0     C 3703   6.715   5.300   5.272 -0.4919  0.5413  0.5960
  769MOL0     O 3704   6.735   5.278   5.129  0.2656 -0.3816 -0.4550
  769MOL0     C 3705   6.868   5.276   5.090 -0.2451 -0.4625  0.2758
  769MOL0     C 3706   6.973   5.325   5.171 -0.9306 -0.4536 -0.6599
  769MOL0     C 3707   7.093   5.356   5.105 -0.5918 -0.3293  0.2208
  769MOL0     C 3708   7.103   5.327   4.966 -0.0134  0.2800 -0.1467
  769MOL0     C 3709   7.237   5.351   4.917  0.4290  0.5012  0.1552
  769MOL0     O 3710   7.316   5.448   4.974 -0.0019 -0.1651  0.7125
  769MOL0     C 3711   7.453   5.450   4.946 -0.0147  0.2739  0.0254
  769MOL0     C 3712   7.545   5.413   5.046 -0.4554  0.1318 -0.1741
  769MOL0     C 3713   7.681   5.392   5.013 -0.0163  0.6962 -0.1607
  769MOL0     C 3714   7.725   5.410   4.877 -0.0001  0.0156 -0.0163
  769MOL0     O 3715   7.858   5.380   4.858 -0.4860  0.3911 -0.3788
  769MOL0     C 3716   7.925   5.415   4.730  0.5665  0.0795 -1.5020
  769MOL0     C 3717   8.033   5.309   4.726  0.0447  0.2552 -0.0819
  769MOL0     C 3718   8.117   5.336   4.602 -0.0783  0.0997  0.3389
  769MOL0     C 3719   8.194   5.200   4.565 -0.3284  0.3081 -0.2600
  769MOL0     C 3720   8.293   5.224   4.448  0.1361  0.3455  0.0092
  769MOL0     C 3721   8.350   5.095   4.378 -0.4859  0.0325 -0.7849
  769MOL0     C 3722   8.427   5.007   4.475 -0.6712 -1.3311  0.3909
  769MOL0     C 3723   8.535   5.089   4.552 -0.0148  0.1602  1.0531
  769MOL0    Cl 3724   8.645   5.159   4.439 -0.0616  0.2356  0.6138
  769MOL0     C 3725   7.636   5.458   4.776  0.1256  0.1807 -0.2749
  769MOL0     C 3726   7.502   5.479   4.814  0.5856  0.1560 -0.2241
  769MOL0     O 3727   7.267   5.287   4.812  0.1880 -0.2787 -0.0238
  769MOL0     C 3728   6.998   5.263   4.895  0.2985 -0.2980  0.8401
  769MOL0     C 3729   6.874   5.239   4.957  0.5758 -0.0748 -0.2119
  769MOL0     N 3730   6.615   4.848   5.550  0.7400  0.5219 -0.2908
  769MOL0     N 3731   6.590   4.715   5.559  0.8522 -0.1325  0.4727
  769MOL0     C 3732   5.356   4.237   5.860 -0.1660 -0.3171  0.0764
  769MOL0     C 3733   5.213   4.254   5.836 -0.9348  0.2757 -0.9362
  769MOL0     C 3734   4.804   4.338   5.666 -0.4362  0.1130  0.6279
  769MOL0     C 3735   4.788   4.408   5.547  0.7612 -0.1714  0.4983
  769MOL0     C 3736   4.660   4.441   5.484  0.5256  0.8443 -0.7323
  769MOL0     C 3737   4.541   4.392   5.543 -0.2118  0.2101  0.2688
  769MOL0     O 3738   4.420   4.415   5.474 -0.6449  0.1750  0.0168
  769MOL0     C 3739   4.372   4.295   5.410  0.0245 -0.9482 -0.6131
  769MOL0     C 3740   4.250   4.325   5.314  0.3729 -0.6505  0.0159
  769MOL0     C 3741   4.152   4.420   5.382 -0.2207 -0.4213  0.3012
  769MOL0     C 3742   4.015   4.447   5.312  0.4903 -0.5884 -0.6717
  769MOL0     C 3743   3.946   4.560   5.372 -0.3929 -0.2579 -0.3381
  769MOL0     C 3744   3.878   4.652   5.418 -0.9049  0.3751  0.4302
  769MOL0     C 3745   4.559   4.323   5.663  0.4655 -0.7223  0.4138
  769MOL0     C 3746   4.682   4.298   5.725  0.3898 -0.0340 -0.8789
  769MOL0     C 3747   4.669   4.225   5.854 -0.0355 -0.0112  0.2001
  769MOL0     H 3748   5.225   4.212   5.501  4.6083  3.0463 -3.2665
  769MOL0     H 3749   5.465   4.207   5.542  0.7420  2.7470  0.3350
  769MOL0     H 3750   5.681   4.195   5.604  0.1329  2.3669 -0.9598
  769MOL0     H 3751   5.676   4.343   5.708 -0.0377  0.3602  2.3777
  769MOL0     H 3752   5.862   4.122   5.722 -2.2406 -1.3099  0.5027
  769MOL0     H 3753   5.810   4.210   5.869 -1.0809 -0.8818 -0.2102
  769MOL0     H 3754   5.874   4.426   5.735 -0.4190 -0.8401  2.6660
  769MOL0     H 3755   5.906   4.334   5.592  3.2634  0.9290 -0.2049
  769MOL0     H 3756   6.064   4.296   5.853  2.0883 -1.2946 -0.4223
  769MOL0     H 3757   6.092   4.212   5.698 -2.6257 -0.2498 -1.1777
  769MOL0     H 3758   6.111   4.514   5.739 -4.6417 -2.0731  0.0115
  769MOL0     H 3759   6.251   4.410   5.727  2.6389 -0.2033 -5.4582
  769MOL0     H 3760   6.200   4.339   5.505 -5.5974 -2.1465  0.8077
  769MOL0     H 3761   6.071   4.444   5.494  1.1779  0.6114 -2.0734
  769MOL0     H 3762   6.220   4.655   5.563  2.3721  0.3280  0.0110
  769MOL0     H 3763   6.208   4.582   5.412 -2.6300  0.6942  0.4466
  769MOL0     H 3764   6.450   4.509   5.600  0.6108 -0.1307 -0.0694
  769MOL0     H 3765   6.441   4.492   5.430  1.1369  2.5247 -0.0056
  769MOL0     H 3766   6.341   4.810   5.368  0.6738 -2.1471 -2.2690
  769MOL0     H 3767   6.380   5.040   5.378  0.3115 -1.5505 -1.3693
  769MOL0     H 3768   6.449   5.091   5.534 -0.0468 -2.2680  1.2022
  769MOL0     H 3769   6.671   5.065   5.422  0.7707 -2.0230 -2.2282
  769MOL0     H 3770   6.608   5.038   5.271 -1.6097 -0.1609 -0.1864
  769MOL0     H 3771   6.547   5.314   5.407 -1.2177  1.2393 -2.0080
  769MOL0     H 3772   6.491   5.268   5.257  0.9173  0.4877 -0.6274
  769MOL0     H 3773   6.792   5.255   5.335  4.1400  1.0936 -3.9813
  769MOL0     H 3774   6.724   5.407   5.288 -0.1278  0.4296  1.1622
  769MOL0     H 3775   6.961   5.333   5.279 -2.7310 -0.2175 -0.8415
  769MOL0     H 3776   7.171   5.405   5.162  0.7120 -0.7399 -1.1675
  769MOL0     H 3777   7.500   5.390   5.142  3.1346 -0.1665  1.6209
  769MOL0     H 3778   7.760   5.379   5.086  1.9442  0.2880 -2.2571
  769MOL0     H 3779   7.862   5.402   4.642 -2.4205  4.1744 -0.2616
  769MOL0     H 3780   7.958   5.519   4.740 -1.1706  0.4163  2.2322
  769MOL0     H 3781   8.088   5.319   4.819 -0.0302  1.5950 -0.1592
  769MOL0     H 3782   7.987   5.210   4.728  3.8368 -1.7281 -1.6707
  769MOL0     H 3783   8.063   5.375   4.515  1.1322  1.8622  0.3198
  769MOL0     H 3784   8.183   5.420   4.628 -1.0011  1.3430 -1.1228
  769MOL0     H 3785   8.126   5.118   4.541  1.5921 -1.3762 -0.1952
  769MOL0     H 3786   8.243   5.174   4.659  0.8200  1.1362 -0.6050
  769MOL0     H 3787   8.372   5.292   4.481  0.5247 -0.0776 -0.0289
  769MOL0     H 3788   8.243   5.267   4.362 -0.1314  0.6171  0.2978
  769MOL0     H 3789   8.267   5.038   4.336  0.4694 -0.9030 -1.4307
  769MOL0     H 3790   8.418   5.130   4.300  0.8826 -1.8952 -0.5253
  769MOL0     H 3791   8.470   4.919   4.427  1.8038  0.6363 -1.2172
  769MOL0     H 3792   8.367   4.958   4.554 -1.6268 -0.3842  0.2787
  769MOL0     H 3793   8.490   5.163   4.618 -1.2772 -0.5997  1.0839
  769MOL0     H 3794   8.594   5.021   4.613 -0.1333 -2.0933 -1.1603
  769MOL0     H 3795   7.666   5.483   4.674 -3.0444 -0.1319 -1.4143
  769MOL0     H 3796   7.419   5.505   4.750  0.4932  2.1538  0.6131
  769MOL0     H 3797   7.028   5.233   4.795  2.0774  0.8420  0.9841
  769MOL0     H 3798   6.782   5.208   4.909 -0.2014  0.7350  0.6962
  769MOL0     H 3799   5.390   4.252   5.962  4.1362 -0.5901 -1.1015
  769MOL0     H 3800   5.153   4.281   5.922 -0.9383  2.2133 -1.4787
  769MOL0     H 3801   4.874   4.435   5.487 -2.8463  1.6937 -4.4826
  769MOL0     H 3802   4.671   4.488   5.387  2.8733 -0.3831 -1.1470
  769MOL0     H 3803   4.324   4.225   5.479 -1.5855  1.1491  0.5016
  769MOL0     H 3804   4.457   4.259   5.349  0.9262 -0.9828  0.6285
  769MOL0     H 3805   4.209   4.228   5.284 -0.3172 -0.8298  1.4596
  769MOL0     H 3806   4.280   4.363   5.216  1.4242 -1.4088  0.0210
  769MOL0     H 3807   4.213   4.510   5.385  1.4995 -1.4110 -1.8615
  769MOL0     H 3808   4.127   4.392   5.485  0.2586 -1.1126  0.2381
  769MOL0     H 3809   4.037   4.482   5.211 -1.1336 -1.6493 -1.4358
  769MOL0     H 3810   3.952   4.358   5.300  1.5377 -1.2896 -1.1687
  769MOL0     H 3811   3.819   4.736   5.449  0.3296  1.8561 -1.0168
  769MOL0     H 3812   4.471   4.278   5.707 -0.9845 -0.4088 -1.9686
  769MOL0     H 3813   4.728   4.133   5.856  0.8921  0.5744 -0.1095
  769MOL0     H 3814   4.705   4.289   5.934 -1.2315 -0.3123  1.0027
  769MOL0     H 3815   4.568   4.196   5.885  0.1982 -1.2163 -0.1033
  770MOL0     O 3816   8.364   6.381   6.381  0.0513  0.4606 -0.8365
  770MOL0     C 3817   8.404   6.301   6.469  0.9338 -0.6849 -0.2188
  770MOL0     O 3818   8.539   6.260   6.482 -0.7164 -0.0919  0.4251
  770MOL0     C 3819   8.616   6.262   6.372 -0.0987 -0.6521 -0.8658
  770MOL0     C 3820   8.735   6.342   6.376  0.7256  0.5624  0.2150
  770MOL0     C 3821   8.804   6.378   6.258 -0.8650  0.9104 -0.2398
  770MOL0     C 3822   8.768   6.319   6.141 -1.1023 -0.5187  0.2765
  770MOL0     O 3823   8.838   6.348   6.025  0.1680  0.4142 -1.0619
  770MOL0     C 3824   8.839   6.260   5.917  0.4277  0.6998 -0.3563
  770MOL0     C 3825   8.948   6.303   5.818  0.3995 -0.2265 -0.2861
  770MOL0     C 3826   9.091   6.284   5.870  0.2501 -0.1235 -0.0731
  770MOL0     C 3827   9.179   6.385   5.798  0.7490  0.0952 -0.8261
  770MOL0     C 3828   9.322   6.396   5.860 -0.0310 -0.1089  0.9513
  770MOL0     C 3829   9.432   6.310   5.790  0.2032 -0.3759  0.0745
  770MOL0     C 3830   9.544   6.278   5.880 -0.6007 -0.3214 -0.3839
  770MOL0     C 3831   9.628   6.398   5.903  0.2104 -0.7690  0.2782
  770MOL0     N 3832   9.728   6.356   6.000  0.1229 -0.4452  0.0697
  770MOL0     C 3833   9.735   6.351   6.139  0.6249 -0.7632  0.0515
  770MOL0     C 3834   9.848   6.280   6.171  0.8718 -0.0139  0.5497
  770MOL0     C 3835   9.885   6.244   6.318  0.0967  0.2595  0.6725
  770MOL0     C 3836  10.002   6.146   6.332 -0.7851 -0.1700  0.1030
  770MOL0     C 3837   9.953   6.015   6.281  0.9228 -0.9969 -0.4897
  770MOL0     C 3838  10.074   5.915   6.263  0.2301 -0.0578 -0.3654
  770MOL0     O 3839  10.030   5.807   6.169 -0.5795  0.0858 -0.4003
  770MOL0     C 3840  10.150   5.737   6.133  0.7411  0.1849  0.1393
  770MOL0     C 3841  10.235   5.793   6.035 -0.1960 -1.0050  0.2386
  770MOL0     C 3842  10.358   5.731   6.008 -0.5024  0.0499  0.6015
  770MOL0     C 3843  10.388   5.608   6.061  0.5543  0.6869 -0.1335
  770MOL0     C 3844  10.525   5.560   6.051 -0.6780  0.1442  0.4124
  770MOL0     O 3845  10.610   5.628   5.972  0.9219 -0.3942 -0.5985
  770MOL0     C 3846  10.741   5.585   5.959  0.6005 -0.1129  0.4629
  770MOL0     C 3847  10.792   5.575   5.825  0.0307 -0.7723 -0.4093
  770MOL0     C 3848  10.932   5.553   5.818 -0.0539  0.9294  0.3516
  770MOL0     C 3849  11.010   5.538   5.925 -0.5721 -1.6823 -0.1595
  770MOL0     O 3850  11.140   5.508   5.923 -0.5909 -0.3922 -0.3212
  770MOL0     C 3851  11.218   5.546   5.807 -0.2072  0.5223  0.0547
  770MOL0     C 3852  11.361   5.596   5.849  0.1566 -0.4516  0.5768
  770MOL0     C 3853  11.357   5.730   5.924 -0.2378 -0.2148  0.3492
  770MOL0     C 3854  11.425   5.719   6.065 -0.0821  0.2418  0.7611
  770MOL0     C 3855  11.309   5.680   6.162  0.9320  1.2681 -1.1470
  770MOL0     C 3856  11.349   5.688   6.315 -0.3201  0.2546 -0.7092
  770MOL0     C 3857  11.435   5.809   6.357  0.0165 -0.0223 -0.0235
  770MOL0     C 3858  11.390   5.870   6.499 -0.0547  0.1611  0.4999
  770MOL0    Cl 3859  11.492   6.004   6.575 -0.1380  0.3135 -0.2130
  770MOL0     C 3860  10.954   5.541   6.056 -0.8231 -0.7229 -0.9913
  770MOL0     C 3861  10.819   5.565   6.068 -1.6572  0.7790 -1.1593
  770MOL0     O 3862  10.546   5.442   6.095 -0.4828  0.3578 -0.5647
  770MOL0     C 3863  10.294   5.538   6.144 -0.2017 -0.2483  0.4264
  770MOL0     C 3864  10.171   5.610   6.180  0.2356 -0.1879 -0.0515
  770MOL0     N 3865   9.915   6.253   6.055 -0.3158 -0.6093  0.1870
  770MOL0     N 3866   9.839   6.295   5.955 -0.7231 -0.9718  0.4061
  770MOL0     C 3867   8.666   6.222   6.134  1.2492  0.0187  0.5119
  770MOL0     C 3868   8.588   6.197   6.250 -0.0862  0.1356  0.0269
  770MOL0     C 3869   8.307   6.227   6.563 -0.1760  0.2789  0.0511
  770MOL0     C 3870   8.360   6.129   6.649 -0.3361 -0.8066 -0.7575
  770MOL0     C 3871   8.291   6.068   6.753 -0.6291 -0.0245  1.0074
  770MOL0     C 3872   8.153   6.106   6.768  0.0155  0.3225 -0.3198
  770MOL0     O 3873   8.084   6.040   6.862  0.0877  0.0941 -0.0939
  770MOL0     C 3874   8.045   5.906   6.826  0.3945  0.2791 -0.6016
  770MOL0     C 3875   7.970   5.846   6.942  1.1331  0.3772 -0.1494
  770MOL0     C 3876   7.917   5.708   6.916  0.0134  0.4342 -0.0572
  770MOL0     C 3877   8.034   5.604   6.896 -0.0091  0.2046 -0.5473
  770MOL0     C 3878   7.966   5.477   6.880  0.4505  0.0260 -0.0601
  770MOL0     C 3879   7.907   5.377   6.838  0.7900  0.0187  1.4313
  770MOL0     C 3880   8.097   6.198   6.678  0.5347 -1.3286  0.6098
  770MOL0     C 3881   8.173   6.260   6.580 -0.5829  0.1707  1.3505
  770MOL0     C 3882   8.110   6.367   6.504 -0.4129  0.1080 -0.1618
  770MOL0     H 3883   8.762   6.394   6.468  2.8260 -2.4586  1.4666
  770MOL0     H 3884   8.888   6.446   6.255  0.1305 -0.2867 -0.7382
  770MOL0     H 3885   8.871   6.162   5.954  1.8523  1.8306  1.5952
  770MOL0     H 3886   8.743   6.260   5.865  0.9405  2.0821 -1.3574
  770MOL0     H 3887   8.925   6.406   5.789 -1.3011 -0.2930  0.6753
  770MOL0     H 3888   8.932   6.235   5.733 -2.9895 -0.6653  0.5360
  770MOL0     H 3889   9.117   6.179   5.853 -2.6377 -0.5488 -2.5651
  770MOL0     H 3890   9.092   6.308   5.977 -1.6287 -2.0962  0.4630
  770MOL0     H 3891   9.178   6.370   5.690 -0.0291 -0.9007 -0.6934
  770MOL0     H 3892   9.124   6.478   5.815 -2.3674 -1.9737  1.6376
  770MOL0     H 3893   9.353   6.500   5.850 -2.7839  0.5949 -1.6037
  770MOL0     H 3894   9.313   6.368   5.966 -0.9073  0.2670  0.9907
  770MOL0     H 3895   9.399   6.207   5.774  2.7572 -1.3365  0.5366
  770MOL0     H 3896   9.463   6.342   5.690 -2.9054 -0.9108 -1.1908
  770MOL0     H 3897   9.606   6.204   5.829 -0.4092  0.0904 -0.7504
  770MOL0     H 3898   9.511   6.242   5.979 -0.8291  0.5008 -0.1584
  770MOL0     H 3899   9.677   6.442   5.816 -1.3127 -3.3573 -2.0815
  770MOL0     H 3900   9.570   6.471   5.960  1.8609  0.6748  0.1753
  770MOL0     H 3901   9.654   6.373   6.208  1.1953  0.2486  0.4203
  770MOL0     H 3902   9.905   6.341   6.364 -4.0191  1.1473  0.9663
  770MOL0     H 3903   9.790   6.205   6.356  0.7863 -2.7513 -0.4262
  770MOL0     H 3904  10.082   6.184   6.267 -1.4806 -2.2213 -2.0633
  770MOL0     H 3905  10.026   6.140   6.438 -0.2762  1.8784  0.1617
  770MOL0     H 3906   9.890   6.011   6.192 -2.7817 -0.8668  1.8984
  770MOL0     H 3907   9.884   5.971   6.353  2.1352  1.4361  2.3655
  770MOL0     H 3908  10.083   5.854   6.354 -1.7920  0.1753  0.0497
  770MOL0     H 3909  10.171   5.966   6.257  0.8122 -1.2869 -3.5658
  770MOL0     H 3910  10.203   5.891   6.000 -1.8275 -0.8725  1.9137
  770MOL0     H 3911  10.428   5.790   5.950 -1.5260  0.5077 -0.2005
  770MOL0     H 3912  10.732   5.606   5.740 -0.2807  1.9907  0.7038
  770MOL0     H 3913  10.971   5.550   5.717 -1.4455  0.0588 -0.1940
  770MOL0     H 3914  11.239   5.463   5.738  3.8521  2.7667 -1.7704
  770MOL0     H 3915  11.163   5.628   5.761  0.1072  1.1503  0.7840
  770MOL0     H 3916  11.407   5.516   5.908  0.4930 -0.0846  0.8176
  770MOL0     H 3917  11.417   5.603   5.756 -1.1623 -0.2078 -0.2159
  770MOL0     H 3918  11.401   5.811   5.866 -1.4085 -0.3647 -0.7742
  770MOL0     H 3919  11.252   5.760   5.928  0.5536  3.3388 -1.7688
  770MOL0     H 3920  11.472   5.817   6.080  0.6414  1.1983 -5.3895
  770MOL0     H 3921  11.512   5.654   6.058 -0.6557 -0.3438 -3.4903
  770MOL0     H 3922  11.269   5.580   6.140 -1.3629  2.3823 -2.3307
  770MOL0     H 3923  11.218   5.735   6.139 -0.8323 -1.8927 -2.4409
  770MOL0     H 3924  11.256   5.705   6.370  0.8934  1.9838  0.9321
  770MOL0     H 3925  11.405   5.597   6.338  0.4657  0.3039 -2.3307
  770MOL0     H 3926  11.410   5.890   6.287  0.9947 -0.9673 -1.5191
  770MOL0     H 3927  11.542   5.787   6.352 -0.1776 -1.3579  1.1169
  770MOL0     H 3928  11.291   5.912   6.480  0.6655  0.7287 -2.5573
  770MOL0     H 3929  11.375   5.790   6.572 -2.6123  0.2218  0.1457
  770MOL0     H 3930  11.018   5.522   6.142 -1.7744 -1.0619 -0.3360
  770MOL0     H 3931  10.783   5.564   6.170 -0.2027 -0.3245 -0.6227
  770MOL0     H 3932  10.308   5.434   6.172 -0.4541 -0.4610 -0.2123
  770MOL0     H 3933  10.098   5.559   6.242  0.0804 -1.5382 -1.2764
  770MOL0     H 3934   8.637   6.168   6.045  2.0657 -0.6650  0.6543
  770MOL0     H 3935   8.506   6.126   6.243 -1.2542  1.2958  1.2647
  770MOL0     H 3936   8.464   6.106   6.631 -0.0006  0.7222 -0.9225
  770MOL0     H 3937   8.339   6.007   6.828  0.5227  0.0528  0.3465
  770MOL0     H 3938   8.127   5.841   6.794 -0.5716 -0.4031 -1.7833
  770MOL0     H 3939   7.977   5.912   6.740 -0.5240 -2.8335 -0.2037
  770MOL0     H 3940   7.881   5.903   6.972  0.4266 -0.6302 -0.2844
  770MOL0     H 3941   8.037   5.839   7.028 -0.6064  0.2241  1.2648
  770MOL0     H 3942   7.848   5.709   6.831  0.2889 -0.9046 -0.3112
  770MOL0     H 3943   7.856   5.671   6.999  1.2245 -1.0365  0.2172
  770MOL0     H 3944   8.100   5.626   6.812  0.0540  3.2548  0.1630
  770MOL0     H 3945   8.102   5.600   6.982  0.6289  0.3335 -1.0317
  770MOL0     H 3946   7.864   5.284   6.809  0.2483  0.8737 -0.6757
  770MOL0     H 3947   7.990   6.215   6.685  0.2766 -2.3455 -0.4904
  770MOL0     H 3948   8.113   6.340   6.398  3.4498 -1.2242  0.1363
  770MOL0     H 3949   8.007   6.390   6.531 -0.0811  0.3889  0.9190
  770MOL0     H 3950   8.178   6.453   6.510  2.8053 -2.0834 -2.2120
  771MOL0     O 3951   9.445   9.490   0.044  0.3390 -0.1322  0.0893
  771MOL0     C 3952   9.449   9.371   0.060 -1.1025  0.8902  0.5866
  771MOL0     O 3953   9.353   9.294   0.100  0.3535  0.3233 -0.3330
  771MOL0     C 3954   9.229   9.352   0.083 -0.1208  0.1301  0.7474
  771MOL0     C 3955   9.185   9.453   0.173 -0.8452 -0.2868  0.7633
  771MOL0     C 3956   9.065   9.508   0.155  1.3207  0.4388 -0.5131
  771MOL0     C 3957   8.982   9.470   0.049 -0.0767  0.8217  1.1249
  771MOL0     O 3958   8.856   9.528   0.047  0.0887  0.4643 -0.1425
  771MOL0     C 3959   8.753   9.466  -0.036 -0.1526 -0.0674 -0.1835
  771MOL0     C 3960   8.632   9.495   0.043  0.8786  1.1356  0.2888
  771MOL0     C 3961   8.503   9.490  -0.039  1.3965  0.0062  0.5193
  771MOL0     C 3962   8.392   9.527   0.054  0.4645 -0.2048 -0.4716
  771MOL0     C 3963   8.257   9.471   0.011  0.1074  0.2138 -0.3128
  771MOL0     C 3964   8.138   9.505   0.114  0.3909  0.8490 -0.4297
  771MOL0     C 3965   8.015   9.400   0.094 -0.0545 -0.4833  0.3081
  771MOL0     C 3966   7.921   9.444  -0.017 -0.7277 -0.0146  0.1641
  771MOL0     N 3967   7.788   9.396   0.009  0.9433  0.3252  0.1234
  771MOL0     C 3968   7.744   9.263   0.014 -0.1001 -0.2870 -0.6202
  771MOL0     C 3969   7.624   9.263   0.072  0.3580 -0.6736 -0.4690
  771MOL0     C 3970   7.544   9.144   0.101  0.4074 -0.3154 -0.7040
  771MOL0     C 3971   7.411   9.166   0.050  0.6014  0.4693 -0.8811
  771MOL0     C 3972   7.330   9.034   0.070  0.7911 -0.0680 -0.1024
  771MOL0     C 3973   7.180   9.075   0.076 -1.0373 -0.0197  0.2987
  771MOL0     O 3974   7.147   9.165  -0.024 -0.2355 -0.3976  0.7468
  771MOL0     C 3975   7.046   9.246   0.014  0.3897 -0.0353  0.0356
  771MOL0     C 3976   7.060   9.381   0.023 -1.3932  0.1139 -0.0221
  771MOL0     C 3977   6.948   9.469   0.036 -0.2694  0.6036 -0.4624
  771MOL0     C 3978   6.820   9.414   0.043 -1.1373  0.0911  0.1393
  771MOL0     C 3979   6.703   9.509   0.061  0.2951 -0.1618  1.0262
  771MOL0     O 3980   6.573   9.452   0.073 -0.3457  0.1226 -0.2569
  771MOL0     C 3981   6.462   9.521   0.074 -0.0787 -0.2185  1.1619
  771MOL0     C 3982   6.439   9.642   0.138  0.2002  0.5474 -0.3075
  771MOL0     C 3983   6.320   9.713   0.124  0.9401 -0.1944 -0.3043
  771MOL0     C 3984   6.218   9.663   0.042 -0.0623 -0.5322 -0.2877
  771MOL0     O 3985   6.105   9.736   0.043  0.6143  0.3284  0.6341
  771MOL0     C 3986   5.980   9.672  -0.000 -0.2114  0.6876 -0.3045
  771MOL0     C 3987   5.870   9.771  -0.033  1.2733 -0.7240  0.0102
  771MOL0     C 3988   5.727   9.713  -0.067 -1.1961  0.1962 -1.1644
  771MOL0     C 3989   5.683   9.742  -0.204  0.5104  0.4098 -0.0436
  771MOL0     C 3990   5.558   9.657  -0.258 -0.1396 -0.9938  0.5947
  771MOL0     C 3991   5.432   9.688  -0.179  0.2313  0.2669  0.5646
  771MOL0     C 3992   5.310   9.614  -0.226  0.2347  0.0247  0.0804
  771MOL0     C 3993   5.262   9.667  -0.362 -0.0114 -0.3727  0.1938
  771MOL0    Cl 3994   5.238   9.853  -0.361 -0.3131  0.6144 -0.3261
  771MOL0     C 3995   6.230   9.540  -0.024  0.5670  0.3330 -0.5618
  771MOL0     C 3996   6.357   9.475  -0.005 -0.2131  0.0442  1.1996
  771MOL0     O 3997   6.722   9.634   0.060  0.7142  0.0132  0.6717
  771MOL0     C 3998   6.806   9.273   0.042  0.3133 -0.6297 -0.0171
  771MOL0     C 3999   6.919   9.191   0.031  0.9414  0.6834 -0.3083
  771MOL0     N 4000   7.591   9.401   0.105  0.3160  0.0247 -0.2945
  771MOL0     N 4001   7.681   9.477   0.064 -0.2743  0.0998  0.0937
  771MOL0     C 4002   9.027   9.385  -0.047  0.0255  0.9884  0.1143
  771MOL0     C 4003   9.149   9.320  -0.029  0.0378  0.6500 -0.2138
  771MOL0     C 4004   9.559   9.284  -0.002  0.3097 -0.8264  0.3696
  771MOL0     C 4005   9.518   9.185  -0.088 -0.9280 -0.3546 -0.0156
  771MOL0     C 4006   9.614   9.098  -0.135 -0.1089  0.0767 -0.2348
  771MOL0     C 4007   9.753   9.117  -0.105  0.2175 -0.5955  0.1057
  771MOL0     O 4008   9.838   9.035  -0.165 -0.0352 -0.8635  0.7156
  771MOL0     C 4009   9.980   9.036  -0.133  0.3042 -0.6989 -0.2483
  771MOL0     C 4010  10.059   8.913  -0.191  0.9660  0.3252 -0.4042
  771MOL0     C 4011   9.990   8.781  -0.163  0.6799 -0.0423 -0.3695
  771MOL0     C 4012  10.009   8.727  -0.023 -1.3171 -0.4820  1.0782
  771MOL0     C 4013   9.928   8.607   0.001 -0.0815 -0.2843  0.0346
  771MOL0     C 4014   9.865   8.513   0.016  0.1558  0.6365 -0.9987
  771MOL0     C 4015   9.787   9.227  -0.026 -0.5614  0.1187  0.0379
  771MOL0     C 4016   9.694   9.309   0.030 -0.2572 -0.3628  0.3945
  771MOL0     C 4017   9.734   9.425   0.121  1.0794 -0.4619  0.7155
  771MOL0     H 4018   9.249   9.486   0.254  0.9861 -2.7525  0.4486
  771MOL0     H 4019   9.018   9.588   0.212 -0.6090  0.0932 -1.4998
  771MOL0     H 4020   8.760   9.529  -0.124  0.4919  0.0773 -0.0284
  771MOL0     H 4021   8.773   9.362  -0.065 -0.7938 -0.6788  1.3968
  771MOL0     H 4022   8.645   9.588   0.098  0.6884  0.5263  1.4039
  771MOL0     H 4023   8.613   9.414   0.114  1.5972 -2.3947 -3.1512
  771MOL0     H 4024   8.480   9.390  -0.076 -1.2161  0.9509 -0.6466
  771MOL0     H 4025   8.522   9.560  -0.121  1.9599  0.8679  1.3604
  771MOL0     H 4026   8.411   9.492   0.156  0.9340  1.2990 -0.0126
  771MOL0     H 4027   8.381   9.636   0.062  1.2205 -0.0609 -1.2465
  771MOL0     H 4028   8.240   9.492  -0.094  1.2488 -1.5109 -0.8850
  771MOL0     H 4029   8.276   9.364   0.023 -1.5018  0.1966  3.7120
  771MOL0     H 4030   8.162   9.492   0.220  1.0133 -0.7407 -0.7308
  771MOL0     H 4031   8.100   9.606   0.096 -1.1136  0.9625  2.7565
  771MOL0     H 4032   7.949   9.397   0.182 -0.3972 -0.1001  0.0716
  771MOL0     H 4033   8.046   9.296   0.083 -2.4927 -1.0703 -2.1284
  771MOL0     H 4034   7.919   9.553  -0.024 -2.5197 -0.0797 -0.8277
  771MOL0     H 4035   7.961   9.419  -0.116 -2.1162  2.9796 -1.3071
  771MOL0     H 4036   7.804   9.184  -0.029  1.3697  0.2338  0.3802
  771MOL0     H 4037   7.587   9.058   0.051 -1.7345 -1.2131 -1.1031
  771MOL0     H 4038   7.544   9.128   0.209  0.2978 -0.7772 -0.7713
  771MOL0     H 4039   7.354   9.237   0.111  1.7718  0.9134 -0.2727
  771MOL0     H 4040   7.407   9.189  -0.057 -2.2635  1.9827 -0.5595
  771MOL0     H 4041   7.358   8.967   0.152 -0.3604 -1.0982 -0.5198
  771MOL0     H 4042   7.347   8.976  -0.020 -2.4063 -2.1052  0.4683
  771MOL0     H 4043   7.169   9.119   0.176  0.3395 -3.0592  1.9411
  771MOL0     H 4044   7.118   8.986   0.063 -0.5632 -0.4721  1.0436
  771MOL0     H 4045   7.156   9.425  -0.003 -0.3472 -0.4731  2.5854
  771MOL0     H 4046   6.963   9.575   0.056  0.5479  0.0794  1.8926
  771MOL0     H 4047   6.522   9.698   0.178  1.9398 -1.4212 -0.9573
  771MOL0     H 4048   6.313   9.814   0.163 -5.3231  0.3774 -1.8152
  771MOL0     H 4049   6.006   9.615  -0.090  3.1813  1.1944  0.2327
  771MOL0     H 4050   5.933   9.610   0.077 -1.1471  3.5380  1.5585
  771MOL0     H 4051   5.857   9.844   0.048  0.3158  0.2708 -1.0109
  771MOL0     H 4052   5.909   9.821  -0.122  1.7536 -0.1676  0.5177
  771MOL0     H 4053   5.727   9.610  -0.031  2.5021  0.5071  0.1322
  771MOL0     H 4054   5.656   9.763   0.000 -0.9560 -3.3440  2.0409
  771MOL0     H 4055   5.767   9.718  -0.271  1.7789  0.6878  1.3865
  771MOL0     H 4056   5.671   9.848  -0.226  1.1258 -0.0316 -2.9048
  771MOL0     H 4057   5.588   9.551  -0.253 -0.7915 -1.3156 -1.3997
  771MOL0     H 4058   5.553   9.672  -0.366  3.0706 -1.0139  0.3493
  771MOL0     H 4059   5.452   9.656  -0.076 -3.3005 -0.1391  1.2545
  771MOL0     H 4060   5.416   9.796  -0.182  0.8707  0.3417 -1.4169
  771MOL0     H 4061   5.229   9.629  -0.154  1.3084 -0.9889  1.5538
  771MOL0     H 4062   5.338   9.509  -0.238  2.3448  0.4781  0.6215
  771MOL0     H 4063   5.342   9.643  -0.433 -0.5823 -0.0331 -0.5794
  771MOL0     H 4064   5.170   9.613  -0.387 -2.4361  2.4276  2.4481
  771MOL0     H 4065   6.151   9.489  -0.077  0.1062 -0.2244  0.6305
  771MOL0     H 4066   6.367   9.376  -0.048 -3.8635  0.6257 -1.4381
  771MOL0     H 4067   6.713   9.223   0.067 -2.0421  2.5385 -1.6895
  771MOL0     H 4068   6.904   9.084   0.021  1.3881  0.6841 -1.0886
  771MOL0     H 4069   8.967   9.348  -0.129 -2.3761 -0.2136  2.2814
  771MOL0     H 4070   9.162   9.228  -0.085  1.2880  0.9452 -0.4349
  771MOL0     H 4071   9.419   9.170  -0.130 -0.2067 -0.0283 -1.9200
  771MOL0     H 4072   9.587   9.021  -0.206 -1.2562  0.3678 -0.1295
  771MOL0     H 4073   9.989   9.031  -0.024 -1.2414  3.6034  0.2655
  771MOL0     H 4074  10.029   9.126  -0.171  2.7805 -1.7231  0.3521
  771MOL0     H 4075  10.164   8.923  -0.160  0.4517  0.8574  1.2584
  771MOL0     H 4076  10.048   8.922  -0.300 -0.8050  1.8124 -0.1506
  771MOL0     H 4077  10.022   8.706  -0.236 -0.3081 -0.5889 -0.2589
  771MOL0     H 4078   9.883   8.800  -0.171  0.7381  1.1737  1.3901
  771MOL0     H 4079  10.115   8.699  -0.020 -0.9562  0.5301 -0.8566
  771MOL0     H 4080   9.984   8.797   0.057 -1.0149 -0.7969  1.4523
  771MOL0     H 4081   9.805   8.426   0.035 -0.5107  1.4280  0.6035
  771MOL0     H 4082   9.890   9.258  -0.014 -1.0926  1.9786  0.0408
  771MOL0     H 4083   9.699   9.426   0.224 -1.0944 -3.5852  0.1561
  771MOL0     H 4084   9.843   9.429   0.126  1.3058  0.7747 -2.6209
  771MOL0     H 4085   9.704   9.521   0.079  2.2832 -0.6644 -0.7105
  772MOL0     O 4086   6.311   2.735   7.049 -0.7989  0.0683  0.1989
  772MOL0     C 4087   6.392   2.820   7.089  0.3590  0.2158  0.2995
  772MOL0     O 4088   6.519   2.829   7.050  0.8753  0.6754 -0.8140
  772MOL0     C 4089   6.572   2.713   6.991  0.2050  0.3355 -1.1804
  772MOL0     C 4090   6.660   2.730   6.883 -0.0454 -0.2986  1.2481
  772MOL0     C 4091   6.732   2.624   6.821  0.1814  0.7501 -1.2859
  772MOL0     C 4092   6.698   2.494   6.864 -0.1414  0.5645 -0.3350
  772MOL0     O 4093   6.769   2.389   6.819  0.3903  0.0724  1.0427
  772MOL0     C 4094   6.898   2.386   6.876  0.4974 -0.0565  0.7210
  772MOL0     C 4095   6.964   2.248   6.861  1.3522  0.1416 -0.2114
  772MOL0     C 4096   7.029   2.224   6.719 -0.6347 -0.1953 -0.9885
  772MOL0     C 4097   7.072   2.084   6.694  0.2217  0.5128  0.2644
  772MOL0     C 4098   7.172   2.080   6.585 -1.0244  1.1522  0.4967
  772MOL0     C 4099   7.202   1.944   6.548 -0.6005 -0.0652  0.3898
  772MOL0     C 4100   7.328   1.931   6.464 -0.4242  0.4385 -0.5440
  772MOL0     C 4101   7.383   1.791   6.464  0.1101 -0.1843 -0.5191
  772MOL0     N 4102   7.496   1.779   6.374 -0.1437  0.5622  0.8764
  772MOL0     C 4103   7.622   1.821   6.408 -0.8718  0.1214 -0.0745
  772MOL0     C 4104   7.702   1.805   6.296  0.7470 -0.3682  0.7192
  772MOL0     C 4105   7.842   1.850   6.312  0.3253 -0.2212 -0.3586
  772MOL0     C 4106   7.936   1.793   6.206  0.7749  0.7285  0.6087
  772MOL0     C 4107   7.922   1.639   6.220  0.4541 -0.1072 -0.4079
  772MOL0     C 4108   8.022   1.565   6.144 -0.5510  0.9981 -0.0337
  772MOL0     O 4109   8.010   1.584   6.011 -0.0013 -0.4333  0.1329
  772MOL0     C 4110   8.119   1.563   5.935  0.0346  0.0334 -0.3955
  772MOL0     C 4111   8.209   1.454   5.963 -0.1053  0.3181 -1.3241
  772MOL0     C 4112   8.319   1.424   5.883 -0.3019 -0.3992 -0.6417
  772MOL0     C 4113   8.328   1.498   5.761 -0.7984 -0.1289  0.2692
  772MOL0     C 4114   8.449   1.482   5.678 -0.1837 -0.2207 -0.3039
  772MOL0     O 4115   8.543   1.389   5.722  0.3083 -0.8183 -0.1212
  772MOL0     C 4116   8.667   1.394   5.656 -0.0199  0.0548 -0.7056
  772MOL0     C 4117   8.693   1.381   5.518  0.1556 -0.7847 -0.6485
  772MOL0     C 4118   8.827   1.367   5.475  0.6049 -0.2642 -0.3340
  772MOL0     C 4119   8.939   1.389   5.560 -0.8334 -0.4458  0.3336
  772MOL0     O 4120   9.061   1.406   5.498 -0.4375 -0.7394 -0.1539
  772MOL0     C 4121   9.180   1.382   5.579 -0.4785 -0.4850  0.3132
  772MOL0     C 4122   9.236   1.525   5.611  0.2042 -0.3245 -0.1427
  772MOL0     C 4123   9.253   1.619   5.484  0.2873  0.2795 -0.0145
  772MOL0     C 4124   9.335   1.748   5.519  0.2808  0.4740 -0.2993
  772MOL0     C 4125   9.316   1.861   5.417 -0.6283  0.3249 -0.3017
  772MOL0     C 4126   9.369   1.824   5.276 -0.0857 -0.7177  0.2793
  772MOL0     C 4127   9.391   1.950   5.198  0.6622 -0.5295  0.3178
  772MOL0     C 4128   9.261   2.015   5.159 -0.1309 -0.8235  0.6114
  772MOL0    Cl 4129   9.289   2.163   5.069  0.5822  0.0121 -0.1924
  772MOL0     C 4130   8.909   1.397   5.698  0.9589 -0.4209 -1.1840
  772MOL0     C 4131   8.774   1.397   5.746  0.7809  0.0764  0.4524
  772MOL0     O 4132   8.469   1.576   5.593 -1.2292  0.6927 -0.6465
  772MOL0     C 4133   8.234   1.593   5.720  0.5816  0.2313  0.7886
  772MOL0     C 4134   8.136   1.637   5.810  0.5226  0.0427  0.3369
  772MOL0     N 4135   7.622   1.761   6.195 -0.1038 -0.3806  0.7493
  772MOL0     N 4136   7.500   1.753   6.239 -0.8193 -0.2080 -0.4424
  772MOL0     C 4137   6.616   2.473   6.974  0.6267 -0.2866 -0.8055
  772MOL0     C 4138   6.545   2.578   7.030 -0.3616 -0.1912  0.4990
  772MOL0     C 4139   6.337   2.929   7.170 -0.8510 -0.3786 -0.2870
  772MOL0     C 4140   6.385   3.062   7.160  0.4462  0.4895 -0.7915
  772MOL0     C 4141   6.343   3.170   7.244  0.4333  1.0060  0.1730
  772MOL0     C 4142   6.226   3.153   7.323  0.6901 -0.2165 -0.6293
  772MOL0     O 4143   6.171   3.249   7.402 -0.4655  1.0863  0.5224
  772MOL0     C 4144   6.239   3.371   7.409  0.2926  0.0216  0.3003
  772MOL0     C 4145   6.380   3.369   7.478 -0.0944  0.3815 -0.2373
  772MOL0     C 4146   6.402   3.256   7.581  0.1539  0.0592 -0.5020
  772MOL0     C 4147   6.527   3.283   7.664  0.0981  0.5522  0.1469
  772MOL0     C 4148   6.510   3.404   7.745  0.3980 -0.7899  0.1912
  772MOL0     C 4149   6.497   3.502   7.810 -0.9631  0.3762 -0.2603
  772MOL0     C 4150   6.172   3.023   7.323 -0.1460 -0.3254 -0.1300
  772MOL0     C 4151   6.226   2.916   7.256  0.9641 -0.0687  0.1557
  772MOL0     C 4152   6.171   2.783   7.282  0.5964  0.6971 -0.1476
  772MOL0     H 4153   6.672   2.833   6.850 -0.7960 -0.3179  0.8914
  772MOL0     H 4154   6.801   2.643   6.739  1.1607 -0.2689 -0.7253
  772MOL0     H 4155   6.958   2.471   6.841  0.6214 -0.6837 -0.6541
  772MOL0     H 4156   6.893   2.393   6.985  1.3476  1.3974  0.6970
  772MOL0     H 4157   6.878   2.181   6.877 -0.3480  1.3193 -3.4174
  772MOL0     H 4158   7.032   2.224   6.943 -0.9294 -1.1050  1.4550
  772MOL0     H 4159   7.115   2.292   6.718 -1.5679  1.0044 -1.2879
  772MOL0     H 4160   6.960   2.261   6.643 -0.6172 -3.1717 -2.5995
  772MOL0     H 4161   7.116   2.041   6.784 -1.9410  1.1379  1.7017
  772MOL0     H 4162   6.985   2.020   6.677  0.3426  0.3775  0.1568
  772MOL0     H 4163   7.148   2.119   6.485  0.7925 -1.7650 -1.1993
  772MOL0     H 4164   7.264   2.129   6.617  0.6923 -0.4674 -1.6091
  772MOL0     H 4165   7.212   1.884   6.639  2.0365  2.8983  2.2488
  772MOL0     H 4166   7.116   1.912   6.489 -1.8847  1.6571  1.2520
  772MOL0     H 4167   7.409   1.986   6.513  2.0123 -1.3645 -2.3264
  772MOL0     H 4168   7.321   1.963   6.360  0.6116 -1.7988 -1.3485
  772MOL0     H 4169   7.416   1.743   6.556  0.2897 -3.7276 -2.2790
  772MOL0     H 4170   7.306   1.724   6.425  0.2093 -0.1310 -0.8082
  772MOL0     H 4171   7.640   1.875   6.500 -4.2409 -0.6091  1.1513
  772MOL0     H 4172   7.849   1.958   6.304 -2.0598  0.0447  0.4588
  772MOL0     H 4173   7.871   1.830   6.415  0.1952  0.1322 -0.2548
  772MOL0     H 4174   7.912   1.826   6.105 -1.3491 -1.6945  0.2353
  772MOL0     H 4175   8.035   1.834   6.226  0.3580  1.4298  1.2942
  772MOL0     H 4176   7.828   1.618   6.167 -0.4442  1.6492  0.3978
  772MOL0     H 4177   7.921   1.614   6.326 -0.4379 -0.6710 -0.5319
  772MOL0     H 4178   8.034   1.459   6.166  1.3062  1.0806 -0.4674
  772MOL0     H 4179   8.115   1.614   6.175 -0.7654  0.3898  1.6510
  772MOL0     H 4180   8.204   1.385   6.047 -0.0340  0.0119 -1.5728
  772MOL0     H 4181   8.393   1.352   5.917 -3.4442 -2.3225  2.8746
  772MOL0     H 4182   8.603   1.375   5.457  0.5272  2.6125 -1.7661
  772MOL0     H 4183   8.836   1.368   5.367 -2.5158  1.4888 -0.7255
  772MOL0     H 4184   9.154   1.335   5.674 -2.6516  0.7567  0.4018
  772MOL0     H 4185   9.249   1.326   5.515  1.2227  1.5424  0.2615
  772MOL0     H 4186   9.170   1.569   5.686  0.2866  1.2446 -0.9393
  772MOL0     H 4187   9.331   1.523   5.664  1.2160  1.1145 -1.7906
  772MOL0     H 4188   9.315   1.565   5.412  0.8378 -2.1041  2.0840
  772MOL0     H 4189   9.156   1.636   5.436 -0.0098 -0.3787  0.3338
  772MOL0     H 4190   9.437   1.709   5.527  0.0947  0.3750  3.0356
  772MOL0     H 4191   9.308   1.791   5.616 -2.2733  1.6113 -1.4093
  772MOL0     H 4192   9.390   1.934   5.449  0.9020  0.3197 -3.4313
  772MOL0     H 4193   9.211   1.892   5.412 -0.4064  1.0336 -0.6353
  772MOL0     H 4194   9.467   1.777   5.276  0.4524  0.3384 -0.6754
  772MOL0     H 4195   9.289   1.766   5.228 -0.8108 -0.1358  0.7582
  772MOL0     H 4196   9.451   1.929   5.110  1.7982  0.8161  0.7376
  772MOL0     H 4197   9.443   2.017   5.267  0.4330 -2.8723  2.9589
  772MOL0     H 4198   9.204   1.951   5.091 -1.0576  0.9351 -0.3289
  772MOL0     H 4199   9.205   2.041   5.249  1.8739 -1.2054  2.0379
  772MOL0     H 4200   8.986   1.392   5.774 -1.1676 -0.4413  1.0901
  772MOL0     H 4201   8.755   1.403   5.853 -1.6428  0.4486  0.0450
  772MOL0     H 4202   8.239   1.634   5.619  1.0640  0.7624  1.0244
  772MOL0     H 4203   8.055   1.701   5.776  1.5283 -0.5405 -3.6662
  772MOL0     H 4204   6.612   2.372   7.013  4.0747  0.5425  2.2923
  772MOL0     H 4205   6.470   2.548   7.102 -0.1385 -1.7914  0.0989
  772MOL0     H 4206   6.469   3.080   7.094 -0.3703 -0.4135 -2.1178
  772MOL0     H 4207   6.382   3.271   7.234 -0.7978  1.5853  0.9386
  772MOL0     H 4208   6.180   3.437   7.474  0.6997  2.8537 -1.9950
  772MOL0     H 4209   6.236   3.423   7.313  0.1854 -0.6906 -0.0911
  772MOL0     H 4210   6.388   3.461   7.537  3.7902  0.1422 -0.1523
  772MOL0     H 4211   6.463   3.386   7.409  0.2678  0.7708  0.2866
  772MOL0     H 4212   6.410   3.156   7.538 -1.2630 -0.3698  0.1726
  772MOL0     H 4213   6.324   3.257   7.658  1.4283 -3.3016  1.0262
  772MOL0     H 4214   6.549   3.195   7.725  0.3655 -0.3660 -1.2229
  772MOL0     H 4215   6.597   3.297   7.580  0.0644  0.2251  0.0620
  772MOL0     H 4216   6.474   3.587   7.870 -0.7701 -0.3788  0.9326
  772MOL0     H 4217   6.087   3.007   7.389 -1.5317  3.0913 -0.8493
  772MOL0     H 4218   6.261   2.722   7.293 -0.0333 -1.4782 -4.7447
  772MOL0     H 4219   6.123   2.790   7.381  0.6083  3.0021 -0.2635
  772MOL0     H 4220   6.107   2.731   7.210  1.6787 -1.4855  0.3686
  773MOL0     O 4221   3.618   8.990   8.830  0.0194  0.1547  0.1434
  773MOL0     C 4222   3.695   8.997   8.926 -0.1247  0.3025 -1.3110
  773MOL0     O 4223   3.796   9.087   8.936 -0.6414  0.0200 -0.2787
  773MOL0     C 4224   3.839   9.155   8.825 -0.4732  0.2836  0.6855
  773MOL0     C 4225   3.856   9.098   8.696 -0.1569 -1.3988 -0.6269
  773MOL0     C 4226   3.906   9.176   8.597  0.7050  1.2827  1.1061
  773MOL0     C 4227   3.967   9.295   8.635  0.7752  0.2158 -1.2226
  773MOL0     O 4228   4.044   9.365   8.533  0.3421 -0.6468 -0.0610
  773MOL0     C 4229   4.133   9.470   8.577  0.1086  0.4835 -0.5653
  773MOL0     C 4230   4.230   9.511   8.470 -0.2507 -0.0378  0.1243
  773MOL0     C 4231   4.326   9.610   8.532  0.2903  0.2955 -1.0748
  773MOL0     C 4232   4.405   9.669   8.422  0.2506  0.2605  0.6621
  773MOL0     C 4233   4.519   9.748   8.469  0.5748 -0.8062  0.2178
  773MOL0     C 4234   4.572   9.831   8.350 -0.0633 -0.3471 -0.4449
  773MOL0     C 4235   4.697   9.906   8.383 -0.0760 -0.4396 -0.1310
  773MOL0     C 4236   4.658  10.046   8.453 -0.7700 -0.6462  0.1343
  773MOL0     N 4237   4.749  10.064   8.572  0.6527  0.7278 -0.6695
  773MOL0     C 4238   4.722   9.984   8.689 -0.4418  0.2783  0.3070
  773MOL0     C 4239   4.802  10.047   8.774 -0.3609 -0.2386 -0.4049
  773MOL0     C 4240   4.845  10.011   8.928  0.3793 -0.5247  0.2492
  773MOL0     C 4241   4.710  10.009   9.015 -0.7324 -0.4901 -0.7513
  773MOL0     C 4242   4.623  10.125   9.029  0.3604 -1.8148 -0.0076
  773MOL0     C 4243   4.690  10.255   9.076 -0.6192  0.3999 -0.4395
  773MOL0     O 4244   4.736  10.250   9.216 -0.1497 -0.4893  0.1060
  773MOL0     C 4245   4.859  10.312   9.224 -0.1311 -0.1672  0.8668
  773MOL0     C 4246   4.911  10.410   9.144 -0.2954 -0.3127  0.4028
  773MOL0     C 4247   5.047  10.449   9.164  1.2197 -1.7228  0.4105
  773MOL0     C 4248   5.118  10.405   9.267 -0.7776 -0.0503 -0.2537
  773MOL0     C 4249   5.251  10.467   9.289 -0.0334  0.1192  0.0036
  773MOL0     O 4250   5.281  10.588   9.228  0.2735  0.1542  0.0990
  773MOL0     C 4251   5.410  10.617   9.206  1.1680 -0.5601 -0.4624
  773MOL0     C 4252   5.469  10.591   9.077  0.6573 -0.7364 -0.3001
  773MOL0     C 4253   5.599  10.617   9.054 -1.0484  0.5086 -0.3046
  773MOL0     C 4254   5.675  10.697   9.140 -0.6178 -0.0006  0.4237
  773MOL0     O 4255   5.814  10.709   9.139  0.5183  0.1945  0.5339
  773MOL0     C 4256   5.875  10.694   9.011 -0.2673  0.0121 -0.7199
  773MOL0     C 4257   6.024  10.723   9.021  0.0626  0.8274 -0.3231
  773MOL0     C 4258   6.093  10.725   8.885 -0.3124 -0.3195  0.1147
  773MOL0     C 4259   6.098  10.583   8.829 -0.0112  0.2401  0.3498
  773MOL0     C 4260   6.189  10.569   8.707 -0.6282  1.0801 -0.3791
  773MOL0     C 4261   6.124  10.606   8.579  0.5790 -0.1099  0.5019
  773MOL0     C 4262   6.226  10.592   8.462 -0.4402  0.4794  0.2439
  773MOL0     C 4263   6.159  10.627   8.324  0.0580  0.0710 -0.0934
  773MOL0    Cl 4264   6.045  10.500   8.276 -0.0890 -0.4205 -0.5921
  773MOL0     C 4265   5.622  10.731   9.271 -0.2271  0.4175  0.1958
  773MOL0     C 4266   5.480  10.696   9.297 -0.3935  0.7443  0.2955
  773MOL0     O 4267   5.330  10.411   9.361  0.5819  0.1319 -0.3441
  773MOL0     C 4268   5.074  10.297   9.337 -0.2922  0.6723  0.6681
  773MOL0     C 4269   4.940  10.266   9.322 -0.0902 -0.0966  0.0753
  773MOL0     N 4270   4.875  10.148   8.712  0.4265 -0.8396  0.4654
  773MOL0     N 4271   4.838  10.166   8.589  0.4972  0.7870 -0.5537
  773MOL0     C 4272   3.949   9.355   8.761  0.0475 -0.3483 -0.7486
  773MOL0     C 4273   3.896   9.278   8.861  0.7733  0.5054  0.1874
  773MOL0     C 4274   3.679   8.904   9.042 -0.3062  0.3767 -0.1027
  773MOL0     C 4275   3.800   8.864   9.098 -0.8935  0.5428  0.2318
  773MOL0     C 4276   3.797   8.785   9.215 -0.3351 -0.0471  0.6979
  773MOL0     C 4277   3.679   8.729   9.263  0.4217  0.8653 -0.4816
  773MOL0     O 4278   3.671   8.641   9.377  0.2271  0.0377  0.1889
  773MOL0     C 4279   3.785   8.594   9.446 -0.9612 -0.2469  0.7050
  773MOL0     C 4280   3.858   8.476   9.374 -0.9424 -0.3730  1.0045
  773MOL0     C 4281   3.991   8.456   9.447 -0.5039  0.6515 -0.6951
  773MOL0     C 4282   4.066   8.329   9.412  0.3058  0.7603 -0.4885
  773MOL0     C 4283   4.129   8.343   9.276 -0.6895  0.0512 -0.3789
  773MOL0     C 4284   4.166   8.366   9.165 -0.0000 -0.4723  0.1980
  773MOL0     C 4285   3.556   8.764   9.198  1.1116  0.7533 -0.5034
  773MOL0     C 4286   3.562   8.855   9.092 -0.1342  0.1446  0.5677
  773MOL0     C 4287   3.424   8.907   9.039  0.4226  0.1390 -0.3453
  773MOL0     H 4288   3.810   9.002   8.674 -0.6052 -1.6485  1.1937
  773MOL0     H 4289   3.916   9.148   8.493 -1.6348  1.5628  0.7487
  773MOL0     H 4290   4.062   9.549   8.603 -0.8421  0.1459 -2.0381
  773MOL0     H 4291   4.180   9.441   8.671  0.3719 -0.2235 -0.9091
  773MOL0     H 4292   4.171   9.560   8.391  0.1225  0.9544  0.4486
  773MOL0     H 4293   4.282   9.420   8.439 -1.6762 -0.7685 -0.1952
  773MOL0     H 4294   4.393   9.567   8.608 -1.2542  1.1327  0.8510
  773MOL0     H 4295   4.267   9.694   8.569  0.8231 -0.5790  2.0649
  773MOL0     H 4296   4.452   9.594   8.359  0.0249  0.5265  0.1748
  773MOL0     H 4297   4.342   9.732   8.359  0.2068 -1.6677 -1.3376
  773MOL0     H 4298   4.484   9.813   8.551 -0.7241  1.5205 -2.0269
  773MOL0     H 4299   4.595   9.682   8.511 -0.3527 -1.6217  0.6442
  773MOL0     H 4300   4.608   9.770   8.267  3.1179  0.8909 -0.1009
  773MOL0     H 4301   4.500   9.902   8.308  0.4341  0.4160 -0.0214
  773MOL0     H 4302   4.748   9.916   8.287 -1.6385 -1.5348 -1.1073
  773MOL0     H 4303   4.762   9.852   8.453 -0.7994  1.8386  2.5023
  773MOL0     H 4304   4.650  10.135   8.391  2.4293  0.3317  0.9108
  773MOL0     H 4305   4.560  10.034   8.500  0.1490 -2.4540  1.7103
  773MOL0     H 4306   4.657   9.897   8.699  1.0396 -0.7585  1.3762
  773MOL0     H 4307   4.897   9.915   8.939 -0.6672 -1.0505  0.7288
  773MOL0     H 4308   4.908  10.090   8.970 -1.7187  1.6634 -0.5122
  773MOL0     H 4309   4.644   9.929   8.981  1.1758 -1.3334 -2.7603
  773MOL0     H 4310   4.752   9.972   9.108 -2.1318 -0.8250 -0.2346
  773MOL0     H 4311   4.541  10.107   9.099 -0.6790 -1.1354 -1.0112
  773MOL0     H 4312   4.570  10.129   8.933 -0.3454 -1.4288  0.3864
  773MOL0     H 4313   4.616  10.335   9.078 -2.2236 -0.9464 -2.2914
  773MOL0     H 4314   4.760  10.288   8.998 -2.2302  1.9985 -1.2925
  773MOL0     H 4315   4.838  10.449   9.074 -1.3527  0.8221  2.0601
  773MOL0     H 4316   5.067  10.547   9.121  1.2940 -1.0498  1.8742
  773MOL0     H 4317   5.399  10.544   9.008  0.9856 -0.8140 -0.5790
  773MOL0     H 4318   5.636  10.575   8.961  1.2433  0.4865  0.5614
  773MOL0     H 4319   5.851  10.592   8.979 -0.0786  0.5958 -2.9338
  773MOL0     H 4320   5.836  10.771   8.943  1.3897  2.1451  0.5976
  773MOL0     H 4321   6.025  10.823   9.064 -0.1703 -0.5444  3.2250
  773MOL0     H 4322   6.064  10.657   9.098 -2.9973  0.3972  1.0239
  773MOL0     H 4323   6.032  10.791   8.823 -1.7478  0.4701  2.2299
  773MOL0     H 4324   6.196  10.761   8.892  0.2326 -2.1533  3.9476
  773MOL0     H 4325   6.000  10.541   8.804 -1.0291  0.6699  3.2692
  773MOL0     H 4326   6.130  10.527   8.917  0.1921  0.0539  0.1601
  773MOL0     H 4327   6.221  10.465   8.704 -1.2271  0.7792  1.8028
  773MOL0     H 4328   6.276  10.633   8.724 -0.6510  0.7869  0.9838
  773MOL0     H 4329   6.040  10.537   8.563 -1.5631  1.3810  4.1129
  773MOL0     H 4330   6.092  10.710   8.572 -1.9842 -0.8494  0.1653
  773MOL0     H 4331   6.267  10.491   8.465 -2.5890 -0.4113  1.6195
  773MOL0     H 4332   6.306  10.666   8.471  0.0545 -0.0009 -0.1980
  773MOL0     H 4333   6.096  10.716   8.329  0.7707  0.6129 -0.6450
  773MOL0     H 4334   6.239  10.642   8.251  0.1090  1.7401  0.2834
  773MOL0     H 4335   5.683  10.779   9.347 -0.6284  2.8323 -0.8890
  773MOL0     H 4336   5.433  10.718   9.392 -0.3449 -2.6200  1.2157
  773MOL0     H 4337   5.137  10.245   9.409 -0.0457 -1.8643 -1.2205
  773MOL0     H 4338   4.905  10.194   9.395 -0.7755  0.8452  0.7029
  773MOL0     H 4339   3.983   9.451   8.798 -1.5533 -0.2718  0.6206
  773MOL0     H 4340   3.890   9.302   8.967 -3.3664  1.6942 -0.1064
  773MOL0     H 4341   3.899   8.885   9.057  0.0660 -0.7816  1.7959
  773MOL0     H 4342   3.895   8.767   9.259  0.2291  1.5496  0.1512
  773MOL0     H 4343   3.744   8.547   9.536 -1.2733  0.7094  1.0744
  773MOL0     H 4344   3.844   8.683   9.472 -0.0608  0.2031 -2.4495
  773MOL0     H 4345   3.857   8.487   9.265  0.6986 -0.6056  0.9478
  773MOL0     H 4346   3.790   8.391   9.384 -2.3116  0.1967 -2.2588
  773MOL0     H 4347   3.977   8.458   9.556  1.2500 -2.7787 -0.2600
  773MOL0     H 4348   4.056   8.542   9.426  0.5571 -0.6968 -3.3154
  773MOL0     H 4349   4.144   8.315   9.486  0.6994 -1.7023 -1.2685
  773MOL0     H 4350   3.995   8.246   9.403  2.0285 -0.6237 -2.3796
  773MOL0     H 4351   4.193   8.393   9.065  1.8449 -3.5251 -0.2425
  773MOL0     H 4352   3.465   8.729   9.245 -0.4963  3.4607 -1.3206
  773MOL0     H 4353   3.356   8.908   9.125  0.4958 -0.7591 -0.2698
  773MOL0     H 4354   3.431   9.013   9.011  0.0352  0.2651  0.0140
  773MOL0     H 4355   3.368   8.839   8.974 -2.1418 -0.7967  2.5882
  774MOL0     O 4356   9.842   8.850   5.377 -0.1285 -0.6389 -0.4518
  774MOL0     C 4357   9.718   8.847   5.355 -0.2196  0.6201 -0.0148
  774MOL0     O 4358   9.647   8.935   5.282 -0.1615 -0.9291  0.7700
  774MOL0     C 4359   9.719   9.050   5.242 -0.1123 -0.3751 -0.7334
  774MOL0     C 4360   9.678   9.179   5.290 -0.4201  0.0387  0.1188
  774MOL0     C 4361   9.743   9.301   5.243  0.1376 -0.5666  0.7549
  774MOL0     C 4362   9.844   9.292   5.152 -0.0665  1.0072  0.3035
  774MOL0     O 4363   9.915   9.399   5.107 -0.9309  0.3260  0.4710
  774MOL0     C 4364   9.917   9.518   5.175 -0.1102  0.2103 -0.0623
  774MOL0     C 4365   9.991   9.489   5.304 -0.2322  0.5783 -0.0827
  774MOL0     C 4366   9.972   9.606   5.401 -0.2712 -0.5022  0.8078
  774MOL0     C 4367  10.080   9.610   5.500 -0.1711 -0.2066  0.7207
  774MOL0     C 4368  10.033   9.694   5.606 -0.7201  1.1294  0.4649
  774MOL0     C 4369  10.071   9.842   5.589 -0.4024  0.5445  0.1873
  774MOL0     C 4370  10.025   9.926   5.708 -0.5276 -0.0192  1.1359
  774MOL0     C 4371  10.025  10.073   5.665  0.2629 -0.5960  0.0572
  774MOL0     N 4372  10.165  10.125   5.654  0.3518  0.1613  0.7990
  774MOL0     C 4373  10.245  10.154   5.768 -0.8635  0.7848 -0.7483
  774MOL0     C 4374  10.363  10.190   5.704 -0.5807 -0.3434  0.2440
  774MOL0     C 4375  10.487  10.209   5.780 -0.4385  0.1581  0.3600
  774MOL0     C 4376  10.519  10.358   5.793 -0.1375  0.0138 -0.2542
  774MOL0     C 4377  10.662  10.394   5.757  1.0461  0.2434 -0.0646
  774MOL0     C 4378  10.711  10.516   5.832 -0.3360  0.0492  0.2276
  774MOL0     O 4379  10.848  10.530   5.791  0.4288 -0.3002 -0.3957
  774MOL0     C 4380  10.940  10.585   5.880 -0.2006  0.1524 -0.4559
  774MOL0     C 4381  11.074  10.563   5.843  0.7120  0.0127 -0.4933
  774MOL0     C 4382  11.178  10.603   5.931  0.0905  0.8043 -0.6041
  774MOL0     C 4383  11.149  10.674   6.047 -0.0784  0.0920  0.0916
  774MOL0     C 4384  11.253  10.711   6.143  0.2514 -0.2087 -0.2766
  774MOL0     O 4385  11.385  10.679   6.115 -0.1807  0.3079 -0.4733
  774MOL0     C 4386  11.493  10.702   6.190  0.2070  0.2928 -0.0481
  774MOL0     C 4387  11.491  10.689   6.334  0.2120  0.1333  1.1351
  774MOL0     C 4388  11.605  10.710   6.415 -0.6014  0.7801  0.0813
  774MOL0     C 4389  11.728  10.759   6.358 -0.8480  0.8819 -0.2686
  774MOL0     O 4390  11.835  10.805   6.433  0.1744  0.0890  0.4523
  774MOL0     C 4391  11.854  10.761   6.564 -0.3005 -0.9440  0.4972
  774MOL0     C 4392  12.005  10.799   6.593  0.6584 -0.6408  0.4033
  774MOL0     C 4393  12.051  10.747   6.730 -0.5466  0.3527 -0.9715
  774MOL0     C 4394  12.189  10.812   6.766  0.0821 -0.3572 -0.2585
  774MOL0     C 4395  12.161  10.951   6.827 -0.4627  0.0329 -0.3251
  774MOL0     C 4396  12.113  10.955   6.974 -0.1796  0.3275 -0.0500
  774MOL0     C 4397  12.087  11.098   7.028  0.1900  0.0829 -0.0421
  774MOL0     C 4398  11.976  11.104   7.126  0.5431 -0.0231 -0.8669
  774MOL0    Cl 4399  11.992  11.001   7.260 -0.2729  0.4096 -0.2642
  774MOL0     C 4400  11.732  10.774   6.218 -0.2794  0.3587 -0.7430
  774MOL0     C 4401  11.616  10.748   6.138  0.0601  0.0010 -0.5473
  774MOL0     O 4402  11.218  10.775   6.245  0.4280  0.0268  0.6640
  774MOL0     C 4403  11.011  10.682   6.085  0.7838  1.1706  0.7583
  774MOL0     C 4404  10.914  10.655   5.992 -0.1450  0.6848  0.2994
  774MOL0     N 4405  10.347  10.169   5.564 -0.0346 -1.6119  0.0201
  774MOL0     N 4406  10.230  10.137   5.541  0.2912  0.5408 -0.0203
  774MOL0     C 4407   9.883   9.161   5.109 -0.3341  1.6952 -0.3163
  774MOL0     C 4408   9.826   9.042   5.150  0.1672 -0.2134  0.4123
  774MOL0     C 4409   9.640   8.732   5.418  0.2140 -0.2773 -0.1371
  774MOL0     C 4410   9.710   8.619   5.457 -0.1712 -0.1545 -0.4047
  774MOL0     C 4411   9.650   8.507   5.522  0.1695  0.2077  0.3720
  774MOL0     C 4412   9.513   8.504   5.533  0.0163  0.7551 -0.0965
  774MOL0     O 4413   9.451   8.394   5.594  0.2034  0.4255  0.8113
  774MOL0     C 4414   9.309   8.371   5.587  0.2381 -0.2565 -0.2508
  774MOL0     C 4415   9.235   8.428   5.705  0.4068 -1.2166  0.4445
  774MOL0     C 4416   9.077   8.411   5.712  0.0689  0.3322  0.6535
  774MOL0     C 4417   9.021   8.506   5.814  0.3154 -0.4493  0.4551
  774MOL0     C 4418   9.045   8.444   5.946 -0.1582  0.5555  0.1226
  774MOL0     C 4419   9.080   8.392   6.046 -0.7335 -0.0444 -0.5017
  774MOL0     C 4420   9.432   8.610   5.491 -0.2415  0.5002 -0.1236
  774MOL0     C 4421   9.503   8.731   5.445  0.6858  0.4086  0.4005
  774MOL0     C 4422   9.427   8.861   5.430 -0.3130  0.8092 -0.2448
  774MOL0     H 4423   9.592   9.191   5.355 -0.8765 -3.1859  0.2730
  774MOL0     H 4424   9.714   9.398   5.283 -4.0946 -1.3612  0.1669
  774MOL0     H 4425   9.964   9.602   5.122  2.1917 -0.7088  0.4132
  774MOL0     H 4426   9.817   9.554   5.201  0.2297  0.4059  1.0533
  774MOL0     H 4427  10.096   9.482   5.276 -0.8185 -1.5566 -2.0966
  774MOL0     H 4428   9.964   9.397   5.356 -2.1268  1.5329  0.7101
  774MOL0     H 4429   9.874   9.583   5.445 -0.6110 -3.2254 -1.0877
  774MOL0     H 4430   9.946   9.704   5.360 -0.8446 -1.6160 -1.7122
  774MOL0     H 4431  10.109   9.513   5.541  2.2170  1.1703  2.5943
  774MOL0     H 4432  10.169   9.651   5.451  0.0767 -0.7634  0.7019
  774MOL0     H 4433   9.926   9.679   5.623 -0.3768 -1.6656  0.5628
  774MOL0     H 4434  10.082   9.660   5.697  2.5502  0.5619 -1.3790
  774MOL0     H 4435  10.175   9.860   5.560  0.3140  2.7076  3.5092
  774MOL0     H 4436  10.016   9.887   5.506  2.7109  3.6508 -0.4291
  774MOL0     H 4437  10.085   9.905   5.796 -0.5990 -0.0111  1.1858
  774MOL0     H 4438   9.922   9.899   5.736 -0.9429 -0.5017 -0.6802
  774MOL0     H 4439   9.977  10.090   5.568  0.4858 -1.4673 -0.2100
  774MOL0     H 4440   9.970  10.130   5.741  1.8397 -0.8536  1.4412
  774MOL0     H 4441  10.224  10.141   5.874  0.9795 -2.1927 -0.6099
  774MOL0     H 4442  10.492  10.160   5.877  0.7513  1.1896  0.8469
  774MOL0     H 4443  10.571  10.171   5.723  1.4077  1.9459  1.7523
  774MOL0     H 4444  10.446  10.420   5.740 -0.3986 -1.1609 -1.3000
  774MOL0     H 4445  10.508  10.383   5.899  2.4726  1.5827 -0.2562
  774MOL0     H 4446  10.664  10.406   5.648  0.2834  1.0178 -0.0075
  774MOL0     H 4447  10.724  10.304   5.766 -0.2252 -0.7544 -0.7081
  774MOL0     H 4448  10.700  10.507   5.940 -0.4751  2.6478  0.5001
  774MOL0     H 4449  10.649  10.596   5.790 -4.0600 -1.5335  2.2427
  774MOL0     H 4450  11.079  10.525   5.742 -1.7212 -0.8866 -0.3455
  774MOL0     H 4451  11.281  10.574   5.910 -0.8252 -2.5508 -0.9510
  774MOL0     H 4452  11.396  10.653   6.372 -0.4492  0.5524 -0.0787
  774MOL0     H 4453  11.593  10.693   6.521 -0.7676 -1.6312 -0.2756
  774MOL0     H 4454  11.785  10.812   6.632  3.5109  1.3660  2.9974
  774MOL0     H 4455  11.852  10.652   6.562 -0.4896 -0.9343 -1.4490
  774MOL0     H 4456  12.069  10.751   6.518 -0.6662  1.4049 -2.2245
  774MOL0     H 4457  12.016  10.906   6.573 -2.2758 -0.2344  0.5442
  774MOL0     H 4458  11.981  10.753   6.815  0.3371 -0.4937 -0.1570
  774MOL0     H 4459  12.071  10.640   6.715 -3.3166 -0.3121 -0.4842
  774MOL0     H 4460  12.249  10.828   6.676 -1.6172  1.7518 -1.1384
  774MOL0     H 4461  12.252  10.754   6.834  1.9570  0.7801 -0.9479
  774MOL0     H 4462  12.103  11.008   6.755  0.2257  1.4418  0.1862
  774MOL0     H 4463  12.257  11.003   6.825 -1.8320  2.6756 -1.5872
  774MOL0     H 4464  12.015  10.907   6.973 -0.4750  0.7603  2.1671
  774MOL0     H 4465  12.184  10.910   7.044 -1.0081 -0.7088  0.1500
  774MOL0     H 4466  12.049  11.156   6.944 -0.2400 -0.3710 -0.1624
  774MOL0     H 4467  12.179  11.136   7.073 -0.2945  0.7861  0.3710
  774MOL0     H 4468  11.968  11.207   7.160 -0.7185  0.2057 -1.7507
  774MOL0     H 4469  11.884  11.080   7.071 -0.0440  0.9865 -0.3621
  774MOL0     H 4470  11.827  10.809   6.179  1.1987 -0.8565  1.5216
  774MOL0     H 4471  11.623  10.757   6.030 -0.8119  2.5810 -0.4463
  774MOL0     H 4472  10.984  10.719   6.183 -0.8422  0.1183  0.7411
  774MOL0     H 4473  10.811  10.687   6.007  0.3222  1.3204  2.4769
  774MOL0     H 4474   9.960   9.162   5.033 -0.7096  0.1020 -0.7578
  774MOL0     H 4475   9.859   8.960   5.088  0.5968  0.4962 -0.3252
  774MOL0     H 4476   9.814   8.610   5.427  0.3458 -0.7019  1.4076
  774MOL0     H 4477   9.711   8.426   5.560  2.3805  0.9964 -1.2594
  774MOL0     H 4478   9.295   8.263   5.584 -2.5168 -0.2160  3.5425
  774MOL0     H 4479   9.275   8.414   5.492 -0.5290  2.1611  1.0369
  774MOL0     H 4480   9.259   8.535   5.699  0.6215 -1.3453 -3.2973
  774MOL0     H 4481   9.285   8.391   5.795 -0.7906  0.7296  1.9874
  774MOL0     H 4482   9.055   8.305   5.725  1.6173 -0.0583  0.3605
  774MOL0     H 4483   9.030   8.431   5.615 -2.4520 -4.3476  0.6532
  774MOL0     H 4484   9.081   8.597   5.807  1.0829 -0.9076  0.8871
  774MOL0     H 4485   8.916   8.520   5.788  0.3239 -0.5254  0.3782
  774MOL0     H 4486   9.108   8.353   6.142 -0.1225  1.1802 -0.1737
  774MOL0     H 4487   9.328   8.624   5.517 -0.1305  0.3168  0.4378
  774MOL0     H 4488   9.335   8.845   5.488  0.3081 -0.5466  0.4055
  774MOL0     H 4489   9.477   8.940   5.487 -1.3046  0.7567  0.7284
  774MOL0     H 4490   9.414   8.903   5.330  1.7030  0.2495 -0.7837
  775MOL0     O 4491   8.312   8.769   6.229 -0.1215 -1.1951  0.7117
  775MOL0     C 4492   8.324   8.747   6.349 -0.3015  1.0764  0.0474
  775MOL0     O 4493   8.442   8.715   6.415  0.3933 -0.1546 -0.4940
  775MOL0     C 4494   8.539   8.806   6.387 -0.4708 -0.8328 -0.5208
  775MOL0     C 4495   8.581   8.888   6.488 -0.1625  0.0179 -0.6746
  775MOL0     C 4496   8.678   8.990   6.461 -0.0456 -0.8794  0.0450
  775MOL0     C 4497   8.749   8.995   6.336  0.0818 -0.3266  0.3341
  775MOL0     O 4498   8.828   9.091   6.293  0.3970 -0.0726  0.1383
  775MOL0     C 4499   8.876   9.200   6.370  0.3681  0.6172 -1.0821
  775MOL0     C 4500   9.020   9.211   6.347 -0.0350 -0.8730 -0.2632
  775MOL0     C 4501   9.113   9.100   6.377  0.2754 -0.1082  0.8553
  775MOL0     C 4502   9.262   9.125   6.375 -0.3430  0.0972  0.8026
  775MOL0     C 4503   9.301   9.218   6.485  0.3967 -0.1970 -0.4342
  775MOL0     C 4504   9.450   9.244   6.495  0.4533 -0.4059  0.4493
  775MOL0     C 4505   9.489   9.262   6.638  0.0047 -0.2935  1.4557
  775MOL0     C 4506   9.635   9.273   6.657  1.0052 -0.8124 -0.3434
  775MOL0     N 4507   9.694   9.366   6.569 -0.4036 -0.6516  0.4089
  775MOL0     C 4508   9.694   9.506   6.589  0.7937 -0.5526  0.1583
  775MOL0     C 4509   9.765   9.551   6.485  0.3605  0.2845  0.9333
  775MOL0     C 4510   9.803   9.698   6.456 -0.3936 -0.0099  0.0149
  775MOL0     C 4511   9.936   9.721   6.519 -0.1157 -0.2415  0.3012
  775MOL0     C 4512   9.958   9.696   6.670 -1.4153 -0.0769 -0.4105
  775MOL0     C 4513  10.101   9.744   6.717 -0.2322 -0.1474 -0.2352
  775MOL0     O 4514  10.113   9.886   6.682  0.2394 -0.3522  0.2836
  775MOL0     C 4515  10.230   9.959   6.660 -0.3540  0.5062  0.1342
  775MOL0     C 4516  10.356   9.919   6.693  0.7006 -0.0157  0.6856
  775MOL0     C 4517  10.462  10.011   6.668  0.5780 -0.1300 -0.9599
  775MOL0     C 4518  10.442  10.147   6.627  1.0029 -0.1151 -0.3410
  775MOL0     C 4519  10.552  10.235   6.621 -0.2520  1.0020 -0.2863
  775MOL0     O 4520  10.675  10.202   6.673 -0.2473 -0.1431  0.2137
  775MOL0     C 4521  10.773  10.299   6.678 -0.1644 -0.3100  0.0469
  775MOL0     C 4522  10.869  10.320   6.577  0.3715  0.4032 -0.3421
  775MOL0     C 4523  10.979  10.403   6.594  0.2167  0.3611  0.1236
  775MOL0     C 4524  10.995  10.471   6.715  0.6738 -0.1049  0.0554
  775MOL0     O 4525  11.090  10.554   6.750 -0.1205  0.2214 -0.0895
  775MOL0     C 4526  11.161  10.623   6.652 -0.6919  0.8516 -0.2125
  775MOL0     C 4527  11.265  10.714   6.716 -0.3974  0.7626  0.4235
  775MOL0     C 4528  11.383  10.647   6.759  0.0361  0.3113 -0.0907
  775MOL0     C 4529  11.492  10.741   6.814  0.2941  0.2082  0.2344
  775MOL0     C 4530  11.614  10.667   6.857 -0.0026  0.3893 -0.1449
  775MOL0     C 4531  11.588  10.559   6.968 -0.2595 -1.0203 -0.2498
  775MOL0     C 4532  11.704  10.474   6.998 -0.3353  0.1584 -0.5070
  775MOL0     C 4533  11.817  10.557   7.070  0.2582 -0.0896  0.3556
  775MOL0    Cl 4534  11.961  10.449   7.099 -0.1389 -0.1908 -0.0940
  775MOL0     C 4535  10.911  10.444   6.820  0.8800  0.5761 -1.2490
  775MOL0     C 4536  10.790  10.373   6.795  0.2099 -0.7849 -0.0136
  775MOL0     O 4537  10.532  10.353   6.575 -0.1560  1.7640 -0.2737
  775MOL0     C 4538  10.306  10.181   6.594  0.5132 -0.0007 -0.1486
  775MOL0     C 4539  10.202  10.091   6.617 -0.2561  0.8406  0.1557
  775MOL0     N 4540   9.791   9.445   6.400  0.2206 -1.0326  0.5576
  775MOL0     N 4541   9.744   9.336   6.441  0.6215 -0.0560 -0.3667
  775MOL0     C 4542   8.717   8.898   6.242  1.0662  0.4668 -0.8843
  775MOL0     C 4543   8.612   8.807   6.268  0.0809  0.1145  0.5252
  775MOL0     C 4544   8.207   8.722   6.424 -1.2796  1.0183  0.1397
  775MOL0     C 4545   8.169   8.809   6.521 -0.5592  0.7684  0.2646
  775MOL0     C 4546   8.059   8.779   6.609 -0.9224  0.4315  0.1532
  775MOL0     C 4547   7.972   8.676   6.569  0.2294 -0.1671 -0.0047
  775MOL0     O 4548   7.865   8.650   6.648  0.2885 -0.2354  0.2833
  775MOL0     C 4549   7.815   8.753   6.733 -0.4409  0.3612  0.4487
  775MOL0     C 4550   7.668   8.738   6.747 -0.6047  0.1668  0.5415
  775MOL0     C 4551   7.601   8.742   6.607 -0.1126  0.2908  0.1686
  775MOL0     C 4552   7.462   8.808   6.609 -0.5356 -0.8496 -0.0887
  775MOL0     C 4553   7.377   8.716   6.680  0.0801  0.1218 -0.2668
  775MOL0     C 4554   7.311   8.621   6.728  0.1859  0.4925  0.2170
  775MOL0     C 4555   8.002   8.582   6.465  0.2355  0.4306 -0.5843
  775MOL0     C 4556   8.127   8.607   6.398 -0.6286  0.0037  0.5194
  775MOL0     C 4557   8.160   8.507   6.290  0.7671  0.8819 -0.1068
  775MOL0     H 4558   8.532   8.895   6.585  1.0430 -0.1916 -0.0323
  775MOL0     H 4559   8.687   9.069   6.534 -0.5985 -2.0899  1.4616
  775MOL0     H 4560   8.826   9.287   6.327  2.7573  2.1230 -1.0359
  775MOL0     H 4561   8.871   9.198   6.479  0.1710 -0.1099 -1.0984
  775MOL0     H 4562   9.050   9.296   6.410  0.9460 -1.0035 -0.5263
  775MOL0     H 4563   9.040   9.253   6.247  0.4393  1.2039  0.6427
  775MOL0     H 4564   9.081   9.022   6.308 -0.4073  0.2265  0.7858
  775MOL0     H 4565   9.086   9.055   6.473 -3.6320 -0.5817 -0.3068
  775MOL0     H 4566   9.317   9.034   6.399 -2.7295 -1.6015  0.1727
  775MOL0     H 4567   9.277   9.155   6.270  1.4628 -1.0186  0.6945
  775MOL0     H 4568   9.257   9.314   6.459 -2.0098 -1.1958 -0.3216
  775MOL0     H 4569   9.263   9.188   6.583  0.0430  0.7926 -0.2546
  775MOL0     H 4570   9.503   9.154   6.463  0.4139 -0.2053 -0.1981
  775MOL0     H 4571   9.478   9.324   6.426 -0.5021 -0.9537 -0.6005
  775MOL0     H 4572   9.457   9.171   6.691 -0.5409 -1.3844 -0.6564
  775MOL0     H 4573   9.436   9.347   6.682 -0.0821 -0.9828  2.7263
  775MOL0     H 4574   9.637   9.312   6.759 -1.2362  1.7395 -1.1602
  775MOL0     H 4575   9.685   9.177   6.643  0.5544 -0.7499 -2.8993
  775MOL0     H 4576   9.647   9.561   6.669 -0.7343 -1.9817  0.2961
  775MOL0     H 4577   9.816   9.718   6.349  0.4357  2.6827  0.5492
  775MOL0     H 4578   9.720   9.754   6.500 -0.4140  0.5878 -0.7638
  775MOL0     H 4579  10.003   9.665   6.454  2.3774  1.2841  1.4124
  775MOL0     H 4580   9.954   9.829   6.515 -1.0697  0.0241  2.0496
  775MOL0     H 4581   9.951   9.592   6.703  1.3920  0.0640  0.8384
  775MOL0     H 4582   9.882   9.748   6.729 -0.3991 -1.8211  2.6873
  775MOL0     H 4583  10.168   9.667   6.679 -1.7107 -1.5169 -0.2092
  775MOL0     H 4584  10.092   9.736   6.826 -3.1746  1.6939 -0.2265
  775MOL0     H 4585  10.370   9.817   6.729  2.2266  0.5539  1.8375
  775MOL0     H 4586  10.563   9.976   6.686 -0.2898 -0.7729  4.6183
  775MOL0     H 4587  10.857  10.276   6.478  1.7286  0.5203 -0.5914
  775MOL0     H 4588  11.045  10.404   6.507 -0.5285 -0.1049 -0.4695
  775MOL0     H 4589  11.209  10.546   6.590 -1.8636  0.5103 -0.7293
  775MOL0     H 4590  11.098  10.683   6.586 -0.4803  0.2319 -0.9971
  775MOL0     H 4591  11.291  10.790   6.642  0.0428 -2.6165 -3.2175
  775MOL0     H 4592  11.208  10.761   6.797 -2.1775  0.3345 -0.5366
  775MOL0     H 4593  11.353  10.589   6.848 -1.6346  0.3192 -0.6153
  775MOL0     H 4594  11.423  10.586   6.678 -2.3488 -3.1427  1.0657
  775MOL0     H 4595  11.453  10.801   6.897 -1.0939  0.0192 -0.2642
  775MOL0     H 4596  11.519  10.810   6.734  0.1688  2.1731  1.8063
  775MOL0     H 4597  11.685  10.743   6.890  0.8391 -0.2815 -0.3622
  775MOL0     H 4598  11.662  10.624   6.768 -1.7986 -0.2558 -0.8479
  775MOL0     H 4599  11.553  10.619   7.052  1.7187  0.8828 -0.6691
  775MOL0     H 4600  11.511  10.487   6.938 -0.1097 -0.5716 -1.8359
  775MOL0     H 4601  11.750  10.437   6.906 -1.6489  0.4918 -1.3383
  775MOL0     H 4602  11.676  10.390   7.062 -0.3032  0.0514 -0.6337
  775MOL0     H 4603  11.839  10.652   7.020 -5.3836  2.5476  2.0064
  775MOL0     H 4604  11.772  10.586   7.166  2.3155  3.1430  0.4942
  775MOL0     H 4605  10.931  10.496   6.913  0.9263 -0.2880 -0.7729
  775MOL0     H 4606  10.720  10.371   6.879 -0.7749 -0.5966 -0.8062
  775MOL0     H 4607  10.279  10.284   6.573 -2.2154  0.5042  4.4449
  775MOL0     H 4608  10.100  10.113   6.587 -1.2913 -3.7037 -0.4424
  775MOL0     H 4609   8.769   8.908   6.147  1.3931  2.2883 -0.5535
  775MOL0     H 4610   8.588   8.731   6.195  0.0328 -0.4489  1.1153
  775MOL0     H 4611   8.234   8.895   6.528  0.0907  0.4238 -1.1719
  775MOL0     H 4612   8.052   8.843   6.696  1.3173 -0.1041  0.7932
  775MOL0     H 4613   7.837   8.857   6.708  0.8224  0.0301  0.1133
  775MOL0     H 4614   7.863   8.731   6.828 -1.1711  1.1054  1.0081
  775MOL0     H 4615   7.631   8.813   6.817 -1.1191 -0.0867  0.5407
  775MOL0     H 4616   7.645   8.637   6.781  0.8559  0.9181  4.1983
  775MOL0     H 4617   7.595   8.641   6.566  3.3340 -0.5865  1.3905
  775MOL0     H 4618   7.658   8.802   6.535  0.6101 -1.2801 -0.6330
  775MOL0     H 4619   7.452   8.903   6.661  0.5910 -0.5678 -0.3589
  775MOL0     H 4620   7.416   8.821   6.511 -3.0569  1.1702  1.2604
  775MOL0     H 4621   7.246   8.536   6.737  0.8718 -0.4334 -2.6702
  775MOL0     H 4622   7.937   8.497   6.446  1.6766 -0.0836 -4.0287
  775MOL0     H 4623   8.069   8.486   6.233 -1.1866  2.3134  2.2795
  775MOL0     H 4624   8.228   8.546   6.214  1.8941  0.6297  0.7547
  775MOL0     H 4625   8.202   8.411   6.323  1.3800 -0.5381 -4.3660
  776MOL0     O 4626   6.475   5.005   7.423  0.8966 -0.3790 -0.8115
  776MOL0     C 4627   6.434   5.022   7.313  0.6459  0.5902  0.1592
  776MOL0     O 4628   6.507   5.009   7.197 -0.0434  0.3665  0.4787
  776MOL0     C 4629   6.637   4.971   7.186 -0.5515 -0.3298  0.3565
  776MOL0     C 4630   6.737   4.962   7.289 -0.2733 -0.4439 -0.6791
  776MOL0     C 4631   6.873   4.912   7.264 -0.3120  0.5628 -0.5063
  776MOL0     C 4632   6.907   4.881   7.137 -1.3699  0.1493  0.9672
  776MOL0     O 4633   7.043   4.824   7.125  0.1739  0.4304 -0.3782
  776MOL0     C 4634   7.069   4.719   7.022  0.0663  1.2903  0.2311
  776MOL0     C 4635   7.225   4.689   6.999 -0.1209  0.3528 -0.4638
  776MOL0     C 4636   7.306   4.704   7.128  0.0779  0.2179 -0.4699
  776MOL0     C 4637   7.445   4.644   7.117  0.6243  0.2455  1.0376
  776MOL0     C 4638   7.537   4.670   7.235  0.7455 -0.3276  0.0393
  776MOL0     C 4639   7.685   4.646   7.205 -0.5997  0.3010 -0.1655
  776MOL0     C 4640   7.722   4.503   7.247 -0.3834 -0.1834 -0.4179
  776MOL0     C 4641   7.858   4.477   7.210 -0.9079  0.9991 -0.1296
  776MOL0     N 4642   7.953   4.474   7.327 -0.5235 -0.3552  0.5625
  776MOL0     C 4643   8.009   4.358   7.382 -0.4927  0.2163  0.5817
  776MOL0     C 4644   8.075   4.398   7.496 -0.1576  0.4887  0.2267
  776MOL0     C 4645   8.135   4.307   7.595  0.2473 -0.7420  0.9039
  776MOL0     C 4646   8.250   4.237   7.522  1.1449 -0.1509  0.5056
  776MOL0     C 4647   8.331   4.155   7.623  0.0276 -0.7995  0.9712
  776MOL0     C 4648   8.471   4.125   7.575 -0.3652  0.4235  0.3489
  776MOL0     O 4649   8.518   4.022   7.664  0.0560 -0.7984  0.2516
  776MOL0     C 4650   8.654   3.992   7.652 -0.5609 -0.6455 -0.0023
  776MOL0     C 4651   8.755   4.051   7.574  0.0894  0.7658  0.7306
  776MOL0     C 4652   8.885   3.994   7.561  0.8889 -0.4932 -0.3384
  776MOL0     C 4653   8.919   3.877   7.617 -0.5997 -0.6455 -0.1141
  776MOL0     C 4654   9.047   3.825   7.584  0.1839 -0.2331  0.2827
  776MOL0     O 4655   9.112   3.859   7.465  0.2545 -0.0176  0.2105
  776MOL0     C 4656   9.242   3.809   7.434 -0.3476 -0.5628  0.6252
  776MOL0     C 4657   9.281   3.810   7.300  0.8619 -0.6633  0.4519
  776MOL0     C 4658   9.412   3.795   7.251 -0.4358  0.8134 -0.3473
  776MOL0     C 4659   9.512   3.770   7.351 -0.0149 -0.1589 -0.1283
  776MOL0     O 4660   9.641   3.744   7.312  0.4949 -0.1342  0.0826
  776MOL0     C 4661   9.713   3.846   7.252  0.2436 -0.8520  0.7317
  776MOL0     C 4662   9.843   3.783   7.245  0.4438 -0.3692 -0.0120
  776MOL0     C 4663   9.944   3.882   7.181 -0.1287  0.4958  0.3524
  776MOL0     C 4664   9.989   3.999   7.266 -0.2919 -0.1623  0.2921
  776MOL0     C 4665  10.112   4.067   7.203  0.6384 -0.3108 -0.4673
  776MOL0     C 4666  10.145   4.186   7.296  0.2519  0.4577  0.2682
  776MOL0     C 4667  10.270   4.264   7.240 -0.2499  0.3341 -0.2315
  776MOL0     C 4668  10.260   4.349   7.109  0.4272  0.0073 -0.6474
  776MOL0    Cl 4669  10.134   4.477   7.129  0.7072  0.3441  0.0352
  776MOL0     C 4670   9.490   3.778   7.484 -0.4295 -0.8280 -0.1751
  776MOL0     C 4671   9.355   3.797   7.529 -0.3630 -0.5183  0.2641
  776MOL0     O 4672   9.083   3.740   7.661  0.1372  0.3130 -0.4885
  776MOL0     C 4673   8.824   3.814   7.701 -0.2579  0.2002  0.1406
  776MOL0     C 4674   8.698   3.875   7.724 -0.4728  0.3190 -0.1816
  776MOL0     N 4675   8.067   4.536   7.506  0.7497  0.2295  0.1189
  776MOL0     N 4676   7.992   4.577   7.411  0.1379  0.3216  0.6184
  776MOL0     C 4677   6.809   4.887   7.035  0.2416 -0.1609  0.1016
  776MOL0     C 4678   6.676   4.923   7.057  0.3237  0.4682  0.1395
  776MOL0     C 4679   6.290   5.078   7.303  0.2007 -1.0192 -0.7958
  776MOL0     C 4680   6.259   5.149   7.186  0.0336  0.8877  0.5505
  776MOL0     C 4681   6.134   5.212   7.178 -0.9204  0.3630  0.7037
  776MOL0     C 4682   6.037   5.216   7.276 -0.0577  0.5831 -0.6437
  776MOL0     O 4683   5.932   5.296   7.289  0.0216 -0.7595  0.0279
  776MOL0     C 4684   5.895   5.396   7.193 -0.9659  0.2976  0.4377
  776MOL0     C 4685   5.964   5.528   7.235 -0.3232 -0.3668 -0.9103
  776MOL0     C 4686   5.914   5.641   7.138 -0.1605 -1.5343  0.8343
  776MOL0     C 4687   6.025   5.759   7.145 -0.4725  0.5844 -0.4651
  776MOL0     C 4688   5.982   5.881   7.085 -0.0487  0.1318  0.6591
  776MOL0     C 4689   5.964   5.993   7.041  0.4507  0.0175 -0.3338
  776MOL0     C 4690   6.067   5.135   7.387 -0.2309 -0.3681  0.2827
  776MOL0     C 4691   6.182   5.061   7.400 -0.6981 -0.8337  0.9326
  776MOL0     C 4692   6.197   4.987   7.527  0.7600  0.1248 -0.4965
  776MOL0     H 4693   6.717   4.994   7.391  0.4044  0.6349 -0.8665
  776MOL0     H 4694   6.938   4.889   7.348 -2.0343  0.9754  0.9877
  776MOL0     H 4695   7.036   4.633   7.081 -2.1303  2.3346  0.6407
  776MOL0     H 4696   7.024   4.737   6.924 -0.9379  0.1449  0.4591
  776MOL0     H 4697   7.258   4.758   6.922  2.6626  0.7889  1.0095
  776MOL0     H 4698   7.241   4.590   6.956  2.6084  0.8932 -0.8664
  776MOL0     H 4699   7.254   4.639   7.199 -1.5324 -1.9568 -3.3745
  776MOL0     H 4700   7.305   4.808   7.161 -1.8656  0.0041  0.2988
  776MOL0     H 4701   7.434   4.536   7.106 -2.1880  0.4640  1.0811
  776MOL0     H 4702   7.496   4.668   7.023  0.7515 -2.4827  0.3459
  776MOL0     H 4703   7.520   4.777   7.248  4.1977  0.4294 -0.7297
  776MOL0     H 4704   7.502   4.611   7.321  1.6389 -0.3650  0.3827
  776MOL0     H 4705   7.728   4.663   7.106  1.9491 -1.8520  0.4332
  776MOL0     H 4706   7.740   4.709   7.276 -0.2553 -0.4209  0.2323
  776MOL0     H 4707   7.645   4.432   7.215  0.3163 -1.6100  0.9802
  776MOL0     H 4708   7.710   4.496   7.355 -0.9192 -1.5100 -0.5442
  776MOL0     H 4709   7.847   4.379   7.161 -3.4577 -0.0787  2.3587
  776MOL0     H 4710   7.910   4.541   7.138  2.1043 -1.0621  0.0323
  776MOL0     H 4711   8.003   4.256   7.348 -3.0054 -0.1515  1.8775
  776MOL0     H 4712   8.157   4.360   7.689 -2.2063  1.6511  0.2527
  776MOL0     H 4713   8.059   4.235   7.624 -0.2495 -0.1385  1.1230
  776MOL0     H 4714   8.210   4.171   7.445 -1.2149 -0.6942  2.1180
  776MOL0     H 4715   8.316   4.313   7.478  1.7421 -1.4897 -0.9853
  776MOL0     H 4716   8.270   4.067   7.646 -0.5897 -0.3757  0.9757
  776MOL0     H 4717   8.346   4.205   7.720  0.8446 -2.0190  1.5010
  776MOL0     H 4718   8.529   4.218   7.564 -0.0986  0.1319 -0.8637
  776MOL0     H 4719   8.475   4.081   7.475  2.8160  1.4696 -0.1122
  776MOL0     H 4720   8.727   4.134   7.510  0.4747  0.0790 -0.3395
  776MOL0     H 4721   8.952   4.054   7.500 -2.8246  2.9539 -1.4347
  776MOL0     H 4722   9.203   3.836   7.230  0.7584  0.9894  1.1504
  776MOL0     H 4723   9.436   3.790   7.145  0.4900  1.3346 -0.1821
  776MOL0     H 4724   9.665   3.874   7.158 -1.0087  1.2942  1.9315
  776MOL0     H 4725   9.723   3.931   7.319  0.9008 -0.2100 -0.1630
  776MOL0     H 4726   9.877   3.746   7.342 -0.8151  0.5789  0.8344
  776MOL0     H 4727   9.829   3.697   7.179 -2.4308  0.1811 -0.2814
  776MOL0     H 4728  10.036   3.824   7.172 -0.2007  0.2843  0.9633
  776MOL0     H 4729   9.920   3.916   7.080  1.7142  1.2447  0.1164
  776MOL0     H 4730  10.011   3.974   7.370 -1.4821 -2.1387  0.1316
  776MOL0     H 4731   9.901   4.064   7.269  0.0983  0.5523 -1.9702
  776MOL0     H 4732  10.085   4.108   7.105  2.1138 -0.7657 -1.0900
  776MOL0     H 4733  10.202   4.007   7.191  2.9618  3.1254 -2.0371
  776MOL0     H 4734  10.057   4.251   7.304 -1.1746 -1.4791  1.2782
  776MOL0     H 4735  10.164   4.155   7.399 -0.4613  2.3796  1.0235
  776MOL0     H 4736  10.350   4.191   7.229 -1.4939 -1.0296 -0.5136
  776MOL0     H 4737  10.299   4.330   7.323 -0.6095  3.0555 -2.1199
  776MOL0     H 4738  10.354   4.397   7.081  0.1666 -1.1787 -3.9069
  776MOL0     H 4739  10.227   4.284   7.028 -1.7294  1.6536 -1.1767
  776MOL0     H 4740   9.564   3.775   7.563 -0.7186 -1.6284  0.0822
  776MOL0     H 4741   9.341   3.806   7.636  1.5517  3.0345  0.3943
  776MOL0     H 4742   8.850   3.715   7.738  0.6602  0.5119  0.3348
  776MOL0     H 4743   8.627   3.826   7.791  1.1806  0.1661  1.5635
  776MOL0     H 4744   6.828   4.862   6.931 -2.4765 -1.7934 -0.1095
  776MOL0     H 4745   6.607   4.914   6.974 -0.6384  0.4664  0.9132
  776MOL0     H 4746   6.327   5.160   7.102 -2.5831 -1.5346 -2.1242
  776MOL0     H 4747   6.131   5.267   7.084 -1.0562 -3.0372 -1.4589
  776MOL0     H 4748   5.787   5.403   7.178 -0.5590  2.1121 -2.4527
  776MOL0     H 4749   5.936   5.372   7.095 -1.3408  3.4300 -0.6150
  776MOL0     H 4750   6.072   5.515   7.232 -0.2364 -0.1315  0.7545
  776MOL0     H 4751   5.932   5.561   7.334 -0.7258 -2.3917 -0.3223
  776MOL0     H 4752   5.815   5.675   7.170  0.8747  3.4004 -0.4190
  776MOL0     H 4753   5.903   5.608   7.034  1.1014  0.0261  0.1618
  776MOL0     H 4754   6.044   5.769   7.252  0.2766  0.1023 -0.5454
  776MOL0     H 4755   6.120   5.719   7.107 -0.7754  0.9300 -1.6360
  776MOL0     H 4756   5.934   6.094   7.021 -1.4023  0.4425  3.6762
  776MOL0     H 4757   5.995   5.114   7.465  1.3140 -1.6837  1.4152
  776MOL0     H 4758   6.241   5.057   7.598  0.7799  1.5478 -1.8738
  776MOL0     H 4759   6.103   4.943   7.562  0.9025 -1.3795 -1.8347
  776MOL0     H 4760   6.258   4.897   7.514 -0.6440 -1.1798  1.3496
  777MOL0     O 4761   3.757   2.996  10.916  0.0516  0.7500 -0.1291
  777MOL0     C 4762   3.816   2.892  10.882 -0.3538 -0.1273  0.7338
  777MOL0     O 4763   3.943   2.882  10.835 -0.5726  0.7458  0.2644
  777MOL0     C 4764   4.020   2.998  10.833  0.1794  0.2838 -0.1455
  777MOL0     C 4765   4.113   3.012  10.735 -1.0644 -0.2032  0.7741
  777MOL0     C 4766   4.190   3.134  10.720 -0.0536  0.0558 -0.3489
  777MOL0     C 4767   4.192   3.231  10.813  1.0147 -0.4818 -0.4660
  777MOL0     O 4768   4.270   3.342  10.808  0.6357 -1.0252 -0.7411
  777MOL0     C 4769   4.278   3.428  10.921 -0.1365  0.5458 -0.1701
  777MOL0     C 4770   4.358   3.546  10.883 -0.8390  0.0651 -0.7398
  777MOL0     C 4771   4.514   3.531  10.907 -0.2640 -0.0223 -0.2629
  777MOL0     C 4772   4.587   3.645  10.842  0.1611 -0.6679 -0.6288
  777MOL0     C 4773   4.737   3.642  10.868  0.6764 -0.4470 -0.2433
  777MOL0     C 4774   4.811   3.771  10.849 -0.0692 -0.2094  0.6832
  777MOL0     C 4775   4.825   3.804  10.696  0.3374  0.5695  0.0469
  777MOL0     C 4776   4.957   3.887  10.670  0.1984  1.0872 -0.1929
  777MOL0     N 4777   4.946   4.031  10.704  0.1882 -0.2726 -0.2397
  777MOL0     C 4778   5.002   4.114  10.607 -0.7283  0.4617 -1.0109
  777MOL0     C 4779   4.989   4.235  10.668  0.0831  0.1152 -0.1897
  777MOL0     C 4780   5.046   4.365  10.630  0.0621  0.0426 -0.1664
  777MOL0     C 4781   4.964   4.446  10.524  0.3803 -0.4723  0.0678
  777MOL0     C 4782   4.989   4.395  10.381  0.0378  0.3245  0.3581
  777MOL0     C 4783   5.136   4.438  10.333  0.2042 -0.0748  0.4266
  777MOL0     O 4784   5.231   4.329  10.346 -0.3919 -0.4803 -0.6148
  777MOL0     C 4785   5.364   4.365  10.331 -0.5283 -0.8536 -0.4699
  777MOL0     C 4786   5.448   4.258  10.360 -0.2192  0.2175  0.2551
  777MOL0     C 4787   5.588   4.264  10.361  0.2619 -0.5053 -0.0869
  777MOL0     C 4788   5.650   4.383  10.330 -0.4940  0.9113  1.1684
  777MOL0     C 4789   5.794   4.380  10.338  0.6863 -0.8198  1.2605
  777MOL0     O 4790   5.847   4.493  10.270 -0.3742  0.2070 -0.1010
  777MOL0     C 4791   5.989   4.511  10.258  0.2502  0.7447 -0.1844
  777MOL0     C 4792   6.037   4.636  10.235  0.3336 -0.5629  0.7849
  777MOL0     C 4793   6.166   4.664  10.234  0.8420  0.3953  0.2234
  777MOL0     C 4794   6.264   4.558  10.251 -1.0586  0.5407 -0.5059
  777MOL0     O 4795   6.398   4.589  10.263 -0.3581 -0.3158 -0.5276
  777MOL0     C 4796   6.491   4.498  10.331  0.1584  0.2936 -0.2006
  777MOL0     C 4797   6.627   4.512  10.266  0.2260  0.2225 -0.4071
  777MOL0     C 4798   6.672   4.658  10.266 -0.5865  0.2421  0.7626
  777MOL0     C 4799   6.796   4.658  10.182 -0.0195  0.3157  0.3047
  777MOL0     C 4800   6.840   4.797  10.139 -0.4285  0.2403 -0.1031
  777MOL0     C 4801   6.916   4.869  10.252 -0.2985  0.6219  0.0110
  777MOL0     C 4802   7.010   4.978  10.204  0.3581 -0.2498 -0.1497
  777MOL0     C 4803   6.934   5.108  10.199 -0.3899 -0.3515 -0.1636
  777MOL0    Cl 4804   7.056   5.222  10.129  0.0022 -0.0214 -0.1318
  777MOL0     C 4805   6.219   4.427  10.256  0.7230  0.2369 -0.9702
  777MOL0     C 4806   6.078   4.400  10.260  0.1456 -0.0156 -0.2248
  777MOL0     O 4807   5.852   4.305  10.414  0.0774 -0.5787 -0.8603
  777MOL0     C 4808   5.564   4.497  10.292 -0.4068  0.5987  1.0989
  777MOL0     C 4809   5.422   4.484  10.293  0.8686  0.9366  0.8893
  777MOL0     N 4810   4.893   4.228  10.763  0.4678 -0.3590 -0.3898
  777MOL0     N 4811   4.876   4.107  10.785  0.7639  0.4511 -0.6687
  777MOL0     C 4812   4.093   3.209  10.918  0.3463 -0.1149  0.5266
  777MOL0     C 4813   4.005   3.105  10.931  0.2338  0.0558 -0.2102
  777MOL0     C 4814   3.745   2.760  10.896 -0.0413  0.1663 -0.0986
  777MOL0     C 4815   3.819   2.641  10.849 -0.5179  0.0562 -0.2286
  777MOL0     C 4816   3.759   2.516  10.862  0.3077  0.9138 -0.1414
  777MOL0     C 4817   3.645   2.500  10.932 -0.4821  0.7952 -0.0039
  777MOL0     O 4818   3.594   2.376  10.948 -0.1462 -0.0038  0.0699
  777MOL0     C 4819   3.475   2.348  11.020 -1.3016  1.0048  0.5518
  777MOL0     C 4820   3.353   2.374  10.931 -1.0711 -1.0438  0.3065
  777MOL0     C 4821   3.221   2.340  10.988 -0.4506  0.3662 -1.0606
  777MOL0     C 4822   3.104   2.446  10.967 -0.3264  0.3569  0.4918
  777MOL0     C 4823   3.148   2.564  11.046 -0.0528  0.6589  0.1466
  777MOL0     C 4824   3.192   2.644  11.125 -0.3990 -0.3893  0.3368
  777MOL0     C 4825   3.567   2.612  10.957 -0.3141 -0.5528 -0.2284
  777MOL0     C 4826   3.616   2.740  10.954  0.2525  0.2625  0.4223
  777MOL0     C 4827   3.528   2.852  11.005 -0.7931  0.1170  0.5194
  777MOL0     H 4828   4.138   2.932  10.666  0.1236 -1.2520  2.3536
  777MOL0     H 4829   4.266   3.149  10.644  2.1920  0.3587  1.8239
  777MOL0     H 4830   4.180   3.469  10.945 -0.3868 -0.6017  0.8899
  777MOL0     H 4831   4.315   3.374  11.008  2.6928  1.8344 -0.4421
  777MOL0     H 4832   4.328   3.630  10.945  3.1961 -0.2626  2.0276
  777MOL0     H 4833   4.343   3.574  10.778  0.7845  0.2899 -0.9523
  777MOL0     H 4834   4.560   3.441  10.864  1.9655  1.6680 -1.6651
  777MOL0     H 4835   4.540   3.529  11.013  0.6641  1.0300 -0.4487
  777MOL0     H 4836   4.563   3.644  10.736 -3.1025  1.8475 -0.0823
  777MOL0     H 4837   4.549   3.740  10.882  0.2794  0.0537 -2.1880
  777MOL0     H 4838   4.747   3.624  10.976 -0.5884  1.8920  0.3413
  777MOL0     H 4839   4.793   3.567  10.811  0.1360  0.4482 -2.0082
  777MOL0     H 4840   4.750   3.850  10.894  2.1064  0.9801  1.6550
  777MOL0     H 4841   4.903   3.774  10.908 -0.3037  0.0301  1.0389
  777MOL0     H 4842   4.734   3.856  10.665 -2.2013 -2.8984  1.0588
  777MOL0     H 4843   4.823   3.707  10.645 -2.9163  0.6755 -0.2453
  777MOL0     H 4844   5.032   3.830  10.726 -0.2180  0.6556 -0.0664
  777MOL0     H 4845   4.965   3.868  10.562 -0.6510  1.5718 -0.3512
  777MOL0     H 4846   5.058   4.083  10.520  2.1278 -0.7721  1.1301
  777MOL0     H 4847   5.052   4.416  10.727 -1.0061 -1.2444  0.6086
  777MOL0     H 4848   5.150   4.364  10.594  0.3070 -3.7552  0.3010
  777MOL0     H 4849   4.855   4.438  10.534  0.1450 -2.3038 -2.6192
  777MOL0     H 4850   4.997   4.550  10.530 -1.5049  0.1162  0.9234
  777MOL0     H 4851   4.918   4.435  10.308 -1.2425 -0.0172  1.3668
  777MOL0     H 4852   4.979   4.286  10.383 -0.3261  0.2378 -2.5896
  777MOL0     H 4853   5.167   4.525  10.392  0.5864 -0.8528  1.4029
  777MOL0     H 4854   5.132   4.467  10.227 -2.1461  2.1080  0.9985
  777MOL0     H 4855   5.400   4.160  10.363 -1.4482  0.8188  1.0229
  777MOL0     H 4856   5.642   4.170  10.370  2.4183  0.5239 -1.2827
  777MOL0     H 4857   5.964   4.713  10.215 -0.6820 -1.6320  0.2211
  777MOL0     H 4858   6.204   4.765  10.238  2.4993 -0.0615 -1.8514
  777MOL0     H 4859   6.497   4.527  10.437 -1.9392  1.3487 -0.3069
  777MOL0     H 4860   6.462   4.393  10.339  2.0065 -0.2617 -0.1983
  777MOL0     H 4861   6.694   4.443  10.319 -1.0559 -2.4148 -2.0175
  777MOL0     H 4862   6.596   4.468  10.171  0.8262 -0.9399 -0.0938
  777MOL0     H 4863   6.602   4.724  10.213  3.3966  4.3232  0.0026
  777MOL0     H 4864   6.688   4.699  10.367 -2.6656  2.8107  0.1651
  777MOL0     H 4865   6.767   4.605  10.091  0.4641 -2.3819  1.6467
  777MOL0     H 4866   6.877   4.599  10.227  1.0766  1.1113 -0.5505
  777MOL0     H 4867   6.763   4.859  10.092  0.9644  1.4717 -0.8670
  777MOL0     H 4868   6.917   4.774  10.065 -1.9511 -1.6227 -1.1798
  777MOL0     H 4869   6.852   4.915  10.328 -3.6551  0.3781 -2.4308
  777MOL0     H 4870   6.978   4.796  10.306 -2.2980 -1.6083 -0.5098
  777MOL0     H 4871   7.038   4.962  10.100 -2.0003  2.0825 -1.2668
  777MOL0     H 4872   7.096   4.994  10.270 -0.3960 -4.9977  2.5059
  777MOL0     H 4873   6.848   5.110  10.131 -1.6061  1.2713  1.3371
  777MOL0     H 4874   6.899   5.133  10.300 -1.2331 -1.1576 -0.2434
  777MOL0     H 4875   6.289   4.344  10.259  0.0044 -0.3590  1.4111
  777MOL0     H 4876   6.040   4.298  10.270  1.1249 -0.3990 -0.2727
  777MOL0     H 4877   5.610   4.592  10.268 -1.9200  1.3886  1.2185
  777MOL0     H 4878   5.369   4.580  10.292  1.8182  1.4670  0.6731
  777MOL0     H 4879   4.083   3.294  10.984 -0.0209 -0.4719  0.9452
  777MOL0     H 4880   3.933   3.109  11.011  2.3220  2.0061  1.7147
  777MOL0     H 4881   3.917   2.654  10.804  0.2485  0.4366  1.4738
  777MOL0     H 4882   3.805   2.427  10.821 -1.5513  0.1526 -0.6424
  777MOL0     H 4883   3.483   2.416  11.105  3.0213 -0.4386  1.5398
  777MOL0     H 4884   3.460   2.243  11.044 -1.9029  0.4313 -2.0772
  777MOL0     H 4885   3.364   2.303  10.849  1.8638  1.4363 -1.6707
  777MOL0     H 4886   3.350   2.473  10.884  3.7509 -0.8593 -0.0986
  777MOL0     H 4887   3.230   2.326  11.097 -0.5736 -0.3141 -1.1362
  777MOL0     H 4888   3.197   2.239  10.954  2.2505 -0.3834 -0.9668
  777MOL0     H 4889   3.089   2.461  10.860 -0.5263 -2.5088  0.0471
  777MOL0     H 4890   3.015   2.401  11.012 -0.5102 -2.0757 -2.0437
  777MOL0     H 4891   3.236   2.712  11.195  1.1044 -1.3224  0.3356
  777MOL0     H 4892   3.475   2.601  11.012 -0.0767 -0.4029  0.2029
  777MOL0     H 4893   3.501   2.914  10.919  1.5817 -0.5845 -0.8311
  777MOL0     H 4894   3.432   2.822  11.046 -0.2336 -0.6461  1.3102
  777MOL0     H 4895   3.570   2.907  11.090 -0.9712 -0.3320  0.9010
  778MOL0     O 4896   3.770   4.772   7.141 -0.3317 -0.3309 -0.0735
  778MOL0     C 4897   3.744   4.652   7.158  0.3079 -0.5051 -0.7193
  778MOL0     O 4898   3.828   4.547   7.187  0.6665  0.2101  0.6975
  778MOL0     C 4899   3.968   4.567   7.209 -0.1903 -0.0538 -0.9236
  778MOL0     C 4900   4.017   4.679   7.284 -0.3714  0.4641 -0.2024
  778MOL0     C 4901   4.153   4.685   7.310 -0.2277 -1.1140 -0.0061
  778MOL0     C 4902   4.233   4.579   7.268  0.5512  0.3315 -0.0161
  778MOL0     O 4903   4.361   4.591   7.315 -0.0693 -0.0941  0.5476
  778MOL0     C 4904   4.452   4.489   7.265 -0.6681  0.5063 -0.2254
  778MOL0     C 4905   4.592   4.521   7.299 -0.2913  0.1565  0.0459
  778MOL0     C 4906   4.643   4.657   7.243 -0.6108 -0.7318 -0.4871
  778MOL0     C 4907   4.657   4.641   7.093 -0.7915 -1.0601  0.1759
  778MOL0     C 4908   4.641   4.779   7.015  0.0013 -0.2788  0.0675
  778MOL0     C 4909   4.748   4.881   7.063  0.5021 -0.6898  0.3293
  778MOL0     C 4910   4.732   4.995   6.970  0.6485  0.4744  0.5446
  778MOL0     C 4911   4.819   4.984   6.840  0.7210 -0.1339 -0.0740
  778MOL0     N 4912   4.831   5.096   6.743  0.4279 -0.3548 -1.0294
  778MOL0     C 4913   4.910   5.202   6.742 -0.6043  0.8838  0.0621
  778MOL0     C 4914   4.868   5.280   6.637  0.1867  0.1455  0.7466
  778MOL0     C 4915   4.943   5.395   6.571  0.2032 -0.3089 -0.8660
  778MOL0     C 4916   4.933   5.386   6.418  0.3702  0.3123  0.1268
  778MOL0     C 4917   4.986   5.507   6.340  0.8951 -0.2369 -0.3854
  778MOL0     C 4918   5.138   5.513   6.357  0.8551  1.3515 -0.4319
  778MOL0     O 4919   5.197   5.575   6.243  0.3541 -0.6636 -0.7380
  778MOL0     C 4920   5.332   5.614   6.245 -0.3011  0.6810 -0.6375
  778MOL0     C 4921   5.384   5.674   6.127  1.4242 -0.0917 -0.6206
  778MOL0     C 4922   5.517   5.718   6.118  1.1818  0.8293 -0.6394
  778MOL0     C 4923   5.600   5.718   6.235  1.1591 -1.5520 -0.6194
  778MOL0     C 4924   5.748   5.762   6.220  0.6448 -0.8562 -0.2079
  778MOL0     O 4925   5.807   5.762   6.094  0.3398  0.3665 -0.1531
  778MOL0     C 4926   5.924   5.818   6.068 -0.8708 -0.3176  0.2430
  778MOL0     C 4927   6.034   5.861   6.155 -0.0123  0.2860  0.0389
  778MOL0     C 4928   6.155   5.908   6.111  0.1597  0.3566 -0.1877
  778MOL0     C 4929   6.176   5.931   5.971  0.8685  0.4134 -0.3486
  778MOL0     O 4930   6.299   5.976   5.935 -1.1046 -1.0568  0.0387
  778MOL0     C 4931   6.313   6.030   5.798  0.3574 -0.5731 -0.2828
  778MOL0     C 4932   6.457   6.081   5.774  0.1773 -0.6136 -0.8471
  778MOL0     C 4933   6.469   6.163   5.651  0.5789  0.6855  0.6214
  778MOL0     C 4934   6.601   6.232   5.653 -0.3112 -0.4226 -0.1394
  778MOL0     C 4935   6.627   6.379   5.582  0.7752  0.1654 -0.9239
  778MOL0     C 4936   6.708   6.375   5.456 -0.3007 -0.2553 -0.0130
  778MOL0     C 4937   6.694   6.506   5.371  0.1941  0.5442 -0.1041
  778MOL0     C 4938   6.768   6.620   5.444  0.2383  0.1764  0.3900
  778MOL0    Cl 4939   6.766   6.770   5.346  0.1750  0.4322  0.4288
  778MOL0     C 4940   6.069   5.901   5.884 -0.7239  0.6348 -0.7767
  778MOL0     C 4941   5.949   5.841   5.933 -0.1734  0.3160 -0.2265
  778MOL0     O 4942   5.792   5.813   6.319 -0.0970 -0.1653 -0.3976
  778MOL0     C 4943   5.545   5.664   6.353 -0.3509 -0.1711 -0.3424
  778MOL0     C 4944   5.412   5.611   6.360 -0.4094  0.4920  0.7253
  778MOL0     N 4945   4.759   5.219   6.584  0.0014  0.7510 -0.1495
  778MOL0     N 4946   4.746   5.100   6.637  0.1686  0.3846  0.1844
  778MOL0     C 4947   4.179   4.470   7.201  0.1306  0.3284  0.1572
  778MOL0     C 4948   4.043   4.458   7.175 -0.5857  0.1193  0.0897
  778MOL0     C 4949   3.597   4.617   7.167  0.1925 -0.6161  0.3918
  778MOL0     C 4950   3.501   4.721   7.178  0.4483 -0.1473 -0.2086
  778MOL0     C 4951   3.370   4.695   7.179  0.1241  0.3124  0.1204
  778MOL0     C 4952   3.314   4.564   7.173 -1.1149 -0.1484 -0.0238
  778MOL0     O 4953   3.185   4.526   7.164  0.6418 -0.1963 -0.5102
  778MOL0     C 4954   3.086   4.624   7.184  1.1243  0.6665 -0.4681
  778MOL0     C 4955   2.950   4.561   7.157  0.0373  0.6644 -1.2278
  778MOL0     C 4956   2.833   4.658   7.158 -0.0783  0.1516  0.1197
  778MOL0     C 4957   2.818   4.703   7.013  0.3129 -0.0316 -0.2288
  778MOL0     C 4958   2.874   4.841   6.986 -0.7562  1.1653  0.4102
  778MOL0     C 4959   2.935   4.944   6.994 -0.0224 -0.3675 -0.5063
  778MOL0     C 4960   3.414   4.464   7.161  1.2437  0.0167  0.2957
  778MOL0     C 4961   3.556   4.487   7.144 -0.3375  1.0546 -1.2914
  778MOL0     C 4962   3.642   4.363   7.104  0.8987  0.0400 -0.3542
  778MOL0     H 4963   3.946   4.757   7.308 -1.1668 -1.2883  4.0900
  778MOL0     H 4964   4.194   4.777   7.349  3.1223 -1.4092 -2.3644
  778MOL0     H 4965   4.435   4.393   7.313 -1.5344  1.7124  2.0408
  778MOL0     H 4966   4.442   4.475   7.157  1.1006  0.7419 -0.4563
  778MOL0     H 4967   4.643   4.431   7.262 -1.2912 -1.2442  1.9028
  778MOL0     H 4968   4.603   4.522   7.407  0.6272 -0.4739 -0.0278
  778MOL0     H 4969   4.732   4.701   7.287  0.8866 -2.3283 -1.7603
  778MOL0     H 4970   4.567   4.730   7.273 -0.0494 -0.9495  1.5706
  778MOL0     H 4971   4.754   4.594   7.073 -0.3962  0.5285 -2.0449
  778MOL0     H 4972   4.574   4.580   7.054 -2.9631  2.0235 -0.3432
  778MOL0     H 4973   4.651   4.764   6.908 -0.1634  2.0155 -0.3218
  778MOL0     H 4974   4.540   4.820   7.031  0.8257  2.2889 -0.7324
  778MOL0     H 4975   4.716   4.910   7.163 -2.1191  0.5552 -0.7688
  778MOL0     H 4976   4.844   4.830   7.059 -1.0333 -3.8421 -0.2039
  778MOL0     H 4977   4.766   5.086   7.021  1.0694 -0.0632  1.2316
  778MOL0     H 4978   4.625   5.005   6.947 -0.0835 -4.6123  0.6816
  778MOL0     H 4979   4.922   4.956   6.865  0.2392 -0.5099  1.6188
  778MOL0     H 4980   4.785   4.896   6.783  2.5780 -0.9212 -0.0201
  778MOL0     H 4981   4.994   5.234   6.802  0.1078 -1.0450  0.1300
  778MOL0     H 4982   4.890   5.486   6.603 -0.6660 -0.9131 -0.5701
  778MOL0     H 4983   5.047   5.395   6.606 -1.1352  0.7967  3.8176
  778MOL0     H 4984   4.989   5.299   6.382 -1.3526 -0.3634 -1.0505
  778MOL0     H 4985   4.832   5.359   6.388  1.5020 -2.8440 -1.3756
  778MOL0     H 4986   4.939   5.593   6.390 -0.1216 -2.2918  2.4636
  778MOL0     H 4987   4.956   5.506   6.235  0.7781 -0.0115 -0.3565
  778MOL0     H 4988   5.184   5.414   6.365 -0.2386  0.9603  1.5731
  778MOL0     H 4989   5.159   5.575   6.444  2.5803  1.8832 -1.1837
  778MOL0     H 4990   5.320   5.685   6.041  0.2955  2.2883  0.4274
  778MOL0     H 4991   5.564   5.764   6.032  0.1711  0.3515 -1.4843
  778MOL0     H 4992   6.026   5.848   6.263  1.6809  2.2147  0.4704
  778MOL0     H 4993   6.231   5.932   6.184  0.5170  1.5959 -0.9308
  778MOL0     H 4994   6.287   5.956   5.721  0.3167 -1.9449  1.0000
  778MOL0     H 4995   6.240   6.111   5.787  1.3634  0.3886  0.0185
  778MOL0     H 4996   6.490   6.122   5.870 -0.7090 -1.4332 -0.1797
  778MOL0     H 4997   6.519   5.993   5.758 -0.6530 -1.4697  0.4468
  778MOL0     H 4998   6.456   6.106   5.558  0.8985 -0.0859  1.0409
  778MOL0     H 4999   6.393   6.242   5.650 -1.2074 -0.9333  1.0060
  778MOL0     H 5000   6.690   6.170   5.653  0.8961  1.1380 -2.8764
  778MOL0     H 5001   6.602   6.259   5.759  0.9472  2.5226 -0.7953
  778MOL0     H 5002   6.673   6.443   5.658 -1.3169 -0.8110  1.3263
  778MOL0     H 5003   6.532   6.431   5.565  0.5279  0.3945  0.9179
  778MOL0     H 5004   6.811   6.360   5.489 -0.8272 -2.0502  0.9378
  778MOL0     H 5005   6.684   6.288   5.393 -0.3812  0.5488 -1.1203
  778MOL0     H 5006   6.587   6.528   5.364 -0.6481 -1.9691  2.6969
  778MOL0     H 5007   6.731   6.475   5.273 -2.0207 -0.6598 -0.6287
  778MOL0     H 5008   6.731   6.642   5.544  1.6191 -0.7863  1.1381
  778MOL0     H 5009   6.873   6.590   5.451  0.0883 -1.6032 -2.9828
  778MOL0     H 5010   6.078   5.915   5.777 -0.7605 -1.0538 -1.0359
  778MOL0     H 5011   5.874   5.816   5.859  0.0217  0.6492 -0.5356
  778MOL0     H 5012   5.614   5.650   6.435  0.8742  1.2368 -1.0875
  778MOL0     H 5013   5.389   5.554   6.450 -0.2405 -1.6274 -0.5037
  778MOL0     H 5014   4.236   4.387   7.162 -0.8542  0.6334 -2.1411
  778MOL0     H 5015   3.994   4.367   7.143 -0.9165  0.3364 -0.0258
  778MOL0     H 5016   3.550   4.818   7.188  3.1900 -1.6055  2.2124
  778MOL0     H 5017   3.300   4.778   7.185  0.4389  0.4664  3.2084
  778MOL0     H 5018   3.113   4.705   7.116  1.9322  0.9340  0.1558
  778MOL0     H 5019   3.082   4.662   7.286 -0.5435 -3.1926  1.0840
  778MOL0     H 5020   2.926   4.500   7.244  0.7462  2.5185  0.3368
  778MOL0     H 5021   2.953   4.494   7.070 -0.7568 -0.7154 -0.2265
  778MOL0     H 5022   2.852   4.740   7.228  1.9649 -1.2440  1.3089
  778MOL0     H 5023   2.753   4.593   7.195  0.7811  0.4502  2.7406
  778MOL0     H 5024   2.852   4.631   6.937  0.9917  1.4229 -1.3450
  778MOL0     H 5025   2.709   4.713   7.009  0.3738  1.7745  1.1344
  778MOL0     H 5026   2.988   5.037   6.994  2.4226 -1.6774 -0.3449
  778MOL0     H 5027   3.382   4.360   7.158  0.0987  0.3112  1.4754
  778MOL0     H 5028   3.716   4.386   7.028  2.0988  1.1496  1.0869
  778MOL0     H 5029   3.692   4.317   7.190 -0.9444  3.5149  2.9075
  778MOL0     H 5030   3.579   4.285   7.061  0.2760 -1.3341  2.7335
  779MOL0     O 5031   0.130   7.306   8.491 -0.6726  0.1599  0.0316
  779MOL0     C 5032   0.039   7.272   8.423 -0.0192 -0.1116  0.1983
  779MOL0     O 5033   0.053   7.221   8.295  1.1007  0.5213  0.5351
  779MOL0     C 5034   0.164   7.176   8.227  0.2851  0.7176  0.9043
  779MOL0     C 5035   0.270   7.114   8.290 -0.1391 -0.9741  0.0875
  779MOL0     C 5036   0.375   7.072   8.212 -0.1447 -0.3289 -0.6865
  779MOL0     C 5037   0.378   7.082   8.069 -0.6114 -0.0235  0.3635
  779MOL0     O 5038   0.476   7.042   7.988 -0.1630  0.9345  0.6984
  779MOL0     C 5039   0.602   7.030   8.059  0.1452 -0.1108  0.1183
  779MOL0     C 5040   0.706   7.019   7.953  0.0834 -0.6803  0.4629
  779MOL0     C 5041   0.848   6.984   8.007  0.3801 -0.1602  0.2371
  779MOL0     C 5042   0.970   7.027   7.915  0.5998 -0.1817  0.2268
  779MOL0     C 5043   0.959   6.971   7.776 -0.0309 -0.1114  0.2270
  779MOL0     C 5044   0.942   6.818   7.776 -0.2438 -0.0691  0.4545
  779MOL0     C 5045   0.921   6.758   7.640 -0.4555  0.0063 -0.3338
  779MOL0     C 5046   1.052   6.712   7.576  0.2334  0.2262  0.2262
  779MOL0     N 5047   1.014   6.668   7.432 -0.4081  0.4450 -0.4142
  779MOL0     C 5048   0.960   6.748   7.332 -0.1599  0.0072  0.0448
  779MOL0     C 5049   0.965   6.674   7.219  0.5751  0.1017  0.2500
  779MOL0     C 5050   0.914   6.715   7.078  0.2079 -0.7250  0.7323
  779MOL0     C 5051   1.028   6.733   6.977 -0.8880  0.7354 -0.1238
  779MOL0     C 5052   1.126   6.850   7.002  0.2116 -0.3662  0.4151
  779MOL0     C 5053   1.238   6.862   6.903  0.0722 -0.8840 -0.2298
  779MOL0     O 5054   1.311   6.735   6.916  0.1563 -0.8713 -0.5123
  779MOL0     C 5055   1.413   6.706   6.828 -0.4792 -0.3567 -0.8589
  779MOL0     C 5056   1.453   6.576   6.814 -0.1704 -0.5492  0.0503
  779MOL0     C 5057   1.563   6.544   6.736 -0.1626 -0.1982 -0.2230
  779MOL0     C 5058   1.626   6.634   6.652 -0.1010  0.1154 -0.4660
  779MOL0     C 5059   1.747   6.597   6.573 -0.0984  1.1826 -0.9019
  779MOL0     O 5060   1.816   6.704   6.519 -0.1249 -0.0788 -0.0004
  779MOL0     C 5061   1.943   6.691   6.458  0.2206 -0.0825 -0.2777
  779MOL0     C 5062   1.999   6.578   6.387  0.1757 -0.3467  0.9245
  779MOL0     C 5063   2.125   6.582   6.338  0.3219 -0.3342 -0.6829
  779MOL0     C 5064   2.204   6.699   6.345 -0.5351  0.1876 -0.5126
  779MOL0     O 5065   2.323   6.699   6.284 -0.3205  0.5073  0.3815
  779MOL0     C 5066   2.421   6.807   6.296 -1.0069  0.3772 -0.0615
  779MOL0     C 5067   2.537   6.794   6.189  0.7895  0.8906 -0.5961
  779MOL0     C 5068   2.644   6.893   6.222  0.4149 -0.6147 -0.4649
  779MOL0     C 5069   2.748   6.907   6.109  0.3722  0.6964 -0.2748
  779MOL0     C 5070   2.844   7.007   6.163 -0.7449  0.3617  0.3708
  779MOL0     C 5071   2.927   7.052   6.046 -0.0593 -0.3280 -0.3227
  779MOL0     C 5072   3.024   7.167   6.099  0.0497 -0.3910 -0.2974
  779MOL0     C 5073   3.098   7.216   5.978 -0.6899 -0.1699  0.0696
  779MOL0    Cl 5074   3.173   7.366   6.037 -0.1937  0.1633  0.4482
  779MOL0     C 5075   2.161   6.805   6.424  0.7142 -0.5344  0.2663
  779MOL0     C 5076   2.032   6.799   6.477  1.2083 -0.1750  0.0748
  779MOL0     O 5077   1.784   6.478   6.568  0.1568  0.5909 -0.2845
  779MOL0     C 5078   1.585   6.767   6.655  0.0228 -0.4425  0.2206
  779MOL0     C 5079   1.479   6.806   6.747 -0.6545 -0.3823  0.1407
  779MOL0     N 5080   1.019   6.546   7.251 -0.0273 -0.3802  0.4967
  779MOL0     N 5081   1.059   6.554   7.379 -0.0125  0.6379  0.2319
  779MOL0     C 5082   0.267   7.144   8.004  0.4284  0.3258 -0.3844
  779MOL0     C 5083   0.157   7.188   8.083  0.1286  0.7794  0.0787
  779MOL0     C 5084  -0.103   7.273   8.476 -0.7078 -0.1263  0.1203
  779MOL0     C 5085  -0.125   7.279   8.615 -0.1015 -0.3848  0.7552
  779MOL0     C 5086  -0.250   7.282   8.672 -0.3332  0.3475 -0.0122
  779MOL0     C 5087  -0.363   7.263   8.597  0.2188 -0.6694  1.2862
  779MOL0     O 5088  -0.488   7.254   8.643  0.2810  0.5566 -0.3074
  779MOL0     C 5089  -0.525   7.117   8.664 -0.6737 -0.5086  0.9247
  779MOL0     C 5090  -0.625   7.083   8.558  0.6550 -0.9566 -0.3760
  779MOL0     C 5091  -0.687   6.944   8.579 -0.8537 -0.2264 -0.2917
  779MOL0     C 5092  -0.800   6.911   8.478 -0.0390 -0.6287  1.2140
  779MOL0     C 5093  -0.745   6.865   8.344  0.3476 -0.5093  0.6854
  779MOL0     C 5094  -0.727   6.828   8.230  0.6729  0.3320  0.0806
  779MOL0     C 5095  -0.344   7.264   8.458 -0.1537  1.2833 -0.6698
  779MOL0     C 5096  -0.220   7.263   8.395  0.5407  0.4371  0.5628
  779MOL0     C 5097  -0.213   7.266   8.239 -0.5866 -0.7514  0.4936
  779MOL0     H 5098   0.268   7.111   8.398  1.0644  2.8108  0.3768
  779MOL0     H 5099   0.455   7.038   8.277 -2.2512  1.7895  3.3948
  779MOL0     H 5100   0.634   7.116   8.119  2.8684 -1.8553  1.3650
  779MOL0     H 5101   0.602   6.940   8.122  1.0580 -1.5934 -1.9023
  779MOL0     H 5102   0.719   7.116   7.903 -0.4235 -1.0074 -0.3288
  779MOL0     H 5103   0.680   6.946   7.876 -1.0295  1.2678 -1.1316
  779MOL0     H 5104   0.847   6.876   8.027 -0.2218 -0.3137 -0.5716
  779MOL0     H 5105   0.862   7.042   8.098  0.5023  0.7436 -0.3491
  779MOL0     H 5106   0.979   7.134   7.899  1.7537 -0.2765  0.1811
  779MOL0     H 5107   1.061   7.012   7.975  2.2420  1.2161 -1.7877
  779MOL0     H 5108   0.879   7.028   7.726 -3.0539 -1.8881  2.6575
  779MOL0     H 5109   1.051   6.998   7.725 -0.4796 -2.3029 -1.9033
  779MOL0     H 5110   1.029   6.771   7.822  1.0746 -1.8807 -3.4398
  779MOL0     H 5111   0.851   6.793   7.831 -1.2890  2.4004 -0.0246
  779MOL0     H 5112   0.866   6.827   7.576 -0.0086 -0.8662 -1.7225
  779MOL0     H 5113   0.859   6.668   7.651  1.6430 -1.3981  0.7904
  779MOL0     H 5114   1.119   6.798   7.572 -0.1795  0.6992  2.3402
  779MOL0     H 5115   1.096   6.626   7.628  3.2185  2.3240  1.4223
  779MOL0     H 5116   0.932   6.852   7.337  1.7181  0.4934  3.2367
  779MOL0     H 5117   0.840   6.642   7.043 -0.0376 -1.0035  1.7941
  779MOL0     H 5118   0.866   6.812   7.090  3.0309  0.8929 -0.1798
  779MOL0     H 5119   1.079   6.636   6.977  0.6109  1.3940  2.5544
  779MOL0     H 5120   0.983   6.760   6.882  0.0831  0.6953 -0.6083
  779MOL0     H 5121   1.169   6.851   7.103 -1.9373  0.7034  1.3796
  779MOL0     H 5122   1.071   6.941   6.979 -1.4605 -2.2257 -3.7699
  779MOL0     H 5123   1.308   6.943   6.925  1.1977 -2.1207  0.8735
  779MOL0     H 5124   1.209   6.879   6.799  2.3284  2.3476 -0.4910
  779MOL0     H 5125   1.408   6.500   6.877  0.2377  1.4623  2.9785
  779MOL0     H 5126   1.595   6.441   6.721  0.5247 -0.4787  2.5964
  779MOL0     H 5127   1.932   6.497   6.361  1.4217 -1.2442  0.4461
  779MOL0     H 5128   2.161   6.504   6.271  0.6251 -1.3761  0.6506
  779MOL0     H 5129   2.374   6.905   6.280  2.1129  1.6895 -2.0511
  779MOL0     H 5130   2.463   6.808   6.397 -1.0467 -0.4515 -0.0293
  779MOL0     H 5131   2.585   6.697   6.209 -1.9014 -0.5071 -0.4108
  779MOL0     H 5132   2.500   6.797   6.086 -0.9502 -1.2088 -0.1238
  779MOL0     H 5133   2.610   6.994   6.247 -1.5890 -1.9424  3.0015
  779MOL0     H 5134   2.686   6.857   6.317 -1.1227  0.1961  0.5804
  779MOL0     H 5135   2.707   6.940   6.013  0.2704  1.1012 -0.0947
  779MOL0     H 5136   2.806   6.820   6.077  0.0536  0.0024  0.9891
  779MOL0     H 5137   2.900   6.960   6.244  0.5981  0.7748 -0.2955
  779MOL0     H 5138   2.787   7.094   6.198 -2.5520 -1.8367  3.4103
  779MOL0     H 5139   2.992   6.975   6.005  1.0850  0.9320 -0.9560
  779MOL0     H 5140   2.861   7.087   5.966  0.4705 -1.6220 -1.3493
  779MOL0     H 5141   3.088   7.119   6.173 -1.3673  1.3281  2.1859
  779MOL0     H 5142   2.970   7.250   6.146  5.1374  3.2120 -0.0507
  779MOL0     H 5143   3.170   7.142   5.944 -1.5922 -1.3183  0.5994
  779MOL0     H 5144   3.026   7.231   5.896 -1.2928 -1.6115  0.3121
  779MOL0     H 5145   2.213   6.900   6.435  0.6858 -0.5027  0.1247
  779MOL0     H 5146   1.996   6.879   6.541  4.5319  1.9603 -0.4862
  779MOL0     H 5147   1.636   6.854   6.614 -1.1708 -0.9136 -2.4884
  779MOL0     H 5148   1.473   6.914   6.757  0.7994 -0.3205  0.5034
  779MOL0     H 5149   0.264   7.141   7.896 -2.0767 -0.9822 -0.3383
  779MOL0     H 5150   0.066   7.229   8.043  0.2691  0.6899 -0.3305
  779MOL0     H 5151  -0.037   7.304   8.674  1.3295 -0.9007 -1.0862
  779MOL0     H 5152  -0.283   7.278   8.775 -3.1958 -2.0170 -0.8777
  779MOL0     H 5153  -0.580   7.111   8.758 -1.0064  0.1540  0.7753
  779MOL0     H 5154  -0.443   7.044   8.665  0.6702  0.9005  3.3629
  779MOL0     H 5155  -0.565   7.085   8.466  1.9388 -2.0543  0.3930
  779MOL0     H 5156  -0.702   7.160   8.553  1.0037 -0.4917  1.0212
  779MOL0     H 5157  -0.731   6.947   8.679  0.8128  3.4026  0.5098
  779MOL0     H 5158  -0.609   6.868   8.581 -1.4841 -0.9223  3.0124
  779MOL0     H 5159  -0.875   6.844   8.522 -1.1537 -0.5824 -0.5055
  779MOL0     H 5160  -0.852   7.005   8.453 -1.6331 -1.4835  1.1625
  779MOL0     H 5161  -0.708   6.797   8.130 -1.0227  0.9902 -0.4777
  779MOL0     H 5162  -0.429   7.245   8.394  0.5399 -0.3965 -1.1752
  779MOL0     H 5163  -0.170   7.169   8.213 -0.1467 -0.4276 -0.0001
  779MOL0     H 5164  -0.317   7.274   8.205 -0.2603  0.1643 -0.3325
  779MOL0     H 5165  -0.156   7.346   8.192  1.3087 -2.8331 -0.9662
  780MOL0     O 5166   5.039   3.783  10.165  0.3940 -0.3574  0.7707
  780MOL0     C 5167   5.041   3.661  10.174 -0.8787 -0.2132 -0.7981
  780MOL0     O 5168   5.151   3.583  10.196 -0.0658 -0.6427  0.0697
  780MOL0     C 5169   5.265   3.642  10.253  0.6363  0.1017 -0.5719
  780MOL0     C 5170   5.392   3.587  10.239 -0.1102 -0.8369  0.1498
  780MOL0     C 5171   5.505   3.653  10.300 -0.1042  0.5618  1.1063
  780MOL0     C 5172   5.487   3.767  10.388 -1.3788 -1.0591  0.2222
  780MOL0     O 5173   5.592   3.825  10.448 -0.1547 -0.9361  0.0514
  780MOL0     C 5174   5.700   3.744  10.489  0.0745 -0.3873 -0.1609
  780MOL0     C 5175   5.764   3.824  10.606  0.2748  1.2850 -0.1320
  780MOL0     C 5176   5.814   3.962  10.564  0.0527  1.0174  0.5120
  780MOL0     C 5177   5.854   4.038  10.689  0.1939 -0.5398  0.1738
  780MOL0     C 5178   6.003   4.018  10.718  0.0082  0.0301 -0.7087
  780MOL0     C 5179   6.095   4.115  10.627 -0.2979  0.0855  0.4603
  780MOL0     C 5180   6.249   4.133  10.664  0.1100  0.0022 -0.3900
  780MOL0     C 5181   6.339   4.163  10.538 -0.0437 -0.2476  0.2384
  780MOL0     N 5182   6.483   4.198  10.579 -0.6850  0.3721 -1.1161
  780MOL0     C 5183   6.532   4.196  10.706  0.4977 -0.1646 -0.1966
  780MOL0     C 5184   6.666   4.222  10.699 -0.4306 -0.1560  0.4731
  780MOL0     C 5185   6.768   4.240  10.802 -1.5213  0.3127 -0.6619
  780MOL0     C 5186   6.727   4.202  10.944  0.4529  1.0804 -0.5815
  780MOL0     C 5187   6.837   4.192  11.038  0.0231 -0.3861 -0.4054
  780MOL0     C 5188   6.916   4.328  11.042 -0.4558  0.4615  0.3660
  780MOL0     O 5189   6.830   4.446  11.050 -0.6976  0.3683  0.4291
  780MOL0     C 5190   6.886   4.564  11.029 -0.4499  0.0298  0.2128
  780MOL0     C 5191   6.803   4.661  10.991 -0.2716 -0.6613 -0.1388
  780MOL0     C 5192   6.853   4.786  10.959 -0.4839 -0.4468 -1.0691
  780MOL0     C 5193   6.991   4.818  10.970  0.5373  0.3111 -0.2800
  780MOL0     C 5194   7.049   4.959  10.968 -0.7729  0.6865 -0.3315
  780MOL0     O 5195   7.184   4.969  10.990 -0.4762  0.6569  0.2371
  780MOL0     C 5196   7.243   5.097  10.989  0.0780  0.3637  0.4359
  780MOL0     C 5197   7.287   5.155  10.864  1.0098  0.3609 -0.8707
  780MOL0     C 5198   7.329   5.285  10.852  0.5461 -0.6268 -0.8889
  780MOL0     C 5199   7.349   5.354  10.970  0.8322  0.1784 -0.1999
  780MOL0     O 5200   7.412   5.479  10.975 -0.1959  0.4669  0.5518
  780MOL0     C 5201   7.522   5.491  10.882 -0.7076 -0.3961  0.1311
  780MOL0     C 5202   7.599   5.628  10.877  0.5018  0.3542 -0.4038
  780MOL0     C 5203   7.740   5.640  10.822  0.6503 -0.1075 -0.1718
  780MOL0     C 5204   7.816   5.763  10.865 -0.4565  0.6583  0.1369
  780MOL0     C 5205   7.937   5.794  10.776 -0.1651  0.0992  0.0192
  780MOL0     C 5206   8.034   5.671  10.772 -0.2226 -0.7819  0.2600
  780MOL0     C 5207   8.146   5.706  10.681 -0.4662 -0.8762  0.2166
  780MOL0     C 5208   8.247   5.598  10.657  0.7184 -0.7101  0.1194
  780MOL0    Cl 5209   8.154   5.464  10.589 -0.2452 -0.1594  0.1351
  780MOL0     C 5210   7.326   5.301  11.093 -0.0969 -0.6534 -0.8414
  780MOL0     C 5211   7.272   5.167  11.106 -0.1229 -0.4951  0.0563
  780MOL0     O 5212   6.973   5.054  10.933 -0.5428  1.1953  0.1549
  780MOL0     C 5213   7.072   4.713  11.016 -0.2957  0.8128 -0.2633
  780MOL0     C 5214   7.019   4.590  11.039  0.0836 -1.0533 -0.1816
  780MOL0     N 5215   6.691   4.244  10.562  0.4971 -0.9426  0.2697
  780MOL0     N 5216   6.582   4.233  10.498 -0.0922 -0.3160 -0.3773
  780MOL0     C 5217   5.350   3.814  10.399 -0.5016 -0.7395 -0.1337
  780MOL0     C 5218   5.248   3.748  10.344  0.3976  0.1223  0.8441
  780MOL0     C 5219   4.914   3.596  10.137 -0.0797  0.2621  0.2106
  780MOL0     C 5220   4.925   3.483  10.052  0.2224 -0.6922 -0.1538
  780MOL0     C 5221   4.800   3.415  10.008 -1.1103 -0.3769 -0.6229
  780MOL0     C 5222   4.676   3.461  10.047 -1.5028  0.4522 -0.1938
  780MOL0     O 5223   4.566   3.407   9.982 -0.4477 -0.1970 -0.4851
  780MOL0     C 5224   4.456   3.495   9.955  0.8020  0.8361  0.6078
  780MOL0     C 5225   4.329   3.450  10.043  0.2675 -0.6000  0.0478
  780MOL0     C 5226   4.312   3.292  10.050 -0.8717  0.2758 -0.6044
  780MOL0     C 5227   4.301   3.204   9.927 -0.0888  0.0036 -0.3242
  780MOL0     C 5228   4.214   3.258   9.829 -0.8089 -0.6564 -0.5218
  780MOL0     C 5229   4.130   3.302   9.758  0.4568 -0.7990  0.3547
  780MOL0     C 5230   4.669   3.574  10.135 -0.5188  0.4475  0.5842
  780MOL0     C 5231   4.785   3.639  10.170 -0.4070  0.2151 -1.5886
  780MOL0     C 5232   4.764   3.747  10.274 -0.1955  0.4356 -0.0015
  780MOL0     H 5233   5.414   3.515  10.160 -0.2525 -0.1386 -0.5457
  780MOL0     H 5234   5.608   3.619  10.291 -0.3203  0.4329 -1.8817
  780MOL0     H 5235   5.674   3.647  10.533 -0.4536  0.5338  1.6948
  780MOL0     H 5236   5.779   3.709  10.422  0.2146 -0.3542 -0.0131
  780MOL0     H 5237   5.851   3.771  10.647 -0.9696 -0.3307  0.4981
  780MOL0     H 5238   5.685   3.825  10.682 -0.2463 -1.4145 -0.5217
  780MOL0     H 5239   5.747   4.020  10.499  0.0939  1.2125  0.6432
  780MOL0     H 5240   5.902   3.941  10.503  0.8752  0.8218  1.7313
  780MOL0     H 5241   5.827   4.140  10.660  1.3798 -0.7808 -1.9201
  780MOL0     H 5242   5.793   4.016  10.777 -3.0900  2.4211 -1.1076
  780MOL0     H 5243   6.013   4.047  10.823 -2.9746  0.9567 -0.5829
  780MOL0     H 5244   6.047   3.918  10.716  1.0405  0.3165  2.3178
  780MOL0     H 5245   6.086   4.070  10.528 -0.4581 -0.6237  0.7889
  780MOL0     H 5246   6.053   4.216  10.626  3.4211  1.8011 -1.0517
  780MOL0     H 5247   6.284   4.045  10.720 -2.1337 -0.8115 -0.1554
  780MOL0     H 5248   6.258   4.217  10.734 -0.0217  0.0508 -0.4318
  780MOL0     H 5249   6.339   4.072  10.477  1.0767  0.4820 -0.8910
  780MOL0     H 5250   6.292   4.240  10.477 -1.4058 -0.4026  1.0215
  780MOL0     H 5251   6.471   4.199  10.795 -0.2341  0.5493 -0.7025
  780MOL0     H 5252   6.859   4.185  10.774 -2.8205 -1.7578 -1.0324
  780MOL0     H 5253   6.790   4.347  10.806  2.1296 -0.3423  2.5061
  780MOL0     H 5254   6.655   4.279  10.973 -0.3019  0.5349 -0.9849
  780MOL0     H 5255   6.677   4.106  10.930  2.1612  0.0655 -0.1246
  780MOL0     H 5256   6.908   4.116  11.002 -0.4340 -0.9813 -0.0568
  780MOL0     H 5257   6.797   4.161  11.134  1.2001 -1.9244 -0.3732
  780MOL0     H 5258   6.978   4.328  10.952  0.9667  1.1185  1.3150
  780MOL0     H 5259   6.985   4.329  11.127  0.6750 -1.4284 -0.4563
  780MOL0     H 5260   6.695   4.655  10.980 -0.3165 -0.9301  0.4353
  780MOL0     H 5261   6.798   4.874  10.927  0.8126  0.2720 -1.4417
  780MOL0     H 5262   7.281   5.096  10.773 -2.0932 -0.8904  0.0296
  780MOL0     H 5263   7.348   5.314  10.749  1.4427 -0.1918 -0.6166
  780MOL0     H 5264   7.595   5.412  10.900 -0.6648  0.1530  2.7838
  780MOL0     H 5265   7.498   5.467  10.778  0.4915 -3.7504  0.5200
  780MOL0     H 5266   7.543   5.703  10.820  0.7508  2.8621  2.3831
  780MOL0     H 5267   7.588   5.674  10.975  0.3623  0.8292 -0.6364
  780MOL0     H 5268   7.804   5.552  10.833  3.0444  1.6767  1.0577
  780MOL0     H 5269   7.739   5.655  10.714  1.0339  0.7955 -0.0606
  780MOL0     H 5270   7.853   5.749  10.967 -1.1658  4.0376  0.9750
  780MOL0     H 5271   7.749   5.850  10.868 -0.8034  0.4003 -0.0247
  780MOL0     H 5272   7.991   5.872  10.829 -2.1657 -0.1440  2.6224
  780MOL0     H 5273   7.913   5.830  10.676  2.7243  2.0795 -0.0713
  780MOL0     H 5274   8.073   5.656  10.874  0.4331 -0.2384  0.0943
  780MOL0     H 5275   7.984   5.578  10.744 -0.7567 -0.4709  0.1715
  780MOL0     H 5276   8.219   5.783  10.708  0.1225 -0.0468 -3.1854
  780MOL0     H 5277   8.102   5.724  10.582  0.7629 -2.3931 -0.6551
  780MOL0     H 5278   8.328   5.634  10.593  0.9935 -1.8514 -0.1986
  780MOL0     H 5279   8.285   5.582  10.758  1.1256  3.2776  0.7716
  780MOL0     H 5280   7.345   5.369  11.175  0.9578  1.2248 -2.5507
  780MOL0     H 5281   7.248   5.134  11.207 -4.0752  3.7727  0.8768
  780MOL0     H 5282   7.178   4.736  11.027 -0.8529  3.2238  0.8052
  780MOL0     H 5283   7.090   4.515  11.072 -1.5446 -1.1772  3.7111
  780MOL0     H 5284   5.337   3.892  10.473 -0.6248 -1.8254  1.0294
  780MOL0     H 5285   5.148   3.783  10.370 -1.2264 -2.1082 -1.8509
  780MOL0     H 5286   5.021   3.445  10.018  1.3367 -0.1120  2.1612
  780MOL0     H 5287   4.801   3.324   9.949 -1.1396 -1.5478  1.1088
  780MOL0     H 5288   4.442   3.490   9.847  1.1878  0.9329  0.5520
  780MOL0     H 5289   4.470   3.600   9.982  0.0119  1.2147 -0.4117
  780MOL0     H 5290   4.245   3.508  10.002  1.5741  2.2329  1.1274
  780MOL0     H 5291   4.337   3.493  10.143  1.3252  1.2593 -0.7827
  780MOL0     H 5292   4.218   3.267  10.100  0.0810 -1.9446  0.2004
  780MOL0     H 5293   4.391   3.266  10.121 -1.7437  1.1499  0.7257
  780MOL0     H 5294   4.401   3.187   9.886  2.1609 -0.9641  4.7020
  780MOL0     H 5295   4.260   3.110   9.965  0.5472  0.4335  1.5389
  780MOL0     H 5296   4.067   3.358   9.693 -0.2792 -2.8065 -0.7185
  780MOL0     H 5297   4.574   3.612  10.170  0.0276  2.4864  0.0080
  780MOL0     H 5298   4.862   3.776  10.313 -0.1664  1.8135 -1.0218
  780MOL0     H 5299   4.719   3.840  10.238 -0.3857  0.4528  0.2754
  780MOL0     H 5300   4.705   3.716  10.361  1.5101  0.7906  1.3260
  781MOL0     O 5301  10.011   4.667   0.686  0.6858 -0.1431  0.0626
  781MOL0     C 5302   9.980   4.602   0.785 -1.1607  0.2536  0.4098
  781MOL0     O 5303  10.052   4.608   0.903  0.1897  0.5909  0.2987
  781MOL0     C 5304  10.177   4.657   0.887  0.0637  0.5013 -0.3105
  781MOL0     C 5305  10.198   4.793   0.880 -0.9772 -0.1095  0.2667
  781MOL0     C 5306  10.325   4.853   0.867 -0.3707  0.0340 -0.0347
  781MOL0     C 5307  10.436   4.773   0.893 -1.3546  0.7071 -0.4918
  781MOL0     O 5308  10.556   4.833   0.896  0.0587 -0.6514 -0.8924
  781MOL0     C 5309  10.662   4.799   0.989  0.4121  0.3517  0.3385
  781MOL0     C 5310  10.805   4.841   0.949  0.2474 -0.1519  0.1185
  781MOL0     C 5311  10.903   4.777   1.052  0.1039 -0.2616 -0.7217
  781MOL0     C 5312  11.056   4.792   1.015 -0.0672 -0.9769  0.6227
  781MOL0     C 5313  11.096   4.936   1.014 -1.3054 -0.9493 -0.0367
  781MOL0     C 5314  11.239   4.968   0.985 -0.2134 -0.0160  0.0203
  781MOL0     C 5315  11.303   4.923   0.848 -0.0862 -0.5611 -0.1909
  781MOL0     C 5316  11.451   4.899   0.862  0.8549 -0.3438 -0.4288
  781MOL0     N 5317  11.510   4.836   0.743 -0.0196 -0.1176  0.0935
  781MOL0     C 5318  11.640   4.788   0.737  0.7292  0.4465  0.4562
  781MOL0     C 5319  11.649   4.710   0.628  1.1294 -0.8423 -0.1030
  781MOL0     C 5320  11.778   4.635   0.585 -0.1648  0.8875 -0.1416
  781MOL0     C 5321  11.781   4.496   0.659  0.8733 -0.4611  0.4147
  781MOL0     C 5322  11.682   4.400   0.599  0.5348  0.1007 -0.9020
  781MOL0     C 5323  11.677   4.266   0.673  0.2650  0.7485 -0.1328
  781MOL0     O 5324  11.791   4.239   0.752  0.5580 -0.0620 -0.1340
  781MOL0     C 5325  11.901   4.163   0.703 -0.2561 -0.7645 -0.1930
  781MOL0     C 5326  11.907   4.130   0.569  0.4814 -0.1112 -0.2912
  781MOL0     C 5327  12.022   4.054   0.539 -0.0008  0.0275  0.5698
  781MOL0     C 5328  12.130   4.013   0.627  0.3518  0.1909  0.4057
  781MOL0     C 5329  12.250   3.938   0.574 -0.1719 -1.0068  0.4584
  781MOL0     O 5330  12.249   3.909   0.438 -0.6309 -0.6918 -0.2000
  781MOL0     C 5331  12.313   3.808   0.389 -0.9647  0.8577  0.5604
  781MOL0     C 5332  12.355   3.841   0.253  0.3156 -0.5095 -0.3162
  781MOL0     C 5333  12.411   3.743   0.173  0.1298  0.1955 -0.2533
  781MOL0     C 5334  12.436   3.614   0.224 -0.6159 -0.4373  0.2018
  781MOL0     O 5335  12.467   3.507   0.152  0.0275  0.6112  0.1347
  781MOL0     C 5336  12.533   3.534   0.031  0.3821  0.7718 -0.2406
  781MOL0     C 5337  12.668   3.612   0.061 -0.0434  0.4942 -0.6990
  781MOL0     C 5338  12.765   3.611  -0.055  0.3179  0.3647 -0.9107
  781MOL0     C 5339  12.880   3.702  -0.029 -0.0344  0.0415  0.2180
  781MOL0     C 5340  12.999   3.671  -0.118 -0.0099  0.1166  0.0659
  781MOL0     C 5341  12.959   3.719  -0.261 -0.2490  0.6814 -0.0298
  781MOL0     C 5342  13.087   3.705  -0.352 -0.1245  0.7237  0.5727
  781MOL0     C 5343  13.084   3.756  -0.497  0.1268  0.4651 -0.3186
  781MOL0    Cl 5344  13.231   3.721  -0.585 -0.0884  0.3311  0.1497
  781MOL0     C 5345  12.407   3.584   0.359  0.4964 -0.0751  0.7939
  781MOL0     C 5346  12.350   3.681   0.443 -0.5796  0.2374  0.6270
  781MOL0     O 5347  12.331   3.890   0.653 -0.7878 -0.1645 -0.2231
  781MOL0     C 5348  12.119   4.057   0.757  0.0999 -0.0692  0.4442
  781MOL0     C 5349  12.005   4.137   0.793  0.0823  0.5567  0.8538
  781MOL0     N 5350  11.524   4.711   0.564  0.1588 -0.0390 -0.3102
  781MOL0     N 5351  11.449   4.791   0.633 -0.0731  0.8942  0.0486
  781MOL0     C 5352  10.413   4.633   0.906  0.3383 -0.2199 -0.2099
  781MOL0     C 5353  10.284   4.573   0.905  0.5224 -0.0529 -0.2414
  781MOL0     C 5354   9.868   4.512   0.778 -0.6143  0.1801  1.3240
  781MOL0     C 5355   9.798   4.506   0.656 -0.1421 -0.7625 -0.2083
  781MOL0     C 5356   9.673   4.437   0.642  0.1357 -0.0125 -0.0781
  781MOL0     C 5357   9.631   4.358   0.746  0.1912 -0.2472 -0.0409
  781MOL0     O 5358   9.513   4.285   0.735  0.4171 -0.4893  0.4497
  781MOL0     C 5359   9.465   4.189   0.835  0.3698 -1.0044  0.4571
  781MOL0     C 5360   9.341   4.145   0.765 -0.3409  0.2358  0.2805
  781MOL0     C 5361   9.235   4.257   0.751  0.7955 -0.0093  0.7289
  781MOL0     C 5362   9.102   4.188   0.706 -0.2776  0.5534  0.1080
  781MOL0     C 5363   8.979   4.253   0.762 -0.3116 -0.5435  0.1911
  781MOL0     C 5364   8.870   4.296   0.798  0.2101 -1.1639  0.6420
  781MOL0     C 5365   9.718   4.333   0.857 -0.5945 -0.0252  0.2850
  781MOL0     C 5366   9.831   4.420   0.873 -0.8418 -0.1264 -1.1061
  781MOL0     C 5367   9.916   4.394   0.994 -0.3486 -0.3252  0.7439
  781MOL0     H 5368  10.103   4.844   0.888 -2.0771 -1.8507 -1.1384
  781MOL0     H 5369  10.340   4.960   0.854 -2.0760  0.0963 -1.9574
  781MOL0     H 5370  10.646   4.850   1.084 -0.6444  2.0560 -0.7203
  781MOL0     H 5371  10.655   4.691   1.006 -1.6904  0.3115 -0.5251
  781MOL0     H 5372  10.822   4.949   0.960 -0.1504 -0.1066  0.3187
  781MOL0     H 5373  10.815   4.804   0.846  2.1610 -1.1030  0.6015
  781MOL0     H 5374  10.880   4.672   1.073  3.3109 -0.8922  0.2210
  781MOL0     H 5375  10.877   4.834   1.141 -1.5075  0.5425 -1.6570
  781MOL0     H 5376  11.115   4.728   1.081 -1.4513 -4.8709 -1.5691
  781MOL0     H 5377  11.085   4.753   0.916 -1.1946  1.3236 -0.7032
  781MOL0     H 5378  11.051   4.991   0.931 -1.9157 -0.4163  0.6315
  781MOL0     H 5379  11.064   4.980   1.109 -0.3502 -0.5775  0.1239
  781MOL0     H 5380  11.254   5.076   0.993  1.0133 -0.2566  1.2427
  781MOL0     H 5381  11.294   4.919   1.065 -0.5406 -2.0771 -0.9504
  781MOL0     H 5382  11.283   4.999   0.771  2.0719 -1.4883 -1.7731
  781MOL0     H 5383  11.251   4.833   0.813 -3.6781  0.1189  2.7180
  781MOL0     H 5384  11.504   4.990   0.890 -0.6026  0.5491 -0.4965
  781MOL0     H 5385  11.469   4.825   0.941  5.3951  2.5272  1.6089
  781MOL0     H 5386  11.719   4.808   0.809 -1.3129 -0.4814  3.1483
  781MOL0     H 5387  11.774   4.615   0.478  0.8016 -3.2074  0.4282
  781MOL0     H 5388  11.869   4.696   0.594  1.6482 -1.7123  0.4600
  781MOL0     H 5389  11.882   4.455   0.651  0.2308 -1.8194 -1.5132
  781MOL0     H 5390  11.752   4.505   0.764  1.2521 -2.0240  0.6820
  781MOL0     H 5391  11.700   4.385   0.492 -1.7644  2.1979 -1.6906
  781MOL0     H 5392  11.585   4.448   0.614  1.4824  2.1306 -0.9467
  781MOL0     H 5393  11.638   4.185   0.611 -1.3454  1.1410  0.3090
  781MOL0     H 5394  11.597   4.288   0.745 -0.4824  0.3629 -0.8275
  781MOL0     H 5395  11.828   4.156   0.500 -1.4187  0.7432  2.0730
  781MOL0     H 5396  12.011   4.022   0.437 -1.2730 -0.6165  0.8893
  781MOL0     H 5397  12.334   3.942   0.217 -0.3486 -0.9885 -1.3415
  781MOL0     H 5398  12.425   3.771   0.069  4.2028  0.4986  0.2029
  781MOL0     H 5399  12.570   3.437  -0.002  0.8858  0.0443  2.2839
  781MOL0     H 5400  12.474   3.577  -0.051  0.4414 -0.1357 -0.7675
  781MOL0     H 5401  12.640   3.718   0.071 -3.1919 -0.3850  1.0557
  781MOL0     H 5402  12.716   3.594   0.157 -0.8903  1.6342 -0.0342
  781MOL0     H 5403  12.800   3.507  -0.062  3.0614  1.2478 -1.5726
  781MOL0     H 5404  12.710   3.647  -0.142 -1.2415 -0.8126 -0.4532
  781MOL0     H 5405  12.913   3.705   0.075  0.5939  2.3168  0.0090
  781MOL0     H 5406  12.839   3.803  -0.041 -0.9468 -0.4169 -0.7669
  781MOL0     H 5407  13.031   3.566  -0.114  1.3296  0.4706 -0.5700
  781MOL0     H 5408  13.078   3.734  -0.076  1.2421 -1.1678 -0.2567
  781MOL0     H 5409  12.885   3.649  -0.302  0.3964 -0.3066  0.4392
  781MOL0     H 5410  12.919   3.821  -0.267 -2.4013 -0.1169 -0.3091
  781MOL0     H 5411  13.115   3.601  -0.372 -1.0378  0.6623 -0.4932
  781MOL0     H 5412  13.173   3.747  -0.300  0.6169  0.5398 -0.4835
  781MOL0     H 5413  13.002   3.705  -0.550 -0.4093  0.2636  0.6814
  781MOL0     H 5414  13.052   3.860  -0.489 -0.7354  0.6247 -4.0222
  781MOL0     H 5415  12.424   3.482   0.390 -1.9568 -1.4458 -1.8917
  781MOL0     H 5416  12.322   3.664   0.547 -4.6913 -0.4769 -0.4507
  781MOL0     H 5417  12.200   4.015   0.815 -1.7807 -0.7074  2.7732
  781MOL0     H 5418  11.993   4.167   0.897  1.5978  0.4496  1.0806
  781MOL0     H 5419  10.502   4.572   0.900  0.3456 -0.0569 -2.1622
  781MOL0     H 5420  10.259   4.469   0.926 -1.2122  0.6276  1.4005
  781MOL0     H 5421   9.832   4.563   0.571  1.2158  0.5650  1.1640
  781MOL0     H 5422   9.612   4.452   0.553 -4.5528 -3.6417  2.1391
  781MOL0     H 5423   9.444   4.244   0.927 -2.0514 -2.2469  0.7279
  781MOL0     H 5424   9.535   4.105   0.845  1.0347 -0.5018  0.1159
  781MOL0     H 5425   9.301   4.059   0.820 -1.2064  0.5565  0.1688
  781MOL0     H 5426   9.373   4.112   0.666  2.3561  0.9998  0.8279
  781MOL0     H 5427   9.274   4.338   0.689 -2.2930  1.1591  0.1405
  781MOL0     H 5428   9.205   4.298   0.848 -0.3573  1.2118 -0.1040
  781MOL0     H 5429   9.103   4.198   0.597  1.2198 -1.2440 -0.0890
  781MOL0     H 5430   9.093   4.081   0.725 -0.6294  0.7656  1.1921
  781MOL0     H 5431   8.781   4.344   0.833 -2.4237 -2.3605 -3.6887
  781MOL0     H 5432   9.689   4.264   0.935  3.8743 -0.9036  1.3999
  781MOL0     H 5433   9.924   4.477   1.064  0.0499 -1.0077  1.5138
  781MOL0     H 5434   9.884   4.309   1.055 -2.7313 -2.8910 -3.5271
  781MOL0     H 5435  10.020   4.380   0.963 -0.8101  0.8919 -1.6431
  782MOL0     O 5436   4.606   1.839   2.718  0.0807  0.3403  0.1413
  782MOL0     C 5437   4.635   1.927   2.792  0.4101 -0.4744  0.3457
  782MOL0     O 5438   4.572   2.050   2.804  0.7169  0.3661 -0.5339
  782MOL0     C 5439   4.468   2.082   2.717 -0.4958  0.2554  0.1971
  782MOL0     C 5440   4.336   2.053   2.763  0.2189 -0.0085  0.4555
  782MOL0     C 5441   4.229   2.111   2.692 -0.6518  0.4294 -0.2505
  782MOL0     C 5442   4.251   2.192   2.586 -0.2971 -0.5564 -0.2077
  782MOL0     O 5443   4.150   2.252   2.529 -0.0130 -1.3114  0.2202
  782MOL0     C 5444   4.136   2.207   2.393 -0.4397  1.0734 -0.6571
  782MOL0     C 5445   4.003   2.219   2.335 -0.5799  0.8791 -0.3353
  782MOL0     C 5446   3.893   2.155   2.419  0.8669 -0.0264  0.3891
  782MOL0     C 5447   3.769   2.148   2.338 -0.6520 -0.6466  0.5025
  782MOL0     C 5448   3.655   2.082   2.408  0.1812 -0.0952  0.7580
  782MOL0     C 5449   3.534   2.111   2.322  0.6344 -0.1910 -1.4690
  782MOL0     C 5450   3.430   2.004   2.364 -0.2975  0.0724 -0.2002
  782MOL0     C 5451   3.302   2.013   2.284 -0.4553 -1.0485 -0.3447
  782MOL0     N 5452   3.183   1.932   2.320  0.2264  0.3416 -0.3276
  782MOL0     C 5453   3.185   1.845   2.428  0.3070  0.2792 -0.5406
  782MOL0     C 5454   3.048   1.808   2.440 -0.6644 -0.3476 -0.1026
  782MOL0     C 5455   2.988   1.739   2.561  0.7610  1.3210 -0.6463
  782MOL0     C 5456   2.993   1.586   2.553 -0.1703  0.5197  0.1528
  782MOL0     C 5457   3.141   1.541   2.534  0.0965  0.2042  0.0873
  782MOL0     C 5458   3.167   1.393   2.584 -0.2192 -0.7379  0.6693
  782MOL0     O 5459   3.300   1.360   2.550  0.1824  0.4070 -0.3731
  782MOL0     C 5460   3.392   1.376   2.644  0.3496  0.4670  0.2599
  782MOL0     C 5461   3.491   1.478   2.624 -0.0223 -0.7005  0.3567
  782MOL0     C 5462   3.587   1.490   2.724 -0.0542 -0.0994 -0.9940
  782MOL0     C 5463   3.594   1.395   2.823  0.1932 -0.1810  0.1980
  782MOL0     C 5464   3.690   1.418   2.930  0.7326  0.8647  0.0375
  782MOL0     O 5465   3.675   1.337   3.046 -0.3670  0.0991 -0.1169
  782MOL0     C 5466   3.755   1.371   3.152  0.0850  1.5819  0.1251
  782MOL0     C 5467   3.816   1.271   3.228  0.0867  0.2612 -0.3104
  782MOL0     C 5468   3.908   1.296   3.324  0.0285 -0.4935  0.4407
  782MOL0     C 5469   3.930   1.432   3.369 -0.0184  0.9941 -0.0037
  782MOL0     O 5470   4.007   1.468   3.483 -0.0129  0.8802  0.6664
  782MOL0     C 5471   4.054   1.357   3.559  0.1034 -1.0745 -0.4214
  782MOL0     C 5472   4.139   1.404   3.681  0.8599  0.2223 -0.3442
  782MOL0     C 5473   4.176   1.286   3.780  0.0676 -0.1373  0.4900
  782MOL0     C 5474   4.263   1.339   3.886 -1.2549  0.1726  0.1726
  782MOL0     C 5475   4.269   1.246   4.017 -0.2491  0.0843 -0.1271
  782MOL0     C 5476   4.365   1.303   4.134  0.0463  0.0155 -0.1379
  782MOL0     C 5477   4.413   1.190   4.224 -0.2590 -0.2413  0.3655
  782MOL0     C 5478   4.469   1.251   4.350  0.7448 -0.5683  0.0799
  782MOL0    Cl 5479   4.554   1.120   4.438 -0.0209  0.4136 -0.2587
  782MOL0     C 5480   3.856   1.532   3.308 -0.2324 -0.0316  0.4190
  782MOL0     C 5481   3.777   1.498   3.195  1.0233  0.6622  0.3747
  782MOL0     O 5482   3.781   1.499   2.908 -0.8784 -0.1436  0.1731
  782MOL0     C 5483   3.500   1.289   2.841  0.2924 -0.7662  0.5404
  782MOL0     C 5484   3.403   1.278   2.741 -0.3547 -0.1797 -0.1259
  782MOL0     N 5485   2.981   1.894   2.353  0.2179  0.1710  0.5398
  782MOL0     N 5486   3.059   1.957   2.276  0.0313 -0.6942  0.0659
  782MOL0     C 5487   4.381   2.217   2.535 -0.8972  0.2655 -0.8712
  782MOL0     C 5488   4.490   2.167   2.608  0.4434 -0.0862 -0.0040
  782MOL0     C 5489   4.735   1.889   2.893 -0.6276  0.2165  1.0868
  782MOL0     C 5490   4.706   1.931   3.020 -0.6649  0.4678 -0.5278
  782MOL0     C 5491   4.805   1.904   3.124  0.3935 -0.0891 -0.5290
  782MOL0     C 5492   4.920   1.824   3.105 -0.0429  0.7330 -1.2145
  782MOL0     O 5493   5.012   1.810   3.213  0.1984 -0.3862  0.0240
  782MOL0     C 5494   5.127   1.715   3.204  0.1534  0.0725  0.8231
  782MOL0     C 5495   5.252   1.797   3.145 -0.6106 -0.0717  0.3856
  782MOL0     C 5496   5.264   1.937   3.213  0.4397  0.5760  0.1046
  782MOL0     C 5497   5.394   2.000   3.170  0.0169  0.3422 -0.1946
  782MOL0     C 5498   5.383   2.132   3.227 -0.8938  0.7609 -0.1165
  782MOL0     C 5499   5.371   2.238   3.289 -0.1553  0.1135 -0.1322
  782MOL0     C 5500   4.941   1.781   2.975 -0.6524  0.6786 -0.2902
  782MOL0     C 5501   4.856   1.814   2.869 -0.3998 -0.0261  0.0575
  782MOL0     C 5502   4.890   1.766   2.728 -0.0343  0.0057 -0.0751
  782MOL0     H 5503   4.322   1.991   2.851 -0.7157 -0.6378 -0.1143
  782MOL0     H 5504   4.128   2.082   2.717 -0.0116 -1.2919  0.5397
  782MOL0     H 5505   4.197   2.267   2.325 -1.3857  1.7414 -0.9293
  782MOL0     H 5506   4.163   2.103   2.371 -1.5855  0.2645  1.4344
  782MOL0     H 5507   4.005   2.153   2.248 -2.0094 -3.4735  2.6065
  782MOL0     H 5508   3.995   2.325   2.310  2.0384  0.7347 -2.2081
  782MOL0     H 5509   3.881   2.211   2.512  0.3413  1.6622 -0.6555
  782MOL0     H 5510   3.918   2.051   2.444  2.7678  0.0967 -0.8655
  782MOL0     H 5511   3.744   2.251   2.311  3.1484 -0.0648 -1.5207
  782MOL0     H 5512   3.785   2.096   2.243  1.4967  0.8315 -0.0100
  782MOL0     H 5513   3.686   1.978   2.421  2.8876  0.6478  0.8736
  782MOL0     H 5514   3.653   2.121   2.510 -1.5037 -0.7935  1.0134
  782MOL0     H 5515   3.504   2.215   2.337 -1.4058 -0.9961  0.4981
  782MOL0     H 5516   3.566   2.106   2.217  3.8976  3.3752 -0.8685
  782MOL0     H 5517   3.415   2.008   2.472  0.9854 -0.5000  0.0204
  782MOL0     H 5518   3.464   1.902   2.345 -2.8798 -1.1265  1.1097
  782MOL0     H 5519   3.259   2.113   2.291  0.6100 -0.5287 -1.1118
  782MOL0     H 5520   3.321   1.996   2.178  1.2266 -0.8840 -0.0901
  782MOL0     H 5521   3.266   1.810   2.491  1.9255 -1.5097 -3.4135
  782MOL0     H 5522   3.036   1.772   2.654  1.8165  2.2338 -1.4755
  782MOL0     H 5523   2.881   1.755   2.572  0.3022 -0.7071 -1.6572
  782MOL0     H 5524   2.956   1.553   2.651 -1.0060  3.6500  0.9848
  782MOL0     H 5525   2.942   1.541   2.467 -0.5882  0.8212  0.2403
  782MOL0     H 5526   3.205   1.614   2.585 -0.0407 -0.1243  0.7467
  782MOL0     H 5527   3.172   1.544   2.429 -0.3515  0.2083 -0.0462
  782MOL0     H 5528   3.102   1.334   2.519  1.6505 -0.8165 -1.2645
  782MOL0     H 5529   3.140   1.387   2.690 -0.3076 -1.5126  0.6042
  782MOL0     H 5530   3.480   1.547   2.541  0.5343 -1.4085 -0.3108
  782MOL0     H 5531   3.668   1.562   2.715 -0.5406  0.5143 -0.4994
  782MOL0     H 5532   3.792   1.169   3.199  0.7791  0.1810 -0.6296
  782MOL0     H 5533   3.951   1.209   3.374 -0.8292 -0.5858  1.0350
  782MOL0     H 5534   3.962   1.311   3.598  0.1406 -0.7110  0.1135
  782MOL0     H 5535   4.111   1.290   3.495  0.3307  2.3759 -4.2137
  782MOL0     H 5536   4.233   1.456   3.659  2.2092 -1.8425  0.2375
  782MOL0     H 5537   4.078   1.483   3.726  3.8053  0.4841  3.7562
  782MOL0     H 5538   4.084   1.232   3.806 -0.2363 -2.1190 -3.8988
  782MOL0     H 5539   4.234   1.213   3.725 -0.4782 -1.0111  1.0481
  782MOL0     H 5540   4.235   1.444   3.901 -0.4437  0.3587  0.4538
  782MOL0     H 5541   4.365   1.339   3.848 -1.3862 -0.7755 -0.2003
  782MOL0     H 5542   4.291   1.145   3.982 -1.8790 -1.1310  2.0953
  782MOL0     H 5543   4.166   1.238   4.053 -0.7520  3.8605 -0.3273
  782MOL0     H 5544   4.452   1.352   4.089 -0.8673 -0.7638 -2.9747
  782MOL0     H 5545   4.310   1.377   4.192 -0.2524  0.5696 -1.0923
  782MOL0     H 5546   4.484   1.128   4.169 -2.8945 -3.7749  0.6511
  782MOL0     H 5547   4.328   1.131   4.259  2.0389 -3.0133  1.6695
  782MOL0     H 5548   4.552   1.316   4.325  2.9403 -3.5013 -0.8197
  782MOL0     H 5549   4.387   1.298   4.406  2.3093 -0.2791  2.2301
  782MOL0     H 5550   3.859   1.630   3.353 -1.1230 -0.5130  1.5911
  782MOL0     H 5551   3.719   1.573   3.142  0.3049  1.5246  2.2775
  782MOL0     H 5552   3.521   1.214   2.916  0.1591 -0.2266  1.1235
  782MOL0     H 5553   3.340   1.190   2.735  2.2402 -2.0637 -1.9080
  782MOL0     H 5554   4.416   2.294   2.466  1.5095  0.4119  0.4017
  782MOL0     H 5555   4.592   2.188   2.577  1.0021  0.9795  2.2906
  782MOL0     H 5556   4.626   1.999   3.044  0.4168  1.3826  0.6545
  782MOL0     H 5557   4.779   1.941   3.223 -2.0912 -3.8205  0.4299
  782MOL0     H 5558   5.117   1.620   3.150  1.6360 -0.1315  0.8512
  782MOL0     H 5559   5.151   1.686   3.307  0.3796 -3.1622 -0.0238
  782MOL0     H 5560   5.238   1.821   3.040 -0.0385  0.4405  0.4206
  782MOL0     H 5561   5.344   1.743   3.171 -1.4932 -1.7544  0.1944
  782MOL0     H 5562   5.267   1.925   3.322 -0.1443 -2.7362 -0.1396
  782MOL0     H 5563   5.186   2.007   3.181  0.4186 -0.5344 -2.4896
  782MOL0     H 5564   5.489   1.949   3.184  0.6979  1.4710 -0.5093
  782MOL0     H 5565   5.384   2.021   3.063 -4.1394  3.7906  0.5603
  782MOL0     H 5566   5.355   2.329   3.343  3.5184  1.4466 -1.0626
  782MOL0     H 5567   5.032   1.728   2.948 -2.1767 -1.3598 -1.7606
  782MOL0     H 5568   4.812   1.694   2.703  0.8191 -0.2200 -2.2801
  782MOL0     H 5569   4.910   1.851   2.662 -1.7198 -0.5162 -1.3297
  782MOL0     H 5570   4.979   1.701   2.727  1.1528  1.5016  1.4078
  783MOL0     O 5571   2.368   3.260   0.159 -1.0594 -0.1814  0.8203
  783MOL0     C 5572   2.341   3.326   0.258 -0.1626  0.3802 -0.4399
  783MOL0     O 5573   2.347   3.464   0.269 -0.2721  0.8352  0.5502
  783MOL0     C 5574   2.436   3.516   0.360  0.2127  0.6472  0.8152
  783MOL0     C 5575   2.530   3.442   0.429 -0.2160 -0.3427 -0.0628
  783MOL0     C 5576   2.617   3.504   0.526  0.3644 -0.6815 -0.2878
  783MOL0     C 5577   2.601   3.646   0.540 -0.5789 -0.1462 -0.2857
  783MOL0     O 5578   2.666   3.720   0.636 -0.7897  0.1252  0.2753
  783MOL0     C 5579   2.731   3.652   0.750  0.3275 -0.0315 -0.2619
  783MOL0     C 5580   2.878   3.657   0.746 -0.2974  0.3396 -0.5835
  783MOL0     C 5581   2.943   3.606   0.875  0.0773 -0.4554 -0.0995
  783MOL0     C 5582   3.057   3.701   0.932 -0.8009  0.1096  0.4807
  783MOL0     C 5583   3.127   3.648   1.063 -0.0354 -1.2899  1.4111
  783MOL0     C 5584   3.237   3.543   1.038  0.9343  1.1022  0.1496
  783MOL0     C 5585   3.300   3.486   1.167 -0.0049  0.4581  0.2851
  783MOL0     C 5586   3.202   3.411   1.260  0.1331 -0.3806 -0.5247
  783MOL0     N 5587   3.274   3.344   1.363  0.5126 -0.1533  0.0002
  783MOL0     C 5588   3.344   3.401   1.460 -1.2545  0.4902  0.3941
  783MOL0     C 5589   3.376   3.305   1.555 -0.0271 -0.9539  0.1689
  783MOL0     C 5590   3.452   3.316   1.685 -0.0489  0.1664 -0.3256
  783MOL0     C 5591   3.599   3.328   1.672  0.2421 -0.1649  0.1812
  783MOL0     C 5592   3.657   3.210   1.608 -1.2112  0.7302 -0.1296
  783MOL0     C 5593   3.808   3.226   1.592 -0.5344 -0.1862  0.0772
  783MOL0     O 5594   3.881   3.219   1.718  0.6342  0.3241  0.5244
  783MOL0     C 5595   4.020   3.229   1.714  0.4336  0.1292  0.0481
  783MOL0     C 5596   4.083   3.164   1.827  0.4114 -0.7573  0.2679
  783MOL0     C 5597   4.215   3.170   1.839 -0.1897 -0.0663  0.1820
  783MOL0     C 5598   4.292   3.219   1.732 -1.0796 -0.1378  0.0205
  783MOL0     C 5599   4.442   3.212   1.748 -0.4543 -0.2414  1.1079
  783MOL0     O 5600   4.487   3.150   1.854 -0.2523 -0.3397 -0.3235
  783MOL0     C 5601   4.622   3.141   1.883 -0.6375 -0.1761 -0.0956
  783MOL0     C 5602   4.651   3.121   2.019  0.1476 -0.5806  0.0713
  783MOL0     C 5603   4.784   3.133   2.073  0.3227 -0.1644 -0.2809
  783MOL0     C 5604   4.893   3.145   1.986 -1.1726  0.0007 -0.4585
  783MOL0     O 5605   5.023   3.154   2.030  0.5011  0.4700  0.1598
  783MOL0     C 5606   5.048   3.086   2.152 -0.2248  0.0911 -0.3380
  783MOL0     C 5607   5.196   3.059   2.160  0.0282 -0.4940 -1.2495
  783MOL0     C 5608   5.237   3.018   2.304  0.2967  0.3767  0.3461
  783MOL0     C 5609   5.388   3.019   2.305  0.4319 -0.2698  0.4267
  783MOL0     C 5610   5.417   3.004   2.458  0.6718  1.8903 -0.3780
  783MOL0     C 5611   5.566   3.006   2.486 -0.6865  0.5147 -0.6181
  783MOL0     C 5612   5.603   3.020   2.640 -0.4481 -0.1397 -0.5809
  783MOL0     C 5613   5.701   3.132   2.663 -0.3993  0.1885 -0.7037
  783MOL0    Cl 5614   5.856   3.096   2.587 -0.5271  0.0714 -0.5000
  783MOL0     C 5615   4.865   3.148   1.847  0.1889  0.0596 -0.1387
  783MOL0     C 5616   4.729   3.152   1.796  1.2148 -0.4104  0.1903
  783MOL0     O 5617   4.517   3.265   1.663  0.0776  1.1971  0.4155
  783MOL0     C 5618   4.237   3.280   1.620 -0.2834  0.1486 -0.1129
  783MOL0     C 5619   4.099   3.278   1.611 -0.4494 -0.0373  0.0491
  783MOL0     N 5620   3.318   3.195   1.494 -0.5857  0.2470 -1.0828
  783MOL0     N 5621   3.250   3.215   1.387  0.0029  1.0431  0.8904
  783MOL0     C 5622   2.503   3.707   0.465 -0.1723  0.4930 -0.2575
  783MOL0     C 5623   2.421   3.650   0.373 -0.0035 -0.2423 -1.1779
  783MOL0     C 5624   2.286   3.243   0.372 -0.2922  1.1430 -1.1398
  783MOL0     C 5625   2.207   3.311   0.469 -0.1009 -0.0107 -0.0958
  783MOL0     C 5626   2.130   3.244   0.565  0.5986 -0.3193 -0.0228
  783MOL0     C 5627   2.133   3.105   0.568 -0.3624  0.4405 -0.2371
  783MOL0     O 5628   2.030   3.053   0.646  0.3619  0.0994 -0.4470
  783MOL0     C 5629   2.057   2.932   0.719  0.8582 -0.6801 -0.1585
  783MOL0     C 5630   2.079   2.966   0.865  0.8116  0.2065 -0.5073
  783MOL0     C 5631   1.965   3.040   0.938  0.2459 -0.4435  0.7356
  783MOL0     C 5632   2.008   3.105   1.072 -0.2905 -0.6728  0.2934
  783MOL0     C 5633   1.881   3.141   1.145 -0.6353  0.2259  0.5429
  783MOL0     C 5634   1.773   3.172   1.189 -0.3318  0.1293  0.5196
  783MOL0     C 5635   2.211   3.034   0.478  0.0550  0.4103 -0.0574
  783MOL0     C 5636   2.291   3.100   0.388 -0.2415  1.1576  0.2291
  783MOL0     C 5637   2.399   3.026   0.315  0.4223 -0.2992 -0.6694
  783MOL0     H 5638   2.557   3.339   0.408  2.1967  0.5568 -1.9161
  783MOL0     H 5639   2.683   3.447   0.590  1.7822  1.8015  0.6322
  783MOL0     H 5640   2.702   3.710   0.838 -2.0537  0.8170 -1.5287
  783MOL0     H 5641   2.701   3.549   0.773  3.6589 -1.0955 -0.1362
  783MOL0     H 5642   2.905   3.761   0.726 -1.4498  1.5204  3.0813
  783MOL0     H 5643   2.911   3.605   0.656  1.8894  1.4768 -0.4922
  783MOL0     H 5644   2.979   3.505   0.853  0.8451 -0.0702 -0.6633
  783MOL0     H 5645   2.870   3.582   0.953  0.0608 -1.7776 -0.4949
  783MOL0     H 5646   3.137   3.704   0.858  0.1614 -1.8303  1.3834
  783MOL0     H 5647   3.013   3.800   0.949 -0.4851 -0.0998  2.8509
  783MOL0     H 5648   3.163   3.741   1.108 -1.9395 -1.3216  3.1283
  783MOL0     H 5649   3.061   3.611   1.142 -0.7238  0.3563  1.6644
  783MOL0     H 5650   3.177   3.462   0.995  2.5062 -1.1365  1.9182
  783MOL0     H 5651   3.312   3.564   0.961  0.0971 -2.2933 -1.8018
  783MOL0     H 5652   3.355   3.563   1.221  2.3960 -0.1846 -1.1082
  783MOL0     H 5653   3.375   3.411   1.140 -2.0854 -2.5809  2.2832
  783MOL0     H 5654   3.142   3.493   1.301 -0.7815  0.2636 -2.9710
  783MOL0     H 5655   3.141   3.344   1.199 -0.7412  1.0412 -1.2832
  783MOL0     H 5656   3.363   3.507   1.476  1.4573  0.5389 -2.1632
  783MOL0     H 5657   3.429   3.412   1.732  3.1175  0.0922  1.6290
  783MOL0     H 5658   3.414   3.236   1.750 -1.8097  1.3246  0.1490
  783MOL0     H 5659   3.623   3.411   1.605  0.0428  0.4612  0.8561
  783MOL0     H 5660   3.644   3.336   1.772  1.4506 -1.4755 -0.2348
  783MOL0     H 5661   3.627   3.201   1.503  3.2955  2.3384 -1.8112
  783MOL0     H 5662   3.654   3.114   1.660  1.4362 -0.7845 -2.4931
  783MOL0     H 5663   3.827   3.330   1.562 -0.7317  0.3577  1.7687
  783MOL0     H 5664   3.840   3.151   1.519  3.2229  1.4265 -0.1825
  783MOL0     H 5665   4.024   3.104   1.896  2.2581  0.9123  3.5569
  783MOL0     H 5666   4.259   3.108   1.916 -1.3841 -0.6043  0.4505
  783MOL0     H 5667   4.572   3.098   2.089  0.0327  0.1409  0.1870
  783MOL0     H 5668   4.806   3.138   2.179 -0.6026  2.4900 -0.1427
  783MOL0     H 5669   5.028   3.154   2.235  2.5018 -2.2243  2.4727
  783MOL0     H 5670   4.989   2.996   2.174 -0.6600  0.2003 -1.0206
  783MOL0     H 5671   5.222   2.986   2.083 -2.7983  0.0339 -2.8639
  783MOL0     H 5672   5.257   3.145   2.130 -0.6022  1.0692  1.5495
  783MOL0     H 5673   5.200   3.089   2.379  0.1595 -1.1237  1.7541
  783MOL0     H 5674   5.208   2.915   2.325  2.5684 -0.1854  0.9487
  783MOL0     H 5675   5.427   3.110   2.258  1.2808 -0.8773 -0.0587
  783MOL0     H 5676   5.426   2.941   2.239  0.1490  1.3750 -1.7960
  783MOL0     H 5677   5.389   2.904   2.491  0.9934  1.3583 -1.6752
  783MOL0     H 5678   5.376   3.084   2.521  3.1923  2.8090  0.2216
  783MOL0     H 5679   5.613   2.923   2.433 -2.8354  0.3516 -2.4205
  783MOL0     H 5680   5.613   3.089   2.433 -0.9868  0.4296 -1.0190
  783MOL0     H 5681   5.648   2.927   2.675  0.7392  0.0722 -1.4600
  783MOL0     H 5682   5.509   3.033   2.694  0.0002  0.1990  0.1361
  783MOL0     H 5683   5.656   3.227   2.633 -0.4493  1.5557  3.1791
  783MOL0     H 5684   5.717   3.159   2.768 -2.4132  1.8872 -0.7716
  783MOL0     H 5685   4.937   3.159   1.767  0.9104 -2.1250  0.1467
  783MOL0     H 5686   4.715   3.158   1.689  1.8389 -1.8639  0.0008
  783MOL0     H 5687   4.299   3.303   1.533  1.8903 -0.7143  1.1114
  783MOL0     H 5688   4.057   3.314   1.518  1.8329  1.2204 -0.5547
  783MOL0     H 5689   2.488   3.814   0.479 -1.4663  0.3873 -0.7216
  783MOL0     H 5690   2.344   3.699   0.314  2.0047  2.9641 -1.3712
  783MOL0     H 5691   2.196   3.419   0.473 -0.6285 -0.1013  1.5473
  783MOL0     H 5692   2.071   3.306   0.632  1.4862  0.8928 -0.3083
  783MOL0     H 5693   2.159   2.904   0.693  1.0189  0.9404 -1.4189
  783MOL0     H 5694   1.981   2.853   0.709 -1.4061  1.5994 -2.9222
  783MOL0     H 5695   2.176   3.010   0.890  1.7496 -1.9456 -0.1340
  783MOL0     H 5696   2.078   2.867   0.911 -0.1942 -0.3581 -1.7059
  783MOL0     H 5697   1.888   2.964   0.954 -0.8489 -0.3417 -3.0028
  783MOL0     H 5698   1.921   3.119   0.876  1.3307 -1.4754 -1.4546
  783MOL0     H 5699   2.049   3.041   1.151 -2.0666 -1.5211  0.5797
  783MOL0     H 5700   2.074   3.191   1.059  1.7846 -2.2033  0.2147
  783MOL0     H 5701   1.680   3.203   1.232 -0.0624 -0.7017  1.7421
  783MOL0     H 5702   2.214   2.926   0.490  0.4874  0.5116  0.8607
  783MOL0     H 5703   2.440   2.940   0.369 -0.4005 -0.1010  0.2963
  783MOL0     H 5704   2.360   2.995   0.218  0.2669 -2.7145  0.1104
  783MOL0     H 5705   2.485   3.094   0.309  0.3200 -0.1786 -0.7699
  784MOL0     O 5706   0.172   2.098   2.132  0.5112  0.3133 -0.0725
  784MOL0     C 5707   0.111   2.203   2.098 -0.7368 -0.2046 -0.9287
  784MOL0     O 5708   0.090   2.251   1.977  0.2167 -0.1550  0.0098
  784MOL0     C 5709   0.169   2.204   1.881  0.3010 -0.7085 -0.1588
  784MOL0     C 5710   0.160   2.071   1.833 -0.0319  0.4180 -0.1174
  784MOL0     C 5711   0.256   2.031   1.742  0.5467  0.8888  0.1083
  784MOL0     C 5712   0.344   2.116   1.682  0.0602 -0.1656  0.9847
  784MOL0     O 5713   0.429   2.059   1.581 -0.4980 -0.5152 -0.1146
  784MOL0     C 5714   0.526   2.137   1.521 -0.3592  0.1447 -0.0207
  784MOL0     C 5715   0.604   2.065   1.408 -0.3536  0.5136  0.6746
  784MOL0     C 5716   0.755   2.063   1.421  0.2696  0.6461 -0.0425
  784MOL0     C 5717   0.831   2.194   1.438  0.1478  0.4460  0.5981
  784MOL0     C 5718   0.965   2.175   1.366 -0.6065  0.1938  0.4678
  784MOL0     C 5719   1.057   2.296   1.369 -0.1132  0.2087  0.1502
  784MOL0     C 5720   1.128   2.297   1.501  0.5592  0.8770 -0.2825
  784MOL0     C 5721   1.171   2.432   1.531 -0.2393  0.4643  0.3446
  784MOL0     N 5722   1.260   2.493   1.432 -0.0792 -0.3942 -0.7207
  784MOL0     C 5723   1.222   2.589   1.340  0.1049 -0.1581 -0.3431
  784MOL0     C 5724   1.333   2.634   1.280 -0.9214 -0.7858 -0.0655
  784MOL0     C 5725   1.351   2.759   1.192  0.0129 -0.9853  0.4429
  784MOL0     C 5726   1.358   2.724   1.047  0.0207 -0.5564 -0.6017
  784MOL0     C 5727   1.411   2.842   0.969  0.3923  0.8305  1.0825
  784MOL0     C 5728   1.410   2.827   0.809  0.1682 -0.4282 -0.1847
  784MOL0     O 5729   1.502   2.726   0.772  0.5221 -0.5508  0.2179
  784MOL0     C 5730   1.590   2.751   0.664 -0.2293 -0.4021 -0.5270
  784MOL0     C 5731   1.568   2.834   0.555 -0.1412 -0.2369  0.9058
  784MOL0     C 5732   1.660   2.845   0.448 -0.1470 -1.3551 -0.8563
  784MOL0     C 5733   1.792   2.782   0.462  0.9728  0.6080 -0.9348
  784MOL0     C 5734   1.902   2.812   0.365  0.3104 -1.0641 -0.2443
  784MOL0     O 5735   1.886   2.914   0.271  0.4851 -0.4421 -0.4854
  784MOL0     C 5736   1.964   2.917   0.160 -1.0589 -0.0267  0.2950
  784MOL0     C 5737   2.067   3.012   0.150  0.1770  0.4389  0.2659
  784MOL0     C 5738   2.147   3.009   0.034  0.1003 -0.2822 -0.2871
  784MOL0     C 5739   2.117   2.920  -0.077  0.5892 -0.9765  0.3918
  784MOL0     O 5740   2.188   2.911  -0.198  0.0183  0.0970 -0.2461
  784MOL0     C 5741   2.243   3.031  -0.245 -0.5505 -0.7605 -0.2287
  784MOL0     C 5742   2.390   3.037  -0.222  0.5254  0.1027  1.0576
  784MOL0     C 5743   2.457   3.168  -0.285 -0.0475  0.4208 -0.1940
  784MOL0     C 5744   2.398   3.302  -0.228 -0.2012  0.7757 -1.1632
  784MOL0     C 5745   2.479   3.423  -0.274  0.2178  0.0011 -0.8245
  784MOL0     C 5746   2.447   3.536  -0.182  0.2164  0.1811 -1.2544
  784MOL0     C 5747   2.516   3.658  -0.232  0.0443 -0.4580  0.2539
  784MOL0     C 5748   2.471   3.783  -0.159  0.0211 -0.4478  0.7357
  784MOL0    Cl 5749   2.537   3.917  -0.247  0.0774  0.1309  0.0515
  784MOL0     C 5750   2.025   2.818  -0.057  0.1550 -0.3415  0.7952
  784MOL0     C 5751   1.953   2.812   0.061 -0.2481 -0.0068  0.8725
  784MOL0     O 5752   2.006   2.744   0.369  0.0459 -0.4212  0.1343
  784MOL0     C 5753   1.810   2.698   0.574  0.5481 -0.1245 -1.0308
  784MOL0     C 5754   1.712   2.680   0.674  0.1116  0.2632  0.6195
  784MOL0     N 5755   1.436   2.564   1.332 -0.5791 -0.4147 -0.6157
  784MOL0     N 5756   1.397   2.476   1.418  0.2364 -0.8002  0.8556
  784MOL0     C 5757   0.332   2.248   1.705  0.5415  0.0660  0.2684
  784MOL0     C 5758   0.254   2.292   1.812  0.4900  0.4577 -0.1906
  784MOL0     C 5759   0.053   2.283   2.200 -0.0635  0.5705 -0.5094
  784MOL0     C 5760  -0.072   2.342   2.172 -0.3064 -0.6586  0.4764
  784MOL0     C 5761  -0.153   2.404   2.273  0.4519  0.3080  0.3483
  784MOL0     C 5762  -0.102   2.414   2.400 -0.0397 -0.7402  1.0046
  784MOL0     O 5763  -0.150   2.487   2.504  0.5557 -0.4445 -0.1402
  784MOL0     C 5764  -0.290   2.503   2.522 -0.5852  0.4010  0.4292
  784MOL0     C 5765  -0.326   2.643   2.502 -0.2004 -0.1698  0.7473
  784MOL0     C 5766  -0.470   2.666   2.516  0.7853  0.3589  0.2571
  784MOL0     C 5767  -0.555   2.658   2.390  0.7578 -0.3374  0.2870
  784MOL0     C 5768  -0.573   2.521   2.348  0.9478  0.1333 -0.3695
  784MOL0     C 5769  -0.567   2.408   2.303 -0.5411 -0.2173  0.2040
  784MOL0     C 5770   0.027   2.373   2.423 -0.4030 -0.1362  0.0570
  784MOL0     C 5771   0.105   2.293   2.330  0.3272 -0.1603 -0.4708
  784MOL0     C 5772   0.229   2.232   2.386  0.9833  0.5987  0.2536
  784MOL0     H 5773   0.088   1.995   1.862  0.3112 -0.3973 -1.3248
  784MOL0     H 5774   0.262   1.926   1.716 -1.2866  0.5604  0.8680
  784MOL0     H 5775   0.478   2.223   1.474  1.3181  1.7948  1.1433
  784MOL0     H 5776   0.591   2.170   1.603  2.1020 -0.1903 -1.7377
  784MOL0     H 5777   0.575   2.104   1.310 -1.1745  1.4433  1.2682
  784MOL0     H 5778   0.574   1.961   1.417 -0.7708  0.7539  2.2024
  784MOL0     H 5779   0.790   2.013   1.331 -0.0778 -0.1861  0.2679
  784MOL0     H 5780   0.783   1.996   1.503  2.0622  1.9769  0.5006
  784MOL0     H 5781   0.785   2.264   1.367 -0.6310  0.9123  1.5351
  784MOL0     H 5782   0.841   2.236   1.539 -2.5787  0.5757  0.8908
  784MOL0     H 5783   1.002   2.082   1.410 -1.9724 -0.4858  0.2544
  784MOL0     H 5784   0.962   2.155   1.259  2.7289  2.6157 -0.2330
  784MOL0     H 5785   1.137   2.282   1.296  0.4627 -0.6295  0.9146
  784MOL0     H 5786   1.006   2.389   1.340  0.4245  0.3072 -0.4977
  784MOL0     H 5787   1.210   2.225   1.496 -0.5556 -0.4836 -5.6230
  784MOL0     H 5788   1.071   2.266   1.589 -0.5373  0.5350 -1.0836
  784MOL0     H 5789   1.083   2.497   1.534 -0.2416  0.4885  3.4042
  784MOL0     H 5790   1.212   2.430   1.633 -0.7775 -1.1396  0.5467
  784MOL0     H 5791   1.125   2.632   1.319  0.0184  0.5940  1.3684
  784MOL0     H 5792   1.270   2.830   1.212  1.6289  1.5174 -1.2907
  784MOL0     H 5793   1.444   2.807   1.225  0.8439 -1.1463 -1.5353
  784MOL0     H 5794   1.430   2.642   1.037 -0.7025 -1.5014  1.3251
  784MOL0     H 5795   1.270   2.679   0.999 -1.9525  0.4784  1.8052
  784MOL0     H 5796   1.517   2.861   0.989  0.3833  0.8531  1.1084
  784MOL0     H 5797   1.356   2.933   0.995 -0.2427  0.8414 -0.2014
  784MOL0     H 5798   1.448   2.921   0.769 -2.3405  1.2365  1.0165
  784MOL0     H 5799   1.306   2.814   0.778 -0.7874  1.4433  1.9525
  784MOL0     H 5800   1.488   2.908   0.555  1.0816  1.1600  0.0735
  784MOL0     H 5801   1.655   2.921   0.371 -1.0522 -1.2359 -0.6889
  784MOL0     H 5802   2.091   3.086   0.226  2.0778  1.7004 -1.4295
  784MOL0     H 5803   2.236   3.069   0.023 -0.1095 -0.1861 -1.6727
  784MOL0     H 5804   2.220   3.043  -0.351  1.2331 -0.7341 -0.6480
  784MOL0     H 5805   2.196   3.115  -0.193  0.9228  0.1875 -0.3588
  784MOL0     H 5806   2.428   3.012  -0.122  1.4742 -0.3316  0.5943
  784MOL0     H 5807   2.427   2.955  -0.283 -0.3693 -1.0020  1.9592
  784MOL0     H 5808   2.565   3.156  -0.273 -0.6101 -4.5028  2.4661
  784MOL0     H 5809   2.444   3.168  -0.394  1.8243 -3.3578 -0.5724
  784MOL0     H 5810   2.390   3.295  -0.119 -2.5538  0.0821 -1.3227
  784MOL0     H 5811   2.298   3.319  -0.271 -0.4036  1.6809 -0.3643
  784MOL0     H 5812   2.463   3.445  -0.380 -0.0620 -3.1094 -1.5195
  784MOL0     H 5813   2.584   3.395  -0.269 -0.0833 -1.0586  0.2145
  784MOL0     H 5814   2.340   3.552  -0.166  0.3904  0.7595 -0.6259
  784MOL0     H 5815   2.475   3.515  -0.078 -1.4863 -0.0592 -0.8131
  784MOL0     H 5816   2.490   3.670  -0.338 -1.5543 -1.4121  0.4961
  784MOL0     H 5817   2.622   3.632  -0.221  0.1642 -0.1279 -0.0932
  784MOL0     H 5818   2.362   3.790  -0.150  0.1273 -0.6103  2.2480
  784MOL0     H 5819   2.514   3.777  -0.059  1.1598  2.0827  0.5017
  784MOL0     H 5820   2.005   2.756  -0.144 -0.4749 -1.0937  1.4467
  784MOL0     H 5821   1.867   2.747   0.070 -2.1175  2.3442  0.8197
  784MOL0     H 5822   1.910   2.663   0.595  0.1217 -0.4974  0.5135
  784MOL0     H 5823   1.742   2.614   0.754  1.0889  1.3378  1.1742
  784MOL0     H 5824   0.386   2.326   1.653 -3.1212  0.6788 -3.1228
  784MOL0     H 5825   0.250   2.395   1.846  0.1969  0.0842  0.9394
  784MOL0     H 5826  -0.108   2.343   2.070  3.4495  1.0420 -0.9716
  784MOL0     H 5827  -0.250   2.449   2.256  1.4910  2.5248 -0.0068
  784MOL0     H 5828  -0.308   2.475   2.626 -1.0479 -1.0631 -0.0147
  784MOL0     H 5829  -0.347   2.432   2.462  1.8888  0.0647 -1.6762
  784MOL0     H 5830  -0.295   2.685   2.406 -2.8968 -1.2846 -0.7251
  784MOL0     H 5831  -0.281   2.707   2.578 -1.2485  0.5362  0.7944
  784MOL0     H 5832  -0.494   2.765   2.556  0.1739  1.4113 -2.4759
  784MOL0     H 5833  -0.507   2.593   2.588  0.3457  1.5586  1.2856
  784MOL0     H 5834  -0.658   2.692   2.404  0.4873 -1.4496  1.0987
  784MOL0     H 5835  -0.508   2.715   2.310  0.3065  0.6638  0.7103
  784MOL0     H 5836  -0.551   2.314   2.255 -1.8683 -0.7557  0.7730
  784MOL0     H 5837   0.076   2.399   2.517  1.8248  0.4408 -1.1943
  784MOL0     H 5838   0.225   2.250   2.494 -2.6962  2.3214 -0.0116
  784MOL0     H 5839   0.247   2.125   2.370 -1.5674 -0.0036  1.0327
  784MOL0     H 5840   0.314   2.287   2.344  0.8221  0.7799  0.1632
  785MOL0     O 5841   9.545   1.113   0.191  0.8820  0.1940  0.6785
  785MOL0     C 5842   9.617   1.015   0.202  0.1626  0.6645 -0.3147
  785MOL0     O 5843   9.740   1.006   0.259 -0.4108  0.4610 -0.1268
  785MOL0     C 5844   9.804   1.111   0.325 -0.4566  1.0947  0.0571
  785MOL0     C 5845   9.745   1.233   0.367  0.3199 -0.4204  0.0261
  785MOL0     C 5846   9.816   1.330   0.444 -0.1672  0.4258  0.1876
  785MOL0     C 5847   9.955   1.320   0.463  0.9787  0.1134 -0.3618
  785MOL0     O 5848  10.032   1.410   0.526  0.3680 -0.6311  0.0124
  785MOL0     C 5849   9.994   1.546   0.496 -0.6484 -0.1946 -0.5944
  785MOL0     C 5850  10.109   1.646   0.523 -0.8402 -0.3662 -0.3529
  785MOL0     C 5851  10.199   1.668   0.405 -0.2146 -0.7503  0.8332
  785MOL0     C 5852  10.302   1.786   0.452  0.2941  0.0105  0.5866
  785MOL0     C 5853  10.434   1.775   0.376  0.0677  0.4809 -0.6513
  785MOL0     C 5854  10.534   1.880   0.408  0.8753  0.6808 -0.1443
  785MOL0     C 5855  10.679   1.833   0.387 -0.4958 -0.0002 -0.5339
  785MOL0     C 5856  10.767   1.941   0.436 -0.0225  0.0454 -1.2284
  785MOL0     N 5857  10.797   1.936   0.584 -0.2541  0.3069  0.1194
  785MOL0     C 5858  10.859   1.829   0.638 -0.2884 -0.1746  0.5123
  785MOL0     C 5859  10.893   1.866   0.765  0.0237 -0.1769  1.3706
  785MOL0     C 5860  10.964   1.792   0.863  0.3884 -0.1973 -0.0296
  785MOL0     C 5861  11.114   1.818   0.864 -0.2112 -0.3972 -0.3698
  785MOL0     C 5862  11.187   1.835   0.723  0.2457  0.2661  0.4011
  785MOL0     C 5863  11.333   1.843   0.750  0.0651  0.7946 -0.5957
  785MOL0     O 5864  11.364   1.978   0.774  0.4925  0.7877 -0.0339
  785MOL0     C 5865  11.496   2.015   0.785  0.8923  0.7478  1.0425
  785MOL0     C 5866  11.520   2.143   0.809 -0.3433 -0.3683  0.2622
  785MOL0     C 5867  11.653   2.184   0.826 -0.5370 -0.3924 -0.0249
  785MOL0     C 5868  11.752   2.097   0.822 -0.5671 -0.0882 -0.5875
  785MOL0     C 5869  11.896   2.127   0.845  0.1875 -0.2877  0.7777
  785MOL0     O 5870  11.990   2.073   0.768  0.2880 -0.0902  0.4138
  785MOL0     C 5871  12.117   2.103   0.794  0.3196  0.5223 -0.0805
  785MOL0     C 5872  12.187   2.184   0.714 -0.3090  0.4343 -0.5071
  785MOL0     C 5873  12.331   2.199   0.732 -0.1536  0.6012 -0.7082
  785MOL0     C 5874  12.393   2.153   0.851 -0.1500  0.1174  0.2143
  785MOL0     O 5875  12.514   2.199   0.881 -0.0612  0.4272 -0.0314
  785MOL0     C 5876  12.554   2.332   0.858 -0.5738 -0.6286  0.0276
  785MOL0     C 5877  12.709   2.343   0.819 -0.0264 -0.6163  0.1377
  785MOL0     C 5878  12.811   2.255   0.885 -0.6088  0.3041  0.2770
  785MOL0     C 5879  12.832   2.287   1.033  0.1731 -0.1165  0.2324
  785MOL0     C 5880  12.910   2.167   1.093  0.7051  0.5220  0.0532
  785MOL0     C 5881  13.054   2.169   1.054  0.3185  0.4127  0.0003
  785MOL0     C 5882  13.102   2.040   0.976  0.2761  0.3053 -1.5775
  785MOL0     C 5883  13.236   2.053   0.922  0.2870  0.6350 -0.0791
  785MOL0    Cl 5884  13.370   2.066   1.047  0.0283 -0.1788  0.3872
  785MOL0     C 5885  12.311   2.079   0.936 -0.1567 -0.3660 -0.4181
  785MOL0     C 5886  12.175   2.053   0.911 -0.0878  0.5001 -0.0825
  785MOL0     O 5887  11.911   2.203   0.939 -0.5773 -0.9554  0.0750
  785MOL0     C 5888  11.736   1.959   0.789  0.0285 -0.0991 -0.1590
  785MOL0     C 5889  11.601   1.920   0.774 -0.3365 -0.0714 -0.6796
  785MOL0     N 5890  10.848   2.001   0.776 -0.0381  0.1205  0.0080
  785MOL0     N 5891  10.791   2.041   0.673  0.2935  0.4537 -0.5676
  785MOL0     C 5892  10.010   1.198   0.425  0.3098  0.3559  0.2405
  785MOL0     C 5893   9.940   1.096   0.354 -0.4367 -1.1868 -0.2831
  785MOL0     C 5894   9.550   0.881   0.164  0.7185  0.5674  0.0586
  785MOL0     C 5895   9.623   0.769   0.184 -0.6285  0.6591  0.2921
  785MOL0     C 5896   9.575   0.646   0.138  0.4886 -0.1899  0.0464
  785MOL0     C 5897   9.455   0.628   0.066  0.5779  0.8058 -0.0990
  785MOL0     O 5898   9.404   0.504   0.024  0.5212 -0.1284 -0.7994
  785MOL0     C 5899   9.288   0.460   0.095 -0.2118 -1.1792  0.4815
  785MOL0     C 5900   9.236   0.323   0.048 -0.6894 -0.1671 -0.1403
  785MOL0     C 5901   9.313   0.191   0.075 -0.7665  0.4634 -0.0065
  785MOL0     C 5902   9.354   0.156   0.221  0.0072  0.5577  0.1115
  785MOL0     C 5903   9.477   0.230   0.233 -0.4100 -0.4580 -0.1189
  785MOL0     C 5904   9.576   0.292   0.254  0.8920  0.7053  0.6008
  785MOL0     C 5905   9.375   0.738   0.054  0.1158 -0.0896 -0.5619
  785MOL0     C 5906   9.418   0.870   0.097 -0.7296  0.7615  0.4164
  785MOL0     C 5907   9.313   0.983   0.070 -0.1554  0.1286 -0.3604
  785MOL0     H 5908   9.638   1.252   0.371  0.2141 -0.8138 -0.7437
  785MOL0     H 5909   9.759   1.412   0.488  4.3470  3.9593  0.2233
  785MOL0     H 5910   9.964   1.558   0.392  1.1852 -1.4002 -1.3139
  785MOL0     H 5911   9.908   1.578   0.554 -0.6800 -0.9370 -0.2120
  785MOL0     H 5912  10.171   1.615   0.607  2.6639  2.4714 -1.6349
  785MOL0     H 5913  10.073   1.746   0.549  2.4794  0.7025  0.5560
  785MOL0     H 5914  10.156   1.712   0.314 -0.8067  0.6678  1.7648
  785MOL0     H 5915  10.252   1.576   0.379 -1.5691 -2.0786  2.5644
  785MOL0     H 5916  10.268   1.888   0.432  0.0278 -0.6900 -3.4500
  785MOL0     H 5917  10.319   1.779   0.560  0.0784 -0.1243  0.6123
  785MOL0     H 5918  10.473   1.675   0.401  1.0904 -0.5073 -5.1337
  785MOL0     H 5919  10.421   1.762   0.268  3.1404  0.0302 -1.0630
  785MOL0     H 5920  10.517   1.964   0.340  2.3150 -0.4666 -2.0384
  785MOL0     H 5921  10.517   1.917   0.510  3.0435  1.4009  0.0295
  785MOL0     H 5922  10.695   1.793   0.286 -1.5131 -1.1848 -0.2474
  785MOL0     H 5923  10.697   1.743   0.445  2.5183  0.9150  0.1503
  785MOL0     H 5924  10.867   1.925   0.394  0.9852  2.3631  0.0501
  785MOL0     H 5925  10.737   2.044   0.414 -0.3883  0.7836  2.1510
  785MOL0     H 5926  10.881   1.735   0.589  3.7825  1.3588 -1.0274
  785MOL0     H 5927  10.931   1.807   0.966  1.9912  1.2760  0.3298
  785MOL0     H 5928  10.945   1.685   0.851  2.1435 -0.8124  1.9332
  785MOL0     H 5929  11.120   1.922   0.898  0.9031  0.0591 -1.8215
  785MOL0     H 5930  11.160   1.759   0.944  1.9780  1.7164  0.0382
  785MOL0     H 5931  11.143   1.922   0.673  0.0249  0.6269  1.2083
  785MOL0     H 5932  11.177   1.751   0.653  0.7584  0.7573 -0.2692
  785MOL0     H 5933  11.382   1.801   0.662  2.5200 -0.1298  1.0777
  785MOL0     H 5934  11.371   1.789   0.838 -1.9987  3.2833  2.0532
  785MOL0     H 5935  11.443   2.216   0.835  0.4107 -0.3307  2.5857
  785MOL0     H 5936  11.678   2.288   0.846 -1.1853 -0.6974  2.7447
  785MOL0     H 5937  12.136   2.221   0.625 -1.3614 -0.3234 -0.2354
  785MOL0     H 5938  12.376   2.249   0.647 -0.8336  1.2444 -0.7075
  785MOL0     H 5939  12.486   2.392   0.797 -1.7442  1.3637  3.0325
  785MOL0     H 5940  12.550   2.387   0.953 -0.9436 -1.8177  0.7131
  785MOL0     H 5941  12.712   2.320   0.712  1.1032  1.3237 -0.2867
  785MOL0     H 5942  12.740   2.447   0.834 -2.3607  0.2338 -0.5212
  785MOL0     H 5943  12.773   2.152   0.878  0.1773  0.0763 -0.8696
  785MOL0     H 5944  12.907   2.249   0.834 -0.5414  1.2604  0.2742
  785MOL0     H 5945  12.735   2.296   1.082  0.3605 -3.1609  1.4197
  785MOL0     H 5946  12.900   2.372   1.041 -0.4462  0.2938  1.2661
  785MOL0     H 5947  12.863   2.070   1.073 -0.5599  1.1658 -0.2503
  785MOL0     H 5948  12.901   2.184   1.201 -2.8232  2.1956 -0.3456
  785MOL0     H 5949  13.067   2.262   0.998  3.4523  0.1671  0.1360
  785MOL0     H 5950  13.109   2.176   1.148  2.0514  0.9975 -1.0051
  785MOL0     H 5951  13.029   2.031   0.895  1.3861 -1.5861 -2.4387
  785MOL0     H 5952  13.087   1.954   1.042 -3.4115  1.2431 -0.9787
  785MOL0     H 5953  13.253   1.967   0.856  0.9773 -0.1818  1.1201
  785MOL0     H 5954  13.239   2.134   0.849 -0.2429 -0.4164 -1.3155
  785MOL0     H 5955  12.345   2.047   1.034  0.0758  1.8744  0.3129
  785MOL0     H 5956  12.117   1.998   0.985 -1.3170 -1.3074 -2.2537
  785MOL0     H 5957  11.824   1.895   0.783  2.0982  2.6710 -3.4350
  785MOL0     H 5958  11.588   1.819   0.738  0.3644 -0.8855  1.1976
  785MOL0     H 5959  10.113   1.179   0.452 -0.1684 -3.1229  0.1289
  785MOL0     H 5960   9.997   1.004   0.348  3.3221  0.7617  1.6545
  785MOL0     H 5961   9.721   0.768   0.231 -2.6295  0.2222  4.9150
  785MOL0     H 5962   9.636   0.556   0.149 -0.6108 -0.7098  2.5683
  785MOL0     H 5963   9.206   0.531   0.088  0.1289 -0.7718  0.5621
  785MOL0     H 5964   9.327   0.462   0.198  0.6351 -3.1582  0.2550
  785MOL0     H 5965   9.228   0.345  -0.058  2.9050  4.1970  0.1766
  785MOL0     H 5966   9.137   0.303   0.090 -1.1342  1.2537 -0.4586
  785MOL0     H 5967   9.406   0.181   0.018  0.4175  1.3867  1.6874
  785MOL0     H 5968   9.244   0.110   0.051  0.1800  0.0600 -1.5163
  785MOL0     H 5969   9.276   0.182   0.293 -1.6965 -0.9396 -1.1302
  785MOL0     H 5970   9.375   0.049   0.232 -2.6993 -0.0976 -0.3919
  785MOL0     H 5971   9.659   0.360   0.264  2.9911 -1.1898 -2.3125
  785MOL0     H 5972   9.276   0.734   0.009 -0.2894 -1.1007  0.3827
  785MOL0     H 5973   9.216   0.949   0.033  0.4086 -1.0921 -0.7732
  785MOL0     H 5974   9.298   1.038   0.163  0.7512  0.2036 -0.2463
  785MOL0     H 5975   9.365   1.049  -0.001 -0.8918  0.1755 -0.8644
  786MOL0     O 5976   6.793   4.534   6.256 -0.8707 -0.0554 -0.4275
  786MOL0     C 5977   6.689   4.582   6.276  0.6660 -0.0873 -1.1138
  786MOL0     O 5978   6.659   4.712   6.291 -0.2773  0.0587  0.2246
  786MOL0     C 5979   6.756   4.804   6.259  0.0810 -0.7448 -0.7935
  786MOL0     C 5980   6.852   4.805   6.150 -0.3604 -0.7669 -0.8004
  786MOL0     C 5981   6.949   4.909   6.155  0.7711  0.1191  0.2323
  786MOL0     C 5982   6.939   5.023   6.236  0.6082  0.7868  2.0663
  786MOL0     O 5983   7.038   5.120   6.230  0.1955  0.7155 -0.0458
  786MOL0     C 5984   7.053   5.198   6.111  0.1110  0.1053 -0.3600
  786MOL0     C 5985   7.119   5.327   6.164  0.8191 -0.5649  0.2500
  786MOL0     C 5986   7.110   5.436   6.059 -0.3037  0.4679  1.2346
  786MOL0     C 5987   7.180   5.559   6.100  0.6903 -0.2696  0.1906
  786MOL0     C 5988   7.216   5.654   5.972 -0.1314  0.5062 -0.2815
  786MOL0     C 5989   7.359   5.623   5.922  0.5702 -0.7564  0.2480
  786MOL0     C 5990   7.367   5.648   5.773 -0.3874 -0.4393  0.5813
  786MOL0     C 5991   7.411   5.785   5.730  0.0773  0.1878 -0.5683
  786MOL0     N 5992   7.560   5.808   5.751  0.3228  0.1107 -0.1801
  786MOL0     C 5993   7.653   5.742   5.682  0.3758  0.5482 -0.4049
  786MOL0     C 5994   7.767   5.755   5.750 -1.0343 -0.6183  1.0377
  786MOL0     C 5995   7.904   5.702   5.718 -0.1510  0.6134  0.1715
  786MOL0     C 5996   7.940   5.579   5.802  0.3899 -0.1788  0.3311
  786MOL0     C 5997   7.849   5.463   5.749  0.2758 -0.2633  1.3571
  786MOL0     C 5998   7.893   5.331   5.819  0.0278  0.5124  0.3643
  786MOL0     O 5999   7.844   5.225   5.733  0.0159 -0.0472  0.1051
  786MOL0     C 6000   7.916   5.202   5.620 -0.0198 -0.8109 -0.5350
  786MOL0     C 6001   8.043   5.243   5.587 -1.1420  0.1509 -0.6148
  786MOL0     C 6002   8.113   5.194   5.472  0.1151  0.2612 -0.0080
  786MOL0     C 6003   8.039   5.105   5.384 -0.2832 -0.5457 -0.6744
  786MOL0     C 6004   8.105   5.080   5.250  0.0355 -0.2455 -1.3408
  786MOL0     O 6005   8.027   5.045   5.145  0.3357 -0.6069  0.2575
  786MOL0     C 6006   8.084   4.994   5.031 -0.2137  0.3006 -0.6262
  786MOL0     C 6007   8.199   4.915   5.035 -0.9812 -0.2689 -0.1481
  786MOL0     C 6008   8.237   4.840   4.919 -0.4178  0.4234 -0.4252
  786MOL0     C 6009   8.162   4.846   4.800 -0.3726  0.0536 -0.6348
  786MOL0     O 6010   8.189   4.780   4.688 -0.0071 -0.3346 -0.0774
  786MOL0     C 6011   8.264   4.655   4.693 -0.2024  0.0222 -0.4235
  786MOL0     C 6012   8.215   4.569   4.578 -0.2679  0.4657  0.1651
  786MOL0     C 6013   8.068   4.516   4.599  0.4192 -0.0394  0.0841
  786MOL0     C 6014   8.054   4.390   4.504  0.6384 -0.0913  0.4813
  786MOL0     C 6015   7.907   4.354   4.492 -0.6485 -0.0137  0.4140
  786MOL0     C 6016   7.897   4.237   4.397 -1.0559  0.0560  0.1354
  786MOL0     C 6017   7.765   4.157   4.405 -0.4126 -0.1646 -1.2077
  786MOL0     C 6018   7.634   4.235   4.387 -1.2185 -0.7927  0.0610
  786MOL0    Cl 6019   7.596   4.263   4.209  0.0057  0.2457 -0.2381
  786MOL0     C 6020   8.049   4.929   4.802 -0.3692 -0.2394  0.3309
  786MOL0     C 6021   8.007   4.996   4.914 -0.2357  0.3410 -0.3733
  786MOL0     O 6022   8.226   5.077   5.259  0.1021  0.4769  0.1013
  786MOL0     C 6023   7.902   5.072   5.418  0.2474 -0.7646  0.1881
  786MOL0     C 6024   7.843   5.115   5.532 -0.5774  0.6324 -0.2905
  786MOL0     N 6025   7.744   5.839   5.862  0.3738  0.3002 -0.0309
  786MOL0     N 6026   7.616   5.870   5.853  0.0922  0.6552 -0.3529
  786MOL0     C 6027   6.834   5.026   6.325  0.2806  0.3154 -1.1160
  786MOL0     C 6028   6.741   4.924   6.340 -0.3623  0.2568 -0.3876
  786MOL0     C 6029   6.573   4.500   6.324  0.1789 -0.3682  0.5872
  786MOL0     C 6030   6.486   4.553   6.428  0.3827  0.2200  0.5781
  786MOL0     C 6031   6.366   4.487   6.448  0.1806  0.0526  0.4030
  786MOL0     C 6032   6.348   4.357   6.411 -0.0421 -0.0026  0.0595
  786MOL0     O 6033   6.229   4.298   6.442  0.5029  0.2350  0.8548
  786MOL0     C 6034   6.105   4.341   6.392  0.3662 -0.3941  1.1635
  786MOL0     C 6035   6.024   4.445   6.471  0.2108  0.5276 -0.0772
  786MOL0     C 6036   6.028   4.418   6.625 -0.1063 -0.9734  0.4641
  786MOL0     C 6037   5.917   4.509   6.680  0.2488 -0.1735  0.2948
  786MOL0     C 6038   5.858   4.450   6.797 -0.4664  0.4226 -0.8817
  786MOL0     C 6039   5.812   4.404   6.892 -0.5874  0.7094 -0.7619
  786MOL0     C 6040   6.437   4.297   6.310 -0.3825 -0.2477  0.0732
  786MOL0     C 6041   6.556   4.364   6.282  0.6528  0.5282  0.9353
  786MOL0     C 6042   6.649   4.292   6.184  1.2337 -0.1308  0.3388
  786MOL0     H 6043   6.853   4.718   6.085 -1.3499 -2.0828  0.8464
  786MOL0     H 6044   7.031   4.891   6.086 -2.0893 -0.3798 -3.3612
  786MOL0     H 6045   7.118   5.142   6.042 -1.0332 -3.5393  1.2921
  786MOL0     H 6046   6.952   5.215   6.073 -0.7800 -0.2209  1.7503
  786MOL0     H 6047   7.220   5.294   6.189  0.3920 -1.8712  0.3025
  786MOL0     H 6048   7.060   5.369   6.246 -1.3430  1.6258 -2.2050
  786MOL0     H 6049   7.008   5.454   6.025  0.9515  3.5372 -1.5822
  786MOL0     H 6050   7.152   5.394   5.967 -3.7589 -2.2420  0.6910
  786MOL0     H 6051   7.121   5.619   6.170  0.5473  3.2732 -2.6235
  786MOL0     H 6052   7.271   5.532   6.154  3.1294  3.4959 -1.5920
  786MOL0     H 6053   7.146   5.645   5.888  1.8612  0.4798 -2.0210
  786MOL0     H 6054   7.216   5.757   6.008  1.2072  0.4525 -0.0781
  786MOL0     H 6055   7.423   5.685   5.985 -0.5844 -0.1653  0.8463
  786MOL0     H 6056   7.384   5.519   5.945  2.3040 -0.2416  0.8303
  786MOL0     H 6057   7.275   5.616   5.724  0.5553 -1.6010 -0.4997
  786MOL0     H 6058   7.433   5.571   5.733 -2.3829 -2.6153  1.2143
  786MOL0     H 6059   7.408   5.794   5.621  3.8225 -1.1770 -0.9265
  786MOL0     H 6060   7.347   5.856   5.783  1.4992  0.6864  0.5576
  786MOL0     H 6061   7.640   5.676   5.597 -0.3264  3.1623 -2.4432
  786MOL0     H 6062   7.925   5.670   5.616  2.0326  0.6869  0.5330
  786MOL0     H 6063   7.980   5.774   5.751  1.1898 -0.7621  0.2164
  786MOL0     H 6064   8.046   5.551   5.792  0.8453  0.9209  1.6873
  786MOL0     H 6065   7.920   5.601   5.907 -0.5769  2.6795 -0.3654
  786MOL0     H 6066   7.873   5.454   5.642  3.0596  0.2189  1.8538
  786MOL0     H 6067   7.743   5.475   5.773  0.1648 -0.5775  1.0321
  786MOL0     H 6068   7.852   5.319   5.920 -2.1944  0.6370 -0.4808
  786MOL0     H 6069   8.002   5.332   5.834  0.0008  2.0492  0.6647
  786MOL0     H 6070   8.106   5.304   5.651 -1.1053 -1.1076  0.6142
  786MOL0     H 6071   8.211   5.234   5.449  1.2379 -1.9513  0.6920
  786MOL0     H 6072   8.274   4.913   5.113 -0.4989  0.3619 -0.5843
  786MOL0     H 6073   8.324   4.775   4.924  0.2249  1.2751 -0.3504
  786MOL0     H 6074   8.372   4.671   4.685 -0.1548 -0.7179 -1.4184
  786MOL0     H 6075   8.242   4.605   4.788 -0.4927  4.2132  1.9677
  786MOL0     H 6076   8.226   4.636   4.492  3.1594 -2.2062 -1.7347
  786MOL0     H 6077   8.291   4.490   4.572  1.1003  1.6137  1.6146
  786MOL0     H 6078   8.046   4.490   4.703 -3.2627  0.0576 -0.5263
  786MOL0     H 6079   7.994   4.592   4.572 -0.6200  0.0495  2.8251
  786MOL0     H 6080   8.111   4.308   4.550 -0.9283 -1.2592  0.4414
  786MOL0     H 6081   8.089   4.415   4.403  2.7227 -0.3636  1.0877
  786MOL0     H 6082   7.852   4.439   4.452 -1.7967  0.6643  3.1890
  786MOL0     H 6083   7.859   4.342   4.589  0.4104  1.0141  1.0954
  786MOL0     H 6084   7.912   4.268   4.293 -0.0760 -2.7972 -0.6638
  786MOL0     H 6085   7.981   4.169   4.414 -1.2384  0.0482  1.0434
  786MOL0     H 6086   7.760   4.106   4.502 -1.7579  1.5976 -0.2860
  786MOL0     H 6087   7.769   4.080   4.328  1.6535 -2.4873  1.0493
  786MOL0     H 6088   7.547   4.187   4.434 -1.4260  0.2954  0.8369
  786MOL0     H 6089   7.650   4.329   4.441  2.0475 -1.3200  0.2225
  786MOL0     H 6090   8.001   4.924   4.704 -0.7524  0.0995  0.5003
  786MOL0     H 6091   7.917   5.057   4.915  1.0238  2.2818 -0.6634
  786MOL0     H 6092   7.848   5.012   5.345 -0.5336  0.5448 -0.3522
  786MOL0     H 6093   7.743   5.081   5.553 -1.2923  1.7652 -1.7168
  786MOL0     H 6094   6.815   5.115   6.384 -2.3846 -0.5835 -0.4845
  786MOL0     H 6095   6.669   4.924   6.421  1.0432  0.7295  0.9030
  786MOL0     H 6096   6.509   4.646   6.478  1.0169 -0.3415  1.3468
  786MOL0     H 6097   6.304   4.536   6.523 -0.2401 -0.2440  0.2566
  786MOL0     H 6098   6.052   4.246   6.381 -0.6088  0.1558  0.9715
  786MOL0     H 6099   6.106   4.376   6.288 -2.5822 -1.0338  0.8272
  786MOL0     H 6100   5.922   4.453   6.434  0.7765  2.4465 -1.3496
  786MOL0     H 6101   6.069   4.538   6.435  0.4582  0.3253 -0.3049
  786MOL0     H 6102   6.133   4.430   6.655 -0.2758 -2.4139  1.7853
  786MOL0     H 6103   6.005   4.315   6.654 -0.5302 -0.9473  0.2213
  786MOL0     H 6104   5.946   4.612   6.703 -1.3216  0.2872  0.3120
  786MOL0     H 6105   5.836   4.520   6.607 -0.7497  1.8276  1.6234
  786MOL0     H 6106   5.754   4.357   6.970 -2.1587  0.7170 -1.8692
  786MOL0     H 6107   6.414   4.196   6.278  0.6410 -0.7339  0.8316
  786MOL0     H 6108   6.615   4.189   6.164 -2.1174  0.9504 -0.1829
  786MOL0     H 6109   6.658   4.351   6.093 -0.6389 -2.8395 -1.7824
  786MOL0     H 6110   6.747   4.276   6.230  0.4589 -2.9805  1.2378
  787MOL0     O 6111   4.876   1.159   5.555  0.2332 -0.6172  0.0136
  787MOL0     C 6112   4.986   1.211   5.581  1.4962  0.3026 -0.0847
  787MOL0     O 6113   5.009   1.342   5.565 -0.2743  0.5126 -0.1978
  787MOL0     C 6114   4.911   1.427   5.512 -1.1103 -0.2560 -1.0193
  787MOL0     C 6115   4.942   1.497   5.395  0.0423 -0.0567  0.2008
  787MOL0     C 6116   4.857   1.591   5.346 -1.1118  0.5315  0.6348
  787MOL0     C 6117   4.730   1.611   5.401  0.3881 -0.4615  0.1916
  787MOL0     O 6118   4.646   1.704   5.347  0.3264 -0.1128 -1.2013
  787MOL0     C 6119   4.504   1.679   5.361 -0.0046 -0.4239 -0.7707
  787MOL0     C 6120   4.418   1.779   5.448 -0.4997 -0.6215 -0.1229
  787MOL0     C 6121   4.395   1.916   5.381  0.4374 -0.1952  0.4839
  787MOL0     C 6122   4.521   2.006   5.346  0.6950  0.0493  0.1411
  787MOL0     C 6123   4.478   2.152   5.310 -1.0828 -0.5965  0.0031
  787MOL0     C 6124   4.593   2.260   5.305  0.5648  0.7160 -0.1722
  787MOL0     C 6125   4.567   2.408   5.327  1.0020  0.5372  0.0809
  787MOL0     C 6126   4.454   2.457   5.235  0.8533  0.0462  0.1028
  787MOL0     N 6127   4.425   2.595   5.259 -0.0924  0.5170  0.0649
  787MOL0     C 6128   4.363   2.638   5.372  0.2864 -0.0109  0.8838
  787MOL0     C 6129   4.376   2.773   5.370  0.1809 -0.0693 -0.2114
  787MOL0     C 6130   4.347   2.865   5.485  0.1604 -0.4391  0.4119
  787MOL0     C 6131   4.190   2.888   5.484 -0.5731 -0.0510 -0.0606
  787MOL0     C 6132   4.132   3.014   5.401 -0.6334  0.3812  0.3441
  787MOL0     C 6133   3.989   2.978   5.375 -0.0647  0.1801  0.5848
  787MOL0     O 6134   3.922   3.103   5.344  0.7242  0.5398  0.3462
  787MOL0     C 6135   3.784   3.090   5.338 -0.2120  0.2915  0.1402
  787MOL0     C 6136   3.707   3.206   5.359 -0.1605  0.1329 -0.4217
  787MOL0     C 6137   3.567   3.207   5.344  0.1832  0.0457  0.9507
  787MOL0     C 6138   3.501   3.085   5.317 -0.5494  0.4309 -0.0003
  787MOL0     C 6139   3.359   3.090   5.302  0.3340 -0.6315 -0.2663
  787MOL0     O 6140   3.312   3.211   5.249  0.9096  0.1454 -0.3346
  787MOL0     C 6141   3.178   3.232   5.242 -0.2630  1.1098 -0.3558
  787MOL0     C 6142   3.127   3.338   5.308  0.3166 -0.5662  0.4134
  787MOL0     C 6143   2.988   3.374   5.308 -0.2221 -0.5283  0.1506
  787MOL0     C 6144   2.900   3.280   5.252 -0.4534 -0.5521  0.1955
  787MOL0     O 6145   2.761   3.313   5.230 -0.7001 -0.2603 -0.0928
  787MOL0     C 6146   2.706   3.409   5.327 -0.2344  0.9288 -0.7844
  787MOL0     C 6147   2.554   3.393   5.313 -0.4272 -0.2025 -0.2905
  787MOL0     C 6148   2.508   3.251   5.364  0.4292  0.0648  0.1432
  787MOL0     C 6149   2.358   3.278   5.401  0.2905 -0.1592  0.1178
  787MOL0     C 6150   2.290   3.172   5.476 -1.0668  0.1275 -1.2840
  787MOL0     C 6151   2.284   3.040   5.399  0.2315  0.0848  1.0852
  787MOL0     C 6152   2.196   2.944   5.478  0.0719 -0.0620 -1.0373
  787MOL0     C 6153   2.240   2.804   5.458 -0.2343  0.0512  0.0783
  787MOL0    Cl 6154   2.416   2.791   5.497 -0.5097  0.0758 -0.1207
  787MOL0     C 6155   2.946   3.173   5.188 -0.1294 -0.3037  0.5932
  787MOL0     C 6156   3.085   3.139   5.191  0.3436 -0.2250 -0.7145
  787MOL0     O 6157   3.293   2.989   5.324 -0.5402  0.1620 -0.3305
  787MOL0     C 6158   3.579   2.970   5.300 -0.6657 -0.2888 -0.0418
  787MOL0     C 6159   3.717   2.966   5.323  0.6062  0.5040  0.2054
  787MOL0     N 6160   4.455   2.810   5.262 -0.2274 -0.2464 -0.1472
  787MOL0     N 6161   4.485   2.700   5.202  0.0818  0.4024 -0.3216
  787MOL0     C 6162   4.711   1.562   5.530  1.0916 -0.1572 -0.6103
  787MOL0     C 6163   4.792   1.457   5.584  0.3124  0.0545 -0.5172
  787MOL0     C 6164   5.087   1.120   5.645  0.9554  0.4120  0.2293
  787MOL0     C 6165   5.216   1.146   5.622 -0.5165  0.2967  1.0571
  787MOL0     C 6166   5.310   1.069   5.685  0.1191 -0.3848  0.1988
  787MOL0     C 6167   5.284   0.967   5.779  0.9782  0.2372 -0.6233
  787MOL0     O 6168   5.382   0.889   5.831  0.0845  0.9498  0.2448
  787MOL0     C 6169   5.493   0.835   5.763 -0.5118  0.6348  0.6210
  787MOL0     C 6170   5.475   0.691   5.722 -0.0015  0.6231  0.7534
  787MOL0     C 6171   5.440   0.604   5.848 -0.0516  0.6343 -0.6297
  787MOL0     C 6172   5.525   0.631   5.975  0.4105  0.2803 -0.3562
  787MOL0     C 6173   5.674   0.629   5.956  0.5323  0.4973 -0.0823
  787MOL0     C 6174   5.795   0.608   5.933  0.2436 -0.2474 -0.5956
  787MOL0     C 6175   5.148   0.945   5.796  0.4343  0.4118 -0.4774
  787MOL0     C 6176   5.048   1.007   5.727 -0.3316 -0.1579  0.3631
  787MOL0     C 6177   4.912   0.955   5.753 -0.4696 -0.2729 -0.7343
  787MOL0     H 6178   5.043   1.491   5.354 -0.3400  0.5656 -0.8583
  787MOL0     H 6179   4.879   1.646   5.255 -0.8542  0.2529  0.5290
  787MOL0     H 6180   4.460   1.679   5.261 -1.0888  1.4596 -0.3458
  787MOL0     H 6181   4.499   1.579   5.404  2.6331 -0.2838  0.0935
  787MOL0     H 6182   4.458   1.790   5.549  1.7738  4.8531 -1.2712
  787MOL0     H 6183   4.316   1.741   5.459 -0.1020 -2.1272 -1.3364
  787MOL0     H 6184   4.325   1.964   5.451 -2.0582 -1.4609 -0.9920
  787MOL0     H 6185   4.338   1.902   5.289  0.1861 -2.6119  0.9502
  787MOL0     H 6186   4.589   2.008   5.432 -0.8316  2.6149  1.4116
  787MOL0     H 6187   4.567   1.944   5.268 -1.7585 -0.2212 -1.1991
  787MOL0     H 6188   4.421   2.164   5.218 -1.1506 -0.0084  0.1138
  787MOL0     H 6189   4.405   2.183   5.386 -0.5353  0.5942  0.0751
  787MOL0     H 6190   4.657   2.229   5.388  0.2407 -1.0878 -0.5572
  787MOL0     H 6191   4.636   2.235   5.207 -0.4777  0.6160 -0.6183
  787MOL0     H 6192   4.648   2.470   5.289  0.7389  0.5647 -0.4370
  787MOL0     H 6193   4.543   2.423   5.433  0.4788  1.9355 -0.2236
  787MOL0     H 6194   4.492   2.449   5.132  3.6489  2.9956  0.7196
  787MOL0     H 6195   4.362   2.398   5.244 -1.1796  2.0923 -4.2191
  787MOL0     H 6196   4.305   2.583   5.446 -1.2353 -0.7076 -0.7616
  787MOL0     H 6197   4.376   2.825   5.583 -1.4484  2.1643  2.0875
  787MOL0     H 6198   4.396   2.963   5.476  2.7451 -1.3277  2.9609
  787MOL0     H 6199   4.136   2.797   5.454  1.9637 -1.5168 -0.4986
  787MOL0     H 6200   4.170   2.904   5.590 -1.8257 -0.2508 -0.2573
  787MOL0     H 6201   4.186   3.022   5.306 -0.7826 -1.6098  0.0551
  787MOL0     H 6202   4.143   3.103   5.463  0.0841 -1.1613  2.5469
  787MOL0     H 6203   3.957   2.936   5.471 -0.1623 -0.9984  0.0601
  787MOL0     H 6204   3.983   2.899   5.299 -0.7977  0.2032  0.6028
  787MOL0     H 6205   3.770   3.294   5.362  0.0473 -0.0351  0.2462
  787MOL0     H 6206   3.506   3.297   5.344 -2.0734 -1.3513 -0.8610
  787MOL0     H 6207   3.200   3.406   5.351 -0.6936 -0.0477  1.3851
  787MOL0     H 6208   2.962   3.472   5.346  3.6511  1.0655 -0.7433
  787MOL0     H 6209   2.737   3.385   5.429  0.0924 -2.2368 -1.5284
  787MOL0     H 6210   2.750   3.506   5.305 -0.4799  1.6588  1.6954
  787MOL0     H 6211   2.512   3.482   5.359 -1.7157  0.7628 -3.1085
  787MOL0     H 6212   2.523   3.412   5.210 -0.2913 -0.2558 -0.3420
  787MOL0     H 6213   2.504   3.181   5.280 -1.3193 -0.4021  0.5682
  787MOL0     H 6214   2.548   3.202   5.452 -2.2426 -2.7639 -0.0355
  787MOL0     H 6215   2.299   3.306   5.313  0.2333  1.7682  0.7232
  787MOL0     H 6216   2.352   3.364   5.467 -1.3446 -0.1920  0.0533
  787MOL0     H 6217   2.184   3.195   5.495 -1.3964 -1.7524 -0.6603
  787MOL0     H 6218   2.345   3.156   5.569 -3.9315 -0.5953  0.4071
  787MOL0     H 6219   2.221   3.069   5.314 -0.7081  0.8524  2.0286
  787MOL0     H 6220   2.382   3.016   5.357 -0.0438  1.5063 -0.4847
  787MOL0     H 6221   2.092   2.947   5.445 -0.7902  0.5333  1.5775
  787MOL0     H 6222   2.191   2.976   5.582  0.7180  0.4791 -1.1606
  787MOL0     H 6223   2.191   2.736   5.528  1.9311 -1.8316 -0.1230
  787MOL0     H 6224   2.226   2.773   5.354  1.5112 -2.7501  0.5894
  787MOL0     H 6225   2.878   3.092   5.163 -2.0829  1.0468  1.3090
  787MOL0     H 6226   3.115   3.043   5.149 -2.0567 -1.2009 -0.4154
  787MOL0     H 6227   3.529   2.877   5.279  4.3785 -3.2596 -0.5080
  787MOL0     H 6228   3.751   2.862   5.324 -1.8801 -0.4206  2.9199
  787MOL0     H 6229   4.624   1.595   5.586  1.2390  1.0761 -1.0944
  787MOL0     H 6230   4.774   1.401   5.675  1.0144  0.4191 -0.1437
  787MOL0     H 6231   5.239   1.205   5.534  1.5518  1.2812  2.2027
  787MOL0     H 6232   5.412   1.092   5.656 -0.2623 -1.5745 -2.3939
  787MOL0     H 6233   5.573   0.851   5.835  0.0471 -0.4256  0.2568
  787MOL0     H 6234   5.509   0.895   5.672 -2.1081  1.0994  0.6118
  787MOL0     H 6235   5.566   0.656   5.672  0.6849 -0.1224  2.4551
  787MOL0     H 6236   5.399   0.699   5.643 -1.3031 -1.4218  1.6891
  787MOL0     H 6237   5.456   0.499   5.822  0.2098  0.6413 -0.4973
  787MOL0     H 6238   5.335   0.619   5.875 -0.7319 -0.8528 -2.2468
  787MOL0     H 6239   5.494   0.725   6.019 -1.2662 -0.9327  1.1853
  787MOL0     H 6240   5.490   0.558   6.049 -0.5172 -0.1995 -1.2527
  787MOL0     H 6241   5.901   0.592   5.923  0.3103 -2.2934  2.1583
  787MOL0     H 6242   5.142   0.865   5.868 -0.9763  2.4425  1.8018
  787MOL0     H 6243   4.907   0.902   5.849 -0.8613 -3.0085 -2.1868
  787MOL0     H 6244   4.831   1.027   5.773 -1.1496 -1.6297  1.7991
  787MOL0     H 6245   4.874   0.889   5.675 -1.9012 -0.4919  0.0976
  788MOL0     O 6246   8.554   6.220   3.870 -0.3518  0.1046 -0.4172
  788MOL0     C 6247   8.597   6.244   3.757  0.2089 -0.7232  0.5310
  788MOL0     O 6248   8.526   6.293   3.654 -0.1838  0.4183  0.4555
  788MOL0     C 6249   8.392   6.285   3.664 -0.6084  0.2559  0.4826
  788MOL0     C 6250   8.334   6.387   3.727 -0.7062 -0.2992 -0.4023
  788MOL0     C 6251   8.193   6.387   3.748 -0.4814 -0.3681  0.3713
  788MOL0     C 6252   8.121   6.277   3.697 -0.7926  0.2863 -0.2662
  788MOL0     O 6253   7.986   6.278   3.721 -0.3390  0.0180 -0.1362
  788MOL0     C 6254   7.922   6.151   3.724  0.5694  0.1613  0.1745
  788MOL0     C 6255   7.773   6.178   3.766 -0.6030 -0.5305 -0.7844
  788MOL0     C 6256   7.748   6.260   3.894 -0.1231  0.8849 -0.0782
  788MOL0     C 6257   7.631   6.353   3.879 -0.2535 -0.5168 -0.0057
  788MOL0     C 6258   7.498   6.279   3.834  0.1674 -0.1410 -0.4202
  788MOL0     C 6259   7.379   6.361   3.846  0.1891  0.4556 -1.0768
  788MOL0     C 6260   7.365   6.454   3.718  0.5464  0.1231 -0.2144
  788MOL0     C 6261   7.242   6.536   3.717  0.5376  0.4527 -0.3699
  788MOL0     N 6262   7.196   6.584   3.583  0.2237 -0.6085 -0.3375
  788MOL0     C 6263   7.276   6.597   3.464  0.4818  0.0113 -0.0370
  788MOL0     C 6264   7.196   6.678   3.379 -0.2561  0.1353  0.1639
  788MOL0     C 6265   7.210   6.707   3.230 -0.1297  0.0123  0.4603
  788MOL0     C 6266   7.352   6.746   3.204 -0.2750  0.0509  0.0158
  788MOL0     C 6267   7.405   6.864   3.285 -0.4115  0.9036 -0.4728
  788MOL0     C 6268   7.554   6.873   3.277 -0.4557  0.5029 -0.0328
  788MOL0     O 6269   7.592   6.852   3.143 -0.2280  0.5801  0.1739
  788MOL0     C 6270   7.727   6.816   3.128 -0.2548 -0.5697 -0.6721
  788MOL0     C 6271   7.830   6.805   3.221 -0.9041  0.7393 -0.4133
  788MOL0     C 6272   7.963   6.768   3.196  0.3760  0.4548 -1.0604
  788MOL0     C 6273   8.001   6.742   3.071  0.3561  0.5107  0.2846
  788MOL0     C 6274   8.133   6.689   3.035  0.9260 -0.2669 -0.8223
  788MOL0     O 6275   8.210   6.653   3.140 -0.0310 -0.2691  0.1461
  788MOL0     C 6276   8.306   6.555   3.140  0.2599  0.0544 -0.7122
  788MOL0     C 6277   8.360   6.485   3.030  0.1335  0.4556  0.4730
  788MOL0     C 6278   8.453   6.384   3.039 -0.0956  0.7346 -0.5547
  788MOL0     C 6279   8.493   6.349   3.170 -0.4738 -0.0173 -0.0698
  788MOL0     O 6280   8.566   6.236   3.201  0.1027  0.0146  0.6124
  788MOL0     C 6281   8.624   6.156   3.092 -0.3660 -0.3004 -0.5612
  788MOL0     C 6282   8.754   6.212   3.039 -0.5761  0.1146  0.1307
  788MOL0     C 6283   8.855   6.205   3.142  0.4287  0.7799  0.6985
  788MOL0     C 6284   8.991   6.229   3.068  0.6639 -0.2089  0.3143
  788MOL0     C 6285   9.090   6.215   3.181  0.1729 -0.3188 -0.0807
  788MOL0     C 6286   9.238   6.249   3.137  0.5303  0.4699  0.1971
  788MOL0     C 6287   9.302   6.156   3.040 -0.0295  0.0222 -0.0322
  788MOL0     C 6288   9.309   6.013   3.080  0.0052 -0.0711 -0.5378
  788MOL0    Cl 6289   9.331   5.909   2.934  0.3598 -0.4580 -0.2569
  788MOL0     C 6290   8.436   6.415   3.277  0.8980 -0.4072  0.3096
  788MOL0     C 6291   8.352   6.515   3.270 -0.0961 -0.7727 -0.0490
  788MOL0     O 6292   8.160   6.676   2.918 -0.5717  0.4434 -0.5974
  788MOL0     C 6293   7.914   6.778   2.961  0.7785 -0.1238 -0.2200
  788MOL0     C 6294   7.776   6.810   3.001 -0.1234 -0.2991 -0.0792
  788MOL0     N 6295   7.081   6.705   3.449  0.2682  0.6066 -0.5094
  788MOL0     N 6296   7.078   6.650   3.563 -0.7732 -0.6000 -0.5892
  788MOL0     C 6297   8.187   6.177   3.627 -0.3466  0.5750  0.8754
  788MOL0     C 6298   8.319   6.185   3.600  0.1490  0.5207 -0.8175
  788MOL0     C 6299   8.743   6.228   3.740 -0.2808  0.8838  1.1029
  788MOL0     C 6300   8.825   6.231   3.853  0.5356  0.3361 -0.4425
  788MOL0     C 6301   8.964   6.192   3.847  0.3677 -0.1433  0.4041
  788MOL0     C 6302   9.025   6.176   3.720  0.3173  0.9129  0.9323
  788MOL0     O 6303   9.158   6.142   3.713  0.3566 -0.1800  0.4220
  788MOL0     C 6304   9.182   6.003   3.727  0.2685  0.9212 -0.5580
  788MOL0     C 6305   9.329   5.955   3.705 -0.2873 -0.0222 -0.0308
  788MOL0     C 6306   9.389   6.023   3.587  0.0110  0.3399 -0.9361
  788MOL0     C 6307   9.322   6.007   3.447 -0.4527  0.4955 -0.0508
  788MOL0     C 6308   9.327   5.867   3.395 -0.4106 -0.3577 -0.1245
  788MOL0     C 6309   9.310   5.754   3.359 -0.0159  0.0639  1.0165
  788MOL0     C 6310   8.945   6.182   3.603  0.7982 -0.4617 -0.3054
  788MOL0     C 6311   8.801   6.220   3.609 -0.2890 -0.7816 -0.2930
  788MOL0     C 6312   8.724   6.197   3.477 -0.0783 -0.7198 -0.2337
  788MOL0     H 6313   8.403   6.460   3.768  1.1146 -1.1991 -1.7808
  788MOL0     H 6314   8.133   6.463   3.798 -2.0822 -1.3409  0.0259
  788MOL0     H 6315   7.920   6.101   3.627 -0.7332 -0.3572  0.4364
  788MOL0     H 6316   7.968   6.090   3.802 -0.0765 -0.3992  0.1363
  788MOL0     H 6317   7.714   6.087   3.781 -2.0608  0.8354  2.9562
  788MOL0     H 6318   7.718   6.226   3.684 -1.3340  0.1324  0.0810
  788MOL0     H 6319   7.827   6.331   3.917  0.2884  0.4366 -0.0990
  788MOL0     H 6320   7.741   6.198   3.984 -0.7892 -0.2331 -0.8705
  788MOL0     H 6321   7.620   6.396   3.979 -1.9920  0.3776 -0.5348
  788MOL0     H 6322   7.651   6.436   3.811  1.2425  0.8075  1.9593
  788MOL0     H 6323   7.501   6.243   3.731 -2.5522  0.8530 -0.9265
  788MOL0     H 6324   7.485   6.197   3.905  3.4523 -1.2146 -0.8677
  788MOL0     H 6325   7.292   6.297   3.831 -1.2724  2.7510 -3.0938
  788MOL0     H 6326   7.364   6.412   3.942  1.8300  1.6667 -1.4134
  788MOL0     H 6327   7.361   6.379   3.639 -2.3986  0.1033 -0.1390
  788MOL0     H 6328   7.453   6.519   3.714 -0.2171  1.1723 -0.2083
  788MOL0     H 6329   7.160   6.477   3.758  0.5039  0.9842  0.3402
  788MOL0     H 6330   7.246   6.620   3.787  1.4602  0.4953 -0.4525
  788MOL0     H 6331   7.375   6.556   3.446 -0.1646 -1.2202 -0.9061
  788MOL0     H 6332   7.187   6.613   3.178 -0.2575  0.7014 -0.7714
  788MOL0     H 6333   7.142   6.783   3.190 -2.5734 -1.8808  0.7895
  788MOL0     H 6334   7.411   6.657   3.229 -0.0704  1.0793  3.7189
  788MOL0     H 6335   7.361   6.764   3.096 -0.5019  0.3139  0.0399
  788MOL0     H 6336   7.393   6.853   3.393  2.5453 -0.0238 -0.1443
  788MOL0     H 6337   7.368   6.962   3.255  1.6735  1.4420 -1.4770
  788MOL0     H 6338   7.580   6.789   3.343 -1.3214 -0.6909 -1.1497
  788MOL0     H 6339   7.580   6.969   3.321 -3.2284  0.4360  2.0558
  788MOL0     H 6340   7.810   6.818   3.327  0.4756  2.9649 -0.3541
  788MOL0     H 6341   8.017   6.748   3.287 -3.1282  1.2255  1.3794
  788MOL0     H 6342   8.317   6.496   2.931 -0.1825  0.6569  0.6310
  788MOL0     H 6343   8.491   6.327   2.955 -0.4612  1.6091 -1.3456
  788MOL0     H 6344   8.641   6.054   3.129  1.2984 -0.2418 -1.0699
  788MOL0     H 6345   8.548   6.147   3.014 -1.8101  0.9069  0.6522
  788MOL0     H 6346   8.773   6.140   2.959  0.5288 -0.1983  0.6541
  788MOL0     H 6347   8.744   6.308   2.988 -2.1772 -0.5489 -0.8763
  788MOL0     H 6348   8.825   6.281   3.214  0.8705 -0.2030  1.9550
  788MOL0     H 6349   8.857   6.104   3.184 -0.4095  0.4807  0.0376
  788MOL0     H 6350   8.993   6.325   3.016 -0.2250  0.1476  0.9061
  788MOL0     H 6351   9.012   6.156   2.989 -0.7689  1.5886 -1.8568
  788MOL0     H 6352   9.085   6.122   3.238 -1.0163  0.8719  1.8757
  788MOL0     H 6353   9.072   6.292   3.256 -0.1129  0.3628 -0.8379
  788MOL0     H 6354   9.240   6.349   3.094 -0.2903 -0.0492 -1.1127
  788MOL0     H 6355   9.294   6.242   3.230  1.2716 -4.4025 -0.3361
  788MOL0     H 6356   9.400   6.200   3.019  1.5872 -3.6062 -0.9841
  788MOL0     H 6357   9.241   6.152   2.949  1.5076 -0.2924 -1.1000
  788MOL0     H 6358   9.384   5.999   3.158  0.3272  1.2991 -0.5821
  788MOL0     H 6359   9.208   5.998   3.119 -1.4220  3.3141 -2.4960
  788MOL0     H 6360   8.464   6.367   3.371  1.8184  0.6085  0.5717
  788MOL0     H 6361   8.319   6.570   3.358  0.2924  0.4061 -0.6310
  788MOL0     H 6362   7.944   6.794   2.858 -0.2055  1.2723 -0.3237
  788MOL0     H 6363   7.716   6.813   2.911 -2.2450  0.9912  1.2885
  788MOL0     H 6364   8.133   6.094   3.581  0.6953 -0.6412  1.7849
  788MOL0     H 6365   8.372   6.112   3.539 -2.1539 -1.8355 -0.2006
  788MOL0     H 6366   8.782   6.232   3.952  1.5987 -2.0891  0.1066
  788MOL0     H 6367   9.025   6.163   3.932 -2.6897  0.1325  2.9086
  788MOL0     H 6368   9.126   5.944   3.653  0.1814  0.8122 -0.4039
  788MOL0     H 6369   9.150   5.980   3.829  0.0279 -0.1847 -0.8778
  788MOL0     H 6370   9.331   5.846   3.700  0.1278 -0.0640  0.9673
  788MOL0     H 6371   9.383   5.992   3.792  0.4247 -1.9854  0.4036
  788MOL0     H 6372   9.493   5.990   3.574  0.2137 -0.7366  2.4355
  788MOL0     H 6373   9.389   6.132   3.593  1.0222  0.2730  0.8296
  788MOL0     H 6374   9.217   6.035   3.459 -0.3798  0.1531  1.5477
  788MOL0     H 6375   9.359   6.075   3.369 -0.6902  3.0063  1.8828
  788MOL0     H 6376   9.287   5.655   3.324  0.6592  1.1943 -3.0835
  788MOL0     H 6377   8.994   6.144   3.514 -0.3935 -1.0042 -0.7587
  788MOL0     H 6378   8.632   6.139   3.489 -2.3883  2.1539 -2.7182
  788MOL0     H 6379   8.687   6.291   3.437 -0.1003 -0.2901  0.7574
  788MOL0     H 6380   8.783   6.141   3.404 -0.2868  0.3088 -1.2118
  789MOL0     O 6381   3.900   2.761  10.522  0.4309  0.1092  0.6670
  789MOL0     C 6382   3.931   2.654  10.468 -0.5586  0.0289  0.3957
  789MOL0     O 6383   4.054   2.596  10.477  0.0097 -0.0770 -0.3394
  789MOL0     C 6384   4.153   2.653  10.548  0.0143  0.8499  0.8665
  789MOL0     C 6385   4.242   2.730  10.472  1.2523  0.0425  0.1460
  789MOL0     C 6386   4.357   2.781  10.525 -0.2263  0.0315 -0.0748
  789MOL0     C 6387   4.398   2.739  10.654  0.2147  0.2954  0.1178
  789MOL0     O 6388   4.504   2.778  10.727  0.2178 -0.6332 -0.4305
  789MOL0     C 6389   4.576   2.902  10.681  0.3452  0.7637  0.5217
  789MOL0     C 6390   4.674   2.857  10.567 -0.3271  0.5978  0.0503
  789MOL0     C 6391   4.807   2.821  10.639 -0.4237 -0.8075  0.0905
  789MOL0     C 6392   4.914   2.807  10.533 -0.6361 -0.2422  0.1166
  789MOL0     C 6393   5.055   2.753  10.579 -0.3716 -0.2847  0.0995
  789MOL0     C 6394   5.027   2.599  10.605  0.0157 -0.4014  0.9182
  789MOL0     C 6395   5.143   2.539  10.695 -1.1175 -0.4731  0.6514
  789MOL0     C 6396   5.281   2.528  10.621  0.0476 -0.3411 -0.3991
  789MOL0     N 6397   5.375   2.640  10.644  0.5144  0.3325 -0.4956
  789MOL0     C 6398   5.439   2.658  10.768  0.3863 -0.0667  0.2134
  789MOL0     C 6399   5.532   2.754  10.745 -0.0736  0.5966 -1.0263
  789MOL0     C 6400   5.632   2.817  10.832 -0.6162  0.4251 -0.3277
  789MOL0     C 6401   5.777   2.778  10.792  0.9235  0.2991 -0.3097
  789MOL0     C 6402   5.855   2.703  10.905  0.0649 -1.0077 -0.5778
  789MOL0     C 6403   5.967   2.621  10.858  0.5429  0.1082  0.2778
  789MOL0     O 6404   6.067   2.709  10.806 -0.0531  0.5980  0.4818
  789MOL0     C 6405   6.163   2.763  10.887 -0.5375  0.6695 -0.1576
  789MOL0     C 6406   6.218   2.713  10.998  0.0928 -0.3460 -0.2230
  789MOL0     C 6407   6.317   2.777  11.072 -1.3369 -0.2497  0.0716
  789MOL0     C 6408   6.382   2.891  11.021 -0.2964  0.2427  0.0085
  789MOL0     C 6409   6.503   2.948  11.094 -0.2604  0.3346 -0.1846
  789MOL0     O 6410   6.544   2.883  11.204  1.4096 -0.3554  0.7231
  789MOL0     C 6411   6.616   2.936  11.299  0.1489  0.6538 -0.1383
  789MOL0     C 6412   6.750   2.937  11.294 -0.0705 -0.7219  0.4797
  789MOL0     C 6413   6.821   2.999  11.398 -1.2906 -0.6158 -0.2693
  789MOL0     C 6414   6.762   3.059  11.507  0.7755 -0.2181 -0.1355
  789MOL0     O 6415   6.846   3.109  11.600 -0.9464  0.6215  0.0505
  789MOL0     C 6416   6.798   3.108  11.738 -1.1491  0.2505 -0.4156
  789MOL0     C 6417   6.894   3.168  11.845 -0.4962  1.1461 -0.6946
  789MOL0     C 6418   6.920   3.319  11.817  0.5216 -0.6287  0.4603
  789MOL0     C 6419   7.012   3.379  11.922 -0.5700 -0.1469  0.0401
  789MOL0     C 6420   6.997   3.543  11.925  0.2463  0.3843 -0.2960
  789MOL0     C 6421   6.879   3.605  12.002 -0.2076  0.6035 -0.3112
  789MOL0     C 6422   6.855   3.758  11.997 -0.7354  0.3647  1.0221
  789MOL0     C 6423   6.802   3.804  11.865 -0.3534 -0.0995  0.4579
  789MOL0    Cl 6424   6.774   3.975  11.878 -0.2158  0.2005 -0.3368
  789MOL0     C 6425   6.625   3.062  11.506  0.3729 -1.0134 -0.5048
  789MOL0     C 6426   6.552   2.993  11.412  0.1192 -0.4655 -0.6917
  789MOL0     O 6427   6.570   3.039  11.034 -0.1561 -0.0012  0.5385
  789MOL0     C 6428   6.343   2.942  10.891  0.4860  0.4204  0.1174
  789MOL0     C 6429   6.232   2.878  10.825  0.7389  0.3420 -2.0746
  789MOL0     N 6430   5.518   2.797  10.617 -0.7409 -0.7139  0.2050
  789MOL0     N 6431   5.423   2.732  10.568 -0.3718 -0.2275 -0.1441
  789MOL0     C 6432   4.308   2.657  10.727 -1.0574 -1.1578  0.5891
  789MOL0     C 6433   4.193   2.611  10.671  1.2741  0.4600  0.0043
  789MOL0     C 6434   3.824   2.578  10.414 -0.2139 -0.1394 -0.7504
  789MOL0     C 6435   3.855   2.468  10.332 -0.3775 -0.4265  0.0416
  789MOL0     C 6436   3.764   2.403  10.251 -0.2328  0.1608  0.3566
  789MOL0     C 6437   3.632   2.436  10.252 -0.0317  0.6328  0.2220
  789MOL0     O 6438   3.570   2.387  10.145 -0.0633  0.2032 -0.1606
  789MOL0     C 6439   3.429   2.373  10.139 -1.9010 -1.1663 -0.1203
  789MOL0     C 6440   3.377   2.285  10.255 -0.2287 -0.6204  0.0934
  789MOL0     C 6441   3.225   2.270  10.248  0.2853  0.4527  0.6495
  789MOL0     C 6442   3.156   2.407  10.242 -0.2210  0.2164 -0.2083
  789MOL0     C 6443   3.016   2.380  10.229 -0.1643 -0.7291 -0.4866
  789MOL0     C 6444   2.892   2.356  10.221 -0.2907 -0.0180  0.1774
  789MOL0     C 6445   3.594   2.543  10.335  0.0987  0.7431  0.8992
  789MOL0     C 6446   3.681   2.608  10.423  0.3655 -0.6688 -0.5080
  789MOL0     C 6447   3.625   2.709  10.520 -0.4843 -0.0542 -0.2178
  789MOL0     H 6448   4.220   2.769  10.373  0.8459  0.8520  0.5417
  789MOL0     H 6449   4.409   2.850  10.459 -1.7936  0.9697 -0.3886
  789MOL0     H 6450   4.507   2.978  10.643 -0.6896 -0.1904  0.4318
  789MOL0     H 6451   4.631   2.949  10.763  0.9913 -1.0710  1.2031
  789MOL0     H 6452   4.684   2.941  10.498 -2.1844 -0.6270 -1.8413
  789MOL0     H 6453   4.633   2.778  10.504 -2.5285 -0.2510  2.3612
  789MOL0     H 6454   4.792   2.728  10.695  0.5078  0.6776  2.9982
  789MOL0     H 6455   4.853   2.892  10.708 -2.0431  2.7174 -2.1841
  789MOL0     H 6456   4.875   2.756  10.444 -4.1032  0.7339  0.9594
  789MOL0     H 6457   4.933   2.906  10.490 -2.0166 -1.2082 -3.0255
  789MOL0     H 6458   5.123   2.759  10.493 -1.3394 -0.7635 -0.7270
  789MOL0     H 6459   5.103   2.799  10.666 -0.2432 -2.3113  1.1772
  789MOL0     H 6460   4.928   2.587  10.649 -0.4202  1.4249  0.5270
  789MOL0     H 6461   5.039   2.537  10.515 -0.8732 -1.6350  1.6212
  789MOL0     H 6462   5.106   2.450  10.747 -1.3084 -0.0963  1.1644
  789MOL0     H 6463   5.150   2.608  10.779 -3.5175 -0.2459  0.7380
  789MOL0     H 6464   5.322   2.435  10.663  1.8906  1.5287  2.2625
  789MOL0     H 6465   5.272   2.501  10.516 -2.8034  1.5201 -0.7219
  789MOL0     H 6466   5.420   2.605  10.861 -2.2943  1.0339  0.3727
  789MOL0     H 6467   5.632   2.925  10.845 -4.2460  0.2748  2.0944
  789MOL0     H 6468   5.621   2.787  10.936  1.5181  3.3058  0.8778
  789MOL0     H 6469   5.772   2.720  10.700 -0.7318  1.3403 -0.9158
  789MOL0     H 6470   5.842   2.864  10.771  2.3294  0.0242  2.4925
  789MOL0     H 6471   5.777   2.638  10.946 -2.5930  1.8516 -0.6608
  789MOL0     H 6472   5.885   2.775  10.982 -2.2316 -1.7963  1.1805
  789MOL0     H 6473   5.929   2.557  10.778 -1.0067  4.1559 -2.5210
  789MOL0     H 6474   5.980   2.560  10.948 -2.6140 -2.5762 -0.8924
  789MOL0     H 6475   6.177   2.618  11.029 -3.3979  1.3228  0.7481
  789MOL0     H 6476   6.350   2.735  11.166  0.1962 -1.7663 -1.0924
  789MOL0     H 6477   6.792   2.895  11.203  1.1058  1.6909 -0.1671
  789MOL0     H 6478   6.927   3.017  11.388 -0.8107 -0.7266  3.1939
  789MOL0     H 6479   6.713   3.173  11.757 -0.3919  0.5898  2.1818
  789MOL0     H 6480   6.786   3.004  11.770  0.2888  0.4829  1.0128
  789MOL0     H 6481   6.855   3.159  11.947 -0.4018  4.2345 -0.2849
  789MOL0     H 6482   6.991   3.117  11.852  0.3363  2.7548  0.2005
  789MOL0     H 6483   6.952   3.338  11.714 -1.3118 -2.4809 -0.5401
  789MOL0     H 6484   6.826   3.376  11.821  0.1986 -0.7120 -3.0662
  789MOL0     H 6485   7.115   3.358  11.891 -0.2293 -1.3410  1.8379
  789MOL0     H 6486   7.001   3.341  12.024 -0.9423 -1.3768 -0.4337
  789MOL0     H 6487   6.992   3.574  11.820 -2.4696 -0.2706 -0.4420
  789MOL0     H 6488   7.089   3.581  11.969  1.8292 -2.6846 -0.6873
  789MOL0     H 6489   6.786   3.551  11.979 -0.2716  0.6587 -0.1781
  789MOL0     H 6490   6.889   3.594  12.110 -2.4014 -0.4871 -0.1703
  789MOL0     H 6491   6.954   3.801  12.013 -1.2012  1.4534  1.0641
  789MOL0     H 6492   6.787   3.781  12.079 -0.7250  2.8187  0.4281
  789MOL0     H 6493   6.881   3.794  11.791  2.9212 -0.1549  3.6811
  789MOL0     H 6494   6.708   3.757  11.832 -2.4781  2.4367  2.4455
  789MOL0     H 6495   6.582   3.103  11.597 -0.8283 -1.5594 -0.8116
  789MOL0     H 6496   6.446   3.000  11.434  0.1329  0.1086 -0.7955
  789MOL0     H 6497   6.389   3.033  10.853  1.6732 -0.0344  0.4078
  789MOL0     H 6498   6.205   2.917  10.727 -1.1403 -1.7202 -2.4528
  789MOL0     H 6499   4.330   2.634  10.831  0.9503  0.4062  0.6024
  789MOL0     H 6500   4.136   2.539  10.728  0.3590  1.0623 -0.1357
  789MOL0     H 6501   3.955   2.434  10.310 -1.1932 -2.1183 -1.3449
  789MOL0     H 6502   3.797   2.323  10.187 -0.7698 -1.0629  1.5644
  789MOL0     H 6503   3.393   2.335  10.043 -2.3611 -1.1979  0.0606
  789MOL0     H 6504   3.411   2.480  10.150  0.1443 -0.8144  0.2013
  789MOL0     H 6505   3.397   2.324  10.355  0.6377  2.0778 -1.0412
  789MOL0     H 6506   3.424   2.187  10.251 -0.9828 -1.0576  1.3077
  789MOL0     H 6507   3.207   2.223  10.345  0.3631  0.2741  0.5769
  789MOL0     H 6508   3.209   2.206  10.161 -3.7040  1.4391  0.4810
  789MOL0     H 6509   3.153   2.451  10.342 -0.3040 -1.3384  0.5070
  789MOL0     H 6510   3.189   2.477  10.165 -0.5734 -1.6486 -2.1514
  789MOL0     H 6511   2.789   2.327  10.231 -0.9821  1.7360 -1.2261
  789MOL0     H 6512   3.489   2.568  10.337  0.4274  2.7436 -1.4237
  789MOL0     H 6513   3.640   2.671  10.622 -4.2274 -0.2616  0.3992
  789MOL0     H 6514   3.664   2.810  10.504 -1.1098  0.5277  1.6651
  789MOL0     H 6515   3.517   2.715  10.508 -0.5914  0.8365  1.0305
  790MOL0     O 6516  10.932  10.493   2.809  0.1390 -0.4729  0.0388
  790MOL0     C 6517  10.906  10.398   2.738 -0.0298  0.1218 -0.0556
  790MOL0     O 6518  10.988  10.356   2.635  0.5216 -0.1429  0.8575
  790MOL0     C 6519  11.105  10.421   2.600 -0.2056 -0.3425 -0.6759
  790MOL0     C 6520  11.186  10.362   2.503 -0.4682  0.1796 -0.3519
  790MOL0     C 6521  11.312  10.412   2.458 -0.0271  0.0772 -0.7176
  790MOL0     C 6522  11.355  10.529   2.509 -0.1818  0.8307 -0.3762
  790MOL0     O 6523  11.478  10.569   2.456 -0.0139  0.4040 -0.2092
  790MOL0     C 6524  11.572  10.611   2.559  0.2443 -0.1841  0.6702
  790MOL0     C 6525  11.712  10.603   2.495  0.7282 -1.4053 -0.5525
  790MOL0     C 6526  11.804  10.630   2.615 -0.3540 -0.6209  0.4978
  790MOL0     C 6527  11.944  10.658   2.566 -0.6742 -0.6276  0.2059
  790MOL0     C 6528  12.041  10.688   2.683  0.4249 -0.4872 -0.0661
  790MOL0     C 6529  12.181  10.681   2.625  0.1878  0.4907  0.1430
  790MOL0     C 6530  12.271  10.701   2.754  0.2501 -0.6412 -0.5616
  790MOL0     C 6531  12.423  10.694   2.718  0.2717 -0.1718 -0.4542
  790MOL0     N 6532  12.511  10.720   2.837 -1.2234  0.1407  0.4380
  790MOL0     C 6533  12.501  10.666   2.963  0.3108 -0.3769  0.7128
  790MOL0     C 6534  12.600  10.724   3.029  0.3131  0.2606 -0.2966
  790MOL0     C 6535  12.631  10.686   3.166 -0.0550 -1.0185 -0.0175
  790MOL0     C 6536  12.670  10.546   3.174 -0.0323  0.3771  0.0904
  790MOL0     C 6537  12.790  10.507   3.098  0.5275 -0.1630 -0.5978
  790MOL0     C 6538  12.913  10.579   3.145  0.4142  0.0013  0.0231
  790MOL0     O 6539  12.913  10.601   3.283 -0.7121 -0.2873 -0.1943
  790MOL0     C 6540  13.003  10.701   3.322 -0.0014 -0.4069  0.7738
  790MOL0     C 6541  13.140  10.690   3.289 -0.9909  0.3471  0.3038
  790MOL0     C 6542  13.231  10.783   3.323  0.5030  0.3912  0.9731
  790MOL0     C 6543  13.184  10.901   3.383 -0.1870  0.2062 -1.0040
  790MOL0     C 6544  13.279  11.004   3.437  0.6300  0.3957  1.0572
  790MOL0     O 6545  13.225  11.110   3.484  0.1136  0.6147  0.3871
  790MOL0     C 6546  13.302  11.222   3.519  0.1267 -0.1378 -0.0758
  790MOL0     C 6547  13.373  11.251   3.634 -0.4644  0.6685 -1.3366
  790MOL0     C 6548  13.427  11.371   3.659 -0.5788  0.3970  0.1921
  790MOL0     C 6549  13.427  11.466   3.563  0.4204 -0.0794 -1.1430
  790MOL0     O 6550  13.494  11.577   3.588  0.1248 -1.0184 -0.5793
  790MOL0     C 6551  13.475  11.703   3.511  0.1415 -0.7261 -1.0512
  790MOL0     C 6552  13.521  11.827   3.598 -0.0460 -0.2119  0.1630
  790MOL0     C 6553  13.536  11.954   3.512 -1.4554  1.1909 -0.0017
  790MOL0     C 6554  13.626  12.063   3.577  0.0901 -0.5431 -0.1584
  790MOL0     C 6555  13.571  12.204   3.550 -0.0710  0.3135  0.3144
  790MOL0     C 6556  13.664  12.310   3.620  0.5635  0.1109 -0.1663
  790MOL0     C 6557  13.617  12.459   3.600 -0.2205 -0.7675 -0.4798
  790MOL0     C 6558  13.682  12.558   3.695  0.0880 -0.2919 -1.4492
  790MOL0    Cl 6559  13.571  12.698   3.723  0.1030  0.0932 -0.1509
  790MOL0     C 6560  13.364  11.443   3.445 -0.6960  0.5697 -0.3994
  790MOL0     C 6561  13.297  11.321   3.426  0.5890  0.4246  0.4923
  790MOL0     O 6562  13.397  10.974   3.436  0.5994 -0.2234 -0.3991
  790MOL0     C 6563  13.043  10.918   3.403 -0.0717 -0.9731  0.4128
  790MOL0     C 6564  12.954  10.813   3.387 -0.3912  0.3324  0.1313
  790MOL0     N 6565  12.676  10.806   2.948  0.9282  0.1632 -0.1386
  790MOL0     N 6566  12.610  10.811   2.836  0.0994 -0.2009  0.8900
  790MOL0     C 6567  11.282  10.592   2.606 -0.6339 -0.9979 -0.6163
  790MOL0     C 6568  11.155  10.545   2.649 -0.5914  0.3976 -0.2780
  790MOL0     C 6569  10.768  10.338   2.755 -0.1486 -0.3650 -0.0398
  790MOL0     C 6570  10.683  10.380   2.863 -0.5388  1.1409  0.8498
  790MOL0     C 6571  10.547  10.355   2.864  0.1453 -0.3001 -0.0737
  790MOL0     C 6572  10.497  10.272   2.766  0.9028 -0.1075 -0.5719
  790MOL0     O 6573  10.360  10.234   2.777 -0.7057  0.2395 -0.1517
  790MOL0     C 6574  10.310  10.119   2.715 -1.2003  0.6044 -1.0869
  790MOL0     C 6575  10.180  10.065   2.776  0.1045  0.4428 -0.6942
  790MOL0     C 6576  10.069  10.163   2.738 -0.6541 -0.0121  0.1325
  790MOL0     C 6577  10.036  10.282   2.821 -0.1997  0.2984  0.0925
  790MOL0     C 6578  10.022  10.264   2.967 -0.2080  0.0976  0.1834
  790MOL0     C 6579   9.996  10.270   3.086  0.2966 -0.0035  0.2036
  790MOL0     C 6580  10.581  10.221   2.661 -0.6450 -0.2281  0.2858
  790MOL0     C 6581  10.720  10.239   2.660  0.6443 -0.5980  0.5479
  790MOL0     C 6582  10.797  10.179   2.551  0.5272  0.6472 -0.5669
  790MOL0     H 6583  11.135  10.273   2.465 -0.6107  0.1648 -0.1258
  790MOL0     H 6584  11.367  10.354   2.384 -0.7381 -0.0201 -1.1752
  790MOL0     H 6585  11.554  10.715   2.588 -1.0960 -0.9247  2.6820
  790MOL0     H 6586  11.568  10.552   2.651 -1.4913 -2.2793 -0.6691
  790MOL0     H 6587  11.721  10.680   2.418  1.8367  1.5651  2.3046
  790MOL0     H 6588  11.726  10.498   2.469 -1.8872 -1.6520 -1.1849
  790MOL0     H 6589  11.802  10.539   2.676 -2.3300 -1.8060 -1.2050
  790MOL0     H 6590  11.757  10.714   2.667  1.5205 -0.2268  1.6581
  790MOL0     H 6591  11.971  10.564   2.516 -0.2294 -0.2840 -0.2155
  790MOL0     H 6592  11.949  10.736   2.489 -0.4617 -0.5381  0.3089
  790MOL0     H 6593  12.021  10.787   2.725  0.7972  0.0915 -1.2264
  790MOL0     H 6594  12.029  10.606   2.754  1.0919  0.3087  0.9865
  790MOL0     H 6595  12.187  10.582   2.578 -0.9125 -0.1386  1.2822
  790MOL0     H 6596  12.190  10.760   2.550 -1.1095 -0.3021 -0.8827
  790MOL0     H 6597  12.244  10.618   2.819 -0.6529  0.7476  0.9200
  790MOL0     H 6598  12.257  10.799   2.801 -1.6038 -1.2327  0.1698
  790MOL0     H 6599  12.440  10.588   2.696  0.2143 -0.2965  0.0835
  790MOL0     H 6600  12.455  10.760   2.637 -0.7225  2.2022  0.9828
  790MOL0     H 6601  12.430  10.599   3.010  1.6227 -2.2413  0.1513
  790MOL0     H 6602  12.717  10.737   3.209  0.1401 -0.6919 -0.7738
  790MOL0     H 6603  12.547  10.711   3.232  0.1971 -0.7179  0.1927
  790MOL0     H 6604  12.673  10.519   3.280  0.4835  0.4492  0.0998
  790MOL0     H 6605  12.590  10.481   3.140  1.8743 -3.1582  1.7651
  790MOL0     H 6606  12.759  10.517   2.994 -1.7746  0.2456  0.0768
  790MOL0     H 6607  12.808  10.399   3.110  0.1174 -0.2897 -1.0655
  790MOL0     H 6608  12.924  10.674   3.093 -3.4007 -0.6109 -2.2273
  790MOL0     H 6609  13.000  10.523   3.108 -1.1594 -2.2676 -0.4149
  790MOL0     H 6610  13.177  10.601   3.239 -2.1829  0.5412 -0.9913
  790MOL0     H 6611  13.335  10.752   3.322  1.0199  2.0308  0.7100
  790MOL0     H 6612  13.377  11.174   3.710 -2.3880  1.4457 -0.3919
  790MOL0     H 6613  13.482  11.390   3.751  1.9948  2.0158 -1.5561
  790MOL0     H 6614  13.537  11.690   3.422 -0.2400 -0.7132 -1.3207
  790MOL0     H 6615  13.373  11.721   3.476 -1.4830 -1.6139  2.7375
  790MOL0     H 6616  13.445  11.840   3.675 -0.0015 -0.4978  0.2552
  790MOL0     H 6617  13.613  11.786   3.640  2.4004  3.2490 -1.3207
  790MOL0     H 6618  13.579  11.928   3.415  0.6893 -0.3139  1.2730
  790MOL0     H 6619  13.434  11.992   3.499 -1.4988  0.6921 -1.2624
  790MOL0     H 6620  13.723  12.045   3.528  0.4465 -1.8420  0.9697
  790MOL0     H 6621  13.650  12.046   3.682 -0.5841  2.5058  0.5837
  790MOL0     H 6622  13.466  12.212   3.579  0.2079  0.0740  1.4560
  790MOL0     H 6623  13.562  12.221   3.442  0.3616  1.5719  0.4672
  790MOL0     H 6624  13.665  12.285   3.726 -1.6626 -1.1495 -0.3788
  790MOL0     H 6625  13.763  12.305   3.572  1.2753  1.4890  1.0853
  790MOL0     H 6626  13.509  12.472   3.617  0.3935  3.1496  1.4357
  790MOL0     H 6627  13.631  12.483   3.495 -0.5397  0.9548 -0.1604
  790MOL0     H 6628  13.700  12.506   3.790 -0.0407 -0.8948 -1.7452
  790MOL0     H 6629  13.780  12.588   3.656  2.2240 -1.0944  2.7544
  790MOL0     H 6630  13.345  11.523   3.375 -3.7935 -0.2697 -0.6471
  790MOL0     H 6631  13.243  11.291   3.337  1.2720 -0.2463  0.3059
  790MOL0     H 6632  12.996  11.010   3.436  1.1090 -0.9878  2.3216
  790MOL0     H 6633  12.849  10.824   3.411 -1.0928 -1.3115 -1.8637
  790MOL0     H 6634  11.323  10.682   2.652 -1.4505 -0.7349 -0.3823
  790MOL0     H 6635  11.101  10.614   2.714  2.8292  2.0686  1.0610
  790MOL0     H 6636  10.735  10.436   2.940  0.0845  1.9463 -0.1334
  790MOL0     H 6637  10.488  10.380   2.952  1.5571 -1.3303  1.2190
  790MOL0     H 6638  10.375  10.031   2.726  0.2791  1.8931  1.4237
  790MOL0     H 6639  10.287  10.125   2.608 -0.4546  0.4189 -1.2652
  790MOL0     H 6640  10.191  10.059   2.885  1.6132  1.8627 -0.7229
  790MOL0     H 6641  10.155   9.967   2.735  1.1920  0.4925 -1.5077
  790MOL0     H 6642   9.978  10.103   2.727 -0.6185 -0.1117  0.3653
  790MOL0     H 6643  10.086  10.195   2.635 -0.7445 -3.3126 -1.0236
  790MOL0     H 6644  10.118  10.354   2.818 -1.7563  2.1045 -1.3664
  790MOL0     H 6645   9.945  10.340   2.798  0.0811  0.8218  0.2769
  790MOL0     H 6646   9.965  10.271   3.189 -0.1175  2.2450  0.0978
  790MOL0     H 6647  10.518  10.165   2.592 -1.6427 -1.5972  2.1828
  790MOL0     H 6648  10.738  10.102   2.501 -0.5026  0.8255  0.3308
  790MOL0     H 6649  10.819  10.256   2.477 -0.5905  0.3337 -1.2667
  790MOL0     H 6650  10.892  10.137   2.585 -0.3688  1.7894  4.0227
  791MOL0     O 6651   2.813   2.898   6.907 -0.0268 -0.3708 -0.0683
  791MOL0     C 6652   2.760   2.790   6.945  0.3171 -0.5822 -0.0071
  791MOL0     O 6653   2.798   2.669   6.901  0.9205 -0.5025 -0.5237
  791MOL0     C 6654   2.911   2.658   6.828 -0.0359  0.3163  0.2536
  791MOL0     C 6655   3.021   2.598   6.886 -0.6686  0.4688  0.9322
  791MOL0     C 6656   3.145   2.589   6.818 -0.3292  0.2015 -0.2172
  791MOL0     C 6657   3.155   2.647   6.688  0.0335 -0.0975 -0.0885
  791MOL0     O 6658   3.272   2.630   6.626 -0.4475  0.4253  0.8555
  791MOL0     C 6659   3.375   2.715   6.668  0.1085  0.0983 -0.4502
  791MOL0     C 6660   3.483   2.718   6.560 -0.3016 -0.1013  0.4477
  791MOL0     C 6661   3.554   2.584   6.537 -0.1885 -0.4324 -0.0336
  791MOL0     C 6662   3.547   2.523   6.396 -0.5851  0.0008 -0.5187
  791MOL0     C 6663   3.631   2.403   6.367 -0.8690  0.3486 -1.2384
  791MOL0     C 6664   3.616   2.354   6.220 -0.1585  0.7025  0.2206
  791MOL0     C 6665   3.470   2.311   6.196 -0.2049  0.0374 -0.9565
  791MOL0     C 6666   3.461   2.222   6.081  0.3361 -0.4398 -0.6371
  791MOL0     N 6667   3.322   2.241   6.028  0.0383  0.3944  0.4268
  791MOL0     C 6668   3.225   2.157   6.064 -0.6226 -0.1071 -0.1398
  791MOL0     C 6669   3.118   2.185   5.987 -1.4006  0.0412  0.4368
  791MOL0     C 6670   2.997   2.104   5.971 -0.4106  0.6026 -0.7781
  791MOL0     C 6671   2.876   2.181   6.013 -0.2034 -0.5190  0.1845
  791MOL0     C 6672   2.760   2.080   6.027  0.6748 -0.4250  0.1377
  791MOL0     C 6673   2.637   2.147   6.084  0.4068  0.0230 -0.5463
  791MOL0     O 6674   2.537   2.049   6.104  1.2211 -0.2340  0.0937
  791MOL0     C 6675   2.401   2.070   6.089 -0.8115  0.1816  0.1207
  791MOL0     C 6676   2.314   1.977   6.036  0.0073  0.4757  0.2470
  791MOL0     C 6677   2.175   1.996   6.045  0.9611  0.0281  0.3784
  791MOL0     C 6678   2.114   2.114   6.087 -0.1922  0.2075 -0.0726
  791MOL0     C 6679   1.972   2.138   6.095 -0.5387  0.5495 -0.0321
  791MOL0     O 6680   1.929   2.207   6.199  0.6848 -0.1848 -0.2254
  791MOL0     C 6681   1.798   2.217   6.245  0.0144  1.6017 -0.3287
  791MOL0     C 6682   1.689   2.133   6.209  0.8372 -0.1439  0.7977
  791MOL0     C 6683   1.557   2.151   6.266 -0.5048 -0.9019  0.0933
  791MOL0     C 6684   1.546   2.250   6.360 -0.0594 -0.2001  0.3427
  791MOL0     O 6685   1.429   2.292   6.411  0.2499  0.6527  0.1931
  791MOL0     C 6686   1.350   2.192   6.473 -0.1635 -0.4830 -0.3453
  791MOL0     C 6687   1.342   2.209   6.628 -0.0476 -0.2608 -0.4975
  791MOL0     C 6688   1.242   2.307   6.690 -0.0480 -0.0173  0.7220
  791MOL0     C 6689   1.316   2.442   6.692  0.2354  0.3509  0.1331
  791MOL0     C 6690   1.234   2.544   6.759 -0.3093  0.1591 -0.6538
  791MOL0     C 6691   1.238   2.543   6.907  0.2211 -0.7049  0.4054
  791MOL0     C 6692   1.178   2.674   6.962  0.0035 -0.8731  0.9742
  791MOL0     C 6693   1.157   2.663   7.114  0.1141 -1.3433  0.0482
  791MOL0    Cl 6694   1.086   2.808   7.181 -0.0950  0.3842 -0.4438
  791MOL0     C 6695   1.653   2.335   6.391  0.7781  0.8000 -1.2082
  791MOL0     C 6696   1.778   2.319   6.342  0.4671  0.4365 -0.2766
  791MOL0     O 6697   1.903   2.085   6.003  1.2731 -0.8272  0.3681
  791MOL0     C 6698   2.204   2.219   6.137  0.4891 -0.0233  0.9150
  791MOL0     C 6699   2.343   2.190   6.132 -0.1328 -0.3465 -0.2299
  791MOL0     N 6700   3.150   2.292   5.907 -0.2420 -0.4948  0.9842
  791MOL0     N 6701   3.277   2.327   5.935 -0.1114 -0.4769 -1.1537
  791MOL0     C 6702   3.051   2.725   6.636  0.2318  0.0008 -0.3536
  791MOL0     C 6703   2.925   2.727   6.708 -0.7914  0.2785  0.2171
  791MOL0     C 6704   2.651   2.795   7.051 -0.2096  0.2225  0.1245
  791MOL0     C 6705   2.598   2.668   7.077  0.0575  0.2950 -0.2925
  791MOL0     C 6706   2.505   2.657   7.181 -0.3754  0.4256  0.4177
  791MOL0     C 6707   2.452   2.765   7.257  0.0366  0.0516  0.5972
  791MOL0     O 6708   2.352   2.735   7.348 -0.1225 -0.0814 -1.3906
  791MOL0     C 6709   2.357   2.797   7.486 -0.1604 -0.0918 -0.0491
  791MOL0     C 6710   2.494   2.783   7.548 -0.1823  0.1013 -0.3188
  791MOL0     C 6711   2.538   2.638   7.586 -0.6926  0.1769 -0.3031
  791MOL0     C 6712   2.654   2.640   7.689  0.4046 -0.0934  1.4608
  791MOL0     C 6713   2.679   2.496   7.702  0.4149  0.1351 -0.4202
  791MOL0     C 6714   2.734   2.387   7.716  0.1596 -0.2652  1.0857
  791MOL0     C 6715   2.492   2.894   7.216 -0.5488 -0.0661 -0.0742
  791MOL0     C 6716   2.597   2.910   7.112  0.2963 -0.1929 -0.7511
  791MOL0     C 6717   2.644   3.053   7.085  0.0153  0.6487 -1.0401
  791MOL0     H 6718   3.011   2.544   6.980 -2.5451 -0.8108  0.0573
  791MOL0     H 6719   3.233   2.542   6.860 -0.2288  0.5159 -0.0719
  791MOL0     H 6720   3.335   2.815   6.686 -1.8764 -0.6173 -0.5772
  791MOL0     H 6721   3.408   2.676   6.765  0.5051  2.1275  0.2704
  791MOL0     H 6722   3.561   2.788   6.592 -1.5555  1.3178  0.5156
  791MOL0     H 6723   3.452   2.759   6.464 -1.2562  0.4337  0.9748
  791MOL0     H 6724   3.518   2.508   6.608  0.7992 -0.9920 -0.1165
  791MOL0     H 6725   3.656   2.596   6.574 -0.2948  0.0335  0.1055
  791MOL0     H 6726   3.445   2.511   6.358 -0.7091  1.1017 -0.5536
  791MOL0     H 6727   3.583   2.600   6.327  2.6414 -0.6301  0.3248
  791MOL0     H 6728   3.730   2.439   6.397 -0.8864 -1.0860  0.7211
  791MOL0     H 6729   3.610   2.308   6.416 -1.9800  0.5524 -1.2949
  791MOL0     H 6730   3.640   2.432   6.148  2.3870 -0.2566 -0.0533
  791MOL0     H 6731   3.695   2.280   6.211 -0.0013  0.9183 -0.2146
  791MOL0     H 6732   3.403   2.397   6.184 -0.5637 -0.2987 -1.3963
  791MOL0     H 6733   3.431   2.262   6.286 -0.0827 -0.7395 -1.3189
  791MOL0     H 6734   3.527   2.251   5.999 -3.2996  3.5761 -2.5337
  791MOL0     H 6735   3.480   2.117   6.106 -2.9158 -0.6337  1.8253
  791MOL0     H 6736   3.242   2.076   6.133 -0.3098  1.7012  2.0356
  791MOL0     H 6737   2.988   2.072   5.867  0.9864 -0.6391 -0.5571
  791MOL0     H 6738   2.997   2.012   6.030 -0.6642  1.4871  0.6566
  791MOL0     H 6739   2.895   2.232   6.108  2.6509 -2.6995  0.9492
  791MOL0     H 6740   2.843   2.248   5.933  0.7706  0.8530  0.8936
  791MOL0     H 6741   2.786   2.002   6.100  1.8767 -2.1917 -2.0442
  791MOL0     H 6742   2.731   2.032   5.933 -2.0786 -0.4007  0.8936
  791MOL0     H 6743   2.603   2.217   6.007 -0.1841  3.4547  2.5735
  791MOL0     H 6744   2.662   2.202   6.175  0.8386 -1.6014  0.3549
  791MOL0     H 6745   2.351   1.889   5.985 -0.0035  0.7425 -0.2336
  791MOL0     H 6746   2.112   1.911   6.019  0.6088  0.2908  0.3743
  791MOL0     H 6747   1.697   2.050   6.139  0.5328  0.4346  0.0484
  791MOL0     H 6748   1.470   2.093   6.238 -2.8142  0.9628  2.7570
  791MOL0     H 6749   1.252   2.180   6.425 -1.6616  1.3678  1.9947
  791MOL0     H 6750   1.405   2.098   6.464  2.1267  0.6445  0.9557
  791MOL0     H 6751   1.315   2.117   6.680 -0.2248 -0.8680 -1.6347
  791MOL0     H 6752   1.446   2.229   6.657 -0.2941 -1.6580  1.6126
  791MOL0     H 6753   1.149   2.312   6.633  0.2721 -1.6984 -0.0086
  791MOL0     H 6754   1.212   2.274   6.790 -0.9212 -1.5844 -0.0295
  791MOL0     H 6755   1.347   2.479   6.594 -1.1905  1.4441  0.0733
  791MOL0     H 6756   1.408   2.432   6.751  0.2223  1.6290  0.3922
  791MOL0     H 6757   1.132   2.546   6.718  0.1377  0.0181 -1.8106
  791MOL0     H 6758   1.271   2.640   6.721 -3.1223  0.5654 -2.7129
  791MOL0     H 6759   1.176   2.460   6.939 -1.4901  0.5718  0.5227
  791MOL0     H 6760   1.342   2.529   6.940  1.0881  1.3918 -1.1487
  791MOL0     H 6761   1.079   2.698   6.923  0.2446  0.0746  0.9282
  791MOL0     H 6762   1.253   2.749   6.937  0.7569 -2.6017 -2.6419
  791MOL0     H 6763   1.088   2.579   7.127 -1.2331 -0.4795 -1.2085
  791MOL0     H 6764   1.254   2.659   7.165 -1.0507 -0.7734  2.4701
  791MOL0     H 6765   1.616   2.409   6.461 -1.6929 -1.3028 -0.1252
  791MOL0     H 6766   1.859   2.389   6.363  0.9970 -1.1549  3.9950
  791MOL0     H 6767   2.162   2.314   6.168 -0.1281 -0.6843  2.2116
  791MOL0     H 6768   2.411   2.269   6.162 -0.2119 -1.6164  3.8573
  791MOL0     H 6769   3.045   2.756   6.532 -2.2496  0.2794 -0.1941
  791MOL0     H 6770   2.832   2.767   6.668 -0.0911  1.7751  0.0042
  791MOL0     H 6771   2.629   2.578   7.024  1.4802  1.3634 -1.3701
  791MOL0     H 6772   2.477   2.556   7.207 -4.4250  1.2480  0.0176
  791MOL0     H 6773   2.284   2.756   7.557 -0.5345  0.6539  0.0173
  791MOL0     H 6774   2.345   2.905   7.474  0.5696  0.3724  2.6516
  791MOL0     H 6775   2.487   2.835   7.644 -2.1151  3.1340 -1.9412
  791MOL0     H 6776   2.580   2.825   7.496  1.1889 -0.6430  1.2551
  791MOL0     H 6777   2.572   2.611   7.486  0.0104  0.7082 -0.2125
  791MOL0     H 6778   2.447   2.590   7.625  0.8783 -2.6356  0.1351
  791MOL0     H 6779   2.742   2.691   7.648 -2.4351  3.8899 -0.3615
  791MOL0     H 6780   2.629   2.687   7.784  0.3571  3.2069 -0.0415
  791MOL0     H 6781   2.785   2.293   7.728  0.7929 -0.2999 -1.3222
  791MOL0     H 6782   2.435   2.978   7.254  0.1064  1.5834 -2.4725
  791MOL0     H 6783   2.609   3.085   6.987  1.2001 -2.8340 -2.7581
  791MOL0     H 6784   2.609   3.124   7.160 -0.6319 -1.4894  0.8258
  791MOL0     H 6785   2.753   3.053   7.084  0.1050 -1.4580  0.3526
  792MOL0     O 6786   5.318   6.720   4.918  0.4633  0.0265  0.3796
  792MOL0     C 6787   5.310   6.601   4.942  0.2298 -0.7966  0.6548
  792MOL0     O 6788   5.399   6.508   4.903  0.2905 -0.1217  0.0752
  792MOL0     C 6789   5.528   6.537   4.852 -0.3353  0.1640  0.2935
  792MOL0     C 6790   5.612   6.641   4.900  0.4904  0.1189 -0.6849
  792MOL0     C 6791   5.742   6.642   4.846 -0.1586  0.2624 -0.5533
  792MOL0     C 6792   5.791   6.542   4.757 -0.0660 -0.8536  1.1708
  792MOL0     O 6793   5.920   6.525   4.705 -0.4779 -0.3826 -0.0764
  792MOL0     C 6794   6.018   6.635   4.729 -0.0769 -1.1000 -0.1585
  792MOL0     C 6795   6.122   6.632   4.621 -0.1256  0.1200 -0.8591
  792MOL0     C 6796   6.187   6.766   4.605  0.2265 -0.7394  0.7641
  792MOL0     C 6797   6.293   6.775   4.492  0.4157 -1.2902 -0.4780
  792MOL0     C 6798   6.401   6.884   4.520 -0.2754  0.1873  0.1884
  792MOL0     C 6799   6.526   6.843   4.435 -0.6310 -0.9867  0.1872
  792MOL0     C 6800   6.623   6.970   4.404  0.1016 -0.8477  0.1349
  792MOL0     C 6801   6.746   6.988   4.499 -0.4615 -0.5810  0.3995
  792MOL0     N 6802   6.838   7.082   4.434 -0.6816  0.0596 -0.5579
  792MOL0     C 6803   6.817   7.210   4.389 -0.2260  0.3226 -0.0094
  792MOL0     C 6804   6.945   7.248   4.365  0.0748 -0.1201  0.0474
  792MOL0     C 6805   6.984   7.369   4.294 -0.2654  0.7960 -0.3154
  792MOL0     C 6806   7.060   7.466   4.387 -0.0400 -0.2107 -0.5284
  792MOL0     C 6807   7.060   7.606   4.326  0.2465  0.5916  0.8212
  792MOL0     C 6808   7.107   7.612   4.179 -0.5568  1.4342  0.8982
  792MOL0     O 6809   7.172   7.735   4.150 -0.1672 -0.4915  0.4353
  792MOL0     C 6810   7.310   7.755   4.169  0.3500 -0.0609  0.1145
  792MOL0     C 6811   7.399   7.655   4.206  0.1866 -0.0927  0.3785
  792MOL0     C 6812   7.535   7.680   4.232 -0.0708  0.0806  0.1145
  792MOL0     C 6813   7.584   7.816   4.238  0.4374  0.4673 -0.0931
  792MOL0     C 6814   7.727   7.852   4.273  0.5332 -0.8645  0.8320
  792MOL0     O 6815   7.814   7.742   4.279  0.3600 -0.4148 -0.6540
  792MOL0     C 6816   7.945   7.785   4.294 -0.8206 -0.7604  0.2784
  792MOL0     C 6817   8.022   7.793   4.181  0.2825  0.3411  0.3515
  792MOL0     C 6818   8.154   7.846   4.190 -0.2050 -1.5914 -0.2513
  792MOL0     C 6819   8.209   7.889   4.309 -0.2296 -0.6670  0.2311
  792MOL0     O 6820   8.334   7.945   4.287 -0.0073  0.4150  0.1079
  792MOL0     C 6821   8.390   7.991   4.406  0.5127 -0.1090  0.2021
  792MOL0     C 6822   8.527   8.037   4.369  0.7964  0.1219 -0.1275
  792MOL0     C 6823   8.592   8.114   4.484 -1.2215  0.0981 -0.1139
  792MOL0     C 6824   8.558   8.261   4.503  0.0825  0.3549  0.5047
  792MOL0     C 6825   8.632   8.315   4.630 -0.9460 -0.1196 -1.1692
  792MOL0     C 6826   8.789   8.291   4.628  0.2764 -0.0944 -0.8717
  792MOL0     C 6827   8.857   8.365   4.507  0.5319 -0.3633  0.4822
  792MOL0     C 6828   9.016   8.378   4.539 -0.8397  0.3610  0.6609
  792MOL0    Cl 6829   9.094   8.212   4.544  0.2754 -0.1223  0.1552
  792MOL0     C 6830   8.129   7.874   4.428 -0.5021  0.2923  0.6848
  792MOL0     C 6831   7.995   7.832   4.422 -0.6406  0.1025  0.9205
  792MOL0     O 6832   7.752   7.967   4.303  0.3869  0.6064 -0.4610
  792MOL0     C 6833   7.488   7.914   4.209 -0.7876 -0.8363  0.3950
  792MOL0     C 6834   7.361   7.883   4.169  0.4209 -0.3135 -0.0453
  792MOL0     N 6835   7.039   7.151   4.396 -0.0630  0.4703 -0.5405
  792MOL0     N 6836   6.971   7.047   4.443 -0.1155  0.4979  0.4906
  792MOL0     C 6837   5.704   6.445   4.710 -0.4359 -0.1052  0.1218
  792MOL0     C 6838   5.577   6.442   4.758  0.8349  0.2239  0.4109
  792MOL0     C 6839   5.185   6.545   5.004  0.1099  0.3752 -0.0288
  792MOL0     C 6840   5.148   6.413   4.984  0.2965 -0.0866 -0.8918
  792MOL0     C 6841   5.039   6.351   5.035  0.3258 -0.1013  0.1101
  792MOL0     C 6842   4.944   6.429   5.096  0.2802  0.4770  0.0491
  792MOL0     O 6843   4.835   6.354   5.142 -0.4717  0.3995  0.5569
  792MOL0     C 6844   4.729   6.416   5.206  0.3680 -0.9624 -0.4346
  792MOL0     C 6845   4.652   6.312   5.287  0.3487  0.2877  0.6608
  792MOL0     C 6846   4.706   6.287   5.430  0.8670  0.1910  0.6182
  792MOL0     C 6847   4.642   6.160   5.490  0.0397  0.3354 -0.3216
  792MOL0     C 6848   4.497   6.157   5.467 -0.5208  0.0816  0.1879
  792MOL0     C 6849   4.380   6.183   5.468  0.1695  0.5509  0.3873
  792MOL0     C 6850   4.961   6.566   5.101  0.3968 -0.2928 -0.5144
  792MOL0     C 6851   5.086   6.621   5.074 -0.3201 -0.1692 -0.4289
  792MOL0     C 6852   5.115   6.764   5.128 -0.1822  0.6044 -0.7937
  792MOL0     H 6853   5.579   6.710   4.977  1.7585  0.1073 -0.1115
  792MOL0     H 6854   5.805   6.720   4.888 -1.7593  1.4090 -0.1928
  792MOL0     H 6855   5.957   6.725   4.716  0.1855 -0.6871  1.2945
  792MOL0     H 6856   6.056   6.645   4.831 -2.8444 -3.3259  1.2473
  792MOL0     H 6857   6.097   6.595   4.521  4.8845 -0.5463 -2.1602
  792MOL0     H 6858   6.197   6.560   4.656 -1.0576  0.7595  2.9051
  792MOL0     H 6859   6.218   6.802   4.704  0.0631 -0.9621  0.8983
  792MOL0     H 6860   6.106   6.835   4.581  0.0785 -1.3975 -0.7322
  792MOL0     H 6861   6.345   6.681   4.472  3.1866  0.1119 -0.3889
  792MOL0     H 6862   6.238   6.798   4.400 -0.2004 -0.9117 -0.0260
  792MOL0     H 6863   6.371   6.988   4.504  0.9279  0.3417 -1.2527
  792MOL0     H 6864   6.443   6.873   4.620 -1.4794 -1.0248  0.5921
  792MOL0     H 6865   6.575   6.773   4.502 -2.0832  1.1232  3.7585
  792MOL0     H 6866   6.506   6.783   4.346  3.1461 -1.8372 -0.2480
  792MOL0     H 6867   6.566   7.063   4.394 -1.4378 -1.3593  3.0415
  792MOL0     H 6868   6.664   6.961   4.303 -0.3535  1.7883 -0.3621
  792MOL0     H 6869   6.701   7.028   4.590 -3.4884 -0.6937 -0.9326
  792MOL0     H 6870   6.804   6.897   4.516 -0.2680 -0.9808 -2.0869
  792MOL0     H 6871   6.730   7.269   4.363  0.1261  0.6179 -0.5233
  792MOL0     H 6872   7.047   7.330   4.214  1.0865 -0.2639  1.1757
  792MOL0     H 6873   6.902   7.406   4.233  0.1916 -1.4735 -2.4664
  792MOL0     H 6874   7.020   7.479   4.488  0.6456  0.6508 -0.3516
  792MOL0     H 6875   7.156   7.414   4.396  0.3591  0.1335 -2.3242
  792MOL0     H 6876   7.130   7.669   4.383  3.7897 -1.1906 -1.2480
  792MOL0     H 6877   6.959   7.646   4.342 -0.3116 -0.9765  1.4307
  792MOL0     H 6878   7.026   7.591   4.108 -0.6449  0.2727  1.3275
  792MOL0     H 6879   7.172   7.529   4.151 -0.6371  2.0951 -1.4468
  792MOL0     H 6880   7.375   7.550   4.215  2.1909 -0.7982 -1.4617
  792MOL0     H 6881   7.590   7.588   4.247 -0.3256  0.0755  1.1421
  792MOL0     H 6882   7.985   7.757   4.085 -3.3010 -0.7201  1.9663
  792MOL0     H 6883   8.220   7.852   4.104 -0.6456 -2.4224 -0.6601
  792MOL0     H 6884   8.347   8.084   4.443 -0.0441 -0.1972 -0.2095
  792MOL0     H 6885   8.392   7.919   4.489 -3.1759  0.0531  0.5875
  792MOL0     H 6886   8.590   7.950   4.350 -0.3721 -0.5379 -1.0706
  792MOL0     H 6887   8.526   8.095   4.277  2.0650 -1.6474 -1.3210
  792MOL0     H 6888   8.577   8.066   4.581  1.1844  2.0879  1.3659
  792MOL0     H 6889   8.697   8.107   4.455 -1.5267 -3.0848 -0.7703
  792MOL0     H 6890   8.451   8.276   4.521  0.3442  0.2419  2.3742
  792MOL0     H 6891   8.594   8.322   4.420 -2.9890  2.5272  0.6017
  792MOL0     H 6892   8.592   8.266   4.720 -2.5581  0.1142 -1.7267
  792MOL0     H 6893   8.619   8.423   4.648 -1.2585  0.0277 -2.2127
  792MOL0     H 6894   8.831   8.333   4.719  0.0072 -1.0247 -0.3066
  792MOL0     H 6895   8.812   8.184   4.622 -1.0563 -0.3427 -2.3143
  792MOL0     H 6896   8.821   8.465   4.483  1.3101 -0.4376 -1.1286
  792MOL0     H 6897   8.845   8.306   4.416 -1.8071 -0.2494  0.6661
  792MOL0     H 6898   9.072   8.444   4.472  1.4873  0.1254  2.2194
  792MOL0     H 6899   9.034   8.436   4.630 -4.0753  1.7709  0.5382
  792MOL0     H 6900   8.163   7.911   4.524 -0.6696  1.2255  0.3932
  792MOL0     H 6901   7.935   7.837   4.512 -0.1043 -0.9845  1.3419
  792MOL0     H 6902   7.527   8.015   4.202  4.0034 -2.3654  0.9422
  792MOL0     H 6903   7.289   7.960   4.141 -0.3596 -0.8332  0.4873
  792MOL0     H 6904   5.722   6.367   4.636  0.1173  2.0682 -2.1787
  792MOL0     H 6905   5.524   6.353   4.726  0.4156  0.1796  1.2065
  792MOL0     H 6906   5.219   6.341   4.943  1.7236 -0.3877  1.8661
  792MOL0     H 6907   5.015   6.246   5.020 -2.3824  0.8360 -3.3328
  792MOL0     H 6908   4.659   6.468   5.140  0.0381 -3.6939 -2.3780
  792MOL0     H 6909   4.764   6.494   5.275 -0.8667 -1.6587  1.0540
  792MOL0     H 6910   4.659   6.229   5.216  0.5077  1.5385 -0.8431
  792MOL0     H 6911   4.549   6.349   5.281 -0.8834 -2.9920 -0.7856
  792MOL0     H 6912   4.679   6.370   5.496 -4.8984 -0.7421 -0.0467
  792MOL0     H 6913   4.815   6.284   5.418  0.7028 -0.3850 -0.9731
  792MOL0     H 6914   4.674   6.064   5.448 -2.0459  1.0294 -3.9197
  792MOL0     H 6915   4.659   6.158   5.598 -1.0791  1.6021 -0.0982
  792MOL0     H 6916   4.274   6.185   5.457 -0.0751  0.8986  2.4555
  792MOL0     H 6917   4.883   6.629   5.143  1.6066  0.3601  0.8493
  792MOL0     H 6918   5.052   6.781   5.216 -1.5813 -0.8421 -1.4426
  792MOL0     H 6919   5.217   6.758   5.165 -0.3180 -0.2576 -0.5300
  792MOL0     H 6920   5.117   6.845   5.055  0.1207  1.6929  0.3908
  793MOL0     O 6921   0.287   3.007   1.092 -0.5030 -0.2419  0.2860
  793MOL0     C 6922   0.269   2.901   1.045  0.3822  0.0035  0.9608
  793MOL0     O 6923   0.354   2.831   0.960  0.2396 -0.1665  0.5074
  793MOL0     C 6924   0.453   2.905   0.899  0.3494  0.2753 -0.9161
  793MOL0     C 6925   0.556   2.967   0.972 -0.8816  0.5119 -0.1767
  793MOL0     C 6926   0.657   3.039   0.893  1.2063 -0.4329 -0.1143
  793MOL0     C 6927   0.659   3.040   0.757 -0.3183  0.6529 -0.0371
  793MOL0     O 6928   0.743   3.121   0.673 -1.2161  0.5053  0.1260
  793MOL0     C 6929   0.756   3.261   0.722 -0.3909  0.0866  0.6257
  793MOL0     C 6930   0.907   3.286   0.717 -0.2900  0.5802 -0.1195
  793MOL0     C 6931   0.946   3.429   0.742  0.6517  0.0559 -0.6016
  793MOL0     C 6932   1.108   3.441   0.730  0.7766 -0.8281  0.4358
  793MOL0     C 6933   1.160   3.579   0.771  0.6896 -0.3827  0.4109
  793MOL0     C 6934   1.174   3.603   0.917  1.1044  0.7654 -1.4399
  793MOL0     C 6935   1.211   3.745   0.947 -0.4012 -0.1483 -0.4569
  793MOL0     C 6936   1.341   3.799   0.895 -0.9866  0.3826 -0.0133
  793MOL0     N 6937   1.456   3.719   0.948  0.6488  0.4228  0.3841
  793MOL0     C 6938   1.540   3.637   0.875  0.0457  0.5924  0.1625
  793MOL0     C 6939   1.634   3.590   0.962  0.6404 -0.0404 -0.6784
  793MOL0     C 6940   1.745   3.495   0.931  0.5334  0.4762 -0.2368
  793MOL0     C 6941   1.700   3.381   0.835  0.4785  0.1737  0.2151
  793MOL0     C 6942   1.573   3.313   0.889 -0.0573  0.1243 -0.0829
  793MOL0     C 6943   1.556   3.166   0.833  0.3568  0.0598  0.1607
  793MOL0     O 6944   1.491   3.180   0.707 -0.5487  0.5028 -0.2225
  793MOL0     C 6945   1.563   3.216   0.595 -0.6829  0.4888  0.5399
  793MOL0     C 6946   1.692   3.163   0.556  0.4269  0.0775 -0.5058
  793MOL0     C 6947   1.733   3.192   0.420  0.0761 -0.1151  0.5476
  793MOL0     C 6948   1.675   3.291   0.335  0.4533 -0.0181 -0.1832
  793MOL0     C 6949   1.728   3.338   0.208  0.4476 -0.6987  0.8922
  793MOL0     O 6950   1.836   3.267   0.166  0.2666 -0.4127 -0.7179
  793MOL0     C 6951   1.915   3.325   0.074 -0.1395 -0.0737 -0.0225
  793MOL0     C 6952   1.948   3.466   0.082 -0.8915  0.3947 -0.1858
  793MOL0     C 6953   2.017   3.523  -0.026  0.1530  0.8809 -0.3415
  793MOL0     C 6954   2.035   3.453  -0.144 -0.4127 -0.2164  0.1747
  793MOL0     O 6955   2.111   3.505  -0.246 -0.4602  0.1953  0.4694
  793MOL0     C 6956   2.080   3.638  -0.286  0.3854 -0.4283  0.0950
  793MOL0     C 6957   2.136   3.652  -0.435 -0.1377 -0.7790 -0.3803
  793MOL0     C 6958   2.128   3.806  -0.470  0.5423 -0.1160  0.4587
  793MOL0     C 6959   2.131   3.834  -0.619  0.3277 -0.2866 -0.3276
  793MOL0     C 6960   2.259   3.770  -0.686  0.5588 -0.9522  0.3099
  793MOL0     C 6961   2.261   3.808  -0.837 -0.4555  0.1045 -0.2322
  793MOL0     C 6962   2.161   3.708  -0.909  0.7254 -0.4309  0.8746
  793MOL0     C 6963   2.116   3.744  -1.056 -0.4928 -0.5680  0.7148
  793MOL0    Cl 6964   2.247   3.766  -1.177  0.0884 -0.3980 -0.1421
  793MOL0     C 6965   1.998   3.323  -0.156  0.0095 -0.4563  0.0743
  793MOL0     C 6966   1.932   3.262  -0.046  0.6389  0.9356 -0.5696
  793MOL0     O 6967   1.678   3.437   0.157 -0.5553 -0.8563  0.8612
  793MOL0     C 6968   1.560   3.345   0.384  0.1025 -0.3867  0.8330
  793MOL0     C 6969   1.503   3.307   0.503 -0.4360  0.7749 -0.5427
  793MOL0     N 6970   1.609   3.636   1.088 -0.4227  0.0436 -0.3929
  793MOL0     N 6971   1.511   3.726   1.076  0.0083 -0.6593 -0.2582
  793MOL0     C 6972   0.578   2.945   0.697  0.1224 -1.2435 -0.3200
  793MOL0     C 6973   0.463   2.894   0.766 -0.4356 -0.4045  0.1837
  793MOL0     C 6974   0.129   2.851   1.073 -0.3594  0.9760 -0.6219
  793MOL0     C 6975   0.027   2.935   1.121  0.7561 -0.0707  0.7424
  793MOL0     C 6976  -0.106   2.905   1.124 -0.7457  0.0054  0.0864
  793MOL0     C 6977  -0.135   2.768   1.113  0.0830 -1.0375 -0.7775
  793MOL0     O 6978  -0.251   2.704   1.140 -0.1014 -0.5337  0.8669
  793MOL0     C 6979  -0.332   2.756   1.249 -0.3785 -0.2817  0.9058
  793MOL0     C 6980  -0.358   2.651   1.344  1.1395  0.5240  0.0809
  793MOL0     C 6981  -0.469   2.694   1.445  0.5323  0.2858  0.0638
  793MOL0     C 6982  -0.554   2.581   1.516 -0.0577  0.7785  0.1269
  793MOL0     C 6983  -0.472   2.459   1.548 -0.1884 -0.0692  0.3030
  793MOL0     C 6984  -0.394   2.367   1.577  0.6811  0.4489  0.3621
  793MOL0     C 6985  -0.037   2.673   1.069  0.3613 -0.6157  0.2219
  793MOL0     C 6986   0.099   2.708   1.064 -0.2586  0.3540  0.4385
  793MOL0     C 6987   0.190   2.600   1.011  0.1810  0.7279  0.5006
  793MOL0     H 6988   0.564   2.967   1.080 -1.4100  0.3745 -0.1328
  793MOL0     H 6989   0.724   3.111   0.937 -0.0498  2.9804 -3.2777
  793MOL0     H 6990   0.704   3.328   0.654  1.7924 -0.4530 -1.7052
  793MOL0     H 6991   0.723   3.281   0.825  1.6564  0.3009  1.3016
  793MOL0     H 6992   0.933   3.258   0.615 -0.9831 -3.7330  0.7115
  793MOL0     H 6993   0.960   3.236   0.799 -1.4802 -0.2943  0.1313
  793MOL0     H 6994   0.926   3.452   0.847  0.5678 -1.1915 -0.3397
  793MOL0     H 6995   0.888   3.492   0.674 -2.4700 -0.8520  1.0568
  793MOL0     H 6996   1.165   3.371   0.791 -0.7332 -0.9723  1.7378
  793MOL0     H 6997   1.128   3.423   0.624 -0.0836 -1.6488  0.3996
  793MOL0     H 6998   1.258   3.592   0.725  0.0218 -1.1803 -1.3385
  793MOL0     H 6999   1.099   3.660   0.730  0.8649 -0.7762 -0.6768
  793MOL0     H 7000   1.079   3.576   0.964  1.5145 -2.1503 -2.0692
  793MOL0     H 7001   1.249   3.530   0.950 -1.9263 -1.2223  1.8056
  793MOL0     H 7002   1.213   3.757   1.055 -1.6235 -0.2237 -0.4038
  793MOL0     H 7003   1.129   3.805   0.905 -0.4733 -0.6963 -1.1043
  793MOL0     H 7004   1.349   3.785   0.787 -1.5051  2.4741 -0.3469
  793MOL0     H 7005   1.359   3.906   0.906  3.0776  0.1561 -2.4128
  793MOL0     H 7006   1.528   3.614   0.769 -2.0377  0.9005  0.2864
  793MOL0     H 7007   1.824   3.559   0.889 -0.0641  1.8942  0.7320
  793MOL0     H 7008   1.799   3.460   1.020  2.1182  3.2365  0.0145
  793MOL0     H 7009   1.683   3.426   0.736 -1.7866 -0.9281  0.0228
  793MOL0     H 7010   1.787   3.316   0.824 -0.3481 -0.6875 -1.8394
  793MOL0     H 7011   1.484   3.373   0.865 -0.7840 -0.2394  1.5530
  793MOL0     H 7012   1.573   3.296   0.997 -4.4689 -3.1973 -0.2784
  793MOL0     H 7013   1.491   3.119   0.908 -0.2282  0.5845 -0.0058
  793MOL0     H 7014   1.651   3.113   0.836  0.9824  1.1637  0.2069
  793MOL0     H 7015   1.750   3.106   0.628  2.4566  0.7246 -1.5655
  793MOL0     H 7016   1.825   3.152   0.379  0.0079 -3.3365  3.1509
  793MOL0     H 7017   1.939   3.527   0.171  1.8230 -1.1403  1.2623
  793MOL0     H 7018   2.071   3.617  -0.023  0.9700  0.5474 -2.4246
  793MOL0     H 7019   1.974   3.663  -0.279  0.7791  1.6774 -0.8025
  793MOL0     H 7020   2.126   3.709  -0.218 -2.2784  0.3399  1.2520
  793MOL0     H 7021   2.237   3.610  -0.434 -0.0338 -0.6002 -1.8947
  793MOL0     H 7022   2.073   3.589  -0.498 -1.2823 -0.1760  0.1285
  793MOL0     H 7023   2.032   3.847  -0.436  0.3850  1.1191 -1.3087
  793MOL0     H 7024   2.212   3.858  -0.424  1.3299 -3.0805  2.6442
  793MOL0     H 7025   2.128   3.943  -0.626  1.4696 -0.3123 -1.6086
  793MOL0     H 7026   2.048   3.804  -0.683 -0.4408 -0.8679  0.9014
  793MOL0     H 7027   2.282   3.664  -0.676  1.3460 -0.6905  1.4914
  793MOL0     H 7028   2.343   3.823  -0.640  2.0287 -0.9050 -2.2292
  793MOL0     H 7029   2.226   3.911  -0.831 -2.1155 -0.5113  2.4848
  793MOL0     H 7030   2.357   3.783  -0.884 -0.6618 -3.8236  1.0214
  793MOL0     H 7031   2.065   3.698  -0.858  0.9234 -2.8590  0.8734
  793MOL0     H 7032   2.205   3.608  -0.906 -0.6583 -1.4936 -4.3030
  793MOL0     H 7033   2.052   3.664  -1.091 -2.9866  1.1849  0.9966
  793MOL0     H 7034   2.059   3.838  -1.064  0.7683  0.0996 -1.3502
  793MOL0     H 7035   2.015   3.268  -0.248  2.4413  1.7279 -0.8878
  793MOL0     H 7036   1.898   3.161  -0.068 -1.4709  1.7361 -1.1874
  793MOL0     H 7037   1.516   3.431   0.334  2.1992 -0.1233 -0.6942
  793MOL0     H 7038   1.409   3.351   0.534 -0.0173 -0.7321  3.4179
  793MOL0     H 7039   0.598   2.929   0.592  0.5834 -0.9225 -0.2874
  793MOL0     H 7040   0.392   2.828   0.717 -1.5160 -0.4015  1.6916
  793MOL0     H 7041   0.049   3.040   1.139 -0.5575  0.2883  0.4332
  793MOL0     H 7042  -0.185   2.974   1.151 -2.6626 -1.8572 -0.5168
  793MOL0     H 7043  -0.427   2.793   1.208 -2.0802 -3.2927  1.8289
  793MOL0     H 7044  -0.286   2.844   1.295  1.3288  0.2809 -1.6515
  793MOL0     H 7045  -0.266   2.620   1.394  1.0761 -0.3232 -0.3241
  793MOL0     H 7046  -0.386   2.567   1.281 -0.7944  0.1559  1.3536
  793MOL0     H 7047  -0.538   2.764   1.398  2.3779  0.6064 -2.4189
  793MOL0     H 7048  -0.419   2.750   1.524 -1.6128  0.1725  1.5794
  793MOL0     H 7049  -0.607   2.604   1.610 -0.4318 -3.4524  1.1531
  793MOL0     H 7050  -0.633   2.550   1.447 -0.2445  0.4717  0.4721
  793MOL0     H 7051  -0.336   2.283   1.610 -2.1726 -2.0476 -0.5633
  793MOL0     H 7052  -0.066   2.570   1.053 -1.3510  0.0129 -1.0975
  793MOL0     H 7053   0.289   2.590   1.055  0.6922 -2.8695 -1.1263
  793MOL0     H 7054   0.142   2.502   1.021  1.5596 -0.1017 -0.5918
  793MOL0     H 7055   0.218   2.611   0.905  0.6249  0.2965  0.5700
  794MOL0     O 7056  11.386   4.361   8.270  0.2640 -0.5338 -0.0755
  794MOL0     C 7057  11.376   4.239   8.243 -1.0276  0.9771 -0.6392
  794MOL0     O 7058  11.399   4.131   8.325  0.4794  0.0820 -0.0685
  794MOL0     C 7059  11.458   4.167   8.438  0.7821  0.5387 -0.9071
  794MOL0     C 7060  11.596   4.201   8.442  0.5220 -0.3939 -0.1331
  794MOL0     C 7061  11.643   4.265   8.551 -0.7344 -0.9264  0.5146
  794MOL0     C 7062  11.567   4.289   8.660 -0.1171  0.5779 -0.2690
  794MOL0     O 7063  11.617   4.357   8.776  1.1078  0.2751  0.0178
  794MOL0     C 7064  11.759   4.362   8.801  0.0622 -0.3026  0.3483
  794MOL0     C 7065  11.809   4.501   8.752  0.1715 -0.1604 -0.8266
  794MOL0     C 7066  11.951   4.523   8.789  0.2170  0.0789 -0.3914
  794MOL0     C 7067  11.993   4.659   8.775 -0.5876  0.3826 -0.3773
  794MOL0     C 7068  12.139   4.696   8.824  0.6283  0.1560 -0.5623
  794MOL0     C 7069  12.253   4.641   8.745  0.4226  0.1873  0.1196
  794MOL0     C 7070  12.388   4.672   8.823 -0.4406 -0.1328 -0.2178
  794MOL0     C 7071  12.517   4.643   8.746  0.4526 -0.2419 -0.0380
  794MOL0     N 7072  12.515   4.688   8.608 -0.3142  1.0310  0.4493
  794MOL0     C 7073  12.502   4.603   8.501  1.0532 -0.0619  0.0144
  794MOL0     C 7074  12.490   4.684   8.395  0.0766  0.3154  0.1246
  794MOL0     C 7075  12.484   4.644   8.248 -0.3680 -0.1955  0.1189
  794MOL0     C 7076  12.344   4.626   8.190  0.2039 -0.3433  0.0244
  794MOL0     C 7077  12.267   4.759   8.181  1.1729  0.2033  0.4082
  794MOL0     C 7078  12.355   4.870   8.122 -0.1730  0.2668 -0.3680
  794MOL0     O 7079  12.411   4.841   7.994 -0.2994  0.1988 -0.8714
  794MOL0     C 7080  12.501   4.930   7.943 -0.2391 -0.3761 -0.5608
  794MOL0     C 7081  12.583   4.892   7.835  0.0298  0.6159 -0.8428
  794MOL0     C 7082  12.689   4.972   7.793  0.4308  1.2276  0.3201
  794MOL0     C 7083  12.706   5.091   7.845 -0.2650 -0.1115 -0.0952
  794MOL0     C 7084  12.819   5.181   7.805 -0.0131 -0.3305 -0.5884
  794MOL0     O 7085  12.814   5.317   7.836  0.1279  0.0830  0.4837
  794MOL0     C 7086  12.924   5.391   7.817 -0.8583 -0.8450 -0.2188
  794MOL0     C 7087  13.031   5.397   7.913  0.5343  0.8800  0.6798
  794MOL0     C 7088  13.132   5.493   7.898  0.6279 -0.1940 -0.2403
  794MOL0     C 7089  13.127   5.579   7.792 -0.0459  0.1137  0.1454
  794MOL0     O 7090  13.242   5.660   7.781  0.8154  0.0939  0.3270
  794MOL0     C 7091  13.278   5.695   7.652 -1.1999  0.0614 -0.0621
  794MOL0     C 7092  13.427   5.744   7.652 -0.3314  1.0334 -0.2122
  794MOL0     C 7093  13.442   5.892   7.686 -0.3729 -0.5224  0.5733
  794MOL0     C 7094  13.588   5.941   7.673  0.4353  0.5387  0.4353
  794MOL0     C 7095  13.625   6.069   7.751  0.0225  0.1299 -1.1120
  794MOL0     C 7096  13.775   6.102   7.732  0.6424 -0.0440  0.0143
  794MOL0     C 7097  13.779   6.254   7.736 -0.2338  0.7543  0.6817
  794MOL0     C 7098  13.926   6.282   7.721 -1.2684 -0.1526 -0.3246
  794MOL0    Cl 7099  13.949   6.448   7.699  0.5048  0.2579 -0.2583
  794MOL0     C 7100  13.026   5.572   7.695  0.5640 -0.2838 -0.9321
  794MOL0     C 7101  12.924   5.480   7.708 -0.2575  0.2837  0.0427
  794MOL0     O 7102  12.915   5.123   7.757 -0.4914 -0.1727 -0.6945
  794MOL0     C 7103  12.641   5.127   7.959  0.7299  0.0446  0.1215
  794MOL0     C 7104  12.529   5.053   8.004  0.6123 -0.6243 -0.0347
  794MOL0     N 7105  12.498   4.819   8.431 -0.7447 -0.3999 -0.3101
  794MOL0     N 7106  12.519   4.819   8.557  0.8208  0.1788  0.4084
  794MOL0     C 7107  11.436   4.247   8.674  0.2147  0.2642 -0.3860
  794MOL0     C 7108  11.382   4.197   8.552 -0.7178 -0.6873 -0.1978
  794MOL0     C 7109  11.348   4.198   8.112  0.8946  0.7739 -0.1988
  794MOL0     C 7110  11.425   4.086   8.065  0.3739 -0.4577  0.2100
  794MOL0     C 7111  11.413   4.045   7.934  0.1417 -0.5346 -0.3826
  794MOL0     C 7112  11.337   4.120   7.839  1.1415  0.2397  0.4163
  794MOL0     O 7113  11.323   4.060   7.714 -0.1555 -0.0761 -0.0864
  794MOL0     C 7114  11.296   4.146   7.598  0.8587  0.7858 -0.6147
  794MOL0     C 7115  11.333   4.084   7.468 -0.4223  0.1386 -0.1390
  794MOL0     C 7116  11.482   4.081   7.444 -0.6628  0.5019  0.1302
  794MOL0     C 7117  11.564   4.002   7.543 -0.2041  1.0054  0.2565
  794MOL0     C 7118  11.704   3.977   7.500 -0.0987 -0.1627  1.2110
  794MOL0     C 7119  11.826   3.969   7.480  0.1969 -0.3476  0.7657
  794MOL0     C 7120  11.251   4.219   7.892 -0.3836 -0.3097  1.3656
  794MOL0     C 7121  11.260   4.262   8.023  0.6347  0.5384 -0.1326
  794MOL0     C 7122  11.155   4.367   8.077  0.1942 -0.3773 -0.1160
  794MOL0     H 7123  11.664   4.176   8.361 -0.7852  0.8728 -1.6846
  794MOL0     H 7124  11.748   4.293   8.542 -0.4740 -0.5000  3.7753
  794MOL0     H 7125  11.779   4.355   8.908 -1.4023 -2.7312  0.5319
  794MOL0     H 7126  11.812   4.282   8.749  1.7336  1.3612 -0.6575
  794MOL0     H 7127  11.741   4.582   8.779 -0.9681  0.3240 -4.5443
  794MOL0     H 7128  11.810   4.500   8.643 -1.5441 -1.9702 -0.8902
  794MOL0     H 7129  12.017   4.449   8.741  0.4519 -0.2127  0.3729
  794MOL0     H 7130  11.947   4.496   8.895 -3.3049 -0.4094 -0.5198
  794MOL0     H 7131  11.981   4.697   8.674  2.0440 -1.8641 -1.6705
  794MOL0     H 7132  11.923   4.719   8.833  1.2612  0.5412  1.8456
  794MOL0     H 7133  12.147   4.801   8.855  2.9999 -0.1191 -0.0745
  794MOL0     H 7134  12.150   4.648   8.922  0.3981  0.6323 -0.2946
  794MOL0     H 7135  12.247   4.531   8.748 -0.7844  0.2629  1.8787
  794MOL0     H 7136  12.242   4.675   8.642 -0.0472  3.0968  1.0430
  794MOL0     H 7137  12.397   4.612   8.914  0.4946 -0.5513 -0.5692
  794MOL0     H 7138  12.384   4.774   8.862 -0.6170  0.0152 -0.6181
  794MOL0     H 7139  12.591   4.697   8.806 -2.2840  3.1635  0.5928
  794MOL0     H 7140  12.531   4.535   8.755 -1.2386 -0.4971 -0.1952
  794MOL0     H 7141  12.517   4.495   8.500 -1.7261 -0.6432  3.4171
  794MOL0     H 7142  12.537   4.712   8.180  2.6509 -0.4788  1.9669
  794MOL0     H 7143  12.537   4.549   8.237 -1.8383 -1.3318  2.0558
  794MOL0     H 7144  12.347   4.581   8.090 -0.3923 -2.0662  0.7641
  794MOL0     H 7145  12.289   4.554   8.251  1.3984 -1.8772 -0.6427
  794MOL0     H 7146  12.241   4.785   8.284 -0.5692  2.0896 -0.4528
  794MOL0     H 7147  12.178   4.753   8.119  1.7218  0.9522 -0.4760
  794MOL0     H 7148  12.429   4.904   8.195 -0.3091 -0.5750  0.1752
  794MOL0     H 7149  12.288   4.951   8.092 -1.0323 -1.2053 -2.6402
  794MOL0     H 7150  12.569   4.791   7.798 -0.3308  0.6091 -0.6945
  794MOL0     H 7151  12.752   4.941   7.710  0.2673  0.3946  0.4921
  794MOL0     H 7152  13.018   5.321   7.989 -1.5033 -1.7055 -2.0140
  794MOL0     H 7153  13.208   5.506   7.975  0.1447  1.1181  0.0525
  794MOL0     H 7154  13.266   5.624   7.569  0.6696  1.2654 -1.4376
  794MOL0     H 7155  13.226   5.785   7.617 -0.4932  0.8910  0.9708
  794MOL0     H 7156  13.485   5.681   7.720 -0.4071 -0.4998 -1.5146
  794MOL0     H 7157  13.463   5.721   7.551  1.1746 -0.6982  0.6717
  794MOL0     H 7158  13.373   5.963   7.639  1.3352  2.9627  2.8575
  794MOL0     H 7159  13.421   5.893   7.793 -0.0694 -0.2861  0.6297
  794MOL0     H 7160  13.613   5.959   7.569  2.2813 -0.7781  0.6091
  794MOL0     H 7161  13.656   5.863   7.708  1.7269  0.9813 -0.9851
  794MOL0     H 7162  13.604   6.051   7.857 -1.7179 -0.2568 -1.4897
  794MOL0     H 7163  13.561   6.148   7.711 -2.6794 -2.3772 -2.1685
  794MOL0     H 7164  13.846   6.064   7.806  1.8560  3.8221  1.0836
  794MOL0     H 7165  13.812   6.062   7.637  3.3445 -0.9257  1.3377
  794MOL0     H 7166  13.735   6.303   7.823 -0.2349 -0.1365  1.1989
  794MOL0     H 7167  13.725   6.306   7.657 -1.3517  0.9697  1.5644
  794MOL0     H 7168  13.980   6.242   7.807 -1.1120 -2.7215 -1.5397
  794MOL0     H 7169  13.968   6.231   7.635 -1.7850 -1.7135  0.3214
  794MOL0     H 7170  13.019   5.652   7.621  0.9579  1.5408  0.9077
  794MOL0     H 7171  12.845   5.471   7.634 -1.3129  2.5086  0.8338
  794MOL0     H 7172  12.678   5.211   8.018 -0.4150  0.4317  0.3186
  794MOL0     H 7173  12.477   5.083   8.094 -2.0191 -2.6400 -0.7615
  794MOL0     H 7174  11.383   4.249   8.769 -0.5574 -2.6880 -0.6373
  794MOL0     H 7175  11.279   4.166   8.566 -0.9137 -0.2497 -0.6356
  794MOL0     H 7176  11.492   4.015   8.114  2.1644 -0.3088 -1.8516
  794MOL0     H 7177  11.462   3.957   7.894  0.3158 -1.3081  1.4586
  794MOL0     H 7178  11.323   4.252   7.599 -1.5993  1.5260 -2.3014
  794MOL0     H 7179  11.187   4.153   7.601  0.7262 -0.8515 -0.4829
  794MOL0     H 7180  11.289   4.136   7.383 -2.8859 -2.7803 -0.8286
  794MOL0     H 7181  11.288   3.985   7.461  2.0541 -1.0030 -1.1413
  794MOL0     H 7182  11.517   4.185   7.442 -0.3987  0.4078 -2.0497
  794MOL0     H 7183  11.490   4.050   7.339 -1.9651  3.1063 -0.8188
  794MOL0     H 7184  11.557   4.051   7.641 -1.3654  0.1641  0.6144
  794MOL0     H 7185  11.523   3.901   7.556 -1.2046  0.7412 -3.7007
  794MOL0     H 7186  11.927   3.979   7.444  0.0688  0.7302  0.6736
  794MOL0     H 7187  11.164   4.251   7.835 -1.4022  1.8538  3.9357
  794MOL0     H 7188  11.090   4.316   8.148  2.6067 -2.2707  0.8592
  794MOL0     H 7189  11.208   4.452   8.122  1.6029 -0.2730 -1.8576
  794MOL0     H 7190  11.097   4.400   7.990  1.6753  0.5058 -0.8114
  795MOL0     O 7191   1.497   5.581   9.952  0.4141  0.3017 -0.0370
  795MOL0     C 7192   1.532   5.555  10.066  0.0815  0.0977 -0.6738
  795MOL0     O 7193   1.657   5.578  10.114 -0.4666 -0.2253  0.0580
  795MOL0     C 7194   1.757   5.631  10.040 -0.7477  0.3036  0.0694
  795MOL0     C 7195   1.788   5.622   9.902  0.2364 -0.4589 -0.1356
  795MOL0     C 7196   1.902   5.688   9.847  0.5055 -0.8477 -0.0769
  795MOL0     C 7197   1.999   5.754   9.925  0.7804 -0.2936 -0.4560
  795MOL0     O 7198   2.112   5.812   9.871 -0.4661  0.3210  0.3269
  795MOL0     C 7199   2.111   5.834   9.729  0.4324  0.0438  0.3423
  795MOL0     C 7200   2.198   5.733   9.671 -0.1326 -0.2264 -0.0736
  795MOL0     C 7201   2.241   5.783   9.530 -0.3266  0.4953 -0.2150
  795MOL0     C 7202   2.336   5.895   9.522  0.1701  0.0184  0.6066
  795MOL0     C 7203   2.433   5.879   9.400  0.4119 -0.3968 -0.2840
  795MOL0     C 7204   2.518   6.010   9.394 -0.5012  0.3529  1.2528
  795MOL0     C 7205   2.550   6.040   9.244  0.3279  0.1080 -0.6669
  795MOL0     C 7206   2.617   6.182   9.237 -0.8194 -0.0264 -0.3249
  795MOL0     N 7207   2.741   6.197   9.319  0.3277 -1.0204 -0.4192
  795MOL0     C 7208   2.754   6.301   9.410  0.1572 -0.2764  0.5963
  795MOL0     C 7209   2.882   6.304   9.445 -0.0227  0.2925 -0.2834
  795MOL0     C 7210   2.934   6.405   9.541  0.6568  0.4625  0.2920
  795MOL0     C 7211   3.060   6.453   9.476  0.0915  0.6126  0.1694
  795MOL0     C 7212   3.136   6.554   9.566  0.1145  0.3132  0.9928
  795MOL0     C 7213   3.281   6.591   9.509  0.0606  0.2679  0.2113
  795MOL0     O 7214   3.373   6.480   9.528 -0.0990  0.5233  0.1759
  795MOL0     C 7215   3.498   6.521   9.518  0.1970 -0.3102 -0.3143
  795MOL0     C 7216   3.596   6.423   9.557  0.5220  0.2046 -0.5950
  795MOL0     C 7217   3.734   6.443   9.543  1.0356 -0.0593  0.1695
  795MOL0     C 7218   3.784   6.564   9.500 -0.5636 -0.3566 -0.6032
  795MOL0     C 7219   3.931   6.594   9.494  0.0660 -0.1085  0.1449
  795MOL0     O 7220   4.018   6.507   9.534  0.3578  0.4675  0.3100
  795MOL0     C 7221   4.151   6.524   9.517  0.4719  0.1990  0.7434
  795MOL0     C 7222   4.235   6.578   9.617 -0.6714 -0.9381  0.5466
  795MOL0     C 7223   4.372   6.620   9.593 -0.4022 -0.3749  0.5631
  795MOL0     C 7224   4.417   6.612   9.456  0.2753 -0.0011 -0.4137
  795MOL0     O 7225   4.542   6.655   9.414  0.5192  0.0247 -0.3326
  795MOL0     C 7226   4.619   6.737   9.506 -0.1786 -0.3067 -0.3628
  795MOL0     C 7227   4.729   6.793   9.419 -0.6348 -0.3802  0.5698
  795MOL0     C 7228   4.838   6.861   9.504 -0.1503 -0.0806 -0.5514
  795MOL0     C 7229   4.855   7.005   9.449  0.1460  0.0261  0.6464
  795MOL0     C 7230   4.986   7.068   9.488  0.5619 -0.3235  0.0136
  795MOL0     C 7231   5.039   7.177   9.400  0.3614  0.2895 -0.2213
  795MOL0     C 7232   4.942   7.297   9.384 -0.1460 -0.5979  0.3154
  795MOL0     C 7233   5.005   7.430   9.330 -0.7331 -0.7686  0.2687
  795MOL0    Cl 7234   5.112   7.387   9.202 -0.4920 -0.0658 -0.0123
  795MOL0     C 7235   4.338   6.548   9.361  0.0108  1.0195 -0.8010
  795MOL0     C 7236   4.215   6.498   9.386  0.9416  0.1869 -0.3849
  795MOL0     O 7237   3.960   6.713   9.455  0.1034  0.5863  0.5816
  795MOL0     C 7238   3.694   6.660   9.451  0.0858 -0.3026 -0.5242
  795MOL0     C 7239   3.552   6.645   9.479 -0.1628  0.4433 -0.0647
  795MOL0     N 7240   2.944   6.198   9.384 -0.5916 -0.3393 -0.4412
  795MOL0     N 7241   2.867   6.155   9.294  0.2950  0.4638  0.2965
  795MOL0     C 7242   1.968   5.760  10.060 -0.5719  0.0129 -0.4088
  795MOL0     C 7243   1.854   5.702  10.113  0.4720 -0.2152 -0.2196
  795MOL0     C 7244   1.440   5.485  10.158 -0.0071 -0.4867 -0.5937
  795MOL0     C 7245   1.494   5.432  10.279  0.7515  0.0910  0.5748
  795MOL0     C 7246   1.427   5.332  10.355  0.2998  0.5997 -0.6491
  795MOL0     C 7247   1.288   5.312  10.341 -0.5732 -0.2609  0.5022
  795MOL0     O 7248   1.203   5.238  10.424  0.4531  0.0479  0.8716
  795MOL0     C 7249   1.251   5.149  10.527  0.3859  0.1076  0.5496
  795MOL0     C 7250   1.164   5.029  10.516  0.1338 -1.0482  0.0035
  795MOL0     C 7251   1.203   4.917  10.614  0.4534 -0.0248  0.1539
  795MOL0     C 7252   1.315   4.818  10.547 -0.3277  0.6314  0.5137
  795MOL0     C 7253   1.336   4.715  10.641 -0.0172 -0.7800  0.3460
  795MOL0     C 7254   1.379   4.618  10.706 -0.4223 -0.6799 -1.0516
  795MOL0     C 7255   1.227   5.392  10.236  0.2018  0.3252 -0.3648
  795MOL0     C 7256   1.301   5.463  10.142 -0.0870  0.5429  0.2108
  795MOL0     C 7257   1.217   5.532  10.037  0.5017  0.0137  0.5316
  795MOL0     H 7258   1.720   5.575   9.832 -1.0880  0.4490  0.5008
  795MOL0     H 7259   1.910   5.684   9.739 -0.8607  0.2492 -0.2329
  795MOL0     H 7260   2.020   5.844   9.669 -0.0109  0.6416  1.0869
  795MOL0     H 7261   2.152   5.934   9.712 -4.8944  2.6775  0.9640
  795MOL0     H 7262   2.137   5.643   9.659  0.5379 -0.8168  0.8562
  795MOL0     H 7263   2.280   5.701   9.735 -0.7723 -0.7806  0.4925
  795MOL0     H 7264   2.149   5.797   9.472 -1.0817 -0.6785  0.6372
  795MOL0     H 7265   2.284   5.693   9.485 -1.6507 -1.0079  1.3778
  795MOL0     H 7266   2.286   5.992   9.520  0.5423  0.2146 -1.8460
  795MOL0     H 7267   2.393   5.890   9.615  1.1059  0.4114  0.0644
  795MOL0     H 7268   2.497   5.791   9.404 -1.6924 -1.9508  1.3465
  795MOL0     H 7269   2.371   5.871   9.311 -1.7826 -1.3990  1.2440
  795MOL0     H 7270   2.455   6.084   9.443 -2.7703 -2.6341  3.2397
  795MOL0     H 7271   2.599   5.988   9.464 -0.3532  1.1969  1.3505
  795MOL0     H 7272   2.460   6.043   9.183  0.0827  1.6078 -0.2793
  795MOL0     H 7273   2.603   5.955   9.199 -1.1265 -2.5479  2.2457
  795MOL0     H 7274   2.642   6.202   9.133  0.6879  3.8776  0.6088
  795MOL0     H 7275   2.540   6.253   9.269 -0.2407 -0.5495  2.5001
  795MOL0     H 7276   2.680   6.378   9.434  0.1715 -0.3241  0.7941
  795MOL0     H 7277   2.858   6.483   9.556  0.0692 -0.1968  0.8353
  795MOL0     H 7278   2.962   6.359   9.635  0.2290  2.3664  1.4131
  795MOL0     H 7279   3.124   6.365   9.466  0.5202  0.5277  2.7876
  795MOL0     H 7280   3.041   6.501   9.380  0.5671  1.0013  0.2637
  795MOL0     H 7281   3.154   6.512   9.665 -0.2288 -1.3834  0.3597
  795MOL0     H 7282   3.076   6.645   9.573 -0.3317  0.3023 -1.5789
  795MOL0     H 7283   3.310   6.678   9.568  0.6079 -1.1133  2.0955
  795MOL0     H 7284   3.278   6.625   9.405 -0.1336 -2.2821 -0.6894
  795MOL0     H 7285   3.562   6.322   9.578 -2.3932  1.3548  0.6374
  795MOL0     H 7286   3.799   6.367   9.584 -0.3972 -1.0083  0.7302
  795MOL0     H 7287   4.191   6.583   9.716 -0.6092  2.7351  0.5156
  795MOL0     H 7288   4.438   6.658   9.670 -0.6276  0.1711  0.4925
  795MOL0     H 7289   4.568   6.825   9.548  0.2214  0.4727 -1.4609
  795MOL0     H 7290   4.665   6.674   9.583 -2.1660 -1.8404 -0.3410
  795MOL0     H 7291   4.781   6.716   9.360 -0.1695  2.2085 -2.7032
  795MOL0     H 7292   4.678   6.859   9.349 -1.1104 -1.6702 -0.3362
  795MOL0     H 7293   4.800   6.872   9.606  1.0099  1.0519 -0.2233
  795MOL0     H 7294   4.924   6.795   9.511 -0.3579 -0.1611  2.3393
  795MOL0     H 7295   4.771   7.070   9.471  0.4560  0.7707 -0.2879
  795MOL0     H 7296   4.864   6.991   9.340  1.0042 -1.3949  0.8668
  795MOL0     H 7297   5.061   6.988   9.488  0.9790  0.0662 -0.2164
  795MOL0     H 7298   4.984   7.103   9.592 -0.4931  2.0922 -0.7571
  795MOL0     H 7299   5.139   7.207   9.430  2.2512 -3.2291 -2.3132
  795MOL0     H 7300   5.065   7.135   9.303  3.2569 -1.9619  1.3696
  795MOL0     H 7301   4.898   7.312   9.483  1.7565 -1.7231  1.3814
  795MOL0     H 7302   4.870   7.268   9.306 -0.3946  1.8322 -0.4330
  795MOL0     H 7303   4.932   7.502   9.291  0.5614 -0.1955 -1.2446
  795MOL0     H 7304   5.076   7.485   9.393  0.3139  2.3111 -3.2162
  795MOL0     H 7305   4.389   6.530   9.267  2.2127  5.1033 -0.6437
  795MOL0     H 7306   4.173   6.454   9.296  2.0387  0.0986 -0.8651
  795MOL0     H 7307   3.723   6.759   9.417 -2.7184  0.8320  0.0927
  795MOL0     H 7308   3.486   6.727   9.451  2.3328  2.4881 -0.2983
  795MOL0     H 7309   2.041   5.812  10.122  0.9439 -2.0216 -0.3772
  795MOL0     H 7310   1.855   5.707  10.222  0.3629 -2.4987 -0.0665
  795MOL0     H 7311   1.600   5.445  10.298  1.7487 -1.3960 -2.9586
  795MOL0     H 7312   1.471   5.288  10.443 -2.0291  1.5815  1.1302
  795MOL0     H 7313   1.258   5.176  10.633  2.6029  1.4241  0.1443
  795MOL0     H 7314   1.354   5.120  10.502 -0.0094 -2.0233  1.2365
  795MOL0     H 7315   1.168   4.995  10.412  0.9817  2.1030 -1.1180
  795MOL0     H 7316   1.060   5.060  10.530  0.7528 -0.2229  3.9996
  795MOL0     H 7317   1.112   4.860  10.633 -1.5696  2.0395 -2.5087
  795MOL0     H 7318   1.242   4.948  10.711 -0.7603 -3.1567  1.7977
  795MOL0     H 7319   1.287   4.779  10.449 -1.2539  1.0699  0.5884
  795MOL0     H 7320   1.413   4.867  10.544  0.8913 -1.6061  1.6366
  795MOL0     H 7321   1.423   4.541  10.766  1.9602  1.2789 -0.0879
  795MOL0     H 7322   1.119   5.385  10.226  0.3669 -3.0660 -0.9148
  795MOL0     H 7323   1.262   5.512   9.939  0.0875 -3.3159  0.9091
  795MOL0     H 7324   1.110   5.513  10.045  0.2808  1.7985  4.5268
  795MOL0     H 7325   1.205   5.639  10.055 -2.4452 -0.3153  0.9004
  796MOL0     O 7326   5.151   7.828   2.083 -0.0046 -0.2724  0.5721
  796MOL0     C 7327   5.188   7.807   1.968 -0.7065 -0.1074 -0.7664
  796MOL0     O 7328   5.138   7.709   1.885 -0.1886 -0.0631  0.4692
  796MOL0     C 7329   5.021   7.636   1.918 -0.6919  0.1023 -0.3385
  796MOL0     C 7330   5.026   7.517   1.988  0.4560 -0.2559 -0.4434
  796MOL0     C 7331   4.904   7.453   2.021  0.0160  0.0219 -0.6581
  796MOL0     C 7332   4.783   7.505   1.971 -0.7685  0.5704 -0.3193
  796MOL0     O 7333   4.662   7.443   1.991 -0.1513  0.3144  0.3698
  796MOL0     C 7334   4.636   7.319   2.070  0.6375 -0.7362 -0.2733
  796MOL0     C 7335   4.483   7.307   2.035 -0.5104  0.4843 -0.2421
  796MOL0     C 7336   4.422   7.192   2.096 -0.4959 -0.2070  0.3423
  796MOL0     C 7337   4.276   7.186   2.090 -0.1895  0.5755 -0.2609
  796MOL0     C 7338   4.211   7.294   2.169  0.2496 -0.2900 -0.4804
  796MOL0     C 7339   4.063   7.260   2.200  0.6636  0.5199  0.7090
  796MOL0     C 7340   3.994   7.376   2.266 -0.5210  1.2720 -0.2698
  796MOL0     C 7341   3.874   7.325   2.341 -0.1878 -0.8493  0.5013
  796MOL0     N 7342   3.798   7.441   2.408 -0.8333 -0.3470 -0.1315
  796MOL0     C 7343   3.798   7.578   2.373  1.0511 -0.6574  0.0857
  796MOL0     C 7344   3.714   7.641   2.460 -1.0447 -0.3038 -0.4545
  796MOL0     C 7345   3.683   7.787   2.455  0.8192  0.1021 -0.1656
  796MOL0     C 7346   3.617   7.853   2.584  0.3842  1.2354 -0.1171
  796MOL0     C 7347   3.671   7.999   2.601  0.5741  0.3692  0.2006
  796MOL0     C 7348   3.630   8.043   2.748 -0.7078 -0.0592  0.5053
  796MOL0     O 7349   3.660   8.177   2.780 -0.4861  0.0806 -0.4029
  796MOL0     C 7350   3.766   8.239   2.714 -0.4555  0.2317  0.0528
  796MOL0     C 7351   3.758   8.326   2.605 -0.6634  1.2019 -0.3908
  796MOL0     C 7352   3.866   8.388   2.554  0.0082 -0.2028  0.4905
  796MOL0     C 7353   3.993   8.370   2.606 -0.4219 -0.2342 -0.1638
  796MOL0     C 7354   4.115   8.432   2.549 -0.3537 -0.9231 -0.5027
  796MOL0     O 7355   4.249   8.386   2.591  0.7786  0.0163  0.1898
  796MOL0     C 7356   4.357   8.458   2.561 -0.5333 -0.4531 -0.2692
  796MOL0     C 7357   4.354   8.599   2.566  0.4696 -0.8169  1.1192
  796MOL0     C 7358   4.466   8.679   2.538  0.2242  0.0522  0.4325
  796MOL0     C 7359   4.582   8.614   2.503 -0.0897  0.7995  0.4173
  796MOL0     O 7360   4.695   8.685   2.470  0.2969 -0.0426 -0.7215
  796MOL0     C 7361   4.818   8.636   2.507  0.0153 -0.6123 -0.8940
  796MOL0     C 7362   4.910   8.712   2.422  0.5397 -0.1209 -0.4738
  796MOL0     C 7363   5.057   8.672   2.420 -0.2296  0.5514 -1.0269
  796MOL0     C 7364   5.146   8.764   2.330 -0.1974 -0.1264 -0.0613
  796MOL0     C 7365   5.283   8.769   2.390 -0.0864  0.5442 -1.0792
  796MOL0     C 7366   5.390   8.847   2.303  0.0188 -0.2843 -0.3089
  796MOL0     C 7367   5.530   8.800   2.335 -0.7984  0.8683  0.2802
  796MOL0     C 7368   5.586   8.842   2.480 -0.3792 -0.5331 -0.3194
  796MOL0    Cl 7369   5.624   9.016   2.491  0.0340 -0.3355 -0.0497
  796MOL0     C 7370   4.579   8.476   2.491 -0.2568 -0.4257 -0.2407
  796MOL0     C 7371   4.469   8.398   2.519 -1.1012  0.9023  0.4703
  796MOL0     O 7372   4.099   8.519   2.459 -0.3761 -0.2883 -0.3763
  796MOL0     C 7373   4.002   8.284   2.717 -0.1215 -0.5345  0.2697
  796MOL0     C 7374   3.888   8.229   2.770  0.7871  0.0326 -0.2884
  796MOL0     N 7375   3.664   7.536   2.538 -0.1121  0.2930 -1.2122
  796MOL0     N 7376   3.712   7.415   2.510 -1.4112 -0.0166  0.6747
  796MOL0     C 7377   4.785   7.616   1.891  0.3799 -1.1279  1.7548
  796MOL0     C 7378   4.901   7.685   1.873  0.8803 -0.4122  0.0097
  796MOL0     C 7379   5.297   7.894   1.919  0.3324 -0.6009 -0.3215
  796MOL0     C 7380   5.357   7.853   1.793  1.2161  0.4769 -0.6814
  796MOL0     C 7381   5.444   7.940   1.723  0.7132  0.1233  0.0796
  796MOL0     C 7382   5.483   8.055   1.786 -0.9614  0.1340 -0.1822
  796MOL0     O 7383   5.565   8.143   1.733 -0.2394 -0.0887  0.1108
  796MOL0     C 7384   5.608   8.129   1.592  0.2014  0.2688 -0.3423
  796MOL0     C 7385   5.712   8.018   1.577 -0.6480  0.2486 -0.2106
  796MOL0     C 7386   5.759   8.007   1.436  0.2081  0.0903 -0.3381
  796MOL0     C 7387   5.874   7.903   1.427 -0.2905 -0.1009 -0.3064
  796MOL0     C 7388   5.871   7.854   1.289  0.1158  0.3070  0.6771
  796MOL0     C 7389   5.878   7.818   1.173  0.1995  0.3668  0.4738
  796MOL0     C 7390   5.438   8.088   1.914  0.2810 -0.4047 -0.2840
  796MOL0     C 7391   5.348   8.013   1.983 -0.4187 -0.5348 -0.6625
  796MOL0     C 7392   5.317   8.058   2.125  0.1939 -0.2959  0.3950
  796MOL0     H 7393   5.117   7.474   2.028  1.7394  2.2011 -0.4885
  796MOL0     H 7394   4.909   7.373   2.095 -0.5225  0.8740  0.3135
  796MOL0     H 7395   4.697   7.235   2.033  1.4734  0.5842 -2.0605
  796MOL0     H 7396   4.663   7.330   2.175 -0.7668 -0.5001  0.0910
  796MOL0     H 7397   4.474   7.302   1.926  0.5493  0.6817 -0.3457
  796MOL0     H 7398   4.425   7.389   2.078 -0.1863  0.2374  0.7016
  796MOL0     H 7399   4.443   7.197   2.204  1.0027  0.5217  0.0457
  796MOL0     H 7400   4.466   7.101   2.056  0.1121 -0.5871  1.7972
  796MOL0     H 7401   4.242   7.197   1.987  0.1818  0.0517 -0.4395
  796MOL0     H 7402   4.253   7.087   2.131 -0.7663 -0.3689 -2.6769
  796MOL0     H 7403   4.259   7.308   2.266  1.4399  2.2704 -1.3508
  796MOL0     H 7404   4.208   7.393   2.122 -1.8841  0.2359  0.6305
  796MOL0     H 7405   4.005   7.238   2.110  2.6871 -0.2400 -0.4722
  796MOL0     H 7406   4.054   7.169   2.260 -0.1339 -0.3313 -0.6350
  796MOL0     H 7407   3.975   7.440   2.179  0.3903 -2.9495 -3.9336
  796MOL0     H 7408   4.068   7.414   2.337 -0.0102 -0.5534  0.2326
  796MOL0     H 7409   3.800   7.264   2.287  2.0283 -3.6515  0.3636
  796MOL0     H 7410   3.899   7.247   2.414 -0.9549 -1.0422  0.5693
  796MOL0     H 7411   3.838   7.625   2.283  1.4742 -0.8305  0.1827
  796MOL0     H 7412   3.776   7.834   2.421  1.3894  0.0069  1.2089
  796MOL0     H 7413   3.605   7.807   2.381 -1.1707  1.7580  2.1989
  796MOL0     H 7414   3.508   7.861   2.586  0.3682  1.8630 -1.6538
  796MOL0     H 7415   3.635   7.785   2.668 -1.1864 -0.6570 -1.2259
  796MOL0     H 7416   3.616   8.053   2.524  0.7795 -0.8870 -0.8776
  796MOL0     H 7417   3.778   8.005   2.579  0.6160 -0.5971  0.0769
  796MOL0     H 7418   3.688   7.974   2.811 -1.6804 -0.0825  1.3832
  796MOL0     H 7419   3.523   8.022   2.756 -0.9632  0.1858 -1.5390
  796MOL0     H 7420   3.656   8.344   2.573 -1.0030 -0.0101 -0.0604
  796MOL0     H 7421   3.854   8.454   2.468  0.3943 -0.9850 -0.1778
  796MOL0     H 7422   4.268   8.658   2.595  2.1459  2.6177 -0.3268
  796MOL0     H 7423   4.463   8.788   2.537  1.2484  0.2661  4.2319
  796MOL0     H 7424   4.825   8.651   2.615  2.6382  0.8138 -1.1876
  796MOL0     H 7425   4.831   8.529   2.486  0.1915 -1.5229  3.0937
  796MOL0     H 7426   4.871   8.706   2.320 -1.4675  0.8053  0.1907
  796MOL0     H 7427   4.894   8.820   2.434 -0.8688  0.3671 -4.8635
  796MOL0     H 7428   5.084   8.672   2.526  0.0974  1.4980 -1.1014
  796MOL0     H 7429   5.074   8.569   2.390 -1.3171  0.7346 -2.3383
  796MOL0     H 7430   5.110   8.866   2.315 -1.5707 -0.7051 -0.8412
  796MOL0     H 7431   5.150   8.713   2.233 -0.4536 -0.9689  0.3576
  796MOL0     H 7432   5.311   8.667   2.416 -0.1110  0.7768 -0.0948
  796MOL0     H 7433   5.280   8.816   2.489 -1.1051  0.7148 -1.1790
  796MOL0     H 7434   5.365   8.836   2.197 -0.4715 -0.0772 -0.2184
  796MOL0     H 7435   5.385   8.953   2.331  3.3091 -0.2110  0.4432
  796MOL0     H 7436   5.602   8.831   2.259 -0.8511  3.7763  1.2597
  796MOL0     H 7437   5.528   8.691   2.344 -2.9850  0.9871  2.4479
  796MOL0     H 7438   5.508   8.821   2.554 -1.0521 -3.3062 -1.6774
  796MOL0     H 7439   5.663   8.769   2.506 -1.4092 -1.5816 -0.1259
  796MOL0     H 7440   4.659   8.410   2.458 -0.7786 -3.8211  4.3263
  796MOL0     H 7441   4.461   8.290   2.510 -0.9587  1.0671 -3.5713
  796MOL0     H 7442   4.101   8.266   2.757  1.5013 -0.8860 -3.4388
  796MOL0     H 7443   3.901   8.173   2.863  0.7324  0.0967 -0.2418
  796MOL0     H 7444   4.695   7.652   1.842  1.3809 -1.9948 -0.8836
  796MOL0     H 7445   4.888   7.773   1.810 -1.7652 -0.8455 -0.1334
  796MOL0     H 7446   5.329   7.761   1.743  2.6285 -0.4110  0.1015
  796MOL0     H 7447   5.477   7.908   1.624 -0.9473  1.9488 -1.1409
  796MOL0     H 7448   5.663   8.222   1.574  0.4661  0.4183  1.0828
  796MOL0     H 7449   5.520   8.116   1.529  2.3742 -1.0505 -3.3208
  796MOL0     H 7450   5.685   7.918   1.612  2.5691 -1.1911 -1.4698
  796MOL0     H 7451   5.792   8.050   1.645 -0.1717  1.0253 -1.1136
  796MOL0     H 7452   5.790   8.108   1.408 -0.6338 -0.2091 -2.5724
  796MOL0     H 7453   5.675   7.981   1.372 -1.3684 -0.4783  1.8449
  796MOL0     H 7454   5.976   7.939   1.441  1.3523 -1.9889 -5.2027
  796MOL0     H 7455   5.858   7.816   1.492  2.7029 -0.1774  0.4734
  796MOL0     H 7456   5.878   7.804   1.067 -2.1710  2.0365  0.1754
  796MOL0     H 7457   5.482   8.178   1.956 -2.3508  0.3172  1.1454
  796MOL0     H 7458   5.398   8.119   2.164  0.5424 -0.8542  0.5551
  796MOL0     H 7459   5.216   8.100   2.121 -1.1333 -2.9501  2.5054
  796MOL0     H 7460   5.314   7.966   2.183 -1.4137 -0.8265 -0.4709
  797MOL0     O 7461   4.181   3.942   5.569  0.2311  0.1256 -0.1835
  797MOL0     C 7462   4.207   3.849   5.487 -0.7762 -0.7041 -0.2478
  797MOL0     O 7463   4.138   3.814   5.378 -0.3975  0.4031 -0.5859
  797MOL0     C 7464   4.040   3.891   5.341  0.0993 -0.2148  0.3702
  797MOL0     C 7465   3.907   3.880   5.392  0.1554  0.3360 -0.7210
  797MOL0     C 7466   3.801   3.956   5.356 -0.1687  0.6225  0.5479
  797MOL0     C 7467   3.810   4.041   5.249  0.6679 -0.8278 -0.5207
  797MOL0     O 7468   3.704   4.128   5.216 -0.0568 -0.5174  0.3412
  797MOL0     C 7469   3.579   4.116   5.267 -0.6680  0.1805 -0.6759
  797MOL0     C 7470   3.491   4.228   5.215 -0.4945 -0.3928  0.3900
  797MOL0     C 7471   3.479   4.227   5.059  0.6211  0.6903 -0.9768
  797MOL0     C 7472   3.356   4.315   5.020  1.8714 -1.4528  0.2780
  797MOL0     C 7473   3.334   4.313   4.865 -1.0384 -0.0168 -0.0260
  797MOL0     C 7474   3.461   4.349   4.781 -0.4622  0.2775 -0.0141
  797MOL0     C 7475   3.546   4.222   4.742  0.3751 -0.1634 -0.2159
  797MOL0     C 7476   3.647   4.251   4.634  0.6726 -0.0023  0.2041
  797MOL0     N 7477   3.693   4.130   4.564  0.5633 -0.0782  0.7133
  797MOL0     C 7478   3.640   4.073   4.450 -0.0910 -0.1789 -0.1966
  797MOL0     C 7479   3.724   3.974   4.413  0.3666 -0.0568 -0.4324
  797MOL0     C 7480   3.684   3.881   4.300  0.2935 -0.0973 -1.0620
  797MOL0     C 7481   3.721   3.933   4.161 -0.1814 -0.2045 -1.0234
  797MOL0     C 7482   3.719   3.826   4.050  0.5113 -0.0373 -0.2281
  797MOL0     C 7483   3.737   3.881   3.902  0.1849 -0.0769 -0.1922
  797MOL0     O 7484   3.866   3.941   3.902 -0.3642 -0.2649 -0.3055
  797MOL0     C 7485   3.951   3.889   3.807  0.3452 -0.6882 -1.1098
  797MOL0     C 7486   4.080   3.865   3.848  0.9126  0.5900 -0.0148
  797MOL0     C 7487   4.185   3.828   3.765  0.0072  1.0480 -0.2386
  797MOL0     C 7488   4.155   3.819   3.627 -0.0319  0.7885 -0.3288
  797MOL0     C 7489   4.259   3.785   3.530  0.5365  0.6413 -0.1666
  797MOL0     O 7490   4.220   3.797   3.399 -0.2533 -1.3543  0.2766
  797MOL0     C 7491   4.300   3.738   3.299  0.7509 -0.2149  0.2841
  797MOL0     C 7492   4.230   3.652   3.211 -0.1267  0.5205 -0.1378
  797MOL0     C 7493   4.301   3.584   3.122 -0.4967  0.2911  0.4463
  797MOL0     C 7494   4.448   3.599   3.103  0.5476  0.1220 -0.4194
  797MOL0     O 7495   4.515   3.520   3.012  0.5697  0.5774 -0.6944
  797MOL0     C 7496   4.602   3.582   2.916  0.5302 -0.4458 -0.8314
  797MOL0     C 7497   4.649   3.488   2.799  0.2373 -0.0649  0.7586
  797MOL0     C 7498   4.524   3.472   2.710 -0.1736 -0.0067  0.3710
  797MOL0     C 7499   4.544   3.352   2.612 -1.1861  0.4144 -0.0370
  797MOL0     C 7500   4.407   3.289   2.564 -0.8676 -0.8074 -0.3780
  797MOL0     C 7501   4.430   3.194   2.443  0.0544 -0.4784 -0.1220
  797MOL0     C 7502   4.304   3.126   2.406  0.0585  0.0691 -0.3996
  797MOL0     C 7503   4.317   3.043   2.273 -0.4855  0.3955 -0.5395
  797MOL0    Cl 7504   4.157   3.021   2.192  0.1964  0.5452 -0.1566
  797MOL0     C 7505   4.508   3.690   3.194 -0.8073  0.9909 -0.0029
  797MOL0     C 7506   4.439   3.754   3.286  0.5350  0.0341  0.3592
  797MOL0     O 7507   4.363   3.732   3.566 -0.2821 -0.0094 -0.7047
  797MOL0     C 7508   4.021   3.851   3.590  0.4277  0.2241  0.3122
  797MOL0     C 7509   3.923   3.884   3.675  0.4893  0.1230  0.0048
  797MOL0     N 7510   3.835   3.969   4.499 -0.6456  1.4175  1.0511
  797MOL0     N 7511   3.815   4.064   4.579 -0.4458 -0.3078  0.2009
  797MOL0     C 7512   3.938   4.062   5.185  0.0847  0.9028  1.1134
  797MOL0     C 7513   4.056   3.987   5.236  1.2519 -0.4119  0.5247
  797MOL0     C 7514   4.328   3.766   5.514  0.5420  0.8103 -0.3358
  797MOL0     C 7515   4.338   3.645   5.449  0.6197 -0.8117 -0.3393
  797MOL0     C 7516   4.453   3.560   5.463  0.3807 -0.6299 -0.4641
  797MOL0     C 7517   4.564   3.603   5.531 -0.5528  0.0236 -0.3908
  797MOL0     O 7518   4.672   3.519   5.517 -0.8170  1.1157 -0.2256
  797MOL0     C 7519   4.787   3.552   5.596 -0.9976 -0.0645  0.3939
  797MOL0     C 7520   4.907   3.451   5.575  0.5597  0.3721  0.6745
  797MOL0     C 7521   4.862   3.299   5.561 -0.9181 -0.1092 -1.2099
  797MOL0     C 7522   4.980   3.194   5.544 -0.3408  0.3802  0.1827
  797MOL0     C 7523   5.098   3.235   5.622 -0.6862 -0.2017 -1.1145
  797MOL0     C 7524   5.201   3.257   5.685 -0.2034 -0.6311  0.7313
  797MOL0     C 7525   4.569   3.737   5.576  0.0919  0.9641  0.4827
  797MOL0     C 7526   4.451   3.810   5.575 -1.1017 -0.0793 -0.2584
  797MOL0     C 7527   4.455   3.937   5.653 -0.6112  1.0592 -0.2603
  797MOL0     H 7528   3.897   3.792   5.455 -2.9575  0.8114 -0.3693
  797MOL0     H 7529   3.717   3.931   5.420 -2.0994  5.0050  0.1412
  797MOL0     H 7530   3.538   4.020   5.233  0.4592 -0.7608  0.5348
  797MOL0     H 7531   3.588   4.132   5.375 -0.0212 -0.2040 -0.6697
  797MOL0     H 7532   3.539   4.324   5.236 -2.8173  0.5629  1.5817
  797MOL0     H 7533   3.389   4.232   5.253 -1.5868  1.9701 -2.4677
  797MOL0     H 7534   3.454   4.123   5.038 -0.6312  0.1123  2.7211
  797MOL0     H 7535   3.577   4.259   5.021  1.1399  2.3676  1.5478
  797MOL0     H 7536   3.266   4.283   5.074  1.3574  0.0530  0.3411
  797MOL0     H 7537   3.368   4.416   5.059  0.1553 -1.2654  0.3881
  797MOL0     H 7538   3.299   4.213   4.838 -2.5913  1.0319 -2.2205
  797MOL0     H 7539   3.254   4.385   4.845 -0.3748  0.3322 -1.5290
  797MOL0     H 7540   3.415   4.387   4.690 -4.6976 -1.4744  1.1034
  797MOL0     H 7541   3.524   4.423   4.832 -0.4811  1.1679 -1.2577
  797MOL0     H 7542   3.470   4.147   4.715 -0.4604  1.0359 -1.2999
  797MOL0     H 7543   3.600   4.185   4.830  0.7525 -2.6706 -1.4037
  797MOL0     H 7544   3.603   4.302   4.548  0.9031 -0.7576 -0.3652
  797MOL0     H 7545   3.725   4.307   4.686  0.8280 -0.3361  0.3288
  797MOL0     H 7546   3.556   4.107   4.389  0.7474  0.6093 -0.9429
  797MOL0     H 7547   3.724   3.780   4.315  1.8836  0.4217 -1.5294
  797MOL0     H 7548   3.575   3.870   4.302  0.3807 -0.9831 -0.1089
  797MOL0     H 7549   3.643   4.008   4.143 -1.8013 -0.9655  2.1540
  797MOL0     H 7550   3.822   3.974   4.173 -0.0335 -0.8906  0.2412
  797MOL0     H 7551   3.624   3.772   4.048  1.6151 -2.0881 -0.2522
  797MOL0     H 7552   3.803   3.757   4.065 -0.5800 -0.9779  2.2044
  797MOL0     H 7553   3.667   3.960   3.875 -1.7974 -1.0431  1.8277
  797MOL0     H 7554   3.738   3.800   3.828  2.6200  0.2429 -0.5934
  797MOL0     H 7555   4.101   3.877   3.954  3.6375 -0.2085 -0.3794
  797MOL0     H 7556   4.280   3.797   3.807 -1.0551 -0.8632  0.8869
  797MOL0     H 7557   4.122   3.643   3.221  0.0456 -5.2406 -0.2005
  797MOL0     H 7558   4.255   3.517   3.050 -1.7998  0.6657  0.9079
  797MOL0     H 7559   4.546   3.664   2.871 -1.1125  1.4272  3.9417
  797MOL0     H 7560   4.696   3.611   2.965  1.1106 -2.2656 -0.7780
  797MOL0     H 7561   4.731   3.537   2.746 -0.3627 -1.9640 -2.0824
  797MOL0     H 7562   4.687   3.403   2.856 -2.2810 -0.3572  2.1483
  797MOL0     H 7563   4.438   3.439   2.768 -1.3806 -0.6363 -1.6656
  797MOL0     H 7564   4.495   3.561   2.653 -0.4663  0.9348  1.9401
  797MOL0     H 7565   4.620   3.282   2.648  1.6299  3.3422  0.1024
  797MOL0     H 7566   4.601   3.382   2.523  1.1886 -3.9019 -0.2473
  797MOL0     H 7567   4.342   3.370   2.532  1.5045  0.3645 -2.5773
  797MOL0     H 7568   4.366   3.235   2.651  0.9012  0.0289  1.0497
  797MOL0     H 7569   4.479   3.257   2.369  2.0901  0.2334  1.7083
  797MOL0     H 7570   4.505   3.119   2.471  0.5686  0.5961  1.5817
  797MOL0     H 7571   4.223   3.196   2.384  0.6925  0.1120 -2.9124
  797MOL0     H 7572   4.276   3.057   2.485 -4.0313 -0.1190 -1.8016
  797MOL0     H 7573   4.367   3.115   2.208  1.2290  1.3524  1.6912
  797MOL0     H 7574   4.388   2.959   2.280 -0.3414  0.4269 -1.5122
  797MOL0     H 7575   4.614   3.711   3.188 -0.4838 -0.6953 -0.6011
  797MOL0     H 7576   4.489   3.817   3.359 -0.1978  1.9359 -0.6931
  797MOL0     H 7577   3.995   3.845   3.485 -0.4697  1.4642  0.4399
  797MOL0     H 7578   3.826   3.910   3.633 -1.6136 -0.9875  3.6896
  797MOL0     H 7579   3.938   4.125   5.097 -0.4770 -0.8650 -0.2260
  797MOL0     H 7580   4.151   3.984   5.184  0.1125  0.7220 -1.7658
  797MOL0     H 7581   4.254   3.622   5.384 -0.3523  0.9129  0.2179
  797MOL0     H 7582   4.468   3.458   5.428  0.0939 -1.0109  0.4950
  797MOL0     H 7583   4.765   3.542   5.702 -0.5345 -0.0653  0.4922
  797MOL0     H 7584   4.813   3.654   5.566 -1.8546  0.7801  2.3714
  797MOL0     H 7585   4.964   3.475   5.665  1.1745  2.3091 -0.1806
  797MOL0     H 7586   4.976   3.489   5.500 -0.0018  0.9632  0.4402
  797MOL0     H 7587   4.810   3.293   5.465  2.6392  1.2290 -3.4679
  797MOL0     H 7588   4.781   3.267   5.626 -1.0911  1.0895 -0.8005
  797MOL0     H 7589   4.943   3.096   5.575  0.5416 -0.6757 -1.9559
  797MOL0     H 7590   5.011   3.185   5.440  1.2200 -0.9434  0.7187
  797MOL0     H 7591   5.289   3.285   5.740 -0.2532  0.8323  0.1115
  797MOL0     H 7592   4.664   3.775   5.614 -0.4548  0.2369  2.7741
  797MOL0     H 7593   4.559   3.966   5.672 -0.6805  0.7877  0.5812
  797MOL0     H 7594   4.415   4.027   5.605 -1.1517  1.9102  1.6946
  797MOL0     H 7595   4.417   3.933   5.755 -2.3490  1.4022 -0.8622
  798MOL0     O 7596  11.158   1.642   3.265  0.2854  0.2556  0.2478
  798MOL0     C 7597  11.148   1.652   3.144  0.0221  0.8503  0.2269
  798MOL0     O 7598  11.252   1.685   3.060  0.4670 -0.2303  0.1465
  798MOL0     C 7599  11.376   1.685   3.127  0.1563 -0.3232 -0.3410
  798MOL0     C 7600  11.416   1.813   3.178  0.2101  0.7909 -0.2574
  798MOL0     C 7601  11.536   1.812   3.254 -0.9010 -0.5885  0.1922
  798MOL0     C 7602  11.630   1.710   3.261  0.5827 -0.4191 -0.0591
  798MOL0     O 7603  11.744   1.743   3.336 -0.8308  0.0126  0.8082
  798MOL0     C 7604  11.861   1.660   3.353 -1.0950  0.4268  0.8285
  798MOL0     C 7605  11.991   1.753   3.370  0.6778  0.1290 -0.4738
  798MOL0     C 7606  12.037   1.798   3.223  0.4051  0.4219 -0.5055
  798MOL0     C 7607  12.081   1.951   3.205 -0.2044 -0.2465  0.3028
  798MOL0     C 7608  12.212   1.977   3.283  1.3669  0.9080  0.1518
  798MOL0     C 7609  12.288   2.108   3.271  0.6363  0.0237 -0.0282
  798MOL0     C 7610  12.343   2.133   3.129 -0.0245  0.1578  0.1567
  798MOL0     C 7611  12.456   2.044   3.069 -0.2308 -0.2541 -0.0659
  798MOL0     N 7612  12.580   2.039   3.148 -0.3963  0.4425 -0.4343
  798MOL0     C 7613  12.691   2.119   3.129 -0.6455  0.0012  0.5409
  798MOL0     C 7614  12.796   2.073   3.208 -0.1951 -1.0927  0.3773
  798MOL0     C 7615  12.933   2.130   3.203  0.3319  1.2859  0.1509
  798MOL0     C 7616  13.011   2.066   3.089 -0.5349  0.3580 -0.6460
  798MOL0     C 7617  13.159   2.122   3.086 -0.2640  0.6403  0.4788
  798MOL0     C 7618  13.260   2.068   3.187 -0.4663 -0.2630  0.5257
  798MOL0     O 7619  13.273   1.922   3.195 -0.5646  0.4689 -0.4449
  798MOL0     C 7620  13.392   1.866   3.245  0.5101 -0.2541 -0.6636
  798MOL0     C 7621  13.472   1.910   3.351  0.0437  0.6384  0.2085
  798MOL0     C 7622  13.583   1.835   3.402 -0.2159  0.8747  0.4802
  798MOL0     C 7623  13.598   1.701   3.350 -0.0179 -1.4302 -0.2047
  798MOL0     C 7624  13.713   1.618   3.396  0.0822  0.7951  0.0385
  798MOL0     O 7625  13.777   1.647   3.509  0.2139  0.4783  0.1334
  798MOL0     C 7626  13.886   1.586   3.552 -0.5567  0.1693 -0.5564
  798MOL0     C 7627  14.002   1.656   3.551 -0.3855 -0.0969  0.2422
  798MOL0     C 7628  14.125   1.609   3.613  1.1754  0.1621  0.7838
  798MOL0     C 7629  14.114   1.496   3.693 -0.0086  0.1190  0.3816
  798MOL0     O 7630  14.221   1.440   3.765 -0.4975 -0.1778 -0.3004
  798MOL0     C 7631  14.337   1.513   3.781  0.1875  0.3307  0.9072
  798MOL0     C 7632  14.445   1.428   3.838 -0.9456  0.3873 -0.2505
  798MOL0     C 7633  14.471   1.296   3.771 -0.6213  0.1271  0.1429
  798MOL0     C 7634  14.507   1.315   3.621 -0.1919 -0.6006  0.3500
  798MOL0     C 7635  14.576   1.187   3.558  0.9336  0.4343 -0.3413
  798MOL0     C 7636  14.540   1.171   3.413  0.3140  0.4299  0.7069
  798MOL0     C 7637  14.591   1.044   3.347 -0.0230 -0.7131  0.8176
  798MOL0     C 7638  14.572   1.058   3.191  0.2421  0.3027 -1.3975
  798MOL0    Cl 7639  14.666   1.194   3.120 -0.1478  0.1589  0.2430
  798MOL0     C 7640  13.995   1.427   3.704  0.2603  0.1152  0.6896
  798MOL0     C 7641  13.877   1.472   3.635 -0.3804  0.3429  0.0952
  798MOL0     O 7642  13.753   1.538   3.306  0.0320  0.5948 -1.1426
  798MOL0     C 7643  13.516   1.655   3.247 -0.7348 -0.2341 -0.7206
  798MOL0     C 7644  13.416   1.739   3.203 -0.6125 -0.0641 -0.3829
  798MOL0     N 7645  12.745   1.963   3.274  0.7795 -0.6857 -0.7543
  798MOL0     N 7646  12.621   1.935   3.232  0.4375  0.4972 -0.1780
  798MOL0     C 7647  11.591   1.588   3.195 -0.7807 -1.1437  0.2530
  798MOL0     C 7648  11.463   1.578   3.132 -0.2878 -0.3956 -0.7814
  798MOL0     C 7649  11.018   1.607   3.082  0.4368  0.3306  0.3164
  798MOL0     C 7650  11.022   1.567   2.942 -0.2629  0.9460  0.1766
  798MOL0     C 7651  10.904   1.520   2.881  0.4664 -0.2957  0.9307
  798MOL0     C 7652  10.786   1.517   2.950  0.2229 -0.2464 -0.0167
  798MOL0     O 7653  10.677   1.459   2.895 -0.1734  0.2784  0.9279
  798MOL0     C 7654  10.668   1.424   2.754 -0.4290 -0.8962  0.5353
  798MOL0     C 7655  10.541   1.345   2.725  0.8431  0.2056  0.0530
  798MOL0     C 7656  10.553   1.203   2.791 -0.0177 -0.7642 -0.3231
  798MOL0     C 7657  10.497   1.212   2.925  0.1015  0.2323 -0.3831
  798MOL0     C 7658  10.484   1.082   2.994  0.3320  0.3520  0.1946
  798MOL0     C 7659  10.483   0.976   3.059 -0.6299  0.9462 -1.0834
  798MOL0     C 7660  10.771   1.562   3.081 -0.4433 -0.5482  0.1455
  798MOL0     C 7661  10.883   1.604   3.147  0.3678  0.0547 -0.6919
  798MOL0     C 7662  10.867   1.621   3.300 -0.1812 -0.0004  1.4716
  798MOL0     H 7663  11.345   1.891   3.154  0.5918  0.2987 -3.3698
  798MOL0     H 7664  11.570   1.901   3.306  1.9549 -0.2325 -2.0574
  798MOL0     H 7665  11.860   1.595   3.441 -2.0154 -0.5646  0.1072
  798MOL0     H 7666  11.881   1.600   3.264  1.7253  0.6067  1.2554
  798MOL0     H 7667  12.077   1.702   3.414 -0.0037 -0.2114  0.4930
  798MOL0     H 7668  11.982   1.838   3.439  4.1169 -0.4552  0.8781
  798MOL0     H 7669  11.952   1.778   3.157  0.0509  0.7844 -0.1677
  798MOL0     H 7670  12.118   1.732   3.192 -0.0682  0.4132 -1.7666
  798MOL0     H 7671  12.101   1.972   3.099  0.1424  0.4228  0.5021
  798MOL0     H 7672  12.012   2.028   3.240  1.0660  0.8374  0.4420
  798MOL0     H 7673  12.191   1.967   3.390 -0.6057  0.5465 -0.2229
  798MOL0     H 7674  12.274   1.893   3.253  0.1265 -0.4875  1.3102
  798MOL0     H 7675  12.228   2.196   3.296  0.7800  0.3081 -0.6435
  798MOL0     H 7676  12.372   2.123   3.339  1.0757  1.6328 -0.8664
  798MOL0     H 7677  12.381   2.236   3.118  1.2989 -0.4750 -1.8763
  798MOL0     H 7678  12.257   2.132   3.061  0.2401  2.3059 -0.2858
  798MOL0     H 7679  12.412   1.943   3.074 -2.9681  0.9239  1.8369
  798MOL0     H 7680  12.488   2.071   2.968 -1.9581 -0.4181 -0.7086
  798MOL0     H 7681  12.707   2.189   3.047  2.8021 -2.6735 -1.3871
  798MOL0     H 7682  12.922   2.236   3.181 -2.6469  0.8006 -1.2463
  798MOL0     H 7683  12.989   2.132   3.297  1.0357  2.9508 -0.2678
  798MOL0     H 7684  13.009   1.958   3.103  2.5472  0.1350 -1.1438
  798MOL0     H 7685  12.964   2.071   2.990 -3.3890  0.8446  0.6439
  798MOL0     H 7686  13.155   2.231   3.085  0.9109  0.6940 -0.0243
  798MOL0     H 7687  13.199   2.095   2.988  0.5295  0.9716  0.7014
  798MOL0     H 7688  13.231   2.111   3.283 -0.9599  1.5460 -0.3854
  798MOL0     H 7689  13.357   2.103   3.152 -0.3666 -0.2821  0.7826
  798MOL0     H 7690  13.450   2.006   3.396 -0.8954  0.5653 -0.0800
  798MOL0     H 7691  13.659   1.871   3.471  1.8072  1.0507 -1.7138
  798MOL0     H 7692  13.992   1.758   3.514 -0.1083  0.8868  2.7012
  798MOL0     H 7693  14.213   1.671   3.599  1.2386  0.0588  0.7252
  798MOL0     H 7694  14.374   1.543   3.682 -1.1515 -1.1980 -0.1123
  798MOL0     H 7695  14.313   1.608   3.828 -0.8853  0.6788 -0.2827
  798MOL0     H 7696  14.533   1.490   3.821 -1.5220  0.8295 -1.6841
  798MOL0     H 7697  14.423   1.413   3.944  1.1924  1.5363  0.4105
  798MOL0     H 7698  14.560   1.256   3.819 -0.9832  0.6869  1.3014
  798MOL0     H 7699  14.389   1.225   3.780  0.4324 -1.0588  0.5733
  798MOL0     H 7700  14.567   1.407   3.616 -1.1983  0.1079  0.9708
  798MOL0     H 7701  14.419   1.331   3.558  0.3922 -0.7355 -0.5177
  798MOL0     H 7702  14.550   1.098   3.616  1.4573  0.4837 -0.0301
  798MOL0     H 7703  14.685   1.191   3.569  1.0291  1.5623 -1.5036
  798MOL0     H 7704  14.435   1.192   3.390 -0.4228 -0.7815  2.7125
  798MOL0     H 7705  14.587   1.258   3.367 -0.7923  1.1245  0.8321
  798MOL0     H 7706  14.523   0.963   3.376  1.1027 -1.0071  2.7793
  798MOL0     H 7707  14.695   1.026   3.374 -0.5832 -0.7657  3.1483
  798MOL0     H 7708  14.611   0.967   3.144  0.1583  0.1022 -1.0876
  798MOL0     H 7709  14.465   1.051   3.172  0.0579 -2.7434  0.1266
  798MOL0     H 7710  13.988   1.337   3.764  2.8835 -1.8370 -1.6468
  798MOL0     H 7711  13.778   1.435   3.660 -0.5559  2.0646  2.2438
  798MOL0     H 7712  13.536   1.561   3.197  1.2610 -0.3573  0.2246
  798MOL0     H 7713  13.355   1.696   3.124  2.6304 -2.0457 -2.0138
  798MOL0     H 7714  11.650   1.497   3.185 -1.4945 -1.9545  2.6303
  798MOL0     H 7715  11.421   1.492   3.080  2.5523 -0.4951 -3.1460
  798MOL0     H 7716  11.112   1.571   2.882 -0.2598 -2.4699 -0.2048
  798MOL0     H 7717  10.902   1.493   2.776  2.2002 -0.5040  0.9214
  798MOL0     H 7718  10.751   1.357   2.731  0.7589 -0.1691  2.4520
  798MOL0     H 7719  10.670   1.516   2.694 -2.2915  1.7687  4.1752
  798MOL0     H 7720  10.548   1.322   2.618  0.0557  2.3338 -0.4956
  798MOL0     H 7721  10.446   1.391   2.752  2.4559  2.5005  2.2652
  798MOL0     H 7722  10.657   1.170   2.803  0.0435  0.1628  2.3493
  798MOL0     H 7723  10.492   1.145   2.721 -1.3885  2.2771 -1.8230
  798MOL0     H 7724  10.541   1.275   3.002 -4.0382  2.0192  0.8181
  798MOL0     H 7725  10.398   1.259   2.926 -1.1127 -2.0294  3.0536
  798MOL0     H 7726  10.493   0.880   3.106  1.7605 -0.0611 -3.3750
  798MOL0     H 7727  10.681   1.543   3.140  1.2996 -1.1216  2.7633
  798MOL0     H 7728  10.911   1.715   3.337  0.0445  1.2342 -1.6581
  798MOL0     H 7729  10.761   1.635   3.324 -0.1397 -0.8138  2.1572
  798MOL0     H 7730  10.897   1.530   3.353 -1.6524 -0.7419  1.0808
  799MOL0     O 7731   7.289   2.909  10.689 -0.4936 -0.1443 -0.1556
  799MOL0     C 7732   7.243   3.018  10.653  0.4874  0.1820  0.8587
  799MOL0     O 7733   7.118   3.050  10.669 -0.5533  0.2274  0.7350
  799MOL0     C 7734   7.013   2.959  10.668  0.7092  0.5441  0.4001
  799MOL0     C 7735   6.889   2.999  10.728 -0.3595 -0.6627  0.2900
  799MOL0     C 7736   6.777   2.913  10.716 -0.3305 -0.3408  0.7003
  799MOL0     C 7737   6.784   2.790  10.651 -0.5734  0.2854  0.2411
  799MOL0     O 7738   6.682   2.699  10.636  0.1230  0.2075 -0.3107
  799MOL0     C 7739   6.544   2.729  10.677 -0.2681 -0.2931 -0.5469
  799MOL0     C 7740   6.433   2.638  10.611  0.0473 -0.2475 -1.2290
  799MOL0     C 7741   6.414   2.663  10.463  0.0467 -1.2774 -0.6120
  799MOL0     C 7742   6.296   2.584  10.398  0.5385 -0.7999 -0.0373
  799MOL0     C 7743   6.167   2.669  10.425 -0.3933 -0.0014 -0.1974
  799MOL0     C 7744   6.033   2.603  10.379  0.1687  0.3597 -0.3119
  799MOL0     C 7745   5.913   2.694  10.409 -0.1467  0.0696 -0.3188
  799MOL0     C 7746   5.778   2.643  10.355 -0.0603 -0.4977 -0.5497
  799MOL0     N 7747   5.726   2.506  10.394 -0.8058 -0.2094  0.1496
  799MOL0     C 7748   5.692   2.489  10.525  0.9023 -0.3838  0.2932
  799MOL0     C 7749   5.667   2.356  10.539 -0.6889 -0.6260  0.0677
  799MOL0     C 7750   5.637   2.293  10.673  0.0004 -0.1740 -0.0126
  799MOL0     C 7751   5.741   2.297  10.785 -0.1944  0.5070 -0.4598
  799MOL0     C 7752   5.838   2.182  10.784 -0.6515  0.5048  0.7573
  799MOL0     C 7753   5.936   2.186  10.905  0.6758  0.1305  0.8422
  799MOL0     O 7754   6.021   2.298  10.877  0.0827 -0.4606  0.4628
  799MOL0     C 7755   6.146   2.313  10.934  0.1259  0.7615  0.2357
  799MOL0     C 7756   6.170   2.277  11.070 -0.3527  0.3921  0.1798
  799MOL0     C 7757   6.297   2.305  11.124 -0.0620  0.8878  0.0470
  799MOL0     C 7758   6.399   2.366  11.054 -0.5520 -0.7985  0.5360
  799MOL0     C 7759   6.528   2.395  11.124 -0.7582  0.4560  0.5327
  799MOL0     O 7760   6.548   2.350  11.248 -0.0460 -0.1802  0.4133
  799MOL0     C 7761   6.676   2.341  11.297  0.1112  0.4852 -0.4347
  799MOL0     C 7762   6.713   2.236  11.382 -0.0288 -0.4615 -0.0909
  799MOL0     C 7763   6.843   2.226  11.436 -0.4917 -0.1904  0.6809
  799MOL0     C 7764   6.930   2.336  11.423 -0.2041 -1.3247 -0.7112
  799MOL0     O 7765   7.067   2.340  11.462 -0.2019 -0.7788  0.0933
  799MOL0     C 7766   7.105   2.250  11.564  0.1021 -0.5990 -0.1863
  799MOL0     C 7767   7.228   2.286  11.648  0.6439 -0.0361 -0.4661
  799MOL0     C 7768   7.368   2.261  11.597  0.6263  0.3418  0.8450
  799MOL0     C 7769   7.409   2.327  11.466 -0.1674 -0.4316 -0.2928
  799MOL0     C 7770   7.558   2.333  11.458 -0.0431  0.2067  1.3734
  799MOL0     C 7771   7.599   2.384  11.327  0.0831 -0.4735 -0.4021
  799MOL0     C 7772   7.743   2.439  11.326  0.7289  0.3586 -0.0733
  799MOL0     C 7773   7.782   2.468  11.181 -0.4047 -0.3531 -0.1113
  799MOL0    Cl 7774   7.960   2.478  11.157  0.2303  0.4967 -0.5550
  799MOL0     C 7775   6.886   2.449  11.345  0.4768  0.3939 -1.3307
  799MOL0     C 7776   6.760   2.450  11.285 -0.1113  0.3508 -0.3638
  799MOL0     O 7777   6.614   2.451  11.060  0.1249 -0.3471  0.2253
  799MOL0     C 7778   6.373   2.418  10.923 -1.0452 -0.5965  0.8053
  799MOL0     C 7779   6.244   2.391  10.869 -0.2145  0.4061  0.2112
  799MOL0     N 7780   5.703   2.291  10.421  0.6275  0.5123  0.1762
  799MOL0     N 7781   5.742   2.384  10.337  0.4704  0.3702 -1.4845
  799MOL0     C 7782   6.902   2.757  10.599 -0.7672 -0.7048 -0.6901
  799MOL0     C 7783   7.018   2.833  10.601 -0.1993  0.1766 -0.1431
  799MOL0     C 7784   7.338   3.121  10.607 -0.1720  0.0178 -0.0144
  799MOL0     C 7785   7.465   3.125  10.677 -0.4334 -0.2053 -0.4949
  799MOL0     C 7786   7.552   3.225  10.636  0.2904 -0.3779  0.2778
  799MOL0     C 7787   7.517   3.323  10.541 -0.1317  0.7048  0.1922
  799MOL0     O 7788   7.596   3.431  10.520  0.6682 -0.0460  0.2858
  799MOL0     C 7789   7.728   3.399  10.482  0.2587 -0.3043 -0.4675
  799MOL0     C 7790   7.786   3.528  10.445  0.2112 -0.1323 -0.1770
  799MOL0     C 7791   7.936   3.517  10.433  0.5057 -0.1798 -0.1959
  799MOL0     C 7792   8.007   3.630  10.381  0.0520 -1.1885  0.7990
  799MOL0     C 7793   8.153   3.607  10.393  0.9638 -0.8561 -0.0800
  799MOL0     C 7794   8.272   3.605  10.417  0.4557  0.1211 -0.5477
  799MOL0     C 7795   7.402   3.322  10.474  0.7129  1.1996  0.1725
  799MOL0     C 7796   7.308   3.215  10.502 -0.9765 -0.7496  0.2709
  799MOL0     C 7797   7.186   3.217  10.421  1.0337 -0.0449 -0.3448
  799MOL0     H 7798   6.880   3.100  10.768 -0.6347 -0.9000  0.8374
  799MOL0     H 7799   6.683   2.929  10.769 -0.1710 -0.2888  0.9724
  799MOL0     H 7800   6.547   2.735  10.786  0.8421 -1.2419 -0.5026
  799MOL0     H 7801   6.520   2.830  10.643 -0.8452 -1.0072 -2.3637
  799MOL0     H 7802   6.340   2.668  10.660  1.7295  2.8398  0.3943
  799MOL0     H 7803   6.449   2.531  10.628 -1.6096 -0.3466 -0.0487
  799MOL0     H 7804   6.510   2.634  10.420  1.7775  1.5930  0.9875
  799MOL0     H 7805   6.406   2.768  10.433  3.6420 -0.5114  0.6424
  799MOL0     H 7806   6.312   2.566  10.292  0.6417 -0.0309 -0.1565
  799MOL0     H 7807   6.283   2.486  10.447  0.3143 -1.2575 -1.0012
  799MOL0     H 7808   6.162   2.710  10.526 -2.7868 -1.9227  0.5638
  799MOL0     H 7809   6.165   2.750  10.352 -1.5762 -0.0642 -0.2512
  799MOL0     H 7810   6.037   2.573  10.274 -0.0679  2.3568 -0.9351
  799MOL0     H 7811   6.020   2.511  10.436  1.1069  0.9414  0.8997
  799MOL0     H 7812   5.929   2.794  10.366  1.3708 -0.6913 -1.6234
  799MOL0     H 7813   5.893   2.702  10.516 -0.3714  0.2031 -0.3709
  799MOL0     H 7814   5.698   2.714  10.377 -0.7339 -1.1367 -0.9004
  799MOL0     H 7815   5.792   2.640  10.247  0.3865 -0.7516 -0.4892
  799MOL0     H 7816   5.665   2.563  10.600  0.9543 -1.4119  1.3557
  799MOL0     H 7817   5.545   2.340  10.710  0.2368  1.9119 -1.9003
  799MOL0     H 7818   5.621   2.188  10.648  2.0756 -0.4934 -0.1388
  799MOL0     H 7819   5.789   2.395  10.788  1.4393 -0.2653 -0.0787
  799MOL0     H 7820   5.693   2.286  10.883 -0.4507 -0.7416 -0.7115
  799MOL0     H 7821   5.890   2.203  10.690 -1.1457 -1.0226  0.1172
  799MOL0     H 7822   5.799   2.082  10.767 -2.0312  1.2544 -0.8155
  799MOL0     H 7823   5.998   2.096  10.900  0.1753 -0.1993  0.5229
  799MOL0     H 7824   5.893   2.196  11.005  2.7704  1.5431  1.6735
  799MOL0     H 7825   6.092   2.219  11.118 -1.1946  0.8615 -0.5876
  799MOL0     H 7826   6.305   2.268  11.226  0.4328 -0.0698 -0.3281
  799MOL0     H 7827   6.650   2.152  11.407 -0.0115 -1.3399 -2.7032
  799MOL0     H 7828   6.869   2.134  11.487 -0.9037  0.0914  1.4071
  799MOL0     H 7829   7.025   2.230  11.635  0.0330  1.4767  0.3903
  799MOL0     H 7830   7.118   2.151  11.518 -0.4398  0.1749 -2.0961
  799MOL0     H 7831   7.217   2.393  11.667 -1.8862 -0.1227 -1.0398
  799MOL0     H 7832   7.229   2.240  11.747 -1.1713 -3.5653 -1.8690
  799MOL0     H 7833   7.443   2.297  11.669  1.4254  1.2744 -0.4217
  799MOL0     H 7834   7.375   2.151  11.599  1.8898  0.4167  1.7044
  799MOL0     H 7835   7.353   2.420  11.455 -1.9139 -1.4037 -0.0081
  799MOL0     H 7836   7.376   2.256  11.390 -0.3984  1.0187 -1.5937
  799MOL0     H 7837   7.596   2.233  11.477  0.5850  0.3374  0.8394
  799MOL0     H 7838   7.603   2.397  11.534 -0.5278 -1.9602  3.6027
  799MOL0     H 7839   7.586   2.307  11.250  0.3827  1.4214 -2.4575
  799MOL0     H 7840   7.530   2.458  11.285 -0.0898 -1.0847 -1.2232
  799MOL0     H 7841   7.818   2.377  11.376  0.0952  0.2286  0.7258
  799MOL0     H 7842   7.738   2.532  11.383  0.0056 -1.0238  2.2402
  799MOL0     H 7843   7.735   2.401  11.109 -0.0825  2.0707 -2.7583
  799MOL0     H 7844   7.744   2.568  11.157 -0.9802 -0.4792  0.2607
  799MOL0     H 7845   6.963   2.524  11.330  0.2544  0.6629 -1.1495
  799MOL0     H 7846   6.729   2.544  11.241 -0.3900 -0.5215 -2.1474
  799MOL0     H 7847   6.457   2.468  10.877  3.4429 -4.1357  4.1506
  799MOL0     H 7848   6.218   2.422  10.768  2.0011 -3.0584 -1.6221
  799MOL0     H 7849   6.911   2.659  10.554 -1.5429 -0.0929 -2.2679
  799MOL0     H 7850   7.110   2.798  10.556 -1.1445 -2.3615 -0.2884
  799MOL0     H 7851   7.499   3.051  10.748  1.6005  1.5200  0.4367
  799MOL0     H 7852   7.640   3.243  10.697  0.5864  3.7022 -1.0571
  799MOL0     H 7853   7.717   3.347  10.386 -2.9040  4.9940 -3.4691
  799MOL0     H 7854   7.792   3.337  10.546  4.3187  2.0898 -1.8115
  799MOL0     H 7855   7.766   3.589  10.534 -1.1098 -2.8905  1.5324
  799MOL0     H 7856   7.746   3.557  10.348  0.2085 -1.9992 -0.7714
  799MOL0     H 7857   7.956   3.436  10.362  0.7584 -0.8657  0.6271
  799MOL0     H 7858   7.986   3.495  10.528  2.4840  1.4857 -0.7822
  799MOL0     H 7859   7.962   3.652  10.284 -2.0687 -0.9266  1.7862
  799MOL0     H 7860   7.980   3.720  10.437 -3.5162 -1.7134  0.1491
  799MOL0     H 7861   8.375   3.605  10.449 -0.4183 -2.1841  2.7965
  799MOL0     H 7862   7.375   3.388  10.393  0.5135  0.2979 -0.5198
  799MOL0     H 7863   7.138   3.315  10.424 -2.1056 -1.4172 -1.0272
  799MOL0     H 7864   7.208   3.196  10.316  0.6204 -2.8661  0.0378
  799MOL0     H 7865   7.116   3.138  10.450 -0.3720  0.2603 -2.6486
  800MOL0     O 7866  10.048   5.714   7.684 -0.4697 -0.0719  0.0298
  800MOL0     C 7867  10.000   5.627   7.610 -0.8218 -0.0195 -1.2870
  800MOL0     O 7868  10.070   5.535   7.544 -0.1529  0.1627  0.2077
  800MOL0     C 7869  10.200   5.523   7.583  1.4062  0.0201  0.2187
  800MOL0     C 7870  10.292   5.562   7.493 -0.6563 -0.4445  0.5583
  800MOL0     C 7871  10.431   5.541   7.511  0.8030 -0.4562  0.4661
  800MOL0     C 7872  10.471   5.484   7.632  0.7309  1.5635  0.3622
  800MOL0     O 7873  10.604   5.455   7.642 -0.6090  0.4068 -0.6861
  800MOL0     C 7874  10.659   5.420   7.768 -0.2446  0.0840 -0.6507
  800MOL0     C 7875  10.811   5.408   7.733  0.9229  0.2985 -0.7298
  800MOL0     C 7876  10.880   5.536   7.694  0.0904 -1.1430 -0.8719
  800MOL0     C 7877  11.028   5.530   7.679  0.3871  0.3654 -0.1562
  800MOL0     C 7878  11.098   5.527   7.825 -0.9508  0.1754  0.4926
  800MOL0     C 7879  11.248   5.553   7.824  0.2378 -1.2179 -0.4560
  800MOL0     C 7880  11.325   5.448   7.745  0.1468 -0.3058 -0.4019
  800MOL0     C 7881  11.477   5.450   7.777  0.2725  0.3215 -0.0645
  800MOL0     N 7882  11.537   5.581   7.766  0.4765 -0.5833  0.3229
  800MOL0     C 7883  11.592   5.644   7.656  0.6815 -0.8238  0.3681
  800MOL0     C 7884  11.641   5.762   7.708 -0.3679 -0.2018  0.3430
  800MOL0     C 7885  11.730   5.858   7.630 -0.4960 -0.0435  0.0983
  800MOL0     C 7886  11.834   5.930   7.733  0.7870  0.4155  0.5729
  800MOL0     C 7887  11.899   6.047   7.655 -0.2180 -0.3283 -0.3268
  800MOL0     C 7888  11.992   6.015   7.542 -0.3646  0.0714  0.4640
  800MOL0     O 7889  12.092   6.121   7.525  0.0812 -0.0077 -0.3696
  800MOL0     C 7890  12.210   6.120   7.604 -0.5601  0.0684  0.1106
  800MOL0     C 7891  12.307   6.193   7.562  0.3342 -0.4819  0.7192
  800MOL0     C 7892  12.434   6.176   7.617  0.3398  0.7419  0.1853
  800MOL0     C 7893  12.459   6.079   7.717  0.0075 -0.6086  0.2191
  800MOL0     C 7894  12.593   6.039   7.746  1.0149  0.4525  0.1855
  800MOL0     O 7895  12.618   5.940   7.838  0.0277 -0.5787 -0.4973
  800MOL0     C 7896  12.741   5.935   7.884 -1.0592 -0.5989  0.2970
  800MOL0     C 7897  12.752   5.966   8.020  0.5757  0.2104 -0.1373
  800MOL0     C 7898  12.880   5.954   8.080 -0.3930 -0.8564  0.3664
  800MOL0     C 7899  12.989   5.916   8.007 -0.1313  0.1954  0.7170
  800MOL0     O 7900  13.108   5.894   8.070  0.1426 -0.4853 -0.3498
  800MOL0     C 7901  13.223   5.959   8.023 -0.0823  0.0357 -0.4770
  800MOL0     C 7902  13.311   6.024   8.129  0.6741 -0.1131 -0.3908
  800MOL0     C 7903  13.219   6.111   8.228  0.0388  0.3350 -0.2257
  800MOL0     C 7904  13.169   6.233   8.151 -0.0381 -0.1433 -0.6680
  800MOL0     C 7905  13.091   6.313   8.245 -0.0461  1.5487 -1.3421
  800MOL0     C 7906  13.035   6.437   8.178 -0.3151 -0.1768 -0.0914
  800MOL0     C 7907  13.135   6.555   8.167 -0.4267  0.0416  0.4325
  800MOL0     C 7908  13.076   6.662   8.067 -0.4113  0.5456  0.0697
  800MOL0    Cl 7909  13.171   6.814   8.081  0.2510  0.4240 -0.1012
  800MOL0     C 7910  12.978   5.890   7.866  0.3535 -1.1382 -0.6187
  800MOL0     C 7911  12.852   5.898   7.807  0.0554  1.0058 -0.0401
  800MOL0     O 7912  12.676   6.105   7.686 -0.3456  0.9372 -0.6735
  800MOL0     C 7913  12.346   6.011   7.769 -1.0483  0.4036  0.3113
  800MOL0     C 7914  12.222   6.030   7.715 -0.2925 -0.4788 -0.8026
  800MOL0     N 7915  11.616   5.770   7.845  0.4305  0.7599 -0.7263
  800MOL0     N 7916  11.553   5.661   7.876 -0.4157  1.2215 -0.7968
  800MOL0     C 7917  10.376   5.453   7.730  1.1379 -0.1899 -0.1816
  800MOL0     C 7918  10.239   5.462   7.702 -0.4497 -0.0336  0.1126
  800MOL0     C 7919   9.845   5.625   7.601 -0.2973  0.6169  0.1008
  800MOL0     C 7920   9.772   5.727   7.655  0.8926 -0.1126 -0.3808
  800MOL0     C 7921   9.638   5.738   7.635  0.3255  0.7055 -1.0354
  800MOL0     C 7922   9.563   5.637   7.571 -0.1591  0.3438  0.2965
  800MOL0     O 7923   9.424   5.639   7.550  0.5699  0.4863  0.4104
  800MOL0     C 7924   9.339   5.697   7.658 -0.4848 -0.1270 -0.0236
  800MOL0     C 7925   9.248   5.808   7.588  0.4519 -0.5578  0.5914
  800MOL0     C 7926   9.337   5.905   7.504  1.0546 -0.4657 -0.3585
  800MOL0     C 7927   9.261   6.015   7.434 -0.0767 -0.3870  0.7854
  800MOL0     C 7928   9.212   6.131   7.512  0.4062 -0.4265  1.4983
  800MOL0     C 7929   9.163   6.227   7.576 -0.5088 -0.1185 -0.5555
  800MOL0     C 7930   9.637   5.539   7.504  0.6844  0.0014 -0.0467
  800MOL0     C 7931   9.772   5.525   7.519 -0.0198 -0.2275  0.3589
  800MOL0     C 7932   9.832   5.392   7.467  0.1946  0.2222 -0.2207
  800MOL0     H 7933  10.251   5.608   7.404 -4.3601  0.6958  2.6559
  800MOL0     H 7934  10.506   5.568   7.438 -0.7584  1.3326 -0.5832
  800MOL0     H 7935  10.657   5.508   7.834  2.2042 -0.0911 -0.2340
  800MOL0     H 7936  10.606   5.333   7.808 -0.1082  0.1542 -0.3104
  800MOL0     H 7937  10.824   5.339   7.648  0.6225 -1.2749  0.4513
  800MOL0     H 7938  10.862   5.367   7.821  2.3827  0.5311 -1.4310
  800MOL0     H 7939  10.871   5.607   7.777  2.5199 -0.8620 -0.7727
  800MOL0     H 7940  10.844   5.583   7.602  2.5449  1.6944 -0.5479
  800MOL0     H 7941  11.042   5.433   7.631  2.5526 -0.3615  1.7576
  800MOL0     H 7942  11.066   5.610   7.615  0.0113  0.7023  0.0388
  800MOL0     H 7943  11.062   5.603   7.895 -0.4005  0.3560  0.5798
  800MOL0     H 7944  11.082   5.428   7.868 -4.1608 -0.0164 -0.8620
  800MOL0     H 7945  11.270   5.649   7.778 -0.8572 -1.6769 -2.0245
  800MOL0     H 7946  11.282   5.550   7.928  2.0700 -3.0666 -1.0332
  800MOL0     H 7947  11.318   5.478   7.640 -0.0869 -0.6205 -0.4767
  800MOL0     H 7948  11.295   5.344   7.758  0.3319 -0.2381  0.6928
  800MOL0     H 7949  11.488   5.423   7.882  0.1027  2.2342  0.4786
  800MOL0     H 7950  11.542   5.379   7.725  0.8816 -0.7487  2.0722
  800MOL0     H 7951  11.604   5.613   7.553 -0.4551  1.5566 -0.5477
  800MOL0     H 7952  11.776   5.798   7.551 -2.1792 -0.4845 -0.5907
  800MOL0     H 7953  11.667   5.931   7.580  0.2485  0.6243  0.1117
  800MOL0     H 7954  11.773   5.968   7.815 -1.8053 -0.7554 -0.6987
  800MOL0     H 7955  11.902   5.859   7.781 -0.4656 -0.8486  0.5411
  800MOL0     H 7956  11.931   6.119   7.731 -1.3204 -2.1900  2.0130
  800MOL0     H 7957  11.813   6.096   7.608 -1.1730 -1.4432  0.2136
  800MOL0     H 7958  11.933   6.010   7.450 -1.1517 -1.7248  1.0278
  800MOL0     H 7959  12.046   5.921   7.555  0.6980  0.6656  0.4941
  800MOL0     H 7960  12.301   6.269   7.485 -0.0601  0.2650  1.4764
  800MOL0     H 7961  12.514   6.235   7.573  0.7358  0.9239  1.1343
  800MOL0     H 7962  12.663   5.972   8.081  0.6417 -1.2594  0.1352
  800MOL0     H 7963  12.896   5.960   8.187  0.2221 -1.9607  0.3519
  800MOL0     H 7964  13.290   5.888   7.973 -0.4978 -1.2914  0.7929
  800MOL0     H 7965  13.187   6.029   7.946 -2.5678 -0.8418 -0.1874
  800MOL0     H 7966  13.345   5.941   8.191 -2.7008 -0.6206  0.9999
  800MOL0     H 7967  13.394   6.083   8.087 -0.8191  1.6864 -0.9325
  800MOL0     H 7968  13.129   6.057   8.257  0.5320  1.0390  2.9357
  800MOL0     H 7969  13.276   6.128   8.320 -1.5588  0.8148  0.7090
  800MOL0     H 7970  13.105   6.202   8.067 -0.4334 -0.6205 -0.1984
  800MOL0     H 7971  13.254   6.290   8.113  0.5099 -1.3499 -1.3175
  800MOL0     H 7972  13.153   6.336   8.332 -0.0690  0.3449 -0.9814
  800MOL0     H 7973  13.005   6.253   8.277  2.2560 -1.3739 -0.0675
  800MOL0     H 7974  12.999   6.411   8.078  2.6814 -0.7342 -1.1455
  800MOL0     H 7975  12.951   6.469   8.240  2.1214  2.9325  1.9322
  800MOL0     H 7976  13.240   6.523   8.161 -0.5335 -0.4704  1.1670
  800MOL0     H 7977  13.137   6.608   8.262  3.4301 -1.0560  1.1347
  800MOL0     H 7978  13.094   6.616   7.969  0.7573 -0.3743  0.6875
  800MOL0     H 7979  12.972   6.692   8.084 -1.2300 -2.5029  1.1779
  800MOL0     H 7980  13.061   5.856   7.805  2.1274  0.2343  0.9296
  800MOL0     H 7981  12.835   5.888   7.700 -3.1116 -0.6206  0.5153
  800MOL0     H 7982  12.350   5.925   7.834 -0.7380 -0.8309 -1.2798
  800MOL0     H 7983  12.137   5.972   7.751 -0.3878  0.2063  0.1329
  800MOL0     H 7984  10.403   5.421   7.830 -0.7101 -0.7325  0.1647
  800MOL0     H 7985  10.161   5.437   7.773  1.1267 -0.3062  1.8430
  800MOL0     H 7986   9.813   5.809   7.714  0.8499  0.6925 -1.4424
  800MOL0     H 7987   9.590   5.822   7.683 -0.7384  0.1267 -1.0507
  800MOL0     H 7988   9.395   5.746   7.738 -1.3676  1.0570 -0.0982
  800MOL0     H 7989   9.272   5.625   7.708  0.7185 -1.0685  0.3021
  800MOL0     H 7990   9.191   5.867   7.659 -0.4419 -0.1372 -0.4506
  800MOL0     H 7991   9.170   5.757   7.531  1.2777 -3.0188  1.5182
  800MOL0     H 7992   9.383   5.843   7.426 -0.9349 -0.6630 -1.4515
  800MOL0     H 7993   9.411   5.938   7.577 -1.6880  1.7014  1.6989
  800MOL0     H 7994   9.337   6.063   7.372  0.8135 -1.6570  0.8578
  800MOL0     H 7995   9.185   5.960   7.379  1.5987 -1.6736 -0.3714
  800MOL0     H 7996   9.110   6.313   7.612  1.5037  1.1387 -0.4798
  800MOL0     H 7997   9.581   5.456   7.461  3.3657 -1.0642 -1.7470
  800MOL0     H 7998   9.896   5.347   7.543 -0.6986 -2.5746 -1.0172
  800MOL0     H 7999   9.757   5.316   7.442 -3.3506  2.4707  2.5332
  800MOL0     H 8000   9.886   5.420   7.376 -0.5271 -0.6263 -0.9292
  801MOL0     O 8001   0.308   9.025   1.176 -0.3807  0.6746 -0.6873
  801MOL0     C 8002   0.249   9.016   1.283  0.3505 -0.5049  0.4550
  801MOL0     O 8003   0.299   9.036   1.406 -0.2703  0.3929 -0.4581
  801MOL0     C 8004   0.410   9.108   1.423 -0.3541  0.7323  0.0854
  801MOL0     C 8005   0.414   9.246   1.401  0.3138 -0.1363 -0.4656
  801MOL0     C 8006   0.530   9.322   1.425  0.0822  0.9625 -0.3367
  801MOL0     C 8007   0.646   9.267   1.458 -0.2436  0.2604  0.5118
  801MOL0     O 8008   0.761   9.340   1.467 -0.6700 -0.0385 -0.7042
  801MOL0     C 8009   0.759   9.482   1.449 -0.4075 -0.3718  0.5959
  801MOL0     C 8010   0.900   9.547   1.455 -0.0100  0.0665 -0.8377
  801MOL0     C 8011   0.928   9.565   1.609  0.5098 -0.8063  0.9349
  801MOL0     C 8012   1.072   9.623   1.634  0.4995  0.0780 -0.0291
  801MOL0     C 8013   1.152   9.512   1.699 -0.1736 -0.0667 -0.0648
  801MOL0     C 8014   1.273   9.579   1.762  0.1787  0.2398 -0.2885
  801MOL0     C 8015   1.386   9.493   1.800  0.4767 -0.7976  0.3403
  801MOL0     C 8016   1.511   9.562   1.838 -0.3643 -0.5866 -0.0227
  801MOL0     N 8017   1.593   9.612   1.716  0.6201  0.6213 -0.1633
  801MOL0     C 8018   1.643   9.540   1.613 -0.0745 -0.7968 -0.2036
  801MOL0     C 8019   1.721   9.616   1.536  1.1469 -0.5999  0.0522
  801MOL0     C 8020   1.819   9.572   1.429  0.8705  0.2652 -0.2264
  801MOL0     C 8021   1.793   9.655   1.305  0.2224  0.9606 -0.4543
  801MOL0     C 8022   1.861   9.598   1.180  0.1014 -0.4852  0.0176
  801MOL0     C 8023   2.007   9.575   1.214 -0.8250  0.8974  1.2893
  801MOL0     O 8024   2.090   9.555   1.096 -0.0771  0.1753  0.4044
  801MOL0     C 8025   2.215   9.608   1.120 -0.6533  0.1837 -0.1553
  801MOL0     C 8026   2.321   9.532   1.171  0.1788  0.9130  0.9278
  801MOL0     C 8027   2.443   9.589   1.210 -0.3186 -1.3288  0.1466
  801MOL0     C 8028   2.469   9.725   1.182 -0.4665  1.0003  0.5413
  801MOL0     C 8029   2.600   9.781   1.226 -0.2996 -0.1731 -0.5329
  801MOL0     O 8030   2.609   9.920   1.221 -0.5718  0.3005 -0.2073
  801MOL0     C 8031   2.727   9.975   1.256  0.7368 -0.9682  0.0054
  801MOL0     C 8032   2.798  10.034   1.159  0.3678 -0.5682  1.4785
  801MOL0     C 8033   2.922  10.101   1.180  0.2415 -0.1909  1.0664
  801MOL0     C 8034   2.970  10.119   1.312 -0.0605 -0.6479  0.5147
  801MOL0     O 8035   3.091  10.163   1.337  0.2650 -0.5942 -0.2068
  801MOL0     C 8036   3.154  10.140   1.466  0.1811 -0.4225  0.0052
  801MOL0     C 8037   3.293  10.187   1.482  0.0681 -0.0182  0.5835
  801MOL0     C 8038   3.399  10.094   1.430 -0.0132 -0.4619 -0.3078
  801MOL0     C 8039   3.536  10.138   1.484  0.8889  0.6576 -0.3078
  801MOL0     C 8040   3.662  10.071   1.432  1.0442  0.5313  0.4938
  801MOL0     C 8041   3.686   9.928   1.469 -0.0836  0.8293  0.0087
  801MOL0     C 8042   3.818   9.876   1.402  0.4537 -0.2985  0.2819
  801MOL0     C 8043   3.846   9.735   1.438  0.4701  1.2239 -0.5383
  801MOL0    Cl 8044   3.970   9.646   1.343  0.4248  0.2650  0.0266
  801MOL0     C 8045   2.884  10.074   1.416  0.0021  0.6735 -0.5730
  801MOL0     C 8046   2.765   9.997   1.385 -0.2159  0.6578 -0.7578
  801MOL0     O 8047   2.686   9.707   1.265 -0.2266  0.9249  0.1353
  801MOL0     C 8048   2.372   9.791   1.111 -1.5413 -0.6513  0.1493
  801MOL0     C 8049   2.243   9.739   1.082 -1.5014 -0.3283  0.2351
  801MOL0     N 8050   1.696   9.753   1.588  1.3291  1.2301  0.1118
  801MOL0     N 8051   1.621   9.740   1.696 -0.2936 -0.6574 -0.0479
  801MOL0     C 8052   0.654   9.131   1.477 -0.2469 -0.7248  0.3629
  801MOL0     C 8053   0.537   9.052   1.467  0.2723  0.2750  0.4094
  801MOL0     C 8054   0.103   8.985   1.268 -0.3175  0.3944 -0.2085
  801MOL0     C 8055   0.012   9.042   1.358 -0.4340 -0.6288  0.6944
  801MOL0     C 8056  -0.122   9.040   1.345 -0.7805 -0.1224 -0.0460
  801MOL0     C 8057  -0.179   8.964   1.240 -0.9801  0.5855  0.3006
  801MOL0     O 8058  -0.313   8.937   1.248 -0.0828  0.4076 -0.5723
  801MOL0     C 8059  -0.370   8.833   1.168  0.3918  0.2440  1.0781
  801MOL0     C 8060  -0.521   8.858   1.217 -0.0923 -0.1147 -0.3159
  801MOL0     C 8061  -0.585   8.989   1.167  0.1999  0.1957 -1.2068
  801MOL0     C 8062  -0.617   8.994   1.026 -0.1637  0.0445 -0.1117
  801MOL0     C 8063  -0.712   8.890   0.992  0.3538 -0.2708  0.3750
  801MOL0     C 8064  -0.782   8.803   0.945  0.0605  0.0731  0.2530
  801MOL0     C 8065  -0.093   8.887   1.166  0.0565 -0.0000 -0.2149
  801MOL0     C 8066   0.044   8.900   1.177  0.2742 -0.3750  0.2152
  801MOL0     C 8067   0.134   8.826   1.077  0.3419  0.5766  0.4617
  801MOL0     H 8068   0.327   9.303   1.370 -0.6566 -1.2781  0.0756
  801MOL0     H 8069   0.515   9.429   1.413 -1.5023  0.9296  0.9945
  801MOL0     H 8070   0.728   9.513   1.349  1.2901  1.4588  0.5623
  801MOL0     H 8071   0.703   9.538   1.524 -1.3476 -1.2466  0.5679
  801MOL0     H 8072   0.904   9.643   1.401  1.0573 -0.3217 -1.4809
  801MOL0     H 8073   0.963   9.469   1.411  2.2173  0.1849  1.8489
  801MOL0     H 8074   0.923   9.465   1.654 -0.3015 -1.0634  0.3096
  801MOL0     H 8075   0.859   9.628   1.665  1.5987 -0.9982  2.5711
  801MOL0     H 8076   1.123   9.650   1.541  0.3853 -2.6283 -0.9785
  801MOL0     H 8077   1.078   9.706   1.705  4.3550 -0.5354  0.5828
  801MOL0     H 8078   1.100   9.468   1.785  2.2656  1.6378  2.4580
  801MOL0     H 8079   1.191   9.431   1.637 -0.4667 -0.1352 -0.1618
  801MOL0     H 8080   1.310   9.656   1.694  4.3600 -1.8702 -0.7179
  801MOL0     H 8081   1.233   9.633   1.848  1.9955  0.0468  0.7208
  801MOL0     H 8082   1.402   9.433   1.710  0.6627  0.3389 -0.3977
  801MOL0     H 8083   1.364   9.436   1.891  0.5475 -3.5851 -1.2896
  801MOL0     H 8084   1.496   9.640   1.913 -2.0512 -1.2486  0.3619
  801MOL0     H 8085   1.576   9.497   1.898  1.5192  4.0587  3.6312
  801MOL0     H 8086   1.646   9.432   1.628 -2.0181 -0.6668  1.6260
  801MOL0     H 8087   1.920   9.583   1.469  0.6813 -1.1170  0.6847
  801MOL0     H 8088   1.802   9.464   1.421 -0.1843  0.5050 -1.5198
  801MOL0     H 8089   1.686   9.658   1.281  0.2590  0.2503 -0.7337
  801MOL0     H 8090   1.829   9.756   1.326 -0.5332  0.7988  1.9211
  801MOL0     H 8091   1.862   9.673   1.100 -2.2043 -0.4181 -0.0119
  801MOL0     H 8092   1.792   9.519   1.151 -1.5742  0.1417  2.0466
  801MOL0     H 8093   2.007   9.489   1.281  0.5839 -2.1482 -2.2356
  801MOL0     H 8094   2.034   9.665   1.269  2.7779  1.6998 -1.3724
  801MOL0     H 8095   2.309   9.425   1.178  1.6046  0.5807 -0.9324
  801MOL0     H 8096   2.514   9.526   1.263  0.3809 -0.1645  0.6170
  801MOL0     H 8097   2.768  10.022   1.055  1.4064  0.8638  0.9680
  801MOL0     H 8098   2.986  10.132   1.098 -1.0715  1.0632  0.4683
  801MOL0     H 8099   3.097  10.187   1.547  1.8571 -1.6292  1.9633
  801MOL0     H 8100   3.158  10.035   1.495 -1.3235 -0.3082  0.6983
  801MOL0     H 8101   3.313  10.279   1.426  1.5612 -1.7959 -2.0092
  801MOL0     H 8102   3.308  10.203   1.589 -2.7392 -2.6833  1.5156
  801MOL0     H 8103   3.374   9.990   1.453  0.9651 -0.4462  0.9046
  801MOL0     H 8104   3.401  10.103   1.321  2.0353 -0.1763 -0.2764
  801MOL0     H 8105   3.534  10.134   1.593 -2.2106  1.7002 -0.2310
  801MOL0     H 8106   3.565  10.241   1.458  3.3035  0.0436 -0.2900
  801MOL0     H 8107   3.751  10.129   1.457  0.6105  2.1903 -1.5917
  801MOL0     H 8108   3.653  10.081   1.324 -0.2426  2.0664  0.7121
  801MOL0     H 8109   3.704   9.917   1.576  1.1568 -0.3966 -0.2889
  801MOL0     H 8110   3.602   9.870   1.430  0.3058  0.8526 -0.8879
  801MOL0     H 8111   3.894   9.947   1.434  0.7702  0.9891 -2.9747
  801MOL0     H 8112   3.802   9.879   1.294 -1.0454  2.0818  0.5033
  801MOL0     H 8113   3.874   9.739   1.544 -1.0924 -0.9711  0.0482
  801MOL0     H 8114   3.765   9.661   1.439  2.2123 -0.8052 -1.6731
  801MOL0     H 8115   2.917  10.073   1.519 -0.2939 -0.4528 -0.4699
  801MOL0     H 8116   2.705   9.952   1.463  0.1952 -0.5127 -1.0996
  801MOL0     H 8117   2.398   9.892   1.080  0.9857 -1.3466 -0.2240
  801MOL0     H 8118   2.171   9.794   1.021  1.3753  0.1238 -3.0792
  801MOL0     H 8119   0.743   9.070   1.491  1.2560  1.1120 -0.8201
  801MOL0     H 8120   0.535   8.944   1.477 -0.9663  0.0284 -1.8105
  801MOL0     H 8121   0.044   9.100   1.444 -1.0404 -0.8627  1.0882
  801MOL0     H 8122  -0.185   9.095   1.415 -1.2644 -3.7258  2.6772
  801MOL0     H 8123  -0.332   8.735   1.200 -0.6704  0.1503  2.1213
  801MOL0     H 8124  -0.351   8.851   1.062  1.6240  1.3867  1.4529
  801MOL0     H 8125  -0.515   8.863   1.326  0.7666 -1.1863 -0.2994
  801MOL0     H 8126  -0.570   8.768   1.178  0.4309 -0.1452 -0.9263
  801MOL0     H 8127  -0.531   9.081   1.187  0.4500 -0.0343 -0.8103
  801MOL0     H 8128  -0.678   8.997   1.224  0.9607 -2.4481  0.5931
  801MOL0     H 8129  -0.663   9.088   0.996  2.3631  1.1891 -0.6337
  801MOL0     H 8130  -0.523   8.976   0.973 -0.7849 -0.6283 -1.0070
  801MOL0     H 8131  -0.831   8.721   0.898  0.1162  1.5693 -2.6601
  801MOL0     H 8132  -0.124   8.805   1.102  1.7997 -2.4584  1.9013
  801MOL0     H 8133   0.074   8.753   1.023 -1.2378  1.1084  1.4193
  801MOL0     H 8134   0.167   8.905   1.009  1.2584  0.8730  1.2268
  801MOL0     H 8135   0.215   8.773   1.127 -0.1178  2.4251  3.3976
  802MOL0     O 8136   5.206   8.799   9.554  0.0748 -0.0380  0.3382
  802MOL0     C 8137   5.283   8.873   9.494 -0.3075 -0.1943 -0.3219
  802MOL0     O 8138   5.358   8.964   9.557 -0.4525 -0.8481  0.4416
  802MOL0     C 8139   5.332   9.001   9.680 -0.5073  0.3730  0.0894
  802MOL0     C 8140   5.307   9.137   9.710 -0.0651  0.0284  0.4774
  802MOL0     C 8141   5.285   9.181   9.834 -0.2667 -0.2391  0.2708
  802MOL0     C 8142   5.294   9.093   9.946 -0.1445  0.6091 -0.0776
  802MOL0     O 8143   5.303   9.133  10.072 -0.4491  0.3627 -0.1796
  802MOL0     C 8144   5.260   9.264  10.103 -0.5357 -0.2649  0.0688
  802MOL0     C 8145   5.277   9.272  10.256 -0.0345  0.0890  0.5050
  802MOL0     C 8146   5.420   9.267  10.304  0.1569  0.0262  0.0654
  802MOL0     C 8147   5.429   9.311  10.451 -0.6886 -0.4090 -0.1806
  802MOL0     C 8148   5.570   9.333  10.513 -0.0780  0.2724  1.0217
  802MOL0     C 8149   5.650   9.200  10.514 -0.1688 -0.1285 -0.1010
  802MOL0     C 8150   5.797   9.210  10.551  0.3236 -0.2126  0.3393
  802MOL0     C 8151   5.851   9.070  10.585  0.6021 -0.4842 -0.1792
  802MOL0     N 8152   5.993   9.080  10.623  0.2387  0.3975 -0.2911
  802MOL0     C 8153   6.043   9.081  10.747 -0.5970 -1.1665  0.5681
  802MOL0     C 8154   6.177   9.067  10.730 -0.3878 -0.5739  0.2277
  802MOL0     C 8155   6.285   9.049  10.831  0.5842  0.3025 -0.3741
  802MOL0     C 8156   6.430   9.025  10.785  0.5957  0.1714  0.3485
  802MOL0     C 8157   6.525   9.009  10.898 -0.3052 -0.2313  0.8555
  802MOL0     C 8158   6.678   9.029  10.865  0.6908  0.9283 -0.5358
  802MOL0     O 8159   6.749   9.013  10.986 -0.0703 -0.2207 -0.2237
  802MOL0     C 8160   6.887   9.017  10.972 -0.0093  0.3396  0.2178
  802MOL0     C 8161   6.952   8.985  11.089  0.1931 -0.7750  0.0402
  802MOL0     C 8162   7.098   8.990  11.091 -0.0858  0.6671 -0.2688
  802MOL0     C 8163   7.164   9.006  10.970 -1.0026 -0.2417 -0.2520
  802MOL0     C 8164   7.305   9.027  10.967  0.9749  0.6327  0.0241
  802MOL0     O 8165   7.365   9.021  11.088 -0.3866 -0.5705 -0.1954
  802MOL0     C 8166   7.500   9.047  11.093  0.5013 -0.0563  0.8451
  802MOL0     C 8167   7.553   9.150  11.014 -0.0171  0.0737 -0.4708
  802MOL0     C 8168   7.692   9.180  11.017  0.3626  0.3106 -0.4240
  802MOL0     C 8169   7.776   9.103  11.100  0.3955 -0.8016  0.2329
  802MOL0     O 8170   7.909   9.124  11.126  0.1199 -0.7227 -1.0684
  802MOL0     C 8171   7.980   9.228  11.064 -0.9167 -0.5394 -0.0489
  802MOL0     C 8172   8.118   9.220  11.136  0.2359  0.1188 -0.6749
  802MOL0     C 8173   8.219   9.303  11.053  0.4640 -0.2490 -0.3752
  802MOL0     C 8174   8.291   9.212  10.944  0.8848  0.7611 -0.7342
  802MOL0     C 8175   8.401   9.271  10.852 -0.3587  0.5710 -0.1874
  802MOL0     C 8176   8.346   9.331  10.718  0.0494 -0.2959  0.0042
  802MOL0     C 8177   8.435   9.442  10.664 -0.3775 -0.3346 -0.2034
  802MOL0     C 8178   8.587   9.415  10.629 -0.7982 -0.6394  0.5970
  802MOL0    Cl 8179   8.656   9.584  10.594 -0.2277  0.5849  0.2082
  802MOL0     C 8180   7.717   8.998  11.166  0.5704 -0.4890 -0.7374
  802MOL0     C 8181   7.580   8.958  11.152  0.1219 -0.0868 -0.1594
  802MOL0     O 8182   7.359   9.019  10.855  0.0349  0.2966 -0.0445
  802MOL0     C 8183   7.095   9.017  10.849 -0.8799  0.1335  0.2066
  802MOL0     C 8184   6.957   9.046  10.854  0.3348 -0.1106  0.1419
  802MOL0     N 8185   6.198   9.053  10.591 -0.0359 -0.0559  0.3435
  802MOL0     N 8186   6.091   9.061  10.526  0.4958 -0.1960 -1.2594
  802MOL0     C 8187   5.321   8.964   9.918  1.0831  0.4026 -0.8057
  802MOL0     C 8188   5.340   8.923   9.793  0.4434 -0.0610 -0.0463
  802MOL0     C 8189   5.311   8.856   9.348  0.0420 -0.2689 -0.4381
  802MOL0     C 8190   5.448   8.846   9.315  0.0264  0.2407 -0.4093
  802MOL0     C 8191   5.483   8.831   9.175 -0.1207  0.1350 -0.5698
  802MOL0     C 8192   5.376   8.834   9.078 -0.0349  0.2456  0.0556
  802MOL0     O 8193   5.406   8.793   8.949  0.4080 -0.6504  0.0664
  802MOL0     C 8194   5.326   8.860   8.853  0.7045  0.0615 -0.5662
  802MOL0     C 8195   5.417   8.879   8.723 -0.3259  0.8759 -0.4715
  802MOL0     C 8196   5.461   8.756   8.650  0.2077  1.0634 -0.1642
  802MOL0     C 8197   5.340   8.690   8.585 -0.1914  0.5770 -1.0189
  802MOL0     C 8198   5.370   8.549   8.544 -0.5836  1.2753  0.5672
  802MOL0     C 8199   5.384   8.439   8.496 -0.1915 -0.9297  0.4247
  802MOL0     C 8200   5.245   8.862   9.123  0.0188  0.9012  0.1458
  802MOL0     C 8201   5.207   8.858   9.256 -0.0615 -0.9449  0.2419
  802MOL0     C 8202   5.058   8.868   9.287  0.4528 -0.0919  0.9666
  802MOL0     H 8203   5.300   9.207   9.628  0.3604 -3.3062 -2.6220
  802MOL0     H 8204   5.292   9.289   9.844 -1.6897 -0.1169  0.0553
  802MOL0     H 8205   5.311   9.353  10.063 -2.5027  2.3063  2.8249
  802MOL0     H 8206   5.153   9.269  10.081 -0.2843  1.4888 -0.9487
  802MOL0     H 8207   5.222   9.192  10.306 -0.0147  0.4271  1.0805
  802MOL0     H 8208   5.226   9.360  10.296 -1.9551 -1.4724  1.6522
  802MOL0     H 8209   5.475   9.343  10.248  0.9139  0.3048  1.1615
  802MOL0     H 8210   5.470   9.172  10.281  0.2351 -0.1397  0.8631
  802MOL0     H 8211   5.379   9.408  10.458 -1.4415 -0.7544 -0.6376
  802MOL0     H 8212   5.364   9.246  10.511  2.0386 -2.7895  0.4307
  802MOL0     H 8213   5.621   9.399  10.442  1.8324 -0.3002  1.8005
  802MOL0     H 8214   5.564   9.372  10.615  3.2097  0.7436  1.1535
  802MOL0     H 8215   5.608   9.131  10.588 -3.2678  0.1656 -1.4711
  802MOL0     H 8216   5.641   9.169  10.410 -2.8526 -4.5029  1.1649
  802MOL0     H 8217   5.806   9.278  10.636 -0.9467  0.5024 -0.0708
  802MOL0     H 8218   5.845   9.251  10.462 -2.2697  0.6508 -0.7557
  802MOL0     H 8219   5.791   9.016  10.659  1.5757 -0.0169  0.9765
  802MOL0     H 8220   5.851   9.007  10.495 -1.7095 -0.2701 -0.3786
  802MOL0     H 8221   5.996   9.092  10.844  0.7764 -1.3681  1.2822
  802MOL0     H 8222   6.289   9.138  10.894  3.4305 -0.3006  0.4423
  802MOL0     H 8223   6.248   8.957  10.877  0.2304  1.2417  1.3157
  802MOL0     H 8224   6.447   8.939  10.720 -0.7650 -0.9748  1.4584
  802MOL0     H 8225   6.444   9.118  10.728  1.4803 -1.0540 -1.5509
  802MOL0     H 8226   6.516   8.909  10.941 -0.9588  0.3417  2.1263
  802MOL0     H 8227   6.500   9.083  10.975  0.5434 -0.5579  1.4679
  802MOL0     H 8228   6.699   9.127  10.820 -0.0519  0.4510 -1.9935
  802MOL0     H 8229   6.695   8.954  10.787  2.9302  0.6338  0.1597
  802MOL0     H 8230   6.893   8.968  11.178  1.5941 -0.7615  1.0025
  802MOL0     H 8231   7.154   8.979  11.183 -2.9018  0.9138  1.5900
  802MOL0     H 8232   7.494   9.212  10.946  1.0184  3.5876  1.5607
  802MOL0     H 8233   7.732   9.259  10.954  2.1023 -1.2068 -1.3372
  802MOL0     H 8234   7.981   9.210  10.957  0.8923 -3.2416  0.3308
  802MOL0     H 8235   7.942   9.330  11.078  2.5402  0.6277  2.1696
  802MOL0     H 8236   8.111   9.254  11.240 -2.5407 -3.4676  0.5410
  802MOL0     H 8237   8.154   9.116  11.147 -3.6199 -1.4204 -1.2149
  802MOL0     H 8238   8.168   9.389  11.007 -3.0816 -2.6045 -1.2340
  802MOL0     H 8239   8.288   9.351  11.123 -1.8495  2.2595  0.3576
  802MOL0     H 8240   8.211   9.173  10.881  1.5768 -1.8414 -0.1196
  802MOL0     H 8241   8.335   9.128  10.998  0.3132  0.0164 -1.3972
  802MOL0     H 8242   8.470   9.189  10.827 -0.8606  0.2742 -0.6308
  802MOL0     H 8243   8.457   9.338  10.918 -1.7276 -0.9619  2.7270
  802MOL0     H 8244   8.337   9.257  10.638 -1.0905  0.1153 -0.2753
  802MOL0     H 8245   8.249   9.382  10.723 -1.1412 -2.3166 -1.0085
  802MOL0     H 8246   8.431   9.521  10.741 -0.4159 -0.7091  0.1813
  802MOL0     H 8247   8.383   9.482  10.576  1.1407 -1.0258 -1.4483
  802MOL0     H 8248   8.623   9.360  10.716  0.6030  2.6583  2.2975
  802MOL0     H 8249   8.593   9.356  10.537 -3.6734  0.2398 -0.2649
  802MOL0     H 8250   7.781   8.930  11.221 -1.7660 -2.3148 -0.1388
  802MOL0     H 8251   7.548   8.868  11.204 -0.1331  0.6940  1.0933
  802MOL0     H 8252   7.139   9.042  10.753 -0.4560 -0.2165  0.3047
  802MOL0     H 8253   6.895   9.069  10.768  0.4682  0.3699  0.1710
  802MOL0     H 8254   5.331   8.892   9.998 -3.1605 -3.6321 -3.4340
  802MOL0     H 8255   5.356   8.817   9.776  0.2110 -0.0371 -0.4367
  802MOL0     H 8256   5.534   8.836   9.380  1.0855 -0.0258 -1.8262
  802MOL0     H 8257   5.581   8.795   9.148  0.7734 -0.9028  3.4263
  802MOL0     H 8258   5.280   8.958   8.869  0.8350  0.2843 -1.4665
  802MOL0     H 8259   5.239   8.796   8.832 -0.2834  0.9682  0.6430
  802MOL0     H 8260   5.507   8.928   8.760  1.2836 -2.1056 -0.1753
  802MOL0     H 8261   5.366   8.950   8.656 -2.2441  1.3345  1.3686
  802MOL0     H 8262   5.509   8.691   8.725  0.8584  0.2101 -1.2878
  802MOL0     H 8263   5.545   8.782   8.586  1.5129  1.1219  1.4916
  802MOL0     H 8264   5.243   8.701   8.633 -0.2674 -0.9599 -0.7716
  802MOL0     H 8265   5.328   8.741   8.489 -0.1016  0.2542 -1.2010
  802MOL0     H 8266   5.396   8.343   8.451 -2.3492 -1.2690  0.4525
  802MOL0     H 8267   5.167   8.870   9.048  0.3506 -2.4938 -0.7246
  802MOL0     H 8268   5.028   8.973   9.279 -1.0687 -0.3536  2.6273
  802MOL0     H 8269   4.997   8.802   9.226  0.1132  0.7946  0.3197
  802MOL0     H 8270   5.029   8.849   9.390 -0.1926  1.8599  1.1893
  803MOL0     O 8271   7.036   8.883   1.023 -0.0633  0.2739  0.5898
  803MOL0     C 8272   7.078   8.909   0.910  0.2389 -0.3042 -0.7020
  803MOL0     O 8273   7.203   8.945   0.878 -0.5458 -0.1740 -0.0778
  803MOL0     C 8274   7.281   9.004   0.974  0.4176  0.3589  1.3665
  803MOL0     C 8275   7.421   8.981   0.989 -0.8039  0.7730 -0.1653
  803MOL0     C 8276   7.497   9.049   1.085  0.3553  0.9003  0.1876
  803MOL0     C 8277   7.441   9.137   1.169  0.5720  0.8406  0.0241
  803MOL0     O 8278   7.521   9.225   1.247 -0.3532  0.0388 -0.2396
  803MOL0     C 8279   7.463   9.312   1.345 -0.9127 -0.3062  1.3376
  803MOL0     C 8280   7.408   9.245   1.468  0.2169  0.8296  0.1044
  803MOL0     C 8281   7.350   9.342   1.567 -0.6877  0.2153 -0.5262
  803MOL0     C 8282   7.290   9.269   1.694 -0.2334 -0.0106 -0.1352
  803MOL0     C 8283   7.201   9.366   1.779 -0.1929 -0.2402 -0.8583
  803MOL0     C 8284   7.073   9.390   1.716  0.4684  0.3970 -0.6963
  803MOL0     C 8285   6.967   9.441   1.813  0.1365  0.0569  0.4987
  803MOL0     C 8286   7.011   9.573   1.883 -0.5666 -0.1733 -0.8908
  803MOL0     N 8287   7.046   9.688   1.798 -0.3965 -0.4963  0.4313
  803MOL0     C 8288   6.954   9.772   1.745  0.7427 -0.4614  0.0148
  803MOL0     C 8289   7.030   9.888   1.711 -0.3668  0.0967 -0.3913
  803MOL0     C 8290   6.980  10.005   1.627  1.0088  0.0635  0.3085
  803MOL0     C 8291   6.923  10.124   1.719 -0.8643 -0.3812 -0.9828
  803MOL0     C 8292   6.889  10.245   1.637  0.3688  0.1775  0.1501
  803MOL0     C 8293   6.848  10.367   1.730 -0.2092  0.7713 -0.1180
  803MOL0     O 8294   6.866  10.490   1.676 -0.4779 -0.3920 -0.3048
  803MOL0     C 8295   6.993  10.543   1.667  1.4961  0.5627 -0.4491
  803MOL0     C 8296   7.119  10.476   1.660  0.0208  0.3037  0.0117
  803MOL0     C 8297   7.229  10.555   1.664 -1.0147  1.1770  0.0591
  803MOL0     C 8298   7.230  10.690   1.686  0.1542 -0.0629 -0.3998
  803MOL0     C 8299   7.359  10.759   1.689  0.1086  0.2250 -0.3275
  803MOL0     O 8300   7.351  10.882   1.752 -0.2013  0.1974  0.3931
  803MOL0     C 8301   7.464  10.961   1.749  0.5349 -0.3492  0.2195
  803MOL0     C 8302   7.452  11.092   1.690 -0.4735  0.2459  0.2091
  803MOL0     C 8303   7.557  11.184   1.697 -0.9307 -0.8749 -0.1372
  803MOL0     C 8304   7.683  11.148   1.749  0.8176  0.3594 -0.2451
  803MOL0     O 8305   7.762  11.255   1.751 -0.0328  0.0278 -0.4367
  803MOL0     C 8306   7.889  11.237   1.816 -0.2454 -0.3151  0.0834
  803MOL0     C 8307   7.981  11.348   1.776  0.2115  0.5022 -0.7891
  803MOL0     C 8308   8.105  11.350   1.865 -0.7468  0.4374 -0.1833
  803MOL0     C 8309   8.215  11.433   1.808 -0.7557  0.3745 -0.8533
  803MOL0     C 8310   8.354  11.380   1.851  1.1947  0.5952 -0.0153
  803MOL0     C 8311   8.391  11.416   1.996  0.0909 -0.0274  0.3179
  803MOL0     C 8312   8.540  11.391   2.036 -0.2424  0.2879 -0.8735
  803MOL0     C 8313   8.569  11.472   2.162 -0.2706 -0.1303  0.6032
  803MOL0    Cl 8314   8.491  11.394   2.310 -0.0672  0.3834  0.4332
  803MOL0     C 8315   7.698  11.017   1.803  0.0288  0.7049 -0.5155
  803MOL0     C 8316   7.587  10.925   1.805 -0.1910 -0.2554  0.2855
  803MOL0     O 8317   7.460  10.709   1.642  0.4060  0.0832 -0.0945
  803MOL0     C 8318   7.107  10.753   1.683  0.6163 -0.0684 -0.3008
  803MOL0     C 8319   6.985  10.681   1.681  0.6218 -0.2813  0.6826
  803MOL0     N 8320   7.161   9.854   1.736 -0.3004 -0.4284  0.4150
  803MOL0     N 8321   7.165   9.745   1.791 -1.0469  0.4857  0.0756
  803MOL0     C 8322   7.297   9.175   1.154 -0.7368  0.2570  0.2583
  803MOL0     C 8323   7.226   9.107   1.054  0.2670  0.6244 -0.0695
  803MOL0     C 8324   6.985   8.864   0.802 -0.4641 -0.9376  0.5396
  803MOL0     C 8325   7.047   8.794   0.698  0.1909 -0.0586 -0.3989
  803MOL0     C 8326   6.975   8.757   0.585 -0.5116 -0.0257 -0.0792
  803MOL0     C 8327   6.837   8.763   0.575 -0.2237  0.2146 -0.3159
  803MOL0     O 8328   6.763   8.714   0.473 -0.8371 -0.2021  0.1004
  803MOL0     C 8329   6.739   8.575   0.473 -0.1650  0.2715 -0.3969
  803MOL0     C 8330   6.662   8.540   0.347 -0.0563  0.3993 -0.5942
  803MOL0     C 8331   6.514   8.591   0.382 -0.1387  0.2152  0.0569
  803MOL0     C 8332   6.407   8.547   0.276  0.4506 -1.1067  0.6167
  803MOL0     C 8333   6.288   8.633   0.288 -0.0571 -0.5152  0.7578
  803MOL0     C 8334   6.191   8.698   0.306  0.4174 -0.7250  0.0877
  803MOL0     C 8335   6.774   8.817   0.686  0.7734  0.2030  0.1146
  803MOL0     C 8336   6.841   8.870   0.801  0.1006  0.6467  0.1081
  803MOL0     C 8337   6.756   8.933   0.922 -0.2187 -0.7160  0.7689
  803MOL0     H 8338   7.479   8.913   0.928  0.6290  1.4392  0.4014
  803MOL0     H 8339   7.602   9.023   1.088  0.5575  1.3718 -1.4805
  803MOL0     H 8340   7.549   9.374   1.369 -0.8744  2.9688 -4.9872
  803MOL0     H 8341   7.402   9.395   1.311  2.0320  2.3442  2.0751
  803MOL0     H 8342   7.487   9.185   1.514  1.8443  3.3903  0.8565
  803MOL0     H 8343   7.322   9.188   1.433  1.7670 -1.3298 -0.3668
  803MOL0     H 8344   7.270   9.396   1.517 -1.5594  1.0726  1.6604
  803MOL0     H 8345   7.420   9.423   1.593 -0.4439  0.6871 -2.5398
  803MOL0     H 8346   7.228   9.184   1.665 -2.0210  1.4856 -0.8785
  803MOL0     H 8347   7.370   9.233   1.760 -1.8459  1.3296  2.7709
  803MOL0     H 8348   7.188   9.309   1.871  1.3128  1.8104  0.7273
  803MOL0     H 8349   7.258   9.457   1.802 -1.5560  0.3105  0.5595
  803MOL0     H 8350   7.077   9.475   1.647  0.7092  0.8001 -0.1959
  803MOL0     H 8351   7.040   9.299   1.667 -0.3122  0.5070 -0.3801
  803MOL0     H 8352   6.939   9.362   1.883 -2.5139  0.2354 -0.2670
  803MOL0     H 8353   6.875   9.468   1.761 -0.5820 -1.7184  0.7839
  803MOL0     H 8354   6.931   9.605   1.950 -0.3670 -1.4436 -0.0169
  803MOL0     H 8355   7.096   9.553   1.948 -0.2497  1.4399 -0.7582
  803MOL0     H 8356   6.847   9.755   1.737  0.9397 -1.6059 -0.2460
  803MOL0     H 8357   7.077  10.043   1.592  0.5796  2.7557  1.7566
  803MOL0     H 8358   6.909   9.971   1.551 -1.6852  1.0360  2.2329
  803MOL0     H 8359   6.841  10.085   1.780 -0.1309 -2.2848 -1.1318
  803MOL0     H 8360   7.006  10.149   1.785 -0.4078 -0.4112 -1.5326
  803MOL0     H 8361   6.796  10.225   1.583  1.5430 -1.5119 -1.3513
  803MOL0     H 8362   6.969  10.276   1.569  2.9982 -0.2058  2.8221
  803MOL0     H 8363   6.916  10.360   1.816  0.1641  0.9575 -0.3935
  803MOL0     H 8364   6.744  10.359   1.762 -1.0459 -0.3364 -2.7544
  803MOL0     H 8365   7.137  10.370   1.646  1.2183  0.6249 -0.9967
  803MOL0     H 8366   7.328  10.512   1.652  0.5333  4.6127 -0.8150
  803MOL0     H 8367   7.360  11.119   1.640 -0.1870 -1.7369 -1.5499
  803MOL0     H 8368   7.538  11.288   1.674  2.8933 -0.5671 -2.7247
  803MOL0     H 8369   7.870  11.242   1.924  1.0470 -2.5108  0.4581
  803MOL0     H 8370   7.936  11.144   1.783 -1.0217  0.0579 -2.1983
  803MOL0     H 8371   8.012  11.334   1.672  1.5934 -0.3336 -0.2901
  803MOL0     H 8372   7.928  11.442   1.794 -0.9855  0.1579 -2.3266
  803MOL0     H 8373   8.086  11.391   1.965 -2.3503 -0.8364  0.0921
  803MOL0     H 8374   8.131  11.244   1.875  0.8425  0.8950  0.8894
  803MOL0     H 8375   8.196  11.535   1.841  0.6760  0.1601  0.7624
  803MOL0     H 8376   8.214  11.445   1.699 -0.1759 -4.0305 -1.5417
  803MOL0     H 8377   8.432  11.421   1.786 -1.7138  1.1840 -3.4336
  803MOL0     H 8378   8.358  11.272   1.837 -1.9900  0.2873  0.6121
  803MOL0     H 8379   8.369  11.522   2.010  1.9111  0.7223 -1.8811
  803MOL0     H 8380   8.327  11.359   2.063 -0.2541 -0.2920 -0.2250
  803MOL0     H 8381   8.618  11.416   1.964  1.3357 -1.5798  0.0785
  803MOL0     H 8382   8.552  11.287   2.067  0.7624  0.3346 -1.0647
  803MOL0     H 8383   8.673  11.477   2.194 -0.3637  2.5405  0.7638
  803MOL0     H 8384   8.539  11.577   2.161 -1.2027 -0.3916 -0.1606
  803MOL0     H 8385   7.783  10.996   1.867 -1.7036  1.2025  2.1316
  803MOL0     H 8386   7.599  10.827   1.849  0.7285 -0.2807 -0.0106
  803MOL0     H 8387   7.106  10.861   1.676 -2.1408 -0.0525 -0.7682
  803MOL0     H 8388   6.887  10.727   1.680  2.1189  3.2415 -1.1918
  803MOL0     H 8389   7.263   9.266   1.204  0.8974  2.6887 -2.6582
  803MOL0     H 8390   7.120   9.129   1.052  0.0952 -0.1580  0.2328
  803MOL0     H 8391   7.155   8.785   0.689  0.3500  0.1961  0.9842
  803MOL0     H 8392   7.015   8.713   0.494 -1.8452 -0.2963 -0.5507
  803MOL0     H 8393   6.700   8.543   0.571  2.7491 -1.5213  0.2969
  803MOL0     H 8394   6.831   8.517   0.475 -0.0752  0.3963  2.1084
  803MOL0     H 8395   6.648   8.432   0.342 -2.0863  0.6860 -2.7167
  803MOL0     H 8396   6.704   8.583   0.255 -1.9618  2.0884 -0.7311
  803MOL0     H 8397   6.518   8.699   0.396  1.3592  0.1495  0.4083
  803MOL0     H 8398   6.487   8.540   0.474  1.4833 -0.0120  0.4466
  803MOL0     H 8399   6.445   8.570   0.176 -0.3494  1.6901  0.8810
  803MOL0     H 8400   6.371   8.444   0.281 -1.8708 -0.3087  1.5120
  803MOL0     H 8401   6.105   8.762   0.314  0.8855  0.0173 -0.6746
  803MOL0     H 8402   6.665   8.808   0.683  0.9650 -2.9568 -1.0623
  803MOL0     H 8403   6.749   8.868   1.010 -0.0030 -0.2499  1.1337
  803MOL0     H 8404   6.795   9.029   0.957  1.2258 -1.8794  2.5326
  803MOL0     H 8405   6.656   8.934   0.878 -0.9249 -0.7688  2.3138
  804MOL0     O 8406   6.090   3.357   6.152  0.5994  0.2511 -0.3229
  804MOL0     C 8407   6.055   3.438   6.240  0.2664  0.2225  0.0269
  804MOL0     O 8408   6.142   3.520   6.310  0.3985  0.4500  0.8052
  804MOL0     C 8409   6.272   3.483   6.296  1.2202 -0.2203 -0.0970
  804MOL0     C 8410   6.305   3.382   6.388 -0.3764 -0.9393  0.2392
  804MOL0     C 8411   6.429   3.322   6.374 -1.1102  0.2568 -0.4882
  804MOL0     C 8412   6.513   3.359   6.262  0.4504  0.7904 -0.4665
  804MOL0     O 8413   6.640   3.304   6.255  0.0448  0.5036 -0.1754
  804MOL0     C 8414   6.646   3.167   6.226 -0.0305 -0.1864 -1.0716
  804MOL0     C 8415   6.741   3.136   6.109 -0.9902  0.3890  0.0441
  804MOL0     C 8416   6.876   3.210   6.115 -0.7152  0.5594 -0.0751
  804MOL0     C 8417   6.962   3.154   6.237 -0.0882  0.2826  0.2251
  804MOL0     C 8418   7.082   3.242   6.260  0.5933  0.3219 -0.2026
  804MOL0     C 8419   7.144   3.221   6.402  0.7128  0.1042 -0.4858
  804MOL0     C 8420   7.283   3.273   6.397  0.3172 -0.6329 -0.6027
  804MOL0     C 8421   7.325   3.337   6.526 -0.1213 -0.7015  0.7403
  804MOL0     N 8422   7.430   3.446   6.512  0.1044 -0.1634  0.8126
  804MOL0     C 8423   7.565   3.421   6.479 -0.3418 -0.0694 -0.9720
  804MOL0     C 8424   7.630   3.531   6.514 -0.2234  0.3717  0.0876
  804MOL0     C 8425   7.775   3.551   6.487 -0.7188  0.3499  0.1137
  804MOL0     C 8426   7.810   3.530   6.340 -0.1511  0.4686 -0.1266
  804MOL0     C 8427   7.957   3.548   6.317  0.2633  0.5057  0.2882
  804MOL0     C 8428   7.994   3.677   6.237  0.2850 -0.5137  0.6334
  804MOL0     O 8429   8.132   3.700   6.198  0.9050 -0.1530  0.8541
  804MOL0     C 8430   8.221   3.659   6.298 -0.7979 -0.9507  0.9313
  804MOL0     C 8431   8.225   3.693   6.433  0.5043 -0.0284  0.0377
  804MOL0     C 8432   8.328   3.650   6.516 -0.5330  0.0946 -0.4323
  804MOL0     C 8433   8.434   3.575   6.462  0.0624 -0.7730 -0.1979
  804MOL0     C 8434   8.551   3.531   6.543  0.3989  0.0516 -0.8587
  804MOL0     O 8435   8.642   3.463   6.480  0.8319 -0.2317  0.0910
  804MOL0     C 8436   8.758   3.403   6.532 -0.2026 -0.6497  0.1702
  804MOL0     C 8437   8.827   3.323   6.440  0.4324  0.1750 -0.0977
  804MOL0     C 8438   8.942   3.254   6.478 -0.5204 -0.2238  0.8799
  804MOL0     C 8439   9.010   3.277   6.599  0.0386 -0.5259 -0.5344
  804MOL0     O 8440   9.115   3.200   6.627 -0.6363 -0.1275  0.3912
  804MOL0     C 8441   9.227   3.279   6.681  0.1474 -0.4444  0.6386
  804MOL0     C 8442   9.333   3.188   6.756 -0.3721 -0.1516  0.3993
  804MOL0     C 8443   9.289   3.128   6.883  1.1405  0.2364 -1.1240
  804MOL0     C 8444   9.281   3.230   6.999 -0.3603 -0.7845 -0.8430
  804MOL0     C 8445   9.413   3.289   7.051  0.1352  0.1079  0.4469
  804MOL0     C 8446   9.388   3.363   7.182 -0.4288  0.5348 -1.0517
  804MOL0     C 8447   9.508   3.432   7.245 -0.4232  0.1921 -0.4894
  804MOL0     C 8448   9.642   3.347   7.228  0.0145  0.1110 -0.5125
  804MOL0    Cl 8449   9.615   3.186   7.292  0.1984 -0.0608 -0.1064
  804MOL0     C 8450   8.939   3.355   6.690  0.3684  0.0509  1.1371
  804MOL0     C 8451   8.816   3.411   6.663 -0.2972  0.0393 -0.0153
  804MOL0     O 8452   8.540   3.531   6.668 -0.6661 -0.2916  0.3796
  804MOL0     C 8453   8.435   3.553   6.324 -0.3373 -0.6151  0.0667
  804MOL0     C 8454   8.339   3.606   6.244  1.1930  0.8156 -0.7050
  804MOL0     N 8455   7.544   3.616   6.582  0.7234 -0.4528  0.1014
  804MOL0     N 8456   7.427   3.558   6.586 -0.6601  0.4847  0.4782
  804MOL0     C 8457   6.473   3.467   6.186 -0.2331  0.6915  0.0763
  804MOL0     C 8458   6.353   3.527   6.195 -0.2331 -0.3243 -0.4362
  804MOL0     C 8459   5.904   3.480   6.257 -0.2425 -0.0847  0.9916
  804MOL0     C 8460   5.870   3.520   6.387 -0.0088 -0.3644 -1.0056
  804MOL0     C 8461   5.737   3.546   6.423 -0.1781 -0.4987  0.2230
  804MOL0     C 8462   5.630   3.544   6.332 -0.1342  0.1160  0.4561
  804MOL0     O 8463   5.496   3.572   6.371  1.0052  0.1107 -0.0960
  804MOL0     C 8464   5.383   3.571   6.284  0.3596  0.4254  0.3233
  804MOL0     C 8465   5.349   3.434   6.231 -0.0551 -0.6576  0.2714
  804MOL0     C 8466   5.259   3.376   6.335 -0.3811  0.6778  0.3222
  804MOL0     C 8467   5.271   3.225   6.328 -0.4340 -0.7872  0.4538
  804MOL0     C 8468   5.219   3.160   6.452 -1.1780  0.4356 -0.2617
  804MOL0     C 8469   5.158   3.105   6.549 -0.7353 -0.4433  0.2860
  804MOL0     C 8470   5.665   3.509   6.201 -0.1251  1.1365  0.7900
  804MOL0     C 8471   5.793   3.476   6.170 -0.2550  0.0598  0.6637
  804MOL0     C 8472   5.812   3.434   6.018 -1.0176  1.0301  0.3815
  804MOL0     H 8473   6.234   3.345   6.461 -2.5608  1.2380 -0.6268
  804MOL0     H 8474   6.464   3.241   6.437  2.6566 -0.6374 -3.3529
  804MOL0     H 8475   6.673   3.114   6.318 -1.6807 -0.3697 -0.6443
  804MOL0     H 8476   6.547   3.130   6.195 -0.0256  0.2837 -1.6789
  804MOL0     H 8477   6.693   3.182   6.022 -0.5593  0.8717  0.0513
  804MOL0     H 8478   6.760   3.030   6.093  1.2655  0.9018 -1.0648
  804MOL0     H 8479   6.863   3.316   6.138 -1.5631 -0.1266  3.2218
  804MOL0     H 8480   6.926   3.196   6.019 -2.2823  2.2094 -1.1943
  804MOL0     H 8481   6.909   3.134   6.330  1.8548 -0.9900  1.1214
  804MOL0     H 8482   7.000   3.063   6.188 -0.4858  0.8338 -1.1503
  804MOL0     H 8483   7.149   3.233   6.175 -0.9733  0.4492 -1.5002
  804MOL0     H 8484   7.048   3.346   6.260 -0.5949 -0.0489 -0.0751
  804MOL0     H 8485   7.083   3.266   6.481 -0.2328  2.4656 -2.4072
  804MOL0     H 8486   7.137   3.118   6.438  1.5063  0.4543  0.6975
  804MOL0     H 8487   7.290   3.350   6.319 -0.2487  0.0998  0.0513
  804MOL0     H 8488   7.356   3.198   6.368  2.3873  0.8740  0.4294
  804MOL0     H 8489   7.235   3.384   6.568 -0.4619 -1.5554  0.9817
  804MOL0     H 8490   7.365   3.261   6.593  0.8847  0.2397  1.2432
  804MOL0     H 8491   7.599   3.323   6.445  0.9483  0.0353 -0.0765
  804MOL0     H 8492   7.799   3.652   6.522  0.5682 -0.6868  2.4617
  804MOL0     H 8493   7.828   3.476   6.546  0.5138 -0.8650 -2.3859
  804MOL0     H 8494   7.774   3.430   6.313 -1.2425  0.6374  0.5998
  804MOL0     H 8495   7.751   3.601   6.281 -1.6247 -0.1257  0.5770
  804MOL0     H 8496   7.993   3.457   6.270 -1.4629 -0.6782  1.1624
  804MOL0     H 8497   8.013   3.559   6.411  1.1519 -2.8921  0.2827
  804MOL0     H 8498   7.954   3.767   6.285 -0.0466 -1.1511  1.5967
  804MOL0     H 8499   7.929   3.683   6.149 -0.9219  1.1105  1.5905
  804MOL0     H 8500   8.149   3.752   6.484  0.4711  1.1071 -1.2548
  804MOL0     H 8501   8.314   3.671   6.621 -1.4751  2.7535 -0.9978
  804MOL0     H 8502   8.784   3.321   6.340 -0.0428  0.3832  0.1015
  804MOL0     H 8503   8.997   3.195   6.406 -0.0024  2.3539 -0.9620
  804MOL0     H 8504   9.273   3.345   6.607 -0.1982  0.1798  0.9674
  804MOL0     H 8505   9.187   3.351   6.753  1.4875  0.4879  0.4949
  804MOL0     H 8506   9.358   3.106   6.688  2.1888 -0.0789  1.1354
  804MOL0     H 8507   9.419   3.248   6.787 -1.7606  1.2761  1.6824
  804MOL0     H 8508   9.194   3.074   6.873  0.9963  0.5739 -1.6237
  804MOL0     H 8509   9.360   3.053   6.917 -1.2951 -2.9319 -2.5709
  804MOL0     H 8510   9.234   3.169   7.077  0.6222  1.2091  1.4348
  804MOL0     H 8511   9.208   3.308   6.978  0.7849  0.5073 -0.1832
  804MOL0     H 8512   9.454   3.350   6.970  1.0190 -0.3694  0.5252
  804MOL0     H 8513   9.479   3.203   7.061  0.7314  0.7597  3.1040
  804MOL0     H 8514   9.303   3.432   7.173 -0.4350  0.8796  1.1110
  804MOL0     H 8515   9.356   3.295   7.261 -1.6282  1.4870 -0.6688
  804MOL0     H 8516   9.486   3.458   7.349  2.9259 -2.2048  0.9969
  804MOL0     H 8517   9.526   3.528   7.196 -0.9441  1.7148  2.1072
  804MOL0     H 8518   9.673   3.349   7.123  1.0259  2.2354 -0.2165
  804MOL0     H 8519   9.730   3.375   7.287  0.5755 -1.7935 -0.3775
  804MOL0     H 8520   8.962   3.360   6.796  1.3350  0.8311  0.8935
  804MOL0     H 8521   8.779   3.484   6.734  0.5385 -0.0527  0.5334
  804MOL0     H 8522   8.520   3.510   6.273 -0.5933 -0.8435 -0.1725
  804MOL0     H 8523   8.353   3.610   6.137  2.9739  1.7483 -0.4810
  804MOL0     H 8524   6.549   3.495   6.114 -0.8655  1.8822 -0.1430
  804MOL0     H 8525   6.320   3.600   6.123 -0.1730 -1.6258 -1.8319
  804MOL0     H 8526   5.948   3.521   6.463 -0.9885 -0.4062  0.0230
  804MOL0     H 8527   5.705   3.587   6.519  1.9008  1.7504  0.0632
  804MOL0     H 8528   5.397   3.642   6.202  0.8166 -1.7306 -1.5704
  804MOL0     H 8529   5.296   3.607   6.340  0.3793  0.3165  0.4235
  804MOL0     H 8530   5.440   3.377   6.213  0.7958  1.4988 -3.3994
  804MOL0     H 8531   5.292   3.429   6.138  1.6289  4.0951 -1.3337
  804MOL0     H 8532   5.157   3.410   6.313 -1.0341 -2.7484 -2.8363
  804MOL0     H 8533   5.288   3.413   6.434 -0.5308  1.5268  0.0628
  804MOL0     H 8534   5.202   3.193   6.250  0.2611  0.2668 -0.6317
  804MOL0     H 8535   5.376   3.201   6.309  0.0624  1.7136 -0.3224
  804MOL0     H 8536   5.094   3.047   6.613  0.6314  0.4740  2.6236
  804MOL0     H 8537   5.593   3.500   6.121  0.3872 -1.4910  0.5445
  804MOL0     H 8538   5.790   3.327   6.010 -0.3592  0.8258  1.1739
  804MOL0     H 8539   5.739   3.489   5.958 -3.7260 -2.9525 -0.3849
  804MOL0     H 8540   5.911   3.453   5.974  0.5595 -0.5697  2.9637
  805MOL0     O 8541   9.466   1.104   6.269  0.8846  1.0216  0.1045
  805MOL0     C 8542   9.446   1.049   6.161 -0.4646 -0.3323  0.3366
  805MOL0     O 8543   9.331   1.001   6.117 -0.0634 -0.0402 -0.5347
  805MOL0     C 8544   9.226   0.967   6.208 -0.6579 -1.0788 -0.0979
  805MOL0     C 8545   9.200   1.039   6.324 -0.4725  0.0394 -1.0388
  805MOL0     C 8546   9.095   0.999   6.411  0.3075  0.5125 -0.2895
  805MOL0     C 8547   9.010   0.891   6.370 -0.3103 -0.1645 -0.1822
  805MOL0     O 8548   8.889   0.854   6.421 -0.2172  0.1469 -0.8365
  805MOL0     C 8549   8.812   0.945   6.505  0.2818  0.1890  0.1271
  805MOL0     C 8550   8.662   0.902   6.504 -0.2828 -0.7767 -0.2472
  805MOL0     C 8551   8.586   0.908   6.374 -0.0166  0.4643  0.6276
  805MOL0     C 8552   8.514   0.767   6.349  0.9182  0.1368 -0.4101
  805MOL0     C 8553   8.620   0.666   6.305  0.3950 -0.2335  1.0982
  805MOL0     C 8554   8.648   0.689   6.156  0.0633 -0.2300 -0.0214
  805MOL0     C 8555   8.739   0.587   6.100 -0.1853 -0.1176  0.1161
  805MOL0     C 8556   8.764   0.599   5.952 -0.2382 -0.7184  0.3344
  805MOL0     N 8557   8.807   0.741   5.925 -0.2000  0.2209 -0.5770
  805MOL0     C 8558   8.726   0.848   5.890 -0.5590  0.5707 -0.3331
  805MOL0     C 8559   8.814   0.934   5.820  0.2215 -0.0556  0.0841
  805MOL0     C 8560   8.780   1.064   5.743  0.0127  0.4717  0.0347
  805MOL0     C 8561   8.751   1.024   5.595  0.4090 -0.0399 -0.1608
  805MOL0     C 8562   8.614   0.952   5.578 -0.8188  0.3754  0.5389
  805MOL0     C 8563   8.484   1.027   5.624 -0.2283 -0.2861  0.5209
  805MOL0     O 8564   8.468   0.987   5.764 -0.2941 -0.5461 -0.8841
  805MOL0     C 8565   8.348   1.026   5.820 -0.8489  0.4166  0.5821
  805MOL0     C 8566   8.234   1.075   5.749  0.4251 -0.4267 -0.3837
  805MOL0     C 8567   8.116   1.110   5.809 -0.2999 -0.3219  0.5439
  805MOL0     C 8568   8.111   1.107   5.948 -0.0392  0.7447 -0.3556
  805MOL0     C 8569   7.987   1.132   6.014 -0.3006  0.8163 -0.5150
  805MOL0     O 8570   7.883   1.184   5.945  0.9654  0.4123  0.2555
  805MOL0     C 8571   7.766   1.218   6.016 -0.9592  0.5104 -0.4901
  805MOL0     C 8572   7.676   1.125   6.059  0.6721  0.3311 -0.0360
  805MOL0     C 8573   7.565   1.164   6.138  0.8336  0.2097  0.3798
  805MOL0     C 8574   7.543   1.291   6.175  0.0051 -0.9517  0.5406
  805MOL0     O 8575   7.441   1.328   6.251  1.1510  0.3381 -0.1056
  805MOL0     C 8576   7.333   1.395   6.174  0.1823 -0.2798  1.1459
  805MOL0     C 8577   7.196   1.339   6.226  0.2066 -0.3017  0.4456
  805MOL0     C 8578   7.178   1.351   6.381  0.5870  0.5652 -0.1211
  805MOL0     C 8579   7.034   1.294   6.435 -0.1752  0.7822 -0.3155
  805MOL0     C 8580   7.008   1.301   6.581  0.3327 -0.1004 -0.6734
  805MOL0     C 8581   7.079   1.197   6.670  0.6948  1.1107 -0.1137
  805MOL0     C 8582   7.026   1.207   6.819 -0.0160 -0.2567  0.3033
  805MOL0     C 8583   7.069   1.095   6.909 -0.0306 -0.0959  0.9532
  805MOL0    Cl 8584   6.985   0.941   6.873 -0.5275  0.4467  0.0063
  805MOL0     C 8585   7.631   1.387   6.121  0.1318  1.2025  0.5774
  805MOL0     C 8586   7.739   1.350   6.043 -1.1061 -0.8271  0.4624
  805MOL0     O 8587   7.985   1.107   6.134  1.0114  0.2100  0.4548
  805MOL0     C 8588   8.221   1.060   6.013  0.0156 -0.8003  0.0173
  805MOL0     C 8589   8.340   1.024   5.953  0.6528 -0.1924  0.0112
  805MOL0     N 8590   8.943   0.878   5.813  0.3091 -0.4439  0.2289
  805MOL0     N 8591   8.933   0.769   5.882  0.4665 -0.0138  0.2410
  805MOL0     C 8592   9.034   0.827   6.248  0.2632  0.2366  0.2238
  805MOL0     C 8593   9.141   0.869   6.167  0.8184 -0.2887  0.7976
  805MOL0     C 8594   9.560   1.050   6.066  0.4509 -0.7240  0.4117
  805MOL0     C 8595   9.563   0.955   5.967 -0.7520 -0.1272  0.4411
  805MOL0     C 8596   9.672   0.944   5.884  0.2158 -0.0631  0.2359
  805MOL0     C 8597   9.787   1.024   5.903 -0.2324  0.2047 -0.0650
  805MOL0     O 8598   9.896   1.000   5.830  0.9672  0.2288 -0.6554
  805MOL0     C 8599   9.918   1.098   5.724 -0.3752 -1.1762 -0.0913
  805MOL0     C 8600   9.865   1.054   5.583 -0.0246  0.1390 -0.1041
  805MOL0     C 8601   9.934   0.925   5.531  0.5879  0.4983  0.5987
  805MOL0     C 8602   9.853   0.865   5.417  0.1533  0.0809  0.7914
  805MOL0     C 8603   9.737   0.797   5.470 -0.7975 -0.7118  0.4909
  805MOL0     C 8604   9.649   0.722   5.510  0.7045  0.1552 -1.2546
  805MOL0     C 8605   9.783   1.116   6.005  0.6058  0.0907  0.6731
  805MOL0     C 8606   9.666   1.143   6.075  0.0859 -0.3458  0.8766
  805MOL0     C 8607   9.668   1.275   6.148 -0.4508 -0.0755 -0.9978
  805MOL0     H 8608   9.254   1.129   6.354  0.0144 -0.5627 -0.0622
  805MOL0     H 8609   9.069   1.045   6.506 -0.5909 -1.0401  0.2415
  805MOL0     H 8610   8.845   0.939   6.609 -1.2148  2.8099  0.8309
  805MOL0     H 8611   8.809   1.049   6.472 -1.7653  1.0517  2.7410
  805MOL0     H 8612   8.610   0.978   6.564  3.4361  1.4535  0.5160
  805MOL0     H 8613   8.638   0.810   6.559 -0.9541 -0.0922  0.6369
  805MOL0     H 8614   8.663   0.925   6.298 -1.6490 -3.0498 -2.0641
  805MOL0     H 8615   8.511   0.989   6.373 -1.5503 -0.8604  2.2753
  805MOL0     H 8616   8.467   0.734   6.442 -1.8319  1.4457 -1.2279
  805MOL0     H 8617   8.426   0.777   6.286 -0.9788 -5.2336  0.8496
  805MOL0     H 8618   8.708   0.678   6.369 -0.7144  1.2257  2.4420
  805MOL0     H 8619   8.584   0.564   6.321 -0.3468 -0.3652 -1.1438
  805MOL0     H 8620   8.553   0.686   6.100 -0.4417 -2.6994  0.8250
  805MOL0     H 8621   8.689   0.790   6.156  1.7715 -0.8772  1.9674
  805MOL0     H 8622   8.693   0.492   6.126 -0.3773 -0.3357 -1.0039
  805MOL0     H 8623   8.833   0.587   6.157 -0.3746 -0.7413  0.4324
  805MOL0     H 8624   8.848   0.533   5.930  0.0533 -1.2143  2.6433
  805MOL0     H 8625   8.673   0.571   5.899  0.3998 -2.2620  0.0140
  805MOL0     H 8626   8.620   0.857   5.914 -0.8316 -0.5778 -1.0074
  805MOL0     H 8627   8.695   1.114   5.791 -0.9529 -1.1374  0.0804
  805MOL0     H 8628   8.856   1.142   5.758 -0.0164  0.1621  2.1174
  805MOL0     H 8629   8.754   1.117   5.538  0.7965  1.6880  2.5219
  805MOL0     H 8630   8.832   0.957   5.564 -0.5795 -1.4973  0.3202
  805MOL0     H 8631   8.624   0.851   5.619  1.9702  0.4618  0.2126
  805MOL0     H 8632   8.609   0.939   5.470  2.1566 -1.9585  0.5547
  805MOL0     H 8633   8.404   0.997   5.557 -0.9473  1.8991  0.3273
  805MOL0     H 8634   8.500   1.135   5.613 -2.9334  0.4772  2.7951
  805MOL0     H 8635   8.228   1.061   5.641 -0.4597 -0.3246 -0.3566
  805MOL0     H 8636   8.033   1.128   5.743  0.5688 -1.4299 -0.9086
  805MOL0     H 8637   7.691   1.026   6.018  2.2954  1.6276 -2.9207
  805MOL0     H 8638   7.499   1.081   6.161  2.4944 -0.6369  2.3964
  805MOL0     H 8639   7.346   1.503   6.182  0.8637 -0.2516 -0.1338
  805MOL0     H 8640   7.345   1.370   6.068  0.3759  1.2593  0.7759
  805MOL0     H 8641   7.123   1.406   6.179 -0.7444 -0.7167  1.2952
  805MOL0     H 8642   7.189   1.234   6.198 -0.4123 -0.6680  1.8860
  805MOL0     H 8643   7.252   1.277   6.413  3.4624  2.3150 -2.2832
  805MOL0     H 8644   7.203   1.450   6.419  2.2168  1.2796 -2.7764
  805MOL0     H 8645   7.015   1.190   6.410 -1.1253  1.2034 -1.4517
  805MOL0     H 8646   6.955   1.360   6.397 -0.3753 -0.1571 -1.5798
  805MOL0     H 8647   6.900   1.289   6.588  0.4227 -0.6648 -0.2207
  805MOL0     H 8648   7.032   1.402   6.616 -3.6338  1.9430 -3.0993
  805MOL0     H 8649   7.064   1.095   6.632 -0.4356  0.2536  2.3787
  805MOL0     H 8650   7.182   1.233   6.668  0.1469  2.7580 -2.0512
  805MOL0     H 8651   6.917   1.193   6.823 -0.6858  3.4504 -0.8759
  805MOL0     H 8652   7.040   1.304   6.867 -1.8561 -0.6109  1.6695
  805MOL0     H 8653   7.173   1.062   6.916 -0.7001 -3.3217 -1.7837
  805MOL0     H 8654   7.052   1.112   7.016  0.9641 -0.5121  1.1897
  805MOL0     H 8655   7.624   1.492   6.149 -0.2167  0.9901  1.3188
  805MOL0     H 8656   7.799   1.430   6.001 -0.8480 -0.8966  0.6969
  805MOL0     H 8657   8.209   1.059   6.121  2.2687 -0.7590  0.3066
  805MOL0     H 8658   8.426   1.000   6.015 -0.8534 -2.8322  1.2715
  805MOL0     H 8659   8.981   0.734   6.229  3.3359 -1.3259 -1.4080
  805MOL0     H 8660   9.148   0.806   6.078 -3.5130 -0.0066  0.0280
  805MOL0     H 8661   9.488   0.877   5.967  0.7610 -1.6655  1.8101
  805MOL0     H 8662   9.672   0.857   5.820 -3.3285 -1.5017  1.8931
  805MOL0     H 8663  10.024   1.123   5.718 -1.1962  2.6022 -1.7816
  805MOL0     H 8664   9.885   1.200   5.748  3.8712  0.9358 -2.1824
  805MOL0     H 8665   9.878   1.142   5.520  1.7715  1.8262  2.3978
  805MOL0     H 8666   9.761   1.023   5.585  0.6405 -2.5473  3.6441
  805MOL0     H 8667   9.959   0.849   5.606 -0.4085 -0.2820  0.1673
  805MOL0     H 8668  10.028   0.959   5.486  0.0843 -0.2826 -1.1420
  805MOL0     H 8669   9.821   0.937   5.341  0.2925 -1.7902 -1.1199
  805MOL0     H 8670   9.911   0.795   5.356 -0.8459  1.0668 -1.3904
  805MOL0     H 8671   9.569   0.659   5.544 -0.1132  1.0723 -1.4393
  805MOL0     H 8672   9.874   1.172   6.021  1.3822 -0.7380 -0.6761
  805MOL0     H 8673   9.708   1.251   6.247  1.5813 -2.4779 -2.2815
  805MOL0     H 8674   9.743   1.337   6.098 -2.3756  0.0100 -4.0594
  805MOL0     H 8675   9.573   1.329   6.147  0.2964  1.2808 -1.9679
  806MOL0     O 8676   3.105   9.761   8.618  0.2258 -0.1468  0.1755
  806MOL0     C 8677   3.126   9.633   8.616  0.2401  0.5290 -0.1999
  806MOL0     O 8678   3.249   9.581   8.600 -0.8049  0.1829  0.4038
  806MOL0     C 8679   3.342   9.683   8.570 -0.6827  0.1609  0.2978
  806MOL0     C 8680   3.377   9.708   8.439  0.9348 -0.9939  0.1605
  806MOL0     C 8681   3.475   9.797   8.402  0.8280  0.1225 -0.0978
  806MOL0     C 8682   3.537   9.882   8.494  0.1797 -0.3771 -0.7619
  806MOL0     O 8683   3.629   9.974   8.444  0.0635  0.3611  0.0440
  806MOL0     C 8684   3.698  10.050   8.535 -0.3058 -0.0583 -0.7340
  806MOL0     C 8685   3.778  10.153   8.452  0.2660 -0.1046 -0.1860
  806MOL0     C 8686   3.892  10.233   8.529  0.2096 -1.1139 -0.1356
  806MOL0     C 8687   4.032  10.192   8.503  0.5649  0.4117  0.0245
  806MOL0     C 8688   4.126  10.299   8.560  0.3263 -0.4628 -0.0398
  806MOL0     C 8689   4.274  10.252   8.562 -0.1171 -0.2439  0.7016
  806MOL0     C 8690   4.355  10.367   8.642 -0.3972  1.2796  0.8122
  806MOL0     C 8691   4.500  10.326   8.650  0.8819  0.3321 -0.1256
  806MOL0     N 8692   4.586  10.433   8.691  0.2948  0.2698  0.3676
  806MOL0     C 8693   4.711  10.458   8.640  0.8720 -0.5601  0.2877
  806MOL0     C 8694   4.758  10.551   8.723  0.1510 -0.1651  0.0470
  806MOL0     C 8695   4.896  10.615   8.733  0.4253 -0.6461  0.5120
  806MOL0     C 8696   4.993  10.511   8.796  0.1599 -0.1727  0.4155
  806MOL0     C 8697   5.138  10.560   8.814  0.2601 -0.0931 -0.4950
  806MOL0     C 8698   5.210  10.576   8.684  0.5541 -0.1577  0.0004
  806MOL0     O 8699   5.350  10.582   8.721 -0.6025  0.5261 -0.6779
  806MOL0     C 8700   5.439  10.655   8.643 -0.4803  1.1348  0.2484
  806MOL0     C 8701   5.576  10.673   8.674 -0.4048  0.0625 -0.0786
  806MOL0     C 8702   5.665  10.738   8.589  0.7482 -0.0025 -0.7624
  806MOL0     C 8703   5.623  10.775   8.460 -0.2313 -0.7037 -0.9946
  806MOL0     C 8704   5.719  10.841   8.371 -0.0804 -0.4117 -0.4049
  806MOL0     O 8705   5.695  10.818   8.236 -0.0891 -0.4190  0.9945
  806MOL0     C 8706   5.791  10.854   8.137 -0.3516  0.0916 -0.0593
  806MOL0     C 8707   5.920  10.915   8.159 -0.6430 -0.9981  0.2081
  806MOL0     C 8708   5.996  10.946   8.047 -0.3865 -0.2111 -0.0619
  806MOL0     C 8709   5.953  10.929   7.919  0.2039  1.0836  0.5597
  806MOL0     O 8710   6.020  10.965   7.810  0.5597 -1.1083 -0.0324
  806MOL0     C 8711   6.145  10.912   7.763 -0.2135 -0.0619 -0.2722
  806MOL0     C 8712   6.262  11.000   7.803 -0.3334 -0.4606 -0.0695
  806MOL0     C 8713   6.399  10.943   7.762  0.2959 -0.1925  0.7171
  806MOL0     C 8714   6.526  11.030   7.798  0.9370 -0.5439  0.8171
  806MOL0     C 8715   6.661  10.968   7.750 -0.4341 -0.7002 -0.2875
  806MOL0     C 8716   6.775  11.068   7.779  0.6230  0.4320 -0.1370
  806MOL0     C 8717   6.897  10.994   7.823  0.5334  0.0409  0.7132
  806MOL0     C 8718   6.980  11.058   7.928 -0.2382  0.4426  0.3094
  806MOL0    Cl 8719   7.091  10.922   7.997 -0.5116  0.1633 -0.4658
  806MOL0     C 8720   5.832  10.868   7.895 -0.0585 -0.6480 -1.0089
  806MOL0     C 8721   5.761  10.822   8.006 -0.1284 -0.1280 -0.3011
  806MOL0     O 8722   5.800  10.918   8.421  0.6781  0.6256  0.1106
  806MOL0     C 8723   5.488  10.760   8.424  0.1036 -0.7866  0.2508
  806MOL0     C 8724   5.400  10.708   8.518  1.0209  0.0330  0.8129
  806MOL0     N 8725   4.662  10.586   8.814  0.7532 -0.1554 -0.2540
  806MOL0     N 8726   4.553  10.519   8.793  0.2785  0.1125  0.5006
  806MOL0     C 8727   3.497   9.863   8.626  0.4143  0.1457 -0.1812
  806MOL0     C 8728   3.412   9.763   8.671 -0.0886 -0.5726  1.4741
  806MOL0     C 8729   3.016   9.534   8.639 -0.1878 -0.4965 -0.0482
  806MOL0     C 8730   2.894   9.582   8.699 -0.7896  0.2330  0.3870
  806MOL0     C 8731   2.791   9.492   8.724 -0.3978  1.3085 -0.2984
  806MOL0     C 8732   2.811   9.350   8.691  0.5944 -1.0674  0.6005
  806MOL0     O 8733   2.710   9.259   8.698  0.1373 -0.2796  0.2686
  806MOL0     C 8734   2.703   9.118   8.663 -0.8103  0.6505  0.3488
  806MOL0     C 8735   2.561   9.051   8.676 -0.8881 -0.0265  0.0689
  806MOL0     C 8736   2.516   9.029   8.821  0.9566 -0.0882 -0.4346
  806MOL0     C 8737   2.583   8.915   8.890 -0.2327  0.9071 -0.0553
  806MOL0     C 8738   2.534   8.780   8.874 -0.4240  0.0911 -0.1017
  806MOL0     C 8739   2.492   8.668   8.858  0.2507  0.5674  0.1222
  806MOL0     C 8740   2.933   9.310   8.639  0.0536 -0.2389  0.2926
  806MOL0     C 8741   3.030   9.398   8.603 -0.9287  0.3119  0.1656
  806MOL0     C 8742   3.141   9.331   8.527 -0.3058 -0.3801  0.8656
  806MOL0     H 8743   3.333   9.628   8.379  2.5305 -2.0942  0.4011
  806MOL0     H 8744   3.507   9.795   8.298  2.6893  0.6796  0.4273
  806MOL0     H 8745   3.638  10.099   8.611  0.5299  0.0616 -0.1304
  806MOL0     H 8746   3.771   9.986   8.587  0.3643  0.9072 -0.4528
  806MOL0     H 8747   3.720  10.233   8.406 -0.1208 -0.4633 -0.3281
  806MOL0     H 8748   3.830  10.110   8.365 -0.5064 -0.0079 -0.7008
  806MOL0     H 8749   3.876  10.234   8.637  0.2146 -2.0174 -0.1198
  806MOL0     H 8750   3.876  10.335   8.493 -2.0806 -0.4203  2.5180
  806MOL0     H 8751   4.037  10.106   8.571 -3.1965 -0.0568 -0.0733
  806MOL0     H 8752   4.058  10.165   8.401  2.7681 -1.2142  0.9421
  806MOL0     H 8753   4.122  10.391   8.502  1.2361 -1.0601 -1.0890
  806MOL0     H 8754   4.096  10.318   8.663  1.0524  2.3529 -0.2771
  806MOL0     H 8755   4.288  10.157   8.615  1.3929 -0.2092  0.4119
  806MOL0     H 8756   4.313  10.228   8.463 -0.1404 -2.4376  1.1740
  806MOL0     H 8757   4.325  10.386   8.745  1.6815  0.0103  1.7136
  806MOL0     H 8758   4.343  10.462   8.589 -1.4324  0.6977 -0.0310
  806MOL0     H 8759   4.514  10.240   8.716  0.9043  0.0842 -0.4479
  806MOL0     H 8760   4.505  10.291   8.546 -2.4216 -0.2597 -0.1945
  806MOL0     H 8761   4.747  10.416   8.546 -1.0863 -2.2036  0.2013
  806MOL0     H 8762   4.931  10.642   8.633  4.7022  0.1214  2.0439
  806MOL0     H 8763   4.888  10.711   8.785 -1.7487  0.9580 -2.4220
  806MOL0     H 8764   4.959  10.500   8.900  0.1459  3.4186  0.9168
  806MOL0     H 8765   4.993  10.420   8.735  2.1098 -2.4950  3.5230
  806MOL0     H 8766   5.188  10.488   8.879 -2.1027  1.0588  2.8576
  806MOL0     H 8767   5.135  10.656   8.867 -1.0271 -0.2246 -0.3046
  806MOL0     H 8768   5.164  10.661   8.633 -0.1589  0.3639  1.4595
  806MOL0     H 8769   5.186  10.504   8.605 -0.1387  1.8028 -1.6806
  806MOL0     H 8770   5.607  10.659   8.777  0.1179  2.3190  0.1204
  806MOL0     H 8771   5.767  10.758   8.621 -0.5266  1.0886  3.2337
  806MOL0     H 8772   5.968  10.942   8.252 -1.1404 -0.0067  0.1796
  806MOL0     H 8773   6.097  10.986   8.049 -1.0212  1.9071 -3.3284
  806MOL0     H 8774   6.149  10.809   7.799 -0.9204 -0.5197 -1.4568
  806MOL0     H 8775   6.152  10.899   7.655 -1.8227  0.7708 -0.5079
  806MOL0     H 8776   6.256  11.102   7.765 -2.1451  0.9011  3.3524
  806MOL0     H 8777   6.260  11.001   7.913  0.6357 -1.2963 -0.0365
  806MOL0     H 8778   6.412  10.840   7.798  0.3753 -0.4920 -0.1629
  806MOL0     H 8779   6.393  10.937   7.653  0.6564 -0.4686  0.7128
  806MOL0     H 8780   6.527  11.039   7.907  1.8552 -0.2315  0.7925
  806MOL0     H 8781   6.506  11.130   7.759  1.0613 -1.9073 -3.2406
  806MOL0     H 8782   6.656  10.943   7.644  1.1402  2.3547 -1.2107
  806MOL0     H 8783   6.682  10.878   7.808 -0.1287  0.6514  1.8063
  806MOL0     H 8784   6.793  11.122   7.685 -0.9538  1.9415  0.3751
  806MOL0     H 8785   6.738  11.146   7.847  1.1716 -2.0516  3.2711
  806MOL0     H 8786   6.968  10.960   7.747  1.5284  0.8383  1.2600
  806MOL0     H 8787   6.868  10.909   7.885 -3.5027  0.3231 -0.4979
  806MOL0     H 8788   7.038  11.140   7.887  1.8102 -0.4166  1.3477
  806MOL0     H 8789   6.912  11.094   8.006  1.3795  0.8611  1.5596
  806MOL0     H 8790   5.807  10.844   7.792 -0.4177  2.0494 -1.6096
  806MOL0     H 8791   5.673  10.761   7.990 -1.8627  2.2457 -0.3580
  806MOL0     H 8792   5.448  10.788   8.327  1.9104 -2.0850 -0.9222
  806MOL0     H 8793   5.296  10.713   8.486  0.9349 -0.5631  0.9824
  806MOL0     H 8794   3.531   9.919   8.712 -0.4157 -2.3575  1.9022
  806MOL0     H 8795   3.414   9.734   8.776  2.2860 -0.7742  1.4149
  806MOL0     H 8796   2.881   9.685   8.729 -0.7371 -0.0382  1.3544
  806MOL0     H 8797   2.694   9.531   8.752 -1.0319 -1.1525  1.2423
  806MOL0     H 8798   2.782   9.064   8.716 -0.5385 -1.0476 -1.6197
  806MOL0     H 8799   2.729   9.117   8.556  1.1957  1.5666  0.7788
  806MOL0     H 8800   2.565   8.957   8.621 -1.1371  0.6495 -1.1381
  806MOL0     H 8801   2.488   9.116   8.627  0.5330  1.7380  0.1502
  806MOL0     H 8802   2.409   9.006   8.815  0.3257  2.3230  0.3467
  806MOL0     H 8803   2.532   9.127   8.868  1.6388  0.7400 -2.2914
  806MOL0     H 8804   2.689   8.919   8.862 -0.1291  0.0603  0.1782
  806MOL0     H 8805   2.574   8.949   8.994 -0.9224 -0.0969  0.2288
  806MOL0     H 8806   2.449   8.575   8.826  0.5611  0.3587  0.3038
  806MOL0     H 8807   2.937   9.207   8.605 -2.4760 -0.4890  0.5065
  806MOL0     H 8808   3.208   9.277   8.594 -0.0572 -1.4849 -0.2405
  806MOL0     H 8809   3.105   9.252   8.461  1.7571 -0.2660 -0.4868
  806MOL0     H 8810   3.191   9.402   8.460  0.6127 -3.3035 -1.7735
  807MOL0     O 8811   6.786  10.243   8.525 -0.0687 -0.6672 -0.1457
  807MOL0     C 8812   6.707  10.246   8.429  0.3541 -0.1720 -0.0823
  807MOL0     O 8813   6.613  10.337   8.400 -0.1332  0.3418  0.0886
  807MOL0     C 8814   6.604  10.446   8.482  0.1713  0.2484  0.1425
  807MOL0     C 8815   6.661  10.566   8.454 -1.0826 -0.0692  0.2211
  807MOL0     C 8816   6.648  10.666   8.556 -0.5018  0.1367 -0.3740
  807MOL0     C 8817   6.582  10.645   8.678  0.2087  0.1294  0.5761
  807MOL0     O 8818   6.561  10.741   8.775 -0.7798  0.4304 -0.7179
  807MOL0     C 8819   6.511  10.875   8.745  0.1598  0.4461  0.8079
  807MOL0     C 8820   6.573  10.974   8.845 -0.5330 -0.2737 -0.4668
  807MOL0     C 8821   6.570  10.939   8.996  0.1981 -0.2975  0.0234
  807MOL0     C 8822   6.713  10.892   9.039  0.6994  0.1155 -0.0772
  807MOL0     C 8823   6.724  10.855   9.191  1.1302  0.2148 -0.6307
  807MOL0     C 8824   6.631  10.748   9.243  0.0050 -0.6242 -0.3396
  807MOL0     C 8825   6.684  10.716   9.386 -0.2177  0.5617 -0.2940
  807MOL0     C 8826   6.583  10.671   9.488  0.0712 -0.4604  0.9497
  807MOL0     N 8827   6.464  10.758   9.490 -0.3287 -0.5958  0.3020
  807MOL0     C 8828   6.359  10.747   9.407  0.9044  0.5946 -0.5193
  807MOL0     C 8829   6.285  10.857   9.429 -0.5657  0.4208  0.2480
  807MOL0     C 8830   6.151  10.896   9.368 -1.4374 -0.4599  0.5287
  807MOL0     C 8831   6.027  10.839   9.426 -0.6598 -0.2272  0.1327
  807MOL0     C 8832   6.009  10.909   9.562 -0.2837  0.2658  0.1837
  807MOL0     C 8833   5.865  10.891   9.596  0.0245  0.3660  0.2119
  807MOL0     O 8834   5.840  10.750   9.617  0.1455  0.1991  0.4563
  807MOL0     C 8835   5.704  10.718   9.644 -0.3908 -0.0872 -0.2266
  807MOL0     C 8836   5.658  10.606   9.597 -0.1477 -0.1508  0.5803
  807MOL0     C 8837   5.540  10.545   9.628  0.4699 -0.2453 -0.1625
  807MOL0     C 8838   5.456  10.610   9.721 -0.0982 -0.9955 -0.1542
  807MOL0     C 8839   5.314  10.553   9.745 -0.3055 -0.9193 -0.0135
  807MOL0     O 8840   5.271  10.448   9.659 -0.4009  0.0293  0.2158
  807MOL0     C 8841   5.140  10.421   9.681 -0.1658 -0.5034  0.2648
  807MOL0     C 8842   5.110  10.310   9.765  0.6819  0.4525 -0.0258
  807MOL0     C 8843   4.974  10.287   9.800 -1.0675 -0.0163  0.0095
  807MOL0     C 8844   4.873  10.352   9.732 -0.1039 -0.2828 -0.3309
  807MOL0     O 8845   4.740  10.332   9.768  0.3660 -0.1431 -0.2150
  807MOL0     C 8846   4.652  10.331   9.659  1.0147  0.4087  0.1566
  807MOL0     C 8847   4.512  10.267   9.691  0.0633 -0.1718  0.1735
  807MOL0     C 8848   4.401  10.323   9.590 -0.8637  0.3780 -0.2046
  807MOL0     C 8849   4.255  10.296   9.626  0.6643  0.0309 -1.3030
  807MOL0     C 8850   4.165  10.311   9.501 -0.2071 -0.3272  0.4403
  807MOL0     C 8851   4.016  10.286   9.549  0.7993 -0.4537 -0.0679
  807MOL0     C 8852   3.921  10.342   9.436 -0.1197 -0.1792 -0.2638
  807MOL0     C 8853   3.782  10.373   9.490 -0.7044  0.3516 -0.9212
  807MOL0    Cl 8854   3.678  10.454   9.372  0.1076  0.2332  0.7223
  807MOL0     C 8855   4.902  10.462   9.652 -0.1959 -0.2490  0.4663
  807MOL0     C 8856   5.035  10.496   9.619  0.0693  0.3197  0.4523
  807MOL0     O 8857   5.244  10.598   9.840 -0.4074  0.5410  0.1865
  807MOL0     C 8858   5.502  10.720   9.785  0.2974  0.2692  0.2368
  807MOL0     C 8859   5.621  10.779   9.745  0.0999  0.1170  0.0094
  807MOL0     N 8860   6.337  10.929   9.531 -0.0410  0.3951 -0.6990
  807MOL0     N 8861   6.443  10.866   9.573  0.3586 -0.3649  1.1524
  807MOL0     C 8862   6.519  10.517   8.694 -1.4270  0.0494 -0.6731
  807MOL0     C 8863   6.523  10.423   8.593 -0.0639  0.2561  0.4008
  807MOL0     C 8864   6.695  10.132   8.336 -0.0725  0.3768  0.0526
  807MOL0     C 8865   6.575  10.105   8.275  0.9332  0.0229 -0.2987
  807MOL0     C 8866   6.559  10.002   8.178 -0.2205 -0.1360  0.3846
  807MOL0     C 8867   6.660   9.909   8.158 -1.1232 -0.5691  0.1302
  807MOL0     O 8868   6.651   9.798   8.075  0.3948 -0.3559 -0.4144
  807MOL0     C 8869   6.530   9.732   8.054  0.4644 -0.4912  0.7742
  807MOL0     C 8870   6.469   9.665   8.172  0.4713  1.3785 -0.2015
  807MOL0     C 8871   6.562   9.570   8.246 -0.0808  0.4190  1.2230
  807MOL0     C 8872   6.508   9.518   8.374 -0.0213 -0.6129  0.2626
  807MOL0     C 8873   6.442   9.607   8.469  0.5729  0.0366 -0.7401
  807MOL0     C 8874   6.392   9.693   8.539  0.3128 -0.1330  0.6350
  807MOL0     C 8875   6.783   9.937   8.225  0.2983  0.6397 -0.6734
  807MOL0     C 8876   6.804  10.041   8.311  0.0082 -1.3612 -0.1527
  807MOL0     C 8877   6.952  10.069   8.358  0.0522 -0.5817 -0.4384
  807MOL0     H 8878   6.725  10.583   8.368 -1.9214  0.3818 -0.3270
  807MOL0     H 8879   6.707  10.754   8.531  1.4768 -0.9563  0.2655
  807MOL0     H 8880   6.526  10.908   8.642 -2.0795 -0.1871  0.2104
  807MOL0     H 8881   6.402  10.866   8.749 -0.0512 -1.2287 -3.4520
  807MOL0     H 8882   6.522  11.069   8.831  1.0772  0.5664 -0.8459
  807MOL0     H 8883   6.678  10.992   8.820 -0.6648  0.1971 -0.6908
  807MOL0     H 8884   6.489  10.869   9.019 -1.4951  1.2058 -1.1413
  807MOL0     H 8885   6.545  11.029   9.053  2.8216 -0.6186  1.8869
  807MOL0     H 8886   6.738  10.807   8.974  0.7535 -0.8452  1.1624
  807MOL0     H 8887   6.785  10.973   9.026  2.7939 -1.6523 -0.2768
  807MOL0     H 8888   6.822  10.814   9.214  2.0106  2.9846  1.1361
  807MOL0     H 8889   6.703  10.945   9.250  2.0503 -0.1942  0.3499
  807MOL0     H 8890   6.535  10.801   9.244 -0.7142 -1.5211 -4.1214
  807MOL0     H 8891   6.642  10.661   9.178  1.3314  0.8156 -2.1654
  807MOL0     H 8892   6.723  10.807   9.432 -0.4269  3.1188 -4.6261
  807MOL0     H 8893   6.759  10.636   9.375 -1.2754 -0.4209 -0.5570
  807MOL0     H 8894   6.540  10.575   9.457  0.6569 -0.5232  0.3043
  807MOL0     H 8895   6.632  10.659   9.585  2.6599  1.4447 -0.0122
  807MOL0     H 8896   6.345  10.677   9.325  0.1335  1.3312 -1.0302
  807MOL0     H 8897   6.141  11.005   9.372  0.5185 -0.0799 -2.0518
  807MOL0     H 8898   6.162  10.874   9.261  4.6714  0.6475  0.5916
  807MOL0     H 8899   5.950  10.855   9.350 -0.5055 -3.2488 -0.7980
  807MOL0     H 8900   6.030  10.729   9.427 -0.3671 -0.2411 -0.6886
  807MOL0     H 8901   6.033  11.015   9.551 -1.4352  0.7077  1.6738
  807MOL0     H 8902   6.077  10.867   9.637 -0.3358 -0.5800 -0.2298
  807MOL0     H 8903   5.810  10.937   9.513  0.6739 -0.1530 -0.5293
  807MOL0     H 8904   5.857  10.949   9.688 -0.6902 -1.7495  1.5316
  807MOL0     H 8905   5.726  10.558   9.527 -1.8491 -0.0515 -1.2064
  807MOL0     H 8906   5.498  10.455   9.585 -2.4499  0.4604  0.9848
  807MOL0     H 8907   5.188  10.248   9.808 -0.0444  0.2120  0.9714
  807MOL0     H 8908   4.965  10.205   9.870 -0.6854 -1.4870 -1.5865
  807MOL0     H 8909   4.632  10.434   9.627  0.6992  0.2712 -0.0847
  807MOL0     H 8910   4.688  10.282   9.568 -0.4933  1.0778 -0.8334
  807MOL0     H 8911   4.525  10.160   9.673  1.8448  0.0027  0.2332
  807MOL0     H 8912   4.491  10.291   9.796 -2.3561  2.5499 -0.8015
  807MOL0     H 8913   4.408  10.432   9.579 -2.7375  0.5107 -0.4360
  807MOL0     H 8914   4.415  10.277   9.491 -1.7788 -0.7560  0.1682
  807MOL0     H 8915   4.216  10.368   9.699 -0.4118  0.9291 -2.7263
  807MOL0     H 8916   4.258  10.196   9.671 -0.5629  1.0612  1.2883
  807MOL0     H 8917   4.195  10.248   9.417  3.1163 -0.4909  1.5687
  807MOL0     H 8918   4.166  10.416   9.469  0.5645  1.1893  4.7426
  807MOL0     H 8919   4.004  10.177   9.551 -2.6129 -0.3181 -2.8409
  807MOL0     H 8920   4.016  10.337   9.646  3.6667 -1.6330  0.6409
  807MOL0     H 8921   3.901  10.268   9.358 -3.4836  2.8016 -2.4942
  807MOL0     H 8922   3.956  10.439   9.401  0.9041  0.1033  1.4092
  807MOL0     H 8923   3.726  10.285   9.523 -3.0646  2.3068  0.6596
  807MOL0     H 8924   3.788  10.447   9.571 -1.2430 -1.1364  0.5208
  807MOL0     H 8925   4.832  10.528   9.601  1.6158  0.9198 -0.6278
  807MOL0     H 8926   5.064  10.556   9.534  1.2138  0.2554  0.7891
  807MOL0     H 8927   5.436  10.765   9.860  0.9780 -0.1928  1.1308
  807MOL0     H 8928   5.656  10.862   9.805  1.3540 -0.9849  0.8800
  807MOL0     H 8929   6.467  10.499   8.787  1.3361 -0.4902  0.8636
  807MOL0     H 8930   6.472  10.328   8.595 -0.1648  0.1052 -3.1922
  807MOL0     H 8931   6.489  10.171   8.281  2.7971  2.4560  1.7294
  807MOL0     H 8932   6.463  10.006   8.127  0.5390 -1.7900 -1.3231
  807MOL0     H 8933   6.553   9.656   7.979  5.4150  0.7071  0.7734
  807MOL0     H 8934   6.453   9.803   8.020  1.2712  0.0014 -0.0688
  807MOL0     H 8935   6.390   9.601   8.132  0.5309  1.3095 -0.2063
  807MOL0     H 8936   6.422   9.732   8.245  0.6051 -0.6123  1.8224
  807MOL0     H 8937   6.661   9.610   8.269  0.6030 -2.2028  3.3891
  807MOL0     H 8938   6.581   9.483   8.183 -0.7185  0.7005  0.6298
  807MOL0     H 8939   6.449   9.430   8.348  0.4783 -0.5290 -1.2640
  807MOL0     H 8940   6.602   9.486   8.419  0.7031 -0.3547 -0.9968
  807MOL0     H 8941   6.344   9.761   8.606 -1.8632 -0.7166 -0.2364
  807MOL0     H 8942   6.868   9.878   8.195 -0.7850 -0.2760 -2.0581
  807MOL0     H 8943   6.959  10.069   8.468 -0.4586 -1.1458 -0.4029
  807MOL0     H 8944   7.023   9.998   8.314  1.1656  1.2221 -1.6912
  807MOL0     H 8945   6.985  10.170   8.330  1.3329 -0.5595  0.9768
  808MOL0     O 8946   8.614   2.039   4.092  0.8855 -0.2042  0.2957
  808MOL0     C 8947   8.530   1.963   4.136 -0.0013  0.1439  0.7811
  808MOL0     O 8948   8.558   1.850   4.212 -0.9367 -0.0986  0.1995
  808MOL0     C 8949   8.687   1.798   4.230 -0.5611 -0.0839 -0.3809
  808MOL0     C 8950   8.726   1.752   4.352  0.1788  0.7755  0.5201
  808MOL0     C 8951   8.862   1.704   4.378  1.3698  0.3896  0.4029
  808MOL0     C 8952   8.960   1.692   4.270 -1.1572 -0.1331  0.5157
  808MOL0     O 8953   9.087   1.631   4.290 -0.1669  0.2223  0.4643
  808MOL0     C 8954   9.102   1.542   4.398 -0.0466  0.0533  0.6448
  808MOL0     C 8955   9.245   1.489   4.387 -0.2942  0.6151 -0.0197
  808MOL0     C 8956   9.313   1.460   4.528  0.5203  0.5956  0.2829
  808MOL0     C 8957   9.460   1.426   4.505 -0.2115  0.0262  0.9874
  808MOL0     C 8958   9.543   1.356   4.619  0.6349 -0.3994 -0.5353
  808MOL0     C 8959   9.687   1.335   4.578  0.0194  0.1845 -0.0440
  808MOL0     C 8960   9.775   1.288   4.710  0.6671  0.5713 -0.1432
  808MOL0     C 8961   9.759   1.148   4.754 -0.5742  0.3331 -0.6762
  808MOL0     N 8962   9.814   1.039   4.672  0.8555 -0.1062 -0.4345
  808MOL0     C 8963   9.737   0.923   4.651  0.8120 -0.3553  0.8530
  808MOL0     C 8964   9.798   0.854   4.553  0.6736 -0.1256 -0.3016
  808MOL0     C 8965   9.735   0.742   4.480 -0.5694  0.3934  0.5872
  808MOL0     C 8966   9.738   0.618   4.554 -0.3426 -1.6289 -0.3301
  808MOL0     C 8967   9.682   0.604   4.700 -0.4439 -0.6819 -0.4108
  808MOL0     C 8968   9.526   0.625   4.700 -0.4827  0.0532 -0.5954
  808MOL0     O 8969   9.472   0.748   4.647 -0.3096 -0.1036  0.2157
  808MOL0     C 8970   9.336   0.777   4.672 -0.4107  0.2025  0.6623
  808MOL0     C 8971   9.244   0.694   4.731 -0.0257 -0.6084  0.5056
  808MOL0     C 8972   9.115   0.732   4.735 -0.0788  0.5722 -1.0433
  808MOL0     C 8973   9.065   0.855   4.687 -0.0912  1.0949  0.5603
  808MOL0     C 8974   8.918   0.873   4.684 -0.2281 -0.3286  0.1140
  808MOL0     O 8975   8.854   0.800   4.783 -0.1854  0.2742 -0.5964
  808MOL0     C 8976   8.713   0.801   4.795  0.9583  0.3034  0.7316
  808MOL0     C 8977   8.663   0.709   4.886 -0.3929  0.7234 -0.1956
  808MOL0     C 8978   8.529   0.692   4.922  0.3976 -0.6899  0.1353
  808MOL0     C 8979   8.435   0.765   4.846 -0.3745  0.5995 -0.0485
  808MOL0     O 8980   8.300   0.737   4.870 -0.7816  0.1032 -0.4088
  808MOL0     C 8981   8.194   0.785   4.788 -0.2243 -0.4504  0.0155
  808MOL0     C 8982   8.098   0.901   4.856  0.0406 -0.0142  0.6904
  808MOL0     C 8983   7.995   0.842   4.934  0.2760 -0.0138 -0.6106
  808MOL0     C 8984   7.910   0.951   4.991  0.0167  0.0207  0.4205
  808MOL0     C 8985   7.788   0.881   5.074  0.0863 -0.6276  0.0515
  808MOL0     C 8986   7.671   0.844   4.971 -0.1894 -0.0328  0.0977
  808MOL0     C 8987   7.541   0.825   5.043 -0.1373  0.1616  0.0923
  808MOL0     C 8988   7.529   0.691   5.108 -0.5795  0.7905  0.2763
  808MOL0    Cl 8989   7.369   0.690   5.196  0.1884 -0.7046  0.1841
  808MOL0     C 8990   8.476   0.862   4.763 -0.4942  0.8172  0.1956
  808MOL0     C 8991   8.612   0.877   4.728 -0.5295 -0.0985  0.6815
  808MOL0     O 8992   8.869   0.952   4.604  0.1916  0.7252 -0.1921
  808MOL0     C 8993   9.161   0.941   4.624 -0.1809 -0.4099  0.0736
  808MOL0     C 8994   9.297   0.898   4.621 -0.4577  0.3113 -0.1417
  808MOL0     N 8995   9.902   0.931   4.505  0.0488  1.1542  0.0232
  808MOL0     N 8996   9.909   1.047   4.570  0.2137 -0.5849  0.0809
  808MOL0     C 8997   8.916   1.738   4.141  0.3909 -0.4612 -0.6638
  808MOL0     C 8998   8.784   1.788   4.118 -0.5416 -0.4620  0.1876
  808MOL0     C 8999   8.394   1.970   4.078  0.3996 -0.4727 -0.7003
  808MOL0     C 9000   8.295   1.871   4.098  0.7473  0.2217 -0.0891
  808MOL0     C 9001   8.166   1.869   4.043  0.4597 -0.8580 -0.0213
  808MOL0     C 9002   8.125   1.981   3.980 -1.4423  0.0118  0.0913
  808MOL0     O 9003   7.998   1.983   3.944 -0.3095 -0.4160  0.4921
  808MOL0     C 9004   7.931   2.102   3.901 -0.8604  1.1395 -0.5855
  808MOL0     C 9005   7.784   2.067   3.900  0.0443 -0.6581 -1.0272
  808MOL0     C 9006   7.699   2.180   3.839 -0.7771  0.0658 -0.4579
  808MOL0     C 9007   7.547   2.160   3.852 -0.2458 -0.6766 -0.8044
  808MOL0     C 9008   7.501   2.170   3.988  0.0276  0.6196 -0.8550
  808MOL0     C 9009   7.454   2.192   4.096  0.7961  0.2199 -0.2674
  808MOL0     C 9010   8.217   2.085   3.950 -0.2115  0.1063 -0.3998
  808MOL0     C 9011   8.347   2.083   4.002  0.6500 -0.8012 -0.6023
  808MOL0     C 9012   8.426   2.214   3.974 -0.4457 -0.3310  0.1929
  808MOL0     H 9013   8.655   1.757   4.434  1.7689 -0.7685  2.0611
  808MOL0     H 9014   8.890   1.674   4.478  0.6012 -2.2410 -0.0873
  808MOL0     H 9015   9.094   1.606   4.486 -2.8370  2.1240 -0.9639
  808MOL0     H 9016   9.027   1.463   4.404 -2.7397  2.3514 -0.5605
  808MOL0     H 9017   9.317   1.547   4.330  1.5208  0.1994  1.7594
  808MOL0     H 9018   9.235   1.392   4.338  1.1368  1.7829 -2.8074
  808MOL0     H 9019   9.263   1.376   4.577  2.2352  0.3795  1.7438
  808MOL0     H 9020   9.301   1.545   4.595 -0.7373  0.2310  0.5373
  808MOL0     H 9021   9.466   1.361   4.417 -0.8791  1.3886 -0.0984
  808MOL0     H 9022   9.508   1.522   4.482  1.3302 -1.2194 -1.4520
  808MOL0     H 9023   9.542   1.411   4.714 -2.7956  2.3345 -1.9291
  808MOL0     H 9024   9.498   1.258   4.637  2.3462 -1.4072 -1.5067
  808MOL0     H 9025   9.710   1.271   4.492 -0.4479  0.4094 -0.3402
  808MOL0     H 9026   9.720   1.437   4.553 -2.6888  1.1992  0.2044
  808MOL0     H 9027   9.737   1.346   4.794  2.2176 -1.5645  2.1515
  808MOL0     H 9028   9.881   1.305   4.690  1.3340 -1.8733  1.0061
  808MOL0     H 9029   9.806   1.134   4.851 -1.0065  0.1127 -0.4936
  808MOL0     H 9030   9.651   1.127   4.753 -0.2997 -1.3778  0.4663
  808MOL0     H 9031   9.643   0.894   4.697  1.1830 -3.5761 -0.1825
  808MOL0     H 9032   9.631   0.764   4.457 -0.1166  0.7687 -1.2693
  808MOL0     H 9033   9.790   0.718   4.388 -1.4612 -1.5408  0.5070
  808MOL0     H 9034   9.706   0.534   4.491  0.7038 -2.3185  0.0233
  808MOL0     H 9035   9.844   0.597   4.571  0.0670  1.0463  0.8892
  808MOL0     H 9036   9.725   0.676   4.770  0.3287  0.7733 -2.2615
  808MOL0     H 9037   9.704   0.506   4.744 -0.5695 -0.0082  1.2196
  808MOL0     H 9038   9.497   0.594   4.801 -5.1937  0.0457 -1.7461
  808MOL0     H 9039   9.485   0.545   4.639 -2.0276  0.5903 -0.3063
  808MOL0     H 9040   9.275   0.596   4.764  2.6626  0.8850  2.9601
  808MOL0     H 9041   9.055   0.657   4.785  2.0923 -1.9402 -1.9612
  808MOL0     H 9042   8.747   0.653   4.927 -0.3565 -0.5625 -1.9087
  808MOL0     H 9043   8.502   0.625   5.003  0.2791 -0.5609  0.2029
  808MOL0     H 9044   8.239   0.818   4.694  0.0146 -0.4823  0.1187
  808MOL0     H 9045   8.130   0.707   4.746  0.9357 -0.6971 -1.3650
  808MOL0     H 9046   8.160   0.967   4.917 -1.7965 -0.3877  3.1130
  808MOL0     H 9047   8.046   0.953   4.774  2.9693  1.6324 -0.2848
  808MOL0     H 9048   7.950   0.769   4.865 -1.9543  0.7050 -0.0039
  808MOL0     H 9049   8.049   0.778   5.003  2.2786 -1.0193 -2.9576
  808MOL0     H 9050   7.882   1.019   4.910 -1.4213 -0.2119  0.6974
  808MOL0     H 9051   7.979   1.012   5.051 -0.9343  3.6580 -1.8684
  808MOL0     H 9052   7.745   0.963   5.132  1.9884  2.6533 -2.7585
  808MOL0     H 9053   7.826   0.806   5.144  1.2219 -1.7961 -1.7369
  808MOL0     H 9054   7.657   0.928   4.902  0.9879 -1.1786 -1.6093
  808MOL0     H 9055   7.692   0.757   4.908 -3.1476 -1.4145  0.8493
  808MOL0     H 9056   7.460   0.841   4.970 -0.0781  5.1895  0.7985
  808MOL0     H 9057   7.519   0.901   5.118 -2.6038  1.3971 -1.7497
  808MOL0     H 9058   7.533   0.608   5.036  3.5201  0.9109  0.1742
  808MOL0     H 9059   7.607   0.678   5.183 -0.6156  2.1848  0.5853
  808MOL0     H 9060   8.411   0.923   4.701 -3.1023 -3.2240 -1.5320
  808MOL0     H 9061   8.644   0.939   4.645 -0.2360  0.4510  1.2008
  808MOL0     H 9062   9.128   1.031   4.572  1.5104  0.6161  0.7114
  808MOL0     H 9063   9.375   0.966   4.589  1.2672 -0.4204  2.2718
  808MOL0     H 9064   8.995   1.730   4.066  2.5890  1.4238  1.2774
  808MOL0     H 9065   8.770   1.821   4.015 -3.0459  1.2949  0.9705
  808MOL0     H 9066   8.309   1.778   4.151  0.1746 -0.2043 -0.6718
  808MOL0     H 9067   8.096   1.789   4.066 -0.7147 -0.4073 -1.8486
  808MOL0     H 9068   7.951   2.133   3.798 -0.7157  1.2793 -0.5154
  808MOL0     H 9069   7.957   2.186   3.966  2.4688 -1.5276  1.9156
  808MOL0     H 9070   7.744   2.058   4.001  1.9956 -0.0564 -0.1574
  808MOL0     H 9071   7.767   1.975   3.843  0.6167 -1.9835  0.8191
  808MOL0     H 9072   7.720   2.199   3.733  0.6095  0.1566 -0.1803
  808MOL0     H 9073   7.734   2.273   3.884 -0.8741  1.3435 -2.8484
  808MOL0     H 9074   7.489   2.225   3.786 -2.7497 -2.6354 -0.6684
  808MOL0     H 9075   7.536   2.057   3.816 -0.9313 -1.2437  0.9330
  808MOL0     H 9076   7.403   2.214   4.188  2.2650  3.3309 -0.0670
  808MOL0     H 9077   8.186   2.175   3.898  0.4821 -0.1420 -1.2624
  808MOL0     H 9078   8.483   2.241   4.064  0.1416 -2.3623  0.4835
  808MOL0     H 9079   8.502   2.193   3.899  2.6040  0.0626  2.9600
  808MOL0     H 9080   8.364   2.294   3.934  0.6923 -0.8865 -2.9858
  809MOL0     O 9081   9.319  11.156   7.389 -0.6451  0.0739 -0.6118
  809MOL0     C 9082   9.352  11.048   7.440 -0.3966 -0.1875 -0.8275
  809MOL0     O 9083   9.462  10.974   7.415 -0.0184  0.3934  1.0012
  809MOL0     C 9084   9.565  11.019   7.333 -0.5232 -0.5720  0.1839
  809MOL0     C 9085   9.688  11.043   7.391  0.3806 -0.8123 -0.0942
  809MOL0     C 9086   9.785  11.078   7.305 -0.2354  0.2870  0.2033
  809MOL0     C 9087   9.767  11.102   7.172 -0.2186  0.4493  0.3323
  809MOL0     O 9088   9.879  11.122   7.095  1.0038  0.3889  0.4147
  809MOL0     C 9089   9.875  11.080   6.959 -0.7103  0.5028  0.6974
  809MOL0     C 9090   9.862  10.928   6.946 -0.2815  0.7326 -0.5162
  809MOL0     C 9091   9.949  10.850   7.035 -0.5919  0.6749 -0.2638
  809MOL0     C 9092   9.919  10.696   7.021  0.5515 -0.0717 -0.1143
  809MOL0     C 9093   9.781  10.646   7.069 -0.9339 -0.5565  0.2003
  809MOL0     C 9094   9.774  10.651   7.224  0.6252 -0.1416 -1.0912
  809MOL0     C 9095   9.649  10.577   7.280  0.6550  0.3777 -0.0500
  809MOL0     C 9096   9.512  10.649   7.253 -0.3988  0.1979 -0.5541
  809MOL0     N 9097   9.411  10.549   7.288 -0.4068  0.3420  0.4628
  809MOL0     C 9098   9.288  10.581   7.341 -0.9473 -0.4553  0.8396
  809MOL0     C 9099   9.219  10.465   7.342 -0.3044  0.1956  0.5458
  809MOL0     C 9100   9.083  10.437   7.400  0.1586  1.4103 -0.1386
  809MOL0     C 9101   9.000  10.327   7.329 -0.3750 -0.3319 -0.1326
  809MOL0     C 9102   8.952  10.368   7.192  0.2951 -0.2247 -0.5373
  809MOL0     C 9103   8.865  10.491   7.180 -0.1554  0.0721 -0.3967
  809MOL0     O 9104   8.832  10.503   7.045 -0.2185 -0.9607 -0.6130
  809MOL0     C 9105   8.707  10.512   7.009 -0.3068 -0.0897  0.8218
  809MOL0     C 9106   8.661  10.403   6.928 -0.0910  0.1837 -0.2327
  809MOL0     C 9107   8.525  10.405   6.882  0.0497  0.4421  0.1035
  809MOL0     C 9108   8.442  10.520   6.919 -0.0762  1.3686  0.2392
  809MOL0     C 9109   8.300  10.514   6.880 -0.1600  0.1008  0.1247
  809MOL0     O 9110   8.258  10.620   6.806 -0.0161  0.1537  0.7446
  809MOL0     C 9111   8.139  10.613   6.743  0.5150  0.2286  0.0001
  809MOL0     C 9112   8.031  10.692   6.791  0.2062  0.3970  0.6696
  809MOL0     C 9113   7.911  10.698   6.722 -0.0564  0.6671  0.3971
  809MOL0     C 9114   7.888  10.608   6.611 -0.2992 -0.5707 -0.7046
  809MOL0     O 9115   7.771  10.606   6.543 -0.0361  0.7559  0.6975
  809MOL0     C 9116   7.647  10.625   6.626 -0.9761  0.7615 -0.6604
  809MOL0     C 9117   7.528  10.571   6.558  0.8951  0.4011  0.0052
  809MOL0     C 9118   7.422  10.539   6.654  0.9828  0.0358  0.3619
  809MOL0     C 9119   7.347  10.670   6.681  0.1157  0.4138 -0.2280
  809MOL0     C 9120   7.234  10.635   6.783 -0.9624 -0.2149  0.4164
  809MOL0     C 9121   7.153  10.755   6.832  0.0564 -0.0261 -0.5897
  809MOL0     C 9122   7.042  10.817   6.746  0.4426 -0.0949 -0.0058
  809MOL0     C 9123   6.921  10.867   6.834  0.4647 -0.0405 -0.6074
  809MOL0    Cl 9124   6.806  10.923   6.714  0.4541  0.0536 -0.3750
  809MOL0     C 9125   7.989  10.519   6.574  0.0939  0.1460 -0.2847
  809MOL0     C 9126   8.113  10.533   6.640 -0.6576  0.3652  0.6484
  809MOL0     O 9127   8.233  10.422   6.921 -0.0755  0.5723  0.0691
  809MOL0     C 9128   8.493  10.618   7.002 -0.5124 -0.0967  0.3675
  809MOL0     C 9129   8.625  10.620   7.045 -0.3716  0.0258  0.2131
  809MOL0     N 9130   9.298  10.365   7.295 -0.2775  0.4752 -0.0981
  809MOL0     N 9131   9.414  10.417   7.263 -0.2737  0.6006  0.2629
  809MOL0     C 9132   9.642  11.080   7.110 -0.4199  0.3954 -0.6154
  809MOL0     C 9133   9.539  11.033   7.202  0.5611 -0.4668 -0.1535
  809MOL0     C 9134   9.238  10.977   7.526 -1.2236 -0.6771 -0.3627
  809MOL0     C 9135   9.116  11.041   7.536 -0.2024  0.2145  0.2553
  809MOL0     C 9136   9.005  10.985   7.604  0.5106  0.4950  0.3637
  809MOL0     C 9137   9.012  10.854   7.656  0.2641  0.0574  0.4161
  809MOL0     O 9138   8.906  10.796   7.713 -0.0884 -0.5855 -0.3154
  809MOL0     C 9139   8.877  10.666   7.661 -0.0416 -0.3142 -0.4610
  809MOL0     C 9140   8.747  10.641   7.744  0.4490  0.6788  0.4254
  809MOL0     C 9141   8.769  10.590   7.893 -0.1484  0.2044 -0.7400
  809MOL0     C 9142   8.847  10.699   7.983 -0.4802  0.0400  0.0728
  809MOL0     C 9143   8.876  10.649   8.118 -0.5488  0.6085  0.9077
  809MOL0     C 9144   8.910  10.632   8.232 -0.4112 -0.0651 -0.4783
  809MOL0     C 9145   9.136  10.794   7.648 -0.5961  0.1544 -0.0206
  809MOL0     C 9146   9.253  10.852   7.585  0.4128 -0.4478  0.2877
  809MOL0     C 9147   9.389  10.776   7.601 -0.0305  0.6509 -0.2011
  809MOL0     H 9148   9.715  11.031   7.495  0.3923 -0.6971 -0.0837
  809MOL0     H 9149   9.887  11.087   7.344 -0.1685  0.6882 -0.0579
  809MOL0     H 9150   9.810  11.138   6.893  1.2759  1.6955 -0.3071
  809MOL0     H 9151   9.973  11.101   6.915 -1.4473 -1.2679 -2.0581
  809MOL0     H 9152   9.879  10.899   6.842 -0.2224  3.3686 -1.3160
  809MOL0     H 9153   9.759  10.898   6.967  1.4245 -4.2430  2.6663
  809MOL0     H 9154   9.960  10.879   7.140  0.7158 -0.1525 -0.1474
  809MOL0     H 9155  10.053  10.863   7.005 -0.2475  1.0235  1.0541
  809MOL0     H 9156   9.934  10.680   6.914  2.5456  2.1487 -0.2530
  809MOL0     H 9157   9.993  10.630   7.067 -0.3098 -0.9606  0.0321
  809MOL0     H 9158   9.694  10.696   7.025  0.1591  0.6685 -0.6376
  809MOL0     H 9159   9.786  10.544   7.030  1.8436  0.2729 -1.9387
  809MOL0     H 9160   9.866  10.606   7.262  0.6503  1.3440  0.7695
  809MOL0     H 9161   9.771  10.754   7.262  2.2540 -0.1099 -0.9741
  809MOL0     H 9162   9.665  10.570   7.388 -1.1603  2.1861  0.3993
  809MOL0     H 9163   9.647  10.478   7.234  0.5717 -0.6649  2.0788
  809MOL0     H 9164   9.488  10.739   7.311 -2.6795 -0.4981 -0.3173
  809MOL0     H 9165   9.500  10.673   7.147  1.0731 -0.7265 -0.9435
  809MOL0     H 9166   9.251  10.680   7.366  0.0474 -0.6694  3.5240
  809MOL0     H 9167   9.088  10.424   7.508  1.5001  3.6714  0.1407
  809MOL0     H 9168   9.035  10.535   7.395 -0.4730  1.0779 -0.9570
  809MOL0     H 9169   9.053  10.233   7.313  1.1858  0.1175  2.0098
  809MOL0     H 9170   8.920  10.293   7.395 -0.2092 -1.4484 -0.4854
  809MOL0     H 9171   8.904  10.278   7.152 -1.2541 -0.9253  2.5882
  809MOL0     H 9172   9.037  10.395   7.128 -1.1781  3.3014 -1.2113
  809MOL0     H 9173   8.931  10.571   7.214  1.9579 -1.4425 -0.7319
  809MOL0     H 9174   8.778  10.478   7.245 -1.0540  1.9407 -1.1486
  809MOL0     H 9175   8.727  10.318   6.917  2.8762  1.6128  4.0873
  809MOL0     H 9176   8.478  10.320   6.834  0.6041  1.1430 -1.7661
  809MOL0     H 9177   8.032  10.749   6.883  2.0975  0.5113  0.6206
  809MOL0     H 9178   7.832  10.768   6.749 -0.0142  0.4424  1.1123
  809MOL0     H 9179   7.659  10.553   6.707 -0.1538  1.2732 -0.3148
  809MOL0     H 9180   7.639  10.724   6.671  2.7795  0.2535  1.5172
  809MOL0     H 9181   7.502  10.643   6.480  0.7137 -0.6993 -0.9733
  809MOL0     H 9182   7.558  10.481   6.504 -2.1413 -1.0386  0.5421
  809MOL0     H 9183   7.348  10.468   6.615 -0.9602  1.6107  0.9767
  809MOL0     H 9184   7.457  10.493   6.747 -0.9272 -1.1114  0.5702
  809MOL0     H 9185   7.299  10.704   6.589 -0.0965  1.0655  0.1077
  809MOL0     H 9186   7.410  10.758   6.701 -0.4158  0.9582 -0.8887
  809MOL0     H 9187   7.281  10.601   6.876  0.6850  2.0154  0.4933
  809MOL0     H 9188   7.169  10.558   6.740 -1.2920  0.0748  0.3939
  809MOL0     H 9189   7.109  10.726   6.927 -0.5322  1.0981 -0.4911
  809MOL0     H 9190   7.226  10.832   6.860  0.2216  0.1972 -1.5697
  809MOL0     H 9191   7.006  10.738   6.680 -0.1279  1.2887 -1.4250
  809MOL0     H 9192   7.089  10.900   6.692  2.2047 -1.4875 -0.7057
  809MOL0     H 9193   6.883  10.786   6.897  0.7708  0.8217  0.7299
  809MOL0     H 9194   6.947  10.946   6.905  1.7958 -1.0832  0.1274
  809MOL0     H 9195   7.970  10.457   6.487 -0.9610 -1.3230  0.9345
  809MOL0     H 9196   8.204  10.489   6.602  1.4829  2.3315  3.0905
  809MOL0     H 9197   8.423  10.695   7.035 -2.2361  1.0326 -4.9463
  809MOL0     H 9198   8.664  10.706   7.100  1.3395  0.3557 -1.4154
  809MOL0     H 9199   9.611  11.086   7.006  1.1942  0.2276 -1.1332
  809MOL0     H 9200   9.442  11.002   7.164  1.3587 -3.0093 -0.3014
  809MOL0     H 9201   9.113  11.142   7.496  2.6505  0.2330 -0.1498
  809MOL0     H 9202   8.904  11.023   7.595 -0.0870 -1.1343 -0.1633
  809MOL0     H 9203   8.958  10.594   7.676  0.1330  0.3483  2.4338
  809MOL0     H 9204   8.848  10.675   7.556 -4.2623 -0.4602  0.5182
  809MOL0     H 9205   8.680  10.574   7.689  0.1845  1.0742  0.2600
  809MOL0     H 9206   8.690  10.734   7.745 -3.2435 -1.3827  1.1246
  809MOL0     H 9207   8.819  10.493   7.899 -1.7081 -0.5610  1.1516
  809MOL0     H 9208   8.672  10.571   7.939 -0.0209  0.0801 -0.5185
  809MOL0     H 9209   8.940  10.735   7.938 -2.0150  2.4735 -1.4125
  809MOL0     H 9210   8.782  10.785   8.005  1.8091  1.1593  3.0936
  809MOL0     H 9211   8.954  10.633   8.330 -1.8102 -1.3675  0.2029
  809MOL0     H 9212   9.150  10.693   7.686 -3.1352  0.0928  0.9359
  809MOL0     H 9213   9.429  10.746   7.503 -1.8937  0.8803 -1.0838
  809MOL0     H 9214   9.462  10.843   7.647 -0.5015  0.9184  0.1616
  809MOL0     H 9215   9.383  10.684   7.660 -1.7197  1.3052  0.7011
  810MOL0     O 9216   1.780  11.282   7.720  0.4354  0.6155 -0.0782
  810MOL0     C 9217   1.672  11.250   7.775 -0.5106 -0.4529  0.4358
  810MOL0     O 9218   1.545  11.279   7.722  0.0743  0.3959  0.4638
  810MOL0     C 9219   1.547  11.342   7.596  0.2707  0.5461 -0.7318
  810MOL0     C 9220   1.579  11.476   7.570 -0.6796  0.2525  0.8056
  810MOL0     C 9221   1.582  11.526   7.433 -0.0438  0.8876 -0.3574
  810MOL0     C 9222   1.554  11.439   7.329  0.4840  0.7431  0.4863
  810MOL0     O 9223   1.540  11.489   7.204  0.3390 -0.1997 -0.2990
  810MOL0     C 9224   1.608  11.408   7.109 -0.9205 -0.4758  0.5682
  810MOL0     C 9225   1.762  11.430   7.131  0.0605 -0.3626 -1.2539
  810MOL0     C 9226   1.810  11.569   7.117 -0.5206  0.3660  1.2151
  810MOL0     C 9227   1.920  11.586   7.215  0.8101  0.8437  0.5038
  810MOL0     C 9228   1.972  11.730   7.202  0.2439  1.5125 -0.5141
  810MOL0     C 9229   2.107  11.757   7.270 -0.3184 -0.5705  0.0390
  810MOL0     C 9230   2.221  11.663   7.217  0.8999 -0.5877  0.3277
  810MOL0     C 9231   2.361  11.694   7.259  0.1674  0.2326  0.4856
  810MOL0     N 9232   2.428  11.771   7.161 -1.3763  0.6251 -0.6610
  810MOL0     C 9233   2.419  11.903   7.146 -0.2760  1.0410 -0.3436
  810MOL0     C 9234   2.474  11.933   7.026 -0.6685 -0.6186  0.2771
  810MOL0     C 9235   2.504  12.074   6.986  1.4823 -0.0724 -0.0492
  810MOL0     C 9236   2.597  12.127   7.093 -0.8514 -0.1384  0.2075
  810MOL0     C 9237   2.585  12.277   7.109 -0.5789 -0.3226  0.0658
  810MOL0     C 9238   2.473  12.326   7.199 -1.4600  0.7303  0.3954
  810MOL0     O 9239   2.504  12.455   7.253 -0.3479 -0.2739  0.5892
  810MOL0     C 9240   2.420  12.503   7.346 -0.5244 -0.2441  0.2812
  810MOL0     C 9241   2.372  12.625   7.319 -0.1627 -0.9827  0.4223
  810MOL0     C 9242   2.304  12.692   7.416 -0.0454 -0.1411  0.2249
  810MOL0     C 9243   2.270  12.626   7.531  0.1745  0.2074  0.0765
  810MOL0     C 9244   2.202  12.701   7.632  0.3361  0.3191  0.0606
  810MOL0     O 9245   2.214  12.647   7.762  0.2170 -0.4433  0.3851
  810MOL0     C 9246   2.136  12.693   7.861  0.8040 -0.0909 -0.2960
  810MOL0     C 9247   1.994  12.712   7.835 -0.8038 -0.4137  0.0936
  810MOL0     C 9248   1.923  12.764   7.934 -0.0241 -0.1493 -0.4847
  810MOL0     C 9249   1.966  12.784   8.066 -0.1074  0.8797  0.2608
  810MOL0     O 9250   1.867  12.818   8.153  0.0358  0.0739  0.1861
  810MOL0     C 9251   1.901  12.935   8.226 -0.0084 -0.6699  0.2032
  810MOL0     C 9252   1.767  12.976   8.283 -0.2659 -0.2975  0.1919
  810MOL0     C 9253   1.687  13.060   8.180  0.7582  0.3621 -0.9717
  810MOL0     C 9254   1.548  13.100   8.256 -0.1493  0.1146  0.4077
  810MOL0     C 9255   1.456  13.208   8.178  0.6253 -1.0901 -0.0687
  810MOL0     C 9256   1.423  13.158   8.028 -0.5962  0.4347  0.1754
  810MOL0     C 9257   1.517  13.231   7.933 -0.3665 -0.2883 -0.6278
  810MOL0     C 9258   1.504  13.168   7.796  0.9869  0.2361 -0.3878
  810MOL0    Cl 9259   1.574  13.000   7.800 -0.2748  0.0811 -0.0161
  810MOL0     C 9260   2.102  12.771   8.084  0.3774 -0.5446 -0.0475
  810MOL0     C 9261   2.187  12.733   7.981 -0.2507  1.2613 -0.4827
  810MOL0     O 9262   2.141  12.807   7.598  0.0864 -0.0339 -0.2331
  810MOL0     C 9263   2.317  12.494   7.558  0.5265  0.2290 -0.2127
  810MOL0     C 9264   2.393  12.438   7.460  0.8966  0.2490 -0.6542
  810MOL0     N 9265   2.518  11.816   6.968  0.7856  0.9262 -0.9688
  810MOL0     N 9266   2.483  11.718   7.049 -0.5732  1.2549 -0.2979
  810MOL0     C 9267   1.517  11.309   7.360  0.4328  0.4619  0.3873
  810MOL0     C 9268   1.508  11.265   7.493 -0.6677  0.0624  0.5365
  810MOL0     C 9269   1.679  11.184   7.911  0.2863  0.2371 -0.0993
  810MOL0     C 9270   1.773  11.222   7.999 -0.3595 -0.4918  1.2534
  810MOL0     C 9271   1.775  11.178   8.130 -0.4723  1.6241 -0.2725
  810MOL0     C 9272   1.675  11.102   8.185  0.8683 -0.4690 -0.1022
  810MOL0     O 9273   1.680  11.076   8.316 -0.2575  0.0254  1.0674
  810MOL0     C 9274   1.646  10.956   8.375 -0.6408  0.3499  0.8496
  810MOL0     C 9275   1.539  11.000   8.482 -0.0202  0.4385  0.2996
  810MOL0     C 9276   1.511  10.891   8.598  0.4334  0.7673  0.3322
  810MOL0     C 9277   1.376  10.892   8.662 -0.0207  0.5835 -0.2657
  810MOL0     C 9278   1.373  10.835   8.790 -0.3526 -0.4747  0.0993
  810MOL0     C 9279   1.355  10.780   8.894  0.7066 -0.6472  0.7771
  810MOL0     C 9280   1.578  11.054   8.100 -0.5553 -0.4676 -0.8464
  810MOL0     C 9281   1.581  11.095   7.963  0.3266  0.1198  0.5287
  810MOL0     C 9282   1.464  11.051   7.883 -0.1426 -0.1563  0.4142
  810MOL0     H 9283   1.604  11.541   7.653  0.9889 -0.4464  0.8868
  810MOL0     H 9284   1.611  11.628   7.410  3.9180  0.1619  0.6349
  810MOL0     H 9285   1.571  11.305   7.115 -4.0141  0.5237  0.3420
  810MOL0     H 9286   1.584  11.440   7.008  0.1939 -0.9296  0.1483
  810MOL0     H 9287   1.821  11.353   7.079 -0.4966 -1.3976 -0.4099
  810MOL0     H 9288   1.776  11.406   7.237  0.0452  3.2965 -0.2932
  810MOL0     H 9289   1.740  11.651   7.138  0.0693  0.7900  1.5625
  810MOL0     H 9290   1.833  11.577   7.011  2.5482  0.2031  1.7920
  810MOL0     H 9291   1.879  11.567   7.315 -0.8649  1.5656 -0.0081
  810MOL0     H 9292   1.993  11.507   7.197 -1.6683 -1.7710  1.2174
  810MOL0     H 9293   1.978  11.742   7.093 -0.3522 -2.4239 -1.1434
  810MOL0     H 9294   1.894  11.788   7.250  1.1267  0.3626  2.5382
  810MOL0     H 9295   2.137  11.861   7.252  3.5033 -1.1792  1.9465
  810MOL0     H 9296   2.097  11.745   7.378 -1.3917 -0.8408 -0.0735
  810MOL0     H 9297   2.209  11.673   7.109  1.9746  2.1518  0.3858
  810MOL0     H 9298   2.198  11.561   7.251 -3.1736 -0.1811 -0.7233
  810MOL0     H 9299   2.356  11.745   7.356  1.2217 -0.2376  0.8044
  810MOL0     H 9300   2.424  11.605   7.261 -0.5056 -0.2545  0.6668
  810MOL0     H 9301   2.371  11.966   7.220  0.6899  0.9549  0.3842
  810MOL0     H 9302   2.533  12.085   6.881 -1.6165 -4.0850 -1.6079
  810MOL0     H 9303   2.411  12.128   7.003  0.8479 -1.1270 -0.0517
  810MOL0     H 9304   2.580  12.084   7.192 -3.1507 -3.3263 -1.3434
  810MOL0     H 9305   2.702  12.109   7.070 -0.3994 -0.5148  2.3485
  810MOL0     H 9306   2.568  12.324   7.011 -1.8569 -2.2328 -0.6943
  810MOL0     H 9307   2.688  12.301   7.136  0.2595 -3.5826  0.2577
  810MOL0     H 9308   2.472  12.254   7.282  0.1527 -0.4735 -0.5706
  810MOL0     H 9309   2.381  12.330   7.140 -0.4171  1.6934 -1.2549
  810MOL0     H 9310   2.405  12.673   7.228 -2.2734 -2.2334 -1.0728
  810MOL0     H 9311   2.266  12.792   7.404 -0.9094 -0.3177  1.3446
  810MOL0     H 9312   1.965  12.707   7.730 -0.1606  0.8748 -0.1740
  810MOL0     H 9313   1.822  12.792   7.904 -1.1686 -3.3991 -0.1460
  810MOL0     H 9314   1.970  12.920   8.309 -1.1910  2.0601  1.8099
  810MOL0     H 9315   1.945  13.016   8.168  3.5970 -2.6586 -0.1420
  810MOL0     H 9316   1.706  12.891   8.314 -1.4797  0.0546 -1.1114
  810MOL0     H 9317   1.779  13.040   8.372  1.3984  0.3572 -0.4639
  810MOL0     H 9318   1.747  13.145   8.146  0.4720  1.6433  1.4897
  810MOL0     H 9319   1.657  12.986   8.105  0.2077  1.2548 -1.6599
  810MOL0     H 9320   1.572  13.143   8.354  0.7455  2.1314 -0.6372
  810MOL0     H 9321   1.482  13.014   8.267  0.7449 -0.6908 -0.3599
  810MOL0     H 9322   1.513  13.301   8.163 -0.4131 -0.4360 -0.0553
  810MOL0     H 9323   1.369  13.243   8.234  0.9171  1.1031 -0.8910
  810MOL0     H 9324   1.419  13.050   8.017 -1.5997  0.6793 -2.4623
  810MOL0     H 9325   1.323  13.191   7.997 -1.0241 -0.8834  0.1244
  810MOL0     H 9326   1.624  13.220   7.953  0.1374  2.7752 -1.3026
  810MOL0     H 9327   1.491  13.337   7.935 -0.2544 -0.2509  1.9924
  810MOL0     H 9328   1.399  13.174   7.767  0.7693 -0.3175  0.2658
  810MOL0     H 9329   1.556  13.221   7.715  0.5719 -0.8670 -1.3998
  810MOL0     H 9330   2.133  12.793   8.185  1.1173 -2.1171  0.1048
  810MOL0     H 9331   2.293  12.726   8.001 -0.2614  3.4995  0.7866
  810MOL0     H 9332   2.313  12.451   7.657 -0.2655  1.8104  0.4684
  810MOL0     H 9333   2.427  12.337   7.480  0.8535  0.2624 -0.5171
  810MOL0     H 9334   1.478  11.242   7.284  0.0833 -0.8893  1.6928
  810MOL0     H 9335   1.489  11.159   7.510  0.0917  0.0298  1.2455
  810MOL0     H 9336   1.852  11.292   7.971 -1.0394  0.1072  0.7885
  810MOL0     H 9337   1.857  11.215   8.191 -1.1685  2.1692  0.3618
  810MOL0     H 9338   1.734  10.914   8.425  1.3139  3.8594  0.7373
  810MOL0     H 9339   1.603  10.876   8.315  0.7863 -0.7106  1.1887
  810MOL0     H 9340   1.452  11.009   8.417 -1.0594 -0.9255  1.4186
  810MOL0     H 9341   1.556  11.095   8.533 -0.4535 -1.0186  3.4429
  810MOL0     H 9342   1.600  10.888   8.661 -0.2034 -0.1158  1.2041
  810MOL0     H 9343   1.519  10.789   8.559 -1.0869 -0.1306  2.2125
  810MOL0     H 9344   1.343  10.995   8.675  0.7193  0.4402  4.3375
  810MOL0     H 9345   1.309  10.845   8.589  2.2326 -1.9207 -0.9152
  810MOL0     H 9346   1.316  10.731   8.981 -2.5736 -1.0067 -0.7625
  810MOL0     H 9347   1.493  10.995   8.130 -0.9943  0.4558 -0.2326
  810MOL0     H 9348   1.426  10.968   7.942  0.5528  1.2640  2.9904
  810MOL0     H 9349   1.388  11.130   7.873 -0.6314 -0.7609 -0.8422
  810MOL0     H 9350   1.486  11.029   7.778 -0.2703  2.8279 -0.3519
  811MOL0     O 9351   1.364   7.550  10.202  0.4345 -0.1220  1.0348
  811MOL0     C 9352   1.383   7.437  10.158  0.7738  0.8509  0.2941
  811MOL0     O 9353   1.432   7.327  10.226  0.0887 -0.4038 -0.1096
  811MOL0     C 9354   1.438   7.345  10.363  0.6125  0.6062 -0.6774
  811MOL0     C 9355   1.557   7.312  10.429 -1.0510 -0.4524  0.1874
  811MOL0     C 9356   1.570   7.333  10.566  0.0860  0.5986 -0.5026
  811MOL0     C 9357   1.458   7.365  10.647 -0.9279  0.0395  0.0366
  811MOL0     O 9358   1.469   7.409  10.777 -0.0048  0.2730 -0.5409
  811MOL0     C 9359   1.552   7.331  10.858  0.0750 -0.1760  0.8778
  811MOL0     C 9360   1.547   7.386  11.004 -0.1179 -0.5458 -1.1417
  811MOL0     C 9361   1.664   7.339  11.095 -0.0884  0.7522  0.9439
  811MOL0     C 9362   1.652   7.397  11.230  0.4651  0.4980 -1.0331
  811MOL0     C 9363   1.790   7.421  11.299  0.0304 -0.1596  1.2213
  811MOL0     C 9364   1.843   7.291  11.352  0.0535 -0.3742  0.3424
  811MOL0     C 9365   1.965   7.329  11.441 -0.8864  1.1600 -0.0808
  811MOL0     C 9366   2.042   7.202  11.468  0.4118  0.1633  0.2116
  811MOL0     N 9367   2.157   7.210  11.557 -0.3264 -0.4826 -0.0608
  811MOL0     C 9368   2.130   7.195  11.690  0.0018 -0.6626 -0.4970
  811MOL0     C 9369   2.260   7.192  11.739 -0.2707  0.0489  0.3718
  811MOL0     C 9370   2.297   7.200  11.885 -0.3645 -0.1478 -0.4167
  811MOL0     C 9371   2.404   7.295  11.925 -0.0146  0.0187 -0.6431
  811MOL0     C 9372   2.359   7.444  11.931 -0.2820 -0.1574 -0.2046
  811MOL0     C 9373   2.473   7.525  12.000  0.0281 -0.3762 -0.3052
  811MOL0     O 9374   2.433   7.599  12.110 -0.1885 -0.4451  0.0762
  811MOL0     C 9375   2.373   7.722  12.100  0.7332 -0.3915 -0.1634
  811MOL0     C 9376   2.320   7.767  12.219  0.5716 -0.5057 -0.6334
  811MOL0     C 9377   2.246   7.890  12.227 -0.3864  0.7454  0.1063
  811MOL0     C 9378   2.209   7.959  12.108  0.1448 -0.8188 -0.0216
  811MOL0     C 9379   2.132   8.085  12.116  0.6640 -0.3979  0.3218
  811MOL0     O 9380   2.058   8.115  12.230 -0.2132 -0.6031 -0.0399
  811MOL0     C 9381   1.947   8.042  12.263  1.1258 -0.4744  0.3781
  811MOL0     C 9382   1.844   8.105  12.344 -0.1841  0.4283  0.1317
  811MOL0     C 9383   1.728   8.039  12.380  0.6443  0.2906  0.2008
  811MOL0     C 9384   1.696   7.916  12.320  0.8335  0.1537  0.8032
  811MOL0     O 9385   1.568   7.866  12.357 -0.2669  0.9237 -0.3084
  811MOL0     C 9386   1.485   7.804  12.247 -0.2512  0.1395  0.4914
  811MOL0     C 9387   1.382   7.919  12.203 -0.1626 -0.1551 -0.3821
  811MOL0     C 9388   1.292   7.857  12.105 -0.1560  0.1064  0.6716
  811MOL0     C 9389   1.170   7.942  12.084  0.2033 -0.2955 -0.4067
  811MOL0     C 9390   1.190   8.080  12.013  0.7024 -0.7102 -0.2583
  811MOL0     C 9391   1.257   8.073  11.878 -0.1000 -0.2060 -0.1571
  811MOL0     C 9392   1.217   8.201  11.794 -0.6775  0.0787 -0.6132
  811MOL0     C 9393   1.310   8.215  11.676 -0.2393  0.8485  0.3540
  811MOL0    Cl 9394   1.445   8.312  11.711 -0.2537  0.2371 -0.4879
  811MOL0     C 9395   1.788   7.855  12.240 -0.4187 -0.1619  0.7194
  811MOL0     C 9396   1.917   7.913  12.215 -1.2660 -0.2141  0.8249
  811MOL0     O 9397   2.166   8.167  12.030 -0.3576 -0.0396  0.0432
  811MOL0     C 9398   2.268   7.907  11.996 -0.0342  0.2542  1.0573
  811MOL0     C 9399   2.350   7.798  11.986  0.7068  0.4350 -0.5464
  811MOL0     N 9400   2.352   7.199  11.637 -0.2350 -0.4340  0.2326
  811MOL0     N 9401   2.283   7.203  11.524  0.6781 -0.0514 -0.2999
  811MOL0     C 9402   1.333   7.381  10.592 -1.3800 -0.4030 -0.0446
  811MOL0     C 9403   1.326   7.366  10.453 -0.5171  0.2740  0.7191
  811MOL0     C 9404   1.361   7.416  10.013 -0.0805  0.9250 -0.0750
  811MOL0     C 9405   1.433   7.306   9.955 -0.4799 -0.5615  0.1320
  811MOL0     C 9406   1.400   7.271   9.823  0.5449 -0.4445  0.1758
  811MOL0     C 9407   1.307   7.342   9.753 -1.0570  0.2554 -0.4554
  811MOL0     O 9408   1.295   7.302   9.623  0.2560 -0.4130 -0.0603
  811MOL0     C 9409   1.196   7.363   9.531  0.1208  0.6244 -0.2552
  811MOL0     C 9410   1.197   7.281   9.404 -0.0903  0.7514  0.3910
  811MOL0     C 9411   1.135   7.141   9.421 -0.1650  0.2999  0.2551
  811MOL0     C 9412   0.989   7.143   9.398 -0.0689 -0.4928  0.4350
  811MOL0     C 9413   0.942   7.009   9.373  0.8876  0.0282 -0.1313
  811MOL0     C 9414   0.889   6.897   9.380  0.2839 -0.1254  0.1991
  811MOL0     C 9415   1.243   7.449   9.805  0.3749  0.2926  1.4073
  811MOL0     C 9416   1.259   7.485   9.935 -0.2472 -0.7317 -0.1651
  811MOL0     C 9417   1.186   7.603   9.992 -0.3261 -0.5487  0.3493
  811MOL0     H 9418   1.631   7.263  10.367 -1.6366 -1.5484  0.3420
  811MOL0     H 9419   1.671   7.327  10.606 -0.8040  0.2326  1.8767
  811MOL0     H 9420   1.523   7.226  10.862  2.1040 -0.8496 -0.3401
  811MOL0     H 9421   1.656   7.344  10.827  0.0838  1.3631  1.4537
  811MOL0     H 9422   1.449   7.352  11.040 -0.3215  0.9550 -0.2062
  811MOL0     H 9423   1.552   7.495  11.007  2.0083 -0.6173 -0.7188
  811MOL0     H 9424   1.758   7.372  11.050 -0.4018  0.3760 -0.0050
  811MOL0     H 9425   1.673   7.230  11.097 -0.3646  0.6925 -0.3939
  811MOL0     H 9426   1.604   7.492  11.207 -1.6171 -0.7951 -2.4082
  811MOL0     H 9427   1.591   7.338  11.299  0.6664 -0.5097 -1.6909
  811MOL0     H 9428   1.867   7.464  11.235  0.3505  1.3166  2.5277
  811MOL0     H 9429   1.771   7.491  11.381  0.2601 -0.0360  1.1667
  811MOL0     H 9430   1.764   7.247  11.413 -2.2648  2.9177  0.0432
  811MOL0     H 9431   1.873   7.217  11.278  1.9304 -1.4274  2.0699
  811MOL0     H 9432   1.930   7.379  11.532  2.1005  2.1649  0.6469
  811MOL0     H 9433   2.038   7.402  11.404  0.1500 -0.2683 -0.9282
  811MOL0     H 9434   1.971   7.144  11.527  1.1534  1.0399  2.0096
  811MOL0     H 9435   2.061   7.144  11.377 -1.3846 -1.1079  0.6105
  811MOL0     H 9436   2.036   7.203  11.742 -0.1061 -2.0863 -0.4400
  811MOL0     H 9437   2.203   7.211  11.940  0.7163  1.3494  1.2362
  811MOL0     H 9438   2.340   7.108  11.925 -0.1498 -1.2071 -2.9195
  811MOL0     H 9439   2.416   7.268  12.030 -1.0071 -1.8090 -0.9553
  811MOL0     H 9440   2.502   7.267  11.885 -0.1459  1.0322 -1.7478
  811MOL0     H 9441   2.272   7.447  11.998 -0.1626 -0.0789 -0.0508
  811MOL0     H 9442   2.327   7.486  11.835  3.0641  3.6262  0.0746
  811MOL0     H 9443   2.527   7.577  11.920  1.6149 -2.3115 -0.5740
  811MOL0     H 9444   2.553   7.469  12.049 -0.6449 -0.3598  0.8449
  811MOL0     H 9445   2.337   7.701  12.304  0.6400  0.8425  0.4338
  811MOL0     H 9446   2.204   7.919  12.323 -4.5214  0.4533 -1.4362
  811MOL0     H 9447   1.852   8.204  12.388 -0.2332  0.5102 -0.0413
  811MOL0     H 9448   1.661   8.094  12.446  2.0856  1.9474  0.3639
  811MOL0     H 9449   1.537   7.766  12.158 -0.9057  1.5762 -0.5525
  811MOL0     H 9450   1.433   7.713  12.278 -0.2827  0.3152  0.9636
  811MOL0     H 9451   1.329   7.953  12.292  1.5561  1.2022  0.1659
  811MOL0     H 9452   1.429   8.007  12.160 -1.9186  0.9248 -0.2003
  811MOL0     H 9453   1.347   7.840  12.011 -1.9381  3.1427 -1.0897
  811MOL0     H 9454   1.262   7.760  12.146 -1.4852  0.1384 -0.1692
  811MOL0     H 9455   1.129   7.964  12.183  3.0534 -1.4724  1.1929
  811MOL0     H 9456   1.100   7.881  12.026 -2.1167  0.1925  1.6987
  811MOL0     H 9457   1.251   8.151  12.069  1.5447 -0.7199 -1.1218
  811MOL0     H 9458   1.093   8.129  12.008 -1.3766 -4.4434 -0.3665
  811MOL0     H 9459   1.366   8.073  11.885  0.1813  1.8128 -2.6796
  811MOL0     H 9460   1.232   7.978  11.831  0.8210 -0.5433  0.0203
  811MOL0     H 9461   1.226   8.281  11.868  1.9018 -0.0465 -0.7127
  811MOL0     H 9462   1.112   8.188  11.767 -0.2160 -2.6532 -1.4286
  811MOL0     H 9463   1.341   8.114  11.648 -4.1422 -1.1772  2.6192
  811MOL0     H 9464   1.248   8.249  11.592  0.2683 -0.2326 -0.4893
  811MOL0     H 9465   1.760   7.757  12.203 -1.2052 -0.3710  1.8217
  811MOL0     H 9466   1.977   7.846  12.155 -0.7623  0.5516  0.4624
  811MOL0     H 9467   2.238   7.960  11.907 -1.9474  0.0620  1.5449
  811MOL0     H 9468   2.404   7.771  11.895  2.2994  1.7191 -0.0415
  811MOL0     H 9469   1.250   7.392  10.661 -2.7295 -2.1438 -1.2813
  811MOL0     H 9470   1.228   7.371  10.408 -0.4703 -3.1858 -0.0182
  811MOL0     H 9471   1.521   7.259   9.998 -0.7433  0.3136  1.7071
  811MOL0     H 9472   1.464   7.198   9.775 -1.5818 -2.4030  0.1387
  811MOL0     H 9473   1.229   7.467   9.523  2.1965 -0.0666 -1.3748
  811MOL0     H 9474   1.092   7.363   9.564  0.6832  1.5603  1.6522
  811MOL0     H 9475   1.298   7.268   9.363  1.3168 -2.1124  4.1917
  811MOL0     H 9476   1.131   7.335   9.335 -1.1428  1.7767  2.1375
  811MOL0     H 9477   1.164   7.109   9.522  0.8722 -2.6057 -0.8522
  811MOL0     H 9478   1.187   7.071   9.355  2.3811 -0.2122  2.5776
  811MOL0     H 9479   0.924   7.176   9.480 -0.2765  0.0731  0.0481
  811MOL0     H 9480   0.955   7.202   9.313  2.4196  1.3333  0.6109
  811MOL0     H 9481   0.855   6.796   9.381 -2.7364  0.7085  3.4807
  811MOL0     H 9482   1.151   7.469   9.751 -0.3370 -0.3922  2.3563
  811MOL0     H 9483   1.129   7.560  10.075  0.4920 -5.8573 -1.4889
  811MOL0     H 9484   1.253   7.681  10.029  0.9316 -0.6403 -1.5834
  811MOL0     H 9485   1.117   7.646   9.918 -0.0591 -2.7009 -1.2340
  812MOL0     O 9486   8.444   4.339   4.732  0.6310  0.0059  0.1162
  812MOL0     C 9487   8.359   4.254   4.755  0.5586 -0.5743  0.5211
  812MOL0     O 9488   8.255   4.280   4.848 -0.3159 -0.4489 -0.2037
  812MOL0     C 9489   8.265   4.377   4.951  0.2183 -0.6121 -0.0661
  812MOL0     C 9490   8.382   4.412   5.024 -0.5218 -1.0000  0.4101
  812MOL0     C 9491   8.379   4.511   5.118  0.6325 -0.0553 -0.1020
  812MOL0     C 9492   8.252   4.564   5.160 -1.0576  1.0238 -0.5330
  812MOL0     O 9493   8.245   4.650   5.264 -0.5934 -0.1186 -0.3867
  812MOL0     C 9494   8.124   4.694   5.331  0.9567 -0.1990 -0.1637
  812MOL0     C 9495   8.156   4.761   5.464  0.0788 -0.7668  0.4456
  812MOL0     C 9496   8.020   4.792   5.541 -0.2781 -0.4072  0.0118
  812MOL0     C 9497   7.991   4.708   5.659 -0.7695  1.2477 -0.5470
  812MOL0     C 9498   7.894   4.784   5.752  0.5447  0.4499  0.5605
  812MOL0     C 9499   7.753   4.794   5.701  0.0880 -0.5958 -0.8021
  812MOL0     C 9500   7.675   4.852   5.813 -0.0913 -0.3902 -0.6356
  812MOL0     C 9501   7.541   4.853   5.771  0.0830 -0.4642 -0.6367
  812MOL0     N 9502   7.449   4.860   5.891  0.1126  0.6051 -0.0989
  812MOL0     C 9503   7.427   4.759   5.981  0.2787 -0.0203  0.6445
  812MOL0     C 9504   7.334   4.807   6.068  0.7270  0.1786 -0.0454
  812MOL0     C 9505   7.268   4.705   6.167  0.2417 -0.4896 -0.0422
  812MOL0     C 9506   7.236   4.767   6.305  0.2856  0.3992  0.2980
  812MOL0     C 9507   7.137   4.679   6.381  0.2746  0.5531 -0.1933
  812MOL0     C 9508   7.186   4.670   6.520  0.5235 -0.0801  0.5925
  812MOL0     O 9509   7.101   4.576   6.584  0.1422 -1.1031  0.8514
  812MOL0     C 9510   6.972   4.617   6.631 -0.7368  0.0189  0.0226
  812MOL0     C 9511   6.889   4.518   6.691  0.5168 -0.6414 -0.3399
  812MOL0     C 9512   6.753   4.549   6.741  0.0400  0.4061 -0.1138
  812MOL0     C 9513   6.711   4.679   6.739 -0.3425 -0.0502  0.0782
  812MOL0     C 9514   6.581   4.710   6.812 -0.5362 -0.5115  0.3276
  812MOL0     O 9515   6.544   4.639   6.923 -0.4260  0.2243 -0.3364
  812MOL0     C 9516   6.421   4.668   6.976  0.4987  0.4452  0.4145
  812MOL0     C 9517   6.305   4.674   6.895 -0.4230 -0.1140  1.0318
  812MOL0     C 9518   6.173   4.712   6.949 -0.0232  0.0833  0.3233
  812MOL0     C 9519   6.162   4.756   7.085 -0.8910  0.4656  0.2075
  812MOL0     O 9520   6.044   4.778   7.141  0.1055  0.2446 -0.2142
  812MOL0     C 9521   5.931   4.689   7.107 -0.2217 -0.3417 -0.1227
  812MOL0     C 9522   5.790   4.749   7.159  0.3732  0.2886  0.5099
  812MOL0     C 9523   5.677   4.663   7.108 -0.0959  1.0657  0.6867
  812MOL0     C 9524   5.549   4.694   7.187 -0.3745 -0.5296 -0.0717
  812MOL0     C 9525   5.434   4.591   7.173 -0.7794 -0.0031  0.0309
  812MOL0     C 9526   5.305   4.651   7.234  0.0510  0.1412 -0.3399
  812MOL0     C 9527   5.192   4.533   7.235  1.3092 -0.3236 -0.7290
  812MOL0     C 9528   5.044   4.576   7.256  0.2543  0.4112 -0.8981
  812MOL0    Cl 9529   4.942   4.443   7.315  0.2532  0.1008 -0.3966
  812MOL0     C 9530   6.279   4.754   7.151 -0.3647 -0.6051  0.2970
  812MOL0     C 9531   6.411   4.716   7.104  0.5413 -0.7465  0.9786
  812MOL0     O 9532   6.513   4.794   6.750  0.1680 -0.3065  0.9326
  812MOL0     C 9533   6.794   4.780   6.679 -0.5434  0.3372  0.9424
  812MOL0     C 9534   6.923   4.748   6.630  0.9814 -0.5466 -0.0009
  812MOL0     N 9535   7.290   4.932   6.032  0.3573  0.1476  0.6771
  812MOL0     N 9536   7.360   4.962   5.926  0.3660 -0.9670 -0.5377
  812MOL0     C 9537   8.139   4.528   5.096 -0.2869  0.5066  0.4452
  812MOL0     C 9538   8.147   4.441   4.987  0.7040 -0.0514 -0.1668
  812MOL0     C 9539   8.353   4.138   4.662 -0.2347  1.2512  0.9238
  812MOL0     C 9540   8.480   4.098   4.592  0.1528 -1.4682 -0.2502
  812MOL0     C 9541   8.486   3.989   4.506 -0.0589  0.6835  0.3608
  812MOL0     C 9542   8.375   3.902   4.489 -1.3322  0.0987 -0.2084
  812MOL0     O 9543   8.378   3.782   4.413 -0.0057  0.3040  0.1243
  812MOL0     C 9544   8.466   3.673   4.460  0.5335  0.0400 -0.8738
  812MOL0     C 9545   8.423   3.619   4.604 -0.7760 -0.3018  0.4880
  812MOL0     C 9546   8.519   3.512   4.662  0.1924  0.3087  0.1612
  812MOL0     C 9547   8.441   3.429   4.760  0.2568 -0.8373 -0.1993
  812MOL0     C 9548   8.333   3.353   4.695  0.7761 -0.4278 -0.0748
  812MOL0     C 9549   8.256   3.274   4.655  0.1526 -0.3963 -0.3873
  812MOL0     C 9550   8.258   3.944   4.556  0.4034  0.5694 -0.2891
  812MOL0     C 9551   8.244   4.053   4.646 -0.9260  0.2754 -0.3400
  812MOL0     C 9552   8.116   4.050   4.724  0.0692  0.0786 -0.3674
  812MOL0     H 9553   8.473   4.358   5.002 -0.2824  0.0021 -1.2041
  812MOL0     H 9554   8.473   4.532   5.170  0.8225 -1.1815  0.0297
  812MOL0     H 9555   8.080   4.768   5.263  2.7022  0.1648 -0.9621
  812MOL0     H 9556   8.056   4.610   5.348  1.5197 -0.7905 -0.7818
  812MOL0     H 9557   8.195   4.855   5.424 -1.0318 -0.9629 -1.2269
  812MOL0     H 9558   8.231   4.709   5.525 -0.3786  0.8550  2.5235
  812MOL0     H 9559   7.932   4.785   5.476 -2.1549 -2.1850  2.5428
  812MOL0     H 9560   8.018   4.897   5.573 -1.7201 -0.2680 -0.4562
  812MOL0     H 9561   7.951   4.610   5.629  0.3669  0.9373 -1.1159
  812MOL0     H 9562   8.088   4.694   5.708 -1.2803  0.7836  0.3525
  812MOL0     H 9563   7.889   4.738   5.851 -2.8530 -0.8422 -0.0896
  812MOL0     H 9564   7.933   4.886   5.762 -1.4715  1.0339  4.3812
  812MOL0     H 9565   7.748   4.851   5.608 -2.9195 -1.7365 -1.4275
  812MOL0     H 9566   7.712   4.695   5.684  2.8854 -2.4313  1.9948
  812MOL0     H 9567   7.707   4.954   5.838 -1.0027 -0.1849 -0.2747
  812MOL0     H 9568   7.688   4.785   5.898 -0.2442 -0.1465 -0.4183
  812MOL0     H 9569   7.528   4.943   5.710 -1.9539  0.7737  1.4249
  812MOL0     H 9570   7.508   4.768   5.711 -2.0559 -1.3106  1.5657
  812MOL0     H 9571   7.478   4.664   5.995 -1.6998 -0.9411  2.2318
  812MOL0     H 9572   7.184   4.647   6.128 -0.0818 -0.8890  1.1971
  812MOL0     H 9573   7.353   4.636   6.167 -0.0397 -0.9008  2.2690
  812MOL0     H 9574   7.328   4.799   6.355  1.2399 -1.4384 -0.1852
  812MOL0     H 9575   7.189   4.865   6.293 -0.3149  0.5348  3.1922
  812MOL0     H 9576   7.120   4.578   6.343 -1.0250  0.5489  0.3604
  812MOL0     H 9577   7.045   4.735   6.366  0.3501  1.0437  1.0967
  812MOL0     H 9578   7.176   4.769   6.565 -1.2146  0.6323 -1.1930
  812MOL0     H 9579   7.290   4.635   6.517  0.5637 -0.0501 -3.0613
  812MOL0     H 9580   6.925   4.416   6.687  3.7767  0.4509 -1.9592
  812MOL0     H 9581   6.681   4.478   6.780 -0.9617  1.6617  0.3745
  812MOL0     H 9582   6.320   4.640   6.793 -1.5584 -3.9277  1.9829
  812MOL0     H 9583   6.093   4.703   6.876  2.4695 -2.2374 -2.3747
  812MOL0     H 9584   5.926   4.677   6.998 -1.1597 -1.1593 -0.0119
  812MOL0     H 9585   5.953   4.589   7.144  0.1697 -0.2664 -0.1493
  812MOL0     H 9586   5.805   4.747   7.267  4.5957  0.4059  0.1005
  812MOL0     H 9587   5.795   4.847   7.111  1.4961  0.2099  0.4397
  812MOL0     H 9588   5.661   4.695   7.005  0.5994 -1.9214 -0.4654
  812MOL0     H 9589   5.688   4.554   7.118 -2.6361  0.9076  3.1331
  812MOL0     H 9590   5.514   4.797   7.173 -0.7131 -0.7444 -0.8141
  812MOL0     H 9591   5.572   4.692   7.294  2.9663 -1.4582 -0.7135
  812MOL0     H 9592   5.468   4.506   7.232 -1.0228  0.9383  1.6050
  812MOL0     H 9593   5.416   4.564   7.068 -2.3141 -0.6572  0.4394
  812MOL0     H 9594   5.329   4.673   7.339  0.1039 -1.1676 -0.0644
  812MOL0     H 9595   5.273   4.736   7.173 -0.7914 -0.0487 -0.1658
  812MOL0     H 9596   5.226   4.468   7.316 -0.5223 -0.0570  0.2842
  812MOL0     H 9597   5.198   4.478   7.140  0.8782 -2.1857  0.2761
  812MOL0     H 9598   5.042   4.646   7.341  1.4594  0.5054 -0.9209
  812MOL0     H 9599   5.016   4.623   7.162 -0.6656 -1.3656 -1.5544
  812MOL0     H 9600   6.266   4.792   7.252 -0.7733  0.2677 -0.0788
  812MOL0     H 9601   6.495   4.730   7.170  2.9360 -0.3333 -1.9321
  812MOL0     H 9602   6.761   4.882   6.661 -0.2273 -0.0733 -2.5863
  812MOL0     H 9603   6.979   4.824   6.576  3.1966  0.2668  3.1077
  812MOL0     H 9604   8.048   4.575   5.133 -0.7635 -1.2815  1.6965
  812MOL0     H 9605   8.057   4.408   4.936  0.2568  2.5907 -1.2253
  812MOL0     H 9606   8.566   4.164   4.601 -0.7662 -0.0621 -1.4507
  812MOL0     H 9607   8.580   3.969   4.455  0.9998 -1.2581  2.8729
  812MOL0     H 9608   8.567   3.712   4.467  0.2016  0.6465  1.0134
  812MOL0     H 9609   8.464   3.588   4.391 -0.3834 -1.5325  1.0083
  812MOL0     H 9610   8.322   3.582   4.581 -0.2093 -1.3635 -0.3665
  812MOL0     H 9611   8.402   3.705   4.668  0.3389  0.4814 -0.1743
  812MOL0     H 9612   8.605   3.565   4.705  0.9669  0.8055 -1.8524
  812MOL0     H 9613   8.554   3.444   4.584  0.9330  3.8663 -2.9004
  812MOL0     H 9614   8.497   3.356   4.819 -1.9579 -0.7710  2.1598
  812MOL0     H 9615   8.408   3.505   4.831 -0.1761 -1.7590  0.6173
  812MOL0     H 9616   8.178   3.203   4.636 -0.4062 -0.6545  2.4079
  812MOL0     H 9617   8.182   3.869   4.538  0.8561  0.0379 -0.0342
  812MOL0     H 9618   8.037   4.010   4.660 -1.5679 -1.4413  2.3931
  812MOL0     H 9619   8.119   3.999   4.821  2.2824  2.2280  0.8098
  812MOL0     H 9620   8.086   4.154   4.732 -2.4699 -0.3973 -2.3919
  813MOL0     O 9621   3.824   7.680   7.983  0.5312 -0.7532 -0.1846
  813MOL0     C 9622   3.735   7.680   7.903  0.7419 -0.1844  0.9387
  813MOL0     O 9623   3.619   7.758   7.904 -0.1719  0.2843 -0.0365
  813MOL0     C 9624   3.594   7.833   8.013  0.4014  0.0026  0.2789
  813MOL0     C 9625   3.463   7.837   8.078  0.0735  0.5163  0.2970
  813MOL0     C 9626   3.437   7.915   8.192  0.0141 -1.0283  0.0981
  813MOL0     C 9627   3.541   7.993   8.244  0.2962  0.2447 -0.6242
  813MOL0     O 9628   3.503   8.058   8.353 -0.4123  0.0017 -0.0285
  813MOL0     C 9629   3.595   8.145   8.425 -0.4722 -0.2899 -0.4386
  813MOL0     C 9630   3.537   8.172   8.566  0.1752 -0.3461  0.3880
  813MOL0     C 9631   3.624   8.120   8.696 -0.1935  0.2966  0.6037
  813MOL0     C 9632   3.778   8.168   8.696 -0.9291 -0.5473  0.0533
  813MOL0     C 9633   3.855   8.111   8.818  0.2995  0.2073  0.3684
  813MOL0     C 9634   3.820   8.171   8.961  0.7082  0.6683 -0.7138
  813MOL0     C 9635   3.918   8.130   9.066  0.4817 -0.8895  0.1543
  813MOL0     C 9636   3.908   7.985   9.110 -0.2023  0.8980  0.5093
  813MOL0     N 9637   4.028   7.928   9.176 -0.5813  0.5654  0.1183
  813MOL0     C 9638   4.066   7.965   9.307  0.3982  0.1190  0.2078
  813MOL0     C 9639   4.177   7.903   9.326 -0.1542 -0.7921  0.4179
  813MOL0     C 9640   4.253   7.910   9.459 -0.5070  1.2209 -1.3053
  813MOL0     C 9641   4.376   7.993   9.427  0.2286  0.1292  0.1740
  813MOL0     C 9642   4.459   8.055   9.551 -0.1969 -0.0737 -0.0650
  813MOL0     C 9643   4.511   7.944   9.643 -0.1316 -0.4294  0.0225
  813MOL0     O 9644   4.558   7.999   9.767  0.3280 -0.7481  1.1558
  813MOL0     C 9645   4.694   8.028   9.787  0.0673  0.8076 -0.5450
  813MOL0     C 9646   4.724   8.086   9.913 -0.9974 -0.2448 -0.0754
  813MOL0     C 9647   4.850   8.142   9.934 -0.4863  0.3891  0.2923
  813MOL0     C 9648   4.949   8.144   9.836 -0.3551 -0.8664  0.2984
  813MOL0     C 9649   5.093   8.197   9.865  0.5269  0.0822 -0.9251
  813MOL0     O 9650   5.113   8.280   9.973 -0.1427  0.1829  0.4584
  813MOL0     C 9651   5.236   8.342   9.988  0.8040 -0.6675 -0.9540
  813MOL0     C 9652   5.222   8.463  10.052  1.0573 -0.2406 -0.0207
  813MOL0     C 9653   5.334   8.541  10.077 -0.1182 -0.4119  0.4525
  813MOL0     C 9654   5.465   8.491  10.054  0.1190 -0.1622 -0.6048
  813MOL0     O 9655   5.579   8.561  10.062 -0.8501  0.0007 -0.3790
  813MOL0     C 9656   5.577   8.668  10.167 -0.2383  0.4969 -0.0534
  813MOL0     C 9657   5.715   8.736  10.172  0.4027 -0.8209  0.1068
  813MOL0     C 9658   5.836   8.644  10.207  0.5543 -0.1404 -0.1732
  813MOL0     C 9659   5.949   8.738  10.268  0.1625 -0.2313  0.2244
  813MOL0     C 9660   6.044   8.642  10.345  0.0747  0.6557  0.4948
  813MOL0     C 9661   6.177   8.717  10.357 -1.0921 -0.0518 -0.5138
  813MOL0     C 9662   6.284   8.618  10.411  0.8987 -0.5041 -0.7681
  813MOL0     C 9663   6.257   8.569  10.547 -0.3975 -0.1329 -0.6346
  813MOL0    Cl 9664   6.264   8.706  10.653 -0.1077  0.3371  0.2672
  813MOL0     C 9665   5.471   8.367   9.997 -1.3708 -0.1307 -0.6849
  813MOL0     C 9666   5.362   8.285   9.975  0.7624 -0.1417 -0.6662
  813MOL0     O 9667   5.175   8.174   9.780  0.0042  0.3951 -0.1812
  813MOL0     C 9668   4.921   8.094   9.717 -0.3331  0.9787  0.1146
  813MOL0     C 9669   4.795   8.029   9.688 -0.3738 -0.2037 -0.0704
  813MOL0     N 9670   4.224   7.837   9.208 -0.3293 -0.2526 -0.0960
  813MOL0     N 9671   4.135   7.859   9.120 -0.4418  0.6635 -0.1051
  813MOL0     C 9672   3.674   7.986   8.193 -0.0833 -0.1870 -0.0452
  813MOL0     C 9673   3.695   7.911   8.077 -0.0790 -0.2441  0.8475
  813MOL0     C 9674   3.778   7.610   7.775  0.2284 -0.0089 -0.0387
  813MOL0     C 9675   3.910   7.608   7.730  0.2156  0.2458 -0.5091
  813MOL0     C 9676   3.949   7.537   7.618  0.6476 -0.7465 -0.7732
  813MOL0     C 9677   3.858   7.474   7.530  0.1211 -0.6766  0.5282
  813MOL0     O 9678   3.882   7.396   7.419  0.5693 -0.4938 -0.6139
  813MOL0     C 9679   4.013   7.415   7.356  0.1741  0.9266  0.2147
  813MOL0     C 9680   4.014   7.361   7.220 -0.9133  0.9475 -0.2207
  813MOL0     C 9681   3.898   7.406   7.140 -0.6019  0.1211 -0.4434
  813MOL0     C 9682   3.945   7.405   7.000  0.7879 -0.0332  0.1843
  813MOL0     C 9683   3.830   7.384   6.907 -0.1257 -0.1047  0.1203
  813MOL0     C 9684   3.733   7.356   6.832  0.7150 -0.1654 -0.8889
  813MOL0     C 9685   3.728   7.491   7.562 -0.3548  0.4681 -0.3293
  813MOL0     C 9686   3.686   7.551   7.682  0.5186  0.4216  0.0511
  813MOL0     C 9687   3.531   7.546   7.694  0.2416 -0.1360 -0.7527
  813MOL0     H 9688   3.381   7.786   8.029 -0.1155 -0.3704  1.5086
  813MOL0     H 9689   3.339   7.922   8.237 -0.3208  2.9520 -0.9071
  813MOL0     H 9690   3.697   8.107   8.416  0.8138  2.8122 -0.2840
  813MOL0     H 9691   3.599   8.247   8.386  0.0355  0.9482  2.5927
  813MOL0     H 9692   3.434   8.137   8.574 -0.2622  1.0847  1.4113
  813MOL0     H 9693   3.532   8.279   8.585  2.2540  0.1366 -1.3332
  813MOL0     H 9694   3.617   8.012   8.712 -2.2569  0.3563  0.3576
  813MOL0     H 9695   3.576   8.170   8.781  0.3764 -3.7940  3.6446
  813MOL0     H 9696   3.832   8.136   8.606 -0.3347 -2.5000  1.0442
  813MOL0     H 9697   3.781   8.277   8.703 -3.0090 -0.4055 -0.5093
  813MOL0     H 9698   3.841   8.003   8.831 -0.5626  0.2394 -0.2546
  813MOL0     H 9699   3.961   8.129   8.797 -0.1122  0.9277 -1.2554
  813MOL0     H 9700   3.828   8.280   8.950  0.4341  0.8789  0.9328
  813MOL0     H 9701   3.718   8.142   8.985  1.1679 -0.2829  0.1532
  813MOL0     H 9702   3.915   8.192   9.156 -1.0600 -0.9232  0.1627
  813MOL0     H 9703   4.013   8.150   9.017 -0.6109 -0.3565 -1.8357
  813MOL0     H 9704   3.839   7.987   9.195  1.4924 -1.7445  2.0910
  813MOL0     H 9705   3.870   7.933   9.022 -3.4654  0.8239  1.8458
  813MOL0     H 9706   4.009   8.028   9.375  0.9613 -2.6338  3.5307
  813MOL0     H 9707   4.197   7.947   9.546 -0.7446 -0.2951 -0.7849
  813MOL0     H 9708   4.281   7.807   9.479 -0.8129  1.1143 -1.4133
  813MOL0     H 9709   4.438   7.928   9.365 -1.6707 -1.9532  0.3288
  813MOL0     H 9710   4.340   8.084   9.379  0.4982  0.2837  0.2612
  813MOL0     H 9711   4.393   8.120   9.608 -0.1049  0.4317 -0.5325
  813MOL0     H 9712   4.540   8.115   9.508 -2.3716  2.0728 -1.3675
  813MOL0     H 9713   4.589   7.878   9.602 -0.2306 -0.2800 -0.4089
  813MOL0     H 9714   4.425   7.879   9.664 -1.2669  1.8079  2.8078
  813MOL0     H 9715   4.654   8.087   9.996  0.1272  1.3405  0.9135
  813MOL0     H 9716   4.864   8.176  10.036 -1.2106 -2.2682  1.3555
  813MOL0     H 9717   5.123   8.496  10.081  0.6268 -0.7419 -0.8560
  813MOL0     H 9718   5.308   8.642  10.104 -2.1268  0.0628 -2.7809
  813MOL0     H 9719   5.504   8.743  10.136 -1.2241 -0.5960 -0.4820
  813MOL0     H 9720   5.549   8.623  10.263 -0.8761  1.1948  0.0955
  813MOL0     H 9721   5.740   8.787  10.079 -0.1936 -2.0741 -0.7545
  813MOL0     H 9722   5.694   8.806  10.254  0.4951 -0.7267  0.0509
  813MOL0     H 9723   5.812   8.571  10.286  0.9028  1.2537  1.2745
  813MOL0     H 9724   5.873   8.594  10.117 -1.0863  1.2347 -1.6805
  813MOL0     H 9725   5.918   8.814  10.340 -2.3499 -1.1793  0.2369
  813MOL0     H 9726   5.996   8.786  10.181 -0.8808  3.3450  1.4409
  813MOL0     H 9727   6.060   8.543  10.301  0.4774  0.1558  1.7519
  813MOL0     H 9728   5.995   8.626  10.441  0.9737  3.6102  1.5396
  813MOL0     H 9729   6.195   8.765  10.260  1.0435 -0.9960 -0.6313
  813MOL0     H 9730   6.165   8.792  10.437 -0.9824  0.9242 -1.3909
  813MOL0     H 9731   6.380   8.671  10.402  0.5738  0.3025  0.3458
  813MOL0     H 9732   6.289   8.535  10.340 -0.4211  0.9257 -2.6555
  813MOL0     H 9733   6.160   8.519  10.547 -1.2295  1.3247  1.2540
  813MOL0     H 9734   6.337   8.505  10.585  0.1114  2.0587  2.4084
  813MOL0     H 9735   5.566   8.332   9.957 -1.7761 -0.7743 -1.0916
  813MOL0     H 9736   5.375   8.190   9.925 -0.7248 -0.3602 -0.7026
  813MOL0     H 9737   4.984   8.110   9.630  0.9658 -0.4411  0.7403
  813MOL0     H 9738   4.782   7.993   9.586  4.5566 -2.4107 -0.1988
  813MOL0     H 9739   3.758   8.046   8.228 -0.4592  0.4219 -0.1669
  813MOL0     H 9740   3.796   7.928   8.043 -0.3433  1.6371  0.8844
  813MOL0     H 9741   3.983   7.670   7.782  0.6344  0.6134 -1.5047
  813MOL0     H 9742   4.056   7.528   7.606  0.6002 -3.8338  0.1853
  813MOL0     H 9743   4.086   7.368   7.422 -0.5547 -0.4214  0.0993
  813MOL0     H 9744   4.028   7.522   7.338 -2.7134  1.4609  0.5051
  813MOL0     H 9745   4.010   7.254   7.241 -1.7596  0.7423 -1.3753
  813MOL0     H 9746   4.110   7.386   7.175 -0.2629 -0.1899  0.4737
  813MOL0     H 9747   3.877   7.508   7.174 -0.5860  0.0124 -0.1027
  813MOL0     H 9748   3.803   7.360   7.168 -1.3030  3.5466  4.1088
  813MOL0     H 9749   3.991   7.502   6.981 -0.1243  0.3823  0.0401
  813MOL0     H 9750   4.014   7.327   6.968  0.8763  0.2363 -0.2923
  813MOL0     H 9751   3.660   7.335   6.756 -0.5900  0.7481  0.0582
  813MOL0     H 9752   3.659   7.448   7.490  0.5572  0.1916 -1.0490
  813MOL0     H 9753   3.497   7.547   7.798  1.2676  1.4079 -0.3915
  813MOL0     H 9754   3.468   7.621   7.647 -2.0963 -0.2916  1.8930
  813MOL0     H 9755   3.499   7.454   7.646  1.3239 -1.4060  0.8429
  814MOL0     O 9756   7.892   7.643   5.241  0.3014  0.0048 -1.2832
  814MOL0     C 9757   7.815   7.609   5.147  0.0271  0.4995  0.2686
  814MOL0     O 9758   7.861   7.583   5.018  1.0399 -0.0197 -0.3763
  814MOL0     C 9759   7.987   7.614   4.981 -0.2827 -0.3512  0.8977
  814MOL0     C 9760   8.091   7.522   4.986  0.1671 -0.9904 -0.9206
  814MOL0     C 9761   8.220   7.556   4.938  0.3980  0.1676  0.5285
  814MOL0     C 9762   8.247   7.681   4.882  0.1041 -0.6630 -0.5113
  814MOL0     O 9763   8.374   7.708   4.829  0.4023  0.3564 -0.2506
  814MOL0     C 9764   8.475   7.604   4.810  0.2970  0.0926 -0.0328
  814MOL0     C 9765   8.606   7.656   4.763 -0.1409  0.4092  0.9251
  814MOL0     C 9766   8.689   7.706   4.879  0.1573  0.9612  0.4270
  814MOL0     C 9767   8.826   7.770   4.839  0.4436 -0.2954 -0.9274
  814MOL0     C 9768   8.823   7.922   4.820  0.0720 -1.1356  0.2147
  814MOL0     C 9769   8.956   7.987   4.796 -0.0540  0.3669 -0.4023
  814MOL0     C 9770   9.054   7.950   4.914  0.6125  0.3592  1.5515
  814MOL0     C 9771   9.023   8.004   5.047 -0.6392 -0.5831  0.1839
  814MOL0     N 9772   9.135   7.963   5.133 -0.2675 -0.0044  0.9693
  814MOL0     C 9773   9.246   8.038   5.159 -0.4213  0.5842  0.1724
  814MOL0     C 9774   9.331   7.960   5.219 -1.0983 -0.0844  0.0013
  814MOL0     C 9775   9.468   8.006   5.264  0.5246 -0.3536  0.1213
  814MOL0     C 9776   9.479   8.150   5.313 -0.2255 -0.6602 -0.0853
  814MOL0     C 9777   9.619   8.180   5.368  0.9092 -0.6990  0.7153
  814MOL0     C 9778   9.723   8.235   5.271  0.2602  0.5394  0.0193
  814MOL0     O 9779   9.680   8.363   5.228  0.3561 -0.0897 -0.6109
  814MOL0     C 9780   9.746   8.441   5.138  0.5669  1.1159 -0.4390
  814MOL0     C 9781   9.696   8.570   5.123  0.2770 -0.3876  0.7641
  814MOL0     C 9782   9.762   8.657   5.032 -0.0107 -0.4361  0.3754
  814MOL0     C 9783   9.875   8.610   4.959  0.4368  0.2213 -0.5574
  814MOL0     C 9784   9.945   8.695   4.857  0.1071 -0.7064 -0.0785
  814MOL0     O 9785  10.053   8.643   4.786 -0.2896 -0.5827 -0.4354
  814MOL0     C 9786  10.118   8.705   4.686 -1.5933  0.9319  0.1860
  814MOL0     C 9787  10.160   8.624   4.582 -0.5631 -0.0306 -0.2213
  814MOL0     C 9788  10.237   8.678   4.481 -0.9106 -0.4874  1.3354
  814MOL0     C 9789  10.265   8.811   4.473 -0.1886  0.2090  0.2030
  814MOL0     O 9790  10.352   8.844   4.374  0.0838  0.2855  0.4148
  814MOL0     C 9791  10.405   8.980   4.358  0.6650  0.8625 -0.5901
  814MOL0     C 9792  10.519   8.959   4.257 -0.0982 -1.2136  0.8583
  814MOL0     C 9793  10.573   9.097   4.198  0.3450  0.1540  0.4002
  814MOL0     C 9794  10.689   9.077   4.098 -0.1748 -0.3372  0.3944
  814MOL0     C 9795  10.717   9.208   4.017  0.6205  1.1982  0.1911
  814MOL0     C 9796  10.805   9.179   3.905 -0.3838 -0.3764  1.9894
  814MOL0     C 9797  10.833   9.306   3.818  0.2629 -0.3542  0.1232
  814MOL0     C 9798  10.931   9.251   3.705  0.0176  0.1142 -0.4066
  814MOL0    Cl 9799  10.981   9.395   3.624  0.1053  0.3601  0.0888
  814MOL0     C 9800  10.218   8.899   4.574 -1.0662 -0.3807 -0.0872
  814MOL0     C 9801  10.151   8.839   4.680 -0.4755 -0.8441 -0.2136
  814MOL0     O 9802   9.915   8.812   4.839 -0.1009  0.0052 -0.1989
  814MOL0     C 9803   9.930   8.486   4.982  0.4935  0.4123 -0.0173
  814MOL0     C 9804   9.865   8.400   5.077 -0.3213 -0.0107  0.6215
  814MOL0     N 9805   9.270   7.839   5.232 -0.3102  0.0159  0.6429
  814MOL0     N 9806   9.155   7.839   5.177  0.1520 -0.3831  0.1264
  814MOL0     C 9807   8.138   7.771   4.868 -0.0967  0.1757  0.5175
  814MOL0     C 9808   8.010   7.742   4.919  0.1106  0.0613  0.1041
  814MOL0     C 9809   7.668   7.585   5.182 -0.1865 -0.7176 -0.0559
  814MOL0     C 9810   7.637   7.590   5.317 -0.1800 -0.0150 -0.9944
  814MOL0     C 9811   7.504   7.558   5.355 -0.1369  0.9920  0.8814
  814MOL0     C 9812   7.406   7.523   5.267  0.3710  0.5572  0.8327
  814MOL0     O 9813   7.289   7.489   5.332 -0.2226  0.5108  0.2312
  814MOL0     C 9814   7.188   7.433   5.254 -0.7329 -0.4391  0.0529
  814MOL0     C 9815   7.106   7.538   5.175  0.9175 -0.3600 -0.8150
  814MOL0     C 9816   6.979   7.478   5.116  0.4559 -0.2673  0.1757
  814MOL0     C 9817   6.882   7.590   5.079 -0.4849 -0.1116  0.7714
  814MOL0     C 9818   6.764   7.524   5.022 -0.2035  0.2946  0.4544
  814MOL0     C 9819   6.675   7.449   4.987  1.0327  0.7724 -0.4821
  814MOL0     C 9820   7.440   7.517   5.133 -0.2195 -0.1272  0.5246
  814MOL0     C 9821   7.570   7.550   5.085  0.0062  0.8402 -0.7687
  814MOL0     C 9822   7.593   7.530   4.943 -0.6663 -0.2873  0.9348
  814MOL0     H 9823   8.069   7.420   5.012  3.3658 -1.2403  1.3826
  814MOL0     H 9824   8.294   7.477   4.937  0.8791  0.4725  3.4249
  814MOL0     H 9825   8.488   7.559   4.909 -1.5577  2.4705  1.4348
  814MOL0     H 9826   8.440   7.519   4.751  0.8688 -2.9220  3.6035
  814MOL0     H 9827   8.581   7.727   4.683 -0.5779  1.3405  1.8534
  814MOL0     H 9828   8.661   7.572   4.721  0.3438  1.7998 -1.3902
  814MOL0     H 9829   8.710   7.617   4.938 -1.1134 -1.2183 -2.1674
  814MOL0     H 9830   8.628   7.766   4.947  0.3265  0.9817  0.5608
  814MOL0     H 9831   8.889   7.743   4.925 -0.1264 -0.4327 -0.5500
  814MOL0     H 9832   8.859   7.724   4.745 -0.7140 -0.1040 -1.4485
  814MOL0     H 9833   8.754   7.955   4.742  2.0403  0.7890 -0.8223
  814MOL0     H 9834   8.777   7.960   4.912 -0.7133 -1.1110 -0.1754
  814MOL0     H 9835   8.993   7.940   4.704 -1.2925 -0.6675 -0.3982
  814MOL0     H 9836   8.951   8.096   4.795  3.3273  0.7799  3.5712
  814MOL0     H 9837   9.147   7.996   4.880 -0.1962  0.4926 -0.6502
  814MOL0     H 9838   9.085   7.845   4.912  0.1223  0.1280 -2.2627
  814MOL0     H 9839   9.017   8.113   5.042  1.0764 -0.4989 -1.0249
  814MOL0     H 9840   8.929   7.958   5.079  0.0731 -2.5427 -0.3387
  814MOL0     H 9841   9.252   8.145   5.144 -3.1690  0.5383 -1.9017
  814MOL0     H 9842   9.498   7.935   5.342  0.7112  0.3043  0.6554
  814MOL0     H 9843   9.538   8.011   5.180  1.4328 -0.4089  0.8544
  814MOL0     H 9844   9.451   8.222   5.237 -2.1888 -1.8186 -0.5360
  814MOL0     H 9845   9.411   8.146   5.399  0.2422  0.1069  0.3304
  814MOL0     H 9846   9.670   8.089   5.400  3.2087  0.1272 -0.3383
  814MOL0     H 9847   9.597   8.257   5.442 -1.7524 -0.3833 -0.2971
  814MOL0     H 9848   9.731   8.165   5.188  0.2095 -1.6302  1.7456
  814MOL0     H 9849   9.817   8.232   5.326  0.7857 -0.8795 -0.9180
  814MOL0     H 9850   9.609   8.601   5.178 -1.0421 -1.9689 -0.3157
  814MOL0     H 9851   9.737   8.762   5.023  2.9460  0.2846 -0.4469
  814MOL0     H 9852  10.139   8.518   4.588 -1.9679  0.1883 -0.9579
  814MOL0     H 9853  10.281   8.608   4.411 -0.4642 -0.2325  1.3605
  814MOL0     H 9854  10.319   9.039   4.327 -0.0544  0.2180  0.1350
  814MOL0     H 9855  10.449   9.018   4.451  1.1883 -1.8153  0.3499
  814MOL0     H 9856  10.602   8.906   4.305 -0.5886 -2.3576  0.4926
  814MOL0     H 9857  10.477   8.903   4.172 -1.6827 -0.0539  0.8377
  814MOL0     H 9858  10.482   9.151   4.168 -1.9052 -2.7453  1.5407
  814MOL0     H 9859  10.622   9.156   4.277  1.0547 -2.1495  1.7932
  814MOL0     H 9860  10.662   8.996   4.029 -2.0694  1.2944 -0.8800
  814MOL0     H 9861  10.774   9.031   4.148  0.1275 -0.9869 -0.6809
  814MOL0     H 9862  10.770   9.269   4.090  1.9418 -1.6660  1.7857
  814MOL0     H 9863  10.623   9.253   3.985 -1.6740 -2.7155  0.6823
  814MOL0     H 9864  10.902   9.140   3.935  0.5513  2.3284  2.7993
  814MOL0     H 9865  10.754   9.106   3.841  0.0870 -0.1320  1.3259
  814MOL0     H 9866  10.889   9.374   3.882 -1.5149 -0.0592  1.4347
  814MOL0     H 9867  10.747   9.359   3.777  1.7886  1.1724 -1.2516
  814MOL0     H 9868  11.013   9.186   3.737 -0.8016  0.3230  2.3235
  814MOL0     H 9869  10.874   9.185   3.639  0.0388 -0.7812  0.4504
  814MOL0     H 9870  10.239   9.005   4.573 -0.6163 -0.4252  1.5244
  814MOL0     H 9871  10.126   8.901   4.766  1.0623 -0.0864 -0.2603
  814MOL0     H 9872  10.025   8.469   4.934  2.2112 -0.2867  3.2947
  814MOL0     H 9873   9.917   8.306   5.091  4.1125  2.1949  0.6318
  814MOL0     H 9874   8.149   7.875   4.841  0.4148 -0.8942 -4.4315
  814MOL0     H 9875   7.930   7.815   4.914  0.4753  0.5696  1.2827
  814MOL0     H 9876   7.701   7.626   5.397 -1.2219 -0.6277  0.1599
  814MOL0     H 9877   7.488   7.551   5.462 -1.0465  1.9602  0.8284
  814MOL0     H 9878   7.112   7.380   5.312 -1.0115 -1.6296 -1.3548
  814MOL0     H 9879   7.236   7.362   5.187  1.7440  0.5267  0.6957
  814MOL0     H 9880   7.168   7.586   5.099  2.2985  0.3608  0.7097
  814MOL0     H 9881   7.068   7.609   5.249  2.1199 -1.5035  0.9505
  814MOL0     H 9882   6.939   7.400   5.182 -1.8851 -0.8307 -1.7693
  814MOL0     H 9883   7.006   7.420   5.027  0.2311 -0.3726  0.1764
  814MOL0     H 9884   6.847   7.658   5.157  0.3329 -0.3495  1.3503
  814MOL0     H 9885   6.924   7.650   4.998 -1.3389  1.9918  1.7959
  814MOL0     H 9886   6.592   7.383   4.974  1.8946 -0.8964  1.8019
  814MOL0     H 9887   7.372   7.493   5.051 -0.1013 -2.6332  1.0846
  814MOL0     H 9888   7.681   7.468   4.924  0.0554  0.6282  1.2160
  814MOL0     H 9889   7.515   7.488   4.878 -1.6932  0.6992  1.4948
  814MOL0     H 9890   7.627   7.627   4.906 -0.9441  0.5611  2.7891
  815MOL0     O 9891   1.835   8.408   8.050 -0.1893 -0.1625 -0.2014
  815MOL0     C 9892   1.864   8.463   8.155  0.7056  0.7085 -0.2965
  815MOL0     O 9893   1.779   8.488   8.260  0.1462  0.1218  0.8672
  815MOL0     C 9894   1.655   8.444   8.244  0.3433 -0.2353 -0.4707
  815MOL0     C 9895   1.554   8.511   8.182 -0.1630 -0.0791 -0.1760
  815MOL0     C 9896   1.423   8.457   8.186 -0.6999  0.4923  0.1045
  815MOL0     C 9897   1.404   8.326   8.238  0.1546  1.0802 -0.6806
  815MOL0     O 9898   1.286   8.255   8.255  0.2889  0.1628 -0.4375
  815MOL0     C 9899   1.165   8.323   8.235  0.9286 -0.1764  0.5850
  815MOL0     C 9900   1.049   8.231   8.229  0.8838  0.2393  0.2334
  815MOL0     C 9901   1.041   8.150   8.089 -0.7002 -0.0592  0.1745
  815MOL0     C 9902   0.934   8.056   8.067  0.0108 -0.4138 -0.1692
  815MOL0     C 9903   0.927   7.925   8.145  0.3917  0.0979  0.9924
  815MOL0     C 9904   1.047   7.835   8.115 -0.7107  0.2332  0.4778
  815MOL0     C 9905   1.031   7.691   8.182  0.5040 -0.5548 -0.0880
  815MOL0     C 9906   0.931   7.596   8.120  0.4798 -0.2881 -0.4567
  815MOL0     N 9907   0.908   7.480   8.198 -0.3529  0.4660 -0.5111
  815MOL0     C 9908   0.800   7.452   8.284  0.0053  0.0511  0.0245
  815MOL0     C 9909   0.809   7.321   8.321 -1.2503 -0.1835  1.1817
  815MOL0     C 9910   0.706   7.237   8.401  0.2169 -0.6963  1.0806
  815MOL0     C 9911   0.775   7.209   8.522  0.4545 -0.4653 -0.9793
  815MOL0     C 9912   0.721   7.088   8.592  0.2485 -0.1196  0.5449
  815MOL0     C 9913   0.566   7.105   8.628  0.0512 -0.1262  0.5287
  815MOL0     O 9914   0.528   6.990   8.716 -0.1244  0.2645 -0.3481
  815MOL0     C 9915   0.398   6.987   8.756 -0.3562 -0.1747  0.5099
  815MOL0     C 9916   0.296   7.073   8.717 -0.1845 -0.2568  0.2705
  815MOL0     C 9917   0.169   7.042   8.748  0.5005 -0.3561 -0.1089
  815MOL0     C 9918   0.136   6.932   8.838 -0.6068 -0.3022 -0.6523
  815MOL0     C 9919  -0.006   6.905   8.883 -1.2634  0.7248 -0.3370
  815MOL0     O 9920  -0.097   6.992   8.842 -0.3735  0.0520 -0.5275
  815MOL0     C 9921  -0.228   6.942   8.870 -0.0524 -0.2943  0.9276
  815MOL0     C 9922  -0.283   6.826   8.811  0.5796  0.1634 -0.6163
  815MOL0     C 9923  -0.423   6.797   8.836 -0.5704  0.7161 -0.7031
  815MOL0     C 9924  -0.505   6.880   8.917 -0.3887 -0.3337 -0.4711
  815MOL0     O 9925  -0.641   6.861   8.943  0.2390  0.3886  1.1507
  815MOL0     C 9926  -0.672   6.730   8.990  0.6392 -0.2855 -0.1849
  815MOL0     C 9927  -0.786   6.742   9.084  0.2934 -1.3530 -0.1626
  815MOL0     C 9928  -0.734   6.796   9.227  0.0602 -0.4160 -0.9317
  815MOL0     C 9929  -0.858   6.850   9.312 -0.8501  0.4710  0.5186
  815MOL0     C 9930  -0.811   6.921   9.439  0.0008 -0.0061 -0.5443
  815MOL0     C 9931  -0.723   6.833   9.535  1.0734 -0.6488 -0.1467
  815MOL0     C 9932  -0.718   6.878   9.685 -0.2841  0.0826 -0.3445
  815MOL0     C 9933  -0.599   6.816   9.748  1.1942  0.4794  0.1138
  815MOL0    Cl 9934  -0.579   6.875   9.914 -0.2078  0.5801 -0.0321
  815MOL0     C 9935  -0.451   6.999   8.966  0.1662 -0.6061  0.0565
  815MOL0     C 9936  -0.303   7.022   8.950  0.4049 -0.7197 -0.6505
  815MOL0     O 9937  -0.023   6.795   8.940  0.3887 -0.4020  0.2053
  815MOL0     C 9938   0.243   6.852   8.873 -0.1883 -1.1681 -0.3184
  815MOL0     C 9939   0.374   6.879   8.836 -0.7816 -0.6838  1.4390
  815MOL0     N 9940   0.928   7.278   8.260  0.3205  0.5048 -0.2248
  815MOL0     N 9941   0.988   7.373   8.194 -0.3153  0.7880  0.5075
  815MOL0     C 9942   1.507   8.261   8.288  0.5272 -0.4368  0.0525
  815MOL0     C 9943   1.626   8.321   8.303 -0.2479 -0.6023 -0.3024
  815MOL0     C 9944   2.002   8.501   8.164 -0.0495  0.3419 -0.0924
  815MOL0     C 9945   2.027   8.627   8.217 -0.2136  0.2971  0.4379
  815MOL0     C 9946   2.160   8.672   8.227  0.1231  0.1064  0.1861
  815MOL0     C 9947   2.271   8.594   8.177  0.1178  0.3572 -0.3798
  815MOL0     O 9948   2.394   8.653   8.176  1.1921  0.2771  0.6788
  815MOL0     C 9949   2.487   8.598   8.086 -0.1041  0.1386 -0.4153
  815MOL0     C 9950   2.596   8.716   8.062  0.8832  0.1260 -0.1733
  815MOL0     C 9951   2.729   8.654   8.040 -0.6182  1.1139 -0.2974
  815MOL0     C 9952   2.828   8.770   8.039  0.0634  0.5248  1.0884
  815MOL0     C 9953   2.813   8.860   7.920 -0.4066 -0.8214 -0.0520
  815MOL0     C 9954   2.827   8.933   7.827  0.0672 -0.0203  0.1772
  815MOL0     C 9955   2.236   8.466   8.124 -0.3165  0.3198 -0.7188
  815MOL0     C 9956   2.109   8.415   8.130 -0.0841 -0.2128  0.0611
  815MOL0     C 9957   2.092   8.278   8.073  0.7827 -0.0557 -0.3435
  815MOL0     H 9958   1.566   8.610   8.138 -1.2809 -0.6007 -1.7460
  815MOL0     H 9959   1.345   8.520   8.143 -0.4744  1.4701  1.0771
  815MOL0     H 9960   1.139   8.396   8.313 -1.0449  2.0174 -1.9537
  815MOL0     H 9961   1.161   8.368   8.136 -3.0361 -1.3306  0.0545
  815MOL0     H 9962   0.956   8.288   8.237  2.0438  2.2019  0.4191
  815MOL0     H 9963   1.058   8.168   8.318  1.5835  0.0605  0.0399
  815MOL0     H 9964   1.139   8.108   8.064 -0.3335  0.2259  1.0716
  815MOL0     H 9965   1.032   8.230   8.015  1.2002  2.4178  2.4040
  815MOL0     H 9966   0.839   8.111   8.073  1.2079  1.8679 -0.9601
  815MOL0     H 9967   0.938   8.022   7.963 -0.8154  0.0241 -0.3561
  815MOL0     H 9968   0.917   7.955   8.249 -2.6767  0.8489  0.5866
  815MOL0     H 9969   0.834   7.875   8.115  0.3512  0.1184  1.0840
  815MOL0     H 9970   1.059   7.817   8.008 -0.5405 -1.6494  0.7933
  815MOL0     H 9971   1.135   7.887   8.155 -0.9247  0.4657  0.6502
  815MOL0     H 9972   1.002   7.707   8.287 -0.6792  0.4405 -0.5390
  815MOL0     H 9973   1.127   7.642   8.165  0.1273 -0.2054 -4.1262
  815MOL0     H 9974   0.838   7.648   8.098  0.1246 -1.4633 -1.8994
  815MOL0     H 9975   0.961   7.555   8.023 -1.2997 -0.1680 -1.0879
  815MOL0     H 9976   0.715   7.514   8.312 -0.0856  0.1551 -0.4604
  815MOL0     H 9977   0.608   7.285   8.414 -0.1492 -0.2172 -2.2850
  815MOL0     H 9978   0.693   7.143   8.346  3.1673  0.0164 -1.1263
  815MOL0     H 9979   0.883   7.204   8.507  0.8980  3.2288  0.1801
  815MOL0     H 9980   0.765   7.296   8.587  1.1442  1.7745 -3.7345
  815MOL0     H 9981   0.770   7.069   8.688  0.8132 -0.3820  0.2127
  815MOL0     H 9982   0.738   7.010   8.518  0.8727  1.0250 -0.5446
  815MOL0     H 9983   0.501   7.110   8.540 -0.1337 -0.8918  0.6152
  815MOL0     H 9984   0.537   7.199   8.676 -2.1977  0.0242 -0.9732
  815MOL0     H 9985   0.307   7.144   8.636  4.7857 -2.0823 -1.0131
  815MOL0     H 9986   0.085   7.091   8.699 -2.6001 -3.8320  1.2472
  815MOL0     H 9987  -0.234   6.754   8.747 -1.9050 -2.8078  0.5455
  815MOL0     H 9988  -0.473   6.706   8.806  1.3729 -0.5310 -0.3081
  815MOL0     H 9989  -0.706   6.668   8.907 -1.3064  0.6376 -0.1367
  815MOL0     H 9990  -0.586   6.685   9.041  1.2841  1.5442  0.4537
  815MOL0     H 9991  -0.854   6.815   9.039  1.5784 -0.1892 -0.2788
  815MOL0     H 9992  -0.829   6.641   9.090 -1.0647 -0.7551  0.8223
  815MOL0     H 9993  -0.677   6.721   9.282 -2.4197 -2.4110 -0.9206
  815MOL0     H 9994  -0.670   6.885   9.220  1.5082 -1.1679  1.3932
  815MOL0     H 9995  -0.926   6.765   9.329 -0.9621  0.1080 -1.5080
  815MOL0     H 9996  -0.914   6.917   9.246 -0.5281 -1.8039 -2.2576
  815MOL0     H 9997  -0.898   6.945   9.500  0.9562 -0.3319  1.0304
  815MOL0     H 9998  -0.756   7.009   9.407 -0.2596 -0.5093 -2.4755
  815MOL0     H 9999  -0.768   6.733   9.532 -1.7286  0.5376 -0.6433
  815MOL0     H10000  -0.621   6.826   9.495  2.5394  3.8562  2.1346
  815MOL0     H10001  -0.807   6.853   9.742  0.3720 -1.7379 -0.0497
  815MOL0     H10002  -0.686   6.983   9.682  1.0779 -0.2834  0.4276
  815MOL0     H10003  -0.613   6.708   9.741 -0.4083  0.7655 -2.1380
  815MOL0     H10004  -0.513   6.835   9.682 -0.1042 -0.0736 -1.8076
  815MOL0     H10005  -0.519   7.069   9.011 -1.5572 -0.6244 -2.3315
  815MOL0     H10006  -0.270   7.117   8.990  0.3896 -0.1647 -1.8985
  815MOL0     H10007   0.226   6.775   8.948  1.4752 -2.0076 -0.7372
  815MOL0     H10008   0.466   6.825   8.855  0.0134  0.3045  0.5790
  815MOL0     H10009   1.487   8.161   8.325  0.5678 -0.8702 -1.0597
  815MOL0     H10010   1.709   8.266   8.348 -0.7220  1.2765  3.1390
  815MOL0     H10011   1.937   8.686   8.233 -1.7119 -0.8479 -2.9077
  815MOL0     H10012   2.171   8.774   8.263  1.9093  0.5791 -1.5634
  815MOL0     H10013   2.438   8.576   7.991 -0.7471 -2.2392  0.4181
  815MOL0     H10014   2.533   8.514   8.138 -1.6914  0.0018  0.8417
  815MOL0     H10015   2.599   8.790   8.142  1.5616  0.6189 -0.6415
  815MOL0     H10016   2.569   8.768   7.970 -1.4875  2.0206  1.4700
  815MOL0     H10017   2.723   8.581   7.959 -0.7706 -0.8363  1.4100
  815MOL0     H10018   2.751   8.587   8.124  0.3178  2.5509  0.6532
  815MOL0     H10019   2.808   8.814   8.138 -2.2290  3.5392 -0.5222
  815MOL0     H10020   2.919   8.710   8.035 -1.6160 -2.3677  2.9030
  815MOL0     H10021   2.838   8.995   7.740 -2.2227  0.1589 -0.0433
  815MOL0     H10022   2.316   8.400   8.091  1.7218  1.7654  1.0607
  815MOL0     H10023   2.083   8.281   7.964  0.7808 -1.4301 -0.3944
  815MOL0     H10024   2.178   8.215   8.095 -1.1803 -1.7715  3.4565
  815MOL0     H10025   2.002   8.228   8.111  1.4175  1.0778  2.9792
  816MOL0     O10026   0.705   1.801  10.268 -0.3219 -0.1119  0.1141
  816MOL0     C10027   0.630   1.703  10.278 -0.1599  0.1794  0.5367
  816MOL0     O10028   0.594   1.647  10.392  0.6002 -0.1420  0.6206
  816MOL0     C10029   0.687   1.639  10.491 -0.9525 -0.5240  0.2043
  816MOL0     C10030   0.726   1.751  10.566  0.5203 -0.1838  0.2067
  816MOL0     C10031   0.820   1.748  10.667 -0.2824  0.3638  0.3873
  816MOL0     C10032   0.893   1.633  10.698  0.4640  0.3699 -0.3877
  816MOL0     O10033   0.977   1.616  10.794  0.5573 -0.3388 -0.6515
  816MOL0     C10034   1.032   1.718  10.869 -0.3759 -0.0072 -0.3459
  816MOL0     C10035   1.115   1.652  10.986  1.2521  0.3668  0.3083
  816MOL0     C10036   1.228   1.561  10.932 -0.5687  0.9761 -0.8111
  816MOL0     C10037   1.332   1.521  11.040  0.2257 -0.4896  0.5851
  816MOL0     C10038   1.432   1.632  11.083  0.6501 -0.3526 -0.0336
  816MOL0     C10039   1.557   1.627  10.987  0.5288 -0.6561 -1.2275
  816MOL0     C10040   1.684   1.535  11.015  0.6580  0.6204  0.1396
  816MOL0     C10041   1.806   1.610  10.950  0.3324  0.4652  0.3519
  816MOL0     N10042   1.924   1.561  11.014 -0.1546  0.0028 -0.7644
  816MOL0     C10043   1.985   1.629  11.122  0.2593  1.3446  0.7300
  816MOL0     C10044   2.109   1.575  11.130 -0.2746  0.5114  0.9337
  816MOL0     C10045   2.228   1.624  11.208  0.0231  0.1979 -0.3258
  816MOL0     C10046   2.207   1.578  11.352 -1.0047 -0.8474  0.3693
  816MOL0     C10047   2.266   1.445  11.383 -0.0842 -0.0468 -0.3912
  816MOL0     C10048   2.409   1.452  11.439  0.1404  0.1497  0.3653
  816MOL0     O10049   2.450   1.310  11.448  0.2120  0.2796 -0.4820
  816MOL0     C10050   2.572   1.288  11.516 -0.1516 -0.2573  1.3563
  816MOL0     C10051   2.663   1.378  11.566  0.3211 -0.3999  0.0953
  816MOL0     C10052   2.780   1.344  11.631 -0.6183  0.5792 -0.3749
  816MOL0     C10053   2.825   1.209  11.633  0.4556  0.1595  0.9815
  816MOL0     C10054   2.952   1.170  11.691 -0.0434  0.7278 -0.6186
  816MOL0     O10055   3.011   1.268  11.759 -0.0478  0.3482 -0.2112
  816MOL0     C10056   3.153   1.257  11.776 -0.4886 -0.1675 -0.0354
  816MOL0     C10057   3.215   1.137  11.825  1.0187 -0.1636  0.3565
  816MOL0     C10058   3.355   1.140  11.845 -0.0592 -0.2880  0.3909
  816MOL0     C10059   3.435   1.254  11.815  0.3511  0.4382 -0.9358
  816MOL0     O10060   3.564   1.238  11.849 -0.8215  0.5618 -0.4849
  816MOL0     C10061   3.660   1.268  11.735  0.6380  0.0526 -0.0191
  816MOL0     C10062   3.795   1.192  11.755  1.3518 -0.1852 -0.8694
  816MOL0     C10063   3.907   1.248  11.662  0.1538 -1.0306 -0.1699
  816MOL0     C10064   4.039   1.188  11.693 -0.2613 -0.7523  1.0285
  816MOL0     C10065   4.147   1.258  11.601  0.1083 -0.0220 -0.6673
  816MOL0     C10066   4.285   1.221  11.638 -0.3733  0.6900  0.1481
  816MOL0     C10067   4.309   1.075  11.589  1.0257  0.3868  0.1097
  816MOL0     C10068   4.446   1.021  11.605  0.4751  0.1644  1.2495
  816MOL0    Cl10069   4.454   0.840  11.540  0.0997  0.0966  0.1684
  816MOL0     C10070   3.379   1.368  11.751 -0.3465 -0.3171  0.3553
  816MOL0     C10071   3.238   1.363  11.727  0.0469  0.5140 -0.3568
  816MOL0     O10072   2.993   1.055  11.668  0.4385  0.6220 -0.4987
  816MOL0     C10073   2.736   1.114  11.576  0.4372  0.3782  0.1545
  816MOL0     C10074   2.611   1.157  11.520  0.0770 -0.7912 -0.4421
  816MOL0     N10075   2.121   1.471  11.038 -0.3941 -0.4994  0.0197
  816MOL0     N10076   2.008   1.466  10.970  0.3824 -0.1565 -0.0810
  816MOL0     C10077   0.857   1.527  10.612  0.5185 -0.6306  0.3686
  816MOL0     C10078   0.751   1.520  10.519 -0.1327 -0.3179  0.0396
  816MOL0     C10079   0.552   1.651  10.149  0.8059 -0.7088 -1.1225
  816MOL0     C10080   0.427   1.594  10.166 -0.3454 -0.0894 -0.0549
  816MOL0     C10081   0.345   1.564  10.062  0.1452  0.5263  0.0698
  816MOL0     C10082   0.381   1.587   9.928 -0.5717 -0.9536  0.8736
  816MOL0     O10083   0.288   1.574   9.843  0.7639 -0.4404  0.2681
  816MOL0     C10084   0.306   1.637   9.712  0.0102 -0.6875 -0.0384
  816MOL0     C10085   0.178   1.610   9.624 -0.5226 -0.7085 -0.5011
  816MOL0     C10086   0.200   1.642   9.477 -0.4024 -0.1449 -0.4431
  816MOL0     C10087   0.084   1.603   9.378 -0.8527 -0.9245  1.4220
  816MOL0     C10088  -0.040   1.664   9.410 -0.7815 -0.4190  0.8817
  816MOL0     C10089  -0.145   1.723   9.436 -0.1275  0.4543  0.5220
  816MOL0     C10090   0.512   1.649   9.902  0.5046  0.2516 -0.6099
  816MOL0     C10091   0.591   1.678  10.012  0.7584  0.5005  0.1743
  816MOL0     C10092   0.730   1.734   9.972  1.4704  0.1716  0.1563
  816MOL0     H10093   0.683   1.847  10.539  0.1349 -0.3086  0.3819
  816MOL0     H10094   0.818   1.837  10.728 -0.0960  1.3899 -1.0593
  816MOL0     H10095   1.101   1.778  10.808 -1.1308  1.3764  0.1235
  816MOL0     H10096   0.960   1.788  10.912 -0.0648 -0.7685  1.5102
  816MOL0     H10097   1.035   1.596  11.035 -1.1780  1.7563 -1.8249
  816MOL0     H10098   1.164   1.730  11.046  0.5796 -1.3893  3.3234
  816MOL0     H10099   1.285   1.611  10.853 -1.9307  0.5094 -2.1295
  816MOL0     H10100   1.182   1.472  10.889  1.0286 -0.2047 -0.2071
  816MOL0     H10101   1.259   1.488  11.115 -0.1916  1.2235  0.9702
  816MOL0     H10102   1.388   1.429  11.017  0.0535  0.1639 -3.1257
  816MOL0     H10103   1.372   1.724  11.087  0.5518 -0.4618  1.8249
  816MOL0     H10104   1.467   1.614  11.185 -0.0974 -0.4722  0.2078
  816MOL0     H10105   1.514   1.601  10.890 -1.8097 -1.9569  0.0745
  816MOL0     H10106   1.582   1.733  10.978 -3.8875  0.7970  0.7235
  816MOL0     H10107   1.649   1.444  10.966 -2.1799  1.0575  1.1621
  816MOL0     H10108   1.698   1.516  11.122  0.7309 -1.2590 -0.1716
  816MOL0     H10109   1.796   1.592  10.842  1.7517 -1.1566  0.4459
  816MOL0     H10110   1.798   1.718  10.966  2.0084  1.2938 -3.3200
  816MOL0     H10111   1.930   1.708  11.171 -3.4602  0.4176 -1.5421
  816MOL0     H10112   2.329   1.605  11.170  0.4258  2.3207 -0.4262
  816MOL0     H10113   2.222   1.733  11.201 -0.2434  0.3051  1.2588
  816MOL0     H10114   2.234   1.653  11.426 -0.5520  0.4171 -1.0178
  816MOL0     H10115   2.098   1.579  11.359 -1.0964  2.2112 -0.3260
  816MOL0     H10116   2.273   1.393  11.287  0.0084  0.7676 -0.8304
  816MOL0     H10117   2.218   1.380  11.457  1.8199 -0.5178  0.4791
  816MOL0     H10118   2.405   1.507  11.534  1.8090  1.2209 -0.1492
  816MOL0     H10119   2.475   1.505  11.371 -2.1065  1.0130 -1.2885
  816MOL0     H10120   2.636   1.482  11.549 -0.6669 -0.8978 -1.6073
  816MOL0     H10121   2.842   1.417  11.682  2.1677 -0.2281 -2.4216
  816MOL0     H10122   3.150   1.056  11.857 -2.3383  2.1504 -0.0671
  816MOL0     H10123   3.420   1.067  11.893  0.5959  0.2328  0.3195
  816MOL0     H10124   3.623   1.236  11.637  0.0546 -0.4864  0.3681
  816MOL0     H10125   3.673   1.376  11.739  0.8663  0.0530 -0.6532
  816MOL0     H10126   3.825   1.186  11.860 -0.1811 -7.8128 -0.3251
  816MOL0     H10127   3.773   1.090  11.723  2.7991 -1.6428  2.2842
  816MOL0     H10128   3.880   1.246  11.557 -0.6404  1.9382 -0.1036
  816MOL0     H10129   3.927   1.354  11.683  0.6020 -1.0042 -0.7130
  816MOL0     H10130   4.036   1.080  11.675  2.7743 -1.0844  1.8757
  816MOL0     H10131   4.064   1.207  11.798  0.3257 -1.7836  1.0951
  816MOL0     H10132   4.150   1.365  11.622 -1.0694 -0.0572 -0.2724
  816MOL0     H10133   4.130   1.236  11.495  0.5087  1.6618 -1.1087
  816MOL0     H10134   4.356   1.282  11.581 -0.5374 -0.1731 -1.0276
  816MOL0     H10135   4.304   1.228  11.746 -1.3149 -2.1645  0.5954
  816MOL0     H10136   4.291   1.072  11.481  0.0366 -2.8409  0.2802
  816MOL0     H10137   4.232   1.014  11.637  1.2131 -0.6567 -0.8535
  816MOL0     H10138   4.521   1.072  11.544  0.0480 -0.3706  0.2539
  816MOL0     H10139   4.480   1.028  11.709  0.4182 -0.6032  1.3233
  816MOL0     H10140   3.437   1.452  11.716 -3.1674  2.0587  0.9838
  816MOL0     H10141   3.164   1.432  11.687 -1.0079 -0.1839  0.3643
  816MOL0     H10142   2.766   1.010  11.563  2.2584  0.7661  0.9505
  816MOL0     H10143   2.549   1.081  11.474  0.6514 -2.0218  0.7466
  816MOL0     H10144   0.914   1.438  10.637  1.2607 -0.5076 -0.7888
  816MOL0     H10145   0.717   1.430  10.467  2.0982 -0.3240 -1.5312
  816MOL0     H10146   0.382   1.572  10.262 -1.3217 -0.7487 -0.6523
  816MOL0     H10147   0.254   1.510  10.085 -0.5565  1.8565  0.5193
  816MOL0     H10148   0.393   1.597   9.660 -0.5522 -0.1988 -1.3848
  816MOL0     H10149   0.320   1.744   9.732  0.8521 -1.0057  1.2057
  816MOL0     H10150   0.092   1.669   9.658 -2.0505 -1.0663 -3.3915
  816MOL0     H10151   0.154   1.503   9.625  0.8596 -1.0255  0.0966
  816MOL0     H10152   0.289   1.582   9.454  0.3873 -0.4306  2.8908
  816MOL0     H10153   0.223   1.749   9.470 -1.3914  0.1693  0.7747
  816MOL0     H10154   0.112   1.632   9.276 -2.8750 -2.9430  0.2054
  816MOL0     H10155   0.074   1.494   9.384 -1.7802 -0.8270  1.7658
  816MOL0     H10156  -0.237   1.777   9.448  0.5650  1.6321  0.6475
  816MOL0     H10157   0.532   1.669   9.797 -0.5544 -1.1621 -1.1028
  816MOL0     H10158   0.760   1.697   9.874  2.9046 -2.9418  1.6322
  816MOL0     H10159   0.713   1.842   9.966  0.3520 -0.0394 -0.8378
  816MOL0     H10160   0.808   1.705  10.043  0.1494 -2.1906  0.7337
  817MOL0     O10161   5.824  11.241   2.741  0.0912  0.5818  0.3697
  817MOL0     C10162   5.782  11.361   2.736 -0.9935 -0.2260 -0.5714
  817MOL0     O10163   5.853  11.462   2.690 -0.1861 -1.1670 -0.4122
  817MOL0     C10164   5.982  11.449   2.656  0.0105 -0.4965  0.0914
  817MOL0     C10165   6.032  11.506   2.538 -0.1127  0.6782  0.3298
  817MOL0     C10166   6.177  11.501   2.517  0.8085 -0.3507  0.0360
  817MOL0     C10167   6.262  11.455   2.608 -0.3578 -0.4785  0.5069
  817MOL0     O10168   6.394  11.452   2.584 -1.0354 -0.3254  0.0855
  817MOL0     C10169   6.468  11.575   2.571 -0.4621 -0.0540  0.3441
  817MOL0     C10170   6.615  11.538   2.588  0.2186 -0.1943  0.0100
  817MOL0     C10171   6.691  11.668   2.616  0.4149 -0.2614 -0.2474
  817MOL0     C10172   6.853  11.661   2.608 -0.5833 -0.3815  0.2031
  817MOL0     C10173   6.922  11.793   2.640  0.1230 -0.1653  0.1409
  817MOL0     C10174   6.896  11.853   2.778 -0.1472 -0.1027 -0.2121
  817MOL0     C10175   7.001  11.960   2.815  0.4465  0.1263  0.4883
  817MOL0     C10176   7.140  11.902   2.837 -0.4168 -0.2527 -0.3039
  817MOL0     N10177   7.237  12.008   2.879 -0.7521 -0.4725 -0.0772
  817MOL0     C10178   7.220  12.090   2.980  0.1869 -0.0906 -0.1767
  817MOL0     C10179   7.344  12.143   3.007  0.3482 -0.4814 -0.1394
  817MOL0     C10180   7.400  12.241   3.104 -0.1144 -0.3502 -0.1410
  817MOL0     C10181   7.368  12.384   3.062 -0.2238 -0.6625 -0.8816
  817MOL0     C10182   7.391  12.483   3.178 -0.2534 -0.5388  0.7361
  817MOL0     C10183   7.355  12.630   3.143  0.6286  0.6569 -0.0955
  817MOL0     O10184   7.412  12.688   3.031 -0.3050  0.6427 -0.2565
  817MOL0     C10185   7.519  12.767   3.072  0.0369  0.5976 -0.5081
  817MOL0     C10186   7.510  12.871   3.172 -0.3146  0.1986  0.6960
  817MOL0     C10187   7.612  12.949   3.220  1.0135  0.0077 -0.6503
  817MOL0     C10188   7.739  12.916   3.171  0.0965 -0.1919  0.0403
  817MOL0     C10189   7.858  12.974   3.236 -0.7836 -0.7428  0.7594
  817MOL0     O10190   7.973  12.919   3.193  0.6043  0.2131 -0.1153
  817MOL0     C10191   8.101  12.959   3.233  0.9541 -0.2908  0.0867
  817MOL0     C10192   8.199  12.879   3.273 -0.2476  0.0523 -0.4798
  817MOL0     C10193   8.331  12.918   3.305 -0.1454 -0.3644  0.0427
  817MOL0     C10194   8.366  13.054   3.283 -1.2856 -0.4411  0.4279
  817MOL0     O10195   8.481  13.119   3.299 -0.2121  0.2236  0.1938
  817MOL0     C10196   8.599  13.038   3.292  0.0606  0.0688  0.2490
  817MOL0     C10197   8.715  13.129   3.298  0.0535  0.0800 -0.3441
  817MOL0     C10198   8.836  13.033   3.319  0.1530 -0.6068 -0.5287
  817MOL0     C10199   8.964  13.117   3.319 -0.6108  0.0095 -0.7567
  817MOL0     C10200   9.092  13.034   3.333 -0.6356 -0.5704  0.6421
  817MOL0     C10201   9.203  13.116   3.406 -0.2962 -0.4929 -0.3989
  817MOL0     C10202   9.317  13.035   3.467  0.4384  0.3414  0.8157
  817MOL0     C10203   9.408  13.110   3.557  0.3069  0.3081  0.5764
  817MOL0    Cl10204   9.558  13.025   3.593 -0.2425  0.0204 -0.2082
  817MOL0     C10205   8.263  13.148   3.248 -0.4170  0.1805  0.0685
  817MOL0     C10206   8.135  13.098   3.217 -1.2593 -0.0518 -0.2894
  817MOL0     O10207   7.850  13.054   3.322  0.4632  0.1627 -0.7970
  817MOL0     C10208   7.752  12.823   3.063  0.2924 -0.0113  1.1702
  817MOL0     C10209   7.646  12.747   3.017 -0.1644 -0.1286  0.5337
  817MOL0     N10210   7.436  12.086   2.921 -0.1633  0.2766  0.3127
  817MOL0     N10211   7.369  12.011   2.838  0.1127  0.5784 -0.4005
  817MOL0     C10212   6.214  11.409   2.730 -0.2374  0.3034 -0.5166
  817MOL0     C10213   6.073  11.407   2.756 -0.4968 -0.2438  0.6517
  817MOL0     C10214   5.647  11.392   2.779 -0.0815  0.3562 -0.1611
  817MOL0     C10215   5.542  11.337   2.707 -0.1723  0.4477  0.3730
  817MOL0     C10216   5.421  11.340   2.762 -0.4276 -0.6324  0.5773
  817MOL0     C10217   5.394  11.408   2.878 -0.2737  0.6077  0.1724
  817MOL0     O10218   5.264  11.420   2.918 -0.2305  0.7347  0.3597
  817MOL0     C10219   5.188  11.304   2.955 -0.7443 -0.8347  0.2166
  817MOL0     C10220   5.166  11.308   3.101  0.2603 -0.0678  0.0517
  817MOL0     C10221   5.170  11.164   3.164  0.0516 -0.9343 -1.4543
  817MOL0     C10222   5.048  11.085   3.124  0.3968  0.6812  0.0202
  817MOL0     C10223   5.082  10.944   3.129 -0.0520  0.2571 -0.1881
  817MOL0     C10224   5.109  10.833   3.158  0.0392 -0.0371  0.2012
  817MOL0     C10225   5.491  11.485   2.941 -0.4960  0.4080 -0.9355
  817MOL0     C10226   5.623  11.475   2.896  0.1851 -0.1688  0.6407
  817MOL0     C10227   5.734  11.540   2.971 -0.2853  0.0536 -0.5163
  817MOL0     H10228   5.976  11.549   2.455  1.4736  0.7555 -0.7615
  817MOL0     H10229   6.220  11.516   2.418  2.1266 -3.5573 -0.0037
  817MOL0     H10230   6.459  11.621   2.473  2.2980 -0.2963 -0.1271
  817MOL0     H10231   6.432  11.641   2.650  0.0056 -1.6220  1.9445
  817MOL0     H10232   6.663  11.496   2.500 -0.0435 -1.6877  0.5472
  817MOL0     H10233   6.620  11.465   2.670 -1.6300 -2.3615 -1.6736
  817MOL0     H10234   6.668  11.691   2.720 -0.9279 -2.4637  0.0119
  817MOL0     H10235   6.650  11.752   2.559  3.5066 -0.0326 -2.3722
  817MOL0     H10236   6.895  11.590   2.679  2.0849  1.2857  0.4112
  817MOL0     H10237   6.887  11.628   2.509 -5.1939 -0.6475 -1.5545
  817MOL0     H10238   7.028  11.780   2.619  0.5008  3.5890 -1.0314
  817MOL0     H10239   6.888  11.864   2.563  2.3900  0.1488 -0.6334
  817MOL0     H10240   6.794  11.893   2.776 -0.0526  0.1354 -1.0075
  817MOL0     H10241   6.900  11.767   2.845  0.5382 -1.0279 -1.3828
  817MOL0     H10242   6.967  12.007   2.908 -1.6731  0.2415 -0.2844
  817MOL0     H10243   6.998  12.035   2.735  0.5464  0.4060  0.7448
  817MOL0     H10244   7.139  11.824   2.914  0.7745  0.2550  0.2542
  817MOL0     H10245   7.172  11.850   2.746  1.7416  0.8890 -0.2618
  817MOL0     H10246   7.131  12.128   3.029  0.1003  1.9269 -1.7685
  817MOL0     H10247   7.362  12.219   3.204  1.1094  2.2299  1.0048
  817MOL0     H10248   7.509  12.233   3.103  0.0235  1.2693 -0.5627
  817MOL0     H10249   7.419  12.431   2.977  0.0209 -0.5824 -0.6920
  817MOL0     H10250   7.261  12.396   3.042 -0.3699 -1.8970 -0.9526
  817MOL0     H10251   7.494  12.478   3.215 -0.8271  0.6083  2.6156
  817MOL0     H10252   7.335  12.449   3.265  2.7328 -1.5127  2.4087
  817MOL0     H10253   7.354  12.690   3.235  1.1492  0.1292  0.2601
  817MOL0     H10254   7.250  12.619   3.115  0.3199 -0.4920  1.3696
  817MOL0     H10255   7.416  12.893   3.222 -1.1184  0.5461 -0.9062
  817MOL0     H10256   7.587  13.020   3.299  0.5389  0.6909 -1.4066
  817MOL0     H10257   8.172  12.774   3.275 -0.6540  0.1322 -1.3548
  817MOL0     H10258   8.402  12.859   3.361 -2.2297 -1.6323  1.4790
  817MOL0     H10259   8.599  12.980   3.385  2.2182  0.8446  0.7947
  817MOL0     H10260   8.596  12.975   3.203  0.6831 -0.3111  0.4948
  817MOL0     H10261   8.734  13.179   3.203  0.6688 -0.3133 -0.4315
  817MOL0     H10262   8.709  13.201   3.380 -1.5677  0.5187 -0.8098
  817MOL0     H10263   8.828  12.968   3.408  0.6658  4.2077  3.4774
  817MOL0     H10264   8.855  12.971   3.231  0.1336 -0.7164 -0.4558
  817MOL0     H10265   8.952  13.196   3.393 -1.3339 -0.9611  0.2013
  817MOL0     H10266   8.962  13.170   3.223  1.3016 -1.2326 -1.5518
  817MOL0     H10267   9.129  13.006   3.233  1.2434  0.9496  0.8553
  817MOL0     H10268   9.082  12.944   3.394  0.4082  1.6431  4.3642
  817MOL0     H10269   9.255  13.178   3.332 -0.0535  0.8648  0.8616
  817MOL0     H10270   9.159  13.183   3.481  0.6502 -1.5262  1.1400
  817MOL0     H10271   9.376  12.987   3.388  0.5821  0.9288  0.5606
  817MOL0     H10272   9.276  12.947   3.517  0.2354 -1.1564 -1.7902
  817MOL0     H10273   9.427  13.207   3.509 -1.7649  0.3543 -0.2526
  817MOL0     H10274   9.353  13.130   3.649  1.9124 -1.2170  1.9584
  817MOL0     H10275   8.270  13.256   3.249  0.0168  0.1519  1.5426
  817MOL0     H10276   8.057  13.171   3.197 -2.1341 -1.1538 -1.0403
  817MOL0     H10277   7.853  12.816   3.024  0.4330 -0.1513  1.5514
  817MOL0     H10278   7.648  12.670   2.940 -1.3749  1.1124 -0.8027
  817MOL0     H10279   6.290  11.383   2.803 -1.8022 -0.8027  0.7741
  817MOL0     H10280   6.047  11.375   2.856 -0.4735 -0.6340  0.5323
  817MOL0     H10281   5.559  11.270   2.624 -0.6601 -1.1995  1.5489
  817MOL0     H10282   5.351  11.275   2.710  2.2812 -2.6089 -0.8229
  817MOL0     H10283   5.252  11.222   2.923 -0.6935  0.1160 -2.3101
  817MOL0     H10284   5.094  11.293   2.901 -0.3575 -2.0578 -0.2408
  817MOL0     H10285   5.066  11.352   3.106  0.3540  0.4430 -1.8988
  817MOL0     H10286   5.241  11.373   3.147 -0.3683  0.0648  0.9213
  817MOL0     H10287   5.184  11.167   3.273  0.1296 -0.9191 -1.4648
  817MOL0     H10288   5.261  11.113   3.132  1.0042 -0.6113  0.6155
  817MOL0     H10289   4.963  11.089   3.193 -0.0206 -1.2771 -0.3266
  817MOL0     H10290   5.016  11.118   3.025  0.3692  0.5435 -0.0165
  817MOL0     H10291   5.122  10.730   3.186 -1.9292 -0.4446 -0.2902
  817MOL0     H10292   5.472  11.550   3.026  4.6394  3.0416 -1.3986
  817MOL0     H10293   5.702  11.590   3.063 -0.1551  2.7485 -1.8204
  817MOL0     H10294   5.818  11.474   2.991 -1.0649  0.2239  4.3278
  817MOL0     H10295   5.778  11.613   2.902 -0.9584  1.8315  0.8480
  818MOL0     O10296   2.294   3.944   6.352  0.2871  0.6274 -1.0551
  818MOL0     C10297   2.263   4.008   6.453 -0.1097  0.5093 -0.0203
  818MOL0     O10298   2.346   4.032   6.548 -0.9395 -0.2836 -0.1299
  818MOL0     C10299   2.467   3.975   6.554  0.3723 -0.0821  0.1192
  818MOL0     C10300   2.585   4.056   6.565 -0.2251  0.6897 -0.2662
  818MOL0     C10301   2.708   3.997   6.544  0.5576  0.3085  0.1274
  818MOL0     C10302   2.721   3.859   6.516 -0.0689 -0.3365 -0.8082
  818MOL0     O10303   2.838   3.791   6.491  0.1242 -0.0315 -0.3706
  818MOL0     C10304   2.959   3.859   6.447  0.3706  0.6801 -0.1113
  818MOL0     C10305   3.090   3.780   6.472  0.2213  0.4811 -0.0927
  818MOL0     C10306   3.105   3.720   6.614  0.6587 -0.5111  0.7982
  818MOL0     C10307   3.246   3.660   6.630 -0.4875 -0.6019  0.1217
  818MOL0     C10308   3.270   3.602   6.769 -0.0442  0.2873 -0.2249
  818MOL0     C10309   3.401   3.542   6.803 -0.8365  0.0539  0.2666
  818MOL0     C10310   3.393   3.468   6.944 -0.0275 -0.2541  0.3570
  818MOL0     C10311   3.513   3.392   6.988 -1.0686  0.0575 -0.9500
  818MOL0     N10312   3.625   3.477   7.043  0.0858  0.2950  0.3657
  818MOL0     C10313   3.630   3.538   7.171  0.0367  0.1415  0.5949
  818MOL0     C10314   3.761   3.583   7.181  0.7593 -1.1342 -0.1113
  818MOL0     C10315   3.821   3.670   7.294  0.5675 -0.3516  0.0399
  818MOL0     C10316   3.954   3.616   7.350  0.1618  0.0757 -0.2847
  818MOL0     C10317   3.924   3.476   7.423 -0.0850  0.2127 -0.1573
  818MOL0     C10318   4.051   3.407   7.458  0.3889  0.1260  0.0278
  818MOL0     O10319   4.123   3.482   7.566  0.7674  0.8136 -0.0772
  818MOL0     C10320   4.229   3.433   7.633 -0.4918  0.8344 -0.9822
  818MOL0     C10321   4.287   3.508   7.739  0.0413  0.7353  0.1255
  818MOL0     C10322   4.407   3.466   7.792 -0.4614  0.6779 -0.0011
  818MOL0     C10323   4.469   3.343   7.763 -0.5635 -0.0052  0.2506
  818MOL0     C10324   4.599   3.311   7.820 -0.5945  1.1239  0.9045
  818MOL0     O10325   4.638   3.174   7.836 -0.0620 -0.5595 -0.5620
  818MOL0     C10326   4.763   3.136   7.867 -0.0461  0.9752  0.4901
  818MOL0     C10327   4.793   3.055   7.976  0.5976 -0.5195 -0.0498
  818MOL0     C10328   4.922   3.025   8.018 -1.1555  1.5993  0.2759
  818MOL0     C10329   5.029   3.077   7.949 -0.5454 -0.3209 -1.0718
  818MOL0     O10330   5.157   3.029   7.978 -0.0429 -0.5166  0.2833
  818MOL0     C10331   5.269   3.044   7.894  1.3779 -0.4263 -0.5083
  818MOL0     C10332   5.374   2.942   7.945 -0.2240 -0.0772 -0.7522
  818MOL0     C10333   5.503   2.963   7.869 -0.0499  0.5815 -0.6087
  818MOL0     C10334   5.622   2.878   7.927  0.1486  0.8217  0.0131
  818MOL0     C10335   5.660   2.903   8.069 -0.4633  0.4177  0.2353
  818MOL0     C10336   5.785   2.823   8.108 -0.6515  0.4888 -0.8411
  818MOL0     C10337   5.829   2.844   8.251  1.2942  0.6636 -0.4602
  818MOL0     C10338   5.982   2.845   8.279 -0.6212 -0.1806 -0.2992
  818MOL0    Cl10339   5.987   2.817   8.463  0.2047 -0.1045 -0.4426
  818MOL0     C10340   5.007   3.164   7.844  0.8620  0.4588 -0.2286
  818MOL0     C10341   4.877   3.199   7.807  0.7272  0.3910 -0.2639
  818MOL0     O10342   4.671   3.406   7.846 -0.2141  0.1242 -0.1868
  818MOL0     C10343   4.409   3.265   7.660  0.3486  0.1327 -0.0721
  818MOL0     C10344   4.287   3.310   7.596  0.3097 -0.5943 -0.1010
  818MOL0     N10345   3.826   3.561   7.058  1.2090  0.1195 -0.2738
  818MOL0     N10346   3.750   3.486   6.989 -0.6261  0.0702 -0.0224
  818MOL0     C10347   2.608   3.785   6.538 -0.1912  0.4231 -0.1772
  818MOL0     C10348   2.481   3.840   6.568 -0.8036 -1.2119 -0.2001
  818MOL0     C10349   2.130   4.065   6.454  0.1186  0.1810 -0.7088
  818MOL0     C10350   2.111   4.188   6.514  0.4170  0.0027 -0.8591
  818MOL0     C10351   1.982   4.242   6.530  0.5461  0.1435  0.4440
  818MOL0     C10352   1.869   4.180   6.483 -0.7676 -0.0033  0.3227
  818MOL0     O10353   1.742   4.227   6.496  0.2089  0.8255  0.9031
  818MOL0     C10354   1.670   4.165   6.596  0.4824  0.4873  0.0836
  818MOL0     C10355   1.714   4.215   6.734  1.3003  0.2053 -0.1182
  818MOL0     C10356   1.656   4.347   6.768  0.1033  0.0751  0.6381
  818MOL0     C10357   1.697   4.380   6.908 -0.8430 -0.2560  0.2998
  818MOL0     C10358   1.622   4.496   6.957  0.8176  0.6836 -0.2407
  818MOL0     C10359   1.572   4.585   7.017 -0.4698  0.4505 -0.3244
  818MOL0     C10360   1.890   4.064   6.421 -0.6134  0.5519 -0.1972
  818MOL0     C10361   2.016   4.007   6.411 -0.4566  0.1034  1.0089
  818MOL0     C10362   2.018   3.862   6.351  0.3953  0.0593 -0.6459
  818MOL0     H10363   2.588   4.160   6.597 -0.4848 -0.3157  3.5019
  818MOL0     H10364   2.794   4.062   6.536  1.4361 -0.8237  0.0040
  818MOL0     H10365   2.958   3.879   6.339 -1.5198 -0.7197 -0.4026
  818MOL0     H10366   2.964   3.961   6.486  2.1682  0.7779 -0.4997
  818MOL0     H10367   3.168   3.855   6.458 -0.4853  2.0090  3.2412
  818MOL0     H10368   3.118   3.708   6.393  1.3450  0.8776 -0.0830
  818MOL0     H10369   3.025   3.648   6.630 -0.9637  0.6770 -1.4969
  818MOL0     H10370   3.075   3.810   6.669 -4.1334 -0.3092 -1.6967
  818MOL0     H10371   3.271   3.586   6.554  4.1176  0.2448  0.4785
  818MOL0     H10372   3.329   3.729   6.610  0.3110 -1.7351 -0.6090
  818MOL0     H10373   3.263   3.688   6.836 -1.3389 -0.4448  0.6407
  818MOL0     H10374   3.184   3.541   6.799 -0.0814  0.8947  0.9609
  818MOL0     H10375   3.437   3.474   6.725  1.6883  1.9974 -0.4048
  818MOL0     H10376   3.474   3.623   6.800 -2.1376  1.2922  1.0384
  818MOL0     H10377   3.306   3.402   6.952 -2.8223  3.0561 -0.2403
  818MOL0     H10378   3.364   3.546   7.015 -0.8722 -2.0205  2.0559
  818MOL0     H10379   3.502   3.319   7.069  1.5340  0.9290  0.2841
  818MOL0     H10380   3.558   3.328   6.911  0.4471 -1.8399  1.3718
  818MOL0     H10381   3.548   3.534   7.242  0.9030 -3.2615  1.5868
  818MOL0     H10382   3.833   3.769   7.249 -1.0565 -0.1495 -0.0314
  818MOL0     H10383   3.743   3.671   7.371 -0.9020  1.1624 -1.3773
  818MOL0     H10384   4.022   3.604   7.266 -1.0892  1.5514 -1.5665
  818MOL0     H10385   3.997   3.677   7.430  1.7518 -0.5919 -0.6007
  818MOL0     H10386   3.878   3.411   7.348  4.6518 -1.9062 -1.6186
  818MOL0     H10387   3.856   3.505   7.504  0.3877  3.1378 -0.7062
  818MOL0     H10388   4.116   3.408   7.371  0.4655  1.5523  0.0711
  818MOL0     H10389   4.027   3.305   7.490 -2.2775  1.0856  1.4989
  818MOL0     H10390   4.238   3.600   7.769  2.6972  2.8457 -1.5552
  818MOL0     H10391   4.463   3.528   7.861  1.9841  0.3391 -1.5593
  818MOL0     H10392   4.713   3.000   8.023  0.4452  0.1884  0.5400
  818MOL0     H10393   4.944   2.945   8.087  2.7490  1.8341 -0.4913
  818MOL0     H10394   5.239   3.021   7.792 -0.1596 -0.4940 -0.0794
  818MOL0     H10395   5.301   3.148   7.903  1.8575 -0.7249  2.0787
  818MOL0     H10396   5.392   2.956   8.051 -0.4956 -4.0343 -0.0416
  818MOL0     H10397   5.334   2.840   7.946  1.8818 -0.9724 -0.7754
  818MOL0     H10398   5.473   2.925   7.771 -1.3680 -0.0802  0.0316
  818MOL0     H10399   5.516   3.071   7.851 -1.2611  0.6499 -1.1727
  818MOL0     H10400   5.707   2.902   7.862 -1.1646  0.9732 -1.7408
  818MOL0     H10401   5.597   2.772   7.941 -5.2232  1.9258  0.9709
  818MOL0     H10402   5.583   2.870   8.140  0.2088 -1.7531  0.0296
  818MOL0     H10403   5.667   3.011   8.078 -2.7483  0.7354 -1.1920
  818MOL0     H10404   5.754   2.720   8.089 -1.2024  0.3511  0.7087
  818MOL0     H10405   5.874   2.848   8.049  0.9669 -0.9279  0.8759
  818MOL0     H10406   5.788   2.758   8.303  3.8411  0.1061  0.7252
  818MOL0     H10407   5.792   2.936   8.298 -1.9452 -1.3318  1.2434
  818MOL0     H10408   6.028   2.759   8.229  0.4408  0.4434 -0.4231
  818MOL0     H10409   6.028   2.940   8.250 -0.2819  0.4632  2.1592
  818MOL0     H10410   5.092   3.207   7.792  0.6292  2.1931  0.7199
  818MOL0     H10411   4.865   3.269   7.725  1.5923 -0.8032 -1.4605
  818MOL0     H10412   4.470   3.182   7.626  1.4630  0.5637  0.7841
  818MOL0     H10413   4.260   3.238   7.519  2.4445 -0.4095 -1.1134
  818MOL0     H10414   2.621   3.678   6.526 -1.6410 -0.1467  2.5417
  818MOL0     H10415   2.397   3.771   6.575 -1.9063 -0.0191 -1.1339
  818MOL0     H10416   2.196   4.239   6.558  2.4925 -4.2969  0.7333
  818MOL0     H10417   1.976   4.341   6.574  4.9550  0.8801 -0.1152
  818MOL0     H10418   1.684   4.057   6.589  0.0061  0.5637 -3.8937
  818MOL0     H10419   1.565   4.183   6.574  0.8195  1.0423 -1.1428
  818MOL0     H10420   1.822   4.233   6.737  0.9908  2.3853 -0.6187
  818MOL0     H10421   1.681   4.140   6.806  2.6825 -1.5030 -1.1585
  818MOL0     H10422   1.547   4.342   6.774  0.0636  1.4207  1.5585
  818MOL0     H10423   1.687   4.423   6.695  1.6353  0.5555  1.7455
  818MOL0     H10424   1.678   4.289   6.965  2.3064 -0.5587  1.0493
  818MOL0     H10425   1.805   4.396   6.918 -0.4753 -1.9280 -0.7131
  818MOL0     H10426   1.535   4.674   7.065 -0.4023  1.4168 -1.9688
  818MOL0     H10427   1.801   4.009   6.392 -0.1600 -1.1296  1.4087
  818MOL0     H10428   1.917   3.821   6.361  0.1975  1.1399  4.1924
  818MOL0     H10429   2.051   3.879   6.247 -0.3740  3.5866 -0.4618
  818MOL0     H10430   2.090   3.805   6.409 -0.1213  0.3110  0.2565
  819MOL0     O10431   2.300   4.847   0.838 -0.6209 -0.5129 -0.3672
  819MOL0     C10432   2.204   4.921   0.806  0.5388 -0.0295  0.9969
  819MOL0     O10433   2.083   4.917   0.868  0.0703  0.0934  0.6398
  819MOL0     C10434   2.071   4.893   1.000 -1.2988  0.4910 -0.4568
  819MOL0     C10435   1.971   4.818   1.054  0.5208  0.1942  0.7399
  819MOL0     C10436   1.936   4.804   1.193 -0.2132  0.3434 -0.6424
  819MOL0     C10437   2.021   4.859   1.285  0.5184 -0.5629  0.3099
  819MOL0     O10438   1.998   4.862   1.423 -0.2737 -0.0458  0.1892
  819MOL0     C10439   1.863   4.873   1.475  0.1380  0.9835  1.5056
  819MOL0     C10440   1.885   4.877   1.625  0.5648  0.0442 -0.3818
  819MOL0     C10441   1.886   4.732   1.687  0.2182  0.2435 -0.8406
  819MOL0     C10442   1.995   4.710   1.790  0.4864 -0.6860  0.1439
  819MOL0     C10443   1.946   4.583   1.879  0.2514  0.2988  0.3313
  819MOL0     C10444   1.969   4.446   1.806  0.0646  0.6681  0.1128
  819MOL0     C10445   1.909   4.330   1.888  0.9059 -0.1211  0.2342
  819MOL0     C10446   1.955   4.305   2.027  0.5381 -0.4680  0.6759
  819MOL0     N10447   1.901   4.179   2.079 -0.2234  0.2480 -0.5991
  819MOL0     C10448   1.775   4.133   2.073  0.1803 -0.4200 -0.1461
  819MOL0     C10449   1.776   4.011   2.148  0.2055 -0.9252 -0.0536
  819MOL0     C10450   1.655   3.928   2.175 -0.5348 -0.2434  0.7210
  819MOL0     C10451   1.636   3.844   2.033 -0.3132  0.3777  0.3704
  819MOL0     C10452   1.535   3.727   2.051  0.0316  0.3216  0.2543
  819MOL0     C10453   1.400   3.775   2.086  0.3152  0.6342  0.1672
  819MOL0     O10454   1.353   3.869   1.998  0.8674 -0.5815 -0.2062
  819MOL0     C10455   1.218   3.883   1.997 -0.6676 -0.8470  0.2458
  819MOL0     C10456   1.153   3.913   1.874 -0.1763  1.1817 -0.1931
  819MOL0     C10457   1.011   3.920   1.866  0.5611  0.9071 -0.0590
  819MOL0     C10458   0.938   3.930   1.994 -0.3717 -0.2242  0.9354
  819MOL0     C10459   0.796   3.967   1.992  0.3962 -0.4620  0.1605
  819MOL0     O10460   0.734   3.992   2.114 -0.1247 -0.1633  0.2074
  819MOL0     C10461   0.614   4.057   2.129 -0.1169 -0.4062  0.8001
  819MOL0     C10462   0.572   4.168   2.060 -0.7328  0.3642 -0.0577
  819MOL0     C10463   0.444   4.223   2.069  0.4577  0.0601  0.3393
  819MOL0     C10464   0.360   4.164   2.168 -0.7843  0.8636  0.5976
  819MOL0     O10465   0.245   4.199   2.219  0.4066 -0.4157 -0.4181
  819MOL0     C10466   0.183   4.319   2.178 -0.5134  0.3268  0.0747
  819MOL0     C10467   0.078   4.272   2.080  0.4099  0.2628 -0.2343
  819MOL0     C10468  -0.026   4.169   2.130  0.2857 -0.0606  0.7817
  819MOL0     C10469  -0.113   4.159   2.007  0.5728 -1.1379  0.9530
  819MOL0     C10470  -0.235   4.066   2.017 -0.1069 -0.5053 -0.6625
  819MOL0     C10471  -0.334   4.076   1.901  0.7388 -0.1167  0.0969
  819MOL0     C10472  -0.297   3.994   1.774 -0.4083 -0.1357  0.0101
  819MOL0     C10473  -0.363   4.050   1.642 -0.2388  0.0646 -0.5108
  819MOL0    Cl10474  -0.542   4.038   1.660 -0.2243 -0.4449 -0.4070
  819MOL0     C10475   0.405   4.050   2.233  0.1128  1.0820  0.4870
  819MOL0     C10476   0.528   3.992   2.214 -0.2223  0.0201  0.8599
  819MOL0     O10477   0.737   3.972   1.882 -0.1603 -0.3784 -0.1122
  819MOL0     C10478   1.005   3.895   2.113  0.0006 -1.0553  0.2666
  819MOL0     C10479   1.140   3.865   2.115 -1.2826 -0.9011  0.1725
  819MOL0     N10480   1.900   3.991   2.198 -0.2172 -1.0399  0.0087
  819MOL0     N10481   1.972   4.096   2.161  0.3007  0.6678 -1.2005
  819MOL0     C10482   2.138   4.924   1.241  0.2607 -0.4541  0.4896
  819MOL0     C10483   2.158   4.949   1.099  0.6841 -0.5346 -0.5792
  819MOL0     C10484   2.213   5.007   0.684  0.4018 -0.0947  0.3513
  819MOL0     C10485   2.089   5.065   0.631 -0.5506  0.2405 -0.1849
  819MOL0     C10486   2.090   5.137   0.510 -0.5662 -0.1564  0.6879
  819MOL0     C10487   2.209   5.154   0.435 -0.3847 -0.0776  0.4480
  819MOL0     O10488   2.222   5.217   0.316  0.0732 -0.0027  0.6240
  819MOL0     C10489   2.089   5.248   0.267  0.2802 -0.5712  0.2804
  819MOL0     C10490   2.094   5.273   0.112 -0.3082  0.7725 -0.3082
  819MOL0     C10491   1.951   5.284   0.066 -0.0633  0.1875  0.3809
  819MOL0     C10492   1.953   5.269  -0.092  0.0025 -0.2355 -0.2604
  819MOL0     C10493   1.810   5.290  -0.145  0.2228 -0.4758  0.2577
  819MOL0     C10494   1.693   5.293  -0.187  0.0889  0.6477 -0.0278
  819MOL0     C10495   2.327   5.092   0.488 -0.2500  0.4790  0.7499
  819MOL0     C10496   2.330   5.026   0.612  0.3437  0.9367  0.1398
  819MOL0     C10497   2.464   4.975   0.659  0.2762  0.3083 -0.5370
  819MOL0     H10498   1.903   4.781   0.978  0.6435 -2.3606  1.7870
  819MOL0     H10499   1.846   4.758   1.231 -0.0862  1.0660  0.5759
  819MOL0     H10500   1.814   4.961   1.433  0.1915 -0.7682 -2.6622
  819MOL0     H10501   1.801   4.791   1.438  0.2428  2.5657 -2.6379
  819MOL0     H10502   1.812   4.942   1.674 -0.2164 -1.8129  0.9968
  819MOL0     H10503   1.980   4.923   1.653  0.2198  0.2833  0.4160
  819MOL0     H10504   1.892   4.657   1.608 -0.8208 -0.8925  0.1094
  819MOL0     H10505   1.787   4.714   1.730  0.2821 -2.9104 -1.7532
  819MOL0     H10506   2.097   4.711   1.750  1.1154  0.5499  1.6897
  819MOL0     H10507   1.996   4.783   1.871 -0.6099  0.5044 -0.8576
  819MOL0     H10508   2.016   4.574   1.962  0.2839 -3.5376  0.0640
  819MOL0     H10509   1.842   4.603   1.907 -1.7682 -2.0708 -4.3279
  819MOL0     H10510   1.924   4.445   1.707  0.2536 -1.8131 -0.0198
  819MOL0     H10511   2.075   4.435   1.782 -0.7542 -3.6485 -2.5017
  819MOL0     H10512   1.923   4.238   1.830  0.7697  0.4279 -0.7023
  819MOL0     H10513   1.803   4.359   1.890  1.0394  0.3712  0.4242
  819MOL0     H10514   2.064   4.293   2.028  0.7278  0.1840 -2.0421
  819MOL0     H10515   1.926   4.384   2.097 -1.5368 -0.8729  0.3433
  819MOL0     H10516   1.688   4.179   2.028 -0.9418 -1.6087  0.6885
  819MOL0     H10517   1.668   3.859   2.259  0.7900  0.5992  1.2279
  819MOL0     H10518   1.562   3.985   2.190 -1.5934 -2.0084  1.1382
  819MOL0     H10519   1.604   3.905   1.948 -1.0570 -0.0651  0.3177
  819MOL0     H10520   1.732   3.797   2.009 -0.3935 -1.5780  3.3804
  819MOL0     H10521   1.567   3.670   2.139  0.6004  1.3932  0.7559
  819MOL0     H10522   1.541   3.662   1.963  1.5677 -0.7756  1.1123
  819MOL0     H10523   1.407   3.817   2.187  2.4608 -1.3379  0.9147
  819MOL0     H10524   1.338   3.685   2.075  2.0757 -0.4125 -2.1037
  819MOL0     H10525   1.206   3.913   1.780  0.4316  1.2646  0.1423
  819MOL0     H10526   0.952   3.929   1.775  0.4406 -0.3876 -0.1267
  819MOL0     H10527   0.638   4.213   1.986  0.0112 -0.3229  0.1811
  819MOL0     H10528   0.412   4.300   2.000 -1.1688 -0.8110  0.0505
  819MOL0     H10529   0.129   4.368   2.260 -1.3761 -0.1501 -0.1858
  819MOL0     H10530   0.257   4.394   2.148 -1.3709  2.0946  2.1023
  819MOL0     H10531   0.025   4.364   2.054 -2.8258 -1.1498  0.8117
  819MOL0     H10532   0.133   4.244   1.990 -1.9773 -0.4118 -1.5440
  819MOL0     H10533   0.023   4.074   2.152 -1.4633 -1.4259 -0.8333
  819MOL0     H10534  -0.087   4.203   2.214  1.1173 -1.2713  1.9131
  819MOL0     H10535  -0.052   4.124   1.923 -0.2610 -0.6269  0.1163
  819MOL0     H10536  -0.160   4.254   1.977  1.1926 -0.9615  0.5090
  819MOL0     H10537  -0.290   4.097   2.106 -0.6343 -2.8163 -0.1051
  819MOL0     H10538  -0.211   3.960   2.034 -0.8776 -0.2913  2.0880
  819MOL0     H10539  -0.430   4.048   1.946  1.8404 -0.1178  2.5746
  819MOL0     H10540  -0.334   4.177   1.860  0.6884 -0.5433 -1.0124
  819MOL0     H10541  -0.327   3.889   1.786  0.2136 -0.0505  2.9479
  819MOL0     H10542  -0.188   3.990   1.762 -0.4951  2.0912 -2.3094
  819MOL0     H10543  -0.328   4.152   1.626 -1.7155  0.5309 -0.9208
  819MOL0     H10544  -0.350   3.994   1.549 -0.7485 -0.8100 -0.0701
  819MOL0     H10545   0.338   4.018   2.311 -0.5953 -2.3693 -1.3559
  819MOL0     H10546   0.556   3.910   2.279 -4.4298 -0.5951  2.2097
  819MOL0     H10547   0.952   3.903   2.208  0.5625  4.7879  0.5016
  819MOL0     H10548   1.191   3.853   2.211 -2.5026  1.4151  1.1928
  819MOL0     H10549   2.201   4.961   1.320 -0.8375 -0.9232  1.6198
  819MOL0     H10550   2.239   5.014   1.069  1.8030 -1.9439 -0.6833
  819MOL0     H10551   1.994   5.049   0.681 -1.5044 -1.6957 -2.4278
  819MOL0     H10552   1.996   5.181   0.480  0.3959 -0.0582 -2.5127
  819MOL0     H10553   2.052   5.341   0.311 -3.4294 -2.6801  2.0221
  819MOL0     H10554   2.022   5.164   0.285 -1.0309  0.0776 -1.2560
  819MOL0     H10555   2.127   5.179   0.066  1.2425  1.9483 -1.6860
  819MOL0     H10556   2.151   5.359   0.076  0.0499 -0.2680 -2.3572
  819MOL0     H10557   1.910   5.383   0.085  1.6552  1.5830 -2.4875
  819MOL0     H10558   1.896   5.202   0.112  1.3566 -0.5694  0.7881
  819MOL0     H10559   2.007   5.350  -0.142 -1.6672 -0.2827 -2.2583
  819MOL0     H10560   1.994   5.172  -0.124  1.9686 -0.6467  2.9584
  819MOL0     H10561   1.596   5.289  -0.232  0.8160  0.2992 -1.6459
  819MOL0     H10562   2.427   5.095   0.446 -0.3241 -1.3088  0.3414
  819MOL0     H10563   2.550   5.011   0.601 -0.3902  2.9223 -0.0435
  819MOL0     H10564   2.488   4.992   0.764 -2.8016 -0.4322  0.3960
  819MOL0     H10565   2.460   4.866   0.653 -1.7571  0.0867  2.5454
  820MOL0     O10566   5.259  10.203   7.367 -0.2975 -0.3878  0.3535
  820MOL0     C10567   5.160  10.149   7.319 -0.5584 -0.1025 -0.1915
  820MOL0     O10568   5.154  10.021   7.270 -0.3214  0.4117  0.4123
  820MOL0     C10569   5.264   9.938   7.281  0.2851 -0.6935 -0.5198
  820MOL0     C10570   5.373   9.942   7.382  0.1724 -0.3208  0.5266
  820MOL0     C10571   5.491   9.868   7.352  0.9439  0.4952  0.4382
  820MOL0     C10572   5.494   9.774   7.246  0.1285 -0.1473  0.1706
  820MOL0     O10573   5.600   9.687   7.230 -0.3683 -0.4032 -0.1150
  820MOL0     C10574   5.606   9.621   7.108  0.5317  0.0592  0.8686
  820MOL0     C10575   5.738   9.549   7.108 -0.5674  1.1492  0.8976
  820MOL0     C10576   5.865   9.645   7.106  0.4785  0.2034 -0.4741
  820MOL0     C10577   5.984   9.572   7.173  1.0148  0.4908  0.0103
  820MOL0     C10578   6.103   9.675   7.177  0.3383 -0.7889 -0.2583
  820MOL0     C10579   6.224   9.617   7.254 -0.0488 -0.3021 -0.6548
  820MOL0     C10580   6.342   9.708   7.229  0.5263 -0.1415 -0.4843
  820MOL0     C10581   6.460   9.623   7.267  0.5534 -0.3296  0.6089
  820MOL0     N10582   6.499   9.647   7.408  0.2182 -0.4331  0.8584
  820MOL0     C10583   6.552   9.763   7.464 -0.1432 -0.1918  0.4177
  820MOL0     C10584   6.574   9.729   7.602 -0.1426  0.1520  0.5204
  820MOL0     C10585   6.627   9.823   7.698 -0.5550  0.5970 -0.3982
  820MOL0     C10586   6.764   9.885   7.663 -0.5462  0.2395  0.6428
  820MOL0     C10587   6.804   9.984   7.763  0.2002 -0.2118 -0.0598
  820MOL0     C10588   6.718  10.114   7.759  0.1444 -0.1101 -0.4596
  820MOL0     O10589   6.803  10.226   7.743 -0.9608 -0.3322 -0.4346
  820MOL0     C10590   6.845  10.301   7.855 -0.6980  0.1054 -0.6460
  820MOL0     C10591   6.826  10.266   7.987 -0.1400 -0.1621 -0.6730
  820MOL0     C10592   6.868  10.347   8.094 -0.2154 -0.5132  0.2428
  820MOL0     C10593   6.934  10.474   8.069 -0.5151  0.5917  0.3937
  820MOL0     C10594   6.979  10.559   8.181  1.0821  0.9404 -0.3314
  820MOL0     O10595   6.967  10.515   8.308 -0.5350  0.1070  0.6103
  820MOL0     C10596   7.012  10.587   8.417 -0.2159 -0.6502  0.1396
  820MOL0     C10597   7.088  10.704   8.414  1.0055 -0.6716  1.1244
  820MOL0     C10598   7.134  10.757   8.536  0.2231 -0.4925 -0.3844
  820MOL0     C10599   7.089  10.708   8.660  0.7816  0.0013  0.6255
  820MOL0     O10600   7.124  10.778   8.772  0.2269  0.0894  0.0875
  820MOL0     C10601   7.029  10.804   8.871  0.9674 -0.9715 -0.0752
  820MOL0     C10602   7.069  10.724   8.994  0.7188  0.4913  0.0791
  820MOL0     C10603   7.213  10.755   9.039  0.6465  0.1081  0.1584
  820MOL0     C10604   7.222  10.883   9.116 -0.2009  0.2420  0.3069
  820MOL0     C10605   7.358  10.886   9.179 -0.1697 -0.6233  0.3173
  820MOL0     C10606   7.474  10.909   9.075  0.2303  1.2884  0.6846
  820MOL0     C10607   7.608  10.911   9.159  0.8733 -0.9470 -0.5860
  820MOL0     C10608   7.714  10.967   9.057 -0.1425  1.4951  0.0520
  820MOL0    Cl10609   7.730  11.144   9.074  0.4138 -0.1375 -0.5071
  820MOL0     C10610   7.014  10.584   8.653  0.3386 -0.5151 -0.2901
  820MOL0     C10611   6.975  10.525   8.536 -0.5109 -0.1854 -0.9756
  820MOL0     O10612   7.012  10.670   8.144  0.4663  0.0088 -0.5262
  820MOL0     C10613   6.925  10.509   7.931 -0.0710 -0.9902  0.5693
  820MOL0     C10614   6.890  10.425   7.831  0.0160  0.2142 -0.2977
  820MOL0     N10615   6.516   9.610   7.622  0.3412 -0.9850 -1.2154
  820MOL0     N10616   6.472   9.559   7.507 -0.6955  0.1907  0.0897
  820MOL0     C10617   5.383   9.771   7.165  0.6195  0.0846 -0.5362
  820MOL0     C10618   5.267   9.846   7.179 -0.4374  1.0516 -0.1182
  820MOL0     C10619   5.032  10.225   7.300  0.4380 -0.3673 -0.3900
  820MOL0     C10620   4.967  10.202   7.176  0.6164 -1.1121 -0.9489
  820MOL0     C10621   4.846  10.273   7.151  0.1283  0.2089  0.3340
  820MOL0     C10622   4.788  10.368   7.244 -0.7323 -0.5175  1.1769
  820MOL0     O10623   4.688  10.461   7.219 -0.3618  0.3689  0.6423
  820MOL0     C10624   4.638  10.468   7.086 -0.0949  0.9737  1.2677
  820MOL0     C10625   4.749  10.529   6.994  1.4308  0.4132 -0.4081
  820MOL0     C10626   4.691  10.628   6.898  0.1592 -0.8062 -0.6928
  820MOL0     C10627   4.799  10.721   6.834 -0.3631  0.5502  0.4848
  820MOL0     C10628   4.729  10.808   6.742  0.3014 -0.2178  0.0407
  820MOL0     C10629   4.669  10.884   6.667  0.5747 -0.3470  0.7148
  820MOL0     C10630   4.858  10.384   7.363  0.0828  0.1557  0.2320
  820MOL0     C10631   4.977  10.321   7.398  0.6498  0.3149  0.1750
  820MOL0     C10632   5.050  10.363   7.524 -0.2507 -0.1298 -0.2319
  820MOL0     H10633   5.360  10.009   7.466 -1.4040  0.9774 -0.6834
  820MOL0     H10634   5.582   9.865   7.410  0.4003 -2.2432  1.2958
  820MOL0     H10635   5.516   9.560   7.107  0.3270  0.3632  0.6584
  820MOL0     H10636   5.605   9.691   7.025 -4.2063 -1.6048 -0.7966
  820MOL0     H10637   5.735   9.483   7.021  2.5386  2.4955 -0.3953
  820MOL0     H10638   5.728   9.500   7.206 -1.7141  3.1037  1.8239
  820MOL0     H10639   5.850   9.731   7.171 -1.0910  1.4825 -2.3847
  820MOL0     H10640   5.880   9.687   7.006 -1.9264 -2.2982 -2.0616
  820MOL0     H10641   5.952   9.540   7.273  0.4545 -1.5077 -0.7521
  820MOL0     H10642   6.010   9.484   7.114  0.9894 -0.6669  1.6476
  820MOL0     H10643   6.143   9.694   7.077 -0.9763  0.4177 -0.5841
  820MOL0     H10644   6.061   9.767   7.220 -1.1600 -2.0246  1.0501
  820MOL0     H10645   6.211   9.587   7.359 -0.7578 -0.0969 -0.6748
  820MOL0     H10646   6.238   9.526   7.195  0.8658 -0.6304  0.0565
  820MOL0     H10647   6.334   9.796   7.294 -1.0188 -0.9795  0.5241
  820MOL0     H10648   6.350   9.743   7.126  6.4475  2.2707  0.3833
  820MOL0     H10649   6.439   9.517   7.251 -2.4945  0.1824  0.7702
  820MOL0     H10650   6.542   9.652   7.201  0.9889  0.6685  1.5399
  820MOL0     H10651   6.586   9.854   7.417 -1.0971 -1.1641 -2.3641
  820MOL0     H10652   6.554   9.901   7.721 -2.8070 -0.8809 -2.0983
  820MOL0     H10653   6.639   9.767   7.791  1.0117  3.9767  1.6349
  820MOL0     H10654   6.832   9.800   7.661 -2.1316 -1.1305  1.8614
  820MOL0     H10655   6.765   9.936   7.566  0.9181  0.8290  0.9504
  820MOL0     H10656   6.910  10.002   7.747  0.5376 -0.0737  2.0726
  820MOL0     H10657   6.806   9.927   7.856  2.0508  1.8903  1.2853
  820MOL0     H10658   6.649  10.132   7.842 -0.3302  3.1011 -1.4099
  820MOL0     H10659   6.661  10.107   7.666  0.1443 -1.0333 -0.4027
  820MOL0     H10660   6.785  10.170   8.018 -0.9453  1.0424  2.2446
  820MOL0     H10661   6.852  10.314   8.197 -0.9868 -5.7757 -1.2615
  820MOL0     H10662   7.127  10.764   8.332 -0.2958  2.0644  2.3454
  820MOL0     H10663   7.183  10.854   8.534  1.0835 -0.8701  0.9127
  820MOL0     H10664   7.030  10.906   8.910  2.1588 -1.2595  0.7285
  820MOL0     H10665   6.928  10.787   8.835  1.5915 -4.7567 -0.4706
  820MOL0     H10666   6.996  10.741   9.073  1.8540  1.2911  0.9917
  820MOL0     H10667   7.072  10.616   8.976  2.0018  0.4541  0.4368
  820MOL0     H10668   7.233  10.670   9.105 -1.4744  1.7998  3.2316
  820MOL0     H10669   7.281  10.742   8.954 -1.3777 -2.3386 -1.2693
  820MOL0     H10670   7.149  10.892   9.197 -0.9503  0.4086 -0.3748
  820MOL0     H10671   7.211  10.969   9.049  1.4962  2.7012  2.9277
  820MOL0     H10672   7.379  10.796   9.238  3.7726 -0.3149 -0.3382
  820MOL0     H10673   7.367  10.971   9.247 -0.2381  0.0907 -0.5527
  820MOL0     H10674   7.486  10.830   9.000  3.9541  2.3583 -0.0172
  820MOL0     H10675   7.456  10.994   9.009  0.2725 -0.0558 -1.1222
  820MOL0     H10676   7.635  10.813   9.199 -0.4834 -1.2642 -0.4106
  820MOL0     H10677   7.588  10.984   9.238  0.3191  0.7333 -2.1765
  820MOL0     H10678   7.816  10.938   9.087  0.5355  2.8368 -0.8401
  820MOL0     H10679   7.710  10.923   8.957  0.0058 -0.2272  0.7652
  820MOL0     H10680   7.006  10.538   8.751  2.0721 -0.1964  0.0220
  820MOL0     H10681   6.921  10.430   8.534 -0.0196 -0.4590 -2.1344
  820MOL0     H10682   6.960  10.610   7.914 -1.8232 -0.0697  2.1150
  820MOL0     H10683   6.886  10.453   7.726  1.4073  1.4558 -0.0524
  820MOL0     H10684   5.373   9.707   7.079 -0.6973 -1.0087  0.3847
  820MOL0     H10685   5.197   9.836   7.097 -0.6187 -2.9552  0.3312
  820MOL0     H10686   4.998  10.131   7.100  0.5682 -0.4640 -1.5839
  820MOL0     H10687   4.804  10.259   7.052 -0.4322 -0.0156  0.5994
  820MOL0     H10688   4.547  10.526   7.066 -0.4609 -0.5133 -2.0310
  820MOL0     H10689   4.612  10.367   7.052 -0.6432  1.8352 -1.0642
  820MOL0     H10690   4.785  10.444   6.935 -0.3096 -0.9255  0.3546
  820MOL0     H10691   4.826  10.579   7.054  0.4192  1.3871  0.1167
  820MOL0     H10692   4.628  10.702   6.948 -0.5529 -1.9954  0.2376
  820MOL0     H10693   4.631  10.575   6.823 -2.2960  1.4466 -0.5047
  820MOL0     H10694   4.855  10.779   6.909  0.3685  2.0633 -1.1731
  820MOL0     H10695   4.867  10.653   6.782  0.9667  2.2001 -0.0412
  820MOL0     H10696   4.610  10.954   6.611  0.4541  1.0177  2.4442
  820MOL0     H10697   4.814  10.453   7.435 -3.4565 -2.0856  0.4392
  820MOL0     H10698   5.026  10.467   7.552  0.1835 -0.2069  0.4333
  820MOL0     H10699   5.018  10.297   7.605 -0.0389  1.0537  0.8547
  820MOL0     H10700   5.157  10.346   7.513 -0.3617 -1.3317  0.3453
  821MOL0     O10701   8.270   4.578   7.021  0.3504  0.5509  0.0720
  821MOL0     C10702   8.345   4.657   6.970 -0.5974  0.4744 -0.1981
  821MOL0     O10703   8.316   4.790   6.955 -0.0430  0.3149  0.4447
  821MOL0     C10704   8.194   4.855   6.991 -0.3660 -0.0021  0.0733
  821MOL0     C10705   8.174   4.979   6.926 -1.0133  0.8266 -0.2554
  821MOL0     C10706   8.061   5.052   6.950 -0.5344 -0.1115 -0.7826
  821MOL0     C10707   7.965   5.003   7.031 -0.1033  0.3119  0.1236
  821MOL0     O10708   7.869   5.102   7.044  0.6456 -1.0294  0.2124
  821MOL0     C10709   7.738   5.049   7.076 -0.8328 -0.6296 -0.3755
  821MOL0     C10710   7.642   5.168   7.041 -0.4179 -0.4941 -0.4149
  821MOL0     C10711   7.499   5.163   7.090 -0.0390  0.4280 -1.1698
  821MOL0     C10712   7.435   5.305   7.066 -0.8649  0.4316 -0.1175
  821MOL0     C10713   7.293   5.326   7.118  0.5604  0.3704 -0.6763
  821MOL0     C10714   7.247   5.468   7.090 -0.5436 -0.1927  0.2691
  821MOL0     C10715   7.153   5.521   7.199  0.3336 -0.0748 -0.3294
  821MOL0     C10716   7.119   5.674   7.206  0.8884  0.1505 -1.1895
  821MOL0     N10717   7.042   5.711   7.082  0.3016  0.4403  0.2548
  821MOL0     C10718   7.096   5.777   6.972  0.4167 -0.1985 -0.0698
  821MOL0     C10719   6.995   5.813   6.887 -0.2827 -0.1288 -0.3882
  821MOL0     C10720   7.007   5.890   6.755 -0.9544 -0.3819  0.0614
  821MOL0     C10721   6.924   6.021   6.745  0.3255 -1.0627 -1.3944
  821MOL0     C10722   6.768   6.003   6.715 -0.2055  0.1675  0.2941
  821MOL0     C10723   6.697   6.141   6.712  0.6787  1.0257 -0.3418
  821MOL0     O10724   6.724   6.210   6.832 -0.0911  0.3819 -0.5731
  821MOL0     C10725   6.691   6.345   6.843 -0.6832  0.1307  0.5238
  821MOL0     C10726   6.755   6.411   6.943  0.5036  0.0776 -0.5096
  821MOL0     C10727   6.724   6.548   6.970 -0.9289  0.2760 -0.1149
  821MOL0     C10728   6.630   6.614   6.890 -0.5590 -0.4887 -0.2339
  821MOL0     C10729   6.579   6.742   6.933  0.7805 -0.3302 -0.0168
  821MOL0     O10730   6.449   6.762   6.897  0.0503 -0.0024  0.4596
  821MOL0     C10731   6.402   6.890   6.892 -0.7270 -0.1052  1.1542
  821MOL0     C10732   6.411   6.979   7.001 -0.0424 -0.7676 -0.3502
  821MOL0     C10733   6.374   7.117   6.991  0.1947  0.6031 -0.3473
  821MOL0     C10734   6.335   7.171   6.864  0.0851  0.7706  0.5674
  821MOL0     O10735   6.313   7.299   6.845  0.6481 -0.0627 -0.1203
  821MOL0     C10736   6.184   7.362   6.809 -0.0009 -0.1094 -0.0007
  821MOL0     C10737   6.184   7.500   6.869 -0.0589 -0.8124  0.0663
  821MOL0     C10738   6.051   7.568   6.854  0.5371 -0.8015  1.3887
  821MOL0     C10739   6.037   7.615   6.704 -0.6773  0.3901 -0.0676
  821MOL0     C10740   5.920   7.708   6.680 -0.2687  1.0938 -0.3240
  821MOL0     C10741   5.937   7.851   6.733  0.0970  0.4838 -0.1528
  821MOL0     C10742   5.840   7.951   6.680 -0.0328 -0.0146  0.7837
  821MOL0     C10743   5.838   8.067   6.781  0.5936 -0.3227 -0.0335
  821MOL0    Cl10744   5.705   8.178   6.730 -0.1497  0.0628  0.1083
  821MOL0     C10745   6.327   7.088   6.759  0.3922  0.2970  0.1196
  821MOL0     C10746   6.354   6.951   6.771  0.1096  0.3146 -0.2920
  821MOL0     O10747   6.655   6.831   6.970 -0.3292  0.7153 -1.5901
  821MOL0     C10748   6.572   6.545   6.784  0.3689  0.5188 -0.3739
  821MOL0     C10749   6.595   6.409   6.763  0.1369 -0.4998  0.9468
  821MOL0     N10750   6.882   5.754   6.940 -0.6253 -0.1925 -1.1995
  821MOL0     N10751   6.915   5.696   7.054 -0.4246  0.1139 -0.0402
  821MOL0     C10752   7.979   4.882   7.093  0.5322  0.0792 -0.6539
  821MOL0     C10753   8.098   4.811   7.084 -0.0846 -0.2612  0.0737
  821MOL0     C10754   8.487   4.621   6.943 -0.4948 -0.5364 -0.1192
  821MOL0     C10755   8.577   4.729   6.929 -0.2594  0.5555  0.7664
  821MOL0     C10756   8.717   4.698   6.908  0.0966  0.0051  0.4601
  821MOL0     C10757   8.766   4.556   6.900 -0.6275  0.0274 -0.5161
  821MOL0     O10758   8.895   4.510   6.901  0.5856 -0.4091  0.3211
  821MOL0     C10759   8.992   4.613   6.896 -0.1117 -0.5159  0.5808
  821MOL0     C10760   9.011   4.664   7.039  0.4150  0.2323 -0.4446
  821MOL0     C10761   9.132   4.755   7.053 -0.4553 -0.5783  0.4088
  821MOL0     C10762   9.125   4.843   7.185  0.8052 -0.7769  0.3780
  821MOL0     C10763   9.244   4.830   7.259 -0.3249  0.6367  0.3252
  821MOL0     C10764   9.351   4.826   7.303 -0.6056 -0.2759 -0.5209
  821MOL0     C10765   8.670   4.456   6.919 -0.3011  0.5446 -0.3897
  821MOL0     C10766   8.529   4.486   6.933 -1.0580 -0.8502 -0.7692
  821MOL0     C10767   8.430   4.365   6.924  0.0991 -0.3712 -0.1824
  821MOL0     H10768   8.253   5.016   6.861 -1.5053  1.6463 -0.4010
  821MOL0     H10769   8.055   5.150   6.903  0.9632  0.1901 -0.4046
  821MOL0     H10770   7.701   4.965   7.016 -2.7339 -1.8640  2.3112
  821MOL0     H10771   7.716   5.018   7.178 -0.4450  1.0474  0.2537
  821MOL0     H10772   7.643   5.173   6.931 -1.6015  0.7535 -0.3924
  821MOL0     H10773   7.684   5.262   7.079  0.1317 -0.5397 -0.8873
  821MOL0     H10774   7.499   5.135   7.195 -0.5131 -2.2778 -1.8074
  821MOL0     H10775   7.432   5.090   7.043 -1.6643 -0.1285  1.7995
  821MOL0     H10776   7.503   5.377   7.112 -1.2137 -1.3284  3.4193
  821MOL0     H10777   7.441   5.329   6.959 -0.7731  1.5490  0.1242
  821MOL0     H10778   7.215   5.261   7.078 -0.5710  0.3709  1.4069
  821MOL0     H10779   7.300   5.308   7.225 -2.5743 -5.0247 -1.0034
  821MOL0     H10780   7.335   5.532   7.091 -1.3394  0.9464 -0.4719
  821MOL0     H10781   7.199   5.478   6.992 -0.6775  0.8098  0.4288
  821MOL0     H10782   7.214   5.500   7.287  1.6932 -1.7047 -1.6077
  821MOL0     H10783   7.063   5.461   7.218  2.1978 -1.8209  4.7706
  821MOL0     H10784   7.059   5.695   7.296 -1.3085  0.1730 -2.5828
  821MOL0     H10785   7.209   5.736   7.209 -0.5110  2.2622  0.1139
  821MOL0     H10786   7.201   5.799   6.960  0.7540 -1.1042  1.0298
  821MOL0     H10787   7.108   5.924   6.732 -0.5318 -1.2625  0.5642
  821MOL0     H10788   6.981   5.820   6.675 -0.3003  0.2647 -0.7340
  821MOL0     H10789   6.938   6.073   6.839  0.8692  0.1902 -2.1496
  821MOL0     H10790   6.956   6.090   6.667  0.4862  1.4214  0.7556
  821MOL0     H10791   6.723   5.944   6.795  1.5621 -2.4953 -0.5247
  821MOL0     H10792   6.752   5.961   6.615  3.1349 -1.6791  0.3885
  821MOL0     H10793   6.591   6.115   6.704  1.2559 -1.6065 -0.0910
  821MOL0     H10794   6.732   6.197   6.625  1.4510  0.5360 -0.3499
  821MOL0     H10795   6.822   6.365   7.015 -1.5281 -2.8160 -0.2819
  821MOL0     H10796   6.765   6.602   7.055 -1.7011  2.2950 -0.9566
  821MOL0     H10797   6.457   6.942   7.092 -0.7771 -1.8265 -0.3922
  821MOL0     H10798   6.386   7.179   7.079  2.0836  0.2425 -0.3159
  821MOL0     H10799   6.170   7.362   6.700  0.2365 -1.1328 -0.0448
  821MOL0     H10800   6.096   7.315   6.854 -0.0729  1.2846  1.3758
  821MOL0     H10801   6.206   7.484   6.975  1.3911 -0.6557 -0.1944
  821MOL0     H10802   6.267   7.561   6.832  2.1145 -3.8484 -0.4496
  821MOL0     H10803   5.963   7.508   6.878 -0.0878  0.0445  1.2516
  821MOL0     H10804   6.043   7.654   6.922  0.6857  1.5025 -1.3326
  821MOL0     H10805   6.020   7.524   6.645 -0.2264 -0.1524  0.6293
  821MOL0     H10806   6.125   7.668   6.667 -0.5264 -0.4757 -0.9977
  821MOL0     H10807   5.825   7.671   6.719  0.5139 -1.0935 -0.3521
  821MOL0     H10808   5.914   7.716   6.571  2.2614  0.3487 -0.5982
  821MOL0     H10809   5.931   7.837   6.841  2.0047 -0.8350 -0.1679
  821MOL0     H10810   6.037   7.890   6.713  0.8180 -1.2848 -0.2367
  821MOL0     H10811   5.735   7.921   6.673  0.1507 -0.2336 -2.7743
  821MOL0     H10812   5.854   7.984   6.576 -4.1866 -3.8553 -1.3282
  821MOL0     H10813   5.835   8.029   6.883  0.4827  0.9446  0.4589
  821MOL0     H10814   5.936   8.117   6.785  1.5334 -2.1505  1.5291
  821MOL0     H10815   6.308   7.123   6.658  3.0105 -3.2825 -1.8525
  821MOL0     H10816   6.338   6.889   6.684  1.4138 -2.6177  1.4071
  821MOL0     H10817   6.506   6.598   6.716  0.0488  0.0647 -0.4192
  821MOL0     H10818   6.549   6.364   6.675 -0.8424 -0.9417  1.6776
  821MOL0     H10819   7.907   4.854   7.170  2.4203 -1.0269  0.7969
  821MOL0     H10820   8.119   4.725   7.146 -0.2201  0.7168  1.5310
  821MOL0     H10821   8.546   4.833   6.929  1.0832  0.9749 -0.5696
  821MOL0     H10822   8.771   4.790   6.890 -3.9055  2.2703 -1.4271
  821MOL0     H10823   8.989   4.700   6.830  1.1027  0.1296  1.3515
  821MOL0     H10824   9.078   4.560   6.854 -1.8582 -2.5156 -0.7474
  821MOL0     H10825   9.012   4.570   7.094 -2.6870  0.4625  0.1909
  821MOL0     H10826   8.921   4.724   7.056 -0.0239 -0.2734 -0.9541
  821MOL0     H10827   9.151   4.827   6.973  0.6465 -1.7032 -0.3781
  821MOL0     H10828   9.226   4.699   7.056 -0.4902 -0.6148  1.1145
  821MOL0     H10829   9.113   4.950   7.165 -0.2109 -0.4603  2.4506
  821MOL0     H10830   9.042   4.805   7.245  0.2699 -1.4209 -0.7346
  821MOL0     H10831   9.443   4.836   7.357 -2.4365 -2.2713  3.4165
  821MOL0     H10832   8.709   4.355   6.921  0.2635  0.7662 -0.0447
  821MOL0     H10833   8.378   4.366   6.828 -2.1244  0.4452  0.9569
  821MOL0     H10834   8.490   4.274   6.929  2.6887  1.1885 -0.8641
  821MOL0     H10835   8.358   4.351   7.005 -0.4284  1.7222 -0.2218
  822MOL0     O10836   7.088   4.081  10.173  0.2514  0.5920 -0.1754
  822MOL0     C10837   6.975   4.108  10.141  0.2999 -0.1519 -1.0814
  822MOL0     O10838   6.925   4.234  10.131  0.5163  0.4309 -0.6281
  822MOL0     C10839   6.997   4.345  10.134 -0.2699 -0.0736  0.6083
  822MOL0     C10840   7.098   4.388  10.223 -0.3200 -0.3493 -0.0602
  822MOL0     C10841   7.182   4.491  10.202 -0.0112 -1.0375  0.1643
  822MOL0     C10842   7.166   4.565  10.082 -0.6742 -0.4467  0.3461
  822MOL0     O10843   7.235   4.680  10.043  0.7541 -0.7192  0.0267
  822MOL0     C10844   7.374   4.650  10.015  0.0379 -0.2406 -0.1086
  822MOL0     C10845   7.444   4.766   9.951 -0.4485 -0.5766  0.7821
  822MOL0     C10846   7.449   4.902  10.029 -0.3490  0.2909 -0.6437
  822MOL0     C10847   7.532   5.017   9.973  0.2031 -0.5543  1.0203
  822MOL0     C10848   7.476   5.151  10.010  0.0141 -0.4974 -0.9705
  822MOL0     C10849   7.519   5.185  10.151 -0.0098 -0.4096  0.4330
  822MOL0     C10850   7.457   5.315  10.202 -0.6344  0.3109 -0.9779
  822MOL0     C10851   7.496   5.442  10.135 -0.2351 -0.3188  0.6327
  822MOL0     N10852   7.443   5.460  10.004 -0.5389 -0.2295  0.1504
  822MOL0     C10853   7.312   5.423   9.967 -1.1973  0.4842  0.7119
  822MOL0     C10854   7.301   5.447   9.838 -0.5134 -1.1737  1.3834
  822MOL0     C10855   7.174   5.442   9.764 -0.5778  0.1531 -0.0315
  822MOL0     C10856   7.170   5.410   9.611 -0.0576 -0.1785 -0.3804
  822MOL0     C10857   7.224   5.268   9.572 -0.3021 -1.2622 -0.1772
  822MOL0     C10858   7.374   5.252   9.604 -0.5954  0.7918 -0.4428
  822MOL0     O10859   7.439   5.146   9.528  0.4622  0.1842 -0.6902
  822MOL0     C10860   7.575   5.143   9.537  0.5575 -1.0019  0.4398
  822MOL0     C10861   7.648   5.206   9.638 -0.1462  0.5157 -0.1082
  822MOL0     C10862   7.786   5.206   9.625 -0.4478  0.3895  0.5087
  822MOL0     C10863   7.857   5.138   9.521  0.1103  0.5918  0.6523
  822MOL0     C10864   7.995   5.147   9.514 -0.9066  0.5451  0.2301
  822MOL0     O10865   8.065   5.239   9.596 -0.0694  0.1492  0.0825
  822MOL0     C10866   8.197   5.236   9.565  0.7881 -0.4109  0.4674
  822MOL0     C10867   8.258   5.331   9.480  1.3998 -0.8250 -0.5699
  822MOL0     C10868   8.390   5.334   9.458 -0.2960 -0.5049  0.0183
  822MOL0     C10869   8.478   5.231   9.502 -0.6056 -1.1358 -0.5746
  822MOL0     O10870   8.609   5.230   9.490 -0.6167  0.7199 -0.5364
  822MOL0     C10871   8.670   5.350   9.540 -0.3352 -0.1197 -0.9996
  822MOL0     C10872   8.821   5.329   9.567 -0.2899 -0.6410  0.0483
  822MOL0     C10873   8.856   5.195   9.627 -0.1502  0.3684  0.2670
  822MOL0     C10874   9.007   5.191   9.677 -0.4334 -0.0966 -0.1764
  822MOL0     C10875   9.038   5.048   9.733 -0.6617  0.1688  0.9436
  822MOL0     C10876   9.191   5.045   9.762  0.3563  0.4740  0.2038
  822MOL0     C10877   9.233   4.915   9.826  0.0103  0.3196  0.1443
  822MOL0     C10878   9.366   4.931   9.912  0.2882 -0.0025 -0.5063
  822MOL0    Cl10879   9.515   4.940   9.800 -0.4560 -0.2030 -0.4456
  822MOL0     C10880   8.422   5.129   9.578  0.5792  0.0767 -1.0150
  822MOL0     C10881   8.281   5.135   9.609 -0.0298  0.1224  0.4758
  822MOL0     O10882   8.048   5.057   9.444  0.0540 -0.4798  0.3052
  822MOL0     C10883   7.779   5.068   9.421  1.4599  0.1054  0.0917
  822MOL0     C10884   7.636   5.076   9.427  0.4662 -0.1768  0.2742
  822MOL0     N10885   7.423   5.505   9.800 -0.6111  0.5064  0.5735
  822MOL0     N10886   7.509   5.521   9.901  0.6278  0.7221 -0.3929
  822MOL0     C10887   7.064   4.531   9.992  0.0987  0.2136  0.4839
  822MOL0     C10888   6.984   4.429  10.021  1.1771 -0.3223  0.1779
  822MOL0     C10889   6.889   3.986  10.133  0.3427 -0.5758 -0.2692
  822MOL0     C10890   6.948   3.860  10.102 -0.2293  0.2144  0.2690
  822MOL0     C10891   6.863   3.753  10.069 -0.3486  0.2036  0.2377
  822MOL0     C10892   6.724   3.757  10.073  0.5629  0.8338 -0.0073
  822MOL0     O10893   6.661   3.648  10.026  0.6823 -0.8307 -0.0189
  822MOL0     C10894   6.518   3.637  10.039 -0.0040  0.0463 -0.1846
  822MOL0     C10895   6.491   3.496   9.987  0.2544 -0.6017 -0.1846
  822MOL0     C10896   6.345   3.497   9.942  0.2861  0.4602 -0.3368
  822MOL0     C10897   6.248   3.539  10.048  0.3273  0.3176  0.3617
  822MOL0     C10898   6.110   3.505  10.002 -0.0671  0.0488 -0.0621
  822MOL0     C10899   5.992   3.483   9.969  0.3251 -0.0111 -0.7329
  822MOL0     C10900   6.669   3.877  10.116 -0.4440  0.2346 -0.9735
  822MOL0     C10901   6.752   3.989  10.153  0.0331 -0.8068  0.0231
  822MOL0     C10902   6.682   4.102  10.212 -0.4378  0.1101  0.9280
  822MOL0     H10903   7.106   4.314  10.302  2.7569 -2.2147 -1.8663
  822MOL0     H10904   7.245   4.524  10.284 -0.7193  1.6716 -0.2802
  822MOL0     H10905   7.415   4.623  10.113 -0.1674 -2.6001 -0.6297
  822MOL0     H10906   7.386   4.558   9.958 -0.1739 -0.4584  0.1962
  822MOL0     H10907   7.383   4.783   9.862 -0.6695  0.2069  1.0727
  822MOL0     H10908   7.544   4.735   9.919 -0.1889  0.3754  0.6142
  822MOL0     H10909   7.494   4.881  10.127 -2.3472  1.1788  0.5255
  822MOL0     H10910   7.344   4.931  10.042 -1.1355 -1.6387 -2.1563
  822MOL0     H10911   7.637   5.007  10.005  0.9274 -2.1285 -1.5305
  822MOL0     H10912   7.528   5.009   9.864  5.0071 -2.4052  0.7274
  822MOL0     H10913   7.523   5.226   9.946  1.0772  0.0436  0.3987
  822MOL0     H10914   7.367   5.161  10.017  0.1566  1.6756 -1.2222
  822MOL0     H10915   7.482   5.114  10.225 -0.1785 -1.4145 -0.6015
  822MOL0     H10916   7.627   5.184  10.168  0.1786 -1.6346 -0.7099
  822MOL0     H10917   7.492   5.326  10.305 -0.2055  4.4178 -1.4131
  822MOL0     H10918   7.348   5.313  10.200 -0.6925  2.4530 -1.5837
  822MOL0     H10919   7.469   5.524  10.203 -1.1577 -0.8650  0.9451
  822MOL0     H10920   7.605   5.454  10.142 -0.1146  0.4115 -1.7057
  822MOL0     H10921   7.232   5.385  10.030 -1.6954  0.7697  0.2625
  822MOL0     H10922   7.120   5.361   9.814  3.0374 -1.7567  1.1740
  822MOL0     H10923   7.124   5.539   9.760  0.5680  0.8000  0.6688
  822MOL0     H10924   7.064   5.417   9.581 -0.2336  0.5599  0.3864
  822MOL0     H10925   7.232   5.476   9.549  1.2122 -2.2077 -1.3985
  822MOL0     H10926   7.203   5.254   9.466 -0.5425  1.0358 -0.4921
  822MOL0     H10927   7.160   5.189   9.612 -2.0553 -0.3110 -1.0155
  822MOL0     H10928   7.395   5.234   9.710 -2.7519  2.4215  0.3550
  822MOL0     H10929   7.423   5.347   9.582 -0.3495  1.6375  3.0551
  822MOL0     H10930   7.607   5.255   9.725  1.7151 -1.0934  1.7785
  822MOL0     H10931   7.844   5.255   9.703  3.1046 -0.1129 -1.5672
  822MOL0     H10932   8.183   5.401   9.445  1.4685 -0.2996  0.3194
  822MOL0     H10933   8.441   5.413   9.404  1.3522 -2.7265 -1.8938
  822MOL0     H10934   8.671   5.426   9.461 -0.0385 -1.2517 -2.1165
  822MOL0     H10935   8.623   5.395   9.628 -1.2638 -1.1709 -0.9427
  822MOL0     H10936   8.865   5.332   9.467 -0.4024 -0.9537 -0.0103
  822MOL0     H10937   8.860   5.409   9.631  0.7722 -0.5735 -0.6621
  822MOL0     H10938   8.794   5.167   9.713  2.1163  2.3759  2.7211
  822MOL0     H10939   8.846   5.117   9.550  2.6287  0.3198 -0.1492
  822MOL0     H10940   9.028   5.269   9.750 -0.6074 -1.9684  2.0008
  822MOL0     H10941   9.075   5.200   9.592 -1.3468  2.1211 -0.7307
  822MOL0     H10942   9.013   4.968   9.663 -0.4160  0.3171  0.6866
  822MOL0     H10943   8.986   5.041   9.829  0.8926  1.8608  1.9588
  822MOL0     H10944   9.231   5.055   9.661 -0.1379  0.7668  0.0281
  822MOL0     H10945   9.218   5.129   9.827  0.5557  0.3972  0.2184
  822MOL0     H10946   9.260   4.848   9.744  1.7552  2.4795 -1.1558
  822MOL0     H10947   9.151   4.865   9.878 -0.1164  0.4709  0.0955
  822MOL0     H10948   9.374   5.023   9.971  0.8616  2.2970 -3.8815
  822MOL0     H10949   9.370   4.858   9.994  0.6812  0.9821  0.3811
  822MOL0     H10950   8.481   5.054   9.630 -4.2077 -2.0088  2.1495
  822MOL0     H10951   8.247   5.058   9.677 -0.7380 -0.7073 -0.7907
  822MOL0     H10952   7.834   5.024   9.339  1.5733 -0.6441  0.5572
  822MOL0     H10953   7.574   5.034   9.349  1.5517  1.5238 -1.5897
  822MOL0     H10954   7.054   4.594   9.904 -2.5222  0.5848  0.9426
  822MOL0     H10955   6.909   4.399   9.948 -0.6563 -3.1972  2.9755
  822MOL0     H10956   7.055   3.870  10.088 -0.1889  2.3556  1.6388
  822MOL0     H10957   6.909   3.659  10.043 -1.9094 -1.1551  2.1201
  822MOL0     H10958   6.462   3.710   9.979 -1.5882 -0.4008  0.6852
  822MOL0     H10959   6.484   3.656  10.141 -0.3116  3.3582 -0.8026
  822MOL0     H10960   6.520   3.416  10.056  0.5594 -2.2181 -2.0983
  822MOL0     H10961   6.541   3.469   9.893  0.2726  1.4796 -0.8226
  822MOL0     H10962   6.339   3.395   9.902 -0.3546  0.8165 -1.1625
  822MOL0     H10963   6.333   3.566   9.858  0.7834 -0.3356 -1.0897
  822MOL0     H10964   6.271   3.503  10.149 -1.7227  1.6323  1.3694
  822MOL0     H10965   6.238   3.648  10.050 -3.3219  0.1353 -0.7726
  822MOL0     H10966   5.886   3.474   9.965 -0.1959  2.5775  2.5480
  822MOL0     H10967   6.561   3.886  10.114 -0.6028 -1.0424  0.2232
  822MOL0     H10968   6.741   4.178  10.265  1.2146 -0.7069  0.3241
  822MOL0     H10969   6.622   4.160  10.141 -1.5662  0.3622  2.0519
  822MOL0     H10970   6.610   4.058  10.281 -1.9571 -0.4486 -0.9039
  823MOL0     O10971   5.922   9.352  10.874  1.4615  0.2083 -1.1769
  823MOL0     C10972   5.885   9.342  10.995  0.5431  0.2970  0.4897
  823MOL0     O10973   5.959   9.364  11.102  0.5151 -0.1120  0.9589
  823MOL0     C10974   6.094   9.349  11.085  0.4994 -0.7154  0.1311
  823MOL0     C10975   6.156   9.239  11.143  0.1020  0.5472  0.2089
  823MOL0     C10976   6.293   9.230  11.127  0.3212  0.5706  0.2253
  823MOL0     C10977   6.374   9.332  11.070  0.2226 -0.4252  0.5305
  823MOL0     O10978   6.504   9.298  11.069 -1.2559 -0.0344 -0.1574
  823MOL0     C10979   6.593   9.408  11.082  0.6907  0.7950 -0.6883
  823MOL0     C10980   6.737   9.355  11.076 -0.0569  0.1250 -0.1978
  823MOL0     C10981   6.858   9.452  11.083  0.8422  0.3026 -0.4034
  823MOL0     C10982   6.990   9.389  11.092  0.1107 -0.4140 -1.2275
  823MOL0     C10983   7.103   9.483  11.100 -0.9959  0.5395  0.5066
  823MOL0     C10984   7.237   9.423  11.137  0.8368  0.1340 -0.0266
  823MOL0     C10985   7.351   9.522  11.138 -0.3372 -0.2533  0.0504
  823MOL0     C10986   7.490   9.457  11.165  0.0399  0.3377  0.5731
  823MOL0     N10987   7.596   9.554  11.126  0.2921  0.8559  0.3956
  823MOL0     C10988   7.628   9.667  11.208 -0.7159  0.1195  0.0504
  823MOL0     C10989   7.728   9.722  11.137  0.2208  0.3555 -0.0122
  823MOL0     C10990   7.794   9.854  11.167  0.3705  1.2194  0.5246
  823MOL0     C10991   7.931   9.869  11.101  0.6895 -1.1553  0.7018
  823MOL0     C10992   8.025   9.779  11.172  1.5296  0.7255  0.1529
  823MOL0     C10993   8.160   9.797  11.106  0.0100 -0.1056  0.2318
  823MOL0     O10994   8.264   9.746  11.195  0.1506  0.0390  0.5195
  823MOL0     C10995   8.391   9.727  11.130  0.2047 -0.4560 -1.0040
  823MOL0     C10996   8.422   9.624  11.042 -0.2699 -0.0659  0.2475
  823MOL0     C10997   8.557   9.584  11.023 -0.5828 -1.0372 -0.4452
  823MOL0     C10998   8.661   9.667  11.080 -0.2727 -0.1499  0.2915
  823MOL0     C10999   8.804   9.642  11.043  0.5068  1.1894 -0.5882
  823MOL0     O11000   8.885   9.733  11.086  0.5312  0.3431 -0.2419
  823MOL0     C11001   9.020   9.704  11.085 -0.0984 -0.9690 -0.3528
  823MOL0     C11002   9.078   9.683  11.208 -0.3289  0.1366  0.1397
  823MOL0     C11003   9.219   9.692  11.208 -0.0804 -0.5434  0.0193
  823MOL0     C11004   9.298   9.705  11.090  0.4638 -1.1972 -0.9092
  823MOL0     O11005   9.435   9.703  11.086 -0.3756  0.0416  1.1871
  823MOL0     C11006   9.504   9.706  11.209  0.3344 -0.0188 -0.0328
  823MOL0     C11007   9.656   9.694  11.189 -0.7516  0.2490 -0.8940
  823MOL0     C11008   9.706   9.548  11.165 -0.0756 -0.3445  0.6851
  823MOL0     C11009   9.858   9.549  11.139 -0.4243 -0.0074  0.0773
  823MOL0     C11010   9.939   9.614  11.261  0.2382  0.2517  0.1419
  823MOL0     C11011  10.067   9.529  11.285 -0.1922 -0.0740 -0.5113
  823MOL0     C11012  10.163   9.581  11.391 -0.3339  0.3776  0.6172
  823MOL0     C11013  10.316   9.542  11.349 -0.1323 -0.4981  0.2380
  823MOL0    Cl11014  10.417   9.621  11.485 -0.0925 -0.1695 -0.4505
  823MOL0     C11015   9.231   9.732  10.977 -1.2630  0.9698  0.0434
  823MOL0     C11016   9.096   9.725  10.966  0.6278 -0.1209 -0.0056
  823MOL0     O11017   8.833   9.532  10.990  0.0731  0.3024  0.5257
  823MOL0     C11018   8.622   9.773  11.162 -0.5881  0.2903 -0.4585
  823MOL0     C11019   8.492   9.803  11.187 -0.6425  0.2129 -0.3201
  823MOL0     N11020   7.753   9.640  11.025  0.2311  0.0111 -0.1393
  823MOL0     N11021   7.673   9.547  11.014 -0.0836 -0.0746 -0.1255
  823MOL0     C11022   6.313   9.445  11.029 -0.1213 -0.2337  0.3306
  823MOL0     C11023   6.172   9.453  11.033  0.3681 -0.0507  0.2702
  823MOL0     C11024   5.739   9.315  11.014 -0.2350  0.4644  0.2651
  823MOL0     C11025   5.649   9.276  10.902  0.5683 -0.5959  0.2614
  823MOL0     C11026   5.507   9.258  10.921 -0.4450  0.5510  0.7730
  823MOL0     C11027   5.443   9.268  11.039  0.0511  0.0493  0.0323
  823MOL0     O11028   5.307   9.246  11.061  0.0589 -0.9194 -0.1237
  823MOL0     C11029   5.283   9.116  11.099  0.4060 -0.1453 -0.0580
  823MOL0     C11030   5.218   9.024  10.985 -0.1267  0.2825  0.5663
  823MOL0     C11031   5.073   9.056  10.938 -0.6182  0.1130  0.7995
  823MOL0     C11032   5.023   8.943  10.854  1.0589 -0.8946  0.2455
  823MOL0     C11033   5.068   8.957  10.721 -0.0618  0.5172 -0.0511
  823MOL0     C11034   5.121   8.973  10.613 -0.9857  0.5388 -0.8182
  823MOL0     C11035   5.527   9.295  11.149  0.1385  0.6568  0.7867
  823MOL0     C11036   5.665   9.327  11.139 -0.2016  0.2475 -0.1159
  823MOL0     C11037   5.740   9.356  11.267 -0.6261  0.2223 -0.4205
  823MOL0     H11038   6.107   9.149  11.177  0.3834 -0.0048 -0.8056
  823MOL0     H11039   6.338   9.140  11.167  1.9310  0.9011 -0.7513
  823MOL0     H11040   6.579   9.482  11.004 -2.9489 -1.2922 -2.2726
  823MOL0     H11041   6.579   9.451  11.182  1.9529  0.7813 -0.4783
  823MOL0     H11042   6.749   9.314  10.976  1.8759  0.2509 -0.0582
  823MOL0     H11043   6.749   9.276  11.151  1.8249 -0.4700 -1.0880
  823MOL0     H11044   6.839   9.508  11.175  2.6743 -0.9846  0.8195
  823MOL0     H11045   6.850   9.517  10.996 -1.8807  0.7584  0.0978
  823MOL0     H11046   6.985   9.334  11.186 -0.1252  0.1377 -0.9158
  823MOL0     H11047   7.009   9.318  11.011  0.8267 -3.1969  1.2132
  823MOL0     H11048   7.112   9.528  11.000 -3.0116  2.9742  1.3068
  823MOL0     H11049   7.080   9.558  11.177 -0.3986  0.6579  0.5754
  823MOL0     H11050   7.243   9.377  11.236  3.7712 -1.1569 -0.6933
  823MOL0     H11051   7.259   9.335  11.076  3.7225 -1.3520  2.7974
  823MOL0     H11052   7.329   9.581  11.228 -2.4168 -0.4946 -0.2384
  823MOL0     H11053   7.353   9.592  11.054 -2.1470  1.2705  1.1700
  823MOL0     H11054   7.499   9.425  11.269  2.8823  4.4596  1.8579
  823MOL0     H11055   7.499   9.369  11.099  0.3191  2.2672 -2.1375
  823MOL0     H11056   7.578   9.701  11.297 -2.2373 -1.8440  0.0172
  823MOL0     H11057   7.727   9.928  11.121  0.6041  2.6210  2.3167
  823MOL0     H11058   7.789   9.868  11.275 -0.6832  1.7657  0.4239
  823MOL0     H11059   7.917   9.873  10.993  0.0892  0.3131  0.8088
  823MOL0     H11060   7.952   9.973  11.126 -0.4002 -0.1092 -2.2845
  823MOL0     H11061   7.999   9.675  11.154 -1.6867  1.2348  1.3230
  823MOL0     H11062   8.023   9.794  11.280 -1.6713 -1.8704  0.5768
  823MOL0     H11063   8.169   9.906  11.092 -2.6182  0.7582  3.8001
  823MOL0     H11064   8.178   9.735  11.018  1.7858  0.5225  0.1176
  823MOL0     H11065   8.337   9.579  10.992 -0.1178  2.9453 -3.1242
  823MOL0     H11066   8.585   9.495  10.969  1.7521 -0.9945  0.5600
  823MOL0     H11067   9.018   9.669  11.297  1.1934 -2.8157  0.8251
  823MOL0     H11068   9.267   9.682  11.305 -3.0661  0.7800  1.7952
  823MOL0     H11069   9.485   9.802  11.256  0.0817 -0.2629  0.3691
  823MOL0     H11070   9.471   9.621  11.270 -0.3075 -1.9551 -2.8338
  823MOL0     H11071   9.682   9.758  11.104 -0.5029  2.2386  0.6104
  823MOL0     H11072   9.704   9.728  11.280  2.7324 -0.9230 -2.1427
  823MOL0     H11073   9.688   9.486  11.254 -1.9677  0.8315  1.1636
  823MOL0     H11074   9.669   9.506  11.071  3.9888 -2.8057 -0.0871
  823MOL0     H11075   9.884   9.604  11.047 -3.0667 -1.5743 -1.7366
  823MOL0     H11076   9.888   9.445  11.125 -1.1526 -0.1544 -0.4584
  823MOL0     H11077   9.882   9.621  11.354 -1.6424 -1.4479 -0.7981
  823MOL0     H11078   9.956   9.718  11.233  1.3206 -0.0272 -0.2882
  823MOL0     H11079  10.043   9.424  11.302  1.1550 -0.2272  0.6472
  823MOL0     H11080  10.124   9.526  11.192  1.8379  0.8085  0.6350
  823MOL0     H11081  10.145   9.539  11.490  0.5618 -0.9720  0.2397
  823MOL0     H11082  10.151   9.689  11.406  1.0111  0.2774  2.8491
  823MOL0     H11083  10.332   9.434  11.351 -2.0617 -0.8187 -0.0088
  823MOL0     H11084  10.338   9.575  11.247 -2.1408  0.4515  0.0704
  823MOL0     H11085   9.279   9.763  10.885 -4.1407 -0.7015 -2.2271
  823MOL0     H11086   9.041   9.749  10.875 -0.5689  0.5983  0.8697
  823MOL0     H11087   8.701   9.827  11.214 -1.2301  0.5628  0.2616
  823MOL0     H11088   8.463   9.889  11.246  0.5193  1.9743 -2.1982
  823MOL0     H11089   6.367   9.532  10.993 -1.2060  1.3846  2.3467
  823MOL0     H11090   6.120   9.537  10.989 -1.5228 -2.5499 -2.6518
  823MOL0     H11091   5.685   9.260  10.800 -1.7582 -1.3707 -0.5117
  823MOL0     H11092   5.451   9.229  10.833  0.1641 -1.7834  1.0924
  823MOL0     H11093   5.211   9.133  11.180  1.3401  0.4161  0.6660
  823MOL0     H11094   5.362   9.062  11.151  0.5424  0.0910 -0.0173
  823MOL0     H11095   5.208   8.926  11.034 -0.9551  1.3854  2.7450
  823MOL0     H11096   5.287   9.016  10.901  1.1208  5.5985  0.7795
  823MOL0     H11097   5.084   9.143  10.873 -0.9583 -1.1051 -0.9571
  823MOL0     H11098   5.015   9.079  11.028  0.6549 -0.4086  1.7810
  823MOL0     H11099   5.054   8.855  10.912 -1.1144 -1.3807  0.7515
  823MOL0     H11100   4.914   8.931  10.853  1.0821 -1.0348 -0.9460
  823MOL0     H11101   5.195   8.971  10.536  1.4984 -7.0601  0.9222
  823MOL0     H11102   5.479   9.295  11.246  0.5088 -2.0411  1.0694
  823MOL0     H11103   5.806   9.273  11.294  0.7027  1.0702 -0.9549
  823MOL0     H11104   5.804   9.443  11.250 -0.7413  0.2195 -0.8696
  823MOL0     H11105   5.682   9.380  11.357 -3.2823 -2.0576 -1.3717
  824MOL0     O11106   1.407   6.068   8.920  0.2369  0.1729 -0.1573
  824MOL0     C11107   1.393   5.956   8.877  0.3771 -0.2930 -0.8220
  824MOL0     O11108   1.477   5.898   8.783  0.0880  0.6158 -0.3098
  824MOL0     C11109   1.579   5.972   8.733  0.2056 -0.2767 -0.0817
  824MOL0     C11110   1.709   5.950   8.778  0.9184  0.4664  0.5384
  824MOL0     C11111   1.812   6.032   8.739 -0.4615  0.0860 -0.4604
  824MOL0     C11112   1.792   6.127   8.636  0.0411 -1.0652  0.4246
  824MOL0     O11113   1.889   6.208   8.567  0.2615  0.5619 -0.4471
  824MOL0     C11114   2.028   6.188   8.594 -0.1504 -0.0241 -0.2136
  824MOL0     C11115   2.116   6.200   8.469  0.1486 -0.5270 -0.0747
  824MOL0     C11116   2.089   6.302   8.368 -0.2419  0.3882 -0.2302
  824MOL0     C11117   2.088   6.449   8.426 -0.1441  0.2591 -0.5499
  824MOL0     C11118   2.107   6.544   8.305  0.2303  0.0043 -0.1944
  824MOL0     C11119   2.076   6.694   8.325  0.2257 -0.7804 -0.7767
  824MOL0     C11120   2.156   6.751   8.447 -0.5696 -0.0847  0.3704
  824MOL0     C11121   2.115   6.888   8.485 -0.1181 -0.6255 -0.1328
  824MOL0     N11122   2.181   6.920   8.611 -0.9248 -0.3443 -0.2590
  824MOL0     C11123   2.142   6.890   8.737 -0.3498  0.0540 -0.6151
  824MOL0     C11124   2.228   6.933   8.830  0.4208 -0.3327 -0.0686
  824MOL0     C11125   2.203   6.933   8.986 -0.2696 -0.4038 -0.3174
  824MOL0     C11126   2.340   6.940   9.053  0.3375  0.0560 -0.2173
  824MOL0     C11127   2.430   6.820   9.023  0.3119  0.2852 -0.4459
  824MOL0     C11128   2.551   6.801   9.120  0.3206 -0.2379 -0.1722
  824MOL0     O11129   2.611   6.927   9.123 -0.1353 -0.5759 -0.4221
  824MOL0     C11130   2.734   6.951   9.174 -0.2574 -0.2519 -0.5023
  824MOL0     C11131   2.809   6.844   9.234 -0.6884 -0.5071  0.1889
  824MOL0     C11132   2.934   6.871   9.295 -1.0930  0.2701 -0.0888
  824MOL0     C11133   2.976   7.001   9.310  0.2804  0.0553 -0.7516
  824MOL0     C11134   3.102   7.011   9.379 -0.4171 -0.5443  0.4640
  824MOL0     O11135   3.181   6.909   9.405  0.0724  0.2992 -0.4417
  824MOL0     C11136   3.293   6.943   9.482 -0.7465 -1.2082 -0.2691
  824MOL0     C11137   3.404   7.018   9.427 -0.2054  0.0925  1.1520
  824MOL0     C11138   3.517   7.058   9.508 -0.3227 -0.1168  0.1466
  824MOL0     C11139   3.520   7.030   9.641  0.4435  0.5503 -0.3691
  824MOL0     O11140   3.648   7.046   9.695 -0.9518  0.4294 -0.4659
  824MOL0     C11141   3.672   7.053   9.839 -0.3439 -0.2517 -0.4660
  824MOL0     C11142   3.818   7.096   9.872  0.2559 -0.2651  0.1126
  824MOL0     C11143   3.842   7.122  10.027 -0.2533 -0.1222 -0.1989
  824MOL0     C11144   3.998   7.121  10.054  0.3020 -0.4506  0.9310
  824MOL0     C11145   4.025   7.153  10.210 -0.7344 -0.1976 -0.7932
  824MOL0     C11146   3.975   7.048  10.311  1.3757 -0.3146  1.0241
  824MOL0     C11147   3.999   7.111  10.443 -0.5359 -1.0423  0.2141
  824MOL0     C11148   3.970   6.996  10.540 -0.0018  0.1250  0.1282
  824MOL0    Cl11149   4.099   6.866  10.538  0.3442 -0.1399 -0.4190
  824MOL0     C11150   3.405   6.975   9.702  0.0351 -0.3272  0.1077
  824MOL0     C11151   3.295   6.938   9.620 -1.0799 -0.0564  0.0419
  824MOL0     O11152   3.130   7.133   9.405 -0.2913  0.7388  0.4888
  824MOL0     C11153   2.901   7.109   9.257  0.1688 -0.0879  0.6395
  824MOL0     C11154   2.781   7.084   9.189  1.4032  0.1415  0.7306
  824MOL0     N11155   2.331   6.986   8.758 -0.3183  0.4774 -0.4932
  824MOL0     N11156   2.302   6.973   8.629 -0.5497 -0.4404  0.8848
  824MOL0     C11157   1.662   6.146   8.591 -0.1909 -0.5840 -0.4339
  824MOL0     C11158   1.547   6.075   8.635 -0.0469  0.5414 -0.2983
  824MOL0     C11159   1.263   5.888   8.929  0.3554  0.4032 -0.0776
  824MOL0     C11160   1.225   5.785   8.853  0.8803  0.2426  0.5762
  824MOL0     C11161   1.103   5.727   8.871 -0.4993  0.2507 -0.0994
  824MOL0     C11162   1.015   5.764   8.980  0.3081  0.9866 -0.0277
  824MOL0     O11163   0.898   5.687   8.977 -0.3383  0.2843 -0.4488
  824MOL0     C11164   0.803   5.678   9.086  0.3955  0.1857  0.2633
  824MOL0     C11165   0.661   5.685   9.043 -0.6057 -0.2965  0.0032
  824MOL0     C11166   0.631   5.564   8.958 -0.8011  0.2638  0.0119
  824MOL0     C11167   0.485   5.589   8.907  1.2709  0.4659 -0.4797
  824MOL0     C11168   0.482   5.551   8.761 -0.6509  0.0677 -0.4160
  824MOL0     C11169   0.486   5.521   8.648  0.0216 -0.2903 -0.5719
  824MOL0     C11170   1.064   5.858   9.076  0.1244  0.3003 -0.3998
  824MOL0     C11171   1.190   5.912   9.051 -0.8546 -0.9137  0.5590
  824MOL0     C11172   1.258   5.978   9.170  0.1739  0.4684  0.0735
  824MOL0     H11173   1.726   5.878   8.858 -0.6396 -2.3322 -1.4501
  824MOL0     H11174   1.910   6.008   8.779 -0.3349 -0.9175 -1.3340
  824MOL0     H11175   2.058   6.266   8.665  1.4386  1.3042 -2.2511
  824MOL0     H11176   2.041   6.093   8.646 -1.2682 -1.9829 -3.2486
  824MOL0     H11177   2.099   6.105   8.418 -1.8387 -0.2807  0.0588
  824MOL0     H11178   2.216   6.208   8.512 -0.4041 -1.3441  1.4404
  824MOL0     H11179   2.001   6.279   8.307  0.7557  1.2225 -2.0544
  824MOL0     H11180   2.172   6.297   8.298 -0.4842  0.2037 -0.5088
  824MOL0     H11181   1.995   6.479   8.476  1.1567  1.9186  1.0217
  824MOL0     H11182   2.168   6.462   8.499  0.8671  0.1077 -1.5978
  824MOL0     H11183   2.209   6.534   8.267 -0.3473  1.0372 -2.1731
  824MOL0     H11184   2.042   6.501   8.227  0.3180  1.8269 -1.3266
  824MOL0     H11185   2.098   6.755   8.236  2.1075  2.6730  1.8170
  824MOL0     H11186   1.969   6.699   8.348  0.3986  1.3046 -0.2081
  824MOL0     H11187   2.258   6.759   8.407 -1.1812 -0.8160 -1.4734
  824MOL0     H11188   2.148   6.683   8.531 -2.4511  1.4561  1.5220
  824MOL0     H11189   2.148   6.964   8.414  2.1860 -2.3520 -1.0494
  824MOL0     H11190   2.008   6.903   8.498  0.4854  2.9342  2.2515
  824MOL0     H11191   2.044   6.860   8.773 -0.1807  1.7233  1.4348
  824MOL0     H11192   2.138   7.017   9.010 -1.0230 -1.0766  0.0311
  824MOL0     H11193   2.146   6.842   9.007 -0.6778  0.4106  2.4987
  824MOL0     H11194   2.395   7.030   9.023 -0.9497  0.1011 -2.5935
  824MOL0     H11195   2.320   6.948   9.161 -0.8314 -0.1918 -0.4094
  824MOL0     H11196   2.476   6.831   8.925  1.1633 -1.9572 -0.3461
  824MOL0     H11197   2.373   6.727   9.019 -1.6048  1.3235  0.8319
  824MOL0     H11198   2.616   6.730   9.069 -0.6052 -1.1405 -0.1366
  824MOL0     H11199   2.526   6.770   9.222 -3.1141 -0.6013 -0.9980
  824MOL0     H11200   2.775   6.741   9.232 -1.4810 -0.2494  0.0117
  824MOL0     H11201   2.974   6.780   9.337  0.1565  0.9540  0.2227
  824MOL0     H11202   3.403   7.042   9.321  4.0851 -2.0993  0.4080
  824MOL0     H11203   3.604   7.106   9.465 -0.0088 -0.5412  0.3028
  824MOL0     H11204   3.606   7.126   9.886 -2.4137 -3.7853  2.6090
  824MOL0     H11205   3.653   6.960   9.892  5.2970 -1.8652 -0.6147
  824MOL0     H11206   3.884   7.015   9.838 -1.7180 -3.6848  3.7109
  824MOL0     H11207   3.848   7.189   9.822 -0.1489  0.7154  1.6314
  824MOL0     H11208   3.792   7.217  10.049  2.0728  0.7306  1.8746
  824MOL0     H11209   3.793   7.044  10.085  0.2239 -1.4811 -1.5764
  824MOL0     H11210   4.048   7.194   9.989  0.9934  0.0336  1.9848
  824MOL0     H11211   4.045   7.026  10.027  2.6747  0.9375 -0.2179
  824MOL0     H11212   3.984   7.253  10.227  1.2364  1.2497 -3.7594
  824MOL0     H11213   4.132   7.165  10.230 -1.2088  0.8726  1.5466
  824MOL0     H11214   3.867   7.035  10.297  1.5567  0.5110 -1.5463
  824MOL0     H11215   4.026   6.954  10.288 -0.3584 -1.7171  2.5154
  824MOL0     H11216   3.932   7.196  10.459  0.1647 -0.2747 -0.8274
  824MOL0     H11217   4.106   7.133  10.451 -0.5384 -0.7553 -0.4716
  824MOL0     H11218   3.964   7.033  10.643 -3.3306 -0.2451  0.1716
  824MOL0     H11219   3.867   6.963  10.527 -0.5151  0.4208  2.9189
  824MOL0     H11220   3.404   6.959   9.809  1.7417 -0.9397  0.0486
  824MOL0     H11221   3.204   6.904   9.667 -1.2297  2.6237  1.8478
  824MOL0     H11222   2.933   7.212   9.250 -1.0649  0.2330 -0.8673
  824MOL0     H11223   2.725   7.171   9.159 -0.8519 -1.8541 -1.3626
  824MOL0     H11224   1.643   6.224   8.517  1.6985 -0.8063 -1.1932
  824MOL0     H11225   1.453   6.092   8.585  0.4800  1.9947 -0.8422
  824MOL0     H11226   1.289   5.748   8.774 -0.6357  1.7951 -1.5166
  824MOL0     H11227   1.068   5.648   8.805 -0.4826  0.1589 -0.0007
  824MOL0     H11228   0.826   5.757   9.158  0.8753 -1.2330  1.7277
  824MOL0     H11229   0.818   5.580   9.131 -1.2813 -1.7177 -2.9612
  824MOL0     H11230   0.643   5.766   8.972 -1.9769 -1.1145 -0.6072
  824MOL0     H11231   0.604   5.679   9.136  0.0834  1.0155  0.5495
  824MOL0     H11232   0.634   5.469   9.014 -3.8322 -1.0700 -1.8651
  824MOL0     H11233   0.704   5.549   8.877 -0.4494 -0.0284  0.3742
  824MOL0     H11234   0.439   5.510   8.967  1.1684 -2.2992 -3.8484
  824MOL0     H11235   0.442   5.682   8.946  0.7601 -0.2361  0.6926
  824MOL0     H11236   0.509   5.502   8.546 -0.1825  0.7225 -0.8216
  824MOL0     H11237   1.008   5.864   9.168 -1.1088 -2.0839 -0.8968
  824MOL0     H11238   1.212   5.955   9.267  1.4880 -3.7763 -0.1064
  824MOL0     H11239   1.362   5.944   9.179  0.0689  0.6675  2.9932
  824MOL0     H11240   1.259   6.086   9.153 -1.4452  0.7480  1.5258
  825MOL0     O11241   2.153   2.545  10.027  0.1593  0.9096  0.2174
  825MOL0     C11242   2.094   2.468  10.103  0.3411 -0.9671 -0.4562
  825MOL0     O11243   2.102   2.481  10.237 -0.0010 -0.3097  0.1927
  825MOL0     C11244   2.201   2.562  10.287 -0.2934 -0.2786  0.4029
  825MOL0     C11245   2.177   2.671  10.372  0.1875  0.2520  0.5986
  825MOL0     C11246   2.293   2.750  10.416  0.0136  0.4112  0.3297
  825MOL0     C11247   2.419   2.717  10.389  0.0165  0.7069 -0.6257
  825MOL0     O11248   2.532   2.792  10.417  0.7755 -0.5719 -0.0537
  825MOL0     C11249   2.607   2.723  10.518  0.8412 -0.0943  0.0088
  825MOL0     C11250   2.750   2.752  10.483 -0.3257  0.3580 -0.4772
  825MOL0     C11251   2.845   2.721  10.598 -0.6700 -0.1013  0.0596
  825MOL0     C11252   2.996   2.716  10.555  0.4911 -0.1189 -0.3076
  825MOL0     C11253   3.061   2.859  10.528 -0.2275  0.0843  0.2763
  825MOL0     C11254   3.093   2.888  10.380  0.9900 -0.0125  0.2127
  825MOL0     C11255   3.195   3.004  10.371  0.3196  0.1942  0.9688
  825MOL0     C11256   3.248   3.027  10.235 -0.2314 -0.2241 -0.1726
  825MOL0     N11257   3.359   2.939  10.201 -0.2468  0.1505 -0.5265
  825MOL0     C11258   3.492   2.976  10.219  0.0083 -0.1073 -0.3716
  825MOL0     C11259   3.565   2.870  10.168 -0.4693 -1.0482 -0.6733
  825MOL0     C11260   3.713   2.880  10.136 -0.2737  0.8748  0.0737
  825MOL0     C11261   3.782   2.982  10.234 -0.4049  0.4047  0.1051
  825MOL0     C11262   3.937   2.974  10.213 -0.1088 -0.8612  0.9324
  825MOL0     C11263   4.014   3.080  10.280 -0.8042  0.7216 -1.7157
  825MOL0     O11264   4.150   3.033  10.292 -0.1217 -0.5099 -1.0672
  825MOL0     C11265   4.255   3.116  10.336  0.2854 -0.0725 -0.7724
  825MOL0     C11266   4.242   3.249  10.380  1.1698  0.6128 -0.9841
  825MOL0     C11267   4.350   3.325  10.438 -0.3427  0.1768  0.1846
  825MOL0     C11268   4.476   3.269  10.447  0.2735  0.8893  0.3706
  825MOL0     C11269   4.601   3.344  10.479 -0.1440  0.0990 -0.4675
  825MOL0     O11270   4.716   3.275  10.504  0.0674  0.6655  1.2789
  825MOL0     C11271   4.829   3.334  10.552  0.0173 -0.4262 -0.4543
  825MOL0     C11272   4.912   3.400  10.460 -0.3238  0.5697 -0.4162
  825MOL0     C11273   5.033   3.451  10.503 -0.1554 -0.2111  0.3499
  825MOL0     C11274   5.067   3.442  10.639  0.0117  0.4831 -0.2574
  825MOL0     O11275   5.175   3.495  10.705 -0.0667  0.1241  0.1236
  825MOL0     C11276   5.241   3.609  10.663 -0.3669 -0.2215  0.1297
  825MOL0     C11277   5.290   3.676  10.806  0.1104 -0.0600  0.2274
  825MOL0     C11278   5.415   3.613  10.858 -0.6296 -0.3956 -0.2391
  825MOL0     C11279   5.453   3.639  11.010 -0.0049 -0.0405 -0.9917
  825MOL0     C11280   5.577   3.556  11.023 -0.0656 -0.4936 -0.3515
  825MOL0     C11281   5.634   3.580  11.162 -0.0303 -0.2420  0.5388
  825MOL0     C11282   5.764   3.491  11.168 -0.0495 -0.6412  0.3730
  825MOL0     C11283   5.840   3.524  11.292 -0.0605 -0.0714 -0.2638
  825MOL0    Cl11284   5.982   3.428  11.323  0.4470 -0.2292 -0.4152
  825MOL0     C11285   4.988   3.366  10.731  0.0753  0.1522 -0.2414
  825MOL0     C11286   4.871   3.309  10.686  0.6729 -0.8195 -1.0054
  825MOL0     O11287   4.589   3.462  10.485  0.0607  0.5036  0.2324
  825MOL0     C11288   4.489   3.140  10.396 -0.0342 -0.0369  0.2464
  825MOL0     C11289   4.384   3.067  10.341  0.1061  0.7011 -0.2620
  825MOL0     N11290   3.473   2.780  10.119  0.0078  0.0829 -0.4526
  825MOL0     N11291   3.351   2.822  10.127 -0.4771  0.1569 -0.3648
  825MOL0     C11292   2.440   2.604  10.305  0.5055  0.0215 -0.0678
  825MOL0     C11293   2.335   2.531  10.258 -0.9715  0.3181  0.2018
  825MOL0     C11294   1.995   2.383  10.049  0.3210  0.8208 -0.3688
  825MOL0     C11295   1.875   2.351  10.122  0.0421  0.0847  0.0070
  825MOL0     C11296   1.779   2.268  10.069  0.4651  0.2997 -1.1663
  825MOL0     C11297   1.793   2.209   9.944  0.5885  0.4499  0.3750
  825MOL0     O11298   1.694   2.125   9.893  0.3027  0.3333  0.0841
  825MOL0     C11299   1.709   2.052   9.772 -0.1554 -0.9373 -0.3135
  825MOL0     C11300   1.580   1.974   9.746 -0.0552 -0.0532  0.1663
  825MOL0     C11301   1.592   1.876   9.627  0.1763  0.0061  0.1955
  825MOL0     C11302   1.452   1.802   9.617 -0.0904  0.8477 -0.6277
  825MOL0     C11303   1.338   1.890   9.585 -0.0149  0.4931 -0.4435
  825MOL0     C11304   1.243   1.955   9.542  0.2104  1.5927  0.2649
  825MOL0     C11305   1.905   2.238   9.877  0.1614 -0.6179  0.1996
  825MOL0     C11306   2.006   2.312   9.931 -1.0173  0.4188  0.5582
  825MOL0     C11307   2.134   2.331   9.841  0.8174  0.1052  0.3549
  825MOL0     H11308   2.087   2.713  10.415  1.0521  1.4519  1.3124
  825MOL0     H11309   2.275   2.826  10.492  0.9765  1.7235 -0.7182
  825MOL0     H11310   2.575   2.735  10.622 -2.2806  0.6801 -0.9120
  825MOL0     H11311   2.591   2.616  10.506 -0.5989 -0.2262  2.3248
  825MOL0     H11312   2.762   2.860  10.467 -0.4688  0.2660 -1.2199
  825MOL0     H11313   2.787   2.686  10.404  1.2442 -1.9873  2.0344
  825MOL0     H11314   2.825   2.623  10.643  0.3306  0.7990  2.6649
  825MOL0     H11315   2.830   2.798  10.674 -0.6742  1.1145 -1.1459
  825MOL0     H11316   3.063   2.667  10.626  2.7842 -1.0441 -2.9028
  825MOL0     H11317   2.987   2.662  10.460 -1.1679 -0.9182  0.2617
  825MOL0     H11318   3.000   2.933  10.580  0.9768  1.3179  0.0157
  825MOL0     H11319   3.154   2.863  10.587 -0.7647 -0.9956  1.2229
  825MOL0     H11320   3.138   2.799  10.335  0.1629 -1.4485  2.0796
  825MOL0     H11321   3.003   2.913  10.324  1.2445  1.2345  0.3328
  825MOL0     H11322   3.270   2.980  10.446 -1.2000 -0.2272  2.4157
  825MOL0     H11323   3.128   3.082  10.410 -0.4194 -0.0055  0.1317
  825MOL0     H11324   3.178   3.027  10.151  3.3611  0.3067 -3.4335
  825MOL0     H11325   3.298   3.124  10.228  0.6776 -0.4776  1.9811
  825MOL0     H11326   3.516   3.068  10.271 -1.5249 -0.9036  1.9181
  825MOL0     H11327   3.768   2.786  10.145  2.5995  2.0425 -3.0562
  825MOL0     H11328   3.732   2.893  10.029  0.4157  0.8551  0.1885
  825MOL0     H11329   3.763   3.086  10.208 -0.2973  0.3954 -0.0103
  825MOL0     H11330   3.763   2.955  10.338  0.6810 -3.1557 -0.4754
  825MOL0     H11331   3.968   2.974  10.108  1.2022 -0.0525  1.2954
  825MOL0     H11332   3.961   2.872  10.244 -0.0449 -1.4772 -0.9623
  825MOL0     H11333   3.972   3.087  10.381 -0.5592 -1.1536 -1.4542
  825MOL0     H11334   4.017   3.173  10.222  0.3939  2.7336  1.2816
  825MOL0     H11335   4.140   3.283  10.366 -0.2668 -4.1316 -5.4640
  825MOL0     H11336   4.339   3.432  10.454  1.4609  0.4049  0.0624
  825MOL0     H11337   4.884   3.412  10.356 -0.4333 -1.6362 -0.6728
  825MOL0     H11338   5.107   3.503  10.442  1.3602 -0.8195  1.5898
  825MOL0     H11339   5.321   3.600  10.589 -1.9982  2.5471 -2.1793
  825MOL0     H11340   5.179   3.691  10.627  0.1954  0.0468 -0.2415
  825MOL0     H11341   5.308   3.783  10.799 -3.5887  0.9131  2.5914
  825MOL0     H11342   5.211   3.662  10.880  0.8520  0.8561  1.2140
  825MOL0     H11343   5.406   3.507  10.833 -2.9626 -0.9128  2.3570
  825MOL0     H11344   5.501   3.655  10.805  0.8005 -1.0629  1.4802
  825MOL0     H11345   5.378   3.605  11.083  0.8723 -1.8810 -0.9054
  825MOL0     H11346   5.474   3.742  11.040  0.7053 -0.1912 -0.9618
  825MOL0     H11347   5.646   3.588  10.945 -3.7284  0.6885 -3.3841
  825MOL0     H11348   5.557   3.448  11.029  2.8945 -1.0592  3.0960
  825MOL0     H11349   5.654   3.687  11.177 -2.3881  1.2368 -4.5231
  825MOL0     H11350   5.573   3.548  11.247  2.1332 -1.5295  1.6988
  825MOL0     H11351   5.829   3.509  11.083  1.2546  0.9740  1.6432
  825MOL0     H11352   5.736   3.385  11.168 -0.5863 -0.5269 -1.2861
  825MOL0     H11353   5.865   3.630  11.306  0.4439 -0.3400  0.9613
  825MOL0     H11354   5.770   3.511  11.375  1.1160 -2.0725  0.4735
  825MOL0     H11355   5.005   3.345  10.836 -1.6375 -0.7337 -0.1029
  825MOL0     H11356   4.819   3.248  10.758  0.1839  0.9785  0.2178
  825MOL0     H11357   4.592   3.107  10.397 -0.1848 -0.6011 -1.0654
  825MOL0     H11358   4.401   2.963  10.318  1.2403 -0.4203  4.6255
  825MOL0     H11359   2.539   2.568  10.279  0.5497 -0.3224  0.5659
  825MOL0     H11360   2.370   2.454  10.190  1.4529  0.8602  0.7230
  825MOL0     H11361   1.863   2.408  10.213 -0.0790 -0.1168  0.1163
  825MOL0     H11362   1.694   2.256  10.136  0.5506  0.4691 -1.0245
  825MOL0     H11363   1.796   1.988   9.789  1.8399  1.4428 -0.8911
  825MOL0     H11364   1.726   2.121   9.688  0.0684  1.0350  1.2674
  825MOL0     H11365   1.496   2.043   9.733 -0.0315 -0.1471 -0.5079
  825MOL0     H11366   1.561   1.917   9.838 -3.2902  0.9822  0.2748
  825MOL0     H11367   1.680   1.817   9.652  2.3367  3.1515  0.6742
  825MOL0     H11368   1.625   1.932   9.538  1.3399  0.4836  0.9015
  825MOL0     H11369   1.468   1.719   9.547 -1.1331  0.0922  0.0050
  825MOL0     H11370   1.433   1.761   9.716  1.1038  1.8607  0.0509
  825MOL0     H11371   1.160   2.009   9.502  0.2666 -0.0683 -2.3030
  825MOL0     H11372   1.927   2.201   9.778  0.8972 -0.4668  0.2997
  825MOL0     H11373   2.221   2.306   9.901 -1.2573 -3.7338  2.1272
  825MOL0     H11374   2.126   2.273   9.748  0.4774  1.2342 -0.3482
  825MOL0     H11375   2.140   2.432   9.799 -0.1251  0.6105  1.3804
  826MOL0     O11376   1.856  10.513   0.436 -0.6139 -0.3278 -0.3185
  826MOL0     C11377   1.791  10.514   0.540 -0.2603 -0.1434 -0.4509
  826MOL0     O11378   1.831  10.579   0.653 -0.0455 -0.8264  0.0541
  826MOL0     C11379   1.962  10.628   0.669 -0.0704 -0.7715  0.1938
  826MOL0     C11380   2.004  10.731   0.592 -0.7382 -0.5584  0.5339
  826MOL0     C11381   2.132  10.785   0.611  0.4147 -0.1834 -0.0761
  826MOL0     C11382   2.211  10.724   0.711 -0.3299 -0.7768  0.1475
  826MOL0     O11383   2.332  10.770   0.743 -0.7729  0.2152  1.0094
  826MOL0     C11384   2.388  10.892   0.694 -0.4200  0.2355  0.6360
  826MOL0     C11385   2.529  10.912   0.754  0.3874 -0.1829  1.2346
  826MOL0     C11386   2.635  10.845   0.668  0.3315  0.0338 -0.1107
  826MOL0     C11387   2.782  10.869   0.713  0.4194  0.8784  0.0124
  826MOL0     C11388   2.882  10.804   0.619  0.1960 -0.8643  0.8707
  826MOL0     C11389   3.026  10.820   0.685 -0.5915  0.8246 -0.8352
  826MOL0     C11390   3.138  10.783   0.587 -0.2419  1.1803 -0.2388
  826MOL0     C11391   3.261  10.728   0.665 -0.0429 -0.3785  0.1240
  826MOL0     N11392   3.383  10.712   0.583  0.2053 -0.7683 -0.3768
  826MOL0     C11393   3.445  10.598   0.560 -1.2673  0.6591 -0.0034
  826MOL0     C11394   3.571  10.634   0.527  0.5562  0.1523 -0.2166
  826MOL0     C11395   3.680  10.535   0.485  0.3654 -1.3914  0.9575
  826MOL0     C11396   3.810  10.534   0.562  1.0471 -0.0621 -0.6888
  826MOL0     C11397   3.926  10.465   0.491 -0.2313 -0.3934  0.0172
  826MOL0     C11398   3.944  10.314   0.523 -0.0168  0.0028  0.7710
  826MOL0     O11399   3.846  10.238   0.449  0.2160  0.5987  0.7672
  826MOL0     C11400   3.823  10.114   0.499  0.9156 -0.2380 -0.2907
  826MOL0     C11401   3.891  10.046   0.597  0.4551 -0.2996  0.4276
  826MOL0     C11402   3.842   9.931   0.651 -1.1037  0.5715  1.0635
  826MOL0     C11403   3.721   9.881   0.615  1.1222  0.4035 -0.4058
  826MOL0     C11404   3.661   9.757   0.680 -0.1275 -0.0710 -0.1117
  826MOL0     O11405   3.553   9.711   0.618 -0.5722  0.3205  0.0565
  826MOL0     C11406   3.506   9.591   0.665 -0.2645 -0.5865  0.0615
  826MOL0     C11407   3.566   9.468   0.643  0.1484  1.0088  0.1854
  826MOL0     C11408   3.505   9.346   0.689 -1.4498 -0.1803 -0.0417
  826MOL0     C11409   3.376   9.354   0.748  1.0321  0.2628  0.2277
  826MOL0     O11410   3.300   9.249   0.791  0.2554  0.1265  0.2393
  826MOL0     C11411   3.257   9.227   0.929 -1.1143 -0.3190  0.6856
  826MOL0     C11412   3.171   9.096   0.947 -0.3737  0.0576  0.4976
  826MOL0     C11413   3.256   8.974   0.911 -0.5962  0.5134  0.2696
  826MOL0     C11414   3.181   8.854   0.973  0.3060 -0.3112  0.3403
  826MOL0     C11415   3.229   8.711   0.935  0.3134 -1.4730 -0.0857
  826MOL0     C11416   3.168   8.655   0.801 -0.3854 -1.2107 -0.5264
  826MOL0     C11417   3.232   8.529   0.754  0.3797  0.2527 -0.2576
  826MOL0     C11418   3.357   8.533   0.664  0.5886  0.0233  1.1703
  826MOL0    Cl11419   3.397   8.365   0.594  0.5068  0.3593 -0.2400
  826MOL0     C11420   3.317   9.475   0.760 -0.7482 -0.0557  1.2861
  826MOL0     C11421   3.376   9.601   0.713 -0.0277 -0.4882  0.5591
  826MOL0     O11422   3.726   9.702   0.766 -0.1583  0.1553 -0.2638
  826MOL0     C11423   3.657   9.936   0.503  0.2962 -0.1857  0.2713
  826MOL0     C11424   3.712  10.049   0.450  0.0027 -0.4537 -0.4960
  826MOL0     N11425   3.574  10.775   0.517 -0.1329  0.3529  0.1049
  826MOL0     N11426   3.462  10.822   0.553  0.3158  0.0933 -1.0918
  826MOL0     C11427   2.162  10.622   0.791 -0.0900  0.4085 -0.2522
  826MOL0     C11428   2.037  10.573   0.767  0.5207  0.5854  0.2849
  826MOL0     C11429   1.656  10.448   0.541 -0.1247  0.0681  0.7627
  826MOL0     C11430   1.575  10.454   0.658 -0.6737 -0.6770  0.5760
  826MOL0     C11431   1.452  10.388   0.674  0.4320 -0.7245 -0.3321
  826MOL0     C11432   1.403  10.311   0.565 -0.8345 -0.4894 -0.3279
  826MOL0     O11433   1.290  10.227   0.579  0.5919 -0.3987 -0.5723
  826MOL0     C11434   1.221  10.207   0.705  0.2765 -0.0491 -1.2359
  826MOL0     C11435   1.302  10.115   0.802 -1.2614 -0.5968  0.3651
  826MOL0     C11436   1.266  10.137   0.960 -0.0664  0.2284  0.2250
  826MOL0     C11437   1.137  10.065   0.996  0.2377 -0.2615  0.3062
  826MOL0     C11438   1.002  10.114   0.945  0.5521 -1.0883 -0.4699
  826MOL0     C11439   0.889  10.138   0.914  1.4756  0.2904  1.1188
  826MOL0     C11440   1.486  10.297   0.448  1.0120  0.5404 -0.8193
  826MOL0     C11441   1.606  10.367   0.433  0.3246  0.1882  0.0008
  826MOL0     C11442   1.673  10.361   0.305  0.0055 -0.3467  0.3193
  826MOL0     H11443   1.944  10.771   0.510 -0.8878  0.0342  0.9290
  826MOL0     H11444   2.160  10.863   0.541 -0.5427  0.8107  0.6159
  826MOL0     H11445   2.385  10.895   0.584 -1.4616 -0.8938  0.6066
  826MOL0     H11446   2.326  10.977   0.727  0.6190  0.2623  2.6598
  826MOL0     H11447   2.528  10.873   0.856  0.5495 -0.4208  1.1449
  826MOL0     H11448   2.553  11.018   0.764 -2.4262  0.5842  0.6533
  826MOL0     H11449   2.633  10.894   0.571  0.1150 -2.1333 -1.2555
  826MOL0     H11450   2.614  10.738   0.659 -0.2859  0.0408  1.0033
  826MOL0     H11451   2.795  10.976   0.734 -0.9111  0.3745  4.6475
  826MOL0     H11452   2.794  10.824   0.812 -0.6648  0.4408 -0.0373
  826MOL0     H11453   2.850  10.700   0.607  0.5956 -0.8176 -0.8299
  826MOL0     H11454   2.876  10.857   0.524 -0.0825  1.4761  2.1267
  826MOL0     H11455   3.043  10.914   0.738 -0.5543 -0.1089  0.8802
  826MOL0     H11456   3.017  10.753   0.771 -0.8375 -0.1257 -1.5728
  826MOL0     H11457   3.163  10.865   0.518 -2.8660 -0.0922 -2.9347
  826MOL0     H11458   3.110  10.693   0.532 -0.1099 -1.2630  3.3307
  826MOL0     H11459   3.276  10.811   0.735  2.3430 -0.8782  0.3032
  826MOL0     H11460   3.242  10.639   0.726  0.9921 -1.5324 -1.1849
  826MOL0     H11461   3.422  10.492   0.568  1.6153  0.0585  2.4085
  826MOL0     H11462   3.635  10.435   0.478  1.6779 -1.9445 -4.7530
  826MOL0     H11463   3.701  10.579   0.387  0.9234 -1.7379  0.9220
  826MOL0     H11464   3.842  10.637   0.580 -0.5732  0.3235  0.1951
  826MOL0     H11465   3.802  10.495   0.663  1.3782  2.9984  0.6179
  826MOL0     H11466   4.022  10.503   0.528 -0.3592  0.7742 -0.7779
  826MOL0     H11467   3.929  10.484   0.383  2.5215 -2.9232 -0.4880
  826MOL0     H11468   3.937  10.312   0.632 -2.3656 -0.4480  0.6775
  826MOL0     H11469   4.046  10.282   0.502  0.7329  2.6282  0.1299
  826MOL0     H11470   3.980  10.091   0.641 -0.6687  1.7212  0.7745
  826MOL0     H11471   3.895   9.881   0.731  0.1363 -0.1122 -0.1576
  826MOL0     H11472   3.658   9.461   0.585  0.2727 -1.4860  0.5715
  826MOL0     H11473   3.533   9.248   0.653 -2.1117 -0.0976 -0.8278
  826MOL0     H11474   3.344   9.221   0.995 -0.1182  3.1556 -0.1349
  826MOL0     H11475   3.204   9.312   0.972  0.4492  0.8714  0.3453
  826MOL0     H11476   3.148   9.084   1.053 -2.2240  1.1229  0.2576
  826MOL0     H11477   3.075   9.091   0.894 -1.0955 -4.7355  1.7228
  826MOL0     H11478   3.273   8.957   0.804  0.9075 -0.5937  0.6510
  826MOL0     H11479   3.354   8.989   0.959  0.3813 -1.0037 -1.1348
  826MOL0     H11480   3.075   8.864   0.947  0.0897 -0.4512  1.1290
  826MOL0     H11481   3.188   8.864   1.082  1.3131  2.5848  0.0839
  826MOL0     H11482   3.197   8.647   1.018 -1.7053  2.2270  2.3327
  826MOL0     H11483   3.337   8.704   0.922  0.8034  2.0325  0.9901
  826MOL0     H11484   3.065   8.631   0.828 -0.8134  0.9979  0.0141
  826MOL0     H11485   3.165   8.735   0.726 -4.9246 -0.1639  0.4496
  826MOL0     H11486   3.159   8.472   0.695  1.4229  0.6199 -1.9810
  826MOL0     H11487   3.251   8.473   0.846 -0.1867 -0.1564 -0.3847
  826MOL0     H11488   3.327   8.597   0.581  0.8863 -1.2558  0.0322
  826MOL0     H11489   3.448   8.562   0.717 -0.0623  0.9652  1.7973
  826MOL0     H11490   3.215   9.477   0.797 -1.6622  0.5786 -1.0611
  826MOL0     H11491   3.311   9.688   0.717  0.5952  0.2097 -2.3493
  826MOL0     H11492   3.562   9.896   0.470  1.0836 -2.9431  1.1117
  826MOL0     H11493   3.666  10.105   0.369 -0.6109 -0.6018 -0.2553
  826MOL0     H11494   2.217  10.568   0.868 -2.1882 -2.1862 -0.4369
  826MOL0     H11495   1.987  10.498   0.828  0.4506 -0.6971 -1.2971
  826MOL0     H11496   1.606  10.526   0.733 -0.9175  1.4933 -1.3091
  826MOL0     H11497   1.407  10.407   0.771  2.1013  2.8504 -0.1130
  826MOL0     H11498   1.119  10.172   0.686 -0.7099  2.8848 -1.8951
  826MOL0     H11499   1.211  10.304   0.755 -1.3509 -0.6825 -0.2812
  826MOL0     H11500   1.407  10.140   0.789 -1.6241  2.0139  1.7828
  826MOL0     H11501   1.283  10.014   0.764  2.9560 -1.4118 -0.0361
  826MOL0     H11502   1.266  10.244   0.985 -0.8096  0.5341 -1.0068
  826MOL0     H11503   1.343  10.089   1.021 -2.0864  0.0478  2.8232
  826MOL0     H11504   1.147   9.958   0.975 -0.2530 -0.4893  1.1828
  826MOL0     H11505   1.143  10.069   1.105 -0.4584  0.7433  0.3229
  826MOL0     H11506   0.788  10.158   0.883  1.7069  2.1890  1.4704
  826MOL0     H11507   1.455  10.234   0.365  0.3531 -4.2258  2.6488
  826MOL0     H11508   1.597  10.324   0.234 -1.1808  1.7615  0.3959
  826MOL0     H11509   1.703  10.459   0.267 -2.6535  0.9859  1.3220
  826MOL0     H11510   1.759  10.294   0.305 -1.0118 -1.9230 -3.2379
  827MOL0     O11511  10.954   6.060   8.476 -0.7571 -0.1293 -0.1438
  827MOL0     C11512  10.960   6.097   8.594 -1.1214 -0.4961  0.3463
  827MOL0     O11513  11.054   6.175   8.650  0.0461  0.1405  0.1093
  827MOL0     C11514  11.154   6.232   8.570  0.8400 -0.2779  0.3371
  827MOL0     C11515  11.141   6.281   8.441  0.2366 -0.8207 -0.3542
  827MOL0     C11516  11.251   6.334   8.378 -0.2687  0.1071  0.2026
  827MOL0     C11517  11.382   6.339   8.432  0.3749  0.2813 -0.1848
  827MOL0     O11518  11.486   6.403   8.377  0.1523  0.1151 -0.6810
  827MOL0     C11519  11.491   6.418   8.233 -0.2915  0.2775  0.2331
  827MOL0     C11520  11.623   6.372   8.166  0.8337  0.1418  0.2115
  827MOL0     C11521  11.622   6.222   8.140 -0.6374 -0.4030  0.0959
  827MOL0     C11522  11.726   6.139   8.215 -0.3594 -0.3586 -0.6539
  827MOL0     C11523  11.691   5.994   8.182 -0.1468 -0.1455 -0.5449
  827MOL0     C11524  11.770   5.899   8.283  0.3523 -0.0259  1.3037
  827MOL0     C11525  11.742   5.752   8.234  0.4972 -0.0769  0.6800
  827MOL0     C11526  11.757   5.647   8.342 -0.5950 -0.0547 -0.9981
  827MOL0     N11527  11.740   5.521   8.275 -0.0591  0.9876 -0.2476
  827MOL0     C11528  11.627   5.457   8.223  0.0895  0.1848 -1.6618
  827MOL0     C11529  11.648   5.325   8.224 -0.9069 -0.4550  0.3396
  827MOL0     C11530  11.572   5.209   8.174 -0.6950 -0.3131  0.9166
  827MOL0     C11531  11.425   5.233   8.126 -0.5427  0.3816 -0.2691
  827MOL0     C11532  11.376   5.091   8.080  0.7309 -0.1991  0.4725
  827MOL0     C11533  11.234   5.081   8.022 -0.3823 -0.1606 -0.3394
  827MOL0     O11534  11.225   5.142   7.896  0.3299  0.4580 -0.1436
  827MOL0     C11535  11.108   5.116   7.831 -0.3547 -0.4265 -0.3577
  827MOL0     C11536  10.989   5.111   7.895 -0.2436  0.0132 -0.2706
  827MOL0     C11537  10.868   5.071   7.842  0.6467  0.0029 -0.5856
  827MOL0     C11538  10.848   5.037   7.708 -0.2478 -0.0434  0.7617
  827MOL0     C11539  10.722   5.009   7.649  1.3338 -0.0294 -1.0567
  827MOL0     O11540  10.607   5.023   7.718  0.0629 -0.2156 -0.1844
  827MOL0     C11541  10.487   5.006   7.652  0.1303 -0.3289  0.7349
  827MOL0     C11542  10.399   5.115   7.642  0.2800  0.7270 -0.3509
  827MOL0     C11543  10.281   5.109   7.563 -0.2350  0.2695  0.0350
  827MOL0     C11544  10.233   4.983   7.520 -0.4448 -0.5412 -0.3746
  827MOL0     O11545  10.111   4.968   7.458  0.6657  0.6167 -0.6100
  827MOL0     C11546  10.006   5.050   7.517 -0.0172  0.7785  1.1583
  827MOL0     C11547   9.876   4.968   7.522  0.1270  0.2005 -0.8139
  827MOL0     C11548   9.777   4.981   7.397  0.9428  0.7985 -0.1928
  827MOL0     C11549   9.828   4.887   7.281  0.3234 -0.0368 -0.5798
  827MOL0     C11550   9.717   4.865   7.177 -0.0279 -1.0512  0.9318
  827MOL0     C11551   9.671   4.988   7.091 -1.3144 -0.1731 -0.0796
  827MOL0     C11552   9.581   4.954   6.976  0.5335 -0.1980  0.2296
  827MOL0     C11553   9.505   5.078   6.917  0.9676  0.4224 -0.0902
  827MOL0    Cl11554   9.375   5.109   7.055  0.0448  0.3224 -0.0323
  827MOL0     C11555  10.321   4.875   7.533 -0.7717  0.2265 -0.2264
  827MOL0     C11556  10.443   4.890   7.591  0.3052  0.0392  0.3356
  827MOL0     O11557  10.731   4.977   7.528  0.0013 -0.9837 -0.3582
  827MOL0     C11558  10.975   5.037   7.636  0.0485 -0.0291 -0.1335
  827MOL0     C11559  11.106   5.079   7.693  0.1450  0.2022  0.1305
  827MOL0     N11560  11.773   5.313   8.277  0.1124  0.8479 -0.4428
  827MOL0     N11561  11.825   5.423   8.303  0.2968 -0.0904  0.0751
  827MOL0     C11562  11.396   6.280   8.560 -0.5002 -0.1113  0.7435
  827MOL0     C11563  11.287   6.230   8.625 -0.4372 -0.0396 -0.0671
  827MOL0     C11564  10.848   6.065   8.685 -0.4709 -0.0625 -0.2463
  827MOL0     C11565  10.882   6.031   8.815  0.2015 -0.1445 -0.7330
  827MOL0     C11566  10.795   5.990   8.910 -0.7840 -0.2168  0.0399
  827MOL0     C11567  10.654   5.980   8.876 -0.6876  0.6913  0.3852
  827MOL0     O11568  10.560   5.925   8.945 -0.3007  0.1897 -0.3287
  827MOL0     C11569  10.562   5.782   8.956 -0.2964 -0.9645  0.1858
  827MOL0     C11570  10.557   5.711   8.820  0.3194 -0.0621 -0.3176
  827MOL0     C11571  10.413   5.707   8.754 -0.4485  0.3133  0.4038
  827MOL0     C11572  10.297   5.664   8.853 -0.0124  0.0526 -0.1376
  827MOL0     C11573  10.169   5.602   8.810  0.3224 -0.3725 -0.7089
  827MOL0     C11574  10.061   5.560   8.768 -0.2485  0.1894  0.0421
  827MOL0     C11575  10.621   6.015   8.752 -0.1655  0.0903  0.7300
  827MOL0     C11576  10.714   6.064   8.656  0.8237 -0.0803  0.1392
  827MOL0     C11577  10.658   6.100   8.530  0.1164 -1.4321  0.5845
  827MOL0     H11578  11.047   6.267   8.388 -0.2311 -0.4721  0.3608
  827MOL0     H11579  11.234   6.372   8.278  0.5316 -0.8595 -0.3187
  827MOL0     H11580  11.410   6.369   8.179  1.7227 -0.9268 -1.8738
  827MOL0     H11581  11.485   6.526   8.216 -1.7879  0.3148  0.8944
  827MOL0     H11582  11.712   6.409   8.218  0.9805 -2.2277  1.8187
  827MOL0     H11583  11.618   6.430   8.073  1.5426  0.5858  0.4446
  827MOL0     H11584  11.649   6.221   8.034  2.9125 -2.1569  0.8801
  827MOL0     H11585  11.517   6.193   8.152 -0.7218 -0.7902 -1.4430
  827MOL0     H11586  11.827   6.165   8.180 -0.4041 -1.0784 -1.3655
  827MOL0     H11587  11.721   6.151   8.323  2.1774 -0.1352 -0.4967
  827MOL0     H11588  11.583   5.974   8.187 -0.7909  2.7910 -0.9203
  827MOL0     H11589  11.722   5.981   8.078  1.1112 -0.5415 -0.1331
  827MOL0     H11590  11.876   5.924   8.284  0.5156 -0.5859  3.6441
  827MOL0     H11591  11.730   5.916   8.383  0.4120  2.6780  0.9353
  827MOL0     H11592  11.784   5.730   8.136  1.0321  0.2319  0.8402
  827MOL0     H11593  11.634   5.756   8.214  0.0994 -2.2791  2.0917
  827MOL0     H11594  11.855   5.653   8.391 -1.4241  1.8135  0.5212
  827MOL0     H11595  11.688   5.657   8.426 -0.1003  2.1830 -0.8035
  827MOL0     H11596  11.541   5.512   8.186 -0.1806  1.7595  1.0136
  827MOL0     H11597  11.618   5.171   8.082  0.4876 -0.6033  1.6059
  827MOL0     H11598  11.580   5.136   8.255 -1.9224  0.6508  1.9462
  827MOL0     H11599  11.359   5.274   8.203  0.2065 -1.4746  1.4414
  827MOL0     H11600  11.425   5.305   8.043  0.1438 -0.4520 -1.0161
  827MOL0     H11601  11.385   5.019   8.161  0.8158 -3.2440 -2.0457
  827MOL0     H11602  11.439   5.050   7.999 -0.6198  0.7086 -1.1031
  827MOL0     H11603  11.171   5.128   8.098 -0.0333  1.3731 -0.9782
  827MOL0     H11604  11.189   4.981   8.018  0.6514 -0.6360 -0.3377
  827MOL0     H11605  10.993   5.128   8.002 -2.3836 -1.3908  0.0822
  827MOL0     H11606  10.795   5.054   7.920  1.1686  0.0532 -0.0840
  827MOL0     H11607  10.430   5.210   7.684  0.5026  0.8752 -0.8481
  827MOL0     H11608  10.224   5.200   7.550 -0.1609  0.4084  0.6499
  827MOL0     H11609  10.031   5.098   7.612  0.1252  3.4238 -0.1169
  827MOL0     H11610   9.972   5.131   7.452  0.7393  0.4643  0.3616
  827MOL0     H11611   9.906   4.867   7.551  1.5796  1.6074  3.3243
  827MOL0     H11612   9.812   4.991   7.608  1.5673 -3.3600  1.4041
  827MOL0     H11613   9.679   4.946   7.431 -0.3257  2.6029 -1.7722
  827MOL0     H11614   9.760   5.087   7.373  1.0471  1.2363  1.5293
  827MOL0     H11615   9.857   4.790   7.321  1.4194  0.2988 -0.5303
  827MOL0     H11616   9.919   4.924   7.234  2.0894 -0.9110  1.9466
  827MOL0     H11617   9.624   4.829   7.222 -1.9607 -0.2034 -2.0505
  827MOL0     H11618   9.768   4.802   7.104  3.3724  3.0567 -0.6968
  827MOL0     H11619   9.627   5.061   7.160 -1.9150 -2.3714  1.9752
  827MOL0     H11620   9.769   5.019   7.053  0.4190 -3.7749  0.9674
  827MOL0     H11621   9.508   4.879   7.009 -1.2897  1.6771  0.6495
  827MOL0     H11622   9.646   4.906   6.902 -1.0004  0.0138 -1.3411
  827MOL0     H11623   9.570   5.164   6.903 -0.2999  1.2468 -1.2040
  827MOL0     H11624   9.450   5.064   6.824  2.2787  2.1726 -1.1751
  827MOL0     H11625  10.298   4.778   7.488  4.1922 -2.2075  1.7547
  827MOL0     H11626  10.509   4.804   7.581  0.2599 -0.2114  1.8985
  827MOL0     H11627  10.988   5.007   7.532 -0.4663 -2.8538  0.5156
  827MOL0     H11628  11.202   5.079   7.644  0.0215  1.0362 -0.1274
  827MOL0     H11629  11.495   6.287   8.604  0.5442 -0.9731 -1.3238
  827MOL0     H11630  11.298   6.176   8.718 -2.6307 -0.0526  0.2443
  827MOL0     H11631  10.986   6.036   8.846 -0.0572  1.6565 -0.0261
  827MOL0     H11632  10.838   5.953   9.002 -0.1144 -3.1313 -1.3264
  827MOL0     H11633  10.483   5.749   9.025 -1.6734 -0.3287 -1.0373
  827MOL0     H11634  10.656   5.743   8.995 -0.4058 -0.8768  0.5476
  827MOL0     H11635  10.584   5.606   8.839  1.2823  0.4475  1.3005
  827MOL0     H11636  10.627   5.752   8.746  0.8196 -1.4138 -0.6316
  827MOL0     H11637  10.406   5.630   8.676  0.5896 -0.6024  1.1960
  827MOL0     H11638  10.387   5.800   8.702  0.6743 -0.0815 -0.9259
  827MOL0     H11639  10.338   5.598   8.930 -0.0875  0.9229  0.6718
  827MOL0     H11640  10.256   5.752   8.903 -2.3849  0.3322 -2.3626
  827MOL0     H11641   9.962   5.533   8.737 -0.6905 -0.3626  1.7993
  827MOL0     H11642  10.514   6.020   8.732 -0.0178  0.9510  0.0913
  827MOL0     H11643  10.722   6.165   8.469 -1.7491  0.4559  0.5116
  827MOL0     H11644  10.641   6.013   8.466  1.7552 -1.1921 -0.2214
  827MOL0     H11645  10.560   6.146   8.546  0.0596 -0.0829 -2.7315
  828MOL0     O11646   7.173   7.304   0.333  0.5369  0.3301 -0.4897
  828MOL0     C11647   7.237   7.201   0.366  0.7450 -0.1059  0.2811
  828MOL0     O11648   7.181   7.085   0.401  0.0657  0.7746 -0.0939
  828MOL0     C11649   7.041   7.085   0.401  0.2770 -0.0325  0.8107
  828MOL0     C11650   6.985   7.040   0.519  0.2067  0.1807 -0.8038
  828MOL0     C11651   6.848   7.023   0.530  0.7177  0.9486  0.0926
  828MOL0     C11652   6.766   7.044   0.412 -0.3655  0.1429  0.5079
  828MOL0     O11653   6.636   7.026   0.439  1.1859  0.2357 -0.1869
  828MOL0     C11654   6.544   7.044   0.328  0.7258 -0.3509 -0.7798
  828MOL0     C11655   6.403   7.050   0.376 -0.5528 -0.2808 -0.7043
  828MOL0     C11656   6.303   7.066   0.264 -0.9579 -0.1582 -0.6861
  828MOL0     C11657   6.166   7.066   0.321 -0.2748  0.3497 -0.4594
  828MOL0     C11658   6.145   7.199   0.409 -1.1785 -0.3221 -0.7701
  828MOL0     C11659   6.005   7.252   0.381 -1.0522 -0.2268 -0.3730
  828MOL0     C11660   5.967   7.381   0.452 -0.4702  0.5998  0.0138
  828MOL0     C11661   5.824   7.436   0.428 -1.0798  0.5189 -0.4678
  828MOL0     N11662   5.716   7.365   0.487  0.1718  1.2287  0.3355
  828MOL0     C11663   5.578   7.396   0.480  0.0176 -0.9795  1.0052
  828MOL0     C11664   5.516   7.308   0.565 -1.1558  0.0600  1.3936
  828MOL0     C11665   5.371   7.313   0.573  0.3178 -0.0205 -0.2496
  828MOL0     C11666   5.331   7.198   0.674 -0.1456 -0.4223  0.5465
  828MOL0     C11667   5.291   7.251   0.810 -0.6357 -0.3792 -0.2400
  828MOL0     C11668   5.233   7.147   0.913  0.3871 -0.7868  0.4218
  828MOL0     O11669   5.343   7.061   0.964 -0.0591 -0.0942 -0.0109
  828MOL0     C11670   5.445   7.131   1.025 -0.0307 -0.7044  0.0344
  828MOL0     C11671   5.423   7.202   1.140 -1.6006 -0.5162 -0.9790
  828MOL0     C11672   5.531   7.263   1.213 -0.6482  0.0989 -0.2559
  828MOL0     C11673   5.657   7.256   1.162 -0.2995  0.1734 -0.3532
  828MOL0     C11674   5.767   7.324   1.236 -0.6766 -0.1742 -0.0150
  828MOL0     O11675   5.886   7.302   1.173  0.1760 -1.2433  0.0144
  828MOL0     C11676   5.994   7.368   1.218 -0.4123  0.5701 -0.5604
  828MOL0     C11677   5.999   7.501   1.246  0.2973  0.1179  1.1332
  828MOL0     C11678   6.115   7.560   1.285 -0.8953 -0.1836  0.2152
  828MOL0     C11679   6.232   7.482   1.310  0.0945 -1.0802  0.1893
  828MOL0     O11680   6.347   7.549   1.353  0.1285  0.2160 -0.0443
  828MOL0     C11681   6.472   7.476   1.357 -0.1888  0.4940 -0.6838
  828MOL0     C11682   6.590   7.568   1.367 -0.4072  0.1621 -0.1515
  828MOL0     C11683   6.727   7.515   1.323  0.3504  0.7701 -0.5026
  828MOL0     C11684   6.739   7.469   1.179 -1.2074 -0.7778 -0.9659
  828MOL0     C11685   6.879   7.427   1.152 -0.0869  0.2785  0.1769
  828MOL0     C11686   6.920   7.282   1.194 -0.3720  0.2795 -0.6772
  828MOL0     C11687   7.073   7.259   1.174  0.1032  0.1299 -0.0422
  828MOL0     C11688   7.114   7.110   1.161 -0.4107 -0.2580 -0.3361
  828MOL0    Cl11689   7.028   7.022   1.044 -0.0740  0.2246  0.2970
  828MOL0     C11690   6.228   7.348   1.305  0.2727  0.2521 -0.7066
  828MOL0     C11691   6.101   7.289   1.263 -0.1162 -0.7179 -0.4796
  828MOL0     O11692   5.753   7.388   1.342 -0.0186 -0.0757  0.5569
  828MOL0     C11693   5.682   7.178   1.042  0.3175  0.5252 -1.2233
  828MOL0     C11694   5.575   7.121   0.976  0.0440  0.3888 -0.5132
  828MOL0     N11695   5.617   7.223   0.605 -0.2587  0.4548  0.5899
  828MOL0     N11696   5.735   7.264   0.573 -0.1990  0.1680  0.3726
  828MOL0     C11697   6.823   7.082   0.286  0.0667 -0.0036 -1.6412
  828MOL0     C11698   6.967   7.105   0.286  0.0450  0.3261 -0.0429
  828MOL0     C11699   7.389   7.206   0.398  0.4972 -0.9294  0.9752
  828MOL0     C11700   7.434   7.331   0.465  1.4121  0.6374 -0.4660
  828MOL0     C11701   7.576   7.344   0.485 -0.1319 -0.8822 -0.0037
  828MOL0     C11702   7.674   7.255   0.431  0.3327 -0.9284  0.3786
  828MOL0     O11703   7.804   7.296   0.440 -0.6241  0.0083 -0.4301
  828MOL0     C11704   7.915   7.230   0.369  0.2819 -0.2123  0.0406
  828MOL0     C11705   7.932   7.310   0.239  0.2198  0.3401 -0.0245
  828MOL0     C11706   8.012   7.228   0.146 -0.0325 -0.0028 -0.2083
  828MOL0     C11707   7.969   7.249  -0.010  0.2885  0.1207 -0.6081
  828MOL0     C11708   7.989   7.386  -0.048 -1.0132  0.7357  0.7493
  828MOL0     C11709   7.982   7.501  -0.081 -0.0175  1.0302  0.2475
  828MOL0     C11710   7.628   7.138   0.376 -0.2519 -0.0515 -0.6701
  828MOL0     C11711   7.487   7.109   0.363  0.3099 -0.2737 -0.6590
  828MOL0     C11712   7.444   6.975   0.315  0.3733  0.9841  0.0806
  828MOL0     H11713   7.039   7.021   0.611 -1.5945  3.4708  1.1270
  828MOL0     H11714   6.818   6.984   0.626 -1.6272  0.9292 -0.5749
  828MOL0     H11715   6.561   7.136   0.272 -0.1658 -1.4061 -2.8923
  828MOL0     H11716   6.558   6.958   0.262 -4.4111  0.3107 -3.1761
  828MOL0     H11717   6.408   7.137   0.441 -1.2931 -0.2318 -0.7017
  828MOL0     H11718   6.395   6.957   0.432  0.5721  1.7248  3.1058
  828MOL0     H11719   6.305   6.984   0.191  0.5544 -1.1682  0.4348
  828MOL0     H11720   6.329   7.158   0.211  1.0778  0.4094  1.1677
  828MOL0     H11721   6.101   7.062   0.233  1.5269 -0.9814 -1.8045
  828MOL0     H11722   6.157   6.975   0.380  0.0992  0.3822 -0.3501
  828MOL0     H11723   6.164   7.168   0.512 -0.2614 -3.4179 -1.7597
  828MOL0     H11724   6.217   7.275   0.376  0.5317 -1.7982 -0.6168
  828MOL0     H11725   6.003   7.259   0.271 -1.3293  0.8036 -0.3129
  828MOL0     H11726   5.926   7.181   0.406 -2.3566  1.7870  1.5367
  828MOL0     H11727   6.043   7.458   0.434 -0.9809  2.0123  3.2428
  828MOL0     H11728   5.979   7.363   0.560  2.7282  1.6939 -0.0492
  828MOL0     H11729   5.828   7.535   0.474 -1.5765  0.4868 -0.3528
  828MOL0     H11730   5.822   7.446   0.319  1.7561 -1.2672 -0.8035
  828MOL0     H11731   5.528   7.473   0.423 -2.4352 -2.8931  0.3857
  828MOL0     H11732   5.342   7.415   0.601  0.7508 -0.5319  2.3039
  828MOL0     H11733   5.330   7.292   0.474 -2.1419  2.9326 -0.0290
  828MOL0     H11734   5.241   7.144   0.646  0.9736 -2.1948  0.2228
  828MOL0     H11735   5.406   7.119   0.688 -0.6513 -0.9454  0.3062
  828MOL0     H11736   5.209   7.318   0.784 -0.0401  0.5029  0.0863
  828MOL0     H11737   5.372   7.307   0.858  0.1397 -2.7720  1.4288
  828MOL0     H11738   5.151   7.088   0.871  0.8230 -3.0893  2.5880
  828MOL0     H11739   5.193   7.199   1.000  1.6058  1.2585 -0.1720
  828MOL0     H11740   5.324   7.189   1.183 -1.5816  0.7100 -0.5354
  828MOL0     H11741   5.518   7.314   1.308 -2.3369 -1.7407  0.5583
  828MOL0     H11742   5.909   7.560   1.228  0.3139 -0.6045 -1.8002
  828MOL0     H11743   6.126   7.668   1.298 -1.4977 -0.3952  3.2441
  828MOL0     H11744   6.477   7.398   1.433 -0.0732  0.1664 -1.0225
  828MOL0     H11745   6.476   7.425   1.260 -1.8950  0.0103 -0.5413
  828MOL0     H11746   6.579   7.649   1.293  2.5440 -1.1654 -2.2446
  828MOL0     H11747   6.599   7.594   1.473  2.8460  1.3409 -0.5982
  828MOL0     H11748   6.810   7.585   1.335 -0.7849  1.7618  2.5632
  828MOL0     H11749   6.738   7.429   1.389 -3.3632  1.2037  0.9603
  828MOL0     H11750   6.721   7.553   1.111 -4.3388  1.1316  1.9126
  828MOL0     H11751   6.659   7.399   1.152 -1.3165 -0.9010 -0.3306
  828MOL0     H11752   6.958   7.491   1.192  2.3507 -0.0017 -3.6910
  828MOL0     H11753   6.899   7.433   1.045 -1.1358  0.6274 -0.0172
  828MOL0     H11754   6.901   7.264   1.300  0.8878 -1.3215 -0.6920
  828MOL0     H11755   6.867   7.199   1.145  0.0873 -1.1298  1.1301
  828MOL0     H11756   7.116   7.295   1.267 -0.6073 -0.4353  0.5223
  828MOL0     H11757   7.110   7.316   1.089 -0.2429 -3.2469 -2.6813
  828MOL0     H11758   7.222   7.102   1.142 -0.6623 -1.0549 -1.5471
  828MOL0     H11759   7.097   7.056   1.254  1.5751  2.1756  1.5948
  828MOL0     H11760   6.318   7.286   1.307 -0.0599 -0.2273 -0.3874
  828MOL0     H11761   6.094   7.183   1.244 -0.1693 -0.8090  0.0302
  828MOL0     H11762   5.784   7.159   1.010  0.2299  0.3332 -1.3886
  828MOL0     H11763   5.588   7.065   0.884 -4.7597 -1.2452 -0.4735
  828MOL0     H11764   6.761   7.101   0.199 -0.3248  0.4394 -1.2685
  828MOL0     H11765   7.022   7.124   0.195  1.0403  3.6880  1.1152
  828MOL0     H11766   7.363   7.406   0.498  2.0176  1.2568 -0.5477
  828MOL0     H11767   7.607   7.436   0.533  2.5996 -2.0738  0.6600
  828MOL0     H11768   7.898   7.124   0.349 -0.4481  0.3988 -3.0352
  828MOL0     H11769   8.003   7.257   0.429 -0.4261  2.3221  0.0416
  828MOL0     H11770   7.969   7.411   0.262  0.0831  0.7371 -1.4603
  828MOL0     H11771   7.832   7.315   0.195  0.0858 -2.2132 -0.1554
  828MOL0     H11772   7.993   7.122   0.165 -1.2573  0.3372  0.5420
  828MOL0     H11773   8.118   7.250   0.160  0.0265  0.1866 -0.9078
  828MOL0     H11774   8.038   7.195  -0.076  2.0017  1.5033  0.0123
  828MOL0     H11775   7.866   7.218  -0.030  0.9430 -2.2848 -0.5748
  828MOL0     H11776   7.978   7.601  -0.120 -0.5722  2.4565  3.6201
  828MOL0     H11777   7.707   7.074   0.339  2.4680  1.1552  2.5554
  828MOL0     H11778   7.410   6.909   0.396 -0.2001 -0.3533 -1.2123
  828MOL0     H11779   7.362   6.980   0.243  1.3656 -0.9123 -1.2673
  828MOL0     H11780   7.526   6.928   0.259  0.3071  3.0930 -1.9541
  829MOL0     O11781   5.734   6.315  10.348 -1.1989 -0.3054  0.0809
  829MOL0     C11782   5.682   6.425  10.332 -0.1894  0.0549 -0.2058
  829MOL0     O11783   5.700   6.504  10.225 -0.6261 -0.2364 -0.2836
  829MOL0     C11784   5.803   6.481  10.145  0.4386  1.2188 -0.2606
  829MOL0     C11785   5.937   6.483  10.180 -0.6058 -0.1148 -0.0397
  829MOL0     C11786   6.030   6.483  10.074 -0.4477  0.2871 -0.3235
  829MOL0     C11787   5.999   6.469   9.939  0.1539  0.7027  0.0131
  829MOL0     O11788   6.089   6.479   9.835 -0.4025  0.1588 -0.4445
  829MOL0     C11789   6.224   6.486   9.867  0.2112  0.0657 -0.3330
  829MOL0     C11790   6.298   6.499   9.735 -0.4990  0.7577  0.6638
  829MOL0     C11791   6.451   6.453   9.755 -0.0019  0.6974 -0.6461
  829MOL0     C11792   6.501   6.369   9.643 -0.5739  0.4266 -0.1666
  829MOL0     C11793   6.630   6.285   9.672 -0.2112  0.4215  0.1566
  829MOL0     C11794   6.747   6.380   9.655 -0.0595  0.1984 -0.7448
  829MOL0     C11795   6.863   6.295   9.673 -0.2312  0.1082 -0.4465
  829MOL0     C11796   6.995   6.364   9.684 -0.2928 -0.4174 -0.1302
  829MOL0     N11797   7.057   6.351   9.814  0.1272  0.4405 -0.0446
  829MOL0     C11798   7.031   6.413   9.937  1.0829 -0.3036  0.2280
  829MOL0     C11799   7.116   6.352  10.027  0.6532  0.4777 -0.0556
  829MOL0     C11800   7.128   6.372  10.176  0.6195 -0.5043 -0.0883
  829MOL0     C11801   7.024   6.296  10.260 -0.1774  0.6957 -0.5929
  829MOL0     C11802   7.026   6.331  10.411  0.2454  0.2568  0.5588
  829MOL0     C11803   6.931   6.240  10.486 -0.0752 -0.1203 -0.8531
  829MOL0     O11804   6.795   6.256  10.443  0.5831  0.4568 -0.0715
  829MOL0     C11805   6.709   6.152  10.467 -0.4894 -0.4119 -0.5017
  829MOL0     C11806   6.735   6.051  10.563  0.4242  0.6003  0.2392
  829MOL0     C11807   6.653   5.939  10.573 -0.0446 -0.1255  0.5225
  829MOL0     C11808   6.533   5.938  10.493 -0.3316 -0.2263 -0.0772
  829MOL0     C11809   6.437   5.825  10.495 -0.1443  0.1606 -0.0970
  829MOL0     O11810   6.323   5.832  10.421  0.4958 -0.9841 -0.1280
  829MOL0     C11811   6.229   5.726  10.432 -0.6455 -0.0984 -0.4299
  829MOL0     C11812   6.115   5.748  10.498  0.3522  0.4629  0.4893
  829MOL0     C11813   6.016   5.663  10.505 -0.0863 -1.2420 -0.0756
  829MOL0     C11814   6.013   5.548  10.428 -0.3539  0.5990  0.2226
  829MOL0     O11815   5.893   5.477  10.432 -0.3081  0.1364 -0.9712
  829MOL0     C11816   5.882   5.353  10.349  1.6864  0.5368 -0.2074
  829MOL0     C11817   5.833   5.410  10.218  0.0541 -0.1403 -0.6226
  829MOL0     C11818   5.707   5.488  10.219 -0.0555 -0.1464 -0.2066
  829MOL0     C11819   5.679   5.520  10.069  0.5516 -0.2189  1.1403
  829MOL0     C11820   5.542   5.588  10.058 -0.1152  0.1069  0.3318
  829MOL0     C11821   5.514   5.642   9.920 -0.3252 -0.1356  0.6980
  829MOL0     C11822   5.467   5.535   9.817  0.2049 -1.4636 -0.2192
  829MOL0     C11823   5.577   5.471   9.731  0.0182  0.2961  0.6421
  829MOL0    Cl11824   5.508   5.345   9.628 -0.5253  0.6058  0.4424
  829MOL0     C11825   6.135   5.511  10.372 -0.1551 -0.5755 -0.0809
  829MOL0     C11826   6.242   5.595  10.371 -0.7647 -0.1718 -0.5834
  829MOL0     O11827   6.463   5.732  10.577  0.4259  0.1534 -0.3164
  829MOL0     C11828   6.512   6.036  10.400  1.2544  0.6450 -0.5046
  829MOL0     C11829   6.606   6.140  10.383 -0.9167 -0.1394  1.1334
  829MOL0     N11830   7.195   6.262   9.959  0.1059  0.8450 -0.2487
  829MOL0     N11831   7.156   6.263   9.833 -0.3498 -0.5645  0.8264
  829MOL0     C11832   5.859   6.459   9.904 -0.3324 -0.5940  0.5209
  829MOL0     C11833   5.768   6.462  10.010  0.7253  0.0399 -0.2074
  829MOL0     C11834   5.610   6.482  10.452  0.0158  0.5180 -0.5269
  829MOL0     C11835   5.517   6.403  10.513  0.5736  1.2547 -0.7467
  829MOL0     C11836   5.425   6.463  10.603 -0.4201 -0.5228  0.0450
  829MOL0     C11837   5.440   6.601  10.646 -0.4092  1.3119 -0.3277
  829MOL0     O11838   5.356   6.659  10.740 -0.5255 -0.5003 -0.1542
  829MOL0     C11839   5.214   6.630  10.733 -0.1104 -0.2222 -0.1967
  829MOL0     C11840   5.141   6.753  10.738  0.6032  0.0573 -0.6203
  829MOL0     C11841   4.996   6.728  10.761 -0.1080  0.0594 -0.3390
  829MOL0     C11842   4.963   6.719  10.913  0.2141 -0.6129  1.4866
  829MOL0     C11843   4.821   6.713  10.949  0.5440 -1.1026 -0.0386
  829MOL0     C11844   4.704   6.702  10.980  0.1334 -0.2922  0.7129
  829MOL0     C11845   5.556   6.663  10.614  0.2264 -0.2228  0.0469
  829MOL0     C11846   5.639   6.611  10.512 -0.5536  0.5177 -0.9141
  829MOL0     C11847   5.772   6.675  10.474  0.2632  1.4122 -0.5118
  829MOL0     H11848   5.968   6.501  10.282 -1.4007 -1.4586  0.4533
  829MOL0     H11849   6.134   6.490  10.104  0.1204  0.3144 -2.1897
  829MOL0     H11850   6.256   6.565   9.935  0.8211 -1.8765  1.7960
  829MOL0     H11851   6.241   6.388   9.914 -1.6765  1.0174  2.5763
  829MOL0     H11852   6.280   6.600   9.696 -0.2688  0.4753 -0.1958
  829MOL0     H11853   6.248   6.439   9.658 -0.6065  1.3881  0.2313
  829MOL0     H11854   6.460   6.397   9.849  1.2959  2.3367  0.2618
  829MOL0     H11855   6.515   6.541   9.769  0.6617  0.2505 -0.8200
  829MOL0     H11856   6.419   6.309   9.602 -1.8345  1.2696  1.0202
  829MOL0     H11857   6.519   6.441   9.562 -1.9477  2.0246  0.8595
  829MOL0     H11858   6.625   6.230   9.766  0.0375 -1.2261 -0.7346
  829MOL0     H11859   6.648   6.208   9.596 -2.7143 -2.4439  2.2108
  829MOL0     H11860   6.748   6.430   9.557 -4.1076 -2.1336 -2.2367
  829MOL0     H11861   6.746   6.452   9.737  0.0304 -2.2953  1.5930
  829MOL0     H11862   6.876   6.225   9.589  0.1559 -0.3205 -0.0309
  829MOL0     H11863   6.855   6.241   9.767  2.1792 -0.7917 -0.6730
  829MOL0     H11864   7.061   6.328   9.605 -1.3334  1.4514 -1.9260
  829MOL0     H11865   6.980   6.470   9.664 -0.6685 -0.7715 -1.9284
  829MOL0     H11866   6.961   6.492   9.963  0.4563 -0.0934 -1.9141
  829MOL0     H11867   7.228   6.347  10.212  0.5546 -0.3366  0.2230
  829MOL0     H11868   7.100   6.478  10.187 -2.3326 -1.2449  0.4342
  829MOL0     H11869   6.930   6.337  10.220 -0.0377 -0.0641 -1.7365
  829MOL0     H11870   7.026   6.189  10.240  4.5419  0.3637  0.3949
  829MOL0     H11871   7.007   6.438  10.427 -1.3976 -0.0320  0.6296
  829MOL0     H11872   7.126   6.303  10.447  1.1193  1.5702 -0.7297
  829MOL0     H11873   6.934   6.267  10.592  4.2458  4.4550 -1.7655
  829MOL0     H11874   6.960   6.135  10.480 -0.3441 -0.6863  3.9581
  829MOL0     H11875   6.821   6.051  10.629 -1.5738 -2.5416  3.1969
  829MOL0     H11876   6.673   5.850  10.633 -2.3787  0.1848  1.8909
  829MOL0     H11877   6.109   5.846  10.544 -3.5450 -0.6253  2.7354
  829MOL0     H11878   5.930   5.695  10.562  0.8405  2.5119 -0.4816
  829MOL0     H11879   5.978   5.306  10.328  1.6419  0.1877  0.3462
  829MOL0     H11880   5.817   5.274  10.389  1.5223  0.3138 -0.8812
  829MOL0     H11881   5.904   5.486  10.184 -1.8607  1.2368 -1.7417
  829MOL0     H11882   5.853   5.337  10.140 -1.5932 -0.4430 -0.7900
  829MOL0     H11883   5.619   5.432  10.254 -0.6405 -0.9838 -2.7749
  829MOL0     H11884   5.714   5.577  10.282  0.6603 -0.3626  0.0340
  829MOL0     H11885   5.682   5.432  10.005 -0.3432 -0.5057  1.4756
  829MOL0     H11886   5.755   5.588  10.029  2.1164 -2.9556 -0.8395
  829MOL0     H11887   5.555   5.679  10.118 -1.5088  0.6637 -0.1706
  829MOL0     H11888   5.457   5.523  10.082 -0.4693  0.0894 -0.8824
  829MOL0     H11889   5.426   5.706   9.933  0.9630  1.7831  0.3392
  829MOL0     H11890   5.592   5.711   9.888 -2.6483  1.3204 -2.3655
  829MOL0     H11891   5.405   5.587   9.744  1.5514  0.5249 -0.0399
  829MOL0     H11892   5.405   5.465   9.873 -0.5937  0.4145  1.3920
  829MOL0     H11893   5.626   5.549   9.670 -2.2540  0.4759 -1.0678
  829MOL0     H11894   5.652   5.421   9.793 -1.8056 -0.8914  1.9584
  829MOL0     H11895   6.156   5.415  10.324 -0.0150  0.2384 -1.7157
  829MOL0     H11896   6.336   5.570  10.321  0.6700 -1.7620  2.5923
  829MOL0     H11897   6.425   6.021  10.337  0.0614 -2.6769  1.6638
  829MOL0     H11898   6.606   6.205  10.296  2.8798 -3.3733 -1.6372
  829MOL0     H11899   5.839   6.456   9.797  0.3067 -0.1286  0.3814
  829MOL0     H11900   5.667   6.452   9.972  0.5724  4.5630 -1.6424
  829MOL0     H11901   5.514   6.299  10.480  1.3215 -0.2052  3.2136
  829MOL0     H11902   5.338   6.404  10.631 -1.2874  0.2564 -0.9431
  829MOL0     H11903   5.173   6.575  10.818 -0.1675 -0.4110 -0.3479
  829MOL0     H11904   5.182   6.573  10.646  3.5126 -3.0213  0.0398
  829MOL0     H11905   5.160   6.809  10.646  0.2101 -0.4920 -1.0353
  829MOL0     H11906   5.189   6.814  10.816  0.2073 -2.9598  2.2051
  829MOL0     H11907   4.959   6.639  10.708  1.8066 -0.0856 -1.5150
  829MOL0     H11908   4.942   6.811  10.716 -0.6366  2.7971  4.5803
  829MOL0     H11909   5.020   6.636  10.956 -1.2928 -3.0547 -0.9036
  829MOL0     H11910   4.992   6.813  10.961  0.3420  1.1754 -1.8505
  829MOL0     H11911   4.600   6.710  11.003 -0.1929  0.6333 -0.9526
  829MOL0     H11912   5.565   6.758  10.666 -1.4323 -1.4960  2.8774
  829MOL0     H11913   5.853   6.602  10.468 -0.9659 -0.0043 -0.1878
  829MOL0     H11914   5.759   6.726  10.378  0.1858 -1.5708 -2.2084
  829MOL0     H11915   5.801   6.751  10.548  0.5304  0.2507  0.5961
  830MOL0     O11916   2.392   3.743   9.614  0.0206  0.3566 -0.2277
  830MOL0     C11917   2.323   3.643   9.583  0.6198 -0.9384  0.4300
  830MOL0     O11918   2.304   3.607   9.453  0.0949 -0.3731 -0.6733
  830MOL0     C11919   2.371   3.667   9.344 -0.1767  0.2367 -0.1339
  830MOL0     C11920   2.304   3.679   9.227  0.4756  0.2610 -1.0563
  830MOL0     C11921   2.358   3.734   9.111 -0.3909 -0.8471  0.4729
  830MOL0     C11922   2.491   3.790   9.125 -0.3500 -0.7750  0.0327
  830MOL0     O11923   2.544   3.850   9.015  0.0050  0.5480  0.3657
  830MOL0     C11924   2.626   3.972   9.028  0.6299 -0.1304 -0.4366
  830MOL0     C11925   2.632   4.054   8.901  0.0689 -1.0568  0.3800
  830MOL0     C11926   2.522   4.154   8.891 -0.6316 -0.2887 -0.0948
  830MOL0     C11927   2.564   4.262   8.792 -0.3086 -0.5891 -1.5399
  830MOL0     C11928   2.439   4.332   8.736  1.3458  0.1820  1.0066
  830MOL0     C11929   2.471   4.484   8.714 -0.3661 -0.3721  0.6388
  830MOL0     C11930   2.569   4.504   8.596 -0.0258  0.0460 -0.2445
  830MOL0     C11931   2.618   4.653   8.593  0.2865 -0.1137 -0.4408
  830MOL0     N11932   2.688   4.672   8.470 -0.0932  0.1748  0.2797
  830MOL0     C11933   2.819   4.689   8.460  0.0344 -0.3265  1.0429
  830MOL0     C11934   2.831   4.741   8.331  0.7672  0.2731  0.2054
  830MOL0     C11935   2.964   4.772   8.275 -0.7660 -0.6381  0.0861
  830MOL0     C11936   3.019   4.900   8.331  0.7624  0.2777  0.0300
  830MOL0     C11937   2.918   5.015   8.314  0.1666  0.3360  0.6314
  830MOL0     C11938   2.873   5.040   8.160 -0.3405 -0.6349 -0.6480
  830MOL0     O11939   2.986   5.078   8.082 -0.1108  0.2203 -0.0777
  830MOL0     C11940   2.965   5.086   7.947 -0.1107 -0.1619  0.3416
  830MOL0     C11941   2.849   5.070   7.873  0.1301 -0.1265 -0.0503
  830MOL0     C11942   2.835   5.103   7.740  0.3729  0.3104 -0.0909
  830MOL0     C11943   2.943   5.170   7.673  0.2755  0.8260 -0.3815
  830MOL0     C11944   2.935   5.205   7.530  0.5899  0.3398 -0.5574
  830MOL0     O11945   3.052   5.186   7.460 -0.1787 -0.1210  0.2529
  830MOL0     C11946   3.075   5.235   7.330 -0.8010  0.8276 -0.0089
  830MOL0     C11947   2.976   5.275   7.237 -0.7096  0.1302  0.1421
  830MOL0     C11948   3.013   5.326   7.114 -0.5543 -0.0926  0.8663
  830MOL0     C11949   3.148   5.342   7.076  1.3543 -0.2319 -0.5431
  830MOL0     O11950   3.177   5.397   6.956 -0.5854 -0.7521 -0.3097
  830MOL0     C11951   3.131   5.523   6.919 -0.8014 -0.5917  0.8424
  830MOL0     C11952   3.242   5.625   6.954 -0.2897  0.2836  0.1404
  830MOL0     C11953   3.365   5.593   6.866 -0.6540 -0.5223  0.5960
  830MOL0     C11954   3.481   5.691   6.862 -0.3864 -0.0299 -0.7012
  830MOL0     C11955   3.613   5.624   6.817  0.7415  0.2175  0.0442
  830MOL0     C11956   3.737   5.708   6.804  0.2741 -0.7652  0.7091
  830MOL0     C11957   3.822   5.718   6.935  0.5571  0.0516 -0.1581
  830MOL0     C11958   3.762   5.819   7.035  0.0089  0.2454 -0.1111
  830MOL0    Cl11959   3.883   5.846   7.170 -0.3061  0.5532 -0.5768
  830MOL0     C11960   3.245   5.292   7.163  0.5745 -0.1306 -0.5655
  830MOL0     C11961   3.206   5.236   7.290 -0.2056  0.8851  0.7508
  830MOL0     O11962   2.826   5.233   7.484 -0.7757  0.5518  0.1765
  830MOL0     C11963   3.059   5.182   7.749 -0.6005 -0.0141  0.0867
  830MOL0     C11964   3.078   5.133   7.875 -0.3433 -0.1680  0.3743
  830MOL0     N11965   2.709   4.741   8.273  0.5035 -0.2476  0.4644
  830MOL0     N11966   2.625   4.687   8.355  0.5972 -0.4658 -0.0890
  830MOL0     C11967   2.571   3.760   9.239  0.5643  0.0889  0.5593
  830MOL0     C11968   2.504   3.698   9.352 -1.0006 -0.6826  0.2093
  830MOL0     C11969   2.230   3.574   9.680 -0.4230  0.5478 -0.3693
  830MOL0     C11970   2.119   3.503   9.623  0.0104 -0.0957  0.0581
  830MOL0     C11971   2.036   3.434   9.709  0.4261  0.5921 -0.6669
  830MOL0     C11972   2.051   3.429   9.851  0.7177 -0.9716  0.3495
  830MOL0     O11973   1.958   3.359   9.933  0.1927 -0.1778  0.0451
  830MOL0     C11974   1.988   3.334  10.070 -0.8265  0.8521 -0.1896
  830MOL0     C11975   1.885   3.229  10.113 -0.5068 -1.1083 -0.4003
  830MOL0     C11976   1.841   3.269  10.254  0.2150  0.1872 -0.2468
  830MOL0     C11977   1.745   3.184  10.329 -0.2115 -0.2103 -0.3353
  830MOL0     C11978   1.624   3.172  10.244  0.2033 -0.8524  0.7204
  830MOL0     C11979   1.522   3.175  10.182 -0.0251 -0.4649  0.3198
  830MOL0     C11980   2.158   3.495   9.906 -0.5134  0.3648  0.2970
  830MOL0     C11981   2.248   3.562   9.820  0.2636 -0.2228 -0.2788
  830MOL0     C11982   2.360   3.631   9.889 -0.9252  0.2513 -0.1044
  830MOL0     H11983   2.200   3.647   9.223  0.8771 -1.2200 -0.2586
  830MOL0     H11984   2.300   3.746   9.020  1.7667  0.9667 -0.7520
  830MOL0     H11985   2.583   4.029   9.110 -0.4762 -1.0696 -0.3310
  830MOL0     H11986   2.729   3.943   9.049  0.7835 -0.2657 -1.3211
  830MOL0     H11987   2.639   3.996   8.808  0.3058  2.6785 -2.1717
  830MOL0     H11988   2.726   4.108   8.916  0.0835 -1.3918  1.6242
  830MOL0     H11989   2.520   4.207   8.986 -1.4240  1.5967 -1.1198
  830MOL0     H11990   2.426   4.117   8.854 -1.6221  2.3295 -0.3254
  830MOL0     H11991   2.620   4.344   8.838 -1.0877 -0.9885  0.1810
  830MOL0     H11992   2.604   4.204   8.708  0.8029 -2.2069  0.0474
  830MOL0     H11993   2.394   4.278   8.652  0.4630  0.7120  1.1266
  830MOL0     H11994   2.350   4.338   8.798  0.6400 -3.0262  0.4731
  830MOL0     H11995   2.382   4.539   8.682  0.5143 -0.1487 -1.6406
  830MOL0     H11996   2.518   4.526   8.803 -1.8582  0.2550  1.1570
  830MOL0     H11997   2.513   4.483   8.505  0.0232 -0.8943 -0.0692
  830MOL0     H11998   2.655   4.436   8.589  0.6644  0.8617  0.1048
  830MOL0     H11999   2.533   4.722   8.604  0.4527 -0.0452  0.4854
  830MOL0     H12000   2.683   4.661   8.680 -0.5064  1.2282  0.0675
  830MOL0     H12001   2.900   4.681   8.532 -1.8733 -1.3992  3.1887
  830MOL0     H12002   3.033   4.697   8.314 -0.6956 -0.2214  0.7778
  830MOL0     H12003   2.945   4.787   8.168 -5.3001  0.3008  0.8239
  830MOL0     H12004   3.040   4.893   8.438  2.9831 -0.7343 -0.4223
  830MOL0     H12005   3.114   4.920   8.282  0.7283  0.0914 -0.1159
  830MOL0     H12006   2.965   5.106   8.350 -0.2289 -0.2585  2.7617
  830MOL0     H12007   2.827   4.992   8.370  0.9392 -0.0756  1.7347
  830MOL0     H12008   2.800   5.121   8.172  0.5983  0.2379 -0.7320
  830MOL0     H12009   2.814   4.954   8.125 -0.7614 -0.1115 -1.2617
  830MOL0     H12010   2.762   5.024   7.918 -0.0067  1.1741  1.0970
  830MOL0     H12011   2.745   5.077   7.686 -0.0776  1.6464 -0.0046
  830MOL0     H12012   2.881   5.237   7.272  0.9307 -0.2169  5.0206
  830MOL0     H12013   2.940   5.354   7.039  0.1211  0.9025  0.5458
  830MOL0     H12014   3.090   5.534   6.818 -1.0746 -0.1674  0.9934
  830MOL0     H12015   3.047   5.536   6.988 -0.3364 -0.2775  1.3553
  830MOL0     H12016   3.218   5.729   6.926  1.5699  0.1404 -2.3327
  830MOL0     H12017   3.283   5.618   7.055  1.2034  0.1866 -0.4524
  830MOL0     H12018   3.401   5.496   6.902 -3.5641 -1.0767  2.3180
  830MOL0     H12019   3.332   5.586   6.762 -2.4674 -2.5020  1.2233
  830MOL0     H12020   3.497   5.733   6.961 -1.8215 -1.2358  0.0767
  830MOL0     H12021   3.457   5.778   6.801  0.1224  0.0857 -0.7437
  830MOL0     H12022   3.599   5.583   6.716 -0.1870 -1.3768  0.7710
  830MOL0     H12023   3.634   5.539   6.882  1.0232 -0.1861 -0.5605
  830MOL0     H12024   3.809   5.687   6.725  2.1730  3.2359  1.1216
  830MOL0     H12025   3.690   5.806   6.786  0.3391 -1.1042 -1.6480
  830MOL0     H12026   3.918   5.760   6.906  0.9194 -1.8021 -1.7966
  830MOL0     H12027   3.837   5.625   6.990 -0.3356  0.1817  0.3387
  830MOL0     H12028   3.746   5.913   6.981  1.2152  0.0436 -0.8666
  830MOL0     H12029   3.670   5.782   7.080 -0.0953  0.3745 -0.2209
  830MOL0     H12030   3.346   5.283   7.126 -0.1742 -0.3406 -2.6762
  830MOL0     H12031   3.285   5.201   7.356  1.9249  4.2609  0.2795
  830MOL0     H12032   3.149   5.214   7.696 -1.6796 -0.3713 -2.0528
  830MOL0     H12033   3.169   5.141   7.934  0.8654 -1.0606 -1.2926
  830MOL0     H12034   2.676   3.788   9.245  0.2958  0.8864  4.4920
  830MOL0     H12035   2.563   3.677   9.440  0.2765 -1.9538 -0.8935
  830MOL0     H12036   2.085   3.515   9.521  1.7494 -1.4136 -0.7226
  830MOL0     H12037   1.953   3.379   9.664  0.5011 -0.0967  0.0080
  830MOL0     H12038   1.975   3.427  10.125 -1.8149  0.5985  0.0294
  830MOL0     H12039   2.087   3.289  10.083 -2.1315 -1.7026  2.0237
  830MOL0     H12040   1.916   3.124  10.106 -2.2745 -1.7092  0.2245
  830MOL0     H12041   1.795   3.242  10.051  0.6436 -1.0340 -2.1312
  830MOL0     H12042   1.801   3.369  10.238 -0.0490  0.2181  0.5700
  830MOL0     H12043   1.934   3.280  10.311 -0.6484 -2.5462  1.9544
  830MOL0     H12044   1.794   3.087  10.341 -2.8829 -1.7003 -0.4495
  830MOL0     H12045   1.729   3.226  10.428  1.7811  2.1930 -0.9432
  830MOL0     H12046   1.435   3.173  10.121 -0.9179 -1.3870  1.5632
  830MOL0     H12047   2.178   3.493  10.013  0.3538  1.0885  0.1585
  830MOL0     H12048   2.454   3.635   9.833  1.3151  2.6323  3.4157
  830MOL0     H12049   2.342   3.738   9.899  1.3412  0.5379  1.8565
  830MOL0     H12050   2.381   3.582   9.985  2.1530  0.4503 -0.5847
  831MOL0     O12051   7.976   8.595   8.335 -0.4603  0.1003  0.3326
  831MOL0     C12052   8.041   8.514   8.398 -0.1847 -0.1348  0.1393
  831MOL0     O12053   8.173   8.489   8.369  0.3247 -0.2786  0.2715
  831MOL0     C12054   8.242   8.599   8.312 -0.0626 -0.8616 -0.3020
  831MOL0     C12055   8.253   8.727   8.385 -0.2028 -1.2094  0.0240
  831MOL0     C12056   8.340   8.829   8.337  0.0745 -0.0140  0.0381
  831MOL0     C12057   8.424   8.805   8.228 -0.5451 -0.3276  0.4867
  831MOL0     O12058   8.527   8.889   8.194 -0.1920 -0.2614 -0.6350
  831MOL0     C12059   8.508   8.946   8.070  0.7028 -0.3682  0.1674
  831MOL0     C12060   8.443   9.089   8.094  0.5714  0.3670  0.0680
  831MOL0     C12061   8.543   9.188   8.150 -0.1113 -0.0232 -0.1964
  831MOL0     C12062   8.494   9.333   8.153  0.8705 -0.7169  0.3694
  831MOL0     C12063   8.601   9.437   8.168  0.1132 -0.5278  0.2062
  831MOL0     C12064   8.581   9.577   8.096  0.7231  0.4182  0.4825
  831MOL0     C12065   8.685   9.673   8.114  0.2290  0.1508 -0.3293
  831MOL0     C12066   8.823   9.627   8.058 -0.4055 -0.8694 -0.0773
  831MOL0     N12067   8.808   9.615   7.916 -0.2724 -0.1533 -0.0100
  831MOL0     C12068   8.758   9.700   7.828  0.6867 -1.1352 -0.5338
  831MOL0     C12069   8.762   9.637   7.717  0.9563 -0.3923  0.5151
  831MOL0     C12070   8.728   9.675   7.579  0.7889  0.1901 -0.4831
  831MOL0     C12071   8.639   9.571   7.502  0.3936 -0.1463 -0.0838
  831MOL0     C12072   8.521   9.498   7.576 -0.1723  0.3546 -0.1919
  831MOL0     C12073   8.397   9.582   7.574  0.5915 -0.2961  0.9052
  831MOL0     O12074   8.430   9.707   7.634  0.2192  0.0922 -0.0507
  831MOL0     C12075   8.354   9.816   7.608 -0.6818 -1.1757 -0.1323
  831MOL0     C12076   8.398   9.945   7.654  0.3413  0.5545  0.3335
  831MOL0     C12077   8.335  10.066   7.608 -0.5381 -0.2734 -0.9471
  831MOL0     C12078   8.222  10.068   7.523  0.2259  0.3906  0.3447
  831MOL0     C12079   8.138  10.185   7.486  0.0897  0.7379 -0.6172
  831MOL0     O12080   8.036  10.168   7.400  0.0937  0.2201 -0.6108
  831MOL0     C12081   7.994  10.280   7.334  0.6791  0.1987  0.2302
  831MOL0     C12082   8.006  10.296   7.191 -0.1708  0.2973  0.0694
  831MOL0     C12083   7.964  10.412   7.123  0.1866 -0.3245  0.2863
  831MOL0     C12084   7.907  10.509   7.206  0.8354 -0.0013  0.5266
  831MOL0     O12085   7.859  10.623   7.139 -0.7456 -0.0657  0.1365
  831MOL0     C12086   7.774  10.611   7.021  0.1418  0.3433  0.1815
  831MOL0     C12087   7.621  10.586   7.072 -0.9248 -0.5474  0.7343
  831MOL0     C12088   7.567  10.679   7.179 -0.1145  0.3958  0.0790
  831MOL0     C12089   7.416  10.649   7.208  0.1990 -1.0357 -1.0449
  831MOL0     C12090   7.343  10.776   7.266  0.0861  0.2929  0.4890
  831MOL0     C12091   7.202  10.734   7.319 -0.0284 -0.3930 -0.6312
  831MOL0     C12092   7.113  10.842   7.368 -0.1748 -0.6466 -0.3015
  831MOL0     C12093   6.978  10.801   7.414  0.2525 -0.0274  0.0911
  831MOL0    Cl12094   6.995  10.754   7.596 -0.2948  0.1830  0.1300
  831MOL0     C12095   7.895  10.507   7.340 -0.2463 -0.5484  0.1212
  831MOL0     C12096   7.943  10.392   7.403  0.0671 -0.0681  0.4659
  831MOL0     O12097   8.185  10.288   7.520 -0.4719  1.1237  0.3268
  831MOL0     C12098   8.177   9.934   7.485 -0.2207  0.6521  0.4688
  831MOL0     C12099   8.239   9.811   7.527 -0.1798 -1.5364 -0.1722
  831MOL0     N12100   8.825   9.513   7.734 -0.1588 -0.1440 -0.6976
  831MOL0     N12101   8.858   9.507   7.855  0.4817 -0.2233  0.3066
  831MOL0     C12102   8.418   8.683   8.158  0.7666  0.1949  0.0729
  831MOL0     C12103   8.323   8.589   8.197  0.4426 -0.1888  0.5471
  831MOL0     C12104   7.964   8.441   8.498 -0.7292 -0.3808 -0.8221
  831MOL0     C12105   7.824   8.459   8.493 -0.4453 -0.2374 -0.0724
  831MOL0     C12106   7.739   8.393   8.588  0.5305  0.0124  0.7401
  831MOL0     C12107   7.790   8.320   8.693  0.4185 -0.2659 -0.3554
  831MOL0     O12108   7.705   8.250   8.777  0.0562 -0.2609  0.4525
  831MOL0     C12109   7.754   8.152   8.870 -0.5892 -0.1765 -0.5691
  831MOL0     C12110   7.640   8.067   8.924  0.3190  0.0425 -0.6565
  831MOL0     C12111   7.574   8.009   8.810  0.5663 -0.5780 -0.0006
  831MOL0     C12112   7.448   7.935   8.853 -1.1424 -0.0508 -0.0990
  831MOL0     C12113   7.355   8.024   8.901  0.1015 -0.6439 -0.2977
  831MOL0     C12114   7.287   8.114   8.944  0.2191  0.1260  0.2893
  831MOL0     C12115   7.930   8.315   8.700  0.2820  0.3043 -0.5674
  831MOL0     C12116   8.018   8.370   8.603  0.2240  0.3481 -0.6992
  831MOL0     C12117   8.163   8.343   8.627  0.4297  0.7319  0.7108
  831MOL0     H12118   8.204   8.742   8.480  2.0831  2.3837  0.8506
  831MOL0     H12119   8.351   8.925   8.385 -1.3261  2.3256 -3.8089
  831MOL0     H12120   8.596   8.955   8.006 -0.9184  3.9428 -1.8050
  831MOL0     H12121   8.448   8.884   8.002 -0.6120  2.9559 -1.9217
  831MOL0     H12122   8.365   9.088   8.171  0.6764  1.6744  0.2016
  831MOL0     H12123   8.402   9.134   8.003  0.5223 -1.0053 -0.6180
  831MOL0     H12124   8.645   9.178   8.112  1.4156 -0.8739  3.6232
  831MOL0     H12125   8.556   9.158   8.254  0.1881 -1.3275 -0.5928
  831MOL0     H12126   8.428   9.350   8.067 -1.2415 -1.2669  1.8042
  831MOL0     H12127   8.425   9.344   8.237  0.9332 -0.5885  0.4030
  831MOL0     H12128   8.621   9.447   8.275 -0.4338 -2.3711  0.5284
  831MOL0     H12129   8.697   9.393   8.139  1.4984  0.9621  2.2550
  831MOL0     H12130   8.553   9.562   7.991 -1.0280 -0.0242  0.9839
  831MOL0     H12131   8.484   9.617   8.127 -0.4135 -0.2867 -1.8848
  831MOL0     H12132   8.691   9.678   8.223 -0.2669 -2.9404 -0.0915
  831MOL0     H12133   8.659   9.769   8.066  2.6367 -1.3254 -5.2506
  831MOL0     H12134   8.893   9.710   8.072 -1.1478 -0.2921  0.2360
  831MOL0     H12135   8.864   9.537   8.106  0.2376 -0.4404  0.2025
  831MOL0     H12136   8.730   9.805   7.831  2.1098 -0.7683  1.1799
  831MOL0     H12137   8.677   9.772   7.580 -1.5681 -0.8828 -3.0152
  831MOL0     H12138   8.821   9.692   7.524  2.0612 -2.0204  0.8634
  831MOL0     H12139   8.600   9.611   7.408  0.7721 -0.2131 -0.2703
  831MOL0     H12140   8.714   9.497   7.472  0.4006  0.7709 -2.4940
  831MOL0     H12141   8.542   9.455   7.674 -2.8773  0.3584  0.4743
  831MOL0     H12142   8.503   9.409   7.515  1.8492 -0.5187  0.4021
  831MOL0     H12143   8.327   9.515   7.625  1.3771 -4.1916 -2.6173
  831MOL0     H12144   8.354   9.591   7.474 -0.8597  0.6665  1.5683
  831MOL0     H12145   8.485   9.944   7.719  0.1079  0.4057  0.6504
  831MOL0     H12146   8.370  10.162   7.647 -1.6189 -1.1366  2.4907
  831MOL0     H12147   8.032  10.205   7.138  1.8498  1.3646 -0.8592
  831MOL0     H12148   7.965  10.425   7.015  0.6866  1.8657  0.5039
  831MOL0     H12149   7.780  10.709   6.972  4.9053 -0.4416 -1.3481
  831MOL0     H12150   7.786  10.528   6.951  0.3344 -1.8666  2.6840
  831MOL0     H12151   7.560  10.609   6.985  0.4058 -0.7866 -0.2923
  831MOL0     H12152   7.605  10.483   7.106 -1.8859 -0.1555  1.5370
  831MOL0     H12153   7.623  10.677   7.273 -1.3354 -0.8047  0.8342
  831MOL0     H12154   7.585  10.783   7.151  0.7006  0.7566  1.8417
  831MOL0     H12155   7.415  10.555   7.265  1.9270 -0.8691 -0.6788
  831MOL0     H12156   7.360  10.628   7.117  1.8529  0.0851 -2.3835
  831MOL0     H12157   7.347  10.850   7.186  1.7759 -0.5436 -0.2664
  831MOL0     H12158   7.408  10.811   7.347  1.1595  1.8561 -0.9607
  831MOL0     H12159   7.146  10.700   7.231  0.0398  0.7105 -1.1145
  831MOL0     H12160   7.210  10.659   7.398 -1.5491  0.2751  0.2033
  831MOL0     H12161   7.094  10.908   7.283  1.0672  1.0379  0.6783
  831MOL0     H12162   7.168  10.896   7.445 -1.4233 -0.6771  0.6569
  831MOL0     H12163   6.915  10.890   7.407  0.4678  0.1901  0.8119
  831MOL0     H12164   6.931  10.724   7.351  3.0391  0.1104 -2.3611
  831MOL0     H12165   7.847  10.582   7.402  0.7492  1.1661 -1.0916
  831MOL0     H12166   7.935  10.384   7.511 -1.5931 -2.8170  0.2379
  831MOL0     H12167   8.086   9.924   7.428  0.7012 -2.0140 -0.7347
  831MOL0     H12168   8.198   9.717   7.491  0.0013 -0.1296 -4.6266
  831MOL0     H12169   8.478   8.661   8.069 -1.8079 -0.2053 -1.6782
  831MOL0     H12170   8.307   8.499   8.137  0.7444  0.4084 -0.4527
  831MOL0     H12171   7.762   8.512   8.422 -2.0247 -2.0715 -0.1643
  831MOL0     H12172   7.632   8.412   8.581  0.2435 -1.7113  0.0870
  831MOL0     H12173   7.805   8.201   8.953 -0.7748  0.9435 -1.0901
  831MOL0     H12174   7.838   8.098   8.826 -1.2154  0.1926 -2.2683
  831MOL0     H12175   7.581   8.137   8.985 -1.0041  0.5569 -2.4304
  831MOL0     H12176   7.684   7.989   8.987 -0.3388 -1.1397 -1.6187
  831MOL0     H12177   7.638   7.931   8.767 -0.9879 -0.8503 -1.9130
  831MOL0     H12178   7.545   8.078   8.731  3.4513  1.7181  0.7360
  831MOL0     H12179   7.412   7.879   8.765  3.1724 -0.1753 -2.0289
  831MOL0     H12180   7.462   7.852   8.923  0.0371  0.1404 -0.0938
  831MOL0     H12181   7.226   8.187   8.993 -0.0710 -2.1896  3.6872
  831MOL0     H12182   7.976   8.259   8.781  1.0427 -0.0136 -1.1991
  831MOL0     H12183   8.179   8.285   8.719 -1.5895 -2.1264 -0.5823
  831MOL0     H12184   8.210   8.286   8.546 -0.0801 -0.0346  0.9410
  831MOL0     H12185   8.221   8.436   8.621 -1.5087  1.9220 -0.4189
  832MOL0     O12186   6.761   5.637   1.438  0.0700  0.6264 -0.7054
  832MOL0     C12187   6.782   5.519   1.464 -1.1452 -1.0381 -0.1461
  832MOL0     O12188   6.900   5.451   1.437 -0.1210 -0.3782 -0.2306
  832MOL0     C12189   6.989   5.505   1.340 -1.1946 -0.8611 -0.9866
  832MOL0     C12190   7.124   5.491   1.370 -0.5832  0.1200 -0.0020
  832MOL0     C12191   7.226   5.544   1.285 -0.3468  0.2303 -0.2600
  832MOL0     C12192   7.195   5.629   1.184 -1.0293  0.3809  0.1567
  832MOL0     O12193   7.284   5.687   1.097  0.5733 -0.2840  0.0693
  832MOL0     C12194   7.419   5.692   1.125  0.0189  0.0137  1.2232
  832MOL0     C12195   7.495   5.684   0.984  0.5105 -0.5151 -0.0655
  832MOL0     C12196   7.646   5.707   1.001  1.4257  0.4735  0.8089
  832MOL0     C12197   7.729   5.666   0.885  0.4700 -0.5410  0.3847
  832MOL0     C12198   7.879   5.662   0.898  0.1240 -0.4177  0.0207
  832MOL0     C12199   7.936   5.601   0.769 -1.7222 -0.8226 -0.7944
  832MOL0     C12200   8.093   5.602   0.786 -0.2411  0.1801 -0.0112
  832MOL0     C12201   8.148   5.525   0.678 -0.1673  0.4598 -0.1098
  832MOL0     N12202   8.290   5.512   0.690 -0.4984 -0.3707 -1.1889
  832MOL0     C12203   8.381   5.558   0.595 -0.6060  0.4602 -0.2408
  832MOL0     C12204   8.504   5.542   0.656  0.1074 -0.0766  0.2190
  832MOL0     C12205   8.639   5.550   0.584 -0.7235 -0.1415 -0.2006
  832MOL0     C12206   8.740   5.626   0.660 -1.0930 -1.1054  0.2305
  832MOL0     C12207   8.881   5.593   0.593  0.2845  0.1605 -0.6212
  832MOL0     C12208   8.994   5.672   0.660  0.7369  0.2155  0.1512
  832MOL0     O12209   8.985   5.815   0.635 -0.1785  0.2162 -0.8804
  832MOL0     C12210   9.098   5.898   0.641  0.2330 -0.7575  0.4657
  832MOL0     C12211   9.084   6.036   0.607 -0.2677  0.0814 -0.2796
  832MOL0     C12212   9.194   6.121   0.602 -0.4560 -0.2350  0.2365
  832MOL0     C12213   9.318   6.073   0.649 -0.1641  0.7317 -0.0023
  832MOL0     C12214   9.443   6.149   0.637 -0.4036 -0.4924 -1.0021
  832MOL0     O12215   9.445   6.254   0.559 -0.9218 -0.3520 -0.0677
  832MOL0     C12216   9.556   6.328   0.558  0.2533 -0.1247 -0.7675
  832MOL0     C12217   9.574   6.413   0.669 -0.4208 -0.2021  1.0343
  832MOL0     C12218   9.676   6.497   0.684 -0.3357  0.7678  0.3292
  832MOL0     C12219   9.786   6.480   0.595 -0.4013  0.0415  0.2646
  832MOL0     O12220   9.893   6.563   0.609 -0.4899 -0.2531  0.0826
  832MOL0     C12221   9.972   6.599   0.491  0.6383 -0.3476 -0.5819
  832MOL0     C12222  10.075   6.715   0.520  0.7009  0.1717 -0.4483
  832MOL0     C12223  10.142   6.749   0.387  0.6009  0.4704 -0.2932
  832MOL0     C12224  10.233   6.873   0.395 -1.4835  0.5149 -0.9171
  832MOL0     C12225  10.158   7.012   0.380  0.7327  0.5643  0.1494
  832MOL0     C12226  10.245   7.127   0.327 -0.5126 -0.1052 -0.1035
  832MOL0     C12227  10.371   7.167   0.413 -0.1801  0.6142 -0.1176
  832MOL0     C12228  10.453   7.287   0.358 -0.7452 -0.0355  0.4937
  832MOL0    Cl12229  10.549   7.253   0.213  0.3408 -0.0697 -0.0694
  832MOL0     C12230   9.769   6.387   0.486 -0.5712  0.2503  0.2142
  832MOL0     C12231   9.653   6.313   0.466 -0.6004  0.2009  0.6780
  832MOL0     O12232   9.545   6.111   0.694  0.3362 -0.6873 -0.4525
  832MOL0     C12233   9.331   5.934   0.686  0.0687  0.5690 -0.1059
  832MOL0     C12234   9.218   5.853   0.693  0.6894 -0.0528  0.0679
  832MOL0     N12235   8.485   5.506   0.782 -0.0442 -0.3995 -0.4894
  832MOL0     N12236   8.358   5.485   0.806  0.2284 -0.1917  0.3502
  832MOL0     C12237   7.055   5.642   1.157 -0.3773  0.4544  0.0872
  832MOL0     C12238   6.962   5.586   1.235 -0.1780  0.2981  0.5661
  832MOL0     C12239   6.669   5.456   1.542 -0.4477 -0.5629  0.6329
  832MOL0     C12240   6.539   5.493   1.513  0.4051 -0.8141 -0.6222
  832MOL0     C12241   6.425   5.451   1.588 -1.4491  0.4058 -0.2519
  832MOL0     C12242   6.445   5.373   1.696  0.3434 -0.1539 -0.2939
  832MOL0     O12243   6.333   5.353   1.773  0.2599 -0.1123 -0.5907
  832MOL0     C12244   6.341   5.264   1.889  0.2298 -0.2704 -0.0766
  832MOL0     C12245   6.207   5.267   1.964 -0.3807  0.7259  0.3991
  832MOL0     C12246   6.209   5.194   2.096 -1.2388 -0.4848 -0.6097
  832MOL0     C12247   6.294   5.281   2.196 -0.4467 -0.4358  0.0523
  832MOL0     C12248   6.239   5.407   2.234  0.2932  0.2398 -0.0287
  832MOL0     C12249   6.190   5.517   2.249 -0.3447  0.3250 -0.6354
  832MOL0     C12250   6.576   5.326   1.725 -0.7473  0.5946 -0.2959
  832MOL0     C12251   6.686   5.363   1.651  0.7913 -0.0655  0.7519
  832MOL0     C12252   6.817   5.316   1.691  0.1254 -0.0666 -0.3966
  832MOL0     H12253   7.148   5.425   1.452  1.5195  1.7794  0.8086
  832MOL0     H12254   7.328   5.513   1.306 -0.1475 -0.0310 -1.5276
  832MOL0     H12255   7.427   5.795   1.162  1.7686  0.4951 -0.2923
  832MOL0     H12256   7.459   5.615   1.191 -2.0254 -0.0368  2.4659
  832MOL0     H12257   7.460   5.754   0.906 -1.6404 -4.3678 -2.9144
  832MOL0     H12258   7.478   5.585   0.940 -1.0540  1.1190 -3.5518
  832MOL0     H12259   7.678   5.660   1.094  3.3879 -1.1400 -0.5960
  832MOL0     H12260   7.666   5.815   1.004  2.6371  0.3619 -1.2093
  832MOL0     H12261   7.711   5.563   0.853  0.5293 -0.7355  0.9701
  832MOL0     H12262   7.700   5.729   0.801 -0.7407 -0.3406  0.9426
  832MOL0     H12263   7.919   5.764   0.902 -0.4095 -0.2082  0.0978
  832MOL0     H12264   7.923   5.605   0.980  1.8047  0.4597 -0.2430
  832MOL0     H12265   7.898   5.501   0.748 -0.9950 -1.6295  1.4233
  832MOL0     H12266   7.907   5.665   0.686 -0.4574 -1.3395 -1.6674
  832MOL0     H12267   8.118   5.569   0.887  0.3570  3.8989  1.2010
  832MOL0     H12268   8.133   5.704   0.782  0.9541 -0.3133 -2.2777
  832MOL0     H12269   8.103   5.425   0.690  0.4973  0.1397 -0.2631
  832MOL0     H12270   8.127   5.563   0.578 -1.3041 -2.9509 -1.3146
  832MOL0     H12271   8.371   5.571   0.488  0.8586 -0.2467 -0.4988
  832MOL0     H12272   8.673   5.453   0.547  6.7711  1.7340  0.0095
  832MOL0     H12273   8.626   5.602   0.488 -3.0288 -2.4358 -1.2345
  832MOL0     H12274   8.715   5.729   0.631 -0.5561 -0.6627  1.2969
  832MOL0     H12275   8.741   5.621   0.769  0.6670 -1.6618  0.2161
  832MOL0     H12276   8.884   5.607   0.484  1.0488  3.8131 -0.2456
  832MOL0     H12277   8.897   5.485   0.602  2.4903  0.1947 -2.7818
  832MOL0     H12278   9.083   5.632   0.610  0.0121 -1.1632 -0.0719
  832MOL0     H12279   8.998   5.646   0.767  3.4087  2.0286  0.6166
  832MOL0     H12280   8.980   6.060   0.587  0.1043  1.3665 -0.7617
  832MOL0     H12281   9.172   6.224   0.577 -1.1750 -0.1906  1.0013
  832MOL0     H12282   9.495   6.414   0.743  0.7959 -1.1416  2.4260
  832MOL0     H12283   9.679   6.573   0.761  1.4229  0.1570  0.9266
  832MOL0     H12284  10.028   6.510   0.461  0.9751 -0.1343 -0.5888
  832MOL0     H12285   9.901   6.618   0.410 -1.0809 -3.2485  0.1012
  832MOL0     H12286  10.033   6.804   0.567  0.8197  2.3774 -4.1238
  832MOL0     H12287  10.143   6.670   0.592 -3.2638 -0.3125  3.3859
  832MOL0     H12288  10.201   6.664   0.350  1.1428  1.1412 -1.0200
  832MOL0     H12289  10.060   6.775   0.320 -1.8371 -1.0907  1.9021
  832MOL0     H12290  10.299   6.866   0.308  0.5543 -0.7685  0.6337
  832MOL0     H12291  10.304   6.857   0.477 -1.2167 -2.3647 -1.6070
  832MOL0     H12292  10.119   7.041   0.478 -1.0310  2.6978 -1.0825
  832MOL0     H12293  10.068   6.992   0.321 -1.6975 -0.2590  3.8012
  832MOL0     H12294  10.272   7.102   0.224  0.1816 -2.4981  0.5899
  832MOL0     H12295  10.177   7.212   0.317 -2.4932 -1.5184  0.6359
  832MOL0     H12296  10.429   7.075   0.428 -1.4707 -0.1749  0.1708
  832MOL0     H12297  10.331   7.194   0.511 -1.5265  0.8117 -0.7106
  832MOL0     H12298  10.403   7.381   0.335  3.3438  1.7945 -2.0434
  832MOL0     H12299  10.527   7.306   0.437  0.8838  2.6683 -1.5215
  832MOL0     H12300   9.853   6.359   0.423  2.0966 -0.3255  3.7091
  832MOL0     H12301   9.646   6.229   0.398 -1.0508 -0.1029  1.0963
  832MOL0     H12302   9.424   5.897   0.728  0.2319 -0.5836 -1.4238
  832MOL0     H12303   9.221   5.751   0.730 -2.1697 -0.0180  0.6335
  832MOL0     H12304   7.026   5.709   1.078  0.0336  0.5633  0.0244
  832MOL0     H12305   6.857   5.604   1.215  0.7116  2.0090 -3.6509
  832MOL0     H12306   6.523   5.563   1.432  0.2512  0.9390  0.8576
  832MOL0     H12307   6.321   5.476   1.574 -2.3213 -1.6408  1.7807
  832MOL0     H12308   6.423   5.304   1.949 -0.4979 -1.1106  1.5414
  832MOL0     H12309   6.376   5.164   1.860  2.9204  0.6331 -0.2101
  832MOL0     H12310   6.140   5.223   1.890  1.7081 -0.0047 -1.1727
  832MOL0     H12311   6.181   5.372   1.982  0.0316  0.5685  2.1503
  832MOL0     H12312   6.262   5.099   2.083  2.7779  1.6483 -1.4032
  832MOL0     H12313   6.110   5.173   2.139 -1.6105  1.8010 -0.1954
  832MOL0     H12314   6.322   5.219   2.282  3.3097 -0.3262 -0.9240
  832MOL0     H12315   6.389   5.302   2.147 -1.2503  1.2137 -0.9030
  832MOL0     H12316   6.172   5.621   2.269 -1.6165 -0.3217  2.0600
  832MOL0     H12317   6.585   5.266   1.815  2.0677 -1.3192 -1.6801
  832MOL0     H12318   6.898   5.387   1.670 -0.2667  0.6609  0.4445
  832MOL0     H12319   6.818   5.279   1.794 -2.5449  0.6449 -0.0534
  832MOL0     H12320   6.839   5.237   1.618 -0.2213  0.2023 -0.7953
  833MOL0     O12321   8.987  11.235   9.649  0.3395 -0.8669 -0.2463
  833MOL0     C12322   9.032  11.318   9.726  0.0848  0.0853 -0.4837
  833MOL0     O12323   9.161  11.340   9.762  1.0070 -0.0821  0.5880
  833MOL0     C12324   9.274  11.294   9.699  0.1836  0.0759  0.5226
  833MOL0     C12325   9.279  11.196   9.599 -0.6597  0.7014 -0.0926
  833MOL0     C12326   9.402  11.165   9.539 -0.6706 -0.2609 -1.0028
  833MOL0     C12327   9.524  11.228   9.582 -0.0809  0.6892 -0.2302
  833MOL0     O12328   9.650  11.210   9.520 -0.1522 -0.2980 -1.2573
  833MOL0     C12329   9.655  11.105   9.428  0.5134 -0.3137  0.0874
  833MOL0     C12330   9.793  11.075   9.385 -0.9535 -0.2719  0.4515
  833MOL0     C12331   9.803  10.991   9.255  1.1663 -0.2825  0.4557
  833MOL0     C12332   9.952  10.949   9.226  0.3979  0.3895  0.9792
  833MOL0     C12333   9.946  10.878   9.088  0.1766  0.1752 -0.6367
  833MOL0     C12334  10.070  10.813   9.037  0.1594 -0.3481  0.0432
  833MOL0     C12335  10.200  10.892   9.062 -0.2713  0.0943 -0.1010
  833MOL0     C12336  10.226  11.020   8.982  0.2267 -0.0404  0.3475
  833MOL0     N12337  10.366  11.060   8.999  0.2452 -0.0190 -0.7015
  833MOL0     C12338  10.474  11.001   8.924 -0.1858 -0.5476 -0.4940
  833MOL0     C12339  10.583  11.049   8.989  0.6235  0.0791  0.2081
  833MOL0     C12340  10.723  11.010   8.956 -0.5751  0.2917  0.2418
  833MOL0     C12341  10.780  11.115   8.863  0.4584  0.2398 -0.2106
  833MOL0     C12342  10.879  11.224   8.932  0.0210 -0.2830 -0.0014
  833MOL0     C12343  10.905  11.334   8.831  0.3702  0.2341 -0.0460
  833MOL0     O12344  10.937  11.282   8.696  0.4632 -0.8748 -0.0031
  833MOL0     C12345  11.065  11.247   8.672 -0.0707 -0.4946  0.4861
  833MOL0     C12346  11.116  11.114   8.676  0.2859  0.1700  0.2981
  833MOL0     C12347  11.251  11.094   8.650  0.4775 -0.4660  0.1762
  833MOL0     C12348  11.335  11.200   8.610 -0.5616  0.6376  0.2172
  833MOL0     C12349  11.477  11.176   8.564  0.3382  0.0878 -0.5750
  833MOL0     O12350  11.547  11.287   8.528 -1.0773  0.2612 -0.9978
  833MOL0     C12351  11.683  11.261   8.498  0.0211  0.3407  0.6999
  833MOL0     C12352  11.788  11.280   8.594 -1.4751 -0.9286  1.1807
  833MOL0     C12353  11.931  11.279   8.543 -0.6314  0.1473 -0.0478
  833MOL0     C12354  11.960  11.258   8.413 -0.4539  0.1345  0.0690
  833MOL0     O12355  12.084  11.251   8.365 -0.3428 -0.4291 -0.4473
  833MOL0     C12356  12.186  11.315   8.439  0.9271  0.4886  0.0009
  833MOL0     C12357  12.292  11.344   8.343 -0.4317  0.1749 -0.5331
  833MOL0     C12358  12.413  11.417   8.412 -0.6057 -0.6230 -0.9868
  833MOL0     C12359  12.536  11.323   8.447 -0.6015 -0.5572 -0.4475
  833MOL0     C12360  12.628  11.413   8.532 -0.2840 -0.4850  0.3275
  833MOL0     C12361  12.576  11.431   8.674  0.6794 -0.4207  0.3611
  833MOL0     C12362  12.689  11.481   8.775  0.2429  0.3713  0.6617
  833MOL0     C12363  12.688  11.632   8.780 -0.1295 -0.0749  0.8427
  833MOL0    Cl12364  12.539  11.699   8.860 -0.3285  0.4540 -0.2565
  833MOL0     C12365  11.859  11.235   8.328 -0.5768  0.3847  0.2479
  833MOL0     C12366  11.724  11.233   8.369  0.2251 -0.1686 -0.1547
  833MOL0     O12367  11.505  11.060   8.539 -0.2271  0.7980 -0.0027
  833MOL0     C12368  11.291  11.334   8.622  0.2544  0.0689  0.2943
  833MOL0     C12369  11.157  11.347   8.646  0.5396  0.5553 -0.1850
  833MOL0     N12370  10.540  11.112   9.097 -0.0396 -0.9692  0.0629
  833MOL0     N12371  10.416  11.125   9.110  0.0619 -0.2729 -0.0401
  833MOL0     C12372   9.520  11.307   9.698  0.2396  0.2968  0.0228
  833MOL0     C12373   9.395  11.339   9.760  0.5029  0.5935  0.0643
  833MOL0     C12374   8.928  11.375   9.817 -0.3614 -0.5368  1.0192
  833MOL0     C12375   8.959  11.498   9.883  0.2087  0.1305 -0.9307
  833MOL0     C12376   8.874  11.559   9.971 -0.5874 -0.2123 -0.2595
  833MOL0     C12377   8.742  11.511   9.991 -0.3406 -0.2118 -0.8491
  833MOL0     O12378   8.656  11.583  10.068  0.7186  0.0835 -0.3183
  833MOL0     C12379   8.510  11.555  10.074  0.4244 -0.0902 -0.9870
  833MOL0     C12380   8.443  11.685  10.125  0.8861 -0.2278 -0.2287
  833MOL0     C12381   8.468  11.796  10.028 -1.2028 -0.8449 -0.3409
  833MOL0     C12382   8.421  11.931  10.091  0.0721 -1.1212  0.4505
  833MOL0     C12383   8.477  12.044  10.011  0.1462 -0.3007 -0.2462
  833MOL0     C12384   8.529  12.130   9.947 -0.2157  0.4743  0.0371
  833MOL0     C12385   8.717  11.386   9.935 -0.0222  0.4233 -0.0155
  833MOL0     C12386   8.801  11.321   9.840  0.4105 -0.3385 -0.2581
  833MOL0     C12387   8.759  11.176   9.801 -0.2531  0.0505  0.3364
  833MOL0     H12388   9.202  11.137   9.551  1.4816 -0.4097 -2.4201
  833MOL0     H12389   9.392  11.099   9.454 -2.5076  0.8502 -1.7237
  833MOL0     H12390   9.611  11.019   9.478 -1.4440 -1.3794 -3.2162
  833MOL0     H12391   9.584  11.123   9.347 -1.6795 -3.8103  1.0033
  833MOL0     H12392   9.847  11.033   9.470 -2.4150 -1.0529  1.0189
  833MOL0     H12393   9.846  11.168   9.362 -4.2560  2.0901  1.6358
  833MOL0     H12394   9.769  11.043   9.165  1.4712 -1.5646 -0.4196
  833MOL0     H12395   9.736  10.907   9.275  0.6260  0.7618  3.7425
  833MOL0     H12396  10.008  11.041   9.211 -1.2260  0.9612 -2.9598
  833MOL0     H12397   9.997  10.872   9.289  1.4940 -0.2103 -0.4853
  833MOL0     H12398   9.870  10.801   9.097 -2.2254  2.5908  1.7408
  833MOL0     H12399   9.909  10.946   9.011 -1.9262 -0.8160 -0.5671
  833MOL0     H12400  10.085  10.723   9.097 -0.4281  0.8085  2.0313
  833MOL0     H12401  10.055  10.793   8.931 -0.7401  0.0617  0.0883
  833MOL0     H12402  10.279  10.823   9.031  0.7536  1.9560 -1.8788
  833MOL0     H12403  10.201  10.914   9.169 -1.5606  2.0531 -0.4457
  833MOL0     H12404  10.217  10.980   8.881 -1.7726  0.1804  0.4030
  833MOL0     H12405  10.148  11.095   9.000 -1.4948 -1.9753  1.4424
  833MOL0     H12406  10.477  10.926   8.846 -3.3864  0.9667 -2.2804
  833MOL0     H12407  10.784  11.010   9.047 -2.9427  2.2570  1.9476
  833MOL0     H12408  10.730  10.915   8.903  0.3988  0.9921 -0.9242
  833MOL0     H12409  10.828  11.051   8.788 -1.0096 -1.0587 -0.0820
  833MOL0     H12410  10.698  11.169   8.814  0.5415  0.7686  0.2192
  833MOL0     H12411  10.978  11.185   8.959  0.1876 -0.6784 -1.1314
  833MOL0     H12412  10.825  11.266   9.017 -0.8300 -0.5643 -0.3973
  833MOL0     H12413  10.987  11.400   8.861  0.2141  0.7433 -0.6964
  833MOL0     H12414  10.814  11.394   8.818  1.5509  1.8706 -1.1508
  833MOL0     H12415  11.052  11.033   8.707 -3.0929  2.9619  1.1545
  833MOL0     H12416  11.288  10.992   8.647 -1.0022 -1.1605  2.5553
  833MOL0     H12417  11.766  11.300   8.698  0.5985  0.3030  1.4149
  833MOL0     H12418  12.009  11.286   8.617 -0.2533 -1.3139 -0.2773
  833MOL0     H12419  12.148  11.408   8.482 -1.5856  1.3695 -3.6728
  833MOL0     H12420  12.220  11.253   8.523 -0.3766  1.0842  0.9899
  833MOL0     H12421  12.332  11.258   8.288  1.2791  1.4628 -1.3731
  833MOL0     H12422  12.254  11.414   8.268  0.8013  0.2043 -1.1416
  833MOL0     H12423  12.451  11.491   8.341 -2.5098 -1.2068 -2.7351
  833MOL0     H12424  12.369  11.473   8.494  0.1858  1.5472 -1.9515
  833MOL0     H12425  12.601  11.284   8.368  2.8106 -2.5804  3.0488
  833MOL0     H12426  12.502  11.239   8.509  3.1721  0.1029  2.9447
  833MOL0     H12427  12.639  11.509   8.480  0.9285 -0.7989 -0.0368
  833MOL0     H12428  12.724  11.361   8.529 -1.3551 -2.5568  0.2814
  833MOL0     H12429  12.484  11.489   8.685  0.3487 -1.0187  0.8226
  833MOL0     H12430  12.551  11.334   8.718 -0.1461  0.5051  2.0277
  833MOL0     H12431  12.785  11.451   8.732 -0.6752  0.9031 -1.9211
  833MOL0     H12432  12.665  11.437   8.873 -2.0050  1.7512  0.7947
  833MOL0     H12433  12.779  11.654   8.838  1.9646 -1.6334 -1.6230
  833MOL0     H12434  12.690  11.674   8.679  0.6369 -0.2905  0.7619
  833MOL0     H12435  11.890  11.216   8.225 -2.7747 -3.0576  0.0500
  833MOL0     H12436  11.644  11.217   8.297  0.2941 -1.6871  0.0715
  833MOL0     H12437  11.361  11.415   8.608 -1.0010  1.2455  0.6225
  833MOL0     H12438  11.109  11.444   8.637  0.0089  0.1347 -2.4413
  833MOL0     H12439   9.614  11.330   9.747  1.2245 -2.7434 -0.2408
  833MOL0     H12440   9.384  11.411   9.840 -2.3949 -0.8061  1.0428
  833MOL0     H12441   9.055  11.549   9.870  0.0300  0.9400  0.5779
  833MOL0     H12442   8.892  11.652  10.023  0.6725 -1.8017  2.3854
  833MOL0     H12443   8.490  11.477  10.147 -1.2500  0.6345 -0.6112
  833MOL0     H12444   8.479  11.507   9.981  0.4466 -0.2050 -0.9338
  833MOL0     H12445   8.485  11.702  10.225  0.0245  0.2866  0.0571
  833MOL0     H12446   8.336  11.666  10.138  0.6150  0.6795 -1.0246
  833MOL0     H12447   8.422  11.771   9.932  4.2268 -1.1380 -3.2458
  833MOL0     H12448   8.573  11.804  10.000 -1.4582 -1.1543 -1.4259
  833MOL0     H12449   8.312  11.946  10.087  0.4210  1.8261 -1.6100
  833MOL0     H12450   8.460  11.935  10.193  0.5196 -0.4421  0.2551
  833MOL0     H12451   8.583  12.199   9.886 -0.7198  1.6416  0.8713
  833MOL0     H12452   8.621  11.341   9.957 -0.1757  0.7853  0.0655
  833MOL0     H12453   8.672  11.136   9.854  1.5473 -1.2480  2.5406
  833MOL0     H12454   8.737  11.168   9.695  0.0316  2.5625  0.0348
  833MOL0     H12455   8.845  11.111   9.818  1.4895  1.3818 -2.6124
  834MOL0     O12456   6.230   4.426   0.980  0.0896 -0.3142 -0.1155
  834MOL0     C12457   6.278   4.434   0.866  0.4432  0.6497  0.3918
  834MOL0     O12458   6.403   4.415   0.825 -0.0192  0.3208 -0.6320
  834MOL0     C12459   6.482   4.371   0.931  0.7840  0.0164  0.0823
  834MOL0     C12460   6.545   4.473   1.006 -0.4307  0.3412 -0.0097
  834MOL0     C12461   6.623   4.428   1.118 -0.2338  0.1878 -0.1024
  834MOL0     C12462   6.649   4.291   1.142  0.8278 -0.9567 -0.7270
  834MOL0     O12463   6.737   4.242   1.242  0.4861 -0.0440  0.2962
  834MOL0     C12464   6.868   4.304   1.235  0.4652  0.5969  0.5921
  834MOL0     C12465   6.967   4.218   1.322  0.3518 -0.7628  0.5571
  834MOL0     C12466   7.110   4.202   1.269 -0.4343 -0.2325 -0.3169
  834MOL0     C12467   7.196   4.111   1.358  0.4422  0.0411  0.3471
  834MOL0     C12468   7.326   4.076   1.286  0.1473  0.7991 -0.6762
  834MOL0     C12469   7.410   3.976   1.371 -0.0873  0.0906 -0.6085
  834MOL0     C12470   7.357   3.836   1.395  0.0954 -0.2664 -0.0293
  834MOL0     C12471   7.279   3.777   1.283 -0.4478 -0.2000  0.6370
  834MOL0     N12472   7.291   3.628   1.286 -1.1061 -0.1389  0.1302
  834MOL0     C12473   7.257   3.540   1.383 -0.5612 -0.3472  0.0090
  834MOL0     C12474   7.300   3.415   1.341  1.0201  0.3386 -0.4390
  834MOL0     C12475   7.272   3.284   1.407 -0.3895 -0.1391 -0.3957
  834MOL0     C12476   7.321   3.265   1.548 -0.2479 -0.5537 -0.1416
  834MOL0     C12477   7.480   3.253   1.548  0.5709  0.2162 -0.1256
  834MOL0     C12478   7.540   3.390   1.557  0.0938 -0.6715 -1.0130
  834MOL0     O12479   7.676   3.378   1.585  0.6118  0.1212 -0.0836
  834MOL0     C12480   7.760   3.349   1.481  0.6341  0.3746  0.0515
  834MOL0     C12481   7.816   3.224   1.480 -0.1791  0.4965 -0.1269
  834MOL0     C12482   7.927   3.200   1.403 -0.7179  0.5985  0.2162
  834MOL0     C12483   7.987   3.293   1.319  0.4541  0.3282 -1.0705
  834MOL0     C12484   8.115   3.267   1.254  0.0251  0.0248 -0.6724
  834MOL0     O12485   8.158   3.133   1.252 -0.4421 -0.3453  0.5261
  834MOL0     C12486   8.275   3.105   1.179 -0.3810  0.7264 -0.7203
  834MOL0     C12487   8.372   3.017   1.242  0.3233  0.8494  0.0193
  834MOL0     C12488   8.486   2.969   1.177  0.0438  0.0168 -0.1495
  834MOL0     C12489   8.526   3.025   1.058 -0.2545  0.5500  0.2735
  834MOL0     O12490   8.637   2.978   0.985 -0.0319  0.1619 -0.9025
  834MOL0     C12491   8.768   3.010   1.044 -0.0424  0.8884  0.0683
  834MOL0     C12492   8.887   2.965   0.960 -0.5341 -0.7302  0.6586
  834MOL0     C12493   9.003   3.023   1.033 -0.0601 -0.4498 -0.1074
  834MOL0     C12494   9.132   2.999   0.963 -0.0586 -0.2929 -0.9545
  834MOL0     C12495   9.239   3.083   1.031  0.5621 -1.0528  0.6884
  834MOL0     C12496   9.378   3.048   0.988 -0.2205  0.3065 -0.2913
  834MOL0     C12497   9.477   3.142   1.075 -0.3059  0.8595  0.9630
  834MOL0     C12498   9.622   3.093   1.059  0.4308 -0.4865 -0.0004
  834MOL0    Cl12499   9.736   3.199   1.135  0.3698 -0.7377  0.3685
  834MOL0     C12500   8.437   3.117   0.991 -0.0598 -0.6649 -0.2636
  834MOL0     C12501   8.313   3.149   1.047  0.0416 -0.1306  0.1189
  834MOL0     O12502   8.170   3.369   1.205 -0.6173  0.2734 -0.2644
  834MOL0     C12503   7.930   3.421   1.327  0.1697  0.2330  0.6370
  834MOL0     C12504   7.811   3.445   1.401 -0.4668 -0.1365 -0.2317
  834MOL0     N12505   7.365   3.436   1.214  0.7216  0.4100  0.2997
  834MOL0     N12506   7.367   3.559   1.192  0.2624  0.1934 -0.1234
  834MOL0     C12507   6.594   4.203   1.057  0.6496  0.2856  0.7121
  834MOL0     C12508   6.510   4.241   0.957  0.0067 -0.1538  0.3733
  834MOL0     C12509   6.174   4.461   0.760 -0.2312 -0.5454  0.4337
  834MOL0     C12510   6.068   4.550   0.793  0.0939  0.7428 -0.8545
  834MOL0     C12511   5.976   4.598   0.694  0.2445 -0.4568 -0.6523
  834MOL0     C12512   5.987   4.559   0.559  0.2079 -0.0565 -0.1564
  834MOL0     O12513   5.886   4.588   0.467 -0.0789 -0.2922 -0.4690
  834MOL0     C12514   5.816   4.489   0.412 -0.2092  1.2245 -0.3500
  834MOL0     C12515   5.667   4.480   0.465  0.0902 -0.2084  0.1908
  834MOL0     C12516   5.576   4.589   0.447  0.8801  0.5677 -0.6074
  834MOL0     C12517   5.616   4.727   0.500  0.0206  0.1134 -0.6427
  834MOL0     C12518   5.516   4.831   0.501  0.3880  0.2456 -0.4855
  834MOL0     C12519   5.433   4.924   0.488 -0.4795  0.4648 -0.7414
  834MOL0     C12520   6.082   4.463   0.533  0.3092  0.5724 -0.0122
  834MOL0     C12521   6.176   4.411   0.624  0.7180  0.1545 -0.8761
  834MOL0     C12522   6.264   4.293   0.584 -0.3164 -0.8420 -0.0623
  834MOL0     H12523   6.542   4.581   0.988  1.1408  0.3925 -0.0844
  834MOL0     H12524   6.683   4.494   1.180 -2.6172  0.9957  1.5082
  834MOL0     H12525   6.912   4.299   1.134  4.2385  1.3079  2.0382
  834MOL0     H12526   6.866   4.410   1.263  0.2984 -0.0255  3.0929
  834MOL0     H12527   6.924   4.118   1.323  1.2235 -1.1534  0.6346
  834MOL0     H12528   6.970   4.257   1.425  1.2930 -0.2746  0.3589
  834MOL0     H12529   7.163   4.297   1.257  1.9136 -1.5235 -0.7988
  834MOL0     H12530   7.106   4.163   1.167 -1.9747  3.1301 -1.7167
  834MOL0     H12531   7.195   4.158   1.457 -3.2232  0.1532  0.3611
  834MOL0     H12532   7.145   4.019   1.386  3.3429 -0.4372  5.2098
  834MOL0     H12533   7.309   4.033   1.187 -2.1251 -0.3491  0.1372
  834MOL0     H12534   7.377   4.170   1.264  1.2151  0.2056 -0.8159
  834MOL0     H12535   7.504   3.955   1.320  0.2243  1.2250 -0.5217
  834MOL0     H12536   7.438   4.013   1.470  0.7490  1.8291 -1.4515
  834MOL0     H12537   7.302   3.823   1.488  1.9922 -1.0623  1.0314
  834MOL0     H12538   7.449   3.777   1.404  0.2440 -0.3711 -1.8113
  834MOL0     H12539   7.175   3.811   1.286 -0.7595 -1.0874 -0.0154
  834MOL0     H12540   7.328   3.807   1.190  1.7992 -0.9738  1.4882
  834MOL0     H12541   7.208   3.560   1.478 -1.4245  2.9484 -1.0029
  834MOL0     H12542   7.165   3.262   1.410 -0.8738  2.0800  0.4495
  834MOL0     H12543   7.321   3.201   1.356 -0.7081 -0.8820  0.4835
  834MOL0     H12544   7.274   3.342   1.610  1.1425  3.5209 -3.6466
  834MOL0     H12545   7.289   3.165   1.577  0.7740 -1.5168 -2.1561
  834MOL0     H12546   7.509   3.201   1.456  0.2637  0.1185 -0.1684
  834MOL0     H12547   7.508   3.187   1.630  1.6483  0.4388 -0.3026
  834MOL0     H12548   7.486   3.442   1.636  1.7867 -0.7848  0.2904
  834MOL0     H12549   7.536   3.441   1.460  1.8440 -0.2897 -0.9266
  834MOL0     H12550   7.784   3.137   1.536 -1.2323  1.1543  0.3212
  834MOL0     H12551   7.955   3.095   1.403  3.0965  1.4346 -1.0786
  834MOL0     H12552   8.343   2.980   1.339 -0.3436  4.0046  1.1372
  834MOL0     H12553   8.548   2.892   1.222  0.4303 -0.1794 -0.9945
  834MOL0     H12554   8.771   3.118   1.064  3.2495  1.2329 -1.5707
  834MOL0     H12555   8.776   2.957   1.140  0.8598  1.9030  0.5869
  834MOL0     H12556   8.896   2.857   0.975  2.0854 -0.4689  1.5106
  834MOL0     H12557   8.880   2.992   0.854  2.2284  1.4324  0.9273
  834MOL0     H12558   8.994   3.130   1.058  2.8529 -0.1965  0.1735
  834MOL0     H12559   9.012   2.962   1.124 -3.5384  1.3637  1.6926
  834MOL0     H12560   9.106   3.024   0.860 -2.4976  0.0598 -0.3051
  834MOL0     H12561   9.160   2.893   0.965  1.9870  0.2018 -1.1808
  834MOL0     H12562   9.225   3.084   1.140 -1.6866  0.0011  0.4538
  834MOL0     H12563   9.208   3.185   1.003  1.0676 -1.5581 -1.9983
  834MOL0     H12564   9.400   2.941   0.996  0.6434  0.3490 -1.6958
  834MOL0     H12565   9.388   3.075   0.883  0.1827  0.3852 -0.2309
  834MOL0     H12566   9.452   3.139   1.181 -2.1606  2.4143  0.6187
  834MOL0     H12567   9.480   3.241   1.030  0.1910 -0.3818 -1.9739
  834MOL0     H12568   9.621   2.997   1.111 -3.6075 -0.7078 -0.1641
  834MOL0     H12569   9.643   3.087   0.952  1.4216  0.6932  0.0999
  834MOL0     H12570   8.458   3.154   0.891  0.1330  0.8043  0.3107
  834MOL0     H12571   8.251   3.211   0.982 -0.3175  0.5123  1.0545
  834MOL0     H12572   7.958   3.506   1.265  0.8729  1.5733  2.6697
  834MOL0     H12573   7.776   3.547   1.408  3.3104  1.5354 -2.7479
  834MOL0     H12574   6.621   4.099   1.073  1.5116 -0.0243 -2.2674
  834MOL0     H12575   6.469   4.160   0.897 -1.8525  0.9301  0.1274
  834MOL0     H12576   6.050   4.579   0.896  0.1389 -2.5999  0.1981
  834MOL0     H12577   5.886   4.652   0.720 -0.7163 -1.5890 -1.5235
  834MOL0     H12578   5.859   4.389   0.424 -2.0597  0.0841 -2.3714
  834MOL0     H12579   5.828   4.504   0.305  0.6588  0.1063 -0.4329
  834MOL0     H12580   5.668   4.453   0.571  0.7910  3.6709  1.3364
  834MOL0     H12581   5.621   4.398   0.411 -0.2602 -0.2556  0.5594
  834MOL0     H12582   5.483   4.550   0.490  0.2930  0.8467 -1.5837
  834MOL0     H12583   5.553   4.610   0.342 -2.1785  2.6382  0.3336
  834MOL0     H12584   5.647   4.706   0.603 -0.6633 -1.4959 -0.7361
  834MOL0     H12585   5.694   4.760   0.431  1.9920  0.6115  1.7154
  834MOL0     H12586   5.387   5.020   0.491 -1.2993  0.0669  0.1123
  834MOL0     H12587   6.091   4.413   0.438  1.0165  2.1913 -0.8365
  834MOL0     H12588   6.284   4.294   0.476  3.6752  3.1988  0.4316
  834MOL0     H12589   6.365   4.298   0.625  0.0332 -4.1363 -0.2397
  834MOL0     H12590   6.211   4.205   0.623 -2.5583  1.0062  1.3779
  835MOL0     O12591   0.341  10.636  10.761 -0.8708  0.6572 -0.3236
  835MOL0     C12592   0.263  10.660  10.853 -0.2555 -0.1563 -0.1251
  835MOL0     O12593   0.271  10.619  10.988  0.4271  0.5844 -0.7654
  835MOL0     C12594   0.390  10.566  11.033 -0.6432  0.9002  0.8367
  835MOL0     C12595   0.380  10.452  11.114  0.6573  1.1479  0.5044
  835MOL0     C12596   0.493  10.399  11.176  0.8214  0.1818  0.2679
  835MOL0     C12597   0.623  10.468  11.165  0.1731 -0.4055  0.4579
  835MOL0     O12598   0.722  10.413  11.239 -0.6743  0.0282  0.0912
  835MOL0     C12599   0.854  10.470  11.232 -0.6136  0.3724  0.0029
  835MOL0     C12600   0.960  10.380  11.292  0.3884  0.2767 -0.8487
  835MOL0     C12601   0.906  10.331  11.425 -0.5423  0.1461 -0.7860
  835MOL0     C12602   1.026  10.310  11.516 -0.6282  0.9363  0.7957
  835MOL0     C12603   1.059  10.420  11.608 -0.7637 -0.3672  0.5365
  835MOL0     C12604   1.180  10.390  11.697  0.6203 -0.1743 -0.8238
  835MOL0     C12605   1.232  10.516  11.770  0.9112  0.6630 -0.2598
  835MOL0     C12606   1.320  10.580  11.666  0.1554  0.0625  0.7396
  835MOL0     N12607   1.397  10.691  11.718 -0.3454 -0.2731  0.4933
  835MOL0     C12608   1.342  10.820  11.714 -0.2586 -0.3071  0.3191
  835MOL0     C12609   1.428  10.905  11.760 -1.0101  0.1333  0.0493
  835MOL0     C12610   1.402  11.056  11.792  0.5917 -0.0273  0.3634
  835MOL0     C12611   1.505  11.150  11.747 -0.0651  0.1419 -0.6277
  835MOL0     C12612   1.448  11.285  11.718  0.4074 -0.6392  0.9306
  835MOL0     C12613   1.548  11.391  11.658 -0.3911 -0.4732  0.1909
  835MOL0     O12614   1.665  11.392  11.747 -0.3447  0.3164 -0.7830
  835MOL0     C12615   1.780  11.435  11.696  0.2018 -0.8973 -0.6508
  835MOL0     C12616   1.801  11.469  11.566  0.3971 -0.3620 -0.2681
  835MOL0     C12617   1.927  11.514  11.530 -0.8977 -0.0075 -0.5199
  835MOL0     C12618   2.031  11.533  11.614 -0.5563 -0.7586 -0.1471
  835MOL0     C12619   2.156  11.604  11.572  0.0287 -0.2539  0.5559
  835MOL0     O12620   2.260  11.594  11.662  0.1224 -0.3151  0.5249
  835MOL0     C12621   2.377  11.650  11.617  0.1959 -0.2186 -0.0078
  835MOL0     C12622   2.396  11.788  11.624 -0.7224 -0.1926  0.5223
  835MOL0     C12623   2.527  11.832  11.583 -0.5039 -0.4358  0.2085
  835MOL0     C12624   2.629  11.736  11.551  0.3915  0.3597 -0.5371
  835MOL0     O12625   2.753  11.784  11.510  0.6255 -0.2512  0.7541
  835MOL0     C12626   2.867  11.703  11.483  0.4242  0.0835  0.4382
  835MOL0     C12627   2.973  11.772  11.400 -0.7550  0.2036  0.3619
  835MOL0     C12628   2.981  11.729  11.249  0.0797 -0.2101  0.4437
  835MOL0     C12629   3.014  11.841  11.152 -0.7308 -0.7846  0.3022
  835MOL0     C12630   3.144  11.914  11.184 -0.3461 -0.3840 -0.0200
  835MOL0     C12631   3.195  12.031  11.092 -0.8063 -0.4543 -0.3174
  835MOL0     C12632   3.314  12.112  11.139 -0.6116  0.6879  0.3298
  835MOL0     C12633   3.332  12.229  11.038 -0.0600  0.3561  0.0260
  835MOL0    Cl12634   3.460  12.339  11.103  0.3757 -0.4525  0.0981
  835MOL0     C12635   2.603  11.600  11.559  0.4973 -0.2310 -0.2361
  835MOL0     C12636   2.477  11.550  11.583  0.1881 -0.5477  0.0269
  835MOL0     O12637   2.158  11.656  11.455 -0.1137  0.3863  0.2505
  835MOL0     C12638   2.014  11.490  11.750  0.2049 -0.4224  0.7546
  835MOL0     C12639   1.888  11.432  11.785 -0.7127 -0.3713  0.3361
  835MOL0     N12640   1.548  10.833  11.784 -0.0444 -0.0632 -0.3738
  835MOL0     N12641   1.526  10.709  11.758  0.3114  0.2769 -0.2836
  835MOL0     C12642   0.625  10.574  11.076 -1.5244 -0.1395 -0.1015
  835MOL0     C12643   0.512  10.621  11.013 -0.4462 -0.5252  0.4796
  835MOL0     C12644   0.134  10.735  10.806  1.3595 -0.0332  0.1671
  835MOL0     C12645   0.041  10.780  10.904  0.3838 -0.2905 -0.6331
  835MOL0     C12646  -0.085  10.831  10.866  0.4256  1.1997  0.2344
  835MOL0     C12647  -0.135  10.835  10.742 -0.4376  0.0864 -0.2972
  835MOL0     O12648  -0.263  10.882  10.723  0.5035 -0.1737  0.2634
  835MOL0     C12649  -0.275  10.953  10.593 -0.3033 -0.2561 -0.2944
  835MOL0     C12650  -0.195  11.082  10.579  0.2210  0.8004  0.7998
  835MOL0     C12651  -0.232  11.194  10.676 -0.7500  0.3317  0.5607
  835MOL0     C12652  -0.116  11.230  10.764  0.1148  0.5601 -0.6507
  835MOL0     C12653  -0.032  11.325  10.686  0.0952 -0.5750  0.3755
  835MOL0     C12654   0.031  11.411  10.622  0.5374  0.0510  0.2139
  835MOL0     C12655  -0.051  10.789  10.642 -0.4319 -1.0042 -0.2693
  835MOL0     C12656   0.083  10.750  10.673 -0.1246 -0.4879  0.7938
  835MOL0     C12657   0.175  10.722  10.560  0.9849 -0.5138 -1.2442
  835MOL0     H12658   0.285  10.401  11.107  0.6127  1.4597 -3.0150
  835MOL0     H12659   0.485  10.310  11.237  0.2789 -0.3402 -0.5413
  835MOL0     H12660   0.900  10.488  11.134 -2.7848 -0.0763 -1.1525
  835MOL0     H12661   0.849  10.568  11.280  0.2128 -1.0045  3.1406
  835MOL0     H12662   1.047  10.444  11.308  0.6664 -0.4887  0.8971
  835MOL0     H12663   0.974  10.299  11.220 -2.1198 -0.8474 -0.1969
  835MOL0     H12664   0.838  10.246  11.420  3.2686 -3.2075 -0.4025
  835MOL0     H12665   0.851  10.417  11.467  2.6365  0.9483  2.2140
  835MOL0     H12666   1.000  10.226  11.581 -1.7862 -0.9587 -1.9406
  835MOL0     H12667   1.119  10.292  11.460 -1.6802 -1.5466 -0.2840
  835MOL0     H12668   1.085  10.510  11.551 -0.3046 -1.8996 -1.7903
  835MOL0     H12669   0.968  10.432  11.668 -1.6354  2.2156 -1.0956
  835MOL0     H12670   1.152  10.309  11.763 -1.5796  1.1892  0.0018
  835MOL0     H12671   1.263  10.353  11.635  1.2391 -0.6687  0.2799
  835MOL0     H12672   1.284  10.484  11.860 -0.8389  0.7966  0.8547
  835MOL0     H12673   1.152  10.587  11.795  0.9211 -0.1744  2.3828
  835MOL0     H12674   1.404  10.521  11.629 -0.0796  0.9295 -1.3124
  835MOL0     H12675   1.259  10.618  11.583 -0.2594  0.5489  1.2579
  835MOL0     H12676   1.238  10.840  11.688 -0.2407 -1.5106 -0.8305
  835MOL0     H12677   1.301  11.079  11.757  1.0508  0.3243 -0.8002
  835MOL0     H12678   1.400  11.059  11.901 -0.8013  0.1854  0.3448
  835MOL0     H12679   1.587  11.161  11.818 -1.2023  4.3022  0.3702
  835MOL0     H12680   1.554  11.103  11.662  2.3156  0.1320  0.6718
  835MOL0     H12681   1.398  11.330  11.804 -1.0940 -1.6713  0.6262
  835MOL0     H12682   1.371  11.279  11.641 -0.0448 -0.2881  1.3535
  835MOL0     H12683   1.498  11.488  11.667 -1.6927 -1.0255 -0.6487
  835MOL0     H12684   1.572  11.365  11.554 -2.4969  2.2482 -1.1233
  835MOL0     H12685   1.727  11.469  11.486  0.2108 -0.0941 -0.0973
  835MOL0     H12686   1.930  11.544  11.426  1.3512 -0.3545 -0.6119
  835MOL0     H12687   2.323  11.853  11.672  0.2546 -0.0812  1.9196
  835MOL0     H12688   2.540  11.940  11.586 -1.5522 -0.2866  3.2566
  835MOL0     H12689   2.896  11.687  11.587 -0.2963  1.1422  0.8230
  835MOL0     H12690   2.833  11.606  11.445 -2.2257  0.3653  1.8250
  835MOL0     H12691   2.956  11.880  11.407  2.6613  0.9280 -0.5906
  835MOL0     H12692   3.069  11.737  11.440 -0.8939 -0.7321 -0.1077
  835MOL0     H12693   3.059  11.653  11.240  2.6097  2.1965  0.6426
  835MOL0     H12694   2.884  11.684  11.223  0.4467 -1.7421  1.5880
  835MOL0     H12695   2.939  11.920  11.167  0.0541  0.5581 -2.3049
  835MOL0     H12696   3.011  11.810  11.048  1.3589 -0.9037  0.2461
  835MOL0     H12697   3.207  11.825  11.178 -2.7982 -2.4459  2.1955
  835MOL0     H12698   3.140  11.938  11.290 -1.5664 -0.3293 -0.0719
  835MOL0     H12699   3.225  11.981  10.999 -0.0933 -2.6071  0.9882
  835MOL0     H12700   3.112  12.100  11.074 -1.0498  0.3037  3.0740
  835MOL0     H12701   3.406  12.053  11.142 -0.3839  0.8589 -1.6499
  835MOL0     H12702   3.300  12.153  11.239 -1.3906  0.9407  0.1226
  835MOL0     H12703   3.375  12.198  10.942  1.3204  1.2556  0.3275
  835MOL0     H12704   3.242  12.290  11.028  0.3595  1.2122  1.2309
  835MOL0     H12705   2.683  11.529  11.542  2.6628  1.5559  1.8397
  835MOL0     H12706   2.456  11.444  11.586  1.6063 -0.8163  1.9546
  835MOL0     H12707   2.083  11.488  11.834  1.2715  2.1200  0.0466
  835MOL0     H12708   1.862  11.394  11.883  0.1529 -1.3587  0.2084
  835MOL0     H12709   0.723  10.619  11.062 -1.0263 -1.5650 -1.3824
  835MOL0     H12710   0.519  10.704  10.943 -0.8064 -0.4541  0.5256
  835MOL0     H12711   0.062  10.779  11.011 -0.2869  0.4337 -0.4893
  835MOL0     H12712  -0.152  10.849  10.950  0.6968 -0.7795  0.9253
  835MOL0     H12713  -0.380  10.984  10.602  0.4524  2.0726  1.8088
  835MOL0     H12714  -0.276  10.883  10.510  0.2664  0.2722 -0.7553
  835MOL0     H12715  -0.205  11.113  10.474 -0.3192 -1.7814  0.0098
  835MOL0     H12716  -0.089  11.052  10.578 -0.2815 -1.5301 -2.9024
  835MOL0     H12717  -0.315  11.156  10.737 -1.2967  3.1581  1.7125
  835MOL0     H12718  -0.266  11.280  10.618 -0.6495 -0.1999 -0.2972
  835MOL0     H12719  -0.146  11.274  10.860  0.7461 -0.4961  0.0550
  835MOL0     H12720  -0.047  11.153  10.799 -0.6846  1.6881  4.1875
  835MOL0     H12721   0.084  11.484  10.564  1.6393  0.8764  2.1869
  835MOL0     H12722  -0.068  10.799  10.535  1.8869  2.5142 -0.4709
  835MOL0     H12723   0.193  10.615  10.548 -0.3603 -1.0123  0.6602
  835MOL0     H12724   0.137  10.742  10.460  0.4072 -0.6549 -1.0565
  835MOL0     H12725   0.260  10.791  10.567  0.9757 -0.6444  0.8610
  836MOL0     O12726   1.994   8.523  11.232 -0.2799 -0.1265  0.0277
  836MOL0     C12727   2.049   8.419  11.202  0.8463 -0.0351  0.2403
  836MOL0     O12728   2.180   8.408  11.167  0.6856 -0.2339  0.0952
  836MOL0     C12729   2.252   8.509  11.220  0.1645 -0.6853  0.4152
  836MOL0     C12730   2.309   8.597  11.131 -0.0377 -0.7961  0.1714
  836MOL0     C12731   2.396   8.699  11.188  0.2498  0.0954  0.7865
  836MOL0     C12732   2.416   8.710  11.322 -0.2139  0.5649 -0.0025
  836MOL0     O12733   2.480   8.809  11.385  0.4746  0.7431 -0.1275
  836MOL0     C12734   2.449   8.948  11.355 -0.0223  0.8708  0.3197
  836MOL0     C12735   2.511   9.030  11.470 -0.0922  0.3239 -0.8216
  836MOL0     C12736   2.663   9.005  11.486  0.3582 -0.3930  0.6898
  836MOL0     C12737   2.737   9.135  11.531 -0.2095  0.9727 -0.7366
  836MOL0     C12738   2.888   9.104  11.547 -0.4862 -0.0895  0.2033
  836MOL0     C12739   2.964   9.055  11.416  0.0345 -0.0424  0.6201
  836MOL0     C12740   3.102   9.004  11.454 -0.6190 -0.2055  0.3878
  836MOL0     C12741   3.157   8.914  11.335 -0.5495 -0.3450  0.0677
  836MOL0     N12742   3.304   8.895  11.353  0.7562 -0.2861  0.9499
  836MOL0     C12743   3.372   8.782  11.373  1.4900 -0.0209  0.1055
  836MOL0     C12744   3.500   8.817  11.402 -0.1682  0.7054  0.3590
  836MOL0     C12745   3.611   8.724  11.440  0.4002  0.1551  0.2770
  836MOL0     C12746   3.653   8.652  11.320 -0.2812  0.1448  0.1274
  836MOL0     C12747   3.722   8.737  11.214  0.5805  0.5346  0.1470
  836MOL0     C12748   3.863   8.775  11.232  0.5565 -0.3955 -0.1636
  836MOL0     O12749   3.936   8.662  11.261  0.1899 -0.1756 -1.0137
  836MOL0     C12750   4.060   8.680  11.302 -0.3592  0.0288  0.5007
  836MOL0     C12751   4.121   8.801  11.318 -0.5919  0.3707  0.7596
  836MOL0     C12752   4.260   8.818  11.348 -0.4533  0.7748  0.0244
  836MOL0     C12753   4.337   8.706  11.366 -0.2789  1.0731  0.7598
  836MOL0     C12754   4.479   8.713  11.403 -1.0479  0.1443 -0.6453
  836MOL0     O12755   4.509   8.837  11.464  0.1011  0.3112  0.3198
  836MOL0     C12756   4.637   8.872  11.508  0.2223 -0.4590  0.3304
  836MOL0     C12757   4.627   8.941  11.632  0.1217  0.0032  0.0619
  836MOL0     C12758   4.748   8.966  11.701  0.5214  1.1813 -0.4040
  836MOL0     C12759   4.873   8.930  11.647 -0.4701  0.4522 -0.3892
  836MOL0     O12760   4.996   8.926  11.710  0.3797  0.2508  0.1625
  836MOL0     C12761   5.022   8.990  11.842  1.1065  0.0821 -0.1164
  836MOL0     C12762   5.154   8.936  11.906 -0.0215 -0.0658  0.3108
  836MOL0     C12763   5.275   9.022  11.895 -0.3554  0.1740  0.2650
  836MOL0     C12764   5.390   8.970  11.989  0.3986 -0.2803 -0.2494
  836MOL0     C12765   5.525   9.054  11.958 -0.3648  0.6229 -0.4032
  836MOL0     C12766   5.524   9.207  11.948 -0.2349  0.0915 -0.2703
  836MOL0     C12767   5.472   9.269  12.081  0.5499 -0.2059  0.0536
  836MOL0     C12768   5.504   9.418  12.087  0.6131  0.2682  0.0648
  836MOL0    Cl12769   5.414   9.475  12.231  0.2694  0.2990 -0.2937
  836MOL0     C12770   4.873   8.857  11.529 -0.2498 -0.3818 -0.6698
  836MOL0     C12771   4.759   8.831  11.459  0.9787  0.1943 -0.0042
  836MOL0     O12772   4.553   8.614  11.405 -0.8791  0.4723  0.6168
  836MOL0     C12773   4.276   8.582  11.345  0.5397  0.6154  0.7627
  836MOL0     C12774   4.139   8.567  11.315  0.3825 -0.0529 -0.5477
  836MOL0     N12775   3.507   8.956  11.379 -0.3424 -0.3167  0.5843
  836MOL0     N12776   3.388   9.000  11.345 -0.4544  0.1324 -0.7940
  836MOL0     C12777   2.369   8.606  11.407  0.0903  0.2261 -0.4708
  836MOL0     C12778   2.289   8.508  11.354  0.4381 -0.3286 -0.0771
  836MOL0     C12779   1.974   8.297  11.189 -0.6073 -1.3564  0.2891
  836MOL0     C12780   2.043   8.177  11.209 -0.1212 -0.0306 -0.2761
  836MOL0     C12781   1.985   8.056  11.155  0.0808  0.7719 -0.0231
  836MOL0     C12782   1.850   8.049  11.123 -0.2617 -0.6584  0.0053
  836MOL0     O12783   1.812   7.921  11.093 -0.6108 -0.2474 -0.6728
  836MOL0     C12784   1.733   7.891  10.976 -0.7523 -0.2858 -0.0710
  836MOL0     C12785   1.746   7.746  10.940 -0.3440 -0.3921  0.1650
  836MOL0     C12786   1.681   7.699  10.812 -0.2643 -0.2283 -1.1295
  836MOL0     C12787   1.679   7.799  10.690 -0.6429 -0.1570 -0.7038
  836MOL0     C12788   1.603   7.738  10.579  1.1332 -0.2314 -1.0887
  836MOL0     C12789   1.533   7.692  10.492 -0.1358  0.1186 -0.1911
  836MOL0     C12790   1.777   8.164  11.114 -0.4811  0.1301  0.0493
  836MOL0     C12791   1.836   8.289  11.143  0.7384 -0.3627  0.4249
  836MOL0     C12792   1.756   8.412  11.124 -1.7438  0.4476 -0.7111
  836MOL0     H12793   2.293   8.590  11.024 -0.4107 -0.7816  0.2218
  836MOL0     H12794   2.452   8.763  11.120  2.8570 -3.8140 -1.1344
  836MOL0     H12795   2.505   8.980  11.267  1.2283 -3.2687 -0.6230
  836MOL0     H12796   2.343   8.965  11.339 -0.2430 -1.6566 -1.5241
  836MOL0     H12797   2.461   8.994  11.560  1.5535 -1.9464 -0.7059
  836MOL0     H12798   2.496   9.134  11.440  0.8428  1.1572  1.4270
  836MOL0     H12799   2.711   8.969  11.395 -1.6953  1.1482 -1.0830
  836MOL0     H12800   2.695   8.928  11.557  1.3192  1.0542  1.8820
  836MOL0     H12801   2.730   9.220  11.463  1.6145  2.0635  0.3434
  836MOL0     H12802   2.701   9.171  11.628 -0.2671 -0.1894 -0.3130
  836MOL0     H12803   2.935   9.195  11.585 -2.3059  0.1227  2.1280
  836MOL0     H12804   2.902   9.025  11.622 -1.2022  2.0573  2.7675
  836MOL0     H12805   2.921   8.974  11.356  1.3245 -1.0405  1.0205
  836MOL0     H12806   2.965   9.154  11.368 -1.0542  1.1106  2.7987
  836MOL0     H12807   3.101   8.941  11.543 -0.1548 -0.9991 -0.1522
  836MOL0     H12808   3.160   9.096  11.467  0.8660 -0.5073 -3.0173
  836MOL0     H12809   3.104   8.818  11.334  2.6263 -2.2453  0.8050
  836MOL0     H12810   3.130   8.953  11.236  1.0688  1.6648  0.3480
  836MOL0     H12811   3.330   8.683  11.363  0.5252  0.2107  1.6518
  836MOL0     H12812   3.688   8.788  11.484 -1.9591  2.2096  1.6904
  836MOL0     H12813   3.586   8.664  11.528  0.7808  0.0142  0.2920
  836MOL0     H12814   3.727   8.578  11.353  0.7673  0.8886 -0.5230
  836MOL0     H12815   3.575   8.590  11.274  2.6711 -1.5214 -3.0323
  836MOL0     H12816   3.656   8.822  11.194 -0.0017  0.0944  0.1644
  836MOL0     H12817   3.727   8.688  11.116 -2.1205  2.1429 -0.8780
  836MOL0     H12818   3.870   8.854  11.307  1.4774 -2.0867  1.6269
  836MOL0     H12819   3.901   8.815  11.137 -1.1099 -0.3353 -0.8427
  836MOL0     H12820   4.076   8.899  11.306 -1.1226  0.0191 -0.2616
  836MOL0     H12821   4.294   8.919  11.364 -3.1172  1.4523  2.2687
  836MOL0     H12822   4.528   8.954  11.674  0.4666 -0.0315  0.9050
  836MOL0     H12823   4.732   9.002  11.802 -0.2949 -3.0307  1.1973
  836MOL0     H12824   5.033   9.099  11.842  3.6599 -0.1010  0.8879
  836MOL0     H12825   4.936   8.975  11.908  1.0981 -0.0656 -0.1618
  836MOL0     H12826   5.139   8.910  12.011  3.3294 -0.0120  0.9291
  836MOL0     H12827   5.174   8.849  11.841  0.9618  2.0145 -2.3581
  836MOL0     H12828   5.315   9.029  11.794  1.6124 -2.7171  0.7243
  836MOL0     H12829   5.234   9.117  11.930  1.1642  0.9028  0.1279
  836MOL0     H12830   5.416   8.865  11.974  0.1635 -1.0359  3.6211
  836MOL0     H12831   5.339   8.983  12.085 -2.6432 -1.4580 -1.5874
  836MOL0     H12832   5.559   9.005  11.866 -1.3406 -0.2897 -0.2962
  836MOL0     H12833   5.596   9.024  12.037  0.4179  2.6005 -0.2973
  836MOL0     H12834   5.630   9.234  11.951 -0.6684  1.7951  0.7494
  836MOL0     H12835   5.477   9.244  11.857 -0.2000  0.7462 -0.0294
  836MOL0     H12836   5.516   9.222  12.169  1.4870 -0.0232 -0.3007
  836MOL0     H12837   5.363   9.255  12.077  0.4412  0.4463  0.5363
  836MOL0     H12838   5.612   9.438  12.085  0.7751 -0.4293  1.2010
  836MOL0     H12839   5.466   9.473  12.001  0.0816  0.0065  0.1293
  836MOL0     H12840   4.970   8.824  11.494 -0.8258 -1.7947 -0.9697
  836MOL0     H12841   4.772   8.781  11.363  1.0409  3.7614 -2.0413
  836MOL0     H12842   4.333   8.490  11.349  0.1924  0.4271  1.8172
  836MOL0     H12843   4.109   8.464  11.306  1.3667 -0.4288  0.1777
  836MOL0     H12844   2.400   8.608  11.511  3.6132 -0.3574 -1.3963
  836MOL0     H12845   2.253   8.427  11.417  0.2990 -0.1001  0.1381
  836MOL0     H12846   2.147   8.185  11.238 -0.1914 -0.4251  0.0991
  836MOL0     H12847   2.044   7.966  11.143  2.5347  2.6050 -3.0285
  836MOL0     H12848   1.762   7.952  10.890 -0.3366  1.7163  1.4382
  836MOL0     H12849   1.633   7.925  11.005 -0.6759  0.1782 -0.3374
  836MOL0     H12850   1.721   7.683  11.025 -1.4446 -1.6394 -1.0341
  836MOL0     H12851   1.850   7.716  10.927 -0.5719 -3.4141  3.7522
  836MOL0     H12852   1.580   7.670  10.845  0.1126 -0.3404 -0.0136
  836MOL0     H12853   1.731   7.606  10.783  1.5540  0.0459  0.8635
  836MOL0     H12854   1.619   7.887  10.715 -1.6173 -1.1373  0.5268
  836MOL0     H12855   1.781   7.828  10.664 -0.0625 -1.3472  0.1236
  836MOL0     H12856   1.469   7.667  10.409 -0.8566  2.0268 -0.2471
  836MOL0     H12857   1.674   8.164  11.078 -0.3034 -0.3206 -0.4788
  836MOL0     H12858   1.729   8.459  11.219  0.3995  3.5025 -1.4678
  836MOL0     H12859   1.808   8.485  11.062 -1.2066  0.4082 -0.3179
  836MOL0     H12860   1.668   8.380  11.067 -2.3340  2.7362 -1.2074
  837MOL0     O12861   6.544   5.583  11.128 -0.7931 -0.8082  0.6510
  837MOL0     C12862   6.477   5.654  11.047 -0.5865 -0.5288 -0.2895
  837MOL0     O12863   6.508   5.780  10.998  0.1832 -0.3210  0.0864
  837MOL0     C12864   6.636   5.839  11.007  0.1709 -0.4673 -0.7060
  837MOL0     C12865   6.739   5.796  11.099 -0.0925 -0.9553  0.0602
  837MOL0     C12866   6.875   5.857  11.099  0.8760  0.3382  0.1822
  837MOL0     C12867   6.909   5.958  11.006 -0.1087  0.1183  0.3284
  837MOL0     O12868   7.038   6.005  10.979  0.5417  0.1386 -0.0188
  837MOL0     C12869   7.147   5.957  11.061  0.0242  0.0965  0.5268
  837MOL0     C12870   7.166   6.012  11.205 -0.3807 -0.7679 -0.1563
  837MOL0     C12871   7.232   5.907  11.306 -0.3777  0.7912  0.2665
  837MOL0     C12872   7.360   5.844  11.260  0.1701  0.3357  0.5494
  837MOL0     C12873   7.394   5.703  11.321  0.2966 -0.3692  0.1564
  837MOL0     C12874   7.443   5.707  11.472  0.8880 -0.2852 -0.8608
  837MOL0     C12875   7.474   5.565  11.531  0.8045  0.8781  0.0582
  837MOL0     C12876   7.564   5.481  11.451  0.2090 -0.3903 -0.1849
  837MOL0     N12877   7.580   5.350  11.518  0.0844 -0.7378  0.7069
  837MOL0     C12878   7.688   5.314  11.600  0.5241  0.4032 -1.2221
  837MOL0     C12879   7.664   5.186  11.630  0.3555 -0.2034  0.2118
  837MOL0     C12880   7.739   5.085  11.710  0.3002 -0.4558 -0.1325
  837MOL0     C12881   7.801   4.970  11.630 -0.0097  0.4344 -0.4117
  837MOL0     C12882   7.845   4.991  11.479  0.4396 -1.1617  1.0187
  837MOL0     C12883   7.937   5.115  11.448  0.2439  0.1099 -0.0162
  837MOL0     O12884   8.067   5.077  11.480 -0.3748 -0.5328  0.2614
  837MOL0     C12885   8.165   5.154  11.449  0.1707  0.2191  0.1835
  837MOL0     C12886   8.165   5.293  11.429  0.2293 -0.7071 -0.0418
  837MOL0     C12887   8.270   5.362  11.383  0.1716  0.1091 -0.4691
  837MOL0     C12888   8.386   5.296  11.350  0.4242 -0.4380  0.1953
  837MOL0     C12889   8.504   5.381  11.305 -0.2501  0.6126 -0.6990
  837MOL0     O12890   8.623   5.316  11.299  1.0569 -0.4668 -0.2953
  837MOL0     C12891   8.735   5.381  11.263 -1.0326  0.4618 -0.0922
  837MOL0     C12892   8.764   5.510  11.203  0.3597  0.8438  0.2307
  837MOL0     C12893   8.891   5.553  11.174  0.7893 -0.2432 -0.2112
  837MOL0     C12894   9.005   5.473  11.194  0.9921 -0.9746 -0.4304
  837MOL0     O12895   9.127   5.526  11.154  0.2796 -0.6221  0.5938
  837MOL0     C12896   9.245   5.443  11.164 -0.0864 -0.1223  0.3630
  837MOL0     C12897   9.257   5.338  11.052  0.7386 -0.3554  0.0911
  837MOL0     C12898   9.330   5.399  10.940 -0.4211  0.3477 -0.6200
  837MOL0     C12899   9.294   5.338  10.806 -0.5671 -0.7050  0.3557
  837MOL0     C12900   9.388   5.394  10.698  0.4484 -0.3941 -0.7686
  837MOL0     C12901   9.384   5.317  10.566  0.5057  0.3419  0.2493
  837MOL0     C12902   9.485   5.390  10.472  1.2146 -0.3384  0.3864
  837MOL0     C12903   9.548   5.283  10.382 -0.0289 -0.3306  1.0201
  837MOL0    Cl12904   9.425   5.210  10.277 -0.0975  0.0808 -0.0948
  837MOL0     C12905   8.985   5.352  11.260  0.9232  0.5866  0.2837
  837MOL0     C12906   8.852   5.309  11.288  0.3154  0.1202 -0.0208
  837MOL0     O12907   8.491   5.501  11.286  0.9653  0.0554 -0.4087
  837MOL0     C12908   8.401   5.161  11.365 -0.1514  0.6475  0.3092
  837MOL0     C12909   8.282   5.090  11.407 -0.4732 -0.5039  0.4515
  837MOL0     N12910   7.547   5.150  11.564  0.1018 -0.1612  0.2952
  837MOL0     N12911   7.500   5.246  11.491 -0.2070  0.4626  0.1090
  837MOL0     C12912   6.802   6.017  10.936  0.6513 -0.4011  0.8397
  837MOL0     C12913   6.674   5.956  10.934  0.2617 -0.1392  0.5397
  837MOL0     C12914   6.347   5.591  11.012  0.2501 -0.8380  0.9091
  837MOL0     C12915   6.297   5.637  10.887 -0.5465  1.1490 -0.0855
  837MOL0     C12916   6.160   5.616  10.851 -0.7386  0.8713  0.0169
  837MOL0     C12917   6.091   5.517  10.923  0.5409 -0.0009  1.2338
  837MOL0     O12918   5.959   5.484  10.900 -0.2305 -0.5595  0.1373
  837MOL0     C12919   5.883   5.536  10.794  0.6237 -1.0440  0.4495
  837MOL0     C12920   5.737   5.494  10.816  1.0144 -0.2081  0.7046
  837MOL0     C12921   5.634   5.611  10.793  0.1450 -0.5767 -0.1123
  837MOL0     C12922   5.490   5.584  10.826  0.1282 -0.6163  0.1720
  837MOL0     C12923   5.478   5.577  10.972  0.3826  0.0124 -0.2010
  837MOL0     C12924   5.447   5.579  11.090  1.5168 -0.5954  0.5162
  837MOL0     C12925   6.144   5.464  11.044 -0.8174 -0.6041  0.3110
  837MOL0     C12926   6.267   5.508  11.090  0.5372 -0.0210 -0.1858
  837MOL0     C12927   6.302   5.472  11.230  0.8974 -0.2155 -0.4970
  837MOL0     H12928   6.709   5.718  11.169 -1.8407 -1.4942 -1.2138
  837MOL0     H12929   6.943   5.817  11.173 -0.7070  1.4856  2.3681
  837MOL0     H12930   7.130   5.850  11.076 -0.1242  0.0465  0.0128
  837MOL0     H12931   7.247   5.967  11.015  1.4372 -0.5899  3.2520
  837MOL0     H12932   7.079   6.060  11.252 -0.4926 -3.2294  2.3974
  837MOL0     H12933   7.238   6.094  11.201 -0.2050 -0.8985  0.2519
  837MOL0     H12934   7.165   5.825  11.334  1.9459 -0.0413  4.0261
  837MOL0     H12935   7.257   5.949  11.404 -0.6881 -2.2005  1.7322
  837MOL0     H12936   7.345   5.823  11.154 -0.1725  0.8678  0.4890
  837MOL0     H12937   7.442   5.917  11.266 -0.9160  1.6143  0.2474
  837MOL0     H12938   7.304   5.644  11.303  1.6961 -1.7441 -3.2405
  837MOL0     H12939   7.467   5.657  11.253 -0.8943  0.1412 -1.5474
  837MOL0     H12940   7.539   5.759  11.466  0.6743 -0.0396 -2.4499
  837MOL0     H12941   7.371   5.757  11.538  1.8116  1.1628 -0.9006
  837MOL0     H12942   7.382   5.506  11.537  0.1299  1.9244  0.2207
  837MOL0     H12943   7.517   5.573  11.631 -0.3572 -0.3086  0.6795
  837MOL0     H12944   7.523   5.451  11.354 -0.0011  0.6363 -0.4277
  837MOL0     H12945   7.665   5.520  11.441 -0.0906  0.6529  0.7358
  837MOL0     H12946   7.763   5.389  11.625  1.1896 -0.2178 -1.3350
  837MOL0     H12947   7.822   5.135  11.761  2.2490 -1.6176 -2.0083
  837MOL0     H12948   7.672   5.051  11.789  2.0450 -0.8745  1.2308
  837MOL0     H12949   7.886   4.930  11.686  2.0214  0.5303 -3.2171
  837MOL0     H12950   7.729   4.888  11.625  1.7096 -1.4520  2.5346
  837MOL0     H12951   7.756   5.008  11.418  4.5048  1.6395 -5.1144
  837MOL0     H12952   7.894   4.907  11.430  2.0677  0.2344  0.1766
  837MOL0     H12953   7.914   5.208  11.501  1.0195  1.0072 -1.1919
  837MOL0     H12954   7.926   5.139  11.342  1.4395  0.7991 -0.0031
  837MOL0     H12955   8.071   5.339  11.456 -1.4232 -3.1017 -1.3432
  837MOL0     H12956   8.249   5.468  11.378 -0.2006  0.0943  0.5553
  837MOL0     H12957   8.691   5.587  11.181  1.0249  0.8645 -2.3469
  837MOL0     H12958   8.903   5.648  11.122 -0.6514 -0.2051 -0.5198
  837MOL0     H12959   9.329   5.512  11.172 -0.5882  0.3665  1.8335
  837MOL0     H12960   9.238   5.401  11.265 -1.7254  1.4348  0.9607
  837MOL0     H12961   9.304   5.248  11.093 -0.8255 -1.3827 -0.3088
  837MOL0     H12962   9.157   5.310  11.020  0.5159 -1.2967  1.5022
  837MOL0     H12963   9.310   5.506  10.931 -2.0520 -0.0078 -1.7191
  837MOL0     H12964   9.438   5.399  10.955 -0.1220 -0.4224 -2.5294
  837MOL0     H12965   9.186   5.347  10.789  0.0618  2.8449 -3.4334
  837MOL0     H12966   9.308   5.231  10.819 -1.7111 -0.9034  0.0711
  837MOL0     H12967   9.492   5.389  10.731  0.4673 -1.0704 -0.9094
  837MOL0     H12968   9.363   5.500  10.686  0.4644 -0.4266 -1.0740
  837MOL0     H12969   9.405   5.213  10.592  0.7088  1.1223  3.5789
  837MOL0     H12970   9.284   5.323  10.522  0.4239 -0.0930  0.3740
  837MOL0     H12971   9.551   5.454  10.531 -0.8768  2.0424  0.3044
  837MOL0     H12972   9.433   5.462  10.408  2.0361  1.2002  1.3923
  837MOL0     H12973   9.621   5.329  10.314 -2.0575  4.8586  1.9083
  837MOL0     H12974   9.587   5.196  10.436 -3.4184 -3.2705 -0.8332
  837MOL0     H12975   9.065   5.284  11.290  1.3617  0.9994  0.0620
  837MOL0     H12976   8.846   5.214  11.339  0.9665 -1.8720 -3.3171
  837MOL0     H12977   8.494   5.108  11.350  0.8107  2.2509  0.4950
  837MOL0     H12978   8.285   4.982  11.418 -1.5113 -0.5212  0.6813
  837MOL0     H12979   6.836   6.105  10.883  0.8922  0.3191  2.1447
  837MOL0     H12980   6.606   6.004  10.864 -1.7550  0.5347  2.8451
  837MOL0     H12981   6.355   5.691  10.813 -0.7151  0.0226 -1.0748
  837MOL0     H12982   6.120   5.664  10.762 -1.3429 -2.5100 -1.7094
  837MOL0     H12983   5.913   5.499  10.696  1.9612  1.2631 -0.0972
  837MOL0     H12984   5.878   5.645  10.795 -0.0722 -1.0511 -0.7724
  837MOL0     H12985   5.734   5.453  10.917  1.3950 -4.6220 -0.8478
  837MOL0     H12986   5.709   5.420  10.740 -1.0699  0.9669  0.2468
  837MOL0     H12987   5.646   5.637  10.688  3.6860  1.4654  0.6341
  837MOL0     H12988   5.650   5.706  10.845 -0.8097 -0.5197  0.0908
  837MOL0     H12989   5.425   5.662  10.785  0.6944  0.7482  1.7473
  837MOL0     H12990   5.449   5.490  10.787  0.0093  0.2825 -2.0287
  837MOL0     H12991   5.436   5.581  11.197 -2.0172 -0.2366  0.2689
  837MOL0     H12992   6.093   5.393  11.108  0.9789 -3.2891 -1.0458
  837MOL0     H12993   6.404   5.434  11.244  0.6899 -1.0014 -1.0588
  837MOL0     H12994   6.298   5.564  11.290  0.1681  0.1777 -1.1367
  837MOL0     H12995   6.248   5.389  11.278  1.2229 -1.5311 -2.3083
  838MOL0     O12996   7.051   0.106   2.140  0.8302 -0.2189 -0.8568
  838MOL0     C12997   7.072  -0.015   2.145 -0.4673  0.4237 -0.4833
  838MOL0     O12998   7.174  -0.077   2.222  0.5311  1.0249  0.7574
  838MOL0     C12999   7.228  -0.017   2.327 -0.7810 -0.2514 -0.1776
  838MOL0     C13000   7.177   0.091   2.404  0.5262  0.3016  0.6954
  838MOL0     C13001   7.251   0.147   2.514  0.0957  0.8639  0.2944
  838MOL0     C13002   7.378   0.105   2.537  0.1784 -0.0130  0.3147
  838MOL0     O13003   7.446   0.142   2.654 -0.8146  0.9738  0.2527
  838MOL0     C13004   7.404   0.248   2.736  0.1585  0.4730  0.9664
  838MOL0     C13005   7.514   0.300   2.829 -0.1958 -0.3166 -0.0078
  838MOL0     C13006   7.652   0.338   2.763  0.4000 -0.5976  0.7213
  838MOL0     C13007   7.769   0.354   2.863  0.4734 -0.5595  0.3244
  838MOL0     C13008   7.899   0.420   2.802  0.3358 -0.5570 -1.1063
  838MOL0     C13009   7.999   0.468   2.913  0.4716 -0.6535  0.1659
  838MOL0     C13010   8.130   0.519   2.850 -0.1331  0.4210 -0.0427
  838MOL0     C13011   8.195   0.638   2.911 -0.1908 -0.5740  0.1904
  838MOL0     N13012   8.339   0.650   2.879  0.1721 -0.5613 -0.4200
  838MOL0     C13013   8.438   0.559   2.900  0.6104 -0.2963 -0.0034
  838MOL0     C13014   8.551   0.620   2.851  0.3666  0.9516 -0.6028
  838MOL0     C13015   8.693   0.574   2.868 -1.2072 -0.2329 -0.0129
  838MOL0     C13016   8.800   0.681   2.809 -0.2175 -0.5009 -0.3091
  838MOL0     C13017   8.840   0.644   2.668  0.6341 -0.5476 -0.2591
  838MOL0     C13018   8.938   0.742   2.589 -0.6339  0.1078  0.1929
  838MOL0     O13019   9.050   0.777   2.665 -0.7493 -0.2613 -0.3409
  838MOL0     C13020   9.168   0.699   2.651  0.5525  0.6725 -0.4088
  838MOL0     C13021   9.286   0.757   2.705 -0.8120  0.5728 -0.5297
  838MOL0     C13022   9.406   0.688   2.684  0.1317 -0.3725 -0.2931
  838MOL0     C13023   9.419   0.566   2.617  0.2846 -0.5491 -0.7441
  838MOL0     C13024   9.547   0.490   2.613  0.2306 -0.3698  0.2473
  838MOL0     O13025   9.637   0.523   2.704 -0.3404 -0.7117  0.1838
  838MOL0     C13026   9.730   0.427   2.723 -1.0119 -0.2687 -0.4578
  838MOL0     C13027   9.868   0.457   2.719  0.3025 -0.3191 -0.5430
  838MOL0     C13028   9.967   0.362   2.754 -0.2346  1.2950  0.3759
  838MOL0     C13029   9.934   0.239   2.801 -0.9072  0.6683 -0.1821
  838MOL0     O13030  10.028   0.135   2.814 -0.3221 -0.7660  0.2981
  838MOL0     C13031  10.135   0.170   2.914 -1.3704  0.2309  0.1534
  838MOL0     C13032  10.108   0.123   3.059 -0.7470 -0.4763  0.5454
  838MOL0     C13033  10.220   0.140   3.156  0.4725  0.0124 -0.1262
  838MOL0     C13034  10.335   0.033   3.128 -0.1672  0.9732 -0.5704
  838MOL0     C13035  10.335  -0.109   3.200  0.0844 -0.2648  0.3887
  838MOL0     C13036  10.469  -0.165   3.190  0.0130  0.4281  0.4340
  838MOL0     C13037  10.546  -0.180   3.056  0.1090  0.8423  0.6050
  838MOL0     C13038  10.700  -0.205   3.089  0.2556 -0.7020  0.5955
  838MOL0    Cl13039  10.785  -0.058   3.120  0.5812  0.0541 -0.3346
  838MOL0     C13040   9.800   0.204   2.811 -0.3751 -0.4878 -0.9998
  838MOL0     C13041   9.703   0.305   2.785  0.2278 -0.1296 -0.2916
  838MOL0     O13042   9.547   0.392   2.533 -0.2385  0.0751 -0.1792
  838MOL0     C13043   9.292   0.518   2.561  1.1416  0.5232 -0.1561
  838MOL0     C13044   9.168   0.585   2.579  0.1652  0.3513 -0.0370
  838MOL0     N13045   8.512   0.739   2.799  0.3035 -0.6800 -0.4069
  838MOL0     N13046   8.389   0.758   2.810  0.5680 -0.0607  0.0349
  838MOL0     C13047   7.433   0.001   2.463  0.6752  0.5456  0.9929
  838MOL0     C13048   7.360  -0.056   2.351 -0.6930 -0.5849  0.3476
  838MOL0     C13049   7.000  -0.093   2.043  0.2894  0.6157  0.3766
  838MOL0     C13050   7.073  -0.180   1.967 -0.6262 -0.8081  0.4762
  838MOL0     C13051   7.018  -0.272   1.879  0.1603 -0.2295 -0.1905
  838MOL0     C13052   6.880  -0.280   1.860 -0.0234  0.1392  0.3155
  838MOL0     O13053   6.833  -0.377   1.760  0.5459 -0.1500 -0.3793
  838MOL0     C13054   6.688  -0.385   1.742  0.2491 -0.4886 -0.8155
  838MOL0     C13055   6.657  -0.509   1.656 -0.3382  0.0807 -0.3647
  838MOL0     C13056   6.700  -0.491   1.515  1.0363  0.2052  0.6925
  838MOL0     C13057   6.678  -0.611   1.437  0.4502  1.5228  0.2798
  838MOL0     C13058   6.539  -0.661   1.438 -0.1104  0.3589  0.8024
  838MOL0     C13059   6.426  -0.694   1.454  0.4453 -0.0344  0.3307
  838MOL0     C13060   6.807  -0.183   1.929  0.0383  0.0882 -0.4426
  838MOL0     C13061   6.863  -0.090   2.019  0.3138 -0.7070 -0.7596
  838MOL0     C13062   6.772   0.001   2.102  0.4298  0.4801  0.2968
  838MOL0     H13063   7.076   0.128   2.391 -0.6819 -2.7602  0.3951
  838MOL0     H13064   7.210   0.213   2.590  1.3927 -1.4231  3.1875
  838MOL0     H13065   7.371   0.328   2.669  2.1640 -1.3724 -2.5234
  838MOL0     H13066   7.323   0.220   2.805 -1.9491  0.8716 -1.1913
  838MOL0     H13067   7.539   0.214   2.892  0.2523 -1.5824 -1.8573
  838MOL0     H13068   7.467   0.375   2.894  1.7807  1.8185 -0.8930
  838MOL0     H13069   7.647   0.425   2.697  4.0049 -1.5737 -1.1065
  838MOL0     H13070   7.685   0.264   2.690 -0.2907 -0.2036 -0.0052
  838MOL0     H13071   7.743   0.420   2.945  4.0581 -0.3875  1.4820
  838MOL0     H13072   7.791   0.259   2.912 -0.0123 -0.8021  0.0788
  838MOL0     H13073   7.952   0.354   2.734 -0.5915 -1.0154 -1.3977
  838MOL0     H13074   7.860   0.510   2.753 -0.7577  0.8098  2.0020
  838MOL0     H13075   7.950   0.554   2.961 -0.5587 -0.0503 -1.8441
  838MOL0     H13076   8.014   0.386   2.983  1.4188 -1.4319 -0.9192
  838MOL0     H13077   8.106   0.555   2.750  0.8333  2.4083  0.3976
  838MOL0     H13078   8.200   0.435   2.850  0.0552  0.5656  0.8556
  838MOL0     H13079   8.144   0.723   2.864  2.7524  0.8548 -0.6418
  838MOL0     H13080   8.191   0.646   3.020  0.5289 -0.1802  0.1918
  838MOL0     H13081   8.427   0.468   2.958 -1.6609  1.0831  1.8977
  838MOL0     H13082   8.712   0.561   2.975  0.8245  2.7129  0.1141
  838MOL0     H13083   8.716   0.477   2.824  0.3952  0.2383 -0.2753
  838MOL0     H13084   8.758   0.782   2.810  0.1405 -0.3337  1.3176
  838MOL0     H13085   8.888   0.667   2.872 -0.9446 -3.9031  0.1222
  838MOL0     H13086   8.752   0.630   2.604 -0.1677 -1.1314  0.9460
  838MOL0     H13087   8.886   0.546   2.683 -1.6951 -1.9247 -1.5308
  838MOL0     H13088   8.886   0.838   2.582  1.9229  1.6409  0.9011
  838MOL0     H13089   8.946   0.686   2.496 -0.2288 -2.8082  1.8497
  838MOL0     H13090   9.291   0.850   2.761 -1.8810  1.3301 -1.6508
  838MOL0     H13091   9.490   0.737   2.731 -0.3211 -2.1557  2.6788
  838MOL0     H13092   9.899   0.555   2.684  0.0665 -0.3303 -0.7793
  838MOL0     H13093  10.070   0.389   2.734  0.0385 -1.0073 -2.0125
  838MOL0     H13094  10.219   0.111   2.878 -2.2649 -1.0227  0.0742
  838MOL0     H13095  10.165   0.276   2.919 -3.0657  0.6759  3.1428
  838MOL0     H13096  10.016   0.168   3.097  0.4098  1.7745  0.8339
  838MOL0     H13097  10.089   0.015   3.057 -1.3424 -0.3789  0.7959
  838MOL0     H13098  10.254   0.244   3.156  2.1240 -0.4887 -1.4338
  838MOL0     H13099  10.180   0.135   3.258 -0.8617  1.8820 -0.5093
  838MOL0     H13100  10.427   0.076   3.170 -0.1936 -0.5930  1.2709
  838MOL0     H13101  10.350   0.017   3.021 -2.0541  2.2178 -1.0736
  838MOL0     H13102  10.259  -0.177   3.159 -3.1318  3.2905 -0.1975
  838MOL0     H13103  10.315  -0.102   3.307 -1.0386  2.8372  0.0841
  838MOL0     H13104  10.529  -0.101   3.255 -0.5913  1.3780  0.0760
  838MOL0     H13105  10.464  -0.266   3.230  0.1769 -0.4450 -1.6336
  838MOL0     H13106  10.542  -0.094   2.988  1.5487  0.7690  0.3896
  838MOL0     H13107  10.504  -0.273   3.017 -0.4564  0.9602  0.9213
  838MOL0     H13108  10.713  -0.277   3.171  3.2766  1.6703  2.3966
  838MOL0     H13109  10.738  -0.243   2.994  0.2022 -0.1943  0.3653
  838MOL0     H13110   9.767   0.107   2.848 -0.8529  0.1718  0.3699
  838MOL0     H13111   9.597   0.290   2.799 -0.0890  1.4077 -0.8298
  838MOL0     H13112   9.302   0.422   2.512  0.4007 -0.4360  1.4927
  838MOL0     H13113   9.080   0.533   2.542  2.3325 -3.5878 -0.1251
  838MOL0     H13114   7.529  -0.041   2.494 -0.5081 -1.4406  2.2232
  838MOL0     H13115   7.410  -0.135   2.295  0.1125  0.0182  0.1899
  838MOL0     H13116   7.181  -0.189   1.982 -0.7701 -2.4735  0.6453
  838MOL0     H13117   7.086  -0.346   1.839  0.8531 -0.8220  1.9250
  838MOL0     H13118   6.651  -0.308   1.674 -0.7490  1.8791  2.1786
  838MOL0     H13119   6.631  -0.377   1.835  0.1388 -0.8531 -0.8521
  838MOL0     H13120   6.550  -0.529   1.670  0.0575 -0.7819  1.8388
  838MOL0     H13121   6.715  -0.590   1.700 -0.9816 -2.2058 -3.3720
  838MOL0     H13122   6.805  -0.462   1.500  0.9495  0.0675 -0.1975
  838MOL0     H13123   6.645  -0.407   1.473 -0.7583 -0.2081  2.0763
  838MOL0     H13124   6.710  -0.591   1.334  1.1106 -0.5524  0.0386
  838MOL0     H13125   6.738  -0.686   1.488 -0.2223  1.2565  0.6928
  838MOL0     H13126   6.322  -0.710   1.471 -0.3328  2.3721 -1.6580
  838MOL0     H13127   6.699  -0.172   1.924  0.0144 -0.7065 -3.7995
  838MOL0     H13128   6.671   0.006   2.063  0.2452 -1.5763  0.3902
  838MOL0     H13129   6.757  -0.015   2.209 -4.5147  0.5579 -0.1739
  838MOL0     H13130   6.805   0.105   2.104 -1.4803  1.2039  4.4132
  839MOL0     O13131   4.364   7.182   5.677  0.3158 -1.0043 -0.2916
  839MOL0     C13132   4.372   7.172   5.554 -0.6638  0.0873 -0.4674
  839MOL0     O13133   4.456   7.248   5.475 -0.5054  0.2112 -0.2675
  839MOL0     C13134   4.564   7.294   5.535  0.6440 -0.4191  0.7468
  839MOL0     C13135   4.563   7.424   5.597 -0.7189  0.3042  0.3741
  839MOL0     C13136   4.684   7.484   5.637 -0.8467 -0.2430  1.5960
  839MOL0     C13137   4.808   7.417   5.609  0.0209  0.2372  0.5879
  839MOL0     O13138   4.932   7.475   5.639 -0.1633 -0.8393  0.0610
  839MOL0     C13139   5.046   7.401   5.604  0.0051  0.0117  1.2047
  839MOL0     C13140   5.173   7.490   5.620  0.5021 -0.0462 -1.1141
  839MOL0     C13141   5.289   7.424   5.547  0.0146 -0.2678  0.5722
  839MOL0     C13142   5.422   7.497   5.573  1.3461  0.3383 -0.5849
  839MOL0     C13143   5.541   7.456   5.478  0.3323  0.2564  0.2477
  839MOL0     C13144   5.649   7.560   5.489  0.1738 -0.0811  0.0466
  839MOL0     C13145   5.761   7.532   5.394  0.2384  0.3380  0.4699
  839MOL0     C13146   5.857   7.428   5.461  0.0519 -0.2897 -0.0069
  839MOL0     N13147   5.982   7.405   5.387  0.0655 -0.5056  0.2365
  839MOL0     C13148   6.089   7.492   5.391 -0.5492 -0.7547  1.0124
  839MOL0     C13149   6.168   7.440   5.291 -0.7521 -0.0934 -0.1238
  839MOL0     C13150   6.298   7.497   5.241 -0.6223  0.6041 -0.0614
  839MOL0     C13151   6.409   7.488   5.350  0.6756 -0.6612  0.3952
  839MOL0     C13152   6.451   7.345   5.373 -0.0448 -0.7986 -1.1069
  839MOL0     C13153   6.585   7.344   5.457  0.1022 -0.4479  0.0082
  839MOL0     O13154   6.660   7.233   5.411  0.4930  0.5029 -0.1582
  839MOL0     C13155   6.797   7.229   5.435  0.1526 -0.2236 -0.2949
  839MOL0     C13156   6.864   7.127   5.362  0.1600 -0.7485  0.5604
  839MOL0     C13157   7.002   7.106   5.383  1.2389 -0.7028 -0.2582
  839MOL0     C13158   7.073   7.172   5.481 -0.0597 -0.6378 -1.0722
  839MOL0     C13159   7.214   7.125   5.501  0.1310 -0.1374 -0.1239
  839MOL0     O13160   7.298   7.224   5.555 -0.0424 -0.1802  0.7188
  839MOL0     C13161   7.420   7.170   5.587 -0.1843 -0.4446 -0.4323
  839MOL0     C13162   7.518   7.193   5.488 -0.6816 -0.0399  0.3460
  839MOL0     C13163   7.649   7.159   5.516  0.4939  0.4670  0.4988
  839MOL0     C13164   7.686   7.100   5.634 -0.1125  0.2093  0.5804
  839MOL0     O13165   7.816   7.069   5.659  0.0502  0.0763  0.1026
  839MOL0     C13166   7.870   6.983   5.557  0.0995 -0.1128 -0.7866
  839MOL0     C13167   8.008   6.930   5.601 -1.1034  0.3099  0.2330
  839MOL0     C13168   8.123   6.996   5.532  0.5587  0.3683 -0.7679
  839MOL0     C13169   8.255   6.935   5.586 -1.0413 -1.0908  0.1569
  839MOL0     C13170   8.375   7.014   5.550 -0.1656 -0.6495  0.9333
  839MOL0     C13171   8.506   6.963   5.594 -1.3391  0.9530  0.3927
  839MOL0     C13172   8.609   7.055   5.543 -0.0053  0.0926  0.5014
  839MOL0     C13173   8.746   6.992   5.567  0.4506 -0.3106  0.2402
  839MOL0    Cl13174   8.860   7.119   5.528  0.4504 -0.0002  0.3374
  839MOL0     C13175   7.584   7.080   5.731 -0.1509 -1.2888 -0.8506
  839MOL0     C13176   7.451   7.110   5.709  0.3856 -0.1449  0.0394
  839MOL0     O13177   7.245   7.010   5.480  0.2403  0.3978  0.2803
  839MOL0     C13178   7.013   7.292   5.550  0.2418  0.1911  0.6489
  839MOL0     C13179   6.877   7.317   5.519  0.1483  0.8144  0.5953
  839MOL0     N13180   6.123   7.321   5.245  0.5454  0.5481  0.0265
  839MOL0     N13181   6.008   7.307   5.303  0.6855  0.6630  1.0683
  839MOL0     C13182   4.800   7.281   5.561 -0.8876 -0.0235  0.0691
  839MOL0     C13183   4.675   7.225   5.521 -0.9483  0.0947  0.1917
  839MOL0     C13184   4.250   7.112   5.482 -0.6419  0.4227 -0.0197
  839MOL0     C13185   4.218   7.160   5.353  0.6437 -0.7031  0.8327
  839MOL0     C13186   4.110   7.102   5.280  0.5854 -0.4847 -0.1339
  839MOL0     C13187   4.028   7.004   5.338  0.6000 -0.2169  0.5020
  839MOL0     O13188   3.921   6.939   5.271  0.1432  0.0486  0.4273
  839MOL0     C13189   3.910   6.933   5.126 -0.2214 -0.4964 -0.4489
  839MOL0     C13190   3.777   6.856   5.098  0.1304  1.0414 -0.3181
  839MOL0     C13191   3.653   6.921   5.159 -0.3769 -0.2742 -0.4173
  839MOL0     C13192   3.519   6.859   5.111 -0.2606  0.3680  0.3835
  839MOL0     C13193   3.417   6.962   5.135  0.9353  0.4342  0.3393
  839MOL0     C13194   3.326   7.035   5.153 -0.3757  0.5669  0.3536
  839MOL0     C13195   4.049   6.974   5.469 -0.1512 -0.2564  0.7585
  839MOL0     C13196   4.170   7.007   5.534  0.5872  0.0323  0.5278
  839MOL0     C13197   4.184   6.946   5.664 -0.7373 -0.3578  0.7539
  839MOL0     H13198   4.473   7.480   5.623 -0.6979 -0.3037  1.8523
  839MOL0     H13199   4.690   7.570   5.703 -2.9070 -1.1787  3.1128
  839MOL0     H13200   5.063   7.309   5.661  1.7946  0.2049  1.0324
  839MOL0     H13201   5.041   7.370   5.499 -1.6371 -1.5777  1.7082
  839MOL0     H13202   5.201   7.487   5.725  2.0496 -0.1958 -1.5091
  839MOL0     H13203   5.159   7.592   5.583  0.4674  0.2428 -0.3243
  839MOL0     H13204   5.257   7.428   5.443 -3.4182 -1.3767  1.4302
  839MOL0     H13205   5.294   7.316   5.566  1.4784 -0.6670 -1.7038
  839MOL0     H13206   5.400   7.604   5.576 -0.1184  0.0856 -1.6107
  839MOL0     H13207   5.452   7.472   5.675  0.5371 -1.9435 -0.8488
  839MOL0     H13208   5.570   7.353   5.499  1.0799 -0.3228 -3.1185
  839MOL0     H13209   5.516   7.460   5.372  1.4252  1.7616  0.0089
  839MOL0     H13210   5.589   7.651   5.478 -1.6322 -0.6343  3.7510
  839MOL0     H13211   5.687   7.572   5.591 -0.9784 -1.3871  0.6512
  839MOL0     H13212   5.813   7.621   5.359 -2.0270  1.2473 -0.8165
  839MOL0     H13213   5.725   7.494   5.298  1.7454 -0.1145  0.0524
  839MOL0     H13214   5.882   7.469   5.559 -0.4283  0.8931 -0.3673
  839MOL0     H13215   5.812   7.328   5.469 -0.6491 -0.1679 -2.0162
  839MOL0     H13216   6.112   7.571   5.461 -1.9162 -1.4847  2.3610
  839MOL0     H13217   6.334   7.435   5.158 -0.0031  2.1484 -0.9793
  839MOL0     H13218   6.282   7.596   5.198 -0.1087 -0.3650 -2.6693
  839MOL0     H13219   6.492   7.545   5.309  0.2304  0.7016  1.3011
  839MOL0     H13220   6.372   7.525   5.446 -1.4295  1.4251 -1.0944
  839MOL0     H13221   6.476   7.304   5.274 -0.4253  0.0386 -1.5555
  839MOL0     H13222   6.376   7.279   5.418  0.0756 -2.3543 -3.0074
  839MOL0     H13223   6.550   7.343   5.560 -0.2058  4.3494  0.2007
  839MOL0     H13224   6.645   7.434   5.440 -1.0623 -0.0753 -2.6497
  839MOL0     H13225   6.796   7.074   5.297 -1.4818  1.0269  0.7317
  839MOL0     H13226   7.056   7.035   5.322  0.3455 -0.5554 -1.2568
  839MOL0     H13227   7.478   7.231   5.395 -1.1219 -1.1769  0.0491
  839MOL0     H13228   7.725   7.190   5.445  1.1587 -2.2911 -0.1304
  839MOL0     H13229   7.797   6.907   5.530 -0.7547 -1.8093  5.0151
  839MOL0     H13230   7.881   7.048   5.470 -2.2724  2.1262  0.4564
  839MOL0     H13231   8.024   6.947   5.708  3.1327  3.4972 -0.6403
  839MOL0     H13232   8.023   6.822   5.589  0.9702  0.1837  3.0521
  839MOL0     H13233   8.114   6.986   5.424 -0.3878 -1.0583 -0.5862
  839MOL0     H13234   8.116   7.101   5.564 -1.1655  0.1266 -0.2602
  839MOL0     H13235   8.261   6.830   5.555 -1.6548 -1.0929  0.0332
  839MOL0     H13236   8.242   6.934   5.695 -1.8396  1.1292  0.1257
  839MOL0     H13237   8.355   7.112   5.595  1.3078  0.5763 -0.9579
  839MOL0     H13238   8.381   7.030   5.442 -1.0875  1.3031  1.1283
  839MOL0     H13239   8.517   6.962   5.703  0.6449  4.2839  0.3515
  839MOL0     H13240   8.513   6.865   5.546 -2.9953  0.4888  1.0512
  839MOL0     H13241   8.608   7.157   5.584 -1.2711  0.2186  0.1887
  839MOL0     H13242   8.599   7.065   5.435  3.8321  0.9778  0.0532
  839MOL0     H13243   8.756   6.955   5.670 -1.8302 -1.0520  0.2371
  839MOL0     H13244   8.755   6.906   5.501 -2.2533  0.6120 -1.4983
  839MOL0     H13245   7.607   7.036   5.827  0.5475 -0.2243 -0.5137
  839MOL0     H13246   7.380   7.113   5.791 -0.1154  1.2807 -0.4150
  839MOL0     H13247   7.059   7.362   5.620 -1.3630  0.7413  1.1973
  839MOL0     H13248   6.823   7.392   5.576 -2.0912 -1.0243  1.0129
  839MOL0     H13249   4.888   7.218   5.560 -1.5182 -0.9490  1.0130
  839MOL0     H13250   4.668   7.135   5.461 -1.2812  1.2591 -1.5943
  839MOL0     H13251   4.285   7.232   5.307 -0.6728  0.0453  0.0034
  839MOL0     H13252   4.097   7.131   5.177  1.1724 -1.0660 -0.3761
  839MOL0     H13253   3.993   6.883   5.077 -1.6507 -0.7206 -2.7932
  839MOL0     H13254   3.900   7.036   5.091  0.2303 -0.2666  0.0758
  839MOL0     H13255   3.776   6.755   5.140 -0.9176  1.5858  1.0342
  839MOL0     H13256   3.756   6.849   4.991 -1.1601  0.1943 -0.0371
  839MOL0     H13257   3.654   7.028   5.133 -2.8178 -0.0863 -0.0609
  839MOL0     H13258   3.659   6.905   5.267  2.6703 -3.2582 -0.8710
  839MOL0     H13259   3.530   6.832   5.006  0.7014  2.6596 -0.1529
  839MOL0     H13260   3.489   6.768   5.164 -2.2493  1.1927  0.7508
  839MOL0     H13261   3.247   7.105   5.173 -1.4711 -1.1657  2.6476
  839MOL0     H13262   3.988   6.893   5.507  0.4236 -1.4090 -0.6619
  839MOL0     H13263   4.151   6.842   5.664  0.8535 -0.8998  0.0840
  839MOL0     H13264   4.291   6.942   5.688 -0.5715 -2.0227 -0.1137
  839MOL0     H13265   4.133   7.011   5.736 -2.9232  1.6187 -2.3195
  840MOL0     O13266   2.948   5.741   5.060  0.0922  0.2466 -0.4041
  840MOL0     C13267   2.920   5.693   4.952  0.6050  0.6084 -0.4610
  840MOL0     O13268   3.004   5.613   4.877  0.3676  0.1962 -0.1019
  840MOL0     C13269   3.134   5.615   4.915  0.3676  0.4191  0.3816
  840MOL0     C13270   3.219   5.725   4.901 -0.6619  0.2879  0.8016
  840MOL0     C13271   3.347   5.722   4.958 -0.3033 -0.3337 -0.4038
  840MOL0     C13272   3.406   5.614   5.022  0.0373  0.4645  0.1570
  840MOL0     O13273   3.532   5.635   5.068 -1.3255 -0.7756 -0.6115
  840MOL0     C13274   3.583   5.539   5.162  0.6452 -0.1828 -0.2469
  840MOL0     C13275   3.732   5.569   5.199 -0.0235 -0.2087 -0.1217
  840MOL0     C13276   3.832   5.557   5.072  0.1154  0.3659 -0.1985
  840MOL0     C13277   3.924   5.442   5.089 -0.4186  0.0740  0.5605
  840MOL0     C13278   4.020   5.457   4.973 -0.1592  0.2233  0.4429
  840MOL0     C13279   4.140   5.348   4.997 -0.8053  0.8049  0.8102
  840MOL0     C13280   4.241   5.376   4.872  0.9211  0.5232  0.0032
  840MOL0     C13281   4.337   5.254   4.846 -0.3189 -0.0689 -0.5435
  840MOL0     N13282   4.420   5.216   4.958 -0.0018 -0.4405  0.3363
  840MOL0     C13283   4.433   5.083   4.996  0.6306 -0.2970  0.6118
  840MOL0     C13284   4.549   5.078   5.064  0.2953 -0.6947  0.4983
  840MOL0     C13285   4.609   4.945   5.112 -0.0581 -0.4397 -0.3679
  840MOL0     C13286   4.639   4.861   4.984 -0.1418  0.6354 -0.2518
  840MOL0     C13287   4.720   4.731   4.999  0.1634 -0.2899  0.5870
  840MOL0     C13288   4.645   4.644   5.104  0.1059  0.1611 -0.1142
  840MOL0     O13289   4.707   4.510   5.108  0.4585 -0.2184 -1.1892
  840MOL0     C13290   4.838   4.495   5.160 -0.4008 -0.6278 -0.5590
  840MOL0     C13291   4.910   4.607   5.223 -0.6880 -0.0669 -0.0724
  840MOL0     C13292   5.045   4.599   5.257  0.5705  1.2460 -0.6871
  840MOL0     C13293   5.112   4.478   5.250 -0.5947  0.4303 -0.9836
  840MOL0     C13294   5.252   4.479   5.295 -0.7196 -0.4716 -0.3966
  840MOL0     O13295   5.309   4.599   5.331 -0.9390 -0.0246 -0.8176
  840MOL0     C13296   5.444   4.609   5.340 -0.6368 -0.2957  0.8198
  840MOL0     C13297   5.509   4.532   5.438 -0.3442 -0.2777 -0.0589
  840MOL0     C13298   5.654   4.525   5.432  0.1501  0.0598 -0.4409
  840MOL0     C13299   5.726   4.587   5.336 -0.6914 -0.1910 -0.5639
  840MOL0     O13300   5.859   4.567   5.349 -0.0393 -0.1252  0.0312
  840MOL0     C13301   5.944   4.635   5.256  0.4367 -0.1892 -0.2174
  840MOL0     C13302   5.957   4.790   5.283 -0.8931 -0.0614 -0.0203
  840MOL0     C13303   6.025   4.867   5.167  1.2417  0.7317 -0.6843
  840MOL0     C13304   5.934   4.898   5.045  0.3742 -0.5108  0.3466
  840MOL0     C13305   5.999   4.986   4.935  0.9960 -0.0227 -0.1583
  840MOL0     C13306   5.903   4.998   4.813 -0.3544 -0.1873  1.1793
  840MOL0     C13307   5.982   5.054   4.681  0.1245  0.9952 -0.2042
  840MOL0     C13308   6.042   5.196   4.690 -0.0107 -0.1826  0.0197
  840MOL0    Cl13309   6.147   5.236   4.544 -0.0610 -0.3436 -0.5825
  840MOL0     C13310   5.661   4.676   5.250  0.0037  0.7447 -0.0080
  840MOL0     C13311   5.520   4.679   5.245 -0.0322  0.4652  0.9428
  840MOL0     O13312   5.310   4.372   5.275  1.0440  0.0057  0.6663
  840MOL0     C13313   5.040   4.368   5.192 -0.1630  1.3708  0.3361
  840MOL0     C13314   4.906   4.371   5.155 -0.1544 -0.3732 -0.3135
  840MOL0     N13315   4.601   5.207   5.075  0.4900  0.0583 -0.4759
  840MOL0     N13316   4.531   5.284   5.003  0.3156  0.0780  0.2868
  840MOL0     C13317   3.317   5.501   5.026 -0.6239  0.5571 -0.7639
  840MOL0     C13318   3.186   5.501   4.972  0.8507  0.0296 -0.2391
  840MOL0     C13319   2.781   5.698   4.905  0.8329 -0.3210  0.3620
  840MOL0     C13320   2.746   5.624   4.790 -0.0444  0.0876 -0.1782
  840MOL0     C13321   2.615   5.633   4.736  0.0135  0.6057 -0.7197
  840MOL0     C13322   2.524   5.724   4.789 -1.1319 -0.1026 -0.7992
  840MOL0     O13323   2.409   5.769   4.731 -0.1843 -0.0120 -0.1350
  840MOL0     C13324   2.363   5.719   4.605 -0.4199 -0.0214  0.3933
  840MOL0     C13325   2.305   5.578   4.615 -0.0557 -0.0798  0.4911
  840MOL0     C13326   2.254   5.536   4.472  0.2744  0.4658  0.0224
  840MOL0     C13327   2.140   5.429   4.482 -0.7253  0.2753 -0.1568
  840MOL0     C13328   2.120   5.352   4.362  0.0875 -1.0506 -0.5504
  840MOL0     C13329   2.123   5.287   4.254  0.1495  0.5344 -0.1581
  840MOL0     C13330   2.560   5.788   4.909 -1.2260 -0.4183  0.5364
  840MOL0     C13331   2.683   5.779   4.963 -0.0860 -0.0270  0.3096
  840MOL0     C13332   2.693   5.848   5.102 -0.0398 -0.1946  0.4652
  840MOL0     H13333   3.195   5.819   4.852 -1.3099 -0.5653 -0.5750
  840MOL0     H13334   3.401   5.816   4.960 -1.3233  0.2574  0.6087
  840MOL0     H13335   3.518   5.530   5.250  0.2936 -1.9982 -0.6349
  840MOL0     H13336   3.586   5.447   5.103  2.5519  0.6071 -1.4627
  840MOL0     H13337   3.771   5.509   5.282  1.1041  0.2745 -0.2945
  840MOL0     H13338   3.732   5.673   5.231  1.6257 -0.6634  1.5445
  840MOL0     H13339   3.889   5.649   5.081  0.6467 -0.0762  1.0926
  840MOL0     H13340   3.780   5.551   4.976 -1.6185 -1.3010  0.7798
  840MOL0     H13341   3.970   5.451   5.188  1.6223  2.1583 -0.4657
  840MOL0     H13342   3.865   5.351   5.079 -1.8106  1.0851 -1.0385
  840MOL0     H13343   3.964   5.443   4.879 -0.0824 -0.1813  0.4571
  840MOL0     H13344   4.074   5.551   4.960  0.9082 -0.5438 -1.0482
  840MOL0     H13345   4.184   5.383   5.090 -2.1300 -0.2745  1.8920
  840MOL0     H13346   4.104   5.245   4.998 -1.0552  0.6094 -3.9145
  840MOL0     H13347   4.296   5.461   4.913  0.1751  3.1377 -3.8681
  840MOL0     H13348   4.187   5.400   4.780  2.2060 -0.6448 -1.0954
  840MOL0     H13349   4.277   5.171   4.809 -0.5395 -0.6329  0.9959
  840MOL0     H13350   4.403   5.277   4.761 -1.9116 -0.0504 -1.8273
  840MOL0     H13351   4.362   5.004   4.973  2.1602 -0.5708 -4.1502
  840MOL0     H13352   4.694   4.974   5.175  1.4369 -1.2852 -1.9195
  840MOL0     H13353   4.539   4.883   5.169 -0.8767 -0.0404 -0.9265
  840MOL0     H13354   4.550   4.828   4.929  1.7778 -3.3195 -1.3259
  840MOL0     H13355   4.690   4.918   4.906  0.8138 -2.6190 -2.2325
  840MOL0     H13356   4.824   4.748   5.029  0.0778 -2.3969  2.3023
  840MOL0     H13357   4.720   4.679   4.903  0.8558  1.3984 -0.3643
  840MOL0     H13358   4.537   4.638   5.090 -0.0678  2.0544  0.1184
  840MOL0     H13359   4.658   4.686   5.205 -0.8002  1.5783 -0.5624
  840MOL0     H13360   4.858   4.700   5.246  1.4987  1.3109 -0.3816
  840MOL0     H13361   5.086   4.684   5.310  4.8263 -0.9127 -0.1019
  840MOL0     H13362   5.455   4.481   5.516  0.6291  2.2476  2.4609
  840MOL0     H13363   5.706   4.450   5.491  1.4744  0.0279 -1.6115
  840MOL0     H13364   6.041   4.587   5.245 -0.6049 -2.8813  1.4318
  840MOL0     H13365   5.899   4.618   5.158 -0.3277 -1.0427  0.2631
  840MOL0     H13366   5.861   4.838   5.305 -1.1013  0.5438 -2.0755
  840MOL0     H13367   6.018   4.796   5.374  0.1687 -0.0362 -0.7212
  840MOL0     H13368   6.040   4.964   5.218 -1.6763  1.7632 -1.6166
  840MOL0     H13369   6.119   4.816   5.144  0.6726 -0.1518 -1.0900
  840MOL0     H13370   5.848   4.950   5.088 -0.4175 -1.7384  0.3129
  840MOL0     H13371   5.891   4.806   5.004 -2.6831 -0.0655  2.2833
  840MOL0     H13372   6.100   4.956   4.904  1.9930  1.4144  1.5071
  840MOL0     H13373   6.007   5.082   4.986 -0.9406  0.9319 -1.5076
  840MOL0     H13374   5.860   4.899   4.795  0.8438 -1.6431  5.2657
  840MOL0     H13375   5.821   5.067   4.836 -0.3014  0.1156  0.4803
  840MOL0     H13376   5.913   5.065   4.596 -0.4627  2.9941  0.4705
  840MOL0     H13377   6.061   4.984   4.652 -1.0310  0.2321 -1.6489
  840MOL0     H13378   5.951   5.257   4.682 -0.4745 -1.1114 -2.9656
  840MOL0     H13379   6.089   5.216   4.787  0.2657  0.8656 -0.3180
  840MOL0     H13380   5.719   4.739   5.182  0.8932  0.0841  0.1266
  840MOL0     H13381   5.477   4.749   5.173 -0.1465  0.0683  0.6242
  840MOL0     H13382   5.078   4.267   5.203 -0.9327  1.0432  0.0679
  840MOL0     H13383   4.842   4.294   5.112 -3.4828  1.6383  0.7127
  840MOL0     H13384   3.360   5.409   5.063  3.9352  2.2796 -1.1541
  840MOL0     H13385   3.113   5.421   4.981  2.1670 -1.3958 -1.5659
  840MOL0     H13386   2.805   5.546   4.746 -0.9613 -1.1611  0.7187
  840MOL0     H13387   2.590   5.575   4.647  2.5273 -1.6260 -0.1234
  840MOL0     H13388   2.437   5.727   4.525 -1.7518  3.2538 -0.6496
  840MOL0     H13389   2.278   5.780   4.572  0.0394  1.1918  1.4003
  840MOL0     H13390   2.226   5.573   4.690  1.7373 -1.9396  2.4052
  840MOL0     H13391   2.387   5.508   4.636  1.8424  2.6630  3.0208
  840MOL0     H13392   2.338   5.511   4.406  0.2800  0.4981  0.0171
  840MOL0     H13393   2.214   5.629   4.430 -1.6011 -0.6866 -0.8640
  840MOL0     H13394   2.169   5.360   4.562  1.2329  2.6465  1.3395
  840MOL0     H13395   2.047   5.484   4.502 -2.0641 -0.3824 -3.8642
  840MOL0     H13396   2.089   5.220   4.178  0.2497  0.3322 -0.0238
  840MOL0     H13397   2.495   5.874   4.925  0.7532  2.6067 -4.9365
  840MOL0     H13398   2.605   5.911   5.114  1.7272  3.4394 -3.2122
  840MOL0     H13399   2.698   5.778   5.186  0.8503 -0.7823 -0.0589
  840MOL0     H13400   2.770   5.924   5.116 -1.6549  1.6837 -0.4408
  841MOL0     O13401   9.863   0.516  10.382  0.3941  0.1807 -0.8000
  841MOL0     C13402   9.744   0.551  10.368 -0.3696 -0.3793 -0.3680
  841MOL0     O13403   9.691   0.618  10.258  0.6080 -0.0929  0.5688
  841MOL0     C13404   9.790   0.657  10.176  0.7365  0.0665  0.2093
  841MOL0     C13405   9.837   0.793  10.171 -0.0993  0.8964 -0.1636
  841MOL0     C13406   9.946   0.823  10.091 -0.7040 -0.5177  0.8578
  841MOL0     C13407  10.014   0.719  10.012 -0.3840 -0.0747 -0.5686
  841MOL0     O13408  10.125   0.745   9.935  0.0464  0.2989  0.5720
  841MOL0     C13409  10.211   0.850   9.975  0.1452  1.2379 -0.0071
  841MOL0     C13410  10.341   0.836   9.880 -0.6548  0.8435 -0.1399
  841MOL0     C13411  10.420   0.971   9.877 -0.3143 -0.5425 -0.0844
  841MOL0     C13412  10.541   0.940   9.794 -0.8249 -0.4572  0.2897
  841MOL0     C13413  10.641   1.048   9.787  0.2575 -0.7174  0.1487
  841MOL0     C13414  10.757   1.023   9.688  0.1456 -0.1278  0.3639
  841MOL0     C13415  10.817   0.882   9.705 -0.9630  0.5015 -0.0694
  841MOL0     C13416  10.950   0.886   9.633  0.5694 -0.6847  0.1293
  841MOL0     N13417  11.032   0.777   9.696 -0.8111 -0.7482 -0.5576
  841MOL0     C13418  11.113   0.806   9.809 -0.5175  1.7739  0.2780
  841MOL0     C13419  11.192   0.695   9.816 -0.2682 -0.5460  0.0454
  841MOL0     C13420  11.306   0.670   9.911  0.2656  0.9724 -0.9518
  841MOL0     C13421  11.443   0.681   9.856 -0.2237  0.1805  1.1945
  841MOL0     C13422  11.489   0.818   9.833 -0.5293 -0.1228 -0.5354
  841MOL0     C13423  11.638   0.824   9.797  1.2804 -0.3958  0.9880
  841MOL0     O13424  11.730   0.779   9.899 -0.8663  0.4211  0.0806
  841MOL0     C13425  11.861   0.818   9.888 -0.1070 -0.4736 -0.3170
  841MOL0     C13426  11.935   0.839   9.769 -0.2175  0.0916  0.4388
  841MOL0     C13427  12.066   0.881   9.778  0.4031 -0.0321 -0.6772
  841MOL0     C13428  12.133   0.905   9.902  0.4732  0.3883 -0.3314
  841MOL0     C13429  12.275   0.943   9.913 -0.3414 -0.0591 -0.3274
  841MOL0     O13430  12.336   0.935  10.033  0.2755 -0.1741  0.2705
  841MOL0     C13431  12.471   0.932  10.054 -0.4530  0.1901  0.1663
  841MOL0     C13432  12.496   0.963  10.187  0.4172 -0.2226  0.1175
  841MOL0     C13433  12.625   0.974  10.231 -0.2154 -0.7026  0.6473
  841MOL0     C13434  12.739   0.970  10.145  0.4731  0.7680  0.0265
  841MOL0     O13435  12.870   0.966  10.180  0.3072  0.4949 -0.7160
  841MOL0     C13436  12.897   0.921  10.315  0.5811  0.0085 -0.4446
  841MOL0     C13437  13.042   0.899  10.337 -0.5565  0.1519 -0.0683
  841MOL0     C13438  13.074   0.829  10.473  0.2302 -0.7561  0.4657
  841MOL0     C13439  13.231   0.809  10.489 -0.9769  0.4854 -0.3070
  841MOL0     C13440  13.321   0.934  10.499 -0.5713 -0.9382  0.9663
  841MOL0     C13441  13.464   0.886  10.502 -0.2154  0.1473 -0.1523
  841MOL0     C13442  13.554   1.007  10.510  0.3098  0.2877 -0.0323
  841MOL0     C13443  13.698   0.983  10.507  0.8392  0.5515 -1.0280
  841MOL0    Cl13444  13.758   0.973  10.343 -0.3847  0.6287  0.5608
  841MOL0     C13445  12.710   0.953  10.002 -0.2397  0.0991 -0.9437
  841MOL0     C13446  12.579   0.925   9.960 -0.6210  0.0029 -0.0075
  841MOL0     O13447  12.335   0.967   9.809  0.8804 -0.2901 -0.5055
  841MOL0     C13448  12.055   0.874  10.016 -0.2671 -0.5283 -0.1414
  841MOL0     C13449  11.925   0.833  10.009  0.2573  0.5284  0.2879
  841MOL0     N13450  11.153   0.607   9.717  0.6591 -0.5160  0.1879
  841MOL0     N13451  11.055   0.655   9.651 -0.2465  0.4963  0.1235
  841MOL0     C13452   9.957   0.591  10.018 -0.5906  0.7439  0.4656
  841MOL0     C13453   9.846   0.561  10.097  1.1809 -0.0647  0.2449
  841MOL0     C13454   9.654   0.539  10.496  0.8623  0.5961  0.6251
  841MOL0     C13455   9.722   0.534  10.613  0.1276  0.1920 -0.3577
  841MOL0     C13456   9.658   0.521  10.737 -1.3556 -0.6585  0.5786
  841MOL0     C13457   9.526   0.510  10.739 -0.5481  1.3746  0.0926
  841MOL0     O13458   9.457   0.509  10.859  0.3278 -0.0961  0.2402
  841MOL0     C13459   9.517   0.496  10.990 -0.2245 -0.3849 -0.3271
  841MOL0     C13460   9.559   0.353  11.022  1.1549 -0.4205  0.1825
  841MOL0     C13461   9.604   0.338  11.167 -0.1182 -0.1835 -0.2387
  841MOL0     C13462   9.741   0.408  11.198  0.5830 -0.1931 -0.2006
  841MOL0     C13463   9.786   0.376  11.331 -0.4275  0.2557  0.4856
  841MOL0     C13464   9.812   0.355  11.441 -0.0336  0.7173  0.1315
  841MOL0     C13465   9.452   0.506  10.624  0.2740 -0.4254 -0.3676
  841MOL0     C13466   9.511   0.532  10.502 -0.1995  0.5851  0.2090
  841MOL0     C13467   9.427   0.547  10.386  0.2261  1.5885 -0.4852
  841MOL0     H13468   9.796   0.876  10.227 -2.4356  0.2794 -0.8290
  841MOL0     H13469   9.976   0.927  10.085 -0.9253 -0.0567  4.6956
  841MOL0     H13470  10.158   0.944   9.960 -0.3406  1.0177  0.2893
  841MOL0     H13471  10.245   0.844  10.079  0.1995  1.2226 -0.0249
  841MOL0     H13472  10.319   0.796   9.780 -0.8600  3.3415 -1.1662
  841MOL0     H13473  10.406   0.762   9.929 -1.2990 -0.8560 -1.7130
  841MOL0     H13474  10.440   1.025   9.970 -3.6245  0.3861  0.2033
  841MOL0     H13475  10.362   1.037   9.813  0.2079 -1.2860 -1.3534
  841MOL0     H13476  10.599   0.863   9.847  0.9281  1.3044  1.0843
  841MOL0     H13477  10.504   0.901   9.699 -2.1067 -4.9643  2.3767
  841MOL0     H13478  10.592   1.135   9.743  0.1160 -0.7129  0.3181
  841MOL0     H13479  10.690   1.065   9.883 -0.6683  1.6170  0.2782
  841MOL0     H13480  10.728   1.030   9.583  0.4337 -1.2959  0.2040
  841MOL0     H13481  10.833   1.099   9.706  2.5806 -1.9023 -1.7127
  841MOL0     H13482  10.747   0.803   9.679 -0.7640  1.3042 -3.6615
  841MOL0     H13483  10.851   0.860   9.806 -2.6381  1.0287  0.6357
  841MOL0     H13484  10.933   0.865   9.527  1.6973 -2.5883  0.2766
  841MOL0     H13485  10.994   0.984   9.652  0.9116 -0.3831 -1.9727
  841MOL0     H13486  11.114   0.896   9.870 -2.1779  0.2583  2.7113
  841MOL0     H13487  11.298   0.735   9.999 -1.1455 -2.3801  1.6605
  841MOL0     H13488  11.293   0.569   9.953 -3.6817  0.9572 -1.8844
  841MOL0     H13489  11.511   0.617   9.915  3.0028  0.3579 -1.9749
  841MOL0     H13490  11.443   0.639   9.755  1.5937  0.0828  1.1855
  841MOL0     H13491  11.472   0.874   9.924 -3.8264 -3.1757  0.9890
  841MOL0     H13492  11.436   0.877   9.758 -1.4201  5.4910  3.8964
  841MOL0     H13493  11.656   0.930   9.775  1.3409 -0.3810  1.1105
  841MOL0     H13494  11.655   0.762   9.708 -0.4449  0.3708  0.0648
  841MOL0     H13495  11.892   0.834   9.669  0.8250  3.0858 -0.2540
  841MOL0     H13496  12.129   0.878   9.690  3.3725  2.9269  1.1015
  841MOL0     H13497  12.411   0.970  10.254  0.5028  1.7325  0.0592
  841MOL0     H13498  12.624   1.006  10.335 -2.2564  1.8781 -0.0554
  841MOL0     H13499  12.858   0.984  10.395  0.7047 -0.4997  0.0266
  841MOL0     H13500  12.851   0.821  10.314  1.4288 -0.3933 -1.8604
  841MOL0     H13501  13.078   0.833  10.259 -1.9526  0.1218 -0.7208
  841MOL0     H13502  13.092   0.995  10.323  1.8826 -1.2155 -1.2660
  841MOL0     H13503  13.038   0.887  10.559  0.2683  1.2509 -0.8153
  841MOL0     H13504  13.017   0.735  10.472 -0.9928 -0.0905  2.2219
  841MOL0     H13505  13.263   0.759  10.397  3.1299  1.8589  0.2045
  841MOL0     H13506  13.247   0.741  10.574 -1.4364  1.8798  0.9442
  841MOL0     H13507  13.311   0.988  10.593  1.0474  3.7525 -1.2692
  841MOL0     H13508  13.303   1.003  10.417  2.5936 -2.1225 -0.9264
  841MOL0     H13509  13.477   0.816  10.585  1.9617  0.7525  0.0832
  841MOL0     H13510  13.487   0.822  10.416 -3.2338 -2.3887  0.7451
  841MOL0     H13511  13.532   1.066  10.599 -0.6349 -2.7308  1.8958
  841MOL0     H13512  13.531   1.072  10.425  0.6733  1.9099  1.0527
  841MOL0     H13513  13.741   1.061  10.571 -1.2975 -0.2574  1.5901
  841MOL0     H13514  13.726   0.888  10.553 -1.2109 -0.7208 -2.2698
  841MOL0     H13515  12.795   0.939   9.936  0.8962  1.0270  0.2556
  841MOL0     H13516  12.559   0.904   9.856  0.5063  1.1838 -0.4951
  841MOL0     H13517  12.086   0.883  10.119  2.0504 -2.5405 -0.5578
  841MOL0     H13518  11.862   0.826  10.097 -0.6469  2.7482 -0.1087
  841MOL0     H13519  10.004   0.518   9.954 -2.4605 -0.9754  0.9493
  841MOL0     H13520   9.791   0.467  10.093 -1.5030  1.4293  0.1756
  841MOL0     H13521   9.831   0.533  10.618  0.0527 -1.0330  2.7649
  841MOL0     H13522   9.720   0.512  10.826  0.7102  2.2914 -0.4334
  841MOL0     H13523   9.453   0.538  11.068 -1.5658 -2.3910 -0.2569
  841MOL0     H13524   9.613   0.548  10.992  0.2201 -1.1992  1.8359
  841MOL0     H13525   9.646   0.325  10.962  0.5439 -2.5013  0.2066
  841MOL0     H13526   9.481   0.278  11.008 -0.7070  0.9003  2.6699
  841MOL0     H13527   9.612   0.230  11.178 -1.6741 -0.6724 -2.9139
  841MOL0     H13528   9.525   0.375  11.234 -1.5557 -2.1075 -0.7779
  841MOL0     H13529   9.813   0.366  11.126  0.2704  1.9929 -1.9182
  841MOL0     H13530   9.721   0.515  11.185  0.9950 -0.1649 -0.6832
  841MOL0     H13531   9.839   0.335  11.542 -1.7002 -0.2991  0.4057
  841MOL0     H13532   9.346   0.490  10.636 -0.2847  1.2940 -2.3624
  841MOL0     H13533   9.457   0.477  10.307 -1.9828 -0.4004  0.3412
  841MOL0     H13534   9.321   0.528  10.405  0.5617 -0.8923 -0.8231
  841MOL0     H13535   9.437   0.645  10.336 -1.7042  3.5141  2.5985
  842MOL0     O13536   2.275   7.491   1.871  0.5615 -0.1215 -0.8374
  842MOL0     C13537   2.335   7.472   1.976 -0.4017  0.5183 -0.5202
  842MOL0     O13538   2.448   7.405   1.982  0.1149 -0.5213 -0.1306
  842MOL0     C13539   2.539   7.413   1.874 -0.0901 -0.4068  0.7077
  842MOL0     C13540   2.613   7.531   1.847  0.4568  0.2178 -0.1398
  842MOL0     C13541   2.710   7.530   1.748 -0.3228 -0.9392  0.3215
  842MOL0     C13542   2.739   7.415   1.676 -0.3672 -0.0702  0.3378
  842MOL0     O13543   2.829   7.415   1.565  0.6803 -0.8180 -0.2079
  842MOL0     C13544   2.796   7.316   1.459  0.5929 -0.1444  0.3487
  842MOL0     C13545   2.910   7.309   1.360 -0.4789 -0.5828  0.2027
  842MOL0     C13546   2.897   7.198   1.262 -0.4228  0.1635 -0.1430
  842MOL0     C13547   3.002   7.220   1.152  0.0754 -0.4795  0.3048
  842MOL0     C13548   3.038   7.076   1.094 -0.7476 -0.4482 -0.3808
  842MOL0     C13549   3.093   7.073   0.949 -0.5722 -0.0602 -0.5598
  842MOL0     C13550   3.105   6.936   0.880  0.7542  0.9393 -1.1036
  842MOL0     C13551   3.155   6.825   0.976 -0.5435 -0.2019  0.6031
  842MOL0     N13552   3.184   6.700   0.904 -0.3571  0.1793  0.5338
  842MOL0     C13553   3.088   6.604   0.857  0.7000 -0.7431  0.5511
  842MOL0     C13554   3.158   6.493   0.828 -0.1153 -0.5552  0.6080
  842MOL0     C13555   3.113   6.371   0.763  0.2439 -0.0606  0.1896
  842MOL0     C13556   3.086   6.383   0.611  1.1333  0.5654 -1.2888
  842MOL0     C13557   3.189   6.479   0.546  0.3442  1.1099  0.1787
  842MOL0     C13558   3.170   6.454   0.395 -0.8291 -0.4973  0.4560
  842MOL0     O13559   3.208   6.327   0.348  0.6346  0.5069 -0.1933
  842MOL0     C13560   3.341   6.297   0.349 -0.0873  0.1831 -0.9196
  842MOL0     C13561   3.381   6.159   0.364 -0.0497  0.2613 -0.2595
  842MOL0     C13562   3.512   6.124   0.379  0.7524 -0.5888 -0.5277
  842MOL0     C13563   3.613   6.220   0.372  0.1417 -0.9572  1.0545
  842MOL0     C13564   3.750   6.183   0.354 -0.1867  0.3987  0.0357
  842MOL0     O13565   3.778   6.046   0.351  0.2018 -1.0157 -1.1090
  842MOL0     C13566   3.901   5.990   0.327  0.4222 -0.5215 -0.7794
  842MOL0     C13567   4.025   6.055   0.300  0.3993 -0.0363  0.3112
  842MOL0     C13568   4.138   5.983   0.278 -0.8525  0.0153 -0.6387
  842MOL0     C13569   4.137   5.844   0.302 -0.4015 -0.1834 -0.0944
  842MOL0     O13570   4.248   5.762   0.278 -0.6556 -0.1025  0.4314
  842MOL0     C13571   4.215   5.667   0.165  0.4294  0.3948 -1.0402
  842MOL0     C13572   4.325   5.559   0.161 -0.5154 -0.6211 -0.1274
  842MOL0     C13573   4.458   5.619   0.104 -0.1045  0.7710  0.2941
  842MOL0     C13574   4.468   5.566  -0.038  1.0044 -0.6447  0.7791
  842MOL0     C13575   4.571   5.646  -0.121 -0.2480 -0.0728  0.7451
  842MOL0     C13576   4.709   5.623  -0.060 -0.5183 -0.1847  0.3542
  842MOL0     C13577   4.815   5.704  -0.133 -0.0592  0.0671 -0.5791
  842MOL0     C13578   4.953   5.651  -0.106 -0.1699  0.0758  0.6536
  842MOL0    Cl13579   5.063   5.768  -0.190 -0.2631  0.0855 -0.1693
  842MOL0     C13580   4.021   5.782   0.341  0.4473  0.7937 -0.3890
  842MOL0     C13581   3.902   5.854   0.342  0.0344 -0.0302 -0.1401
  842MOL0     O13582   3.836   6.272   0.332 -0.1431 -0.1082 -0.2486
  842MOL0     C13583   3.582   6.352   0.339 -0.1891 -0.2770 -0.5496
  842MOL0     C13584   3.444   6.392   0.329 -0.5506 -0.7813  0.3216
  842MOL0     N13585   3.288   6.522   0.858  0.0020  0.0867 -0.3154
  842MOL0     N13586   3.302   6.638   0.908  0.5205 -0.1454  0.3816
  842MOL0     C13587   2.677   7.298   1.717 -0.2741 -0.1169 -0.4829
  842MOL0     C13588   2.579   7.291   1.823 -0.1330  0.2865  0.1894
  842MOL0     C13589   2.277   7.514   2.106  0.5685  0.7223 -0.3014
  842MOL0     C13590   2.337   7.476   2.230 -0.4721  0.0702  0.1473
  842MOL0     C13591   2.281   7.494   2.361  0.2450 -0.1920  0.0428
  842MOL0     C13592   2.148   7.545   2.367 -0.3795  0.0883  0.0082
  842MOL0     O13593   2.061   7.562   2.471 -0.2814 -0.9377 -0.2331
  842MOL0     C13594   2.115   7.501   2.593 -0.0060 -0.6933  0.1801
  842MOL0     C13595   2.100   7.347   2.583  0.3213  0.1881 -0.6048
  842MOL0     C13596   1.948   7.308   2.598 -0.2311 -0.6278  0.0777
  842MOL0     C13597   1.899   7.199   2.503 -0.4535  0.7691 -0.5794
  842MOL0     C13598   1.974   7.072   2.518 -0.4337  0.4352  0.0906
  842MOL0     C13599   2.035   6.964   2.524  0.0389 -0.7976 -0.3084
  842MOL0     C13600   2.085   7.581   2.249 -0.0423  0.8906  0.1257
  842MOL0     C13601   2.153   7.580   2.120 -0.1844 -0.4209 -0.1669
  842MOL0     C13602   2.086   7.660   2.007  0.3414  0.1476  0.3122
  842MOL0     H13603   2.593   7.618   1.908 -0.0315 -2.8758  4.6187
  842MOL0     H13604   2.752   7.627   1.721  0.2320 -1.4350 -0.6783
  842MOL0     H13605   2.791   7.213   1.497  1.4706  0.5294  2.4631
  842MOL0     H13606   2.709   7.353   1.405  1.6735 -0.9277 -2.0431
  842MOL0     H13607   2.993   7.306   1.430 -0.4441  2.7046  0.4627
  842MOL0     H13608   2.907   7.399   1.297  1.3748 -0.8185 -0.2864
  842MOL0     H13609   2.803   7.209   1.207 -0.7459  2.6174  0.7750
  842MOL0     H13610   2.909   7.101   1.311  1.7689 -1.1148 -2.9072
  842MOL0     H13611   2.973   7.300   1.083  2.2940 -0.0517 -0.2254
  842MOL0     H13612   3.091   7.251   1.207 -1.8197  0.8595  2.8366
  842MOL0     H13613   3.102   7.037   1.174 -1.2474  1.3312  0.9446
  842MOL0     H13614   2.951   7.010   1.094 -1.6299  0.6556  1.4452
  842MOL0     H13615   3.031   7.131   0.880  0.4366 -1.8285 -3.1184
  842MOL0     H13616   3.191   7.119   0.947 -0.3166 -0.6009 -2.4677
  842MOL0     H13617   3.162   6.942   0.787  3.0158 -2.4957 -0.1389
  842MOL0     H13618   3.007   6.905   0.842  0.3769 -0.3557  0.8075
  842MOL0     H13619   3.252   6.857   1.013 -1.4592  0.0477  2.9440
  842MOL0     H13620   3.089   6.817   1.062  2.5884  0.8883  3.2920
  842MOL0     H13621   2.982   6.614   0.834  1.0759 -0.9049 -1.3719
  842MOL0     H13622   3.199   6.303   0.766 -0.4962 -1.0587 -0.4907
  842MOL0     H13623   3.035   6.320   0.821 -0.4924  0.7521 -0.0605
  842MOL0     H13624   3.088   6.283   0.567 -0.8419  0.6342 -1.6107
  842MOL0     H13625   2.985   6.425   0.601  0.5988 -0.9831 -2.6837
  842MOL0     H13626   3.293   6.453   0.564  1.3772  2.6005 -2.8975
  842MOL0     H13627   3.159   6.580   0.578 -1.7297  0.0515  1.8004
  842MOL0     H13628   3.214   6.522   0.321 -2.2695 -0.7287 -0.6697
  842MOL0     H13629   3.065   6.468   0.367 -0.1113  0.2560 -2.1723
  842MOL0     H13630   3.300   6.088   0.369 -2.1089  2.0735 -3.7984
  842MOL0     H13631   3.529   6.019   0.398  3.3186 -0.3228 -1.0868
  842MOL0     H13632   4.032   6.162   0.282 -2.5879  0.5598  1.8897
  842MOL0     H13633   4.229   6.028   0.238 -1.8868  3.2960  0.3914
  842MOL0     H13634   4.122   5.611   0.177  0.8537 -0.7432 -2.6318
  842MOL0     H13635   4.225   5.711   0.065  1.6432 -0.3638 -1.2660
  842MOL0     H13636   4.324   5.521   0.263 -4.2888  1.4628  0.7844
  842MOL0     H13637   4.291   5.473   0.103  0.0039 -1.6886  1.1153
  842MOL0     H13638   4.467   5.727   0.118  1.4337  0.4167  2.5477
  842MOL0     H13639   4.544   5.573   0.152  0.9189  1.6922 -0.5957
  842MOL0     H13640   4.371   5.576  -0.085  1.1781 -1.9317  0.1139
  842MOL0     H13641   4.487   5.458  -0.043  0.6318 -0.6632 -0.7038
  842MOL0     H13642   4.550   5.752  -0.137 -0.1170 -0.3440 -1.4739
  842MOL0     H13643   4.569   5.620  -0.227  1.8376 -0.5499  0.7753
  842MOL0     H13644   4.720   5.644   0.047 -0.5291 -1.8803  0.7120
  842MOL0     H13645   4.727   5.515  -0.059 -1.3294 -0.3225  1.6646
  842MOL0     H13646   4.813   5.806  -0.093 -0.4875 -0.3111  0.3910
  842MOL0     H13647   4.802   5.703  -0.241 -1.2607 -1.5031 -0.4568
  842MOL0     H13648   4.979   5.633  -0.001 -1.9622 -2.2035  0.7726
  842MOL0     H13649   4.963   5.554  -0.154 -0.8477 -0.0555  0.7821
  842MOL0     H13650   4.016   5.679   0.373  1.3793  1.3218  1.6076
  842MOL0     H13651   3.809   5.807   0.373 -0.2174 -0.2624 -1.2124
  842MOL0     H13652   3.659   6.426   0.321 -1.0605  1.1013  1.0804
  842MOL0     H13653   3.413   6.492   0.304  0.9044 -0.8964 -2.2714
  842MOL0     H13654   2.702   7.201   1.674 -1.6899 -0.6355 -0.1965
  842MOL0     H13655   2.530   7.198   1.848 -0.0717 -0.3634 -1.8492
  842MOL0     H13656   2.433   7.425   2.235 -1.3043 -1.5671  0.0204
  842MOL0     H13657   2.344   7.467   2.445 -1.3507  1.4708  1.8798
  842MOL0     H13658   2.052   7.539   2.674  0.0874 -1.1767  0.4847
  842MOL0     H13659   2.217   7.529   2.618  0.0886  0.3785 -1.2710
  842MOL0     H13660   2.134   7.315   2.682  1.1144  3.3298  0.2401
  842MOL0     H13661   2.149   7.289   2.505 -0.8219 -0.7293 -0.6721
  842MOL0     H13662   1.878   7.391   2.587  2.9192  2.0692 -1.5199
  842MOL0     H13663   1.927   7.280   2.702  2.7495  0.6966  1.1623
  842MOL0     H13664   1.796   7.166   2.523 -0.9177  2.4032 -0.1797
  842MOL0     H13665   1.903   7.239   2.402 -1.5823  1.7782 -0.2439
  842MOL0     H13666   2.085   6.870   2.529  0.3296 -0.6400 -0.1958
  842MOL0     H13667   1.993   7.638   2.249  0.3232  1.4880 -0.2079
  842MOL0     H13668   2.004   7.717   2.050 -0.0755 -1.3015  1.5103
  842MOL0     H13669   2.157   7.725   1.954  0.2340  1.5801  1.8559
  842MOL0     H13670   2.038   7.592   1.936  1.9297  1.3512 -2.0742
  843MOL0     O13671   9.299   2.977   3.714 -0.3590 -0.6110 -0.7725
  843MOL0     C13672   9.295   2.933   3.830  0.2906 -0.0382  0.6897
  843MOL0     O13673   9.399   2.902   3.901 -0.5011 -0.3694  0.2227
  843MOL0     C13674   9.523   2.925   3.847 -0.2297 -0.1839  0.0593
  843MOL0     C13675   9.576   3.049   3.815 -0.4268  0.0491 -0.2208
  843MOL0     C13676   9.705   3.051   3.766 -1.3177 -0.0237 -0.1329
  843MOL0     C13677   9.791   2.941   3.760 -0.0256 -0.2738 -0.2844
  843MOL0     O13678   9.921   2.963   3.730  0.2137  0.0363  0.5461
  843MOL0     C13679  10.002   2.852   3.684  0.2852 -0.4793 -0.4067
  843MOL0     C13680  10.134   2.918   3.659 -0.4624  0.4884 -0.4526
  843MOL0     C13681  10.228   2.830   3.584 -0.4618 -0.5445 -0.3317
  843MOL0     C13682  10.369   2.876   3.586 -0.0031  0.9932  0.2896
  843MOL0     C13683  10.472   2.787   3.514  0.0812 -0.0717  0.3347
  843MOL0     C13684  10.604   2.875   3.501 -0.5325  0.1477 -0.4503
  843MOL0     C13685  10.716   2.793   3.419  0.1068 -0.7487 -0.6522
  843MOL0     C13686  10.848   2.870   3.412  0.5954  0.6882 -0.7177
  843MOL0     N13687  10.847   2.960   3.295 -0.2223 -0.6505  0.5843
  843MOL0     C13688  10.749   3.027   3.228  0.3482 -0.6722  0.5553
  843MOL0     C13689  10.809   3.100   3.136  0.3258 -0.0892  0.2129
  843MOL0     C13690  10.758   3.176   3.021 -0.5162  0.3691  0.3194
  843MOL0     C13691  10.610   3.240   3.041 -0.4263  0.0126 -0.7886
  843MOL0     C13692  10.621   3.371   3.124  0.8169 -0.5349 -1.2271
  843MOL0     C13693  10.489   3.392   3.209  0.4469  0.4079  0.3469
  843MOL0     O13694  10.494   3.298   3.321  0.3510 -0.4499  0.3921
  843MOL0     C13695  10.394   3.316   3.406  0.6285 -0.3085 -0.1570
  843MOL0     C13696  10.277   3.255   3.372  0.3752  0.3294  0.2122
  843MOL0     C13697  10.165   3.263   3.465  0.1110  0.1804 -0.0780
  843MOL0     C13698  10.174   3.342   3.584  0.8657 -0.2918 -0.2984
  843MOL0     C13699  10.045   3.362   3.669  0.7432  0.2738  1.1624
  843MOL0     O13700  10.050   3.433   3.783  0.6201  0.2162  0.6296
  843MOL0     C13701   9.930   3.443   3.867  0.3791  0.2528 -0.3587
  843MOL0     C13702   9.879   3.336   3.939 -0.3525 -0.1990 -0.5091
  843MOL0     C13703   9.776   3.360   4.029  1.6316 -0.4914 -0.0181
  843MOL0     C13704   9.710   3.483   4.027  0.0126  0.6473 -0.1265
  843MOL0     O13705   9.596   3.522   4.076  0.4469 -0.5506  0.1741
  843MOL0     C13706   9.510   3.427   4.146  0.5902  0.3508 -0.4526
  843MOL0     C13707   9.450   3.493   4.270 -1.2774 -0.1372 -0.6965
  843MOL0     C13708   9.555   3.571   4.362 -0.2379  0.4028 -0.6753
  843MOL0     C13709   9.661   3.474   4.417  0.0599  0.2340  0.1513
  843MOL0     C13710   9.759   3.543   4.524 -0.9728 -0.2831 -0.5589
  843MOL0     C13711   9.832   3.674   4.479 -0.1108  0.1817  0.1721
  843MOL0     C13712   9.941   3.648   4.382  0.2753  0.0229  0.2518
  843MOL0     C13713  10.059   3.557   4.436  0.0264 -0.1301  0.1547
  843MOL0    Cl13714  10.196   3.546   4.321  0.2182 -0.0001  0.0701
  843MOL0     C13715   9.767   3.584   3.948  0.0859 -0.2237  0.2215
  843MOL0     C13716   9.882   3.573   3.879 -0.2432  0.5500  0.6487
  843MOL0     O13717   9.944   3.324   3.612 -0.0697  0.1460  0.4421
  843MOL0     C13718  10.292   3.406   3.612  0.6434  0.4048 -0.5115
  843MOL0     C13719  10.402   3.393   3.529  0.3147  0.1868  0.9494
  843MOL0     N13720  10.942   3.071   3.144 -0.6875  0.0115 -0.0694
  843MOL0     N13721  10.971   3.009   3.256 -0.2928  0.1367  0.4587
  843MOL0     C13722   9.749   2.822   3.806  0.1865 -0.1043  0.5674
  843MOL0     C13723   9.612   2.814   3.841 -0.0951  0.7059  0.8699
  843MOL0     C13724   9.164   2.934   3.887  0.0785  0.8104  0.5321
  843MOL0     C13725   9.157   2.941   4.030 -1.1383 -0.3445  0.5019
  843MOL0     C13726   9.030   2.940   4.093 -0.4848  0.2411  0.4340
  843MOL0     C13727   8.912   2.913   4.026  0.5699 -0.6482 -0.6495
  843MOL0     O13728   8.796   2.878   4.103 -0.2456 -0.3848  0.0766
  843MOL0     C13729   8.707   2.984   4.135 -0.7288  0.6093 -0.0082
  843MOL0     C13730   8.560   2.956   4.102  1.1273 -0.5966  0.2006
  843MOL0     C13731   8.533   2.972   3.948  0.6376 -0.1330  0.7108
  843MOL0     C13732   8.533   2.833   3.881  0.2224 -0.4844  0.0537
  843MOL0     C13733   8.393   2.793   3.868 -1.0774  1.1177 -0.3684
  843MOL0     C13734   8.278   2.755   3.853  0.0816 -0.7706  0.4254
  843MOL0     C13735   8.919   2.904   3.893 -0.2335  0.2117  0.6073
  843MOL0     C13736   9.038   2.909   3.819  0.1099  0.4540  0.1232
  843MOL0     C13737   9.028   2.870   3.672 -0.0262 -0.6853 -0.9839
  843MOL0     H13738   9.526   3.145   3.824  1.5217  0.8829  3.1132
  843MOL0     H13739   9.762   3.141   3.747 -1.2047  0.2350  1.3245
  843MOL0     H13740  10.010   2.772   3.758 -0.1444 -0.3087 -0.1798
  843MOL0     H13741   9.961   2.816   3.589 -0.9435 -0.5294  0.1241
  843MOL0     H13742  10.189   2.949   3.748 -0.7138  3.0684 -1.1154
  843MOL0     H13743  10.123   3.010   3.601  0.0600  0.1406 -1.1105
  843MOL0     H13744  10.205   2.826   3.477 -0.3600  0.7901 -0.4216
  843MOL0     H13745  10.219   2.726   3.617 -0.3733 -0.6587 -0.6684
  843MOL0     H13746  10.370   2.977   3.543 -1.3029  1.1713  0.6411
  843MOL0     H13747  10.396   2.883   3.692 -1.4010 -0.6948  0.7898
  843MOL0     H13748  10.476   2.690   3.565 -3.8147 -0.7014 -0.1687
  843MOL0     H13749  10.426   2.766   3.417  0.7752 -0.1737  0.0232
  843MOL0     H13750  10.579   2.965   3.444 -2.2373 -2.1452 -3.6403
  843MOL0     H13751  10.635   2.884   3.606  0.2933 -1.6573 -0.5025
  843MOL0     H13752  10.680   2.768   3.318 -1.3229 -0.1625 -0.3212
  843MOL0     H13753  10.745   2.700   3.469 -0.7151 -0.6587  0.0293
  843MOL0     H13754  10.870   2.914   3.510 -1.4359  2.8713 -1.1463
  843MOL0     H13755  10.930   2.800   3.392 -0.0640 -0.5608  0.6775
  843MOL0     H13756  10.643   3.008   3.246 -0.3179 -0.4263 -2.4874
  843MOL0     H13757  10.833   3.253   3.003 -0.9765  0.7324 -0.0715
  843MOL0     H13758  10.760   3.099   2.944 -0.3927 -0.1166  0.8036
  843MOL0     H13759  10.555   3.267   2.950 -1.4580 -0.4285 -0.3177
  843MOL0     H13760  10.545   3.164   3.087 -1.8085  0.7829 -1.4055
  843MOL0     H13761  10.640   3.460   3.064  1.8618  0.0840 -0.0417
  843MOL0     H13762  10.702   3.352   3.196 -1.4402  0.8113  1.8581
  843MOL0     H13763  10.403   3.379   3.143  1.8558 -0.7711 -1.3206
  843MOL0     H13764  10.488   3.498   3.238 -2.6033  0.4827  0.2944
  843MOL0     H13765  10.260   3.207   3.277  2.0599 -1.0090  0.5374
  843MOL0     H13766  10.073   3.214   3.436  0.3864  0.5938 -1.7662
  843MOL0     H13767   9.932   3.244   3.917  3.6104  1.6382  0.4743
  843MOL0     H13768   9.727   3.280   4.084 -1.3604 -0.0121 -1.7360
  843MOL0     H13769   9.421   3.401   4.089 -0.0898 -1.9943  1.4857
  843MOL0     H13770   9.560   3.330   4.157  1.8009  0.8930 -0.9084
  843MOL0     H13771   9.367   3.549   4.228 -0.0352 -0.0223 -3.1712
  843MOL0     H13772   9.425   3.406   4.331  0.1483 -0.8031 -1.0097
  843MOL0     H13773   9.600   3.653   4.305  1.1937 -1.7330 -2.7500
  843MOL0     H13774   9.499   3.607   4.449 -1.9771  2.2554 -2.4236
  843MOL0     H13775   9.708   3.438   4.325  0.4660  2.5048 -0.5898
  843MOL0     H13776   9.614   3.386   4.462  5.1548 -2.7508  0.3453
  843MOL0     H13777   9.828   3.469   4.565  0.5758  0.7408 -1.1997
  843MOL0     H13778   9.700   3.565   4.613  0.2402  3.1527 -0.4529
  843MOL0     H13779   9.764   3.738   4.423 -0.8756 -0.1887  0.6463
  843MOL0     H13780   9.869   3.734   4.563 -1.0717  1.3470 -0.2150
  843MOL0     H13781   9.984   3.746   4.358 -0.1404 -0.2959 -1.9528
  843MOL0     H13782   9.901   3.608   4.289  0.5281  1.0923 -0.3410
  843MOL0     H13783  10.106   3.595   4.527  0.1327  0.6833 -0.2286
  843MOL0     H13784  10.017   3.456   4.444  2.6677 -1.4688 -1.3690
  843MOL0     H13785   9.724   3.684   3.946 -0.7135 -0.5656 -0.3267
  843MOL0     H13786   9.932   3.653   3.825  0.3571  0.5122  1.1431
  843MOL0     H13787  10.304   3.462   3.705 -0.7705  0.3407 -0.2652
  843MOL0     H13788  10.496   3.442   3.549 -1.2070  2.4125  3.2296
  843MOL0     H13789   9.810   2.732   3.808 -0.1362 -0.3542 -0.2865
  843MOL0     H13790   9.577   2.718   3.877  0.6941  0.7189  1.7335
  843MOL0     H13791   9.251   2.961   4.080  1.0064 -0.6336 -3.1259
  843MOL0     H13792   9.025   2.959   4.200  0.3500 -0.9563  0.7090
  843MOL0     H13793   8.742   3.061   4.067 -1.8495 -1.4093 -3.0824
  843MOL0     H13794   8.718   3.015   4.240 -0.5645  1.4935 -0.2855
  843MOL0     H13795   8.506   3.034   4.158 -0.5356 -0.5433 -1.3700
  843MOL0     H13796   8.510   2.868   4.142 -1.8920  1.2443  0.8417
  843MOL0     H13797   8.612   3.030   3.901 -0.7675  0.4375 -1.0523
  843MOL0     H13798   8.437   3.021   3.931  1.0808  0.6805  0.4708
  843MOL0     H13799   8.591   2.850   3.789  0.0069  0.8573  0.1498
  843MOL0     H13800   8.567   2.757   3.951 -0.2634  0.7899  1.7460
  843MOL0     H13801   8.175   2.733   3.835  0.7406 -1.8567 -2.5727
  843MOL0     H13802   8.838   2.868   3.830  0.1897  0.2951 -0.0026
  843MOL0     H13803   8.924   2.886   3.642  0.1455  0.6824 -0.9015
  843MOL0     H13804   9.095   2.928   3.608  2.1568  1.6442  3.0258
  843MOL0     H13805   9.050   2.763   3.671  0.4781 -0.5937 -0.4310
  844MOL0     O13806   9.328   1.842   4.831  0.5239  1.0511  0.1782
  844MOL0     C13807   9.276   1.843   4.719 -0.1170 -0.1953  0.7734
  844MOL0     O13808   9.148   1.795   4.701 -0.5563 -0.7337  0.4269
  844MOL0     C13809   9.077   1.783   4.815 -0.4654 -0.0087 -0.6249
  844MOL0     C13810   9.055   1.656   4.858 -0.0504  0.5851 -1.2010
  844MOL0     C13811   8.976   1.635   4.970  0.6273 -0.1481 -0.0228
  844MOL0     C13812   8.922   1.740   5.046 -0.3668  0.2683  0.0631
  844MOL0     O13813   8.858   1.703   5.157 -0.3129 -0.2673 -0.1838
  844MOL0     C13814   8.828   1.808   5.256  0.7272  0.3750 -0.3648
  844MOL0     C13815   8.764   1.732   5.369  0.3975  0.2986 -0.0471
  844MOL0     C13816   8.744   1.795   5.509  0.5086  0.1379  0.4965
  844MOL0     C13817   8.856   1.879   5.561 -0.7647 -0.3733 -0.2975
  844MOL0     C13818   8.835   1.939   5.700  0.7502 -0.7382  0.0793
  844MOL0     C13819   8.833   1.839   5.816 -0.6031  0.6034  0.8582
  844MOL0     C13820   8.934   1.730   5.824  0.2198  0.8469  0.4600
  844MOL0     C13821   9.066   1.777   5.890  0.4301 -0.1507 -0.1912
  844MOL0     N13822   9.053   1.846   6.020  0.6117  0.5460  0.1480
  844MOL0     C13823   9.020   1.971   6.038  0.6600  0.3074 -0.3013
  844MOL0     C13824   8.940   1.968   6.145 -0.0302 -0.0541 -0.3660
  844MOL0     C13825   8.874   2.090   6.200 -0.4334  0.7817  0.5164
  844MOL0     C13826   8.743   2.111   6.119 -0.4154 -0.1697 -1.4626
  844MOL0     C13827   8.674   2.246   6.147  0.0782  0.0966  0.5171
  844MOL0     C13828   8.758   2.375   6.178  0.5125 -0.0397 -0.8691
  844MOL0     O13829   8.799   2.425   6.046 -0.7147 -0.2687 -0.5217
  844MOL0     C13830   8.924   2.460   6.013 -0.5644  0.8479  0.6355
  844MOL0     C13831   8.965   2.404   5.889 -0.2975  0.4122  0.2952
  844MOL0     C13832   9.105   2.422   5.851 -0.7038 -0.9129  0.1230
  844MOL0     C13833   9.194   2.495   5.929  0.6221  0.2706  0.2448
  844MOL0     C13834   9.331   2.530   5.882 -0.2639 -0.0303  0.1470
  844MOL0     O13835   9.418   2.575   5.975  0.7419 -0.1530 -0.3096
  844MOL0     C13836   9.545   2.594   5.945  1.5344  0.1974  1.0560
  844MOL0     C13837   9.595   2.640   5.818  0.4444  1.0425 -0.2128
  844MOL0     C13838   9.730   2.666   5.805 -0.6293  0.5355  0.1842
  844MOL0     C13839   9.821   2.641   5.912 -0.6508 -0.0375 -0.3172
  844MOL0     O13840   9.963   2.671   5.908 -0.0996  0.2780  0.1211
  844MOL0     C13841  10.011   2.765   5.810  0.6210 -0.6259  0.6022
  844MOL0     C13842  10.159   2.740   5.798 -0.0432  0.0745  0.9799
  844MOL0     C13843  10.234   2.849   5.721 -0.4590 -0.6490  0.2797
  844MOL0     C13844  10.382   2.824   5.733 -0.0552  0.7430 -1.0492
  844MOL0     C13845  10.464   2.910   5.636  0.2737  0.3011 -0.1752
  844MOL0     C13846  10.618   2.893   5.633  0.4404 -0.0344 -0.0089
  844MOL0     C13847  10.669   3.002   5.540  0.2496  0.4210 -0.1831
  844MOL0     C13848  10.824   3.006   5.547 -0.8165 -0.0701  0.1932
  844MOL0    Cl13849  10.900   3.162   5.482 -0.1349  0.1159 -0.2464
  844MOL0     C13850   9.762   2.612   6.036 -0.3228  0.7965 -0.0841
  844MOL0     C13851   9.631   2.583   6.050  0.7369  0.4926 -0.3353
  844MOL0     O13852   9.357   2.509   5.765  0.0983  0.5446 -0.1971
  844MOL0     C13853   9.144   2.545   6.049  0.5388  0.0174  0.2795
  844MOL0     C13854   9.006   2.526   6.096 -0.3945  0.2804 -0.5440
  844MOL0     N13855   8.934   1.846   6.204  0.1875 -0.1290  0.2827
  844MOL0     N13856   8.996   1.774   6.116 -1.3919 -0.1000 -1.3189
  844MOL0     C13857   8.954   1.879   5.008 -1.2735  0.6590 -1.6293
  844MOL0     C13858   9.028   1.900   4.889 -0.3779  0.0232  0.5601
  844MOL0     C13859   9.355   1.894   4.595 -0.2411 -0.3454  0.1454
  844MOL0     C13860   9.292   1.900   4.468  0.1145 -1.0528  0.5459
  844MOL0     C13861   9.343   1.974   4.359  0.1432  0.9269 -0.1035
  844MOL0     C13862   9.470   2.033   4.366  0.3704  0.7036  0.1453
  844MOL0     O13863   9.534   2.102   4.271  0.7081  0.1786  0.1144
  844MOL0     C13864   9.478   2.098   4.131  0.2255 -0.3672 -0.4705
  844MOL0     C13865   9.514   1.969   4.054 -0.5543 -0.4353  0.2830
  844MOL0     C13866   9.655   1.977   3.984  0.0877  0.3135  0.7120
  844MOL0     C13867   9.644   2.068   3.859 -0.5058 -0.3806 -0.9649
  844MOL0     C13868   9.759   2.034   3.782  0.4504  0.4824 -0.6788
  844MOL0     C13869   9.859   1.991   3.730 -0.2758 -0.4726 -0.2017
  844MOL0     C13870   9.542   2.007   4.495 -0.0205  0.9415  0.0125
  844MOL0     C13871   9.486   1.946   4.607 -0.9607  0.3555  0.3598
  844MOL0     C13872   9.578   1.939   4.728 -0.5044  0.4344  0.0183
  844MOL0     H13873   9.098   1.573   4.803 -0.8579 -0.3102 -0.5219
  844MOL0     H13874   8.953   1.533   4.999 -0.4594 -0.2642 -1.1943
  844MOL0     H13875   8.916   1.863   5.291 -0.8814  1.8987  1.5338
  844MOL0     H13876   8.753   1.875   5.213 -0.8007  0.1797  1.8067
  844MOL0     H13877   8.820   1.641   5.392  0.6691  0.4502 -0.1042
  844MOL0     H13878   8.665   1.699   5.336 -0.8612  0.9860  2.7338
  844MOL0     H13879   8.706   1.718   5.577 -1.9352 -0.1838 -1.1004
  844MOL0     H13880   8.651   1.853   5.516 -1.1498 -2.5038  2.9767
  844MOL0     H13881   8.949   1.821   5.548  0.3118  1.3206 -0.4871
  844MOL0     H13882   8.861   1.959   5.486  1.7109 -2.1511 -2.2260
  844MOL0     H13883   8.916   2.012   5.716  0.1817  0.0680 -0.6263
  844MOL0     H13884   8.739   1.991   5.703  1.5140  0.7145  0.1663
  844MOL0     H13885   8.808   1.885   5.912 -2.3058 -0.3194  0.9013
  844MOL0     H13886   8.745   1.779   5.790  0.0688  0.2116 -0.6749
  844MOL0     H13887   8.949   1.683   5.727 -0.1012 -3.1823  2.1940
  844MOL0     H13888   8.897   1.649   5.887  1.3883  0.4374  0.6335
  844MOL0     H13889   9.123   1.686   5.913  2.8671 -0.2228 -5.2719
  844MOL0     H13890   9.140   1.830   5.830 -0.4638  1.2593 -0.0992
  844MOL0     H13891   9.044   2.057   5.976  1.7568 -0.4355 -0.9457
  844MOL0     H13892   8.877   2.081   6.309  0.5394  1.0012  0.5173
  844MOL0     H13893   8.943   2.173   6.181  0.3568 -0.1054 -0.6934
  844MOL0     H13894   8.767   2.102   6.013  1.7846 -0.5046 -0.9822
  844MOL0     H13895   8.678   2.028   6.149  1.1981 -0.3496  2.0674
  844MOL0     H13896   8.626   2.227   6.244 -1.0248 -0.7069 -0.1665
  844MOL0     H13897   8.597   2.276   6.076 -0.8874  1.7106  2.1394
  844MOL0     H13898   8.847   2.352   6.238 -0.3832 -1.2194  0.0636
  844MOL0     H13899   8.704   2.453   6.232 -1.3029 -1.1176 -1.0399
  844MOL0     H13900   8.904   2.350   5.818  2.1669  2.0793 -3.4630
  844MOL0     H13901   9.137   2.388   5.753 -0.7795  1.7009 -0.8806
  844MOL0     H13902   9.538   2.665   5.729 -1.8332  1.1839  1.2070
  844MOL0     H13903   9.766   2.691   5.705  1.6534  1.3010  1.1369
  844MOL0     H13904   9.971   2.749   5.709  3.2754 -0.3863 -0.5539
  844MOL0     H13905  10.000   2.866   5.850  1.0463 -0.1849 -0.3644
  844MOL0     H13906  10.203   2.747   5.898 -0.2076  1.8391  0.9491
  844MOL0     H13907  10.163   2.647   5.740 -1.2300 -0.0279  1.0394
  844MOL0     H13908  10.200   2.852   5.617 -1.7949  4.9624  0.6129
  844MOL0     H13909  10.215   2.948   5.761  0.4387  1.7861 -4.5947
  844MOL0     H13910  10.398   2.716   5.728 -3.7273 -0.0754  0.9871
  844MOL0     H13911  10.411   2.845   5.837 -3.8705 -0.8073  0.5386
  844MOL0     H13912  10.445   3.016   5.658 -0.2818  0.2331 -0.3096
  844MOL0     H13913  10.419   2.900   5.536 -0.4696  1.9594 -0.0511
  844MOL0     H13914  10.649   2.911   5.736  0.9953 -0.2179 -0.1407
  844MOL0     H13915  10.637   2.790   5.600 -1.6369 -1.8273  3.8242
  844MOL0     H13916  10.628   3.099   5.571  3.0389  1.5052  0.3964
  844MOL0     H13917  10.631   2.980   5.440 -0.6238  0.4412  0.1352
  844MOL0     H13918  10.855   3.002   5.652  0.7329 -1.6623 -0.2830
  844MOL0     H13919  10.859   2.919   5.490 -3.4842 -0.6640 -0.6938
  844MOL0     H13920   9.835   2.613   6.116  0.3179  2.0357 -0.6390
  844MOL0     H13921   9.577   2.553   6.139 -0.3095  0.6198 -0.9075
  844MOL0     H13922   9.207   2.594   6.122 -0.2493  2.0599 -0.3421
  844MOL0     H13923   8.980   2.554   6.198  1.8983  1.1511 -0.1326
  844MOL0     H13924   8.930   1.959   5.077 -3.7421  0.9126 -2.6500
  844MOL0     H13925   9.041   1.999   4.847  1.5477  0.0321  1.0690
  844MOL0     H13926   9.193   1.856   4.459 -0.9407  1.5550 -2.8135
  844MOL0     H13927   9.268   1.988   4.281 -0.4257 -0.0401  0.2651
  844MOL0     H13928   9.516   2.191   4.088  2.4795 -0.2351  1.5611
  844MOL0     H13929   9.370   2.116   4.140  0.7304  2.2285  1.6794
  844MOL0     H13930   9.444   1.957   3.971  1.3782 -2.6433 -1.1322
  844MOL0     H13931   9.500   1.882   4.119  3.7229 -0.8869  0.8841
  844MOL0     H13932   9.673   1.872   3.961 -1.3395 -0.0877  1.3228
  844MOL0     H13933   9.736   1.997   4.054 -0.2748 -1.9456  1.8798
  844MOL0     H13934   9.555   2.052   3.798 -0.3345  2.2650 -2.0460
  844MOL0     H13935   9.653   2.173   3.887  0.4917 -0.6485 -0.1976
  844MOL0     H13936   9.937   1.949   3.670  0.8526 -0.8191  1.4567
  844MOL0     H13937   9.646   2.036   4.490 -0.4108  2.2922 -1.7057
  844MOL0     H13938   9.530   1.988   4.813 -0.1247  0.7820  0.0354
  844MOL0     H13939   9.601   1.834   4.751  3.2603  0.7822 -1.4347
  844MOL0     H13940   9.673   1.987   4.705  0.4419  0.4278  3.4436
  845MOL0     O13941   9.827   4.449   1.711  0.1993  0.2514  0.2135
  845MOL0     C13942   9.741   4.534   1.695  0.1751  0.3743  0.0449
  845MOL0     O13943   9.761   4.653   1.627  0.6319 -0.4583  0.3298
  845MOL0     C13944   9.875   4.676   1.541 -0.7567 -0.1244 -0.3073
  845MOL0     C13945   9.867   4.680   1.397 -0.0529  0.4536 -0.0949
  845MOL0     C13946   9.986   4.702   1.323  0.7879 -0.2906  0.7759
  845MOL0     C13947  10.109   4.721   1.387 -0.0641 -0.3026  0.3460
  845MOL0     O13948  10.232   4.754   1.321  0.4571 -0.8169  0.2496
  845MOL0     C13949  10.214   4.865   1.230  0.1477  1.1522 -1.2892
  845MOL0     C13950  10.343   4.936   1.217 -0.0457 -0.7799 -0.3814
  845MOL0     C13951  10.327   5.081   1.151  0.5097 -0.0250  0.1754
  845MOL0     C13952  10.460   5.149   1.129  0.8512  0.1499  0.1756
  845MOL0     C13953  10.488   5.188   0.982  1.0039 -0.3033  0.2589
  845MOL0     C13954  10.621   5.268   0.972  0.2943  0.3975  0.6717
  845MOL0     C13955  10.635   5.357   0.846  0.1136 -0.1987 -0.5763
  845MOL0     C13956  10.653   5.289   0.717 -0.5312 -0.7856 -0.2625
  845MOL0     N13957  10.724   5.378   0.623  0.7639  0.0863  0.0821
  845MOL0     C13958  10.859   5.417   0.618  0.0257  0.3003 -0.1898
  845MOL0     C13959  10.879   5.477   0.496 -0.6801  0.1402 -0.1818
  845MOL0     C13960  11.002   5.508   0.424 -0.5188  0.0567 -0.0615
  845MOL0     C13961  11.114   5.575   0.507 -0.1441  0.2798 -1.2439
  845MOL0     C13962  11.124   5.723   0.461 -0.6057 -1.1680  0.2061
  845MOL0     C13963  11.210   5.802   0.562 -0.2670 -0.4054  0.3701
  845MOL0     O13964  11.267   5.929   0.523 -0.0771 -0.3887 -0.1048
  845MOL0     C13965  11.366   5.933   0.419  1.0141  1.0292  0.1331
  845MOL0     C13966  11.445   5.821   0.389 -0.8473  0.1166 -0.2555
  845MOL0     C13967  11.561   5.843   0.308  0.4845  0.7182  0.3307
  845MOL0     C13968  11.596   5.966   0.255 -0.4541  0.1623  0.1736
  845MOL0     C13969  11.707   5.986   0.156  0.4086  0.8520 -0.6689
  845MOL0     O13970  11.688   6.076   0.049  0.0200  0.1877  0.3114
  845MOL0     C13971  11.787   6.096  -0.043 -0.5217 -0.2150  0.3201
  845MOL0     C13972  11.810   6.005  -0.152 -0.4040  0.1965  0.2508
  845MOL0     C13973  11.903   6.035  -0.251 -0.2197 -1.2757  0.6649
  845MOL0     C13974  11.981   6.149  -0.240 -0.4514 -0.0501 -0.8013
  845MOL0     O13975  12.080   6.168  -0.332 -0.9768 -0.8464 -0.5567
  845MOL0     C13976  12.170   6.279  -0.329 -0.0634 -0.1866  0.2191
  845MOL0     C13977  12.270   6.251  -0.444 -0.0594 -0.1133  0.3344
  845MOL0     C13978  12.383   6.350  -0.455 -0.0895  0.2971 -0.0965
  845MOL0     C13979  12.335   6.469  -0.539 -0.2291  0.4119 -0.0354
  845MOL0     C13980  12.438   6.567  -0.585  0.4012  0.8844  0.0761
  845MOL0     C13981  12.375   6.666  -0.689  0.8129  0.8684 -0.3612
  845MOL0     C13982  12.466   6.792  -0.704  0.1280  0.2222  0.0652
  845MOL0     C13983  12.416   6.876  -0.819  0.9402 -0.0678  0.3833
  845MOL0    Cl13984  12.527   7.020  -0.844 -0.0335  0.3532 -0.0137
  845MOL0     C13985  11.946   6.248  -0.143 -0.1789 -0.0986  0.1737
  845MOL0     C13986  11.863   6.212  -0.038  0.1357  0.0376  0.0716
  845MOL0     O13987  11.797   5.900   0.159 -0.2362 -0.1047 -0.1411
  845MOL0     C13988  11.515   6.085   0.286  0.3676  0.0210 -0.3949
  845MOL0     C13989  11.398   6.066   0.368 -1.1371  0.5167 -0.3657
  845MOL0     N13990  10.756   5.464   0.431 -0.0472  0.1391 -0.6827
  845MOL0     N13991  10.664   5.402   0.501  0.1375  0.5771 -0.2072
  845MOL0     C13992  10.113   4.722   1.528 -0.1405  0.3806 -0.2597
  845MOL0     C13993  10.003   4.697   1.600 -0.0082 -0.7077  0.3892
  845MOL0     C13994   9.609   4.518   1.767 -0.6969 -0.5516 -0.4098
  845MOL0     C13995   9.524   4.630   1.790  0.5058 -0.4653 -0.4062
  845MOL0     C13996   9.393   4.613   1.845 -0.3867  0.3393  0.3495
  845MOL0     C13997   9.355   4.490   1.892  0.1833 -0.8854  0.5742
  845MOL0     O13998   9.234   4.461   1.946  0.1529 -0.5174 -0.0574
  845MOL0     C13999   9.120   4.556   1.953  0.6623  1.2385 -0.5582
  845MOL0     C14000   8.982   4.486   1.968  0.7852 -0.7307  1.6943
  845MOL0     C14001   8.962   4.399   2.096 -0.1161 -0.0186 -0.4308
  845MOL0     C14002   8.826   4.317   2.090  0.6244  0.4040 -0.4916
  845MOL0     C14003   8.712   4.408   2.081 -0.0416  0.5709  0.1005
  845MOL0     C14004   8.607   4.465   2.079  0.8297 -0.1146  0.5187
  845MOL0     C14005   9.437   4.384   1.869 -0.0855  0.7657  0.2647
  845MOL0     C14006   9.561   4.394   1.808  0.5288  1.4259 -0.3249
  845MOL0     C14007   9.649   4.267   1.816  0.4083  0.3012  0.0930
  845MOL0     H14008   9.769   4.660   1.353 -0.6091  0.1489  1.2436
  845MOL0     H14009   9.986   4.699   1.214 -0.2869  1.1432  0.7121
  845MOL0     H14010  10.177   4.836   1.132 -2.2774  1.3137 -0.4877
  845MOL0     H14011  10.131   4.927   1.266 -1.1006  0.5424 -3.0113
  845MOL0     H14012  10.411   4.876   1.155 -1.1368  0.1113 -2.5341
  845MOL0     H14013  10.391   4.941   1.315  0.2748  2.2642 -0.5918
  845MOL0     H14014  10.272   5.142   1.223 -0.7792  0.9764 -1.5707
  845MOL0     H14015  10.268   5.080   1.059 -0.7395  2.1989  0.8899
  845MOL0     H14016  10.454   5.242   1.186 -7.1287 -0.6635  1.8544
  845MOL0     H14017  10.538   5.089   1.177  0.5420  2.5968  4.0826
  845MOL0     H14018  10.492   5.097   0.922 -0.6163 -0.4805  0.3602
  845MOL0     H14019  10.403   5.247   0.947  0.5731 -0.5406  0.8858
  845MOL0     H14020  10.616   5.345   1.050  2.0460  2.4346 -1.0950
  845MOL0     H14021  10.710   5.206   0.982  1.6385  2.0395 -0.5807
  845MOL0     H14022  10.725   5.414   0.869  0.1155 -0.5634  0.3628
  845MOL0     H14023  10.559   5.436   0.845  1.3014  1.1788  3.1035
  845MOL0     H14024  10.731   5.212   0.726  0.0692 -0.1886 -0.2287
  845MOL0     H14025  10.563   5.239   0.681 -2.9700  1.5977  2.0048
  845MOL0     H14026  10.932   5.394   0.694 -0.3883 -0.4532 -0.0047
  845MOL0     H14027  11.044   5.420   0.376  1.7523  0.6653  0.6992
  845MOL0     H14028  10.970   5.570   0.340 -1.5124  1.5601  1.3538
  845MOL0     H14029  11.085   5.586   0.612  1.1920  0.9591 -0.9240
  845MOL0     H14030  11.203   5.514   0.491 -0.9116 -0.5146 -2.7262
  845MOL0     H14031  11.021   5.760   0.461 -0.1621  0.1283  0.9700
  845MOL0     H14032  11.172   5.729   0.363  2.1472  1.0499  1.5337
  845MOL0     H14033  11.288   5.739   0.604 -0.5899  0.9352  3.2056
  845MOL0     H14034  11.157   5.818   0.656 -0.6874 -1.0845  0.2556
  845MOL0     H14035  11.427   5.717   0.416  0.9033 -0.1650  0.0003
  845MOL0     H14036  11.626   5.758   0.287 -1.7866 -0.6971 -1.3633
  845MOL0     H14037  11.758   5.910  -0.152 -0.3347  0.1530 -0.5118
  845MOL0     H14038  11.929   5.956  -0.321  0.1240 -2.6249  2.2510
  845MOL0     H14039  12.113   6.370  -0.350  0.3870 -0.1481 -0.8716
  845MOL0     H14040  12.228   6.294  -0.237 -0.7199  2.0105  0.3259
  845MOL0     H14041  12.310   6.149  -0.444 -4.2449 -1.9855  0.9355
  845MOL0     H14042  12.211   6.246  -0.536  0.2815  3.3802 -0.1782
  845MOL0     H14043  12.412   6.390  -0.357  1.7012 -1.9351  0.3731
  845MOL0     H14044  12.476   6.310  -0.496  0.8982  2.9030 -0.5974
  845MOL0     H14045  12.259   6.523  -0.482  0.7409 -0.3502  2.1031
  845MOL0     H14046  12.294   6.421  -0.628  1.3169 -0.7652 -0.1384
  845MOL0     H14047  12.522   6.512  -0.627 -0.4593 -1.2349  0.9727
  845MOL0     H14048  12.448   6.624  -0.493 -2.0196 -2.7142  2.8576
  845MOL0     H14049  12.352   6.616  -0.784 -2.4874 -0.7236  1.1022
  845MOL0     H14050  12.278   6.697  -0.648  0.8446 -2.3842  2.6863
  845MOL0     H14051  12.564   6.754  -0.734  1.0041  0.7272  2.1417
  845MOL0     H14052  12.480   6.850  -0.612 -2.7890  0.9373  0.1467
  845MOL0     H14053  12.404   6.815  -0.908  1.6286 -0.3296  0.4702
  845MOL0     H14054  12.315   6.913  -0.796  1.2598  0.8539  0.3394
  845MOL0     H14055  12.007   6.337  -0.133 -2.0598  1.2693  0.1012
  845MOL0     H14056  11.851   6.284   0.043  1.0548  0.8460 -0.4874
  845MOL0     H14057  11.542   6.181   0.243 -1.7159  0.6458 -0.3917
  845MOL0     H14058  11.336   6.150   0.396 -0.1902  1.3828 -0.7879
  845MOL0     H14059  10.200   4.737   1.590 -0.0875  0.0757 -0.2577
  845MOL0     H14060  10.009   4.691   1.709  0.4759  0.0804  0.4146
  845MOL0     H14061   9.545   4.734   1.768  0.5035  0.2277  2.5176
  845MOL0     H14062   9.321   4.695   1.846 -2.7034 -1.5912  0.3494
  845MOL0     H14063   9.105   4.623   1.868 -0.1999  0.8455 -0.7212
  845MOL0     H14064   9.154   4.624   2.032  2.4576  1.0172 -1.1007
  845MOL0     H14065   8.971   4.433   1.873 -1.2257  0.8901  0.9292
  845MOL0     H14066   8.904   4.563   1.968  0.5109 -0.9126 -0.8152
  845MOL0     H14067   8.968   4.471   2.178 -0.6716  1.0991 -1.3507
  845MOL0     H14068   9.052   4.338   2.109  1.7644  2.2666 -1.9708
  845MOL0     H14069   8.835   4.252   2.002 -2.7681  1.1087 -1.4896
  845MOL0     H14070   8.811   4.254   2.178 -1.4137  0.1106 -0.9995
  845MOL0     H14071   8.517   4.520   2.057  0.2485 -1.2059  0.0557
  845MOL0     H14072   9.404   4.287   1.906  0.6010  1.5063  3.0435
  845MOL0     H14073   9.712   4.270   1.905 -1.3153 -0.5415  1.4180
  845MOL0     H14074   9.592   4.175   1.834  3.3751 -1.6462  0.1866
  845MOL0     H14075   9.705   4.255   1.723 -1.1480  2.7140 -1.2805
  846MOL0     O14076   8.226   4.476   8.557  0.0201 -0.5058 -0.2608
  846MOL0     C14077   8.234   4.507   8.436 -0.2023  1.0829  0.3153
  846MOL0     O14078   8.173   4.618   8.377 -0.0401 -0.0719  0.3711
  846MOL0     C14079   8.051   4.648   8.425  0.0158  0.2000 -0.9529
  846MOL0     C14080   8.002   4.766   8.388  0.2788 -0.3495  0.4649
  846MOL0     C14081   7.878   4.812   8.410  0.0678 -0.1763 -0.5349
  846MOL0     C14082   7.785   4.740   8.476  0.1006  0.4760 -0.7158
  846MOL0     O14083   7.662   4.794   8.483 -0.2057  0.0835  0.9429
  846MOL0     C14084   7.557   4.717   8.554 -0.2165 -0.3122 -0.2235
  846MOL0     C14085   7.439   4.801   8.588  0.2363  0.3744  0.4741
  846MOL0     C14086   7.337   4.724   8.671  0.0986  0.2378  0.0802
  846MOL0     C14087   7.196   4.773   8.646 -0.9685 -0.1079  0.4541
  846MOL0     C14088   7.099   4.672   8.716 -0.4924 -0.4402  0.8238
  846MOL0     C14089   6.958   4.725   8.711  0.3527 -0.7978 -0.9733
  846MOL0     C14090   6.863   4.635   8.786  0.0084  0.1186  0.2490
  846MOL0     C14091   6.869   4.646   8.945  0.0549  0.0451  0.6514
  846MOL0     N14092   6.749   4.591   9.008 -0.5628 -0.1975 -0.4634
  846MOL0     C14093   6.703   4.465   8.974 -0.2482 -0.5012  0.5898
  846MOL0     C14094   6.572   4.467   9.013  0.4236  0.5761 -0.0175
  846MOL0     C14095   6.463   4.360   9.013 -0.2758  0.8894 -0.5892
  846MOL0     C14096   6.515   4.217   9.077 -0.4225 -0.7029 -0.1701
  846MOL0     C14097   6.391   4.131   9.103  0.0377 -0.3423  1.6411
  846MOL0     C14098   6.422   3.982   9.140  0.6289 -0.5431  0.2661
  846MOL0     O14099   6.494   3.972   9.263 -0.0894  0.1073 -0.4693
  846MOL0     C14100   6.624   3.938   9.258  0.7824  0.3239 -0.3685
  846MOL0     C14101   6.725   4.018   9.304  0.1344  0.5254 -0.2997
  846MOL0     C14102   6.860   3.982   9.301 -0.0749  0.0472 -0.3861
  846MOL0     C14103   6.892   3.843   9.262  0.3420  0.8149  0.2473
  846MOL0     C14104   7.029   3.797   9.246 -0.5900 -1.3509 -0.1583
  846MOL0     O14105   7.130   3.858   9.316  0.5884 -0.1561 -0.2262
  846MOL0     C14106   7.256   3.802   9.327  0.0502  0.6235 -0.5681
  846MOL0     C14107   7.274   3.673   9.372 -0.7237  0.0347  0.6658
  846MOL0     C14108   7.404   3.622   9.378  0.0358  0.3037 -0.2373
  846MOL0     C14109   7.522   3.705   9.355 -0.0058  0.4796  0.2681
  846MOL0     O14110   7.650   3.654   9.362 -0.2968  0.0093  0.2367
  846MOL0     C14111   7.670   3.516   9.366  0.2399 -0.0216  0.2110
  846MOL0     C14112   7.811   3.490   9.318  0.5653 -0.0916  0.5816
  846MOL0     C14113   7.920   3.548   9.410  0.1756  0.2873 -0.6774
  846MOL0     C14114   8.039   3.441   9.444  0.0446 -1.1893  0.1048
  846MOL0     C14115   8.126   3.432   9.314 -0.2583  0.5250  0.4629
  846MOL0     C14116   8.207   3.305   9.321 -0.5054 -0.5550 -0.0716
  846MOL0     C14117   8.326   3.291   9.225  0.2285 -0.6530 -0.3611
  846MOL0     C14118   8.378   3.157   9.195  0.8401  0.4842  0.4292
  846MOL0    Cl14119   8.454   3.107   9.347 -0.3890 -0.2780  0.1122
  846MOL0     C14120   7.503   3.840   9.310  0.2487  1.1455 -0.8169
  846MOL0     C14121   7.369   3.882   9.308 -0.4119  0.0005  0.1370
  846MOL0     O14122   7.048   3.717   9.157  0.5352 -0.3671 -0.5392
  846MOL0     C14123   6.791   3.768   9.216 -0.0570  0.2131  1.3455
  846MOL0     C14124   6.660   3.807   9.216  0.4298 -0.3209 -0.1558
  846MOL0     N14125   6.550   4.592   9.073 -0.0394  0.7555 -0.1457
  846MOL0     N14126   6.655   4.666   9.061 -0.1522  0.6172 -1.0674
  846MOL0     C14127   7.819   4.610   8.501 -0.0139  0.9982 -0.3804
  846MOL0     C14128   7.951   4.565   8.476  0.4590 -0.1991 -0.0619
  846MOL0     C14129   8.339   4.447   8.350 -0.3075  0.6301 -0.7844
  846MOL0     C14130   8.401   4.527   8.250 -0.0664  0.3452  0.2129
  846MOL0     C14131   8.506   4.488   8.177  0.1004 -0.9843  0.8079
  846MOL0     C14132   8.561   4.361   8.184  0.1270  0.1997 -0.9427
  846MOL0     O14133   8.674   4.337   8.104  0.7043 -0.0697 -0.2215
  846MOL0     C14134   8.768   4.244   8.151 -0.6505  0.5258 -0.9618
  846MOL0     C14135   8.771   4.129   8.036 -0.0284 -0.2130 -0.0304
  846MOL0     C14136   8.856   4.007   8.071  0.0746  0.1456  0.5748
  846MOL0     C14137   9.003   4.031   8.034  0.4302  0.0830  0.5651
  846MOL0     C14138   9.082   4.089   8.138  0.3624 -0.1404  1.0598
  846MOL0     C14139   9.139   4.130   8.237 -0.3742  0.3483 -0.3753
  846MOL0     C14140   8.501   4.262   8.277  0.2645 -0.0066  1.2817
  846MOL0     C14141   8.388   4.313   8.354  0.1358  0.3554  0.9910
  846MOL0     C14142   8.314   4.207   8.427 -1.0892 -0.6013  0.2512
  846MOL0     H14143   8.070   4.827   8.329  0.9153  0.5166  2.0488
  846MOL0     H14144   7.848   4.910   8.375 -0.2173  0.7124  2.0313
  846MOL0     H14145   7.523   4.634   8.492 -1.5396  1.3233 -1.8252
  846MOL0     H14146   7.604   4.673   8.642  0.3403  0.1035 -0.3061
  846MOL0     H14147   7.399   4.834   8.492  0.5764 -0.3259  0.0795
  846MOL0     H14148   7.455   4.889   8.651 -1.5426  0.9668  0.1512
  846MOL0     H14149   7.354   4.740   8.777  0.9600  3.3814 -0.4282
  846MOL0     H14150   7.345   4.617   8.648 -0.2471  0.1298  0.4391
  846MOL0     H14151   7.180   4.879   8.669 -3.0467  0.4543 -2.9151
  846MOL0     H14152   7.171   4.761   8.540 -1.2128  1.1612  0.3548
  846MOL0     H14153   7.088   4.577   8.663 -7.3362  0.2726  0.0476
  846MOL0     H14154   7.130   4.666   8.821  0.0361  1.9273  0.8433
  846MOL0     H14155   6.949   4.829   8.745  2.1963 -0.2268 -2.0625
  846MOL0     H14156   6.932   4.728   8.604  0.1723 -0.9594 -0.9353
  846MOL0     H14157   6.875   4.536   8.742 -0.2389  0.7741 -1.3425
  846MOL0     H14158   6.758   4.659   8.766 -0.9534 -1.6477  2.6319
  846MOL0     H14159   6.958   4.597   8.985  0.5751  1.1378  0.8523
  846MOL0     H14160   6.883   4.750   8.973  0.5043 -0.7668  3.8073
  846MOL0     H14161   6.751   4.383   8.922  1.8927  0.0891  1.5160
  846MOL0     H14162   6.382   4.404   9.072  0.5536  2.2815 -0.4349
  846MOL0     H14163   6.423   4.343   8.913  0.5062 -0.1970 -0.7396
  846MOL0     H14164   6.587   4.171   9.010 -2.4296 -1.2724 -2.0376
  846MOL0     H14165   6.555   4.251   9.173 -0.9111  1.9955 -0.8320
  846MOL0     H14166   6.335   4.120   9.009  4.1406 -0.6273 -1.0340
  846MOL0     H14167   6.332   4.173   9.184  0.1976  0.5770  1.2879
  846MOL0     H14168   6.475   3.926   9.062 -2.1388 -3.0118 -0.0076
  846MOL0     H14169   6.328   3.927   9.141  2.0295 -3.1952 -1.7247
  846MOL0     H14170   6.689   4.118   9.327 -0.7564 -0.4359  2.8786
  846MOL0     H14171   6.950   4.035   9.331  0.2770 -1.0336  0.5384
  846MOL0     H14172   7.192   3.603   9.381 -1.2781  0.6727  0.6045
  846MOL0     H14173   7.413   3.521   9.415 -5.0350 -0.2881  0.1159
  846MOL0     H14174   7.651   3.495   9.472 -3.4152 -0.8717 -0.4623
  846MOL0     H14175   7.597   3.464   9.303  0.1249 -0.1305  0.4313
  846MOL0     H14176   7.828   3.384   9.297  0.0896  0.2086 -1.5472
  846MOL0     H14177   7.826   3.544   9.224  1.4854 -0.2788  0.6090
  846MOL0     H14178   7.954   3.643   9.367  1.3544  0.7311  1.1439
  846MOL0     H14179   7.874   3.577   9.505 -1.2630 -0.6211 -1.0591
  846MOL0     H14180   8.009   3.340   9.473  2.3985 -1.8614  0.3936
  846MOL0     H14181   8.097   3.482   9.527  0.6308  1.2046 -1.3731
  846MOL0     H14182   8.186   3.521   9.296 -1.6379  1.3727 -0.1109
  846MOL0     H14183   8.063   3.415   9.226 -0.5023 -0.1410  0.7594
  846MOL0     H14184   8.236   3.296   9.426 -0.6457  0.0395  0.0223
  846MOL0     H14185   8.145   3.219   9.293 -0.8495 -0.5851  0.7586
  846MOL0     H14186   8.410   3.356   9.253  0.2532 -1.0017  0.4036
  846MOL0     H14187   8.288   3.319   9.126 -3.3747 -0.6329  0.8745
  846MOL0     H14188   8.289   3.095   9.177  0.9529 -0.4895  2.7972
  846MOL0     H14189   8.453   3.139   9.118  1.1359 -0.4137  0.9097
  846MOL0     H14190   7.588   3.902   9.285  1.0940  0.7576  0.9358
  846MOL0     H14191   7.340   3.983   9.282 -0.3765 -0.5605 -2.3284
  846MOL0     H14192   6.808   3.667   9.181  0.9508  0.5662  0.7965
  846MOL0     H14193   6.574   3.751   9.181 -0.3494  0.1239  0.9845
  846MOL0     H14194   7.758   4.533   8.547  0.4708  0.9389  0.1765
  846MOL0     H14195   7.981   4.466   8.508  1.5241  0.6238  1.6623
  846MOL0     H14196   8.368   4.630   8.248 -0.4646  0.3133  2.4333
  846MOL0     H14197   8.550   4.549   8.099 -3.5139 -1.0263 -1.4948
  846MOL0     H14198   8.749   4.195   8.247  1.5075  0.9299 -0.2719
  846MOL0     H14199   8.866   4.292   8.165 -0.4451  0.4922 -2.1419
  846MOL0     H14200   8.793   4.166   7.936  1.4236 -0.6695  0.0863
  846MOL0     H14201   8.671   4.086   8.042  0.3105 -0.8376  3.4442
  846MOL0     H14202   8.830   3.919   8.011  2.0926  0.0215 -0.1936
  846MOL0     H14203   8.838   3.985   8.177 -0.4803  4.0795  1.4507
  846MOL0     H14204   9.034   3.930   8.004 -0.5713  0.4470 -1.8302
  846MOL0     H14205   9.017   4.107   7.957  1.3502  0.3469  0.9724
  846MOL0     H14206   9.182   4.159   8.330 -2.5351  2.0544  0.1626
  846MOL0     H14207   8.538   4.160   8.279 -3.2577 -1.5669 -1.2758
  846MOL0     H14208   8.311   4.231   8.534  0.0781  1.0911 -0.0559
  846MOL0     H14209   8.209   4.211   8.396 -0.7390  0.8728 -0.8284
  846MOL0     H14210   8.346   4.103   8.418 -0.3736 -0.2697 -1.4106
  847MOL0     O14211   3.917   2.982   8.730  0.4846  0.8577 -0.3512
  847MOL0     C14212   3.952   3.028   8.834  0.1681 -0.0250 -1.3706
  847MOL0     O14213   3.997   3.158   8.859 -0.6325 -0.2795  0.0274
  847MOL0     C14214   4.011   3.230   8.750  0.0046 -0.4107  0.1317
  847MOL0     C14215   4.137   3.222   8.694  0.3573 -0.0023 -0.1558
  847MOL0     C14216   4.163   3.298   8.579 -0.8490 -0.2880  0.0507
  847MOL0     C14217   4.068   3.375   8.516  0.0381 -0.5350 -0.0167
  847MOL0     O14218   4.109   3.436   8.403 -0.0876 -0.0413  0.9525
  847MOL0     C14219   4.015   3.536   8.351  0.4456  0.8984  0.0578
  847MOL0     C14220   4.069   3.598   8.220 -0.6119 -0.0638 -0.7813
  847MOL0     C14221   4.212   3.639   8.239  0.1512  0.1630  0.4735
  847MOL0     C14222   4.235   3.766   8.146  0.7343  0.8679  0.8118
  847MOL0     C14223   4.376   3.810   8.135  0.0373  0.1421 -0.1396
  847MOL0     C14224   4.468   3.721   8.055 -1.1700 -0.2217 -0.6943
  847MOL0     C14225   4.604   3.796   8.063 -1.8823 -0.3784  0.5769
  847MOL0     C14226   4.712   3.739   7.978 -0.9159  0.3003 -0.1208
  847MOL0     N14227   4.852   3.764   8.021  0.9932 -0.4591 -0.3720
  847MOL0     C14228   4.941   3.665   8.013 -0.4526 -0.4257 -0.1040
  847MOL0     C14229   5.051   3.727   8.060  0.8743  0.4875  0.2996
  847MOL0     C14230   5.186   3.659   8.083 -0.0664  0.1416  0.5297
  847MOL0     C14231   5.268   3.677   7.950  0.2071 -0.3686 -0.5569
  847MOL0     C14232   5.313   3.820   7.944  0.2539 -0.2142 -0.4264
  847MOL0     C14233   5.422   3.837   7.847 -0.4065  1.1429 -0.1546
  847MOL0     O14234   5.539   3.761   7.900 -0.1535 -0.4295 -0.4363
  847MOL0     C14235   5.647   3.734   7.819  0.1752  0.0287  0.1866
  847MOL0     C14236   5.763   3.682   7.882 -0.2582 -0.1689  0.0694
  847MOL0     C14237   5.888   3.681   7.823  0.8924 -0.4567  0.0678
  847MOL0     C14238   5.893   3.727   7.686 -0.1169 -0.4172 -0.2629
  847MOL0     C14239   6.025   3.724   7.620 -0.4500  0.0030  0.0662
  847MOL0     O14240   6.025   3.738   7.489  0.0829  0.4081 -0.4165
  847MOL0     C14241   6.145   3.736   7.420 -0.1229  0.7420 -0.0074
  847MOL0     C14242   6.278   3.775   7.465  0.6981  0.6957 -0.4561
  847MOL0     C14243   6.383   3.748   7.383 -0.7348 -0.2933 -0.0197
  847MOL0     C14244   6.369   3.705   7.259  1.2072 -0.3821  1.2623
  847MOL0     O14245   6.490   3.707   7.193 -0.0211 -0.4548 -0.9243
  847MOL0     C14246   6.491   3.788   7.074 -1.1185 -0.0647 -0.3894
  847MOL0     C14247   6.639   3.838   7.063 -0.0859 -0.5193 -0.4657
  847MOL0     C14248   6.749   3.732   7.061  0.1110  0.2431 -0.1247
  847MOL0     C14249   6.880   3.799   7.035 -0.7506 -0.2803  0.3932
  847MOL0     C14250   7.005   3.711   7.076 -0.7658  0.0218  0.3509
  847MOL0     C14251   7.144   3.781   7.033  0.0158 -0.2060 -0.4024
  847MOL0     C14252   7.256   3.693   7.082 -0.1569  0.6586 -0.3538
  847MOL0     C14253   7.371   3.710   6.980  1.0004 -0.1340 -0.8392
  847MOL0    Cl14254   7.399   3.886   6.928 -0.2103  0.0265  0.4868
  847MOL0     C14255   6.240   3.678   7.208  0.2575 -0.0355 -0.5062
  847MOL0     C14256   6.129   3.697   7.287 -0.1684 -0.5618 -0.3675
  847MOL0     O14257   6.127   3.699   7.690  0.3455 -0.6261 -0.3545
  847MOL0     C14258   5.779   3.765   7.608  0.0510  0.2060 -0.1889
  847MOL0     C14259   5.657   3.773   7.685 -0.0844 -0.8779  0.0612
  847MOL0     N14260   5.024   3.861   8.094  0.4937  0.0096  0.4441
  847MOL0     N14261   4.897   3.887   8.063  0.4821 -0.4497  0.4184
  847MOL0     C14262   3.936   3.376   8.570 -0.7894 -0.0731 -0.2234
  847MOL0     C14263   3.916   3.316   8.697  0.6089  0.1274 -0.8952
  847MOL0     C14264   3.931   2.953   8.957  1.2480 -0.3085 -0.2601
  847MOL0     C14265   3.816   2.882   8.975  0.0981 -0.2151 -0.0201
  847MOL0     C14266   3.786   2.830   9.100  0.1530  0.0757  1.1058
  847MOL0     C14267   3.880   2.831   9.203  0.5171  0.0444  0.5560
  847MOL0     O14268   3.867   2.757   9.317  0.0968 -0.1011  0.2126
  847MOL0     C14269   3.763   2.658   9.327  0.4323 -0.1097 -0.8794
  847MOL0     C14270   3.798   2.540   9.234 -0.2479  0.1388 -0.7078
  847MOL0     C14271   3.921   2.471   9.283  0.0079  0.0262 -0.0023
  847MOL0     C14272   3.952   2.325   9.255  1.1951  0.5656  0.6371
  847MOL0     C14273   3.846   2.240   9.296  1.0581  0.2726  0.2521
  847MOL0     C14274   3.754   2.174   9.341  0.1475  1.1592  0.4442
  847MOL0     C14275   4.003   2.888   9.188  0.7050 -0.0513  0.4803
  847MOL0     C14276   4.030   2.941   9.060 -1.3329 -0.4678  0.0618
  847MOL0     C14277   4.175   2.981   9.034 -0.1938 -0.2058  0.0988
  847MOL0     H14278   4.214   3.156   8.734  0.9976  1.7767  1.6767
  847MOL0     H14279   4.261   3.306   8.533 -2.7328  1.3016 -4.1648
  847MOL0     H14280   3.919   3.493   8.320  0.3983 -0.6971  2.1953
  847MOL0     H14281   4.003   3.614   8.426  4.2202  2.8154 -1.0827
  847MOL0     H14282   4.006   3.686   8.205 -1.7974 -0.8118 -0.3405
  847MOL0     H14283   4.051   3.536   8.131  1.8684 -1.2086 -0.5710
  847MOL0     H14284   4.288   3.562   8.221  1.7539  1.5799  0.8901
  847MOL0     H14285   4.224   3.669   8.343  1.5248 -0.7682  0.6003
  847MOL0     H14286   4.191   3.727   8.054 -1.1552 -2.4075  2.9184
  847MOL0     H14287   4.172   3.851   8.175 -2.1575 -1.3463  1.4131
  847MOL0     H14288   4.379   3.914   8.103 -0.8993 -0.8299 -3.7651
  847MOL0     H14289   4.418   3.805   8.236  0.5336 -2.3931 -0.4042
  847MOL0     H14290   4.486   3.624   8.101  0.7010  1.0556  1.4783
  847MOL0     H14291   4.428   3.706   7.954  0.8065  1.5846 -1.8384
  847MOL0     H14292   4.634   3.798   8.168 -0.6280 -4.2496  0.4300
  847MOL0     H14293   4.588   3.895   8.018  0.9353  0.7603  1.8364
  847MOL0     H14294   4.711   3.630   7.986  1.6703 -0.0195 -2.5031
  847MOL0     H14295   4.693   3.768   7.874  0.7019 -0.8923 -0.7821
  847MOL0     H14296   4.922   3.560   7.991 -1.4392 -0.7477  2.0220
  847MOL0     H14297   5.228   3.696   8.177  0.2276 -4.2088  2.3089
  847MOL0     H14298   5.168   3.553   8.102 -0.7456  0.0464 -0.5756
  847MOL0     H14299   5.357   3.613   7.949  0.7667  0.3931 -0.5715
  847MOL0     H14300   5.205   3.650   7.865 -1.7778  0.2246  0.6467
  847MOL0     H14301   5.357   3.846   8.040  0.3657  2.2276 -1.0757
  847MOL0     H14302   5.226   3.885   7.928 -0.5885 -1.3407 -0.6231
  847MOL0     H14303   5.459   3.939   7.852  2.1220  0.3804 -1.5574
  847MOL0     H14304   5.390   3.807   7.747 -1.1021  1.2597  0.0289
  847MOL0     H14305   5.758   3.657   7.988  1.1859  0.6917  0.3781
  847MOL0     H14306   5.971   3.655   7.888  0.5401 -0.0420  0.7001
  847MOL0     H14307   6.306   3.797   7.568  0.5704 -2.2587  0.3049
  847MOL0     H14308   6.481   3.778   7.418 -1.7250  1.4540  1.4457
  847MOL0     H14309   6.478   3.722   6.987 -2.0211  2.6926 -2.5034
  847MOL0     H14310   6.419   3.869   7.078 -1.7037 -0.6220  1.9852
  847MOL0     H14311   6.650   3.896   6.971 -0.7124 -2.9391 -2.1426
  847MOL0     H14312   6.653   3.893   7.157 -0.0487 -0.5002 -0.4829
  847MOL0     H14313   6.762   3.686   7.160 -0.0435 -1.6298 -0.9300
  847MOL0     H14314   6.734   3.645   6.997  2.4978  0.4349 -1.0749
  847MOL0     H14315   6.898   3.898   7.077  1.8529 -1.1464  1.4980
  847MOL0     H14316   6.886   3.804   6.926  0.1084  0.6998  0.4737
  847MOL0     H14317   7.000   3.617   7.020 -1.0840  0.2816 -0.0636
  847MOL0     H14318   7.005   3.689   7.183 -1.4203  4.5502  1.5203
  847MOL0     H14319   7.147   3.793   6.924 -1.6544  0.8575 -0.3643
  847MOL0     H14320   7.138   3.885   7.066 -1.8373 -0.1832 -0.7081
  847MOL0     H14321   7.234   3.586   7.073 -0.9888  1.0151 -4.1744
  847MOL0     H14322   7.299   3.717   7.180  1.4808 -3.7533  0.2538
  847MOL0     H14323   7.461   3.661   7.018  1.2195  1.2115  0.4833
  847MOL0     H14324   7.339   3.667   6.884 -2.0094  0.3163 -0.1275
  847MOL0     H14325   6.240   3.649   7.103  1.6102 -2.4775  0.0929
  847MOL0     H14326   6.025   3.696   7.255 -0.3315 -0.2813  0.1505
  847MOL0     H14327   5.780   3.801   7.506  3.4536 -0.9691 -0.6919
  847MOL0     H14328   5.579   3.832   7.638  1.7072  1.9800  0.3965
  847MOL0     H14329   3.855   3.436   8.531 -1.4802 -1.4126 -0.9238
  847MOL0     H14330   3.821   3.324   8.749  1.8317 -0.6376  1.6087
  847MOL0     H14331   3.753   2.880   8.887  2.8951  0.3547 -2.2117
  847MOL0     H14332   3.691   2.781   9.118  0.7763 -0.7607  2.1879
  847MOL0     H14333   3.661   2.689   9.301  0.8702 -0.2965 -2.9846
  847MOL0     H14334   3.772   2.622   9.430 -0.2859 -0.5509 -0.9694
  847MOL0     H14335   3.799   2.559   9.126 -0.1463 -2.1287 -1.1470
  847MOL0     H14336   3.718   2.469   9.257  0.5884  0.2274  3.0149
  847MOL0     H14337   3.915   2.484   9.392 -1.2167  1.8022 -0.2331
  847MOL0     H14338   4.011   2.522   9.247 -1.0869  1.0534 -1.4084
  847MOL0     H14339   3.974   2.299   9.151  0.4437 -1.1488  0.8689
  847MOL0     H14340   4.038   2.311   9.321  0.2896 -2.0484  1.3707
  847MOL0     H14341   3.674   2.108   9.363  1.6032 -1.0138 -0.4582
  847MOL0     H14342   4.073   2.882   9.270  1.6249 -3.2968 -0.3869
  847MOL0     H14343   4.169   3.091   9.033  0.5274 -0.1361 -1.9612
  847MOL0     H14344   4.254   2.954   9.104 -1.4951  1.8138  2.5022
  847MOL0     H14345   4.200   2.949   8.932 -2.4219 -1.3128 -0.1614
  848MOL0     O14346   8.167   8.146   9.003 -0.8153 -0.0171 -0.0376
  848MOL0     C14347   8.230   8.252   9.003 -0.4848 -0.8959 -0.9719
  848MOL0     O14348   8.174   8.380   9.003 -0.0937  0.1191  0.0711
  848MOL0     C14349   8.046   8.393   9.044  0.3682 -0.4505  0.3577
  848MOL0     C14350   7.964   8.476   8.966  0.3368 -1.1638  0.3580
  848MOL0     C14351   7.826   8.508   9.001 -0.5118 -0.3203  0.8558
  848MOL0     C14352   7.769   8.442   9.110  0.5126 -0.0736 -1.5393
  848MOL0     O14353   7.635   8.473   9.156 -0.2821  0.4245 -0.8253
  848MOL0     C14354   7.537   8.399   9.086  0.6667 -0.4858 -0.1598
  848MOL0     C14355   7.401   8.463   9.117  0.3537 -0.8956  0.2881
  848MOL0     C14356   7.360   8.490   9.259 -0.4365  0.5097 -0.5617
  848MOL0     C14357   7.224   8.561   9.266  0.2546 -1.1274 -0.2865
  848MOL0     C14358   7.198   8.618   9.403 -0.0665 -1.1611 -1.0978
  848MOL0     C14359   7.071   8.701   9.404  0.3245  0.8127 -1.3978
  848MOL0     C14360   7.040   8.744   9.549 -0.3182 -0.0750  1.0830
  848MOL0     C14361   6.897   8.808   9.551 -0.2473 -0.6586 -0.3642
  848MOL0     N14362   6.861   8.833   9.694 -0.2837 -0.3786  1.0272
  848MOL0     C14363   6.916   8.944   9.766  0.0956  0.3511  0.5539
  848MOL0     C14364   6.854   8.948   9.879  0.6125  0.1892  0.7061
  848MOL0     C14365   6.873   9.053   9.987  0.4087 -0.1125 -0.0148
  848MOL0     C14366   6.832   9.195   9.950  0.2266 -0.3102 -0.5572
  848MOL0     C14367   6.685   9.207   9.936  1.0759  0.2813  1.0328
  848MOL0     C14368   6.638   9.350   9.898  0.2170 -0.4954 -0.3158
  848MOL0     O14369   6.507   9.377   9.946  0.0734  0.4784 -0.3466
  848MOL0     C14370   6.464   9.495   9.897  0.0632 -0.7995  0.4546
  848MOL0     C14371   6.320   9.500   9.886 -0.6066 -0.0011 -0.0457
  848MOL0     C14372   6.245   9.613   9.854 -0.1342  0.5349  0.5051
  848MOL0     C14373   6.315   9.726   9.813  0.4215 -0.1473  0.0887
  848MOL0     C14374   6.243   9.836   9.755  0.4567 -0.0708 -0.7686
  848MOL0     O14375   6.312   9.958   9.754  0.0961 -0.5963 -0.2081
  848MOL0     C14376   6.262  10.062   9.680 -0.9542  0.5020  0.4469
  848MOL0     C14377   6.355  10.136   9.599  0.5100  0.9213  0.1727
  848MOL0     C14378   6.309  10.233   9.522 -0.4184 -1.0641  0.0267
  848MOL0     C14379   6.172  10.269   9.514 -0.3224 -0.1512 -0.0626
  848MOL0     O14380   6.135  10.368   9.421 -0.2039 -0.0269 -0.7942
  848MOL0     C14381   5.992  10.396   9.414  0.7751 -0.2697 -0.9616
  848MOL0     C14382   5.926  10.296   9.311 -0.0588  0.0549 -0.2257
  848MOL0     C14383   5.772  10.307   9.314 -0.1037 -0.2805 -0.2689
  848MOL0     C14384   5.700  10.209   9.217 -0.4362  0.0491  0.1031
  848MOL0     C14385   5.555  10.223   9.205  0.0714 -0.4304  0.6160
  848MOL0     C14386   5.505  10.105   9.132 -0.0978 -0.3619 -0.0882
  848MOL0     C14387   5.344  10.092   9.121 -0.1853  0.0395 -0.5897
  848MOL0     C14388   5.278  10.008   9.012 -0.3184  0.0978  0.5378
  848MOL0    Cl14389   5.313  10.065   8.852  0.2625  0.1278  0.1833
  848MOL0     C14390   6.077  10.207   9.597 -0.2089  0.0890  0.3193
  848MOL0     C14391   6.129  10.106   9.676  0.2757  0.3681 -0.1489
  848MOL0     O14392   6.124   9.818   9.711 -0.1090  0.0511 -0.2882
  848MOL0     C14393   6.456   9.724   9.812 -1.1016 -1.1429  0.5397
  848MOL0     C14394   6.536   9.615   9.852 -0.0477  0.6066  0.0624
  848MOL0     N14395   6.765   8.839   9.885 -0.4031 -0.4799 -0.0951
  848MOL0     N14396   6.763   8.781   9.767  0.2068  0.1154  0.4505
  848MOL0     C14397   7.856   8.363   9.186 -0.1915  0.5019  0.0831
  848MOL0     C14398   7.985   8.326   9.159  0.1658  0.3278  0.1345
  848MOL0     C14399   8.378   8.254   8.997 -0.1433  0.1793  0.1816
  848MOL0     C14400   8.444   8.208   8.880 -0.0936  0.4076  0.8848
  848MOL0     C14401   8.583   8.198   8.875 -0.2844  0.0993 -0.1466
  848MOL0     C14402   8.656   8.230   8.989 -0.1028 -0.4158  0.1613
  848MOL0     O14403   8.796   8.230   8.996  0.6525  0.0924 -0.1314
  848MOL0     C14404   8.886   8.183   8.895  0.3720 -0.6098 -0.2535
  848MOL0     C14405   9.026   8.151   8.955 -0.4412 -0.7881 -0.1316
  848MOL0     C14406   9.022   8.036   9.068 -0.3301  0.1185 -0.5475
  848MOL0     C14407   9.162   7.955   9.086 -0.9852 -0.8395 -0.6206
  848MOL0     C14408   9.273   8.051   9.120  0.3479  0.5355  0.4075
  848MOL0     C14409   9.356   8.135   9.154 -0.8698  0.3227 -0.0869
  848MOL0     C14410   8.599   8.272   9.107 -0.0039  0.3728 -0.1568
  848MOL0     C14411   8.457   8.275   9.115  0.8169  0.0577  0.5445
  848MOL0     C14412   8.395   8.312   9.247  0.1332  0.5721 -0.2765
  848MOL0     H14413   8.002   8.516   8.873 -0.2574 -2.1815 -0.3455
  848MOL0     H14414   7.761   8.575   8.947  0.1899  0.6598  1.1881
  848MOL0     H14415   7.547   8.402   8.977  0.9123 -1.2557 -0.1607
  848MOL0     H14416   7.546   8.295   9.117  2.8665 -0.4048 -0.3609
  848MOL0     H14417   7.322   8.405   9.069 -2.0830  0.2351  2.6439
  848MOL0     H14418   7.405   8.565   9.078  2.5474 -1.0198  0.0921
  848MOL0     H14419   7.426   8.561   9.310 -1.3772  0.0613  1.3563
  848MOL0     H14420   7.356   8.396   9.315  0.8307  0.4598 -0.5185
  848MOL0     H14421   7.229   8.644   9.195  0.2589 -1.6270 -0.8740
  848MOL0     H14422   7.145   8.501   9.221  1.3291 -0.9986 -2.4773
  848MOL0     H14423   7.192   8.543   9.482  1.4985  1.4909  1.7728
  848MOL0     H14424   7.285   8.682   9.421 -0.4039 -0.6275 -1.3118
  848MOL0     H14425   7.061   8.781   9.330  0.4431  0.8521 -1.3712
  848MOL0     H14426   6.993   8.629   9.377 -1.7446  2.1091  0.7653
  848MOL0     H14427   7.120   8.812   9.580  0.9349 -0.7707 -0.5057
  848MOL0     H14428   7.033   8.660   9.619  1.2208 -3.2161 -2.2017
  848MOL0     H14429   6.890   8.906   9.503  0.4982  0.4363  1.6208
  848MOL0     H14430   6.826   8.735   9.512 -0.2379 -0.9306  0.1205
  848MOL0     H14431   6.992   9.010   9.728 -1.6505  2.4117  0.4671
  848MOL0     H14432   6.815   9.033  10.078 -1.3731  2.9926 -0.3333
  848MOL0     H14433   6.981   9.057   9.996  0.4136  2.5403 -0.4813
  848MOL0     H14434   6.864   9.251  10.038 -0.8041 -1.7396  0.8077
  848MOL0     H14435   6.892   9.241   9.872 -0.8150  3.3704  0.6291
  848MOL0     H14436   6.647   9.185  10.037 -0.3648  0.1709  0.4912
  848MOL0     H14437   6.627   9.140   9.872  2.5736  0.6989 -0.8361
  848MOL0     H14438   6.627   9.352   9.789  2.7285 -2.6482 -0.7041
  848MOL0     H14439   6.718   9.411   9.939 -0.0152 -2.3358  3.3023
  848MOL0     H14440   6.276   9.404   9.914  0.8433 -1.1039 -1.3610
  848MOL0     H14441   6.137   9.603   9.845 -0.1747  0.3334  1.1852
  848MOL0     H14442   6.460  10.110   9.609 -0.4036 -2.5870  2.6221
  848MOL0     H14443   6.372  10.294   9.457 -1.1233  0.8897  1.0942
  848MOL0     H14444   5.936  10.396   9.508 -0.5933  1.2357 -1.7190
  848MOL0     H14445   5.977  10.499   9.379 -3.2924 -0.8311 -1.3546
  848MOL0     H14446   5.967  10.304   9.210  1.5429 -0.9043  0.3124
  848MOL0     H14447   5.951  10.193   9.338 -3.2513 -0.5000  0.9879
  848MOL0     H14448   5.724  10.284   9.410 -1.6574 -0.7540 -1.1177
  848MOL0     H14449   5.742  10.412   9.302  0.4865 -0.2580 -1.6858
  848MOL0     H14450   5.724  10.105   9.243  0.8195 -0.4141 -2.5310
  848MOL0     H14451   5.745  10.226   9.119 -0.3122 -1.7416 -0.1958
  848MOL0     H14452   5.539  10.319   9.155  0.7213 -0.6935 -0.1211
  848MOL0     H14453   5.502  10.219   9.300 -0.4936 -2.5395  0.2408
  848MOL0     H14454   5.550  10.098   9.033 -2.8154  1.1308 -1.5373
  848MOL0     H14455   5.533  10.017   9.191  2.9206 -0.5690 -1.6117
  848MOL0     H14456   5.300  10.191   9.107 -1.6076 -0.4641  0.2159
  848MOL0     H14457   5.307  10.058   9.218  2.4373  0.0233  0.4936
  848MOL0     H14458   5.310   9.903   9.019  2.7321  0.8071 -0.9506
  848MOL0     H14459   5.169  10.017   9.020 -0.3157  2.4318 -1.0533
  848MOL0     H14460   5.971  10.225   9.609 -0.0201  0.5084  1.5210
  848MOL0     H14461   6.053  10.063   9.739  1.2352  2.4232  2.6011
  848MOL0     H14462   6.505   9.808   9.763 -2.9762  1.0982  2.2919
  848MOL0     H14463   6.644   9.620   9.849 -0.0053 -0.2644 -0.1415
  848MOL0     H14464   7.814   8.321   9.277 -0.4044  1.4287  0.4264
  848MOL0     H14465   8.042   8.263   9.227 -1.2545 -0.7746  0.3659
  848MOL0     H14466   8.385   8.197   8.790 -1.2953  1.1440  1.5523
  848MOL0     H14467   8.632   8.166   8.784  1.6807 -0.5040  1.0701
  848MOL0     H14468   8.904   8.264   8.823 -1.5223  0.7667  0.7278
  848MOL0     H14469   8.850   8.096   8.840 -2.2425 -0.9297  1.7856
  848MOL0     H14470   9.063   8.240   9.007 -0.6561 -1.5920  1.4796
  848MOL0     H14471   9.101   8.142   8.877 -0.2321  0.9543 -0.1769
  848MOL0     H14472   8.940   7.970   9.039 -1.6113  2.4048 -2.4523
  848MOL0     H14473   9.000   8.082   9.165  0.2934 -0.2423 -0.2316
  848MOL0     H14474   9.162   7.890   9.175  1.1393 -1.3802 -0.9705
  848MOL0     H14475   9.191   7.892   9.001  2.3377 -1.1109  0.5688
  848MOL0     H14476   9.433   8.207   9.173  2.5213 -2.8226 -0.8693
  848MOL0     H14477   8.661   8.299   9.191 -1.7117  3.4429  0.2506
  848MOL0     H14478   8.396   8.421   9.246  2.0108  0.5917 -1.5416
  848MOL0     H14479   8.294   8.272   9.253  0.9024 -1.6241 -0.8826
  848MOL0     H14480   8.452   8.265   9.328 -2.7122 -2.8635 -0.0092
  849MOL0     O14481   7.188   9.874   7.712  0.2008 -0.3559 -0.3465
  849MOL0     C14482   7.177   9.820   7.822 -0.2903 -0.2081  0.1708
  849MOL0     O14483   7.220   9.866   7.932  0.1589 -0.1141  0.4621
  849MOL0     C14484   7.241  10.001   7.951 -0.3188 -0.5626 -0.0406
  849MOL0     C14485   7.333  10.024   8.057 -0.1375  0.5447  0.2628
  849MOL0     C14486   7.364  10.161   8.091 -0.7368 -0.0414  1.1743
  849MOL0     C14487   7.293  10.265   8.030 -1.1208 -0.0381  0.2166
  849MOL0     O14488   7.316  10.396   8.058  0.3808 -0.5888 -0.0725
  849MOL0     C14489   7.304  10.428   8.201 -0.4727  0.6974  0.8697
  849MOL0     C14490   7.325  10.580   8.213 -0.0616 -0.0083  0.0275
  849MOL0     C14491   7.463  10.634   8.179 -0.9067 -0.2357 -0.9714
  849MOL0     C14492   7.486  10.782   8.193 -0.5682  0.5754 -1.3301
  849MOL0     C14493   7.617  10.833   8.138 -0.6602  0.0813  0.6316
  849MOL0     C14494   7.634  10.978   8.174  0.5504 -0.1342 -0.2758
  849MOL0     C14495   7.733  11.061   8.094 -0.3528 -0.5475 -0.1351
  849MOL0     C14496   7.881  11.036   8.136  0.3850 -0.4929  0.7451
  849MOL0     N14497   7.966  11.154   8.138 -0.3370 -0.4016  0.5960
  849MOL0     C14498   8.088  11.163   8.062  1.2784 -0.1652 -0.3957
  849MOL0     C14499   8.134  11.287   8.097 -0.9164  0.1557  0.0549
  849MOL0     C14500   8.254  11.350   8.038 -0.8688  0.1834  0.7426
  849MOL0     C14501   8.395  11.301   8.092 -0.4850 -0.1789 -0.0753
  849MOL0     C14502   8.493  11.296   7.980 -0.6231 -0.4657  0.1157
  849MOL0     C14503   8.632  11.324   8.037  0.1644  1.0538 -0.3847
  849MOL0     O14504   8.717  11.338   7.921 -0.8804 -0.0065  0.0081
  849MOL0     C14505   8.856  11.338   7.934 -0.7378 -0.6696 -0.8518
  849MOL0     C14506   8.929  11.424   8.014  0.3645  0.4582 -0.1602
  849MOL0     C14507   9.068  11.445   8.008  0.7115  0.5755 -0.6875
  849MOL0     C14508   9.148  11.370   7.907  0.0622 -1.0972 -0.6530
  849MOL0     C14509   9.295  11.393   7.876 -0.6210 -0.0769 -0.1695
  849MOL0     O14510   9.355  11.329   7.769  0.0163 -0.6091 -0.0211
  849MOL0     C14511   9.493  11.325   7.759  0.1408  0.5618  0.1334
  849MOL0     C14512   9.579  11.420   7.713  0.4749 -0.3425  1.2364
  849MOL0     C14513   9.707  11.394   7.667  0.1569 -0.4473  0.3736
  849MOL0     C14514   9.763  11.269   7.676  0.8269 -1.0294 -0.9879
  849MOL0     O14515   9.890  11.240   7.658 -0.0577  0.0568  0.4318
  849MOL0     C14516   9.983  11.325   7.601  0.4516  0.4261 -0.5159
  849MOL0     C14517  10.111  11.263   7.567 -0.5734  0.0590 -0.2003
  849MOL0     C14518  10.228  11.341   7.512 -0.3217 -0.7224  0.5975
  849MOL0     C14519  10.252  11.478   7.598  0.1390  0.0329 -0.2369
  849MOL0     C14520  10.358  11.572   7.537 -0.1517  0.5625 -0.1757
  849MOL0     C14521  10.501  11.518   7.567  1.0587  0.8339 -0.4694
  849MOL0     C14522  10.604  11.619   7.514  0.5817  0.4473 -0.0733
  849MOL0     C14523  10.738  11.552   7.544 -0.2670  0.2027 -0.1810
  849MOL0    Cl14524  10.795  11.573   7.710 -0.1069 -0.2605 -0.2878
  849MOL0     C14525   9.674  11.170   7.730  0.0196 -1.2125  1.2782
  849MOL0     C14526   9.544  11.196   7.770  0.2376  0.2555 -0.0102
  849MOL0     O14527   9.361  11.439   7.969  0.0021 -0.5262 -0.3669
  849MOL0     C14528   9.069  11.288   7.828  0.1751  0.1379  0.5677
  849MOL0     C14529   8.932  11.274   7.836 -1.2822  0.3111 -0.3121
  849MOL0     N14530   8.047  11.350   8.191 -0.5826  0.9910 -0.4498
  849MOL0     N14531   7.945  11.271   8.203 -0.9068  0.1150  0.1269
  849MOL0     C14532   7.190  10.240   7.947 -0.4491 -0.1303  0.1494
  849MOL0     C14533   7.167  10.109   7.899 -0.9779 -0.2961 -0.6558
  849MOL0     C14534   7.110   9.691   7.832  0.3645  0.3793  0.3145
  849MOL0     C14535   6.985   9.690   7.888  0.3317  0.4044  0.9030
  849MOL0     C14536   6.921   9.568   7.909  0.4406 -0.8714  0.8043
  849MOL0     C14537   6.982   9.451   7.871  0.0187 -0.1825 -0.0605
  849MOL0     O14538   6.929   9.330   7.897 -0.0257 -0.5043 -0.4757
  849MOL0     C14539   6.790   9.323   7.906  0.2719 -0.6359 -0.0969
  849MOL0     C14540   6.710   9.336   7.774  0.4500  0.4045  1.1531
  849MOL0     C14541   6.710   9.198   7.684 -0.1453 -0.2591 -0.1906
  849MOL0     C14542   6.654   9.224   7.542 -0.3769  0.2045 -0.6709
  849MOL0     C14543   6.625   9.103   7.466 -0.5867  0.4662  0.4533
  849MOL0     C14544   6.583   9.000   7.409  0.1542 -0.1805 -0.0416
  849MOL0     C14545   7.112   9.450   7.813  0.4808 -0.4893  0.7833
  849MOL0     C14546   7.170   9.572   7.782 -1.0694 -0.0066  0.0756
  849MOL0     C14547   7.301   9.577   7.708 -0.3062 -0.1828  0.4590
  849MOL0     H14548   7.391   9.949   8.110  1.4800  2.1694  0.8982
  849MOL0     H14549   7.448  10.176   8.159  1.0142 -2.9975 -0.1374
  849MOL0     H14550   7.201  10.412   8.233 -0.4577  2.5040  1.8851
  849MOL0     H14551   7.376  10.376   8.265  0.7334  1.8408  0.4828
  849MOL0     H14552   7.302  10.599   8.318 -0.1032 -3.2580  0.7193
  849MOL0     H14553   7.250  10.625   8.147  0.8228 -1.3735 -2.0238
  849MOL0     H14554   7.490  10.611   8.076  0.4177 -1.4740 -0.3883
  849MOL0     H14555   7.540  10.590   8.244  0.4075  3.2332  0.0644
  849MOL0     H14556   7.406  10.822   8.130 -2.6258 -2.2745 -0.6977
  849MOL0     H14557   7.462  10.811   8.296 -0.8711  0.8655 -1.4796
  849MOL0     H14558   7.707  10.793   8.185 -1.3158  0.7171  2.5005
  849MOL0     H14559   7.626  10.829   8.029  2.3919  2.2343  0.6598
  849MOL0     H14560   7.535  11.023   8.165 -0.8605 -2.8380  0.7172
  849MOL0     H14561   7.647  10.989   8.282 -1.4871 -1.9348  0.2318
  849MOL0     H14562   7.710  11.168   8.093 -2.1145 -0.8959 -0.6440
  849MOL0     H14563   7.728  11.034   7.988 -1.3364  1.6933 -0.6997
  849MOL0     H14564   7.878  11.004   8.241  1.2588 -1.0305  0.6094
  849MOL0     H14565   7.920  10.955   8.074  3.5896 -0.8297  2.9879
  849MOL0     H14566   8.135  11.093   7.994  1.5036 -1.4066  1.0128
  849MOL0     H14567   8.262  11.340   7.929  0.6863 -0.3366  0.8713
  849MOL0     H14568   8.250  11.455   8.069 -1.3892 -0.0632  1.5523
  849MOL0     H14569   8.422  11.376   8.166  2.5473  0.5543 -1.7810
  849MOL0     H14570   8.381  11.207   8.147 -0.0080  0.3403  0.9474
  849MOL0     H14571   8.473  11.369   7.902 -0.9883  0.5353  1.1173
  849MOL0     H14572   8.490  11.197   7.934  3.0899 -0.6073 -0.0832
  849MOL0     H14573   8.654  11.238   8.101  1.7032  0.7165 -1.3186
  849MOL0     H14574   8.633  11.412   8.102  0.5382  0.1647  0.8540
  849MOL0     H14575   8.885  11.493   8.085 -1.2482 -0.2693 -0.4021
  849MOL0     H14576   9.117  11.520   8.069  0.2099  1.0340 -0.8380
  849MOL0     H14577   9.532  11.517   7.700 -0.0988 -0.8280 -0.6135
  849MOL0     H14578   9.772  11.469   7.623 -0.2496  0.6218  1.5360
  849MOL0     H14579   9.956  11.381   7.510  2.5837  2.4341 -0.0114
  849MOL0     H14580  10.011  11.409   7.666  0.9602  1.0051 -1.4497
  849MOL0     H14581  10.146  11.214   7.658 -3.3506 -3.3364 -0.7290
  849MOL0     H14582  10.091  11.183   7.495  2.2701 -0.5457 -0.4466
  849MOL0     H14583  10.322  11.287   7.498  0.2507  0.4213 -0.1234
  849MOL0     H14584  10.196  11.364   7.410  1.1452 -0.3207  0.2112
  849MOL0     H14585  10.282  11.453   7.700 -1.1064  1.8092  0.6369
  849MOL0     H14586  10.161  11.539   7.606  0.4805  0.4012  1.2930
  849MOL0     H14587  10.353  11.663   7.596 -1.7035  0.5544 -0.2703
  849MOL0     H14588  10.336  11.599   7.433 -3.5019 -0.2693  0.2112
  849MOL0     H14589  10.512  11.505   7.675  3.8449  0.7221 -0.6943
  849MOL0     H14590  10.505  11.419   7.520  1.7629  1.4275 -1.6888
  849MOL0     H14591  10.604  11.714   7.568 -1.4161  0.7165 -0.4500
  849MOL0     H14592  10.596  11.633   7.405 -1.1340  1.6925  0.1721
  849MOL0     H14593  10.752  11.449   7.508  0.4430  1.4047 -3.8450
  849MOL0     H14594  10.801  11.609   7.475 -1.7092  1.6933 -0.3327
  849MOL0     H14595   9.712  11.070   7.749  2.2934 -0.3639  1.4683
  849MOL0     H14596   9.484  11.117   7.814  2.0749 -1.8665 -1.1802
  849MOL0     H14597   9.109  11.239   7.740 -1.7107  0.3586 -0.4839
  849MOL0     H14598   8.888  11.207   7.763  1.8227 -0.1946 -1.9027
  849MOL0     H14599   7.148  10.330   7.903  1.0276  0.0852 -0.9026
  849MOL0     H14600   7.101  10.092   7.814 -1.9803 -0.7668  0.1981
  849MOL0     H14601   6.946   9.782   7.931 -0.2273  1.1413 -1.0920
  849MOL0     H14602   6.835   9.573   7.975 -2.1231 -0.4277 -2.3391
  849MOL0     H14603   6.752   9.389   7.985  1.3749 -0.9869  0.7564
  849MOL0     H14604   6.750   9.226   7.938 -2.1503  0.4900  0.5298
  849MOL0     H14605   6.754   9.420   7.721 -2.5049  1.0100 -0.5869
  849MOL0     H14606   6.606   9.357   7.802  0.1126  1.0170 -0.4286
  849MOL0     H14607   6.638   9.134   7.734 -1.3998 -0.0797 -1.6794
  849MOL0     H14608   6.807   9.147   7.684 -0.3207 -0.6939  2.1780
  849MOL0     H14609   6.558   9.275   7.540 -1.4253 -1.6576 -0.4007
  849MOL0     H14610   6.727   9.284   7.487 -2.0327  2.2482 -0.7604
  849MOL0     H14611   6.541   8.921   7.351 -2.1941 -1.5223  3.1420
  849MOL0     H14612   7.147   9.357   7.770 -3.0255 -0.4052 -2.9296
  849MOL0     H14613   7.343   9.486   7.753 -1.2289  0.8457  3.6443
  849MOL0     H14614   7.286   9.569   7.600  2.5788 -1.0906  0.0245
  849MOL0     H14615   7.367   9.663   7.722  0.9220 -0.7603 -1.3510
  850MOL0     O14616   6.955   3.498   3.916  0.2692 -0.2517  0.5852
  850MOL0     C14617   7.030   3.412   3.885 -0.3685  1.0816 -0.0726
  850MOL0     O14618   6.997   3.271   3.891  0.9094  0.5149 -0.2059
  850MOL0     C14619   6.862   3.231   3.913  0.1788 -0.7392  1.1773
  850MOL0     C14620   6.849   3.103   3.960  0.5332  0.5308  0.3508
  850MOL0     C14621   6.718   3.043   3.970 -0.9427  0.8703  0.2930
  850MOL0     C14622   6.603   3.113   3.932 -1.2538 -0.9930 -1.1368
  850MOL0     O14623   6.487   3.041   3.944 -0.2434 -0.9661  0.1150
  850MOL0     C14624   6.376   3.116   3.904  1.6711  0.1996  0.1442
  850MOL0     C14625   6.246   3.052   3.950  0.1259  1.0688  0.5156
  850MOL0     C14626   6.223   3.084   4.093  0.0445 -0.2815 -0.0066
  850MOL0     C14627   6.101   3.014   4.159  0.3472 -0.5806  0.2100
  850MOL0     C14628   5.968   3.042   4.103  0.9091  0.2780 -0.2526
  850MOL0     C14629   5.853   2.935   4.138 -0.2752  0.7330  0.6009
  850MOL0     C14630   5.719   2.976   4.098 -0.3683 -0.7853  0.1295
  850MOL0     C14631   5.705   3.035   3.957 -0.8362  0.1071 -0.1094
  850MOL0     N14632   5.564   3.016   3.937 -0.4443  0.2638 -0.4342
  850MOL0     C14633   5.505   2.906   3.884  0.1398  0.2598  0.1263
  850MOL0     C14634   5.373   2.941   3.858 -1.1468 -0.1816 -0.7436
  850MOL0     C14635   5.262   2.847   3.818 -0.0311  0.4219 -0.0545
  850MOL0     C14636   5.129   2.882   3.880 -1.1333 -0.5673 -0.4779
  850MOL0     C14637   5.020   2.784   3.809  0.0363 -0.6015  0.2146
  850MOL0     C14638   5.034   2.629   3.807 -0.5089  0.3386 -0.5211
  850MOL0     O14639   5.139   2.583   3.721  0.2623 -0.0772  0.2648
  850MOL0     C14640   5.188   2.457   3.737 -0.0468 -0.2256 -0.2778
  850MOL0     C14641   5.299   2.434   3.670 -0.4257  0.2061  0.8452
  850MOL0     C14642   5.374   2.315   3.702 -0.0516 -0.5157  0.8681
  850MOL0     C14643   5.315   2.212   3.774 -0.5558 -0.1075  0.2651
  850MOL0     C14644   5.403   2.105   3.802  1.0199  0.2279  0.2352
  850MOL0     O14645   5.500   2.076   3.717 -0.4802  0.5176  0.0788
  850MOL0     C14646   5.574   1.968   3.743 -0.4833  0.0386  0.0833
  850MOL0     C14647   5.560   1.853   3.656 -0.0080 -0.5644  0.4275
  850MOL0     C14648   5.630   1.735   3.685 -0.3373 -0.6380  0.0712
  850MOL0     C14649   5.728   1.742   3.791 -0.3460 -0.3451 -0.3454
  850MOL0     O14650   5.806   1.635   3.826  0.0569 -0.4376 -0.6576
  850MOL0     C14651   5.811   1.528   3.734 -0.8160  0.7678  0.8916
  850MOL0     C14652   5.917   1.432   3.797  0.7469  0.4204  0.7394
  850MOL0     C14653   6.057   1.475   3.746  1.1151  0.6149  0.3394
  850MOL0     C14654   6.072   1.469   3.593 -0.0620 -0.3983 -0.3397
  850MOL0     C14655   6.221   1.511   3.583  0.5098 -0.1018  0.1374
  850MOL0     C14656   6.277   1.501   3.442 -0.3335  0.3883 -0.4503
  850MOL0     C14657   6.437   1.500   3.445  0.1754 -0.5685  0.2734
  850MOL0     C14658   6.494   1.485   3.299 -0.4617  0.2052  0.3779
  850MOL0    Cl14659   6.680   1.515   3.297 -0.3605 -0.1057 -0.1896
  850MOL0     C14660   5.738   1.854   3.872  0.1612 -0.8771 -0.3705
  850MOL0     C14661   5.663   1.968   3.849  0.1199  0.1637 -0.1735
  850MOL0     O14662   5.371   2.046   3.906 -1.2029  0.2065  0.1573
  850MOL0     C14663   5.188   2.235   3.841 -0.1889 -0.3656 -0.3182
  850MOL0     C14664   5.130   2.355   3.806 -0.2061  0.0297 -0.0484
  850MOL0     N14665   5.355   3.077   3.895  0.6900  0.4138  0.8845
  850MOL0     N14666   5.475   3.117   3.927 -0.0123 -0.2368 -0.1779
  850MOL0     C14667   6.622   3.241   3.870 -0.1834 -0.2262  0.4145
  850MOL0     C14668   6.750   3.299   3.859 -0.5307  0.3490  0.1871
  850MOL0     C14669   7.168   3.447   3.842  0.2406  0.6943  0.4700
  850MOL0     C14670   7.210   3.577   3.878 -0.5748 -0.2679 -0.9253
  850MOL0     C14671   7.340   3.625   3.847  0.0611  0.7918  0.4434
  850MOL0     C14672   7.431   3.547   3.774  0.6584 -0.4904 -0.0469
  850MOL0     O14673   7.552   3.602   3.752  0.1383 -0.5305  0.1882
  850MOL0     C14674   7.657   3.520   3.694 -0.7164  0.1324 -0.2372
  850MOL0     C14675   7.793   3.591   3.694 -0.7385 -0.1864 -0.2583
  850MOL0     C14676   7.810   3.701   3.590  1.1736 -0.1336  0.5219
  850MOL0     C14677   7.953   3.757   3.590  0.5864 -0.4587  0.6054
  850MOL0     C14678   7.989   3.835   3.702  0.5666 -0.1878 -0.5399
  850MOL0     C14679   8.043   3.910   3.785 -0.0909 -0.7487 -0.3637
  850MOL0     C14680   7.390   3.415   3.735 -0.2865  0.0533 -0.1400
  850MOL0     C14681   7.264   3.369   3.760  0.5161  0.5216 -0.5761
  850MOL0     C14682   7.223   3.230   3.704 -0.3106  0.3339  0.4265
  850MOL0     H14683   6.937   3.043   3.982  0.0529 -0.6362 -0.7781
  850MOL0     H14684   6.704   2.939   3.995  2.0734  0.7104  1.7972
  850MOL0     H14685   6.383   3.211   3.957 -0.0364  0.6407 -0.3650
  850MOL0     H14686   6.364   3.126   3.795  1.0967 -0.7201  0.1124
  850MOL0     H14687   6.271   2.947   3.935  2.7380  1.5565  0.8161
  850MOL0     H14688   6.164   3.086   3.887  0.1375 -0.4166 -0.3409
  850MOL0     H14689   6.200   3.191   4.100 -0.0167 -0.0539 -2.7958
  850MOL0     H14690   6.311   3.062   4.154  1.6665  2.5708 -1.1249
  850MOL0     H14691   6.113   2.906   4.152 -0.6645 -0.8185  1.6057
  850MOL0     H14692   6.097   3.042   4.265 -2.1486  2.4403 -0.5400
  850MOL0     H14693   5.932   3.142   4.128 -0.9527 -0.1388 -1.0187
  850MOL0     H14694   5.990   3.036   3.996 -1.2141  1.5266 -0.8339
  850MOL0     H14695   5.879   2.835   4.102 -0.1035  0.9184  0.2015
  850MOL0     H14696   5.845   2.923   4.246  0.6709  1.2375  0.7414
  850MOL0     H14697   5.696   3.051   4.175 -0.5453 -1.6579  0.9433
  850MOL0     H14698   5.646   2.896   4.111  1.8113 -2.8164  0.4128
  850MOL0     H14699   5.731   3.141   3.962  0.6684 -0.1451 -1.6791
  850MOL0     H14700   5.772   2.989   3.884 -1.0948 -0.5792  0.0733
  850MOL0     H14701   5.546   2.811   3.852  0.9684  0.9071 -0.7728
  850MOL0     H14702   5.251   2.843   3.710  3.5323  0.1899 -0.5015
  850MOL0     H14703   5.289   2.747   3.853  0.4010 -0.2829 -2.3041
  850MOL0     H14704   5.129   2.856   3.986 -1.1943  1.3758  0.0226
  850MOL0     H14705   5.106   2.988   3.869  1.0083  0.4514  3.1187
  850MOL0     H14706   5.001   2.816   3.706  0.1183 -0.4278  0.2535
  850MOL0     H14707   4.923   2.801   3.857 -0.5081  1.0371 -1.3663
  850MOL0     H14708   4.939   2.585   3.773 -0.0960  0.0015 -1.2461
  850MOL0     H14709   5.052   2.604   3.912 -0.4405 -1.0071 -0.8385
  850MOL0     H14710   5.335   2.526   3.624 -0.0316 -0.0795  0.5766
  850MOL0     H14711   5.474   2.316   3.660 -1.6878  1.0961 -3.6123
  850MOL0     H14712   5.498   1.856   3.566 -0.7648 -1.0019  0.9252
  850MOL0     H14713   5.621   1.640   3.634 -5.7183  0.1871 -1.0917
  850MOL0     H14714   5.719   1.470   3.729 -0.7129  0.4681  2.0928
  850MOL0     H14715   5.837   1.569   3.636 -2.0913  0.2279  0.3093
  850MOL0     H14716   5.920   1.441   3.906  1.2627  1.7392  0.6402
  850MOL0     H14717   5.882   1.334   3.765 -2.8225  1.9837 -0.7485
  850MOL0     H14718   6.068   1.579   3.776 -0.4609  1.1954 -0.9272
  850MOL0     H14719   6.134   1.413   3.792  2.9909  1.4757 -1.4585
  850MOL0     H14720   6.013   1.545   3.540 -0.4219 -1.1568 -1.0493
  850MOL0     H14721   6.041   1.369   3.560 -0.7145 -0.3168  0.0162
  850MOL0     H14722   6.278   1.436   3.638  1.1783  0.2494 -0.0666
  850MOL0     H14723   6.249   1.603   3.635 -0.3715 -0.0344  0.5232
  850MOL0     H14724   6.244   1.405   3.401  1.8381  0.5084 -2.7237
  850MOL0     H14725   6.236   1.581   3.379 -2.3730  1.8668  2.5031
  850MOL0     H14726   6.473   1.418   3.508  0.9708 -0.6772 -0.3061
  850MOL0     H14727   6.477   1.594   3.483  0.4301 -1.5984  2.7289
  850MOL0     H14728   6.463   1.387   3.261 -0.1061  0.5763 -0.9453
  850MOL0     H14729   6.453   1.551   3.222  1.8834  0.2132 -0.9683
  850MOL0     H14730   5.799   1.866   3.962 -0.1628  1.9944 -0.4145
  850MOL0     H14731   5.681   2.061   3.901  0.5182 -0.1807  0.3145
  850MOL0     H14732   5.142   2.160   3.904  0.1825  0.3845  0.8748
  850MOL0     H14733   5.036   2.383   3.851  0.6817 -0.1812  2.0614
  850MOL0     H14734   6.549   3.306   3.824  1.1400 -0.2439 -1.8027
  850MOL0     H14735   6.763   3.389   3.800 -1.5827  0.8511  0.6895
  850MOL0     H14736   7.151   3.636   3.947  0.2754 -0.0660 -0.3574
  850MOL0     H14737   7.368   3.727   3.874  1.5658  0.6825 -0.5990
  850MOL0     H14738   7.642   3.489   3.590 -0.8702  0.9265 -0.4559
  850MOL0     H14739   7.674   3.425   3.745 -1.1603 -0.8779 -1.9129
  850MOL0     H14740   7.877   3.523   3.689  2.5950  3.2994  2.1646
  850MOL0     H14741   7.798   3.633   3.795  1.1372  0.4334 -0.5803
  850MOL0     H14742   7.745   3.786   3.613  0.7928  0.6365 -2.8064
  850MOL0     H14743   7.774   3.675   3.490 -1.8845 -1.5667  1.8533
  850MOL0     H14744   8.029   3.680   3.573  0.1885 -0.6163 -0.5409
  850MOL0     H14745   7.966   3.808   3.495  0.9865 -1.5725  0.0380
  850MOL0     H14746   8.096   3.965   3.860  3.1295 -1.6321 -1.8079
  850MOL0     H14747   7.467   3.353   3.691  1.2080  0.8962  1.1807
  850MOL0     H14748   7.278   3.219   3.610 -1.4772  0.2832 -0.2828
  850MOL0     H14749   7.235   3.155   3.782 -2.8351  1.0212  1.5896
  850MOL0     H14750   7.118   3.213   3.677  0.7398 -1.7212 -3.0010
  851MOL0     O14751   4.721   4.785   5.967 -0.4208 -0.2641  0.1095
  851MOL0     C14752   4.658   4.775   6.072  0.2532 -0.6468 -0.8260
  851MOL0     O14753   4.700   4.791   6.197  0.2891  0.2218 -0.0510
  851MOL0     C14754   4.830   4.830   6.212  0.4970  0.3364 -0.7638
  851MOL0     C14755   4.941   4.760   6.168  0.2878 -0.2514  0.1501
  851MOL0     C14756   5.058   4.815   6.192  0.3969 -0.1780 -0.0583
  851MOL0     C14757   5.082   4.931   6.272 -0.1451 -0.0248  0.2724
  851MOL0     O14758   5.207   4.996   6.283  0.2590  0.2656 -0.5144
  851MOL0     C14759   5.243   5.072   6.400 -0.1283  0.3313  0.2380
  851MOL0     C14760   5.345   5.176   6.349 -0.5619 -0.5644 -0.1522
  851MOL0     C14761   5.484   5.114   6.326 -0.5918 -0.3287 -0.3276
  851MOL0     C14762   5.579   5.209   6.251 -0.1428  0.9708 -0.2104
  851MOL0     C14763   5.710   5.137   6.222 -0.4772  0.6583 -0.5782
  851MOL0     C14764   5.806   5.120   6.343 -0.3834  0.1144 -0.1189
  851MOL0     C14765   5.928   5.026   6.332 -0.4206  0.5046  0.4216
  851MOL0     C14766   5.893   4.876   6.316  0.2474  0.4427  0.2768
  851MOL0     N14767   5.804   4.818   6.418 -0.6470  0.6476 -0.4844
  851MOL0     C14768   5.678   4.781   6.413 -0.3174  1.0328 -0.4781
  851MOL0     C14769   5.635   4.771   6.539 -0.0563  0.4786  0.0542
  851MOL0     C14770   5.498   4.759   6.595  0.0136  0.1542  0.7526
  851MOL0     C14771   5.494   4.672   6.720 -0.6107  0.2118 -0.0299
  851MOL0     C14772   5.367   4.666   6.796 -0.1421  1.5695 -0.4117
  851MOL0     C14773   5.244   4.651   6.709 -0.5100 -0.3349 -1.5292
  851MOL0     O14774   5.146   4.589   6.795  0.0855 -0.4836  0.1853
  851MOL0     C14775   5.017   4.609   6.747  0.5491 -1.0221 -0.2977
  851MOL0     C14776   4.913   4.542   6.819  0.0227  0.5277  0.0468
  851MOL0     C14777   4.777   4.539   6.775 -0.5615  0.3045  0.5842
  851MOL0     C14778   4.741   4.607   6.659 -0.8397 -0.1140  0.0894
  851MOL0     C14779   4.606   4.620   6.628  0.5034  0.1259  0.8530
  851MOL0     O14780   4.581   4.644   6.496 -0.6819 -0.2988 -0.6923
  851MOL0     C14781   4.453   4.640   6.464  1.1682 -0.0954 -0.2849
  851MOL0     C14782   4.383   4.757   6.466 -0.5505  0.6204  0.3101
  851MOL0     C14783   4.247   4.770   6.422  0.8771  0.5075  0.6296
  851MOL0     C14784   4.176   4.652   6.386 -1.0754  0.1307 -0.4784
  851MOL0     O14785   4.044   4.632   6.359 -0.2206 -0.3264 -0.3964
  851MOL0     C14786   3.958   4.750   6.359  0.2394  0.0253 -0.1707
  851MOL0     C14787   3.802   4.724   6.391  0.7348 -0.2127 -0.5219
  851MOL0     C14788   3.728   4.853   6.414  0.2383  0.0850  0.0153
  851MOL0     C14789   3.583   4.828   6.368  0.3438  0.4116  0.0458
  851MOL0     C14790   3.490   4.947   6.394  0.3394 -0.3510 -0.1811
  851MOL0     C14791   3.342   4.927   6.375 -0.8308 -0.0083 -0.1176
  851MOL0     C14792   3.300   4.913   6.233  0.2318 -0.8284 -0.9202
  851MOL0     C14793   3.149   4.895   6.227 -0.4214 -0.0384 -0.7340
  851MOL0    Cl14794   3.058   5.038   6.274 -0.0889  0.2973  0.3003
  851MOL0     C14795   4.247   4.528   6.393  0.3841 -0.3002  0.0490
  851MOL0     C14796   4.384   4.519   6.436  0.2559  0.5136 -0.9162
  851MOL0     O14797   4.521   4.613   6.714  0.5698 -0.2305 -0.1710
  851MOL0     C14798   4.844   4.674   6.585  0.0248  1.3427 -0.0753
  851MOL0     C14799   4.979   4.679   6.632  0.1094  0.5539  0.1037
  851MOL0     N14800   5.742   4.801   6.623  0.0430 -0.3058  0.3234
  851MOL0     N14801   5.845   4.825   6.546 -0.0378 -0.0925 -0.4582
  851MOL0     C14802   4.968   4.982   6.331 -0.2642 -1.1295  0.3562
  851MOL0     C14803   4.845   4.939   6.303 -0.1414  0.1706  0.0156
  851MOL0     C14804   4.512   4.750   6.063  0.3821 -0.0839  0.8608
  851MOL0     C14805   4.425   4.828   6.140 -0.9057 -0.1737  0.5623
  851MOL0     C14806   4.289   4.836   6.115  0.1552 -0.0436 -1.4663
  851MOL0     C14807   4.238   4.769   6.006  0.2542  0.8230  0.4707
  851MOL0     O14808   4.102   4.774   5.984 -0.3638  0.3123 -0.8791
  851MOL0     C14809   4.029   4.656   6.004  0.4638  0.1216  0.0716
  851MOL0     C14810   3.876   4.693   5.985 -0.3160  0.4842  0.2359
  851MOL0     C14811   3.852   4.776   5.865  1.0024 -0.6529 -0.0684
  851MOL0     C14812   3.713   4.831   5.847  0.4029  0.2964  0.8128
  851MOL0     C14813   3.672   4.922   5.955 -1.0370 -0.4170 -0.4044
  851MOL0     C14814   3.620   4.988   6.039 -0.7608 -0.3722  0.2955
  851MOL0     C14815   4.322   4.688   5.928  0.4298 -0.0479 -0.0203
  851MOL0     C14816   4.454   4.676   5.961 -0.0111  0.1699  0.2777
  851MOL0     C14817   4.533   4.584   5.877 -0.0854 -0.2176  0.3513
  851MOL0     H14818   4.931   4.666   6.114 -2.6050 -0.4107  0.8046
  851MOL0     H14819   5.154   4.776   6.159  0.2281 -1.0367  0.4382
  851MOL0     H14820   5.163   5.122   6.454 -1.0108  0.4735 -1.1344
  851MOL0     H14821   5.292   5.008   6.474 -2.1702  1.8173  3.0435
  851MOL0     H14822   5.352   5.247   6.432 -1.0169 -0.5286 -0.1439
  851MOL0     H14823   5.305   5.231   6.264 -1.4427  1.7694  1.6736
  851MOL0     H14824   5.482   5.023   6.265 -2.4427 -0.0695 -0.7297
  851MOL0     H14825   5.521   5.088   6.426  2.5988  4.9531  0.1929
  851MOL0     H14826   5.532   5.225   6.153  0.8084 -0.1654 -0.8680
  851MOL0     H14827   5.590   5.308   6.296 -2.7324  2.8664 -3.3105
  851MOL0     H14828   5.695   5.038   6.177  2.1032 -1.0095  1.8618
  851MOL0     H14829   5.763   5.192   6.144  0.4947 -1.1308 -1.2308
  851MOL0     H14830   5.851   5.218   6.359  0.1963  0.4623 -3.2998
  851MOL0     H14831   5.750   5.092   6.434 -0.4985 -2.0465 -0.7861
  851MOL0     H14832   5.999   5.026   6.415 -0.3322 -1.2630  0.3875
  851MOL0     H14833   5.993   5.051   6.249  0.8261 -1.9531  0.5613
  851MOL0     H14834   5.833   4.861   6.226  1.3831  1.0004 -0.6034
  851MOL0     H14835   5.988   4.823   6.303 -0.5070 -1.2287  1.2234
  851MOL0     H14836   5.613   4.777   6.326 -1.3526  2.4810  0.1763
  851MOL0     H14837   5.461   4.861   6.614 -0.8730  0.4002 -1.8257
  851MOL0     H14838   5.436   4.713   6.517  1.4051 -0.9273  0.2541
  851MOL0     H14839   5.530   4.570   6.700 -1.0182 -0.1138  0.8442
  851MOL0     H14840   5.564   4.713   6.793 -0.2266 -0.1450 -0.1922
  851MOL0     H14841   5.356   4.753   6.862 -1.7864  0.9984  0.1039
  851MOL0     H14842   5.361   4.585   6.869 -1.0695  1.9297 -0.0633
  851MOL0     H14843   5.268   4.582   6.628 -0.6908 -2.6000  0.2618
  851MOL0     H14844   5.220   4.752   6.672  2.3169  0.7340 -0.7441
  851MOL0     H14845   4.944   4.494   6.911 -3.2539  0.7981  1.4342
  851MOL0     H14846   4.702   4.484   6.831 -1.3536 -0.5188 -1.2175
  851MOL0     H14847   4.432   4.849   6.494 -2.3555  1.8465 -0.3838
  851MOL0     H14848   4.204   4.870   6.422  0.8984  0.5280 -0.4974
  851MOL0     H14849   3.988   4.820   6.437 -1.3507  2.2570 -1.4374
  851MOL0     H14850   3.966   4.801   6.263  1.8765 -2.1576 -1.2994
  851MOL0     H14851   3.748   4.679   6.307 -4.4071  4.4755 -0.3315
  851MOL0     H14852   3.793   4.654   6.475 -0.3971 -1.9459 -2.0040
  851MOL0     H14853   3.726   4.894   6.516  0.6415  2.0100 -0.7044
  851MOL0     H14854   3.775   4.928   6.350 -0.6184  0.5917 -0.0270
  851MOL0     H14855   3.545   4.735   6.410  2.1785 -0.4944 -0.1773
  851MOL0     H14856   3.598   4.807   6.261  0.1355 -6.7139  0.8936
  851MOL0     H14857   3.526   5.038   6.347 -1.7369  1.5282  1.6342
  851MOL0     H14858   3.506   4.972   6.500  0.1081  0.0360 -0.2385
  851MOL0     H14859   3.313   4.842   6.437 -0.6939  1.9098  2.7907
  851MOL0     H14860   3.287   5.007   6.425  2.4324  1.7116  1.0083
  851MOL0     H14861   3.343   4.822   6.192  1.0870  0.0847 -2.1512
  851MOL0     H14862   3.331   5.000   6.173 -0.4060 -0.8197 -1.2454
  851MOL0     H14863   3.119   4.873   6.124 -0.6201  1.5209 -1.0307
  851MOL0     H14864   3.113   4.819   6.297  0.3951  0.3222  0.0896
  851MOL0     H14865   4.212   4.432   6.356  1.4953 -0.0445 -1.7899
  851MOL0     H14866   4.430   4.421   6.444 -1.2458 -0.0818  1.4020
  851MOL0     H14867   4.820   4.724   6.491  1.7952  2.0318 -0.1974
  851MOL0     H14868   5.043   4.739   6.568 -0.5658 -1.2814 -2.4628
  851MOL0     H14869   4.969   5.063   6.404  1.7187 -2.4980  1.9490
  851MOL0     H14870   4.759   4.974   6.359 -2.3739 -3.3748 -0.8400
  851MOL0     H14871   4.465   4.877   6.229 -1.8963 -1.7171  1.9264
  851MOL0     H14872   4.230   4.908   6.171  3.3421  0.8659  1.0334
  851MOL0     H14873   4.048   4.608   6.100 -0.0469 -1.2308 -0.4840
  851MOL0     H14874   4.066   4.594   5.922  0.4133 -0.8957  0.8013
  851MOL0     H14875   3.847   4.737   6.081  2.9430  1.3645  0.9324
  851MOL0     H14876   3.827   4.596   5.974  0.5121  0.0313  0.4773
  851MOL0     H14877   3.857   4.715   5.774 -2.3502 -1.1028 -0.0851
  851MOL0     H14878   3.926   4.856   5.862  0.7498 -0.2432  2.6466
  851MOL0     H14879   3.705   4.898   5.760  0.5587 -0.1858  0.4232
  851MOL0     H14880   3.644   4.747   5.832 -0.5440  1.4643 -2.0000
  851MOL0     H14881   3.567   5.047   6.111 -0.7544 -1.1567  0.9609
  851MOL0     H14882   4.277   4.641   5.841  1.3304  0.0265 -0.5304
  851MOL0     H14883   4.581   4.637   5.794  1.8948 -1.1588  0.8381
  851MOL0     H14884   4.614   4.547   5.942  0.7831 -1.3089 -1.2904
  851MOL0     H14885   4.467   4.500   5.855 -0.4392 -0.4944  2.2498
  852MOL0     O14886   4.258   6.713  11.115  0.5547 -0.5450  0.0548
  852MOL0     C14887   4.218   6.713  11.238  0.4763  1.2927  0.6190
  852MOL0     O14888   4.289   6.746  11.350 -0.6915 -0.2429 -0.1905
  852MOL0     C14889   4.420   6.785  11.344 -0.2972  0.1031  0.6004
  852MOL0     C14890   4.491   6.753  11.456  1.4299 -0.2044 -0.0031
  852MOL0     C14891   4.626   6.788  11.480  0.6653 -0.0750  0.4405
  852MOL0     C14892   4.687   6.866  11.382  0.2695 -0.7016  0.4002
  852MOL0     O14893   4.815   6.895  11.412 -0.5322  0.5713  0.6276
  852MOL0     C14894   4.894   6.860  11.297  0.5130  0.0369  0.2598
  852MOL0     C14895   5.040   6.871  11.341  0.1939  0.5710  0.6588
  852MOL0     C14896   5.125   6.889  11.221 -1.0152 -0.0369  0.5655
  852MOL0     C14897   5.279   6.880  11.258 -0.5099  1.2435 -0.1009
  852MOL0     C14898   5.363   6.877  11.128  0.0711 -0.3560 -0.2491
  852MOL0     C14899   5.503   6.833  11.134  0.5128  0.5177  0.0078
  852MOL0     C14900   5.550   6.824  10.980 -0.5733 -0.2858  0.4133
  852MOL0     C14901   5.701   6.837  10.984 -0.7203  0.3136 -0.0219
  852MOL0     N14902   5.751   6.695  11.016  0.0158 -0.3633 -0.5642
  852MOL0     C14903   5.789   6.645  11.134  0.5257 -0.3202 -0.5710
  852MOL0     C14904   5.841   6.528  11.108  0.1321  0.8228 -0.5385
  852MOL0     C14905   5.909   6.442  11.204 -0.3382  1.4471 -0.4838
  852MOL0     C14906   6.062   6.435  11.164 -0.0442 -0.0082  0.5463
  852MOL0     C14907   6.144   6.408  11.295  0.6248 -0.3413  0.1015
  852MOL0     C14908   6.287   6.382  11.245  0.2047 -0.8798 -0.8126
  852MOL0     O14909   6.332   6.489  11.158 -0.5326 -0.9391  0.1656
  852MOL0     C14910   6.417   6.593  11.211  0.0784  0.8620  0.3418
  852MOL0     C14911   6.400   6.649  11.339  0.1628  0.6954 -0.3200
  852MOL0     C14912   6.490   6.756  11.379  0.9919  0.1588 -0.4558
  852MOL0     C14913   6.573   6.811  11.280 -0.2322 -0.6007 -0.8453
  852MOL0     C14914   6.663   6.926  11.314  1.0523 -0.2600 -0.0189
  852MOL0     O14915   6.758   6.961  11.221 -0.0963 -0.3079 -0.0829
  852MOL0     C14916   6.873   7.014  11.275 -0.8023  0.1978 -0.0277
  852MOL0     C14917   6.947   6.948  11.369 -0.2352 -0.2089 -0.1282
  852MOL0     C14918   7.074   6.991  11.407 -0.2371  0.4259 -0.5825
  852MOL0     C14919   7.137   7.091  11.337 -0.1656  0.3877  0.3635
  852MOL0     O14920   7.268   7.106  11.373  0.6916 -0.2276 -0.3575
  852MOL0     C14921   7.344   7.204  11.298  0.6695 -0.1106 -0.4291
  852MOL0     C14922   7.309   7.342  11.352  0.0659  1.0163  0.2440
  852MOL0     C14923   7.416   7.381  11.461 -0.3547 -0.5442  0.1876
  852MOL0     C14924   7.400   7.535  11.488  1.0642  0.1007 -0.5708
  852MOL0     C14925   7.503   7.586  11.592  0.5227  0.3171  0.2952
  852MOL0     C14926   7.632   7.617  11.532  0.0212 -0.1490 -0.1392
  852MOL0     C14927   7.716   7.688  11.643 -0.0808 -0.9482  0.2460
  852MOL0     C14928   7.840   7.759  11.587  0.2372  0.0279 -0.9378
  852MOL0    Cl14929   7.796   7.891  11.474  0.0159  0.0586 -0.0227
  852MOL0     C14930   7.065   7.161  11.237  0.1204  0.7443  0.2208
  852MOL0     C14931   6.936   7.124  11.209  0.6993  0.4582  0.1338
  852MOL0     O14932   6.647   6.985  11.426  0.5815  0.4428  0.3828
  852MOL0     C14933   6.577   6.753  11.152 -0.5273  0.3812 -0.1175
  852MOL0     C14934   6.503   6.643  11.121  0.2423  0.7430 -0.2499
  852MOL0     N14935   5.843   6.503  10.972  0.2676  0.1137  0.8279
  852MOL0     N14936   5.781   6.607  10.922 -0.7012 -0.2942  0.6594
  852MOL0     C14937   4.609   6.906  11.268  0.5398 -0.1075  0.0722
  852MOL0     C14938   4.477   6.870  11.250  1.0789 -0.3034  0.3127
  852MOL0     C14939   4.082   6.648  11.266  0.7701  0.4834  0.6389
  852MOL0     C14940   4.067   6.587  11.386  1.4439  0.5793  1.1152
  852MOL0     C14941   3.957   6.515  11.413 -0.5630  0.4490  0.3029
  852MOL0     C14942   3.845   6.509  11.327 -0.4926 -0.2168  0.5404
  852MOL0     O14943   3.730   6.444  11.359  0.0562 -0.3353 -0.3575
  852MOL0     C14944   3.736   6.311  11.408 -0.0508  0.0962 -0.1074
  852MOL0     C14945   3.599   6.261  11.436 -0.9318 -0.2359 -0.1948
  852MOL0     C14946   3.530   6.227  11.310 -0.2733  0.6068  0.1215
  852MOL0     C14947   3.395   6.177  11.337  1.1489 -0.1922  0.8494
  852MOL0     C14948   3.332   6.130  11.211  0.3615 -0.8972 -0.6015
  852MOL0     C14949   3.283   6.091  11.112  0.3162  0.0695 -0.0120
  852MOL0     C14950   3.864   6.565  11.200 -1.3115 -0.5474  1.0531
  852MOL0     C14951   3.981   6.635  11.166  0.8367  1.0929  1.1400
  852MOL0     C14952   3.992   6.698  11.029  1.3859  0.2801  0.1066
  852MOL0     H14953   4.441   6.705  11.540  3.5878 -3.7580 -0.5514
  852MOL0     H14954   4.682   6.754  11.566  1.6961  1.1727  0.2881
  852MOL0     H14955   4.874   6.757  11.263 -0.7469  1.2528 -3.1777
  852MOL0     H14956   4.873   6.935  11.220  1.3050  0.7415  0.7218
  852MOL0     H14957   5.046   6.774  11.392 -0.3425  0.0005 -0.3482
  852MOL0     H14958   5.052   6.952  11.413  4.0244  0.0983  0.7620
  852MOL0     H14959   5.113   6.987  11.174 -0.6469  0.9314  2.4152
  852MOL0     H14960   5.110   6.812  11.144  0.2064  1.1997 -0.9478
  852MOL0     H14961   5.309   6.964  11.322  0.8889 -0.9641  2.3439
  852MOL0     H14962   5.294   6.789  11.316  0.7672  0.3453 -1.7296
  852MOL0     H14963   5.309   6.811  11.060  0.6280 -0.5444 -0.5173
  852MOL0     H14964   5.344   6.974  11.081  0.2640 -0.4366 -0.4955
  852MOL0     H14965   5.558   6.904  11.196 -0.7752  0.6674  1.0087
  852MOL0     H14966   5.516   6.728  11.164 -0.4593 -0.1463 -1.7267
  852MOL0     H14967   5.533   6.922  10.935 -2.1519 -0.8127 -0.2090
  852MOL0     H14968   5.520   6.740  10.916 -0.8174  0.9872 -1.2075
  852MOL0     H14969   5.733   6.860  10.882  1.1491 -2.8184 -0.2785
  852MOL0     H14970   5.734   6.913  11.056  0.8329 -1.3581  1.1217
  852MOL0     H14971   5.779   6.698  11.229  1.4854 -2.9188  1.0627
  852MOL0     H14972   5.906   6.487  11.304  3.9476  1.3388 -0.0931
  852MOL0     H14973   5.870   6.340  11.211  0.3498  1.1441 -0.9063
  852MOL0     H14974   6.090   6.346  11.107  0.6759  0.3233  0.3786
  852MOL0     H14975   6.100   6.524  11.114  0.3515  0.4789  1.6782
  852MOL0     H14976   6.105   6.317  11.343  1.4018 -0.7493 -0.0242
  852MOL0     H14977   6.137   6.495  11.361 -0.5070  1.0839 -1.7835
  852MOL0     H14978   6.269   6.294  11.184 -0.1327  0.1742 -2.3019
  852MOL0     H14979   6.360   6.356  11.322 -1.6509 -3.9106  0.0788
  852MOL0     H14980   6.327   6.621  11.414  0.9576 -0.3825  0.0746
  852MOL0     H14981   6.466   6.800  11.475 -6.8933 -2.9195 -0.2884
  852MOL0     H14982   6.893   6.863  11.410 -2.9273  0.4433 -2.0549
  852MOL0     H14983   7.115   6.934  11.489 -3.3147 -1.7262 -0.3675
  852MOL0     H14984   7.452   7.192  11.313  0.8101  1.1383 -0.3447
  852MOL0     H14985   7.308   7.198  11.195 -0.3272 -1.5571 -0.0250
  852MOL0     H14986   7.313   7.422  11.278  1.9862  1.5518  0.8746
  852MOL0     H14987   7.209   7.357  11.395 -0.0010  4.1414 -0.7921
  852MOL0     H14988   7.392   7.321  11.549  0.3411  0.6598  1.2291
  852MOL0     H14989   7.520   7.362  11.431 -0.3341  1.2300 -1.0578
  852MOL0     H14990   7.296   7.554  11.515  0.4539  0.0704 -2.6728
  852MOL0     H14991   7.407   7.584  11.390 -0.5393 -1.6956 -1.6530
  852MOL0     H14992   7.518   7.507  11.666  2.5841 -0.3544 -0.7496
  852MOL0     H14993   7.458   7.676  11.634  0.8959  0.1151  1.1551
  852MOL0     H14994   7.676   7.524  11.494  2.8374  1.0470 -0.0572
  852MOL0     H14995   7.612   7.695  11.458  0.7533  0.2716  0.0884
  852MOL0     H14996   7.745   7.631  11.731  0.7073 -1.9974 -0.6707
  852MOL0     H14997   7.646   7.764  11.679 -0.0839  1.6911 -4.4839
  852MOL0     H14998   7.915   7.797  11.658 -0.1142  0.4463 -0.7899
  852MOL0     H14999   7.895   7.679  11.538  1.0725  1.1420 -1.8962
  852MOL0     H15000   7.112   7.242  11.182  0.0885  1.2961  0.9979
  852MOL0     H15001   6.872   7.177  11.139  0.9220  1.0175  0.3493
  852MOL0     H15002   6.649   6.778  11.075 -0.3626  0.2537 -0.0074
  852MOL0     H15003   6.498   6.604  11.020  2.2571  1.7857 -0.8191
  852MOL0     H15004   4.650   6.972  11.192 -1.5102  2.9128  1.4086
  852MOL0     H15005   4.418   6.908  11.167  0.7503 -1.6845 -0.1150
  852MOL0     H15006   4.142   6.589  11.464  1.9877  2.2954  0.6032
  852MOL0     H15007   3.950   6.465  11.510  0.6361 -4.0919 -1.6719
  852MOL0     H15008   3.785   6.306  11.505  0.6331  3.9004 -0.1138
  852MOL0     H15009   3.802   6.254  11.342  1.7960  0.3400  1.4510
  852MOL0     H15010   3.546   6.348  11.475 -0.3860  0.6350 -1.3435
  852MOL0     H15011   3.591   6.170  11.497 -2.9639 -0.6101 -0.9495
  852MOL0     H15012   3.590   6.150  11.263  1.2944  2.4291 -1.0101
  852MOL0     H15013   3.523   6.320  11.252 -0.3416  1.4476  1.4075
  852MOL0     H15014   3.401   6.103  11.417  1.6987  0.6734  1.6233
  852MOL0     H15015   3.339   6.263  11.375 -2.1066 -0.7497 -2.1829
  852MOL0     H15016   3.246   6.051  11.020  0.6775  0.7254 -0.4481
  852MOL0     H15017   3.785   6.553  11.126 -0.9393 -2.6081  0.9306
  852MOL0     H15018   3.895   6.693  10.980 -0.5219  0.5947  3.5459
  852MOL0     H15019   4.022   6.802  11.044  0.9921  0.7306 -1.9223
  852MOL0     H15020   4.070   6.648  10.970  0.9381  1.9459 -1.9970
  853MOL0     O15021   5.077   7.049   7.168 -0.2080  0.0885  0.2363
  853MOL0     C15022   5.162   7.030   7.254 -0.0195 -0.9647  1.0845
  853MOL0     O15023   5.258   7.133   7.281  0.6566 -0.5197 -0.2466
  853MOL0     C15024   5.222   7.262   7.254  0.7687 -0.7303 -0.3124
  853MOL0     C15025   5.122   7.335   7.320  0.9180  0.2677 -0.0105
  853MOL0     C15026   5.103   7.472   7.291 -0.0214  0.0602 -0.0496
  853MOL0     C15027   5.188   7.538   7.200 -0.0937 -0.1448  0.5981
  853MOL0     O15028   5.184   7.673   7.174 -0.0983  1.3389  0.0437
  853MOL0     C15029   5.163   7.758   7.285  1.1892  0.3191 -0.0868
  853MOL0     C15030   5.179   7.906   7.252  0.4543 -0.7524  0.5210
  853MOL0     C15031   5.141   7.991   7.371  0.2887  1.1390 -0.6005
  853MOL0     C15032   5.206   8.133   7.363  0.2745  0.1309  0.6333
  853MOL0     C15033   5.189   8.226   7.491  0.5252 -0.8298 -0.2795
  853MOL0     C15034   5.036   8.226   7.554 -0.4724  0.0039  0.9324
  853MOL0     C15035   5.008   8.364   7.621 -0.4514 -1.2783 -0.0673
  853MOL0     C15036   5.083   8.387   7.754 -0.6707  0.2906  0.0085
  853MOL0     N15037   5.045   8.308   7.870 -0.6623 -0.3194  0.0127
  853MOL0     C15038   5.107   8.327   7.989 -0.0940 -0.5507 -1.2226
  853MOL0     C15039   5.043   8.243   8.076  0.4214  0.7618  0.2791
  853MOL0     C15040   5.078   8.220   8.217 -0.0099  0.9832  0.1082
  853MOL0     C15041   5.021   8.314   8.314 -0.2529  0.2513  0.2359
  853MOL0     C15042   4.868   8.315   8.329  0.8355  0.0813 -0.4203
  853MOL0     C15043   4.818   8.431   8.423  0.2583 -0.7048  0.2476
  853MOL0     O15044   4.887   8.555   8.393 -0.5812 -0.3263  0.0409
  853MOL0     C15045   4.825   8.644   8.305  0.2112 -0.1702  0.9605
  853MOL0     C15046   4.720   8.617   8.223 -0.2475 -0.3773 -0.1423
  853MOL0     C15047   4.653   8.707   8.146  0.0531  1.4204  0.3835
  853MOL0     C15048   4.693   8.841   8.125 -0.5253  0.5677 -0.3965
  853MOL0     C15049   4.624   8.933   8.027 -0.0270  0.2368 -0.8748
  853MOL0     O15050   4.525   8.878   7.955  0.5038 -0.0971 -0.8792
  853MOL0     C15051   4.461   8.937   7.853  0.3048 -0.8690 -0.6386
  853MOL0     C15052   4.327   8.912   7.834 -0.0998 -0.7408  0.1473
  853MOL0     C15053   4.260   8.955   7.716 -0.7665 -0.0384 -0.0155
  853MOL0     C15054   4.331   9.032   7.621 -0.9539  1.2012  1.2989
  853MOL0     O15055   4.266   9.077   7.504  0.4747 -0.0464 -0.0486
  853MOL0     C15056   4.291   9.215   7.471  0.1013 -0.1839 -0.7831
  853MOL0     C15057   4.165   9.287   7.473  1.0621  0.1140 -0.4335
  853MOL0     C15058   4.173   9.428   7.407 -0.2454 -0.9327 -0.0476
  853MOL0     C15059   4.036   9.490   7.414 -0.4376 -0.0627  0.3761
  853MOL0     C15060   4.037   9.626   7.356 -1.0554  0.0769  0.5711
  853MOL0     C15061   3.900   9.687   7.346 -0.6237 -0.0210 -0.0726
  853MOL0     C15062   3.888   9.785   7.232  0.2130  0.4746  0.6756
  853MOL0     C15063   3.981   9.906   7.272 -0.4363 -0.0613  0.2936
  853MOL0    Cl15064   3.973  10.007   7.124 -0.0555 -0.3022  0.4317
  853MOL0     C15065   4.467   9.056   7.637 -0.5066  0.9846 -0.1232
  853MOL0     C15066   4.528   9.017   7.756  1.2360  0.6215  0.4050
  853MOL0     O15067   4.666   9.042   8.021 -0.0335 -0.5107  0.2211
  853MOL0     C15068   4.808   8.879   8.197  0.2929  0.1458  0.7135
  853MOL0     C15069   4.867   8.780   8.280 -0.6197  0.3654  0.3027
  853MOL0     N15070   4.942   8.179   8.014  0.5671  0.1103  0.1464
  853MOL0     N15071   4.944   8.220   7.887  0.8885  0.8643 -0.4359
  853MOL0     C15072   5.282   7.465   7.129 -0.3532 -0.0632  0.4731
  853MOL0     C15073   5.302   7.328   7.147  0.4389 -0.4155  0.1368
  853MOL0     C15074   5.155   6.907   7.324  0.0723  0.2731 -0.0361
  853MOL0     C15075   5.243   6.894   7.430  0.2071 -0.4188  0.1714
  853MOL0     C15076   5.242   6.779   7.511 -0.1665 -1.2895 -1.2356
  853MOL0     C15077   5.160   6.675   7.482 -0.3060  0.5674 -0.2320
  853MOL0     O15078   5.145   6.556   7.552 -0.0496  0.5298 -0.2045
  853MOL0     C15079   5.188   6.541   7.688  0.8497  0.2832 -1.1171
  853MOL0     C15080   5.101   6.632   7.785 -0.5322  0.3083  0.0844
  853MOL0     C15081   4.960   6.571   7.790 -0.0389 -0.1762  0.7983
  853MOL0     C15082   4.870   6.667   7.858 -0.4365 -0.3950  0.1990
  853MOL0     C15083   4.743   6.601   7.891 -0.1976 -0.1158 -1.1989
  853MOL0     C15084   4.631   6.556   7.927 -0.3805 -1.1009  0.1367
  853MOL0     C15085   5.094   6.673   7.364 -0.7330  0.2985  0.2043
  853MOL0     C15086   5.085   6.789   7.281 -0.5310 -0.3241  0.3409
  853MOL0     C15087   5.006   6.781   7.151 -0.1720  0.3645 -0.0437
  853MOL0     H15088   5.057   7.298   7.397  0.5518 -0.3039 -0.5834
  853MOL0     H15089   5.031   7.525   7.353 -1.0153 -0.6232 -0.5885
  853MOL0     H15090   5.069   7.744   7.339  1.6329  1.5734  1.0543
  853MOL0     H15091   5.234   7.741   7.366  0.2056 -0.9062  0.5452
  853MOL0     H15092   5.108   7.930   7.172  0.5318 -0.5876  0.5018
  853MOL0     H15093   5.281   7.933   7.223 -0.2939  3.1379  0.9101
  853MOL0     H15094   5.175   7.936   7.460  0.8845 -1.2159 -2.1800
  853MOL0     H15095   5.032   7.986   7.376  0.3658 -0.3904  0.3662
  853MOL0     H15096   5.312   8.117   7.341 -0.1498  0.1080 -1.6325
  853MOL0     H15097   5.174   8.190   7.275  4.9290  0.5153 -1.1004
  853MOL0     H15098   5.256   8.205   7.575  0.1347  1.0376  0.5538
  853MOL0     H15099   5.219   8.327   7.460  0.1305 -1.0580 -1.4524
  853MOL0     H15100   4.973   8.222   7.464 -3.0968 -1.9967  2.7014
  853MOL0     H15101   5.010   8.145   7.623  2.6037 -2.6039 -0.6943
  853MOL0     H15102   4.904   8.383   7.650 -0.2106  2.0540 -0.9951
  853MOL0     H15103   5.023   8.447   7.552 -0.7746  0.0619  1.4131
  853MOL0     H15104   5.188   8.367   7.731 -0.0656  2.6414  0.4741
  853MOL0     H15105   5.085   8.494   7.776  1.8805  0.2526  0.2394
  853MOL0     H15106   5.183   8.403   8.006 -0.3605 -0.2069 -1.5384
  853MOL0     H15107   5.063   8.119   8.257 -0.4184  1.2563  0.6621
  853MOL0     H15108   5.187   8.233   8.222  0.6184 -2.0190 -2.3116
  853MOL0     H15109   5.064   8.294   8.412 -1.6968  1.1132  1.0783
  853MOL0     H15110   5.057   8.411   8.278  0.5383 -0.4663 -0.9652
  853MOL0     H15111   4.844   8.220   8.378 -1.3732  0.8701  0.1283
  853MOL0     H15112   4.819   8.320   8.231  1.4476  2.0532 -0.6696
  853MOL0     H15113   4.829   8.415   8.530 -1.0167  3.8025  1.2647
  853MOL0     H15114   4.712   8.440   8.399  0.4047  2.1573  0.3235
  853MOL0     H15115   4.682   8.516   8.215 -1.3993 -0.2165  2.5075
  853MOL0     H15116   4.564   8.669   8.097  0.6693  0.7082 -0.2158
  853MOL0     H15117   4.285   8.838   7.901  2.1215 -1.1980  1.1106
  853MOL0     H15118   4.155   8.935   7.698 -1.2833  0.9069  1.6748
  853MOL0     H15119   4.352   9.270   7.544 -4.1326  0.9264  2.2812
  853MOL0     H15120   4.336   9.228   7.372  1.7606  1.6799  0.1332
  853MOL0     H15121   4.086   9.229   7.425 -0.5693  1.2356  0.7800
  853MOL0     H15122   4.134   9.294   7.578 -2.3377 -2.2071 -1.1362
  853MOL0     H15123   4.235   9.481   7.480  0.6380  0.2077 -1.5880
  853MOL0     H15124   4.216   9.427   7.307 -0.1705  0.6502 -0.0453
  853MOL0     H15125   3.989   9.484   7.513 -0.2874  0.6950  0.5025
  853MOL0     H15126   3.981   9.429   7.342  2.4663 -1.1975 -1.0080
  853MOL0     H15127   4.097   9.639   7.265  0.8311  1.9640  2.0095
  853MOL0     H15128   4.089   9.686   7.430 -3.7271  2.3231  0.7547
  853MOL0     H15129   3.823   9.610   7.338 -0.9451 -0.3195  4.0295
  853MOL0     H15130   3.880   9.732   7.443 -0.9334  0.6860 -0.4588
  853MOL0     H15131   3.784   9.813   7.216 -0.4442 -2.0098  0.2425
  853MOL0     H15132   3.927   9.738   7.141  0.9596 -0.0343  1.2471
  853MOL0     H15133   3.936   9.970   7.349 -1.7069 -0.4793 -0.0841
  853MOL0     H15134   4.087   9.893   7.298 -0.3586  1.4783  0.8686
  853MOL0     H15135   4.519   9.117   7.564 -3.1113 -0.6832 -3.7103
  853MOL0     H15136   4.633   9.045   7.759  1.7176 -1.0505  0.4152
  853MOL0     H15137   4.835   8.984   8.186 -1.0739  0.2295 -4.9495
  853MOL0     H15138   4.959   8.816   8.326 -0.5114  4.0088 -2.2680
  853MOL0     H15139   5.343   7.509   7.051 -2.1960 -1.1454 -1.7000
  853MOL0     H15140   5.376   7.275   7.089  0.8511  0.4294 -0.1378
  853MOL0     H15141   5.297   6.979   7.470 -0.3525 -0.2156  0.5059
  853MOL0     H15142   5.305   6.781   7.599 -0.6340  3.0897 -0.7702
  853MOL0     H15143   5.292   6.574   7.694  1.9328 -2.7637 -1.5419
  853MOL0     H15144   5.190   6.437   7.720  1.4116  0.5221 -0.3454
  853MOL0     H15145   5.088   6.732   7.743  0.5144  0.1573 -0.6332
  853MOL0     H15146   5.147   6.636   7.884 -1.2592  1.3434  0.3940
  853MOL0     H15147   4.958   6.470   7.830  0.4286 -0.3708  0.3417
  853MOL0     H15148   4.931   6.561   7.685 -1.9209 -0.9218  1.3572
  853MOL0     H15149   4.924   6.693   7.950  0.4073 -3.3553  0.6709
  853MOL0     H15150   4.858   6.750   7.788  2.7549 -0.2104 -0.2756
  853MOL0     H15151   4.534   6.523   7.958 -1.4386 -0.1054 -1.9117
  853MOL0     H15152   5.035   6.584   7.343 -0.4868 -0.0158  0.8197
  853MOL0     H15153   5.064   6.790   7.059 -0.1028  1.5758  0.1028
  853MOL0     H15154   4.961   6.682   7.145  1.8294 -0.6626  0.9562
  853MOL0     H15155   4.924   6.852   7.142  2.9190  3.9792 -3.5719
  854MOL0     O15156   5.930   1.486  11.360 -0.2066  0.1558  0.0391
  854MOL0     C15157   5.874   1.529  11.262 -0.1965  0.0721 -0.0058
  854MOL0     O15158   5.903   1.506  11.128  0.3151 -0.2575  0.3563
  854MOL0     C15159   5.999   1.417  11.103 -0.6599 -0.0625 -0.6240
  854MOL0     C15160   6.120   1.387  11.174  0.4112 -0.5040  0.5935
  854MOL0     C15161   6.210   1.287  11.130  0.5693 -0.2757  0.9880
  854MOL0     C15162   6.174   1.212  11.016  0.0497 -0.2750 -0.2612
  854MOL0     O15163   6.270   1.122  10.961 -0.9281 -0.1261  0.4093
  854MOL0     C15164   6.391   1.189  10.914 -0.0971 -0.4997 -0.2374
  854MOL0     C15165   6.500   1.089  10.862  0.4812 -0.2167 -0.3932
  854MOL0     C15166   6.565   1.140  10.733 -0.2002  1.2437 -0.4951
  854MOL0     C15167   6.683   1.054  10.689 -0.7790  0.3856 -0.4496
  854MOL0     C15168   6.751   1.111  10.563  0.1066 -0.3389  0.3307
  854MOL0     C15169   6.854   1.015  10.515  0.5269  0.7413  0.1351
  854MOL0     C15170   6.924   1.069  10.388 -0.3444  0.9989 -0.4706
  854MOL0     C15171   7.024   0.960  10.335 -0.1221 -0.3812 -1.3197
  854MOL0     N15172   7.087   1.010  10.218 -0.0472 -0.4452 -0.3503
  854MOL0     C15173   7.196   1.093  10.228 -0.9337  0.2922 -0.2816
  854MOL0     C15174   7.184   1.140  10.094  0.0307 -0.4635 -0.3139
  854MOL0     C15175   7.267   1.244  10.024  0.0026 -0.3785  0.1648
  854MOL0     C15176   7.368   1.193   9.923 -0.3117  0.2034  0.4222
  854MOL0     C15177   7.431   1.305   9.843 -0.5767  0.2168 -0.0239
  854MOL0     C15178   7.550   1.262   9.760  0.8083  0.2998  0.2157
  854MOL0     O15179   7.650   1.196   9.836  0.4467  0.9890  0.1105
  854MOL0     C15180   7.768   1.164   9.781  0.3112  0.2032 -0.7771
  854MOL0     C15181   7.778   1.147   9.645 -0.0174 -0.5613  1.4808
  854MOL0     C15182   7.900   1.096   9.585 -0.4326  0.6035 -0.0848
  854MOL0     C15183   8.009   1.051   9.672  0.4395 -0.3158  0.0473
  854MOL0     C15184   8.130   1.001   9.602 -0.7349  0.5592  0.6801
  854MOL0     O15185   8.242   0.980   9.681  0.0821 -1.0339  0.2813
  854MOL0     C15186   8.359   0.926   9.635 -0.9339  0.1073  0.1889
  854MOL0     C15187   8.371   0.780   9.627 -0.9762 -0.3545 -0.1351
  854MOL0     C15188   8.490   0.721   9.588  0.4639  0.1590 -0.0947
  854MOL0     C15189   8.591   0.799   9.536  0.0084 -0.2377  0.3083
  854MOL0     O15190   8.695   0.737   9.469 -0.0519  0.4672 -0.6102
  854MOL0     C15191   8.671   0.642   9.368 -0.0920 -0.3019 -0.0461
  854MOL0     C15192   8.802   0.643   9.285  0.7188 -0.3245 -0.0882
  854MOL0     C15193   8.820   0.535   9.177 -0.4576  0.6334 -0.3139
  854MOL0     C15194   8.829   0.400   9.242 -0.0631 -0.2073  0.2557
  854MOL0     C15195   8.868   0.290   9.142 -0.0756 -0.8806  0.3304
  854MOL0     C15196   8.899   0.154   9.212 -0.2978  0.9699 -0.2085
  854MOL0     C15197   9.049   0.152   9.276  0.3985 -0.6252 -0.4438
  854MOL0     C15198   9.165   0.180   9.172  0.6010  0.2353  1.2299
  854MOL0    Cl15199   9.300   0.066   9.226  0.1236  0.1352 -0.2105
  854MOL0     C15200   8.579   0.949   9.549  0.1304  0.6222 -0.3271
  854MOL0     C15201   8.464   0.999   9.604  0.5744 -0.1618  0.1033
  854MOL0     O15202   8.131   1.001   9.481 -0.3397  0.3631  0.3523
  854MOL0     C15203   8.001   1.082   9.805  0.5173  0.1897  0.1698
  854MOL0     C15204   7.879   1.138   9.858 -0.5803 -0.1133  0.9415
  854MOL0     N15205   7.080   1.085  10.020 -0.5806  0.1015 -0.4960
  854MOL0     N15206   7.029   1.004  10.100 -1.8749 -0.1032  0.7362
  854MOL0     C15207   6.059   1.235  10.949  0.5330 -0.8279 -0.7105
  854MOL0     C15208   5.972   1.337  10.999 -0.3730  0.0018  0.3778
  854MOL0     C15209   5.750   1.594  11.294  1.1626  0.7548 -0.2793
  854MOL0     C15210   5.659   1.602  11.192  0.6415 -0.2925  0.1274
  854MOL0     C15211   5.539   1.664  11.204  0.1018  0.7272  0.3351
  854MOL0     C15212   5.494   1.727  11.321  0.2330  0.2036 -0.2456
  854MOL0     O15213   5.372   1.780  11.354 -0.0581 -0.4255  0.5590
  854MOL0     C15214   5.279   1.826  11.251 -0.5802  1.2209 -0.0767
  854MOL0     C15215   5.182   1.708  11.205  0.0816 -0.4445 -0.4013
  854MOL0     C15216   5.054   1.750  11.124 -0.0515  0.4221 -0.3089
  854MOL0     C15217   4.995   1.616  11.074 -0.1709 -0.5690  0.2024
  854MOL0     C15218   4.872   1.634  10.988 -0.6452  0.9460 -0.0082
  854MOL0     C15219   4.787   1.656  10.913  0.2986 -0.0554 -0.3554
  854MOL0     C15220   5.586   1.723  11.421 -0.0990 -0.2467  0.0452
  854MOL0     C15221   5.711   1.669  11.410  0.0399  0.3319 -0.9303
  854MOL0     C15222   5.802   1.692  11.524  0.1801 -0.1565 -0.6045
  854MOL0     H15223   6.152   1.442  11.262 -0.2635 -0.1047  0.5907
  854MOL0     H15224   6.302   1.280  11.186  0.9760  0.5470  0.4346
  854MOL0     H15225   6.364   1.261  10.836  0.1214  0.1755  0.3005
  854MOL0     H15226   6.430   1.250  10.996  1.3853  1.1924 -2.0984
  854MOL0     H15227   6.454   0.995  10.831  2.6959 -0.2531 -4.2425
  854MOL0     H15228   6.571   1.058  10.940  0.4766 -1.7410 -0.9567
  854MOL0     H15229   6.604   1.239  10.760 -2.1523  1.2861  2.7111
  854MOL0     H15230   6.496   1.144  10.648  1.7996  0.4193 -2.2535
  854MOL0     H15231   6.754   1.044  10.772 -2.3195 -1.4916  0.7350
  854MOL0     H15232   6.641   0.954  10.674 -0.2014 -0.4623  2.6531
  854MOL0     H15233   6.673   1.125  10.488  0.1699 -0.9977  0.1295
  854MOL0     H15234   6.797   1.209  10.576  1.5488 -0.7664 -1.1586
  854MOL0     H15235   6.924   0.993  10.597  2.9218 -0.6734 -2.1410
  854MOL0     H15236   6.803   0.920  10.496  1.4826  0.0990  0.6747
  854MOL0     H15237   6.987   1.153  10.420  0.8517 -0.1397  0.2736
  854MOL0     H15238   6.849   1.098  10.314  2.3351  0.4092 -3.6800
  854MOL0     H15239   7.092   0.946  10.420 -0.5894  0.2162 -0.8441
  854MOL0     H15240   6.975   0.864  10.318 -1.4173 -0.5023  2.2579
  854MOL0     H15241   7.274   1.116  10.300 -0.9161  1.0847 -0.5401
  854MOL0     H15242   7.200   1.311   9.968  1.7041 -0.4983 -2.1526
  854MOL0     H15243   7.318   1.307  10.097  2.1520 -1.9294  0.0868
  854MOL0     H15244   7.446   1.148   9.984 -1.4493  1.7724  3.1794
  854MOL0     H15245   7.320   1.111   9.868  0.1975 -0.5950  1.1553
  854MOL0     H15246   7.468   1.383   9.911  1.7512 -2.3022  1.8207
  854MOL0     H15247   7.368   1.350   9.766 -1.2913 -0.2269  0.3020
  854MOL0     H15248   7.593   1.355   9.722  0.4406  1.2652  2.0059
  854MOL0     H15249   7.521   1.193   9.681  3.4176 -0.8272  0.1380
  854MOL0     H15250   7.698   1.158   9.573  0.0704  0.0238  1.4686
  854MOL0     H15251   7.889   1.073   9.480 -1.3476  0.2196  0.0769
  854MOL0     H15252   8.286   0.723   9.662 -0.3257 -1.6522 -0.6332
  854MOL0     H15253   8.495   0.613   9.597 -1.8031 -0.0455 -0.5294
  854MOL0     H15254   8.654   0.545   9.415 -0.0719 -0.6711 -0.7853
  854MOL0     H15255   8.577   0.665   9.318 -0.5948 -0.7710  0.6796
  854MOL0     H15256   8.805   0.739   9.232 -2.3037  0.4603  0.9725
  854MOL0     H15257   8.885   0.647   9.357 -0.4917  0.9277  1.3035
  854MOL0     H15258   8.741   0.533   9.102  0.2329 -0.5448 -1.0405
  854MOL0     H15259   8.919   0.557   9.135 -0.6195 -0.1791 -1.1590
  854MOL0     H15260   8.736   0.370   9.291  0.2128 -1.4559  0.0569
  854MOL0     H15261   8.902   0.411   9.323  1.8521  0.5030 -1.4744
  854MOL0     H15262   8.956   0.329   9.090  1.6326 -1.0290  2.9505
  854MOL0     H15263   8.794   0.273   9.063  0.2273 -0.6753 -0.0011
  854MOL0     H15264   8.815   0.137   9.279 -0.7527  0.8112 -0.8029
  854MOL0     H15265   8.896   0.077   9.134  1.8281  0.9650 -0.3309
  854MOL0     H15266   9.065   0.060   9.332 -0.1263  1.4514  3.4275
  854MOL0     H15267   9.062   0.229   9.353 -2.0702 -0.9801  0.4372
  854MOL0     H15268   9.128   0.144   9.075  0.5134 -1.8634  1.9889
  854MOL0     H15269   9.194   0.285   9.161 -1.3098  0.6704 -0.1880
  854MOL0     H15270   8.666   1.009   9.525 -0.2132  1.1743 -0.2201
  854MOL0     H15271   8.461   1.106   9.621  1.0217 -0.0737 -0.3616
  854MOL0     H15272   8.083   1.071   9.875 -0.6599 -2.9055  1.2077
  854MOL0     H15273   7.871   1.157   9.965 -2.3321 -2.7317  1.3739
  854MOL0     H15274   6.033   1.186  10.856  0.6571  2.3385 -2.5546
  854MOL0     H15275   5.881   1.355  10.942 -1.3604 -4.4875  0.1412
  854MOL0     H15276   5.677   1.547  11.100  0.5094 -1.8145  0.9716
  854MOL0     H15277   5.469   1.657  11.121 -0.3987 -0.4021  0.8306
  854MOL0     H15278   5.330   1.847  11.157  3.4520  1.3493  1.9285
  854MOL0     H15279   5.216   1.904  11.295  1.2307  1.9207  1.3788
  854MOL0     H15280   5.140   1.676  11.301 -0.4846  0.8136 -0.2031
  854MOL0     H15281   5.237   1.629  11.154  0.3797 -0.2789 -0.3389
  854MOL0     H15282   5.070   1.818  11.040 -2.7596  2.4485  0.7052
  854MOL0     H15283   4.993   1.802  11.198  2.8708  1.3084  1.6524
  854MOL0     H15284   5.069   1.559  11.017 -1.4922 -0.1322 -2.0458
  854MOL0     H15285   4.962   1.553  11.157 -1.9456 -1.0520 -0.8247
  854MOL0     H15286   4.693   1.667  10.863 -0.3104 -2.2732  0.1928
  854MOL0     H15287   5.560   1.771  11.515 -0.0652  1.1533 -0.6420
  854MOL0     H15288   5.813   1.604  11.588  2.9099 -0.9808 -2.0374
  854MOL0     H15289   5.898   1.711  11.476  0.7391 -0.1813  0.4802
  854MOL0     H15290   5.773   1.776  11.587  0.1734  0.4887 -1.4403
  855MOL0     O15291   9.968   8.837   7.903  0.4124  0.2422  0.2936
  855MOL0     C15292   9.877   8.890   7.960  0.2138 -0.3042 -0.3660
  855MOL0     O15293   9.887   8.984   8.052 -0.0162 -0.9108  0.3353
  855MOL0     C15294   9.996   9.054   8.075  0.3055  0.1241  0.1475
  855MOL0     C15295  10.002   9.133   8.190  0.0711 -0.3710  0.1342
  855MOL0     C15296  10.102   9.227   8.216  0.4620 -0.8377 -0.1417
  855MOL0     C15297  10.219   9.229   8.147  0.3340 -0.0404  0.2139
  855MOL0     O15298  10.325   9.306   8.188 -0.4624  0.5250  0.0403
  855MOL0     C15299  10.451   9.280   8.125 -0.9792  0.3266  0.5729
  855MOL0     C15300  10.573   9.348   8.206 -0.0553  0.2229 -0.1401
  855MOL0     C15301  10.712   9.321   8.155 -0.8400 -0.3394  0.2948
  855MOL0     C15302  10.812   9.357   8.268 -0.0105 -0.0830  0.1974
  855MOL0     C15303  10.962   9.375   8.226  0.3729 -0.3306 -0.4590
  855MOL0     C15304  11.040   9.412   8.348 -0.1137  0.3642  1.2410
  855MOL0     C15305  11.186   9.432   8.315 -0.4060  0.7262  0.8011
  855MOL0     C15306  11.259   9.468   8.449  0.7633 -0.4804  0.2604
  855MOL0     N15307  11.403   9.475   8.439  0.5016  0.2660 -0.9225
  855MOL0     C15308  11.483   9.366   8.459  0.5049 -0.3019 -0.3107
  855MOL0     C15309  11.603   9.411   8.416 -1.0282  0.0221 -0.3309
  855MOL0     C15310  11.741   9.340   8.420  0.6363  0.7932  0.2907
  855MOL0     C15311  11.785   9.302   8.561  0.0949  0.1074  0.4061
  855MOL0     C15312  11.844   9.435   8.634 -0.1130  1.1744  0.3200
  855MOL0     C15313  11.741   9.489   8.734  0.9493  0.4109  0.4110
  855MOL0     O15314  11.795   9.551   8.852 -0.3829 -0.7026  0.2224
  855MOL0     C15315  11.867   9.660   8.841 -0.4860 -0.0755 -0.2835
  855MOL0     C15316  11.969   9.690   8.933 -0.9867  0.0710  0.0063
  855MOL0     C15317  12.042   9.812   8.923  0.1570 -0.3262  0.8829
  855MOL0     C15318  12.020   9.894   8.815  0.6021  0.3782  0.2908
  855MOL0     C15319  12.079  10.029   8.815 -0.6853  0.0650 -0.6306
  855MOL0     O15320  12.053  10.110   8.712  0.0515 -0.5613 -0.4360
  855MOL0     C15321  12.095  10.240   8.734 -0.9748 -0.1355  0.0882
  855MOL0     C15322  12.225  10.283   8.757  0.4187  0.3139 -1.0063
  855MOL0     C15323  12.255  10.411   8.796 -0.0959 -1.0942  0.5552
  855MOL0     C15324  12.156  10.507   8.799 -0.4372  1.1254 -0.0045
  855MOL0     O15325  12.158  10.642   8.833 -0.2668 -0.1956  0.3938
  855MOL0     C15326  12.287  10.700   8.820  0.2751 -0.6204  0.9699
  855MOL0     C15327  12.284  10.856   8.827  0.1408 -0.5140  0.6371
  855MOL0     C15328  12.428  10.906   8.787  0.7235  0.1107 -0.7650
  855MOL0     C15329  12.431  11.055   8.762 -0.7046  0.5410  0.9001
  855MOL0     C15330  12.448  11.131   8.894 -0.2016 -0.6151  0.3587
  855MOL0     C15331  12.592  11.125   8.946  0.2799 -0.0568 -0.2068
  855MOL0     C15332  12.608  11.176   9.094 -0.0080 -0.3504  0.3504
  855MOL0     C15333  12.580  11.086   9.215  0.6102 -0.6680  0.3363
  855MOL0    Cl15334  12.714  10.961   9.217  0.3699 -0.2326  0.3499
  855MOL0     C15335  12.033  10.465   8.752 -0.0749  0.0036  0.9270
  855MOL0     C15336  12.003  10.338   8.718  0.3136  0.9614  0.5567
  855MOL0     O15337  12.155  10.060   8.918 -0.1600 -0.0483  0.6531
  855MOL0     C15338  11.914   9.869   8.721  0.6630  0.4654 -1.3203
  855MOL0     C15339  11.841   9.752   8.738 -0.5899 -0.2044 -0.3841
  855MOL0     N15340  11.594   9.549   8.385  0.2077  0.2032  0.4857
  855MOL0     N15341  11.465   9.577   8.390  0.0066  0.5340 -0.5783
  855MOL0     C15342  10.218   9.155   8.029 -0.4776  0.6778 -1.1990
  855MOL0     C15343  10.105   9.070   7.991  0.2460 -0.7831  0.4996
  855MOL0     C15344   9.748   8.827   7.965  0.6790 -0.9187  1.0447
  855MOL0     C15345   9.706   8.773   8.088  0.6043  0.3802 -1.0752
  855MOL0     C15346   9.572   8.723   8.104  0.4064 -0.4939  0.3919
  855MOL0     C15347   9.496   8.707   7.991 -2.0968  0.9759  0.2621
  855MOL0     O15348   9.374   8.657   8.010 -0.6616  0.6458 -0.6132
  855MOL0     C15349   9.329   8.553   7.920  0.6901  0.1298  0.0428
  855MOL0     C15350   9.188   8.526   7.959  1.0340  0.3558 -0.3913
  855MOL0     C15351   9.181   8.445   8.095 -0.5017 -0.1728  0.0934
  855MOL0     C15352   9.038   8.434   8.146  0.8077 -1.2067 -0.0871
  855MOL0     C15353   8.944   8.364   8.059 -1.1122  0.0340  0.0103
  855MOL0     C15354   8.874   8.306   7.975 -0.1286  0.5430 -1.0040
  855MOL0     C15355   9.545   8.736   7.869 -0.2182  0.1059  0.3759
  855MOL0     C15356   9.668   8.800   7.851 -0.2171 -0.3954  0.0089
  855MOL0     C15357   9.707   8.839   7.708  0.2259  0.3648  0.2540
  855MOL0     H15358   9.910   9.127   8.247 -1.4492 -2.6022 -2.3233
  855MOL0     H15359  10.084   9.288   8.304  0.9397 -1.4553  0.3938
  855MOL0     H15360  10.469   9.173   8.139  0.8983  0.6942  1.2182
  855MOL0     H15361  10.457   9.309   8.020  0.6312 -2.2430 -0.1366
  855MOL0     H15362  10.569   9.322   8.312 -2.9409  4.0175  0.9024
  855MOL0     H15363  10.552   9.455   8.214 -1.5035 -0.1039  0.8414
  855MOL0     H15364  10.736   9.393   8.076 -0.1394 -0.6956  0.1711
  855MOL0     H15365  10.719   9.218   8.118 -3.6554  0.0222 -1.5410
  855MOL0     H15366  10.779   9.450   8.316  0.2996  0.2691 -0.2611
  855MOL0     H15367  10.809   9.277   8.342 -0.8941 -0.4422 -0.2106
  855MOL0     H15368  10.992   9.287   8.168 -0.0434  0.1953 -1.4940
  855MOL0     H15369  10.969   9.466   8.166 -0.7879  1.0789  1.4208
  855MOL0     H15370  10.996   9.489   8.411  0.6407 -0.8553  3.3773
  855MOL0     H15371  11.032   9.316   8.400 -0.6459 -0.0759  0.3792
  855MOL0     H15372  11.209   9.505   8.237  0.5610 -1.3001 -0.9054
  855MOL0     H15373  11.232   9.339   8.280 -0.9782  0.6540  0.2269
  855MOL0     H15374  11.224   9.565   8.486 -1.2863 -0.6113 -1.1564
  855MOL0     H15375  11.226   9.392   8.521 -0.8218 -1.1669 -1.1367
  855MOL0     H15376  11.459   9.267   8.498  2.0794 -0.0533  1.4709
  855MOL0     H15377  11.724   9.244   8.368 -2.9294  0.2285  2.1887
  855MOL0     H15378  11.820   9.392   8.366  0.9932  0.6686  0.6967
  855MOL0     H15379  11.705   9.262   8.624  1.3510 -0.4189  1.7364
  855MOL0     H15380  11.862   9.225   8.552  2.3719  1.8354  3.2469
  855MOL0     H15381  11.852   9.519   8.563 -2.4676  1.5048  0.3718
  855MOL0     H15382  11.941   9.412   8.678 -0.9978  0.8574  2.2029
  855MOL0     H15383  11.702   9.393   8.769  4.3501 -1.5080 -0.6967
  855MOL0     H15384  11.652   9.549   8.709  0.0788 -0.5203  1.1833
  855MOL0     H15385  11.998   9.630   9.018 -0.6696 -0.6595 -0.6026
  855MOL0     H15386  12.095   9.847   9.010 -3.5153  2.5702  2.2387
  855MOL0     H15387  12.308  10.214   8.771 -2.8072 -3.5881  1.3523
  855MOL0     H15388  12.354  10.435   8.833  1.4167  0.2365 -3.7200
  855MOL0     H15389  12.349  10.668   8.905  1.7098  0.7391  0.4827
  855MOL0     H15390  12.337  10.668   8.728  3.4479 -1.5420  2.8491
  855MOL0     H15391  12.198  10.894   8.771 -1.1081 -0.5930  2.4246
  855MOL0     H15392  12.277  10.899   8.927  0.4536  1.3386 -0.0792
  855MOL0     H15393  12.486  10.872   8.873  0.2918  1.7294  0.2045
  855MOL0     H15394  12.464  10.861   8.694  3.5826  1.2324 -0.3004
  855MOL0     H15395  12.344  11.094   8.709  0.1229 -0.6624 -1.4985
  855MOL0     H15396  12.521  11.068   8.701 -1.2682  4.6075  0.6300
  855MOL0     H15397  12.372  11.090   8.962 -0.0030  0.3750  1.2042
  855MOL0     H15398  12.430  11.236   8.869  3.2307  0.3661  1.3867
  855MOL0     H15399  12.633  11.024   8.942  0.3011 -0.0087 -1.5658
  855MOL0     H15400  12.653  11.186   8.878 -0.1752  0.4113 -0.2089
  855MOL0     H15401  12.549  11.266   9.112 -1.1880 -0.8914 -0.6698
  855MOL0     H15402  12.714  11.202   9.098 -0.6562  2.7066  0.5814
  855MOL0     H15403  12.569  11.141   9.309 -1.2635 -0.8360  0.2448
  855MOL0     H15404  12.481  11.040   9.207 -0.2882  1.2606 -0.2717
  855MOL0     H15405  11.954  10.535   8.731 -2.6052 -2.5115  1.3742
  855MOL0     H15406  11.905  10.306   8.684 -0.9937  3.2625  1.8678
  855MOL0     H15407  11.875   9.944   8.653  2.6849  3.7698  0.8985
  855MOL0     H15408  11.752   9.737   8.678  0.0777 -1.1538 -1.1546
  855MOL0     H15409  10.307   9.157   7.968  0.3419  0.2871 -0.0481
  855MOL0     H15410  10.107   9.028   7.891 -0.6008 -0.6917  0.4330
  855MOL0     H15411   9.769   8.788   8.176  0.5439 -1.0083 -0.7603
  855MOL0     H15412   9.532   8.691   8.200  0.7397 -0.3593  0.5790
  855MOL0     H15413   9.390   8.463   7.916 -1.4149 -1.3510 -0.4045
  855MOL0     H15414   9.319   8.595   7.820 -0.1595 -0.0041  0.0654
  855MOL0     H15415   9.145   8.473   7.874  0.5741 -1.8168  1.1032
  855MOL0     H15416   9.139   8.624   7.963  1.1563  0.5277 -2.2059
  855MOL0     H15417   9.237   8.499   8.172  0.1716  1.1491 -1.2717
  855MOL0     H15418   9.235   8.350   8.090  2.0315  1.1592  0.6845
  855MOL0     H15419   9.033   8.399   8.249  1.4055 -1.6645 -0.2099
  855MOL0     H15420   9.003   8.537   8.153  0.2726 -1.3903 -0.0087
  855MOL0     H15421   8.805   8.255   7.912  2.7542 -2.2616 -2.1689
  855MOL0     H15422   9.480   8.722   7.783 -0.5316 -0.6083  0.7216
  855MOL0     H15423   9.769   8.929   7.705 -1.2723  1.4910  1.3660
  855MOL0     H15424   9.753   8.750   7.663 -0.6236  1.0102 -1.9955
  855MOL0     H15425   9.621   8.859   7.643  0.2457 -2.7500 -0.9145
  856MOL0     O15426   9.249   3.635   1.513  0.1580  0.1311  0.5022
  856MOL0     C15427   9.239   3.750   1.554  0.1100  0.4663  0.2244
  856MOL0     O15428   9.342   3.846   1.561  0.3680 -0.3856  0.5981
  856MOL0     C15429   9.466   3.816   1.526 -0.3747  0.2876  0.4540
  856MOL0     C15430   9.544   3.923   1.482  0.2084  0.8940 -0.4697
  856MOL0     C15431   9.682   3.910   1.483  0.0394  0.1674 -0.5678
  856MOL0     C15432   9.745   3.785   1.507  0.1970  0.8979 -0.0215
  856MOL0     O15433   9.879   3.762   1.508  0.1070  0.4244 -0.4428
  856MOL0     C15434   9.963   3.878   1.461  0.7420 -0.4920 -0.8863
  856MOL0     C15435  10.114   3.840   1.454  0.3919 -0.1958  0.0307
  856MOL0     C15436  10.154   3.788   1.590  0.2998 -0.0045 -0.4169
  856MOL0     C15437  10.307   3.752   1.579  0.0465 -0.5659 -0.2712
  856MOL0     C15438  10.374   3.721   1.715 -0.1166 -0.0259  0.4944
  856MOL0     C15439  10.314   3.607   1.800 -0.3970  0.7069  0.0573
  856MOL0     C15440  10.398   3.589   1.920 -0.4634  0.1493  0.2670
  856MOL0     C15441  10.338   3.493   2.031  0.1373 -0.3784 -0.0064
  856MOL0     N15442  10.336   3.356   1.992 -0.0734 -0.4623  0.1755
  856MOL0     C15443  10.234   3.300   1.922 -0.4126  0.3324  0.5902
  856MOL0     C15444  10.264   3.173   1.906 -0.6284 -0.2724 -0.1998
  856MOL0     C15445  10.187   3.073   1.822 -0.6239  0.5814 -0.2667
  856MOL0     C15446  10.241   2.928   1.834  0.5111 -0.2167  0.2527
  856MOL0     C15447  10.380   2.911   1.774 -0.3299  0.5963  0.2353
  856MOL0     C15448  10.437   2.772   1.794 -0.6859 -0.4321  0.2657
  856MOL0     O15449  10.560   2.774   1.722  0.5854 -0.9790 -0.2482
  856MOL0     C15450  10.673   2.759   1.805 -0.2944  0.0767 -0.0292
  856MOL0     C15451  10.699   2.668   1.905 -0.5239  0.5413 -0.3322
  856MOL0     C15452  10.826   2.651   1.956  0.4387 -0.0276  0.5881
  856MOL0     C15453  10.940   2.731   1.912  0.6399 -0.0157 -0.6167
  856MOL0     C15454  11.067   2.721   1.985 -0.3567  0.9934  0.1004
  856MOL0     O15455  11.173   2.790   1.946 -0.0660 -0.7661 -0.2627
  856MOL0     C15456  11.304   2.756   1.969  0.4894  0.7392 -1.2484
  856MOL0     C15457  11.346   2.706   2.091 -0.0891  0.4200 -0.5558
  856MOL0     C15458  11.478   2.650   2.109  1.3700 -0.2626  0.2507
  856MOL0     C15459  11.572   2.658   2.006  0.4339 -0.2714  0.4706
  856MOL0     O15460  11.696   2.608   2.001 -1.7098 -0.3904 -0.7635
  856MOL0     C15461  11.735   2.506   2.095 -0.5299 -0.4926  0.9374
  856MOL0     C15462  11.889   2.479   2.092  0.3132 -0.8054  0.2897
  856MOL0     C15463  11.939   2.431   1.954 -0.8366  1.0058 -0.2041
  856MOL0     C15464  12.091   2.441   1.931 -0.2526 -0.7060 -0.2646
  856MOL0     C15465  12.116   2.442   1.781  0.0477  0.3798  0.8868
  856MOL0     C15466  12.140   2.583   1.717  0.7119 -0.2235 -0.4206
  856MOL0     C15467  12.149   2.592   1.567  0.2820  0.2396 -0.6284
  856MOL0     C15468  12.013   2.568   1.512 -0.4661 -0.4875 -0.4103
  856MOL0    Cl15469  12.036   2.531   1.337 -0.0377  0.0961 -0.0168
  856MOL0     C15470  11.530   2.710   1.885  0.3440 -0.0665  0.3244
  856MOL0     C15471  11.403   2.768   1.871  0.3584  0.3822 -0.6160
  856MOL0     O15472  11.072   2.617   2.048  0.6111  0.0125  0.0727
  856MOL0     C15473  10.918   2.809   1.802  0.1967 -0.6352  0.2886
  856MOL0     C15474  10.787   2.825   1.754  0.9964 -0.3389 -0.4149
  856MOL0     N15475  10.381   3.150   1.977 -0.0163 -0.2154 -0.3550
  856MOL0     N15476  10.426   3.265   2.025 -0.6855  1.0449  0.0531
  856MOL0     C15477   9.661   3.682   1.532 -0.2119 -0.2008  0.5509
  856MOL0     C15478   9.523   3.688   1.542  0.3253 -0.3640  0.6439
  856MOL0     C15479   9.115   3.773   1.633 -0.6812  0.0400  0.7072
  856MOL0     C15480   9.000   3.702   1.578  0.2216  1.1284  0.0662
  856MOL0     C15481   8.879   3.719   1.632 -0.6249 -0.3043  1.6035
  856MOL0     C15482   8.867   3.809   1.744  0.2993 -0.4889  1.2513
  856MOL0     O15483   8.741   3.835   1.789 -0.0304 -0.7051 -0.7684
  856MOL0     C15484   8.706   3.756   1.903  0.2120  0.9741 -0.2599
  856MOL0     C15485   8.726   3.818   2.041 -0.7117  0.1067  1.4735
  856MOL0     C15486   8.680   3.967   2.040 -0.4357 -1.8332  0.4050
  856MOL0     C15487   8.525   3.994   2.057  0.1906 -0.4280  0.3692
  856MOL0     C15488   8.469   3.915   2.168 -0.4594 -0.0727 -0.4773
  856MOL0     C15489   8.405   3.848   2.249  0.2480  0.2144  0.1371
  856MOL0     C15490   8.976   3.882   1.799  0.1784  0.3727  0.1864
  856MOL0     C15491   9.103   3.863   1.740  0.0231 -0.7846 -0.2312
  856MOL0     C15492   9.217   3.952   1.791 -0.6894 -0.6929  0.2193
  856MOL0     H15493   9.491   4.018   1.486  0.4367  0.9859  2.6537
  856MOL0     H15494   9.741   4.000   1.466 -0.5596  1.6809  3.8237
  856MOL0     H15495   9.926   3.909   1.364  2.0500  0.8518 -0.9874
  856MOL0     H15496   9.958   3.969   1.522  0.7042 -1.4037  0.5375
  856MOL0     H15497  10.170   3.923   1.409 -2.7920  1.4252 -1.2850
  856MOL0     H15498  10.116   3.752   1.388 -0.0561 -1.9168  2.1848
  856MOL0     H15499  10.099   3.700   1.624  1.2828 -1.0442 -1.4385
  856MOL0     H15500  10.152   3.870   1.662  2.2508  0.0948 -0.4100
  856MOL0     H15501  10.309   3.665   1.513  0.0638 -0.0684 -0.9272
  856MOL0     H15502  10.357   3.832   1.525  1.3578 -1.8314 -1.0020
  856MOL0     H15503  10.477   3.691   1.692  0.0441  0.8846  0.0065
  856MOL0     H15504  10.376   3.808   1.781  0.8748  0.2069  0.1824
  856MOL0     H15505  10.219   3.641   1.843 -0.1016 -0.2366  1.5310
  856MOL0     H15506  10.299   3.518   1.740  1.1093  0.9942 -0.7827
  856MOL0     H15507  10.414   3.685   1.971  1.2591 -0.2784  0.5912
  856MOL0     H15508  10.498   3.559   1.887 -0.9948  0.9548 -2.2471
  856MOL0     H15509  10.390   3.505   2.126  2.8853 -0.3087 -1.4269
  856MOL0     H15510  10.235   3.527   2.046  1.1546  1.6571  3.8039
  856MOL0     H15511  10.160   3.345   1.857 -1.6439 -1.2209  0.8491
  856MOL0     H15512  10.081   3.087   1.843 -0.7060  0.6238 -0.7053
  856MOL0     H15513  10.198   3.100   1.716  0.3636 -0.2123 -0.3847
  856MOL0     H15514  10.256   2.902   1.939  1.9604 -1.2053 -0.1587
  856MOL0     H15515  10.175   2.855   1.786 -0.7560  2.5534 -2.6360
  856MOL0     H15516  10.451   2.983   1.816  0.6466 -0.9569  1.3638
  856MOL0     H15517  10.373   2.931   1.666  0.8249 -1.1569 -0.2169
  856MOL0     H15518  10.372   2.694   1.753 -1.6708  1.1389 -1.2784
  856MOL0     H15519  10.454   2.764   1.902 -0.8183  0.0293  0.3257
  856MOL0     H15520  10.621   2.593   1.918  1.5816 -2.1610 -2.2041
  856MOL0     H15521  10.836   2.576   2.033 -1.1230  0.3210  1.1626
  856MOL0     H15522  11.271   2.703   2.169 -2.1360 -1.7798 -2.4558
  856MOL0     H15523  11.495   2.603   2.205  1.2367 -3.0283 -1.0069
  856MOL0     H15524  11.705   2.547   2.192  0.7727  1.0539  0.7282
  856MOL0     H15525  11.685   2.412   2.069 -2.6352  1.0570 -1.1270
  856MOL0     H15526  11.942   2.570   2.120 -0.3958 -0.4950  0.6546
  856MOL0     H15527  11.922   2.399   2.159  1.1681 -0.4367  0.3160
  856MOL0     H15528  11.905   2.329   1.931  0.9830 -0.3585  2.5877
  856MOL0     H15529  11.895   2.495   1.877 -0.1941  0.3449 -1.1514
  856MOL0     H15530  12.141   2.362   1.989  1.9478  1.8824  1.6262
  856MOL0     H15531  12.117   2.539   1.973 -0.5565  0.1707 -2.0181
  856MOL0     H15532  12.031   2.391   1.736  2.5095 -1.7091 -1.8044
  856MOL0     H15533  12.204   2.379   1.761 -1.0271 -1.2205  0.9984
  856MOL0     H15534  12.074   2.661   1.756 -0.0954 -1.9726  1.9977
  856MOL0     H15535  12.236   2.617   1.756 -0.2755  0.9562  1.1000
  856MOL0     H15536  12.219   2.520   1.523  1.6508 -0.5002  2.4979
  856MOL0     H15537  12.191   2.689   1.541  0.8407  0.7064  1.7519
  856MOL0     H15538  11.973   2.478   1.560  1.2444 -1.5784 -0.9471
  856MOL0     H15539  11.947   2.653   1.534 -0.5682 -1.0761  1.7928
  856MOL0     H15540  11.607   2.718   1.809  0.9092  1.2599  0.9903
  856MOL0     H15541  11.380   2.800   1.770 -3.5910  3.2113  0.9138
  856MOL0     H15542  11.003   2.859   1.756 -0.1037 -0.5770 -0.2150
  856MOL0     H15543  10.791   2.889   1.667  3.4382  0.6586  0.3477
  856MOL0     H15544   9.711   3.590   1.562  2.8988  1.3392  0.5022
  856MOL0     H15545   9.467   3.605   1.585 -0.3470  1.5300  3.7770
  856MOL0     H15546   9.015   3.641   1.490 -0.4379 -0.5184  1.0377
  856MOL0     H15547   8.794   3.671   1.584  0.9353 -0.2033 -1.4590
  856MOL0     H15548   8.751   3.657   1.891 -2.9206 -0.3495 -2.2814
  856MOL0     H15549   8.599   3.735   1.904 -0.2932  3.2466  1.5779
  856MOL0     H15550   8.832   3.812   2.069 -0.1473  3.7380  0.5255
  856MOL0     H15551   8.678   3.762   2.122  2.2972 -0.1988  3.2070
  856MOL0     H15552   8.720   4.026   1.958  0.9061  2.1947  3.6080
  856MOL0     H15553   8.723   4.023   2.123 -0.5594  2.1241 -1.9700
  856MOL0     H15554   8.496   4.099   2.068 -1.4296 -0.4436 -2.8778
  856MOL0     H15555   8.472   3.962   1.967  1.7580 -3.9299  0.5303
  856MOL0     H15556   8.340   3.785   2.308  0.7415 -0.2113  0.2336
  856MOL0     H15557   8.965   3.955   1.879 -2.2117  0.2223  0.0693
  856MOL0     H15558   9.238   4.031   1.719 -2.1508  0.6683  1.2109
  856MOL0     H15559   9.196   4.001   1.887  1.7095  0.5893  0.1610
  856MOL0     H15560   9.306   3.888   1.788  1.0565  1.6567 -2.1758
  857MOL0     O15561   3.747   4.072   9.070  0.5768 -0.2859 -0.3769
  857MOL0     C15562   3.737   4.060   9.190 -0.2411  0.0471 -0.4476
  857MOL0     O15563   3.711   3.933   9.253  0.3217  0.2345  0.3858
  857MOL0     C15564   3.691   3.831   9.171 -0.3798  0.2692  0.4989
  857MOL0     C15565   3.788   3.766   9.091  0.3859 -0.3512 -0.2201
  857MOL0     C15566   3.746   3.657   9.016 -0.1263  0.1478  0.0319
  857MOL0     C15567   3.609   3.607   9.009 -0.0103 -0.9636 -1.3669
  857MOL0     O15568   3.598   3.485   8.947  0.8305 -0.0013 -0.2281
  857MOL0     C15569   3.483   3.407   8.978  0.5691  0.2725 -0.3371
  857MOL0     C15570   3.496   3.261   8.938  0.1599  0.0765  0.3167
  857MOL0     C15571   3.471   3.236   8.782 -0.8434 -0.1732 -0.2660
  857MOL0     C15572   3.400   3.102   8.766  0.3719  0.0631 -0.0528
  857MOL0     C15573   3.395   3.048   8.623 -0.2939  0.9206  0.2395
  857MOL0     C15574   3.526   3.013   8.560  0.1478 -0.1101  0.1970
  857MOL0     C15575   3.613   2.914   8.628 -0.0776  0.6093 -0.3646
  857MOL0     C15576   3.532   2.784   8.643 -0.5199  0.7743  0.7946
  857MOL0     N15577   3.609   2.674   8.710  0.5745 -0.3795  0.2892
  857MOL0     C15578   3.727   2.629   8.682 -0.2876  0.4525  0.5429
  857MOL0     C15579   3.757   2.547   8.790 -0.3221  0.9502 -0.4131
  857MOL0     C15580   3.875   2.461   8.810 -0.2421  0.1400  0.5084
  857MOL0     C15581   3.996   2.525   8.868  0.1723 -0.1718  0.4893
  857MOL0     C15582   4.108   2.420   8.875 -0.1524  0.3413  0.0141
  857MOL0     C15583   4.243   2.487   8.908 -0.0681 -0.6245  0.1637
  857MOL0     O15584   4.252   2.547   9.039  0.4472 -0.3085 -0.3188
  857MOL0     C15585   4.382   2.546   9.087 -0.2191  0.5803 -0.7037
  857MOL0     C15586   4.489   2.587   9.003  0.2755 -0.4155 -0.4576
  857MOL0     C15587   4.621   2.579   9.041  0.0285  0.6381  0.0213
  857MOL0     C15588   4.646   2.540   9.175 -0.8852 -0.2093  0.4738
  857MOL0     C15589   4.793   2.537   9.220 -0.5679  0.1292 -0.0506
  857MOL0     O15590   4.883   2.608   9.143 -0.0454 -0.0169  0.0868
  857MOL0     C15591   5.014   2.607   9.180  0.9220  0.5060  0.8885
  857MOL0     C15592   5.086   2.499   9.238  0.4422  0.2372  0.8283
  857MOL0     C15593   5.226   2.512   9.263  0.4665 -0.2850  0.2389
  857MOL0     C15594   5.295   2.622   9.225 -1.0772  0.1394  0.4949
  857MOL0     O15595   5.430   2.628   9.249  0.5015  0.0054 -0.1955
  857MOL0     C15596   5.499   2.753   9.237  0.3581  0.1022  0.7583
  857MOL0     C15597   5.644   2.713   9.278 -0.6691  0.1387  0.0224
  857MOL0     C15598   5.742   2.827   9.248 -0.9438 -0.1301 -1.8877
  857MOL0     C15599   5.875   2.770   9.190 -0.7522  0.3448 -0.5658
  857MOL0     C15600   5.985   2.879   9.166 -0.2444 -0.1825 -0.0075
  857MOL0     C15601   6.120   2.831   9.128 -0.6292  0.5054  0.9624
  857MOL0     C15602   6.212   2.944   9.075 -0.4944 -0.9121  0.8396
  857MOL0     C15603   6.340   2.873   9.039  0.1651 -0.2656 -0.2510
  857MOL0    Cl15604   6.428   2.843   9.198 -0.1460 -0.1630 -0.7387
  857MOL0     C15605   5.223   2.726   9.157  1.3306  1.1683 -1.5360
  857MOL0     C15606   5.081   2.718   9.139  0.3979  0.5723 -0.2049
  857MOL0     O15607   4.819   2.470   9.329 -0.4349 -0.5779  1.1299
  857MOL0     C15608   4.540   2.513   9.255  0.6237 -0.1760 -0.4318
  857MOL0     C15609   4.408   2.504   9.219  0.7164  0.1081 -0.1053
  857MOL0     N15610   3.643   2.540   8.872 -0.0381  0.3432  0.5012
  857MOL0     N15611   3.560   2.632   8.831  0.3069 -0.2469  0.4323
  857MOL0     C15612   3.511   3.679   9.082 -0.0022  0.9205 -0.7027
  857MOL0     C15613   3.558   3.778   9.169  0.0981  1.0623 -0.3575
  857MOL0     C15614   3.774   4.176   9.273 -0.1236  0.0213 -0.3865
  857MOL0     C15615   3.696   4.295   9.251 -0.0524  0.4651 -0.1123
  857MOL0     C15616   3.694   4.396   9.354  0.9645 -1.6736 -0.0279
  857MOL0     C15617   3.786   4.392   9.464  0.5360  0.0617 -0.2263
  857MOL0     O15618   3.801   4.493   9.555 -1.3030  0.3125 -0.2351
  857MOL0     C15619   3.726   4.619   9.554  0.4031 -0.3070 -0.2180
  857MOL0     C15620   3.793   4.709   9.458 -0.5338  0.8973 -0.1179
  857MOL0     C15621   3.745   4.851   9.473  0.0746  0.2356  0.6213
  857MOL0     C15622   3.752   4.909   9.619  0.1630  0.0623  0.1915
  857MOL0     C15623   3.889   4.905   9.671 -0.6525 -0.2226  0.0910
  857MOL0     C15624   4.006   4.904   9.720  0.3830  0.7094  0.5215
  857MOL0     C15625   3.872   4.286   9.477 -0.2052  0.3811  0.5116
  857MOL0     C15626   3.866   4.174   9.385 -0.4678 -1.1308  1.1758
  857MOL0     C15627   3.956   4.060   9.417 -0.4342  0.1408  0.1715
  857MOL0     H15628   3.884   3.815   9.097 -0.3678  0.9800  3.0068
  857MOL0     H15629   3.815   3.609   8.947 -0.1235  0.8009 -0.4244
  857MOL0     H15630   3.485   3.400   9.087 -1.0188  1.6853 -0.1745
  857MOL0     H15631   3.389   3.450   8.942  0.3090 -0.5257 -0.6275
  857MOL0     H15632   3.417   3.207   8.991 -1.4754  1.0037 -1.0829
  857MOL0     H15633   3.586   3.202   8.960  0.4062  1.0705  2.1003
  857MOL0     H15634   3.567   3.241   8.730  0.7863 -4.0964  1.9366
  857MOL0     H15635   3.400   3.308   8.740 -0.2651 -0.3703 -1.6529
  857MOL0     H15636   3.456   3.034   8.831  2.1026 -1.0195 -2.5074
  857MOL0     H15637   3.295   3.104   8.800 -1.4432 -2.2500 -4.6295
  857MOL0     H15638   3.326   2.963   8.628 -0.6719  1.2920  2.4501
  857MOL0     H15639   3.342   3.120   8.559  0.5019 -0.6793 -2.3653
  857MOL0     H15640   3.512   2.984   8.455  0.5302  2.3813 -0.6087
  857MOL0     H15641   3.583   3.105   8.542 -3.7381  2.6124  0.3665
  857MOL0     H15642   3.650   2.949   8.724  0.8579 -3.8825  1.1385
  857MOL0     H15643   3.707   2.898   8.575  1.8865  2.2163  2.3884
  857MOL0     H15644   3.444   2.797   8.707  0.3779 -1.7167  2.6988
  857MOL0     H15645   3.498   2.746   8.546  1.0119  1.0607  0.1106
  857MOL0     H15646   3.777   2.650   8.587 -1.1325  1.6978  0.3505
  857MOL0     H15647   3.839   2.392   8.887  1.4129 -0.0360  1.1667
  857MOL0     H15648   3.901   2.408   8.718 -1.9942 -0.2306  0.1820
  857MOL0     H15649   4.026   2.610   8.806  0.5270  0.0047  0.9004
  857MOL0     H15650   3.970   2.564   8.967 -1.2297  1.2429 -0.3886
  857MOL0     H15651   4.123   2.368   8.780 -2.2882 -1.2559  0.4810
  857MOL0     H15652   4.085   2.344   8.950  0.7283  0.2132  0.1744
  857MOL0     H15653   4.265   2.562   8.831 -1.7678 -0.0645  0.1956
  857MOL0     H15654   4.315   2.405   8.895 -0.5863 -1.5992  2.8247
  857MOL0     H15655   4.466   2.609   8.899  1.1590  0.3202 -0.5080
  857MOL0     H15656   4.696   2.594   8.964  2.7185 -1.7510  1.9540
  857MOL0     H15657   5.040   2.403   9.258 -0.3274  0.3693 -0.1960
  857MOL0     H15658   5.289   2.427   9.288  2.2230  0.7833 -0.3503
  857MOL0     H15659   5.504   2.792   9.135  4.2340  1.8296  1.4295
  857MOL0     H15660   5.464   2.835   9.300  0.2196  1.5517 -1.1082
  857MOL0     H15661   5.646   2.683   9.384  0.1290 -0.3958 -0.1412
  857MOL0     H15662   5.683   2.634   9.214  3.6244  1.0390  1.2041
  857MOL0     H15663   5.698   2.907   9.187  0.0955  3.2366  1.3867
  857MOL0     H15664   5.769   2.874   9.343 -0.3022 -0.8212 -1.7171
  857MOL0     H15665   5.854   2.714   9.098  3.8388 -1.0835 -1.0267
  857MOL0     H15666   5.925   2.706   9.262  0.6721  0.7636 -1.1378
  857MOL0     H15667   6.005   2.943   9.253  1.2350  1.7822 -1.7102
  857MOL0     H15668   5.965   2.948   9.083  1.0079  0.5876  0.2992
  857MOL0     H15669   6.154   2.783   9.220 -1.5187 -0.8514  0.6154
  857MOL0     H15670   6.107   2.763   9.043 -1.1819  0.8039  0.8058
  857MOL0     H15671   6.241   3.012   9.154  0.1990 -0.0472 -0.1389
  857MOL0     H15672   6.152   3.003   9.004 -1.0380  0.0636  2.0859
  857MOL0     H15673   6.310   2.778   8.994 -1.7371  0.9877 -1.7584
  857MOL0     H15674   6.405   2.935   8.976  1.1325 -1.0871 -0.1035
  857MOL0     H15675   5.267   2.820   9.126  1.1685  0.6991 -3.3322
  857MOL0     H15676   5.028   2.805   9.101 -1.6651 -0.8005 -0.6273
  857MOL0     H15677   4.564   2.469   9.352  1.1735 -3.9263 -2.1131
  857MOL0     H15678   4.335   2.470   9.291  2.2543  1.0506  2.0116
  857MOL0     H15679   3.405   3.656   9.081  0.5788 -2.4259 -3.1297
  857MOL0     H15680   3.488   3.828   9.234 -0.7290  1.7612 -1.7295
  857MOL0     H15681   3.636   4.289   9.161  0.0664 -0.1414 -0.1550
  857MOL0     H15682   3.634   4.483   9.330  2.7273 -0.3993 -0.0635
  857MOL0     H15683   3.723   4.662   9.654 -2.2455  0.3719 -0.5036
  857MOL0     H15684   3.620   4.601   9.531  1.0541 -2.8497 -1.6902
  857MOL0     H15685   3.763   4.670   9.360 -1.3674  0.9846  0.0964
  857MOL0     H15686   3.900   4.709   9.478 -0.9161 -2.4563  3.1119
  857MOL0     H15687   3.640   4.851   9.443 -0.6789 -0.2030  3.0378
  857MOL0     H15688   3.795   4.907   9.393 -0.6175 -2.2286 -1.6946
  857MOL0     H15689   3.723   5.014   9.606 -2.0902 -0.6632 -1.2700
  857MOL0     H15690   3.673   4.867   9.683 -2.1777  2.7601 -0.7012
  857MOL0     H15691   4.099   4.926   9.768  0.5044 -1.6534  1.5093
  857MOL0     H15692   3.939   4.279   9.562 -1.5141 -3.5631  1.4225
  857MOL0     H15693   3.951   4.042   9.525  0.0278  0.7827  0.3069
  857MOL0     H15694   3.923   3.964   9.375  2.1800 -1.7883  2.1444
  857MOL0     H15695   4.062   4.069   9.392 -0.5180  0.3032 -0.1258
  858MOL0     O15696  10.511   4.408   3.744  0.0855  0.8208  0.1171
  858MOL0     C15697  10.458   4.292   3.766 -0.5048 -0.1400  0.3883
  858MOL0     O15698  10.523   4.184   3.822  0.0365 -0.5593  0.6974
  858MOL0     C15699  10.654   4.199   3.826 -0.6420  0.4411 -0.9806
  858MOL0     C15700  10.747   4.165   3.725  0.6563 -0.8573  0.3264
  858MOL0     C15701  10.881   4.172   3.742 -0.4338 -0.2925  0.9931
  858MOL0     C15702  10.942   4.213   3.860  0.5105 -0.6936  0.5574
  858MOL0     O15703  11.083   4.216   3.852  0.8455  0.2462  0.1914
  858MOL0     C15704  11.150   4.317   3.934  0.1266  0.5710 -0.5918
  858MOL0     C15705  11.298   4.308   3.917  0.1270 -1.0890 -0.2809
  858MOL0     C15706  11.368   4.432   3.981 -0.5344  0.4826  0.2018
  858MOL0     C15707  11.522   4.418   3.977 -1.0504  0.1094  0.7211
  858MOL0     C15708  11.591   4.529   4.049  0.4142  0.2340 -0.1165
  858MOL0     C15709  11.574   4.668   3.974  0.0164 -0.0734 -0.0186
  858MOL0     C15710  11.619   4.778   4.083  0.2577 -0.1025  0.6656
  858MOL0     C15711  11.570   4.925   4.040 -0.6553  0.0338 -1.0054
  858MOL0     N15712  11.610   5.024   4.135 -0.5886 -0.5502 -0.7688
  858MOL0     C15713  11.692   5.139   4.117  0.0591 -0.6185 -0.0169
  858MOL0     C15714  11.674   5.199   4.244  0.2150  0.6357  0.2637
  858MOL0     C15715  11.744   5.322   4.298 -0.1763  0.5966  0.0654
  858MOL0     C15716  11.882   5.285   4.350 -0.2324  0.8430 -0.0457
  858MOL0     C15717  11.930   5.386   4.435  0.0400 -0.1745  0.0396
  858MOL0     C15718  12.045   5.341   4.529 -0.4306  0.3605  0.4493
  858MOL0     O15719  12.144   5.263   4.455 -0.2754 -0.1101 -0.1317
  858MOL0     C15720  12.282   5.260   4.481  0.7772 -0.6163  0.2320
  858MOL0     C15721  12.368   5.178   4.405 -0.6125 -0.2180  0.1940
  858MOL0     C15722  12.503   5.161   4.437  0.1147 -0.7334  0.3985
  858MOL0     C15723  12.564   5.230   4.542  0.9148 -0.2589  0.7928
  858MOL0     C15724  12.705   5.212   4.577  0.4382  0.1193  0.4577
  858MOL0     O15725  12.758   5.306   4.659  0.1699  0.1311 -0.6804
  858MOL0     C15726  12.893   5.316   4.680 -0.2364  0.2494  0.6836
  858MOL0     C15727  12.937   5.329   4.808 -0.2793 -0.4807 -0.5462
  858MOL0     C15728  13.072   5.336   4.845 -0.7221  0.7506  1.1340
  858MOL0     C15729  13.169   5.315   4.744  0.5198  0.4235 -0.0338
  858MOL0     O15730  13.301   5.300   4.766 -0.2357 -0.6341  0.7648
  858MOL0     C15731  13.341   5.294   4.909 -0.1498 -0.2437 -1.1359
  858MOL0     C15732  13.487   5.255   4.935 -0.5319 -0.9459  0.9595
  858MOL0     C15733  13.602   5.334   4.867 -0.2693  1.2249 -0.1903
  858MOL0     C15734  13.725   5.281   4.928  0.3549  0.1969 -0.2565
  858MOL0     C15735  13.840   5.374   4.907 -0.9407 -0.5316  0.1246
  858MOL0     C15736  13.976   5.326   4.952  0.1206 -0.5579  0.0703
  858MOL0     C15737  13.991   5.326   5.104  1.2339  0.8220  0.3838
  858MOL0     C15738  14.132   5.289   5.139 -0.7133  0.1315  0.6852
  858MOL0    Cl15739  14.173   5.126   5.077  0.6364 -0.3212 -0.0103
  858MOL0     C15740  13.125   5.299   4.609 -0.6671  0.8092 -0.1518
  858MOL0     C15741  12.990   5.309   4.574  0.1867  1.0167  0.5121
  858MOL0     O15742  12.766   5.116   4.525  0.1722 -0.4924  0.1483
  858MOL0     C15743  12.483   5.336   4.603  0.9401 -0.0768  0.2227
  858MOL0     C15744  12.348   5.341   4.578 -0.8676 -0.5152  0.1835
  858MOL0     N15745  11.582   5.138   4.326 -0.2579  0.0165  1.4307
  858MOL0     N15746  11.539   5.039   4.258  0.5429 -0.5290 -0.1631
  858MOL0     C15747  10.853   4.236   3.976  0.3285  0.7482  0.2964
  858MOL0     C15748  10.706   4.217   3.956  0.0999 -0.4138 -0.0659
  858MOL0     C15749  10.315   4.266   3.731  0.3609 -0.6107  0.3763
  858MOL0     C15750  10.275   4.145   3.662  0.0287  0.8470 -0.2195
  858MOL0     C15751  10.148   4.111   3.625  0.1046  0.8952 -0.3989
  858MOL0     C15752  10.044   4.201   3.658 -0.2484  0.0440  0.5004
  858MOL0     O15753   9.915   4.176   3.625  0.6244 -1.2651  0.1879
  858MOL0     C15754   9.855   4.047   3.631 -0.1750  0.6869  0.1719
  858MOL0     C15755   9.718   4.067   3.679  0.3876 -0.6024  0.1305
  858MOL0     C15756   9.624   4.100   3.557 -0.5272 -0.5462 -0.5640
  858MOL0     C15757   9.567   3.980   3.483  0.5064 -0.0046 -0.0054
  858MOL0     C15758   9.466   4.036   3.387  0.2397  0.2626  0.0259
  858MOL0     C15759   9.378   4.101   3.332 -0.0992 -0.2193 -0.6416
  858MOL0     C15760  10.075   4.320   3.720 -0.6223 -0.9898  0.1464
  858MOL0     C15761  10.207   4.354   3.755 -0.1089 -0.1404  0.2050
  858MOL0     C15762  10.213   4.491   3.821  0.3123  0.5050 -0.0484
  858MOL0     H15763  10.699   4.130   3.634 -1.8304  0.1761  1.1490
  858MOL0     H15764  10.939   4.161   3.651 -1.7919  0.9915 -0.0624
  858MOL0     H15765  11.124   4.419   3.904  2.6891  2.2284  2.2626
  858MOL0     H15766  11.119   4.312   4.038 -1.8580 -2.6843 -1.1997
  858MOL0     H15767  11.322   4.307   3.811  0.5191  0.8864 -0.2348
  858MOL0     H15768  11.339   4.223   3.973  0.3628 -0.2273  0.8915
  858MOL0     H15769  11.340   4.450   4.085  1.1258  0.0973  0.7498
  858MOL0     H15770  11.346   4.522   3.924  4.5981  1.9786  0.0031
  858MOL0     H15771  11.561   4.327   4.024 -1.3784 -1.0942 -1.2296
  858MOL0     H15772  11.554   4.426   3.873  0.8166  2.4025  1.3747
  858MOL0     H15773  11.564   4.537   4.155  0.5852 -2.1676  0.1461
  858MOL0     H15774  11.700   4.513   4.051  0.6428  1.6080  0.1292
  858MOL0     H15775  11.632   4.676   3.882 -0.6866  2.8434 -0.3288
  858MOL0     H15776  11.476   4.692   3.931  0.1664 -3.1217 -2.4062
  858MOL0     H15777  11.728   4.783   4.089  0.3937  1.2021 -1.6884
  858MOL0     H15778  11.584   4.744   4.181 -0.3058 -0.5037  0.3269
  858MOL0     H15779  11.602   4.951   3.938  0.8718  0.4557 -0.4374
  858MOL0     H15780  11.460   4.926   4.045 -0.5992  2.3455  2.0343
  858MOL0     H15781  11.758   5.143   4.030  2.1897 -0.2877  1.5325
  858MOL0     H15782  11.765   5.390   4.215 -1.2996 -0.0211 -0.7491
  858MOL0     H15783  11.677   5.372   4.368 -2.0417  0.8711 -1.8119
  858MOL0     H15784  11.874   5.196   4.414 -2.8558  1.0697  0.0388
  858MOL0     H15785  11.941   5.278   4.259  0.2511  1.9414  0.1646
  858MOL0     H15786  11.855   5.421   4.507  1.2059  0.0125  1.1937
  858MOL0     H15787  11.966   5.467   4.370 -0.0060  1.9964  2.5679
  858MOL0     H15788  12.008   5.284   4.615 -0.9094 -0.0648 -0.0338
  858MOL0     H15789  12.094   5.429   4.572 -1.4134 -0.8261  4.4005
  858MOL0     H15790  12.321   5.118   4.327 -0.9739 -0.3330  0.4932
  858MOL0     H15791  12.547   5.080   4.379  0.0733 -0.2232 -0.3568
  858MOL0     H15792  12.863   5.357   4.883  1.2837 -0.5937  1.1052
  858MOL0     H15793  13.107   5.327   4.948  1.1259 -3.6082  0.3629
  858MOL0     H15794  13.335   5.387   4.967 -0.3360 -0.1478 -1.3097
  858MOL0     H15795  13.291   5.210   4.957  0.5509 -0.9412 -1.5946
  858MOL0     H15796  13.491   5.290   5.038 -2.3285 -2.3583  1.5481
  858MOL0     H15797  13.494   5.146   4.922 -1.4728 -0.7613 -1.9480
  858MOL0     H15798  13.594   5.330   4.758  0.3670 -1.2418 -0.2094
  858MOL0     H15799  13.595   5.441   4.888  0.2089  1.6350 -1.9666
  858MOL0     H15800  13.736   5.184   4.878 -0.3961 -0.9596  1.7189
  858MOL0     H15801  13.718   5.261   5.035 -0.0376  1.6323  0.0059
  858MOL0     H15802  13.807   5.462   4.963 -0.5514 -0.8746  0.9077
  858MOL0     H15803  13.843   5.411   4.804 -3.3670 -0.1866  0.1182
  858MOL0     H15804  14.002   5.226   4.918  3.5234 -0.2362  1.3100
  858MOL0     H15805  14.048   5.396   4.907 -1.6324  0.0890 -1.8958
  858MOL0     H15806  13.915   5.255   5.139 -0.6583  1.8614 -1.3660
  858MOL0     H15807  13.979   5.427   5.144 -1.7795 -0.4616  3.1259
  858MOL0     H15808  14.208   5.363   5.111 -1.3745  2.0806  3.5205
  858MOL0     H15809  14.153   5.280   5.246 -0.2068 -1.3138  0.4821
  858MOL0     H15810  13.197   5.290   4.528 -1.7667  0.6878 -1.1289
  858MOL0     H15811  12.962   5.286   4.472  3.8656 -2.5709  0.0803
  858MOL0     H15812  12.508   5.408   4.681  0.4097  0.0670  0.2618
  858MOL0     H15813  12.289   5.424   4.615 -1.3669 -0.7117 -0.1568
  858MOL0     H15814  10.896   4.236   4.076  1.1113 -3.0803  0.0832
  858MOL0     H15815  10.640   4.239   4.039 -0.3817  2.8287 -1.1950
  858MOL0     H15816  10.354   4.077   3.632 -1.1274 -0.9773  0.6953
  858MOL0     H15817  10.122   4.014   3.584 -2.5912  0.9064  1.0309
  858MOL0     H15818   9.913   3.995   3.709  3.0738  4.6248  0.7617
  858MOL0     H15819   9.879   3.999   3.536  3.1310  1.3247  0.5303
  858MOL0     H15820   9.706   4.134   3.765 -0.0401 -0.1227 -0.2985
  858MOL0     H15821   9.691   3.972   3.726 -1.6211 -0.2654 -0.2532
  858MOL0     H15822   9.678   4.173   3.496 -0.4990 -2.5687 -3.1489
  858MOL0     H15823   9.535   4.150   3.595 -0.4195 -0.0507 -0.9636
  858MOL0     H15824   9.646   3.926   3.429  1.3229  2.1220 -1.0586
  858MOL0     H15825   9.519   3.909   3.551 -1.7392 -1.1341 -2.5694
  858MOL0     H15826   9.303   4.152   3.275  1.3190 -0.3249 -2.6927
  858MOL0     H15827   9.992   4.390   3.720 -1.0638 -1.4912  1.1942
  858MOL0     H15828  10.127   4.495   3.888  0.6504  1.5382  0.3448
  858MOL0     H15829  10.301   4.510   3.883  1.2243 -4.1949  0.5068
  858MOL0     H15830  10.203   4.571   3.747 -0.2156  1.4170  0.9811
  859MOL0     O15831   7.774   6.681   8.510  0.6118 -0.5687 -0.6448
  859MOL0     C15832   7.801   6.616   8.611  0.1141 -0.2316  0.0220
  859MOL0     O15833   7.920   6.547   8.621  0.0624 -0.9106 -1.0035
  859MOL0     C15834   8.017   6.581   8.527 -0.0541 -0.0938 -0.1020
  859MOL0     C15835   8.123   6.671   8.554 -0.1507 -0.2915  0.0524
  859MOL0     C15836   8.228   6.686   8.461  0.3010  0.6007 -0.1842
  859MOL0     C15837   8.231   6.619   8.350  0.4063 -0.1163  0.6944
  859MOL0     O15838   8.334   6.638   8.258 -0.2006 -0.1926  0.8754
  859MOL0     C15839   8.371   6.524   8.179  0.2070 -0.2485 -0.1354
  859MOL0     C15840   8.519   6.528   8.141 -0.0833  0.6507  0.3898
  859MOL0     C15841   8.597   6.501   8.269  0.5787 -1.2503 -0.4551
  859MOL0     C15842   8.754   6.500   8.243  0.0870 -1.1755 -0.2685
  859MOL0     C15843   8.824   6.400   8.345  0.2387  0.5342 -0.0985
  859MOL0     C15844   8.800   6.425   8.499  0.2458 -0.5454 -0.0069
  859MOL0     C15845   8.903   6.334   8.568 -0.7534 -0.3063 -0.5733
  859MOL0     C15846   8.913   6.346   8.716  0.1220 -0.0012  0.8353
  859MOL0     N15847   8.968   6.474   8.764  0.7216 -0.5841  1.1615
  859MOL0     C15848   9.097   6.509   8.793 -0.9691  0.2106 -0.5963
  859MOL0     C15849   9.089   6.646   8.811  0.0723 -0.0179 -0.4094
  859MOL0     C15850   9.203   6.726   8.846 -0.6351  0.1049 -0.0812
  859MOL0     C15851   9.318   6.702   8.750 -0.2023  0.2848  0.3314
  859MOL0     C15852   9.421   6.797   8.780  0.6352 -0.6406 -1.0348
  859MOL0     C15853   9.543   6.803   8.686 -0.2085 -0.2236  0.1372
  859MOL0     O15854   9.495   6.832   8.549  0.8473 -0.2450 -0.0628
  859MOL0     C15855   9.582   6.858   8.448 -0.3067 -0.2045 -1.1349
  859MOL0     C15856   9.720   6.827   8.462 -0.3775 -0.3260 -0.2159
  859MOL0     C15857   9.815   6.845   8.360  0.2223 -0.4805 -0.3037
  859MOL0     C15858   9.760   6.885   8.234 -0.6309  0.1719  0.2774
  859MOL0     C15859   9.856   6.884   8.113  0.6029  0.1579  0.5138
  859MOL0     O15860   9.986   6.875   8.138  0.5131 -0.2272  0.1156
  859MOL0     C15861  10.093   6.878   8.058 -0.2876  0.0771  0.0195
  859MOL0     C15862  10.088   6.917   7.924  0.4600 -0.0135 -0.8687
  859MOL0     C15863  10.204   6.924   7.848 -0.0780 -1.1649  0.0295
  859MOL0     C15864  10.327   6.907   7.905 -0.1796 -0.0244  0.5541
  859MOL0     O15865  10.436   6.920   7.826 -0.2214 -0.8916 -0.0415
  859MOL0     C15866  10.571   6.926   7.893  0.3493 -0.2386  0.9630
  859MOL0     C15867  10.681   6.931   7.777  0.3004 -0.1279 -0.8014
  859MOL0     C15868  10.823   6.865   7.823 -0.1211 -0.4247  0.3398
  859MOL0     C15869  10.898   6.806   7.698  0.6796 -0.5495 -0.1888
  859MOL0     C15870  10.959   6.914   7.610 -0.3238 -0.3101 -0.2844
  859MOL0     C15871  11.034   6.841   7.489  0.4526 -0.6998 -0.6127
  859MOL0     C15872  11.103   6.945   7.397  0.1399  0.3118 -0.2789
  859MOL0     C15873  11.227   6.892   7.323 -0.3712 -1.0622 -0.9446
  859MOL0    Cl15874  11.357   6.859   7.452 -0.1560 -0.2513  0.2878
  859MOL0     C15875  10.332   6.870   8.041  0.5418 -0.5887 -0.5037
  859MOL0     C15876  10.217   6.867   8.121  0.3470  0.3758 -0.5147
  859MOL0     O15877   9.799   6.889   8.002 -0.2032 -0.0217 -0.2858
  859MOL0     C15878   9.621   6.909   8.222 -0.0796 -0.4043  0.3105
  859MOL0     C15879   9.534   6.898   8.326 -0.1537 -0.3156  0.6166
  859MOL0     N15880   8.961   6.690   8.788  0.6750  0.4106 -0.4145
  859MOL0     N15881   8.889   6.588   8.766 -0.0078  0.4600  0.2163
  859MOL0     C15882   8.114   6.542   8.313  0.0426  0.2942 -0.0241
  859MOL0     C15883   8.012   6.517   8.406 -0.6206 -0.8578  0.6030
  859MOL0     C15884   7.704   6.626   8.728 -1.0594 -1.4677  0.4691
  859MOL0     C15885   7.578   6.666   8.689 -0.4499  0.4995  0.8655
  859MOL0     C15886   7.471   6.652   8.774  0.1474 -0.2392 -0.0251
  859MOL0     C15887   7.484   6.614   8.908  0.7770  0.5060  0.8838
  859MOL0     O15888   7.380   6.582   8.994 -0.8401  0.7987 -0.0248
  859MOL0     C15889   7.253   6.653   8.979 -0.3030  0.2325  0.4105
  859MOL0     C15890   7.184   6.666   9.114  0.3854 -0.1074  0.6314
  859MOL0     C15891   7.041   6.729   9.108  0.2514 -0.2171  1.0995
  859MOL0     C15892   6.951   6.700   9.227  0.4218  0.1671  0.3248
  859MOL0     C15893   6.812   6.674   9.177  0.3012 -0.6389 -1.1189
  859MOL0     C15894   6.708   6.648   9.133  0.4438  0.0176  0.1926
  859MOL0     C15895   7.617   6.593   8.945  0.2424  0.7985 -0.1133
  859MOL0     C15896   7.728   6.597   8.865 -1.0156 -1.4847  0.8586
  859MOL0     C15897   7.873   6.556   8.914 -0.5997 -0.2749 -0.1090
  859MOL0     H15898   8.138   6.724   8.648  0.6086 -1.5085  0.6459
  859MOL0     H15899   8.311   6.749   8.491  0.2618 -0.6951  3.1674
  859MOL0     H15900   8.337   6.435   8.233 -1.6117 -0.5330 -1.6590
  859MOL0     H15901   8.316   6.543   8.087  0.6915 -3.7048 -1.2945
  859MOL0     H15902   8.546   6.629   8.108  0.5601  0.1018 -0.8256
  859MOL0     H15903   8.542   6.456   8.062 -1.4133  2.6885 -2.0359
  859MOL0     H15904   8.574   6.403   8.312 -2.5559 -0.6387 -0.5454
  859MOL0     H15905   8.579   6.586   8.335  1.4695  0.2144 -2.0282
  859MOL0     H15906   8.779   6.468   8.142 -0.8855  0.1265 -0.9512
  859MOL0     H15907   8.793   6.599   8.269  2.7508 -1.6964 -1.8542
  859MOL0     H15908   8.796   6.298   8.319  0.6305 -0.4153  2.9288
  859MOL0     H15909   8.933   6.410   8.332  0.3549  2.0594  1.7078
  859MOL0     H15910   8.801   6.531   8.526 -0.6266  0.0359 -2.0408
  859MOL0     H15911   8.698   6.396   8.525  0.3077 -2.9682 -2.0215
  859MOL0     H15912   9.002   6.353   8.525  0.5832  1.5252  2.9023
  859MOL0     H15913   8.872   6.234   8.537  4.1896 -2.1400 -0.6429
  859MOL0     H15914   8.812   6.332   8.755 -1.2190  0.7638 -2.1249
  859MOL0     H15915   8.983   6.268   8.747 -0.6189 -0.1472  2.2421
  859MOL0     H15916   9.183   6.443   8.796 -0.8908  0.3103 -0.6286
  859MOL0     H15917   9.175   6.831   8.846  2.0364  0.9093 -0.9459
  859MOL0     H15918   9.241   6.692   8.943 -1.9464  0.5583  0.6196
  859MOL0     H15919   9.365   6.604   8.766  0.7581  0.2523 -2.2984
  859MOL0     H15920   9.284   6.708   8.647  2.9068 -1.7103 -0.9461
  859MOL0     H15921   9.472   6.780   8.875 -0.9532 -2.1166 -0.3868
  859MOL0     H15922   9.363   6.889   8.796  0.3123 -1.0370  0.1962
  859MOL0     H15923   9.586   6.703   8.687  0.9835  0.2331 -1.5281
  859MOL0     H15924   9.618   6.879   8.710  0.8668 -0.0634 -3.2277
  859MOL0     H15925   9.762   6.786   8.553  0.1486  2.9436  1.1590
  859MOL0     H15926   9.917   6.816   8.384  0.1771  0.1526  0.6948
  859MOL0     H15927   9.997   6.926   7.865 -0.2600 -0.0066  0.2263
  859MOL0     H15928  10.194   6.955   7.745  2.9559  2.1175  0.5035
  859MOL0     H15929  10.582   7.013   7.959 -0.2034 -1.4968  2.7449
  859MOL0     H15930  10.582   6.837   7.955  2.0012  0.1547  1.3038
  859MOL0     H15931  10.646   6.878   7.687 -0.9485 -0.3943 -0.1838
  859MOL0     H15932  10.691   7.036   7.748  2.6086  0.2927  1.2467
  859MOL0     H15933  10.885   6.938   7.876  1.2501 -0.7302 -0.7683
  859MOL0     H15934  10.802   6.782   7.891  2.1214 -0.9269  0.5258
  859MOL0     H15935  10.827   6.748   7.639  0.2674 -1.0730  0.8080
  859MOL0     H15936  10.975   6.747   7.748  0.8326  0.3355  0.6572
  859MOL0     H15937  11.035   6.975   7.659 -1.4069  0.8431  0.0093
  859MOL0     H15938  10.881   6.981   7.571  2.3080  1.8574 -2.1804
  859MOL0     H15939  11.099   6.765   7.533  0.8760  0.4915  0.9010
  859MOL0     H15940  10.943   6.796   7.449 -1.6497  1.0642  1.8892
  859MOL0     H15941  11.124   7.039   7.449 -1.1878  1.9879 -2.5712
  859MOL0     H15942  11.025   6.971   7.325 -0.6419 -0.4575  0.2764
  859MOL0     H15943  11.201   6.795   7.280  0.1681 -0.8510 -1.7649
  859MOL0     H15944  11.274   6.958   7.249 -0.9759  2.0680  1.2804
  859MOL0     H15945  10.419   6.848   8.102 -1.0644 -2.7936  1.1829
  859MOL0     H15946  10.224   6.828   8.222  0.0521 -0.0020 -0.6390
  859MOL0     H15947   9.581   6.936   8.125  1.6677 -1.4102 -0.7350
  859MOL0     H15948   9.431   6.922   8.306  0.2695  1.3391  0.2865
  859MOL0     H15949   8.106   6.494   8.216 -1.4269  0.0982  0.1757
  859MOL0     H15950   7.932   6.445   8.387  1.0201 -2.1742 -1.9385
  859MOL0     H15951   7.549   6.706   8.592 -1.1709 -1.2279  0.3211
  859MOL0     H15952   7.377   6.692   8.736  1.1125  1.7061 -0.4805
  859MOL0     H15953   7.195   6.604   8.901  0.0430 -0.3835  0.5395
  859MOL0     H15954   7.268   6.758   8.951  1.3459  0.1528  0.8889
  859MOL0     H15955   7.251   6.710   9.187  1.7236 -1.9610  0.5913
  859MOL0     H15956   7.173   6.561   9.141  1.2321  0.3488  2.9851
  859MOL0     H15957   6.993   6.676   9.025  2.7462 -0.7613 -0.0948
  859MOL0     H15958   7.055   6.835   9.085  0.0449 -0.8960 -3.0403
  859MOL0     H15959   6.987   6.614   9.283  1.0139  1.4629  2.0089
  859MOL0     H15960   6.946   6.783   9.298 -4.0734 -1.1130  1.8098
  859MOL0     H15961   6.608   6.623   9.103  1.6104 -2.2359 -2.1370
  859MOL0     H15962   7.611   6.565   9.050 -5.1105  0.9655 -0.0937
  859MOL0     H15963   7.893   6.457   8.871  3.2127  0.7546 -1.0575
  859MOL0     H15964   7.947   6.627   8.878 -1.4263  0.4293 -0.4708
  859MOL0     H15965   7.860   6.551   9.023  0.4632 -2.9914 -0.0372
  860MOL0     O15966  10.278   7.681   1.020  0.5883  0.1200 -0.3698
  860MOL0     C15967  10.238   7.568   1.038  0.5977  0.7531 -1.0164
  860MOL0     O15968  10.323   7.463   1.049  0.3653 -0.0289 -0.2631
  860MOL0     C15969  10.446   7.474   1.117  0.5052  0.2763 -0.0363
  860MOL0     C15970  10.460   7.561   1.230  0.5014  0.1038 -1.1471
  860MOL0     C15971  10.577   7.572   1.308 -0.2868  0.5384 -0.8211
  860MOL0     C15972  10.676   7.475   1.285  0.1805 -0.1581 -0.8012
  860MOL0     O15973  10.799   7.478   1.346  0.5016 -0.4307 -0.5893
  860MOL0     C15974  10.851   7.596   1.410  0.5643  0.0391 -0.3213
  860MOL0     C15975  10.991   7.565   1.465 -0.6433  0.6296  0.2323
  860MOL0     C15976  11.088   7.519   1.348 -0.5323 -0.9967  0.3677
  860MOL0     C15977  11.238   7.514   1.393 -0.1383  0.5689  0.1050
  860MOL0     C15978  11.349   7.495   1.290  0.1855 -0.0157  0.1993
  860MOL0     C15979  11.491   7.494   1.368  0.2622  0.1501  0.1278
  860MOL0     C15980  11.511   7.389   1.472  0.9997  0.6113  0.7568
  860MOL0     C15981  11.612   7.417   1.583 -0.4973 -0.0829 -0.4421
  860MOL0     N15982  11.545   7.465   1.697 -0.6644  0.5172 -0.3647
  860MOL0     C15983  11.491   7.384   1.793  0.8360 -0.6316  0.9778
  860MOL0     C15984  11.477   7.463   1.904  0.1395  0.9692  0.5586
  860MOL0     C15985  11.428   7.428   2.045 -0.3157  1.3921 -0.0915
  860MOL0     C15986  11.301   7.335   2.039 -0.0904 -0.1751 -0.1254
  860MOL0     C15987  11.183   7.426   2.036 -0.1302 -0.3015  0.5241
  860MOL0     C15988  11.172   7.502   1.907  0.4943 -0.1778  0.5799
  860MOL0     O15989  11.054   7.583   1.909  0.1190 -0.0599 -0.1333
  860MOL0     C15990  10.933   7.536   1.855 -0.9291 -0.0336  0.1766
  860MOL0     C15991  10.837   7.636   1.835  0.7647  0.3419  0.2166
  860MOL0     C15992  10.707   7.594   1.787 -0.4350 -0.5262 -0.6918
  860MOL0     C15993  10.680   7.460   1.752 -0.6980  0.3576  0.1078
  860MOL0     C15994  10.548   7.419   1.706  0.9475 -0.6072 -0.6450
  860MOL0     O15995  10.534   7.281   1.682  0.7174  0.5240  0.2434
  860MOL0     C15996  10.424   7.235   1.613  1.1155 -0.4041  0.0246
  860MOL0     C15997  10.410   7.093   1.637 -0.4108 -0.8192 -0.4699
  860MOL0     C15998  10.306   7.027   1.586  0.6196  0.1808 -0.3349
  860MOL0     C15999  10.210   7.078   1.501  0.3017  0.3981 -0.1763
  860MOL0     O16000  10.129   6.980   1.442 -0.1747 -0.3509 -0.6140
  860MOL0     C16001  10.034   7.024   1.342 -0.0584 -0.5423 -0.5253
  860MOL0     C16002   9.904   7.080   1.398  1.1641  0.5713 -1.0515
  860MOL0     C16003   9.822   7.129   1.277  0.3988  0.6512 -0.1660
  860MOL0     C16004   9.699   7.177   1.338  0.2884 -0.1707 -1.2471
  860MOL0     C16005   9.597   7.219   1.231  0.2533 -0.3551 -0.0853
  860MOL0     C16006   9.466   7.244   1.302  0.3535 -0.8799 -0.1068
  860MOL0     C16007   9.368   7.288   1.192 -0.1634  0.6012 -0.6777
  860MOL0     C16008   9.231   7.312   1.261 -0.0459  1.0821 -0.0131
  860MOL0    Cl16009   9.162   7.159   1.338 -0.0160 -0.3171  0.3572
  860MOL0     C16010  10.222   7.212   1.464 -0.4953  0.1344  0.3386
  860MOL0     C16011  10.329   7.288   1.528  0.8641 -0.5708 -0.0120
  860MOL0     O16012  10.471   7.513   1.663  0.1634  0.4032 -0.3171
  860MOL0     C16013  10.782   7.358   1.769  0.2613 -0.4522  0.6349
  860MOL0     C16014  10.904   7.405   1.825  0.3155  0.0543 -1.0204
  860MOL0     N16015  11.523   7.590   1.868 -0.4232  0.3038 -0.4556
  860MOL0     N16016  11.561   7.596   1.740  0.4731 -0.3818 -0.0295
  860MOL0     C16017  10.670   7.388   1.177 -0.4703 -0.2946 -0.0211
  860MOL0     C16018  10.554   7.386   1.090 -0.5814 -0.6862 -0.3320
  860MOL0     C16019  10.093   7.546   1.029 -0.3384 -0.6232 -0.3009
  860MOL0     C16020  10.021   7.663   1.017  0.0747 -0.7100 -0.7169
  860MOL0     C16021   9.882   7.674   0.999  0.5659  0.1124  0.2277
  860MOL0     C16022   9.818   7.548   0.992  0.4049 -0.5609  0.6973
  860MOL0     O16023   9.684   7.539   0.967 -0.2601 -1.2497 -0.8044
  860MOL0     C16024   9.622   7.628   0.883  0.5877  0.7307 -0.1311
  860MOL0     C16025   9.663   7.601   0.738  0.3072  0.1426  0.1095
  860MOL0     C16026   9.566   7.671   0.644 -0.3440  0.7222  0.7099
  860MOL0     C16027   9.617   7.668   0.491 -0.2463 -0.1138 -0.0334
  860MOL0     C16028   9.649   7.532   0.451 -0.2317  0.0009  0.5896
  860MOL0     C16029   9.659   7.421   0.404  0.3247  0.3996  0.3642
  860MOL0     C16030   9.889   7.429   1.014  0.4486 -0.3653 -0.2778
  860MOL0     C16031  10.025   7.425   1.033 -0.5046 -0.4097  0.3084
  860MOL0     C16032  10.088   7.296   1.062  0.2050  0.4429  0.2562
  860MOL0     H16033  10.378   7.631   1.243  0.1450 -0.2002 -1.7245
  860MOL0     H16034  10.590   7.648   1.385  2.9097 -0.6683  0.0162
  860MOL0     H16035  10.850   7.687   1.350 -1.4086  1.3766  1.5928
  860MOL0     H16036  10.796   7.629   1.498 -2.1664 -0.0984 -1.8681
  860MOL0     H16037  10.980   7.490   1.545  0.4140  0.9433  0.6992
  860MOL0     H16038  11.022   7.656   1.518 -1.7574  1.3771 -0.3695
  860MOL0     H16039  11.091   7.595   1.270 -2.3381  0.6361  1.7723
  860MOL0     H16040  11.063   7.416   1.320 -0.6766 -0.2975 -2.2578
  860MOL0     H16041  11.253   7.611   1.441  1.0716  0.5171 -0.1257
  860MOL0     H16042  11.243   7.429   1.462  1.2537 -1.7960 -2.6680
  860MOL0     H16043  11.331   7.406   1.228 -1.4704  0.1937  0.3309
  860MOL0     H16044  11.332   7.578   1.221 -0.0886  1.0016  1.4564
  860MOL0     H16045  11.568   7.476   1.292 -0.3607 -2.7560  0.0901
  860MOL0     H16046  11.505   7.594   1.410 -0.9013  0.3728  0.0258
  860MOL0     H16047  11.541   7.297   1.421  0.0354  0.2126  0.8729
  860MOL0     H16048  11.420   7.356   1.524  0.2812  2.0082  0.4271
  860MOL0     H16049  11.666   7.324   1.606  1.5251  0.1955 -3.4763
  860MOL0     H16050  11.691   7.485   1.549 -0.3098 -1.6380 -3.4973
  860MOL0     H16051  11.466   7.280   1.778 -3.1441  0.6161 -3.3445
  860MOL0     H16052  11.508   7.368   2.089  0.2936  0.1695 -2.6737
  860MOL0     H16053  11.409   7.517   2.105 -1.1102 -0.5085  2.7046
  860MOL0     H16054  11.306   7.263   1.957 -0.6316 -1.0376  0.5920
  860MOL0     H16055  11.292   7.278   2.131 -1.1108 -0.8789 -0.6451
  860MOL0     H16056  11.188   7.505   2.111 -1.1918 -1.4811  1.8943
  860MOL0     H16057  11.094   7.365   2.053  0.5526 -1.3659  0.3163
  860MOL0     H16058  11.175   7.440   1.817  1.4866 -0.8967  1.0812
  860MOL0     H16059  11.256   7.572   1.905 -0.5096  1.1224  1.8376
  860MOL0     H16060  10.858   7.737   1.867 -2.4175  1.7366 -1.5919
  860MOL0     H16061  10.625   7.665   1.779 -0.6037 -0.7290 -0.7663
  860MOL0     H16062  10.488   7.046   1.696  1.4422  1.8392 -0.6292
  860MOL0     H16063  10.297   6.926   1.625  1.9344  0.9693  2.2521
  860MOL0     H16064  10.076   7.101   1.277  1.2733  1.6673  2.6960
  860MOL0     H16065  10.017   6.932   1.285  0.2806  0.3746 -2.1616
  860MOL0     H16066   9.853   7.004   1.458  0.9261 -0.2885 -2.3236
  860MOL0     H16067   9.920   7.162   1.469  0.0416 -1.8960  2.3453
  860MOL0     H16068   9.861   7.213   1.219  1.7094 -1.3430 -2.4049
  860MOL0     H16069   9.802   7.045   1.209  0.3493 -2.5595  3.4437
  860MOL0     H16070   9.724   7.262   1.401 -0.4373 -2.2490  2.1017
  860MOL0     H16071   9.650   7.101   1.399  0.7210 -0.2358 -0.9749
  860MOL0     H16072   9.584   7.148   1.149 -2.5451  1.8483 -1.7090
  860MOL0     H16073   9.634   7.311   1.186  1.6786 -1.7100 -1.8577
  860MOL0     H16074   9.430   7.149   1.343  0.0746 -0.3627  0.8847
  860MOL0     H16075   9.473   7.316   1.385 -0.8853  0.2886 -0.9674
  860MOL0     H16076   9.352   7.204   1.124  0.1066  1.7730 -2.2373
  860MOL0     H16077   9.392   7.379   1.135 -1.6165  1.4530  0.0056
  860MOL0     H16078   9.232   7.389   1.339  2.6310  0.3549  0.7715
  860MOL0     H16079   9.157   7.350   1.189  0.6926 -0.7992 -1.8594
  860MOL0     H16080  10.148   7.258   1.399 -2.5385 -2.5537  0.5837
  860MOL0     H16081  10.332   7.394   1.505  0.6915 -0.2340  1.4182
  860MOL0     H16082  10.770   7.255   1.737 -0.0056 -0.5210  0.9501
  860MOL0     H16083  10.982   7.331   1.837 -0.4921 -0.5176  1.0957
  860MOL0     H16084  10.748   7.315   1.158 -1.2729 -0.3660 -3.6545
  860MOL0     H16085  10.535   7.319   1.006 -1.6605 -0.2657 -0.4410
  860MOL0     H16086  10.069   7.760   1.009  1.2194 -0.6735  3.9165
  860MOL0     H16087   9.830   7.768   0.982 -2.9399 -1.7395 -0.2560
  860MOL0     H16088   9.641   7.734   0.903 -0.8570  1.2126 -1.1529
  860MOL0     H16089   9.514   7.608   0.880  0.8459 -0.6543 -0.7869
  860MOL0     H16090   9.653   7.494   0.718 -3.4452  0.2391  0.8342
  860MOL0     H16091   9.767   7.634   0.734  0.6468 -0.5466  2.3252
  860MOL0     H16092   9.541   7.773   0.672 -3.1705  0.2848  0.1102
  860MOL0     H16093   9.468   7.623   0.648 -0.0312  0.1588  2.3725
  860MOL0     H16094   9.530   7.711   0.440 -1.8144 -0.3551  2.2912
  860MOL0     H16095   9.703   7.735   0.479  0.0472 -0.6494 -1.0449
  860MOL0     H16096   9.663   7.321   0.366 -0.9947  0.7023 -0.6497
  860MOL0     H16097   9.829   7.339   1.007 -1.4888  0.8463 -0.1414
  860MOL0     H16098  10.167   7.269   0.991 -1.1774 -0.0183 -1.1359
  860MOL0     H16099  10.124   7.289   1.166 -2.1684 -0.3523  1.0765
  860MOL0     H16100  10.010   7.222   1.045 -0.3768  0.9476  0.6579
  861MOL0     O16101   8.043   5.836   3.432  0.1706 -0.0444  0.0852
  861MOL0     C16102   8.022   5.787   3.321 -0.3878 -0.6803  0.2167
  861MOL0     O16103   7.906   5.804   3.250  0.1283 -0.7409 -0.2762
  861MOL0     C16104   7.798   5.835   3.334  0.0043  0.8570  0.2882
  861MOL0     C16105   7.730   5.738   3.419 -0.8356 -0.4526  0.4121
  861MOL0     C16106   7.618   5.778   3.495 -0.1343 -0.7457  0.4362
  861MOL0     C16107   7.557   5.907   3.475  0.1576  0.3217 -0.1595
  861MOL0     O16108   7.447   5.957   3.538  0.4867  0.4307  0.6008
  861MOL0     C16109   7.350   5.862   3.590  0.2603 -0.1687  0.6342
  861MOL0     C16110   7.222   5.931   3.628  0.4166  0.4460 -0.0349
  861MOL0     C16111   7.235   6.043   3.737 -0.6806  0.1425  0.4107
  861MOL0     C16112   7.125   6.040   3.848 -0.7873  0.7668 -0.6975
  861MOL0     C16113   6.981   6.085   3.788 -0.4630  0.4110 -0.2120
  861MOL0     C16114   6.867   6.103   3.892  0.1673  0.4197  0.5321
  861MOL0     C16115   6.902   6.215   3.995 -0.1150  0.2117  0.1806
  861MOL0     C16116   6.768   6.284   4.028 -0.6133 -0.1130 -0.7209
  861MOL0     N16117   6.786   6.390   4.126 -0.9123  0.5616 -0.5224
  861MOL0     C16118   6.840   6.510   4.089  0.9630  0.0473  0.1783
  861MOL0     C16119   6.817   6.583   4.204  0.4563 -0.4016 -0.6689
  861MOL0     C16120   6.859   6.723   4.229  0.4367 -0.4912  0.6590
  861MOL0     C16121   7.008   6.726   4.262 -0.3838  0.2058 -0.7164
  861MOL0     C16122   7.093   6.744   4.141 -0.8617  0.1450 -0.0043
  861MOL0     C16123   7.239   6.695   4.165  0.5757  0.4231 -0.3445
  861MOL0     O16124   7.232   6.551   4.174 -0.0024  0.5772  0.1965
  861MOL0     C16125   7.349   6.484   4.222 -0.0782 -0.4165  0.0681
  861MOL0     C16126   7.473   6.551   4.244  1.2487  0.2685 -0.3062
  861MOL0     C16127   7.584   6.472   4.269 -0.5674  0.1335 -0.5985
  861MOL0     C16128   7.584   6.330   4.289 -0.2168 -0.3127  0.0662
  861MOL0     C16129   7.713   6.256   4.305  0.3099 -1.3792  0.1726
  861MOL0     O16130   7.827   6.327   4.263  0.5428 -0.1147  0.3918
  861MOL0     C16131   7.947   6.273   4.279  1.1385  0.0302 -0.5625
  861MOL0     C16132   8.024   6.276   4.167  0.5339  0.0187  0.7656
  861MOL0     C16133   8.149   6.212   4.174  0.1795 -0.6509  0.6123
  861MOL0     C16134   8.192   6.156   4.289 -0.1885 -0.0696 -0.4907
  861MOL0     O16135   8.313   6.089   4.298 -0.1651 -0.2703  0.6692
  861MOL0     C16136   8.416   6.125   4.203 -0.8684 -0.9225  0.3809
  861MOL0     C16137   8.533   6.043   4.250 -0.1300 -0.2669 -0.9221
  861MOL0     C16138   8.637   6.032   4.141  0.3644 -0.2543 -0.2932
  861MOL0     C16139   8.745   5.933   4.175 -0.6174 -0.0026 -1.2079
  861MOL0     C16140   8.851   5.939   4.061 -0.0940  0.0585  0.8646
  861MOL0     C16141   8.975   5.840   4.067  0.0488  0.7541  0.0903
  861MOL0     C16142   9.015   5.807   4.213 -1.4358  0.2325  0.9072
  861MOL0     C16143   9.151   5.745   4.213  0.4419  0.5277  0.3420
  861MOL0    Cl16144   9.243   5.797   4.355 -0.1076  0.1825  0.3267
  861MOL0     C16145   8.110   6.168   4.408 -0.1284  0.2456 -0.2317
  861MOL0     C16146   7.984   6.218   4.402 -0.5061  0.2062 -0.5544
  861MOL0     O16147   7.715   6.136   4.340  0.2245  0.6720  0.5542
  861MOL0     C16148   7.459   6.270   4.275 -0.2097  0.3040 -0.3096
  861MOL0     C16149   7.354   6.343   4.231  0.3861 -0.4617 -0.2713
  861MOL0     N16150   6.757   6.510   4.300  1.0147  0.0958  0.4714
  861MOL0     N16151   6.744   6.398   4.252  0.4805  0.2186 -0.0464
  861MOL0     C16152   7.626   5.993   3.389 -0.5930 -0.7450 -0.7721
  861MOL0     C16153   7.744   5.962   3.320 -0.0322  0.1800 -0.2442
  861MOL0     C16154   8.143   5.733   3.247 -1.0909  0.4216 -0.5346
  861MOL0     C16155   8.278   5.762   3.293 -0.5177 -0.4138  0.6567
  861MOL0     C16156   8.384   5.696   3.242  0.3519  0.3734  0.0322
  861MOL0     C16157   8.374   5.610   3.131  0.1023  0.4455 -0.4187
  861MOL0     O16158   8.493   5.563   3.081 -0.4041 -0.1590  0.0623
  861MOL0     C16159   8.490   5.454   2.983  0.0758 -0.3472  0.4288
  861MOL0     C16160   8.633   5.420   2.917  0.1208  0.6773 -0.0070
  861MOL0     C16161   8.711   5.524   2.834 -1.0486 -0.3097 -0.3747
  861MOL0     C16162   8.660   5.518   2.692 -0.7288 -0.7308  0.0857
  861MOL0     C16163   8.769   5.542   2.596 -0.0198 -0.8942 -0.6733
  861MOL0     C16164   8.853   5.579   2.514 -0.2759 -0.9955  0.0432
  861MOL0     C16165   8.251   5.589   3.075  1.5803  1.1287 -0.0229
  861MOL0     C16166   8.132   5.642   3.135 -0.1153 -0.0088  0.7525
  861MOL0     C16167   7.999   5.600   3.078  1.1211 -0.1915 -0.2467
  861MOL0     H16168   7.783   5.645   3.436 -0.0041 -0.3236 -1.2195
  861MOL0     H16169   7.588   5.711   3.576 -3.3489 -0.6991 -0.5738
  861MOL0     H16170   7.329   5.787   3.513  1.3893  1.2136 -1.0978
  861MOL0     H16171   7.400   5.819   3.677 -0.9012 -2.5088  0.2196
  861MOL0     H16172   7.152   5.855   3.663  1.7365 -1.4172 -1.2823
  861MOL0     H16173   7.183   5.975   3.536  1.3676  2.0267  0.2858
  861MOL0     H16174   7.241   6.139   3.686 -0.8188 -1.9695 -4.1240
  861MOL0     H16175   7.328   6.025   3.791 -1.1838 -1.6463  0.7570
  861MOL0     H16176   7.124   5.939   3.891 -1.0155  0.2524 -1.8901
  861MOL0     H16177   7.157   6.110   3.925 -0.6961  0.5942 -0.5756
  861MOL0     H16178   6.988   6.184   3.744  0.6727  1.8590  2.8943
  861MOL0     H16179   6.949   6.008   3.717 -0.9550  0.3986  0.0162
  861MOL0     H16180   6.777   6.127   3.835  1.0090  0.3167 -0.8950
  861MOL0     H16181   6.848   6.007   3.942  2.2195 -1.5120 -2.0982
  861MOL0     H16182   6.971   6.290   3.954 -0.2696  0.9551  1.2349
  861MOL0     H16183   6.944   6.169   4.085  0.7284  1.0823  0.2527
  861MOL0     H16184   6.729   6.334   3.940 -1.6796 -1.2391 -0.9052
  861MOL0     H16185   6.699   6.205   4.058  0.3315 -0.3848  0.9383
  861MOL0     H16186   6.877   6.541   3.992 -4.3370  0.9866 -1.9075
  861MOL0     H16187   6.834   6.783   4.141  1.1482  1.7834  1.9353
  861MOL0     H16188   6.809   6.761   4.319  0.9889  1.8099  0.0576
  861MOL0     H16189   7.033   6.805   4.334  3.0317  0.4236 -1.9712
  861MOL0     H16190   7.025   6.624   4.298  0.4312  0.2758 -0.8849
  861MOL0     H16191   7.094   6.853   4.131  1.8504  0.2765  0.9761
  861MOL0     H16192   7.051   6.682   4.061 -1.5863  0.4314  0.1424
  861MOL0     H16193   7.278   6.743   4.255 -2.7591 -2.9484  3.3174
  861MOL0     H16194   7.293   6.717   4.072  0.3395  0.5873 -0.4437
  861MOL0     H16195   7.469   6.652   4.205 -1.5659  0.3380 -0.0582
  861MOL0     H16196   7.677   6.527   4.271  0.8593 -2.1258 -1.2152
  861MOL0     H16197   7.986   6.312   4.072 -1.2159  0.2584  1.5249
  861MOL0     H16198   8.215   6.203   4.088  4.6825 -0.5504  3.6990
  861MOL0     H16199   8.407   6.091   4.100  1.1824 -0.1340 -0.1094
  861MOL0     H16200   8.440   6.231   4.189  1.5272 -1.5745 -0.9100
  861MOL0     H16201   8.572   6.101   4.335 -2.3038  1.8661 -1.2574
  861MOL0     H16202   8.504   5.941   4.277 -2.9210 -0.1732 -3.0766
  861MOL0     H16203   8.587   5.984   4.056 -0.5480  1.4352 -0.7489
  861MOL0     H16204   8.681   6.128   4.115  0.5027 -0.1761  0.2180
  861MOL0     H16205   8.706   5.832   4.195  4.4085 -1.9294  0.5192
  861MOL0     H16206   8.795   5.963   4.268 -0.9255  0.9110 -1.3273
  861MOL0     H16207   8.880   6.045   4.056 -2.0103  0.5957  0.5563
  861MOL0     H16208   8.786   5.913   3.977 -1.3279  2.1150  1.1161
  861MOL0     H16209   8.941   5.752   4.012 -0.3798 -0.2808  1.9545
  861MOL0     H16210   9.062   5.892   4.025 -1.0415  2.7295  0.1646
  861MOL0     H16211   8.947   5.728   4.245 -0.9504 -0.4226  0.3570
  861MOL0     H16212   9.002   5.892   4.281  0.3403  0.8216  0.5822
  861MOL0     H16213   9.139   5.636   4.202  3.9683  0.1694 -1.5571
  861MOL0     H16214   9.213   5.773   4.128  2.8605 -0.9317  1.5109
  861MOL0     H16215   8.139   6.114   4.498 -3.8760  0.6801  1.4343
  861MOL0     H16216   7.931   6.203   4.496  0.3509 -3.0647 -0.4801
  861MOL0     H16217   7.459   6.162   4.272 -3.6674  0.1898  0.2119
  861MOL0     H16218   7.261   6.289   4.217  0.4849 -1.8490  3.3403
  861MOL0     H16219   7.584   6.093   3.391 -0.7671 -0.8293  0.5978
  861MOL0     H16220   7.778   6.044   3.259 -2.7375  0.5299 -1.4472
  861MOL0     H16221   8.292   5.826   3.379  1.2777 -0.2163  0.2525
  861MOL0     H16222   8.486   5.706   3.279 -0.1413 -1.3599  2.1109
  861MOL0     H16223   8.420   5.476   2.902  0.4957  3.7723  0.9764
  861MOL0     H16224   8.461   5.371   3.049 -2.4562  3.1496  4.2107
  861MOL0     H16225   8.621   5.334   2.851  4.2238 -0.1704  0.0597
  861MOL0     H16226   8.696   5.374   2.994  1.3432 -0.3643 -1.5473
  861MOL0     H16227   8.816   5.496   2.831 -1.1971 -0.8130 -1.1300
  861MOL0     H16228   8.703   5.623   2.880  2.0222  0.5490 -1.4844
  861MOL0     H16229   8.602   5.427   2.675 -0.7891 -0.2659 -2.8649
  861MOL0     H16230   8.590   5.602   2.698 -3.2736 -2.7647  0.4540
  861MOL0     H16231   8.921   5.610   2.438  0.0963 -3.3970 -0.6853
  861MOL0     H16232   8.238   5.515   2.997  0.3927 -0.4354  1.5823
  861MOL0     H16233   7.937   5.557   3.157  0.9189  0.2234 -0.1741
  861MOL0     H16234   7.960   5.681   3.016  5.7595  0.1258 -3.2805
  861MOL0     H16235   7.993   5.513   3.013 -1.4079  1.2666 -2.1480
  862MOL0     O16236   6.637   7.515   4.316 -0.6085 -0.3637  0.4630
  862MOL0     C16237   6.535   7.579   4.285  0.0343 -0.1228  0.1875
  862MOL0     O16238   6.528   7.710   4.267  0.5829  0.0146 -0.5397
  862MOL0     C16239   6.647   7.781   4.268  0.3494 -0.3830 -0.6756
  862MOL0     C16240   6.744   7.777   4.173  0.6492  0.6110  0.2738
  862MOL0     C16241   6.858   7.856   4.192 -0.0289 -0.7501  0.2850
  862MOL0     C16242   6.874   7.927   4.305  0.1444  0.5317  0.4631
  862MOL0     O16243   6.982   8.016   4.310  0.0860  0.3038 -0.1853
  862MOL0     C16244   7.023   8.057   4.441 -0.5148 -0.3078 -0.4576
  862MOL0     C16245   7.166   8.100   4.432  0.4112  0.1944  0.9020
  862MOL0     C16246   7.180   8.244   4.369  0.6133  0.4822  0.2405
  862MOL0     C16247   7.324   8.275   4.343 -0.0188  0.1972  0.2547
  862MOL0     C16248   7.372   8.412   4.307  0.8639  0.3766  0.2699
  862MOL0     C16249   7.329   8.463   4.168  0.1006  0.3555 -0.3825
  862MOL0     C16250   7.404   8.587   4.116  0.0581 -1.6697 -0.6455
  862MOL0     C16251   7.512   8.541   4.010 -0.1458 -0.3209 -0.9064
  862MOL0     N16252   7.630   8.489   4.085  0.0747  0.2336  0.5281
  862MOL0     C16253   7.666   8.351   4.090  0.1037  0.7246  0.3865
  862MOL0     C16254   7.796   8.351   4.130  0.0303 -0.6388 -0.8234
  862MOL0     C16255   7.872   8.239   4.164 -0.2088 -0.1418 -0.2449
  862MOL0     C16256   8.004   8.221   4.085  0.2038  0.5857  0.6450
  862MOL0     C16257   8.122   8.299   4.136 -1.4176 -0.7730 -0.1200
  862MOL0     C16258   8.263   8.257   4.081  0.6285 -0.9221  0.7937
  862MOL0     O16259   8.351   8.355   4.116 -0.3202 -0.2545  0.1034
  862MOL0     C16260   8.485   8.330   4.099 -0.5329 -0.6978  0.0490
  862MOL0     C16261   8.562   8.436   4.138  0.6134 -0.0809  1.2444
  862MOL0     C16262   8.701   8.436   4.132 -0.4115  0.2466 -0.3784
  862MOL0     C16263   8.771   8.332   4.071  0.3305  0.1685  0.6966
  862MOL0     C16264   8.916   8.334   4.071  0.6887 -0.1836  0.6516
  862MOL0     O16265   8.968   8.256   3.973 -0.2865 -0.5835  0.8440
  862MOL0     C16266   9.107   8.236   3.969  0.1646  0.2768  0.1570
  862MOL0     C16267   9.173   8.191   4.090  0.4819  0.4316  0.0069
  862MOL0     C16268   9.307   8.172   4.092 -0.8667  0.1540 -0.2770
  862MOL0     C16269   9.380   8.174   3.970 -0.4105  0.4561  0.4764
  862MOL0     O16270   9.506   8.118   3.947  0.1082  0.0048 -0.2889
  862MOL0     C16271   9.567   8.031   4.045  0.4011 -0.6413 -0.0911
  862MOL0     C16272   9.704   7.991   3.990  0.3349  0.4269  0.0811
  862MOL0     C16273   9.757   7.865   4.072  0.4898  0.3080 -0.5774
  862MOL0     C16274   9.825   7.893   4.203  0.6853  1.0515 -1.0247
  862MOL0     C16275   9.836   7.778   4.298  0.6244  0.2906 -1.0104
  862MOL0     C16276   9.946   7.798   4.406 -0.6714 -0.3005 -0.3067
  862MOL0     C16277   9.933   7.707   4.533 -0.3257 -0.3044 -0.0051
  862MOL0     C16278  10.032   7.760   4.651  0.5817  0.1503  0.2579
  862MOL0    Cl16279  10.206   7.745   4.612  0.3449  0.1730  0.5844
  862MOL0     C16280   9.320   8.230   3.859 -1.0615  0.7529 -0.4378
  862MOL0     C16281   9.190   8.264   3.860  0.2679 -1.3163 -0.3537
  862MOL0     O16282   8.981   8.403   4.159  1.1500 -0.3467 -0.0456
  862MOL0     C16283   8.691   8.220   4.025  0.3716 -0.6055 -0.0305
  862MOL0     C16284   8.552   8.224   4.043  0.8099  0.2577 -0.2599
  862MOL0     N16285   7.837   8.489   4.146 -0.4767  0.4213  0.4309
  862MOL0     N16286   7.736   8.570   4.112 -0.5584 -0.1667  0.1039
  862MOL0     C16287   6.785   7.915   4.415 -0.3348 -0.3009  0.1871
  862MOL0     C16288   6.670   7.842   4.392 -0.4537 -0.7799 -0.5187
  862MOL0     C16289   6.413   7.496   4.300  0.0183 -0.4224  0.5242
  862MOL0     C16290   6.421   7.367   4.256 -0.3647 -0.7597  1.1827
  862MOL0     C16291   6.319   7.276   4.254  0.7544 -0.3379 -0.1989
  862MOL0     C16292   6.195   7.320   4.303  0.1416 -0.2517 -0.2824
  862MOL0     O16293   6.103   7.227   4.313 -0.1444  0.6849 -0.3376
  862MOL0     C16294   5.964   7.263   4.322 -0.0382  0.7147 -0.3560
  862MOL0     C16295   5.879   7.137   4.345 -0.1199  0.6850 -0.2583
  862MOL0     C16296   5.898   7.064   4.487 -0.8498  0.5284  0.1468
  862MOL0     C16297   5.906   7.158   4.614 -0.1975  0.1367  0.2335
  862MOL0     C16298   5.931   7.086   4.739  0.1703  0.3618 -0.3413
  862MOL0     C16299   5.959   7.024   4.842 -0.3535  0.4411  1.2656
  862MOL0     C16300   6.181   7.450   4.350 -1.1789 -0.4479  0.8273
  862MOL0     C16301   6.288   7.543   4.353 -0.4366 -1.0691  0.2592
  862MOL0     C16302   6.264   7.686   4.402  0.7428 -0.1318  0.5631
  862MOL0     H16303   6.734   7.715   4.084  1.8783 -0.8797  1.1214
  862MOL0     H16304   6.931   7.873   4.113 -1.3606 -0.3265 -0.8968
  862MOL0     H16305   6.960   8.137   4.481  1.2044  1.3597 -0.9171
  862MOL0     H16306   7.029   7.970   4.507 -1.8614  0.1949  0.3659
  862MOL0     H16307   7.224   8.026   4.377 -0.0992  1.2225 -1.1107
  862MOL0     H16308   7.175   8.101   4.541 -1.2894  1.7772  1.0836
  862MOL0     H16309   7.149   8.321   4.441  2.5089  1.2977  0.2333
  862MOL0     H16310   7.109   8.247   4.286  2.0558  3.4518 -1.0546
  862MOL0     H16311   7.387   8.244   4.427  0.4542  0.9726  0.1946
  862MOL0     H16312   7.342   8.210   4.257 -2.2413 -1.6162  1.0527
  862MOL0     H16313   7.341   8.481   4.387 -5.1828  0.9015 -1.9469
  862MOL0     H16314   7.480   8.411   4.317  0.9987  4.1854  0.9201
  862MOL0     H16315   7.330   8.387   4.089  0.6996 -0.7182  0.6264
  862MOL0     H16316   7.223   8.487   4.170 -0.4513 -1.9052  0.4770
  862MOL0     H16317   7.445   8.644   4.200 -1.6987 -1.2853 -0.0075
  862MOL0     H16318   7.332   8.650   4.063  0.9715 -2.3896 -2.8513
  862MOL0     H16319   7.469   8.466   3.943  0.7023 -0.7759 -0.9573
  862MOL0     H16320   7.539   8.624   3.943  0.1518  0.1731 -0.1888
  862MOL0     H16321   7.619   8.254   4.081  3.1016 -1.0216  1.8189
  862MOL0     H16322   7.906   8.240   4.267  0.2146  2.2301 -0.3443
  862MOL0     H16323   7.801   8.155   4.161  2.1465 -2.2358 -0.4921
  862MOL0     H16324   8.023   8.114   4.075 -1.6923 -0.0660  3.0972
  862MOL0     H16325   7.974   8.262   3.988 -4.0520 -3.1669  0.0673
  862MOL0     H16326   8.139   8.289   4.244  2.1704 -1.8294 -0.6464
  862MOL0     H16327   8.112   8.403   4.106 -1.2186 -0.4578  0.8687
  862MOL0     H16328   8.271   8.240   3.973 -2.8420 -1.6315  0.5113
  862MOL0     H16329   8.286   8.155   4.110  3.0040 -0.0882  2.1009
  862MOL0     H16330   8.510   8.524   4.175  1.2188  2.2501 -2.8684
  862MOL0     H16331   8.763   8.513   4.177 -1.8806 -0.4669  3.2684
  862MOL0     H16332   9.112   8.176   4.179 -1.2442  0.0273 -1.1844
  862MOL0     H16333   9.358   8.130   4.178  1.7482 -0.6256 -2.0513
  862MOL0     H16334   9.586   8.093   4.132  0.0409 -2.1542  1.1031
  862MOL0     H16335   9.505   7.944   4.068  2.0674 -1.7709  0.3562
  862MOL0     H16336   9.697   7.956   3.887  0.1092 -0.4848  0.3904
  862MOL0     H16337   9.765   8.081   3.997  0.1192  0.6769 -1.1118
  862MOL0     H16338   9.675   7.798   4.096 -0.5330  1.3076 -1.1627
  862MOL0     H16339   9.821   7.811   4.000 -1.2273 -2.1358 -0.3971
  862MOL0     H16340   9.763   7.964   4.260  0.6894 -0.6781  1.2824
  862MOL0     H16341   9.925   7.926   4.172  1.4503 -1.0166 -0.8945
  862MOL0     H16342   9.856   7.682   4.250 -1.3952 -0.5322 -0.3037
  862MOL0     H16343   9.739   7.760   4.346  1.0995  1.0355  0.2988
  862MOL0     H16344  10.045   7.781   4.363 -0.5127 -5.7802  1.4962
  862MOL0     H16345   9.934   7.898   4.450  0.4647 -1.0744  1.8559
  862MOL0     H16346   9.961   7.605   4.505 -1.6828 -0.5288 -0.6316
  862MOL0     H16347   9.826   7.700   4.553 -0.9577  0.0726 -2.8026
  862MOL0     H16348  10.007   7.864   4.676 -1.7121 -0.7036  1.9383
  862MOL0     H16349  10.015   7.702   4.742  0.6995  0.1395  0.2726
  862MOL0     H16350   9.366   8.222   3.761 -2.6196  3.8794 -1.5315
  862MOL0     H16351   9.123   8.286   3.778 -1.3156 -0.7183  1.0340
  862MOL0     H16352   8.743   8.133   3.986 -0.5072 -2.2620  2.2960
  862MOL0     H16353   8.495   8.139   4.005  0.2777  0.8056 -0.7065
  862MOL0     H16354   6.805   7.958   4.512  1.2059 -0.2065 -0.1531
  862MOL0     H16355   6.594   7.818   4.466  0.3642  0.0309  0.6328
  862MOL0     H16356   6.510   7.320   4.215 -1.0275 -3.2599  2.4288
  862MOL0     H16357   6.331   7.169   4.237 -0.2639 -0.4289 -0.3647
  862MOL0     H16358   5.930   7.302   4.226 -2.7351  0.6538  0.4874
  862MOL0     H16359   5.936   7.339   4.396 -0.9737  0.0887 -0.0492
  862MOL0     H16360   5.898   7.071   4.260 -0.8358  4.0039 -3.2337
  862MOL0     H16361   5.774   7.164   4.338 -0.0666  0.7840 -0.7103
  862MOL0     H16362   5.992   7.009   4.476  0.2362  2.1040  1.0608
  862MOL0     H16363   5.826   6.983   4.495 -0.9198  0.5213 -0.5215
  862MOL0     H16364   5.972   7.245   4.618  2.8744 -2.0690  0.8484
  862MOL0     H16365   5.804   7.197   4.605 -0.9716 -1.4068  1.5924
  862MOL0     H16366   6.002   6.991   4.935  0.6723 -2.0162  0.0008
  862MOL0     H16367   6.082   7.484   4.379 -0.9393 -2.5011  4.7878
  862MOL0     H16368   6.248   7.749   4.315 -0.8074 -0.6603  0.4273
  862MOL0     H16369   6.173   7.686   4.464  0.4251 -0.7553  0.1093
  862MOL0     H16370   6.349   7.730   4.455  0.1665 -1.5596  2.8032
  863MOL0     O16371   5.755  10.344   1.165 -0.4590 -0.6936  0.3675
  863MOL0     C16372   5.814  10.427   1.095  0.2317 -0.0423 -0.8171
  863MOL0     O16373   5.754  10.499   0.999 -0.7897  0.1667 -0.1276
  863MOL0     C16374   5.621  10.495   0.953  0.5004  0.3377 -0.2270
  863MOL0     C16375   5.584  10.610   0.879  1.1916 -0.2074  0.0778
  863MOL0     C16376   5.464  10.623   0.827  0.1893  0.0595 -0.1989
  863MOL0     C16377   5.361  10.537   0.858 -0.3589 -0.1377  0.1713
  863MOL0     O16378   5.244  10.572   0.792 -0.8972  0.4976  0.6485
  863MOL0     C16379   5.137  10.487   0.822  0.2089  0.2335  0.6176
  863MOL0     C16380   5.016  10.539   0.747 -0.3474  0.5160  0.7915
  863MOL0     C16381   4.913  10.424   0.734 -0.0707 -0.4621  0.1170
  863MOL0     C16382   4.813  10.434   0.851  0.5657 -0.2420  0.2339
  863MOL0     C16383   4.710  10.321   0.851  0.0708 -0.1301  0.4189
  863MOL0     C16384   4.618  10.368   0.957 -0.0536 -0.0073 -0.3938
  863MOL0     C16385   4.527  10.251   1.009 -0.1236 -0.4518  0.3554
  863MOL0     C16386   4.424  10.207   0.898 -0.6082  0.3163  0.0058
  863MOL0     N16387   4.336  10.325   0.857  0.7537  0.4732  0.3428
  863MOL0     C16388   4.268  10.415   0.941  0.7333 -0.2782  0.9596
  863MOL0     C16389   4.169  10.469   0.863  0.1434 -0.6693  0.6444
  863MOL0     C16390   4.057  10.562   0.896  0.2011  0.6986 -1.3525
  863MOL0     C16391   4.113  10.703   0.931  0.6711  0.2933  0.1585
  863MOL0     C16392   4.132  10.720   1.076 -0.1406  0.4371 -0.0491
  863MOL0     C16393   4.215  10.856   1.102  0.4083  0.8030  0.0444
  863MOL0     O16394   4.328  10.860   1.019 -0.1261  0.3653  0.4369
  863MOL0     C16395   4.442  10.800   1.055  0.9759 -0.2397 -0.1252
  863MOL0     C16396   4.545  10.838   0.978 -1.1974 -0.6753  0.1057
  863MOL0     C16397   4.673  10.782   1.006 -0.9424  0.2473 -0.1002
  863MOL0     C16398   4.701  10.685   1.103  0.3518  0.3991  0.4885
  863MOL0     C16399   4.839  10.643   1.131 -0.6137 -0.2576 -0.1658
  863MOL0     O16400   4.852  10.526   1.203 -0.1439  0.3427  0.9469
  863MOL0     C16401   4.980  10.483   1.232 -0.3843  0.1608  0.1833
  863MOL0     C16402   5.086  10.558   1.280  1.0651 -0.6856 -0.7113
  863MOL0     C16403   5.207  10.501   1.290  0.9258  0.2526 -0.4553
  863MOL0     C16404   5.229  10.369   1.264 -0.1406 -0.2304 -0.4761
  863MOL0     O16405   5.358  10.317   1.261  0.4221  0.0311 -0.1273
  863MOL0     C16406   5.462  10.353   1.355  0.7626 -0.2207  0.2047
  863MOL0     C16407   5.523  10.216   1.405  0.8871 -0.8416  0.3333
  863MOL0     C16408   5.617  10.235   1.525 -0.4286  0.6981  0.2616
  863MOL0     C16409   5.561  10.183   1.660 -0.9337  0.6494  0.2787
  863MOL0     C16410   5.639  10.201   1.787 -0.3709  0.5589 -0.3866
  863MOL0     C16411   5.734  10.073   1.825 -0.9693 -0.3575  0.0260
  863MOL0     C16412   5.838  10.050   1.717 -1.0954 -0.3058  0.1082
  863MOL0     C16413   5.942   9.950   1.759  0.1317 -0.1278  0.5331
  863MOL0    Cl16414   5.862   9.791   1.756  0.2523 -0.1289  0.2449
  863MOL0     C16415   5.122  10.298   1.216  1.2181  0.0823  0.1305
  863MOL0     C16416   4.993  10.353   1.221  0.2069  0.4007 -0.3557
  863MOL0     O16417   4.934  10.707   1.079  0.2462 -0.3776 -0.2625
  863MOL0     C16418   4.586  10.646   1.178  0.5910 -0.1945 -1.0317
  863MOL0     C16419   4.460  10.699   1.151 -0.1091 -0.3312 -0.4969
  863MOL0     N16420   4.188  10.420   0.731 -0.5710  0.6105  0.7149
  863MOL0     N16421   4.277  10.322   0.735  0.9560  0.8079  0.0449
  863MOL0     C16422   5.393  10.418   0.928 -0.5777 -0.0014 -0.4178
  863MOL0     C16423   5.523  10.398   0.972 -0.0583 -0.2536  0.7043
  863MOL0     C16424   5.949  10.475   1.123 -0.9121  0.6379 -1.2550
  863MOL0     C16425   5.989  10.594   1.067  0.7348 -0.5416  0.2617
  863MOL0     C16426   6.112  10.644   1.078  0.0836 -0.4886  0.1335
  863MOL0     C16427   6.210  10.572   1.138 -0.2238  0.1904  0.0344
  863MOL0     O16428   6.338  10.616   1.141  0.4819  0.7747  0.8344
  863MOL0     C16429   6.407  10.585   1.018 -0.1640 -0.0244  0.3658
  863MOL0     C16430   6.552  10.537   1.012 -0.7742  0.1722 -0.5699
  863MOL0     C16431   6.575  10.403   1.095 -0.0973 -0.4416 -0.0916
  863MOL0     C16432   6.572  10.423   1.248  0.2158 -1.1267  0.4590
  863MOL0     C16433   6.700  10.469   1.295 -0.8348  0.0130 -0.2304
  863MOL0     C16434   6.802  10.517   1.334 -0.4112  0.7167 -1.4504
  863MOL0     C16435   6.178  10.453   1.203 -0.5104 -0.5043 -0.5823
  863MOL0     C16436   6.054  10.398   1.187  0.7263 -1.0236  0.5478
  863MOL0     C16437   6.024  10.260   1.258  0.3335  0.2992  0.5591
  863MOL0     H16438   5.661  10.676   0.839 -1.9621  1.8007 -3.2444
  863MOL0     H16439   5.430  10.705   0.765 -2.2900 -1.8194 -1.5033
  863MOL0     H16440   5.152  10.381   0.797 -2.1133 -0.8728  3.3874
  863MOL0     H16441   5.128  10.492   0.931 -1.3859 -2.4472  0.7096
  863MOL0     H16442   5.039  10.571   0.645 -0.6477 -1.2101  0.1526
  863MOL0     H16443   4.977  10.623   0.806 -0.6876  0.6715  0.3514
  863MOL0     H16444   4.962  10.327   0.723 -1.0232 -1.2928  2.4547
  863MOL0     H16445   4.871  10.456   0.638  3.9551  0.6177 -1.5018
  863MOL0     H16446   4.866  10.437   0.947 -1.8397 -3.1109  1.8158
  863MOL0     H16447   4.774  10.535   0.837  0.0903 -0.0183  2.7035
  863MOL0     H16448   4.650  10.312   0.759 -0.2008  3.0049  0.1848
  863MOL0     H16449   4.758  10.225   0.871  2.5604  0.8983 -0.2020
  863MOL0     H16450   4.669  10.413   1.043 -0.6166  1.0378 -0.5894
  863MOL0     H16451   4.554  10.448   0.919  0.3225  0.1654 -0.6738
  863MOL0     H16452   4.479  10.287   1.101 -2.7779 -1.7220 -0.4419
  863MOL0     H16453   4.592  10.168   1.036  1.3193  0.0654 -1.3262
  863MOL0     H16454   4.479  10.167   0.813  0.4023  0.6019  0.5096
  863MOL0     H16455   4.370  10.122   0.942 -1.6563  0.5430 -0.7863
  863MOL0     H16456   4.264  10.413   1.049  2.8930 -2.0415  1.1009
  863MOL0     H16457   3.977  10.561   0.822 -0.7982  2.1773 -0.3483
  863MOL0     H16458   4.014  10.516   0.986  0.6300 -0.8669 -1.9103
  863MOL0     H16459   4.204  10.711   0.871  0.3988  0.9618 -0.1809
  863MOL0     H16460   4.051  10.787   0.898  2.7909  2.1109  0.5171
  863MOL0     H16461   4.191  10.636   1.115  0.0079  1.2526  1.5671
  863MOL0     H16462   4.038  10.723   1.131 -0.0182 -0.3016  0.2094
  863MOL0     H16463   4.245  10.872   1.206 -0.2746  1.6317  0.1289
  863MOL0     H16464   4.151  10.944   1.085 -0.9008  0.1225  1.2253
  863MOL0     H16465   4.526  10.916   0.905 -1.8704 -0.4171  0.5485
  863MOL0     H16466   4.758  10.806   0.943 -2.5339  4.8219 -0.9110
  863MOL0     H16467   5.069  10.665   1.289 -0.3682 -0.9001 -0.7087
  863MOL0     H16468   5.299  10.548   1.324  3.1216 -1.8133 -3.1189
  863MOL0     H16469   5.542  10.415   1.313  2.7629 -2.0012  1.2266
  863MOL0     H16470   5.422  10.403   1.444  1.1757  1.4508 -0.5155
  863MOL0     H16471   5.439  10.149   1.429  2.6695 -2.9294  1.1285
  863MOL0     H16472   5.584  10.182   1.321  1.7862 -0.1348  0.6790
  863MOL0     H16473   5.709  10.183   1.493  0.3992  2.1971  0.1299
  863MOL0     H16474   5.645  10.340   1.530 -1.4090  0.9980 -0.3984
  863MOL0     H16475   5.525  10.080   1.664 -2.2096  1.0617 -0.0743
  863MOL0     H16476   5.465  10.235   1.668  0.5969  3.7750 -0.0891
  863MOL0     H16477   5.561  10.205   1.863 -1.4517  4.3975 -1.4875
  863MOL0     H16478   5.696  10.293   1.806 -1.4836  1.3136 -0.6105
  863MOL0     H16479   5.789  10.096   1.916  1.2599  2.3172 -1.8165
  863MOL0     H16480   5.673   9.987   1.851 -1.1340 -0.1503  0.3326
  863MOL0     H16481   5.900  10.140   1.704  2.2627 -2.0805  2.2564
  863MOL0     H16482   5.789  10.025   1.623 -4.2060  2.5829  0.7649
  863MOL0     H16483   6.021   9.951   1.684 -1.6436  2.8308 -1.5244
  863MOL0     H16484   5.981   9.975   1.858 -1.1099  6.7016 -0.2353
  863MOL0     H16485   5.135  10.192   1.193  1.8596  0.0899  0.4232
  863MOL0     H16486   4.914  10.288   1.185  0.6556 -2.1541  2.7642
  863MOL0     H16487   4.594  10.596   1.274  1.6411  1.7828 -0.0316
  863MOL0     H16488   4.379  10.654   1.207  0.3635 -2.6492 -1.5521
  863MOL0     H16489   5.317  10.344   0.953  0.1980 -0.7870 -0.3405
  863MOL0     H16490   5.530  10.301   1.020 -1.5052 -0.3893  0.6998
  863MOL0     H16491   5.921  10.666   1.023 -0.7469 -0.4971  2.4274
  863MOL0     H16492   6.119  10.747   1.044 -2.6331 -0.3416 -0.2705
  863MOL0     H16493   6.397  10.672   0.952  2.7460 -0.0475 -0.2355
  863MOL0     H16494   6.341  10.513   0.967 -0.9345 -0.2942  1.6947
  863MOL0     H16495   6.618  10.618   1.043 -0.1071  0.4181 -2.4803
  863MOL0     H16496   6.577  10.503   0.911  1.4401  0.6268 -0.2289
  863MOL0     H16497   6.660  10.343   1.063 -0.0837  0.1050 -1.1269
  863MOL0     H16498   6.488  10.343   1.067  0.8135 -2.0718  0.4391
  863MOL0     H16499   6.489  10.489   1.274 -0.1526 -2.4056  2.8024
  863MOL0     H16500   6.534  10.330   1.293  1.3083 -1.8749 -0.1261
  863MOL0     H16501   6.889  10.574   1.361 -1.3515  1.3768  0.3512
  863MOL0     H16502   6.264  10.408   1.253 -0.1707  0.0731 -0.6413
  863MOL0     H16503   5.989  10.186   1.187  0.0003 -1.2834  2.2902
  863MOL0     H16504   6.114  10.211   1.296 -1.1261 -0.7031  2.9988
  863MOL0     H16505   5.958  10.278   1.344 -0.8634 -0.1580 -0.2416
  864MOL0     O16506   3.777   7.057   8.531 -0.0212  0.4183  0.2503
  864MOL0     C16507   3.698   7.079   8.622  0.4875 -0.4026  0.6558
  864MOL0     O16508   3.727   7.160   8.729 -0.1992 -0.1015  0.3104
  864MOL0     C16509   3.862   7.180   8.761 -0.6061  0.0747  0.0564
  864MOL0     C16510   3.934   7.271   8.677  0.5349 -0.0508 -0.8022
  864MOL0     C16511   4.070   7.285   8.704 -1.3856  0.3790  0.5894
  864MOL0     C16512   4.139   7.216   8.811 -0.0656 -0.2430  0.7378
  864MOL0     O16513   4.269   7.226   8.831 -0.1620 -0.9907  0.0785
  864MOL0     C16514   4.351   7.316   8.759  0.0865 -1.2362 -0.8257
  864MOL0     C16515   4.329   7.466   8.811  0.3286 -0.0203 -0.6210
  864MOL0     C16516   4.343   7.473   8.964 -0.5733 -0.1686 -0.3161
  864MOL0     C16517   4.385   7.607   9.018  0.0289 -0.2735  0.1304
  864MOL0     C16518   4.427   7.607   9.162  0.2333  1.3116  0.4851
  864MOL0     C16519   4.541   7.527   9.205  0.1052 -1.6676 -0.0904
  864MOL0     C16520   4.554   7.508   9.359 -0.0181 -0.8047  0.3093
  864MOL0     C16521   4.556   7.641   9.441  1.0365  0.1387  1.0784
  864MOL0     N16522   4.689   7.690   9.434  0.1296 -0.0752 -0.1792
  864MOL0     C16523   4.728   7.780   9.339  0.2845  0.7790 -0.6143
  864MOL0     C16524   4.843   7.823   9.388 -0.3851  0.3172  1.0478
  864MOL0     C16525   4.923   7.938   9.340  0.2236 -0.1556  0.5834
  864MOL0     C16526   5.017   7.893   9.227  0.1939  0.4737 -0.3222
  864MOL0     C16527   5.093   8.015   9.171  0.1265  0.1738  0.5140
  864MOL0     C16528   5.206   8.066   9.251  0.4942  1.0551  0.8973
  864MOL0     O16529   5.307   7.958   9.274  0.1969 -0.4965  1.3169
  864MOL0     C16530   5.398   7.995   9.375  0.8478  0.4011  0.2976
  864MOL0     C16531   5.408   8.123   9.428 -0.1861  0.6435  0.0291
  864MOL0     C16532   5.518   8.153   9.508 -0.1715  0.4076  0.7622
  864MOL0     C16533   5.617   8.062   9.539 -0.1824  0.7291 -0.1944
  864MOL0     C16534   5.729   8.097   9.639  0.1889 -1.1239  0.9465
  864MOL0     O16535   5.705   8.189   9.734 -0.0049  0.6330  0.1032
  864MOL0     C16536   5.818   8.240   9.794  0.3085 -0.2169 -0.4052
  864MOL0     C16537   5.836   8.233   9.928  0.0672 -0.5674  0.2133
  864MOL0     C16538   5.952   8.282   9.990 -0.5429  0.1524 -0.1604
  864MOL0     C16539   6.044   8.350   9.909 -0.6171  1.0326 -0.4800
  864MOL0     O16540   6.155   8.404   9.977 -0.7038 -0.1043  0.7124
  864MOL0     C16541   6.291   8.402   9.914  0.7233 -0.0593 -1.0920
  864MOL0     C16542   6.389   8.461  10.007  0.7667 -0.9769  0.4505
  864MOL0     C16543   6.536   8.461   9.967 -0.4306  0.0691  0.5507
  864MOL0     C16544   6.573   8.331   9.886 -0.1990  0.2990 -0.5597
  864MOL0     C16545   6.716   8.331   9.830  0.9983  0.2348  0.5185
  864MOL0     C16546   6.817   8.348   9.942 -0.6026  0.8337  0.0168
  864MOL0     C16547   6.969   8.321   9.913 -0.0902 -1.2104 -0.3388
  864MOL0     C16548   7.063   8.419   9.978 -0.1416  0.6168 -0.5895
  864MOL0    Cl16549   7.070   8.564   9.876 -0.5320  0.3519  0.3848
  864MOL0     C16550   6.022   8.375   9.772  0.3488  0.2781  0.9880
  864MOL0     C16551   5.909   8.320   9.721  0.2313  1.2989  0.6328
  864MOL0     O16552   5.831   8.029   9.631 -0.1582 -0.3080 -0.2414
  864MOL0     C16553   5.603   7.937   9.482 -0.6162  0.5498 -0.0128
  864MOL0     C16554   5.491   7.899   9.409  0.2542  0.1118 -0.7929
  864MOL0     N16555   4.870   7.763   9.511  1.5730  0.0772  0.1573
  864MOL0     N16556   4.774   7.679   9.534 -0.0614  0.4067  0.2863
  864MOL0     C16557   4.059   7.133   8.887 -0.3593 -0.0767 -0.0066
  864MOL0     C16558   3.929   7.108   8.860 -0.1753 -0.2345  0.4406
  864MOL0     C16559   3.567   7.019   8.619  0.0784 -0.0531 -0.7816
  864MOL0     C16560   3.492   7.033   8.735  0.2361  0.5675 -0.9021
  864MOL0     C16561   3.370   6.971   8.746 -1.0022 -0.7590  0.6696
  864MOL0     C16562   3.312   6.905   8.645 -0.9026  0.7063  0.5970
  864MOL0     O16563   3.184   6.875   8.676  0.2430  0.1032  0.6083
  864MOL0     C16564   3.113   6.772   8.601 -0.7030  0.0694 -0.4637
  864MOL0     C16565   3.005   6.703   8.688 -0.0843 -0.2768  0.5467
  864MOL0     C16566   2.948   6.804   8.789  0.6159 -0.9423 -0.1575
  864MOL0     C16567   2.808   6.767   8.851 -0.5578 -0.4505  0.2655
  864MOL0     C16568   2.800   6.634   8.904 -0.3994 -0.0643  0.0596
  864MOL0     C16569   2.800   6.523   8.953  0.3241 -0.0076  0.1858
  864MOL0     C16570   3.383   6.878   8.530 -1.1925  0.4538 -0.1962
  864MOL0     C16571   3.511   6.939   8.518 -0.3022  0.5963  0.8542
  864MOL0     C16572   3.578   6.901   8.396 -0.6301 -0.2376  0.3591
  864MOL0     H16573   3.889   7.316   8.589 -2.4906 -1.6968 -0.2173
  864MOL0     H16574   4.119   7.343   8.626 -4.2707  0.9455 -0.9635
  864MOL0     H16575   4.458   7.295   8.771  0.3617  1.0562  1.5602
  864MOL0     H16576   4.335   7.313   8.651 -0.2900 -2.4604 -0.7427
  864MOL0     H16577   4.230   7.506   8.787 -0.6829  0.5608  3.7523
  864MOL0     H16578   4.410   7.518   8.758 -0.0787  0.5168 -0.7186
  864MOL0     H16579   4.407   7.394   9.004 -2.4425 -0.6580  1.9259
  864MOL0     H16580   4.247   7.447   9.010 -0.8862 -0.9873 -1.4047
  864MOL0     H16581   4.476   7.647   8.971  0.6228  0.6761  1.9824
  864MOL0     H16582   4.300   7.675   9.004  2.3292  2.9036  0.3277
  864MOL0     H16583   4.446   7.711   9.188  0.3662  2.1987 -2.7824
  864MOL0     H16584   4.337   7.568   9.210  0.5392 -2.6933 -1.7493
  864MOL0     H16585   4.523   7.423   9.175  0.5512 -2.1468  1.2376
  864MOL0     H16586   4.630   7.565   9.155 -1.0337  0.3978 -0.6480
  864MOL0     H16587   4.642   7.444   9.363  0.8777 -0.2199 -4.1960
  864MOL0     H16588   4.473   7.450   9.403  0.5206 -2.2738 -0.5657
  864MOL0     H16589   4.475   7.702   9.399 -1.4743 -3.6300 -0.0448
  864MOL0     H16590   4.538   7.610   9.545  1.1261 -0.3535  0.9501
  864MOL0     H16591   4.667   7.819   9.258  1.1097  2.0080 -0.6829
  864MOL0     H16592   4.863   8.027   9.318 -0.6401 -0.8247  0.1794
  864MOL0     H16593   5.000   7.964   9.414  0.9223 -1.9576  0.5511
  864MOL0     H16594   5.087   7.818   9.266 -0.4510 -1.3476 -2.4646
  864MOL0     H16595   4.960   7.847   9.146 -0.5207 -0.2155  0.5425
  864MOL0     H16596   5.021   8.098   9.171 -1.4096 -1.0697  2.1976
  864MOL0     H16597   5.113   7.993   9.066  1.4661  1.5430  0.4437
  864MOL0     H16598   5.170   8.117   9.341 -0.5677 -1.4304  1.9630
  864MOL0     H16599   5.245   8.141   9.181  0.3423 -0.9926 -1.5376
  864MOL0     H16600   5.345   8.209   9.405  1.4561  1.3256 -2.2408
  864MOL0     H16601   5.529   8.250   9.554 -0.7560 -0.7754  3.6453
  864MOL0     H16602   5.768   8.193  10.003 -3.4719  0.8052 -2.0413
  864MOL0     H16603   5.975   8.271  10.096 -1.8212 -0.2324  0.1052
  864MOL0     H16604   6.314   8.295   9.907  3.0062  0.0429  2.4920
  864MOL0     H16605   6.292   8.449   9.816 -2.4492 -0.2071 -1.3262
  864MOL0     H16606   6.356   8.564  10.018  1.9535 -0.6748  1.3722
  864MOL0     H16607   6.373   8.417  10.106 -0.1426  1.1006  1.2828
  864MOL0     H16608   6.554   8.552   9.908 -4.3558  0.1130 -0.8577
  864MOL0     H16609   6.601   8.463  10.055  1.5594  0.6286 -0.8442
  864MOL0     H16610   6.505   8.321   9.801 -0.3557  1.6413 -0.6130
  864MOL0     H16611   6.555   8.238   9.940  1.4264  0.0701 -0.3835
  864MOL0     H16612   6.745   8.416   9.769  0.6355  1.6060  2.1772
  864MOL0     H16613   6.745   8.246   9.768  2.1907  1.6403 -0.9083
  864MOL0     H16614   6.804   8.450   9.981  0.2613  0.7899  0.4598
  864MOL0     H16615   6.794   8.269  10.014  1.7749 -0.1180 -0.1484
  864MOL0     H16616   6.991   8.328   9.806  0.5705  0.6831 -0.1069
  864MOL0     H16617   6.992   8.220   9.950 -0.1972 -1.3235 -0.5784
  864MOL0     H16618   7.034   8.446  10.080  3.0560  0.3724  0.4894
  864MOL0     H16619   7.162   8.374   9.991 -0.8073 -1.0186 -0.9620
  864MOL0     H16620   6.083   8.438   9.708 -1.2607  0.2278 -0.6990
  864MOL0     H16621   5.895   8.351   9.618  2.7301  0.2504 -0.0932
  864MOL0     H16622   5.679   7.862   9.505 -0.0077  0.9515 -0.6889
  864MOL0     H16623   5.476   7.797   9.376  1.0514 -0.6921  1.2246
  864MOL0     H16624   4.100   7.080   8.972  1.4187  2.7762  1.0943
  864MOL0     H16625   3.877   7.024   8.905  0.7074 -1.5478 -0.8739
  864MOL0     H16626   3.519   7.104   8.813 -3.2645 -0.8463  1.8743
  864MOL0     H16627   3.325   7.004   8.838  1.7105  1.7790  1.2499
  864MOL0     H16628   3.180   6.692   8.567  0.2572  0.7475 -0.1885
  864MOL0     H16629   3.063   6.825   8.520  0.1318  2.1069  0.2958
  864MOL0     H16630   3.044   6.624   8.753  0.7759 -0.5056 -0.2288
  864MOL0     H16631   2.923   6.660   8.631 -0.1497 -1.2035  1.3042
  864MOL0     H16632   2.935   6.906   8.751 -0.5381 -0.1308  2.1876
  864MOL0     H16633   3.017   6.809   8.874 -2.3405 -3.4604  2.6754
  864MOL0     H16634   2.796   6.841   8.930  2.4263 -0.8819  1.2510
  864MOL0     H16635   2.741   6.787   8.766  0.5061  1.0285 -0.2634
  864MOL0     H16636   2.798   6.436   9.017  1.0755  1.3869  2.2149
  864MOL0     H16637   3.343   6.822   8.446  0.7286 -1.9612  0.4012
  864MOL0     H16638   3.576   6.994   8.339  2.3753  0.1419  0.7107
  864MOL0     H16639   3.676   6.871   8.435 -0.6755  0.4246  0.9905
  864MOL0     H16640   3.528   6.818   8.345 -1.6433  1.1389 -0.9606
  865MOL0     O16641   1.078   7.444   6.990 -0.1532 -0.0671 -0.3560
  865MOL0     C16642   0.989   7.512   6.946 -0.7138 -0.1738 -0.1541
  865MOL0     O16643   0.924   7.605   7.022  0.2073 -0.3921  0.2873
  865MOL0     C16644   0.972   7.642   7.137  0.5453 -0.6090 -0.8218
  865MOL0     C16645   1.099   7.686   7.163 -0.0049 -0.2219 -0.0094
  865MOL0     C16646   1.146   7.728   7.288 -0.1975  0.1217  0.5792
  865MOL0     C16647   1.059   7.708   7.394  0.1197 -0.8298  0.2137
  865MOL0     O16648   1.107   7.731   7.521 -0.4536 -0.6354 -0.4961
  865MOL0     C16649   1.175   7.854   7.544 -0.1482 -1.1499  0.8099
  865MOL0     C16650   1.220   7.846   7.687 -0.1044 -0.1910 -0.9298
  865MOL0     C16651   1.284   7.971   7.736  0.1818 -0.4033  0.1232
  865MOL0     C16652   1.374   7.953   7.861  0.2579 -0.1806 -0.1962
  865MOL0     C16653   1.427   8.084   7.907 -0.0245  0.0271 -1.3406
  865MOL0     C16654   1.526   8.142   7.806 -0.0321 -1.0376  0.3730
  865MOL0     C16655   1.612   8.254   7.870 -0.4249 -0.4165 -1.1548
  865MOL0     C16656   1.550   8.398   7.842  0.6483  0.3149 -0.9170
  865MOL0     N16657   1.567   8.432   7.694  0.1262 -0.0889  0.5205
  865MOL0     C16658   1.681   8.484   7.636 -1.2084  0.1203  0.4526
  865MOL0     C16659   1.660   8.513   7.510  0.6639 -0.0076  0.3473
  865MOL0     C16660   1.761   8.573   7.410  0.6735  0.0732 -0.1594
  865MOL0     C16661   1.898   8.501   7.382 -0.1245 -0.8219 -0.0021
  865MOL0     C16662   1.969   8.556   7.259  0.7222 -0.2047 -0.3162
  865MOL0     C16663   2.115   8.526   7.276  0.1225 -0.5821  0.2643
  865MOL0     O16664   2.164   8.583   7.398  0.7885 -0.4037  0.8753
  865MOL0     C16665   2.239   8.701   7.395 -0.7630  0.2088  0.3248
  865MOL0     C16666   2.177   8.825   7.384  1.5474 -0.0599  0.4445
  865MOL0     C16667   2.249   8.943   7.363  0.3624  0.5940  1.2351
  865MOL0     C16668   2.390   8.927   7.365 -0.1201 -1.4712  0.1735
  865MOL0     C16669   2.474   9.053   7.346 -0.1308  0.8646 -0.8719
  865MOL0     O16670   2.403   9.166   7.315 -0.7198  0.3153 -0.9128
  865MOL0     C16671   2.487   9.266   7.262  0.7305 -0.4542 -0.4601
  865MOL0     C16672   2.493   9.283   7.123  0.9936 -0.2406  0.1251
  865MOL0     C16673   2.576   9.378   7.068 -0.0402  0.0191 -0.7128
  865MOL0     C16674   2.644   9.470   7.160  0.2161 -0.1617  0.4391
  865MOL0     O16675   2.735   9.568   7.120  1.0298 -0.7575 -0.6239
  865MOL0     C16676   2.768   9.583   6.988  0.4513  0.2794  0.2860
  865MOL0     C16677   2.890   9.669   6.990  0.0747 -0.2794  0.1745
  865MOL0     C16678   3.015   9.604   7.041  0.4122  0.0113 -0.4012
  865MOL0     C16679   3.149   9.686   7.032 -0.0132  0.2848 -0.0666
  865MOL0     C16680   3.271   9.595   7.072 -0.0196 -0.9368  0.3151
  865MOL0     C16681   3.399   9.668   7.049  0.5373  0.0351  0.2754
  865MOL0     C16682   3.524   9.596   7.099  0.3773 -0.2778 -0.6421
  865MOL0     C16683   3.553   9.467   7.027 -0.2527 -0.2274  0.7051
  865MOL0    Cl16684   3.690   9.369   7.088  0.5291  0.3270  0.2088
  865MOL0     C16685   2.613   9.468   7.299 -0.9436  0.6936 -0.2679
  865MOL0     C16686   2.543   9.358   7.351 -0.4216 -0.4160  0.1042
  865MOL0     O16687   2.596   9.040   7.356 -0.6354 -0.2634 -0.4895
  865MOL0     C16688   2.443   8.806   7.374  0.4060  0.0344 -0.9319
  865MOL0     C16689   2.378   8.694   7.392  0.3328  0.5554  0.5220
  865MOL0     N16690   1.526   8.502   7.502  0.1553 -0.5683  0.0470
  865MOL0     N16691   1.469   8.449   7.607 -0.8333 -0.3616 -0.1018
  865MOL0     C16692   0.931   7.661   7.374  0.0702  0.0437 -0.8946
  865MOL0     C16693   0.884   7.622   7.247  0.0680  0.3539 -0.9738
  865MOL0     C16694   0.953   7.487   6.807  0.6003 -0.3657  0.6312
  865MOL0     C16695   0.840   7.411   6.778  0.8543  0.6034  0.0693
  865MOL0     C16696   0.785   7.398   6.656  0.1906 -0.5375  0.1987
  865MOL0     C16697   0.850   7.456   6.550 -0.3635 -0.4114  0.1793
  865MOL0     O16698   0.791   7.450   6.428 -0.1088  0.4998 -0.0637
  865MOL0     C16699   0.719   7.574   6.389  0.1180  0.4195 -0.9488
  865MOL0     C16700   0.760   7.599   6.237  0.5040 -0.1296 -0.1509
  865MOL0     C16701   0.907   7.627   6.205  0.2535 -0.0648 -0.0809
  865MOL0     C16702   0.921   7.687   6.070  0.4900 -0.4567  0.0009
  865MOL0     C16703   1.057   7.711   6.030  0.6080  0.1946  0.1748
  865MOL0     C16704   1.173   7.713   5.991  0.0282 -0.3062 -0.3450
  865MOL0     C16705   0.975   7.521   6.570  0.6575  1.2318 -0.0964
  865MOL0     C16706   1.019   7.551   6.704 -0.6874  0.1613 -0.1827
  865MOL0     C16707   1.122   7.649   6.718  0.6693 -1.0004 -0.0580
  865MOL0     H16708   1.158   7.705   7.075 -1.6079  3.6032 -0.4733
  865MOL0     H16709   1.241   7.778   7.304 -0.2829  0.2356  0.7354
  865MOL0     H16710   1.258   7.882   7.478 -0.1748 -0.3583  1.0967
  865MOL0     H16711   1.105   7.937   7.552  2.0856  0.9032  0.2060
  865MOL0     H16712   1.291   7.763   7.698 -1.8451 -1.5513  1.1155
  865MOL0     H16713   1.130   7.825   7.746 -0.4669  0.0985 -1.3776
  865MOL0     H16714   1.195   8.029   7.763 -0.1124 -0.0931 -1.4113
  865MOL0     H16715   1.334   8.035   7.662  2.2564 -1.4191  0.5771
  865MOL0     H16716   1.319   7.903   7.941  1.8590 -0.4433  0.7698
  865MOL0     H16717   1.462   7.892   7.841  1.6374  1.4950  0.5070
  865MOL0     H16718   1.355   8.161   7.935  0.2644  0.6813 -2.3474
  865MOL0     H16719   1.484   8.050   7.994 -2.0386 -0.3918 -0.1072
  865MOL0     H16720   1.590   8.062   7.769  3.3881  1.1638  1.0052
  865MOL0     H16721   1.469   8.191   7.726 -0.2781 -0.2723  0.9999
  865MOL0     H16722   1.713   8.238   7.832  0.1590  0.1096  0.1078
  865MOL0     H16723   1.620   8.233   7.977 -2.5136 -2.4380 -1.3261
  865MOL0     H16724   1.448   8.392   7.882  1.7833 -2.0957  2.0333
  865MOL0     H16725   1.607   8.468   7.903  1.1963 -1.8974  1.2727
  865MOL0     H16726   1.778   8.500   7.684 -1.3221 -1.4387  1.2586
  865MOL0     H16727   1.702   8.584   7.319 -2.0821  1.6704  1.6588
  865MOL0     H16728   1.791   8.673   7.445  0.4170  0.3838 -0.8084
  865MOL0     H16729   1.954   8.500   7.476 -0.5063 -0.0452  0.2423
  865MOL0     H16730   1.883   8.397   7.352 -2.1866 -0.4394 -0.4567
  865MOL0     H16731   1.951   8.663   7.243  1.1276 -0.1996 -0.7697
  865MOL0     H16732   1.919   8.511   7.173  1.1641 -3.2250  0.9098
  865MOL0     H16733   2.165   8.571   7.190  1.7558 -0.4086  1.2556
  865MOL0     H16734   2.117   8.417   7.281 -3.7930 -0.7817  3.7342
  865MOL0     H16735   2.069   8.832   7.393  1.4260 -0.2293 -0.7757
  865MOL0     H16736   2.194   9.036   7.355 -0.1612  0.2196  0.3159
  865MOL0     H16737   2.421   9.227   7.065  2.1457  0.0907 -1.7024
  865MOL0     H16738   2.579   9.386   6.960  4.1234  1.3151 -0.6694
  865MOL0     H16739   2.792   9.488   6.940 -0.4555  0.4656 -0.5698
  865MOL0     H16740   2.680   9.616   6.932 -2.1748 -3.1574  1.9708
  865MOL0     H16741   2.919   9.703   6.891  1.9561 -0.3759  0.6549
  865MOL0     H16742   2.867   9.754   7.054  0.1083 -0.4963  0.4804
  865MOL0     H16743   3.005   9.566   7.143  0.5047  0.2382 -0.3064
  865MOL0     H16744   3.028   9.514   6.980 -2.4003 -1.8662  1.5026
  865MOL0     H16745   3.146   9.779   7.089 -0.1833 -1.8480  3.7627
  865MOL0     H16746   3.169   9.716   6.929 -2.4275 -1.9028 -1.2731
  865MOL0     H16747   3.269   9.499   7.019  2.3320 -0.2215 -1.1893
  865MOL0     H16748   3.267   9.575   7.180  0.9015  0.7981  0.7098
  865MOL0     H16749   3.422   9.689   6.944 -0.2142 -1.8430 -0.3079
  865MOL0     H16750   3.390   9.759   7.109 -0.0280 -2.2987  4.0581
  865MOL0     H16751   3.507   9.573   7.205  0.6114 -0.5763 -0.6694
  865MOL0     H16752   3.610   9.663   7.104  1.3041 -1.3396 -1.8275
  865MOL0     H16753   3.464   9.404   7.019  0.6243 -1.7151  2.1042
  865MOL0     H16754   3.569   9.498   6.923 -2.5925 -0.2025  0.3070
  865MOL0     H16755   2.655   9.541   7.368  0.9899 -3.9173  4.0635
  865MOL0     H16756   2.516   9.372   7.455  0.6362 -0.2026  0.3628
  865MOL0     H16757   2.551   8.799   7.373  0.3715 -0.7790 -0.3825
  865MOL0     H16758   2.437   8.603   7.396 -0.2310  0.1265 -0.5362
  865MOL0     H16759   0.875   7.653   7.466 -1.3027 -0.2412 -1.7227
  865MOL0     H16760   0.781   7.586   7.243  0.8915 -2.5209  0.5377
  865MOL0     H16761   0.778   7.364   6.855 -2.0958 -0.5998 -2.8222
  865MOL0     H16762   0.691   7.345   6.649 -0.2752  0.5517 -4.0627
  865MOL0     H16763   0.753   7.653   6.457  0.8604 -2.1966  1.9554
  865MOL0     H16764   0.611   7.581   6.400  0.2502  1.1257 -0.0222
  865MOL0     H16765   0.705   7.684   6.197  2.0979  0.1664 -1.8061
  865MOL0     H16766   0.724   7.518   6.172 -0.4201  0.6417 -0.6248
  865MOL0     H16767   0.969   7.539   6.219  1.0319  0.6680  1.2656
  865MOL0     H16768   0.936   7.698   6.283 -0.0545  1.6607 -1.4691
  865MOL0     H16769   0.871   7.627   5.994 -2.5425  3.1383 -1.1747
  865MOL0     H16770   0.866   7.782   6.076 -1.8832 -1.5108 -2.7213
  865MOL0     H16771   1.264   7.721   5.935  1.2897 -2.6050  1.1842
  865MOL0     H16772   1.009   7.571   6.480  3.6536 -1.2589 -0.5387
  865MOL0     H16773   1.088   7.731   6.782  0.1581 -1.0384 -0.2805
  865MOL0     H16774   1.213   7.595   6.746  1.2547 -0.3896 -0.7520
  865MOL0     H16775   1.135   7.698   6.621 -1.1690  0.8942  0.5853
  866MOL0     O16776   6.380  10.853   5.860 -0.3295  0.1536 -0.2870
  866MOL0     C16777   6.274  10.886   5.922  0.2208 -0.4840 -0.7098
  866MOL0     O16778   6.138  10.856   5.878  0.3880  0.4394  0.0861
  866MOL0     C16779   6.103  10.837   5.748  0.2110  0.0305 -0.6495
  866MOL0     C16780   6.184  10.857   5.634  0.3144  0.3905 -0.3056
  866MOL0     C16781   6.132  10.845   5.509  0.2257  0.4183  0.0574
  866MOL0     C16782   6.000  10.808   5.493  0.1299 -0.5538 -0.0135
  866MOL0     O16783   5.930  10.832   5.376  0.9426  0.5113  0.9520
  866MOL0     C16784   5.959  10.945   5.286 -0.0311  0.4157  0.0059
  866MOL0     C16785   5.852  10.977   5.184  0.1035 -0.1063  0.2865
  866MOL0     C16786   5.727  11.034   5.261 -0.3397 -0.5221 -0.2471
  866MOL0     C16787   5.612  11.054   5.163 -0.2063  0.5720 -0.7228
  866MOL0     C16788   5.485  11.114   5.227  0.0738  0.9615 -0.3411
  866MOL0     C16789   5.378  11.139   5.131  0.5699 -0.0609  0.3063
  866MOL0     C16790   5.247  11.204   5.203 -0.2805  0.7944  0.7172
  866MOL0     C16791   5.116  11.198   5.130 -0.6348 -0.8326 -0.0716
  866MOL0     N16792   5.007  11.244   5.227 -0.6913  0.1075 -0.8964
  866MOL0     C16793   5.001  11.371   5.278 -0.0370 -0.5660 -0.8372
  866MOL0     C16794   4.898  11.364   5.372 -0.5425  1.0169  0.0057
  866MOL0     C16795   4.874  11.476   5.468 -0.1477 -0.9676  0.3489
  866MOL0     C16796   4.852  11.609   5.397 -0.3015 -0.0179 -0.4728
  866MOL0     C16797   4.722  11.620   5.317  0.1942 -0.1239  0.1068
  866MOL0     C16798   4.715  11.544   5.185 -0.2264  0.5965  1.0492
  866MOL0     O16799   4.811  11.606   5.102 -0.7148  1.3398 -0.8608
  866MOL0     C16800   4.819  11.563   4.971  0.4479 -0.7225  0.1477
  866MOL0     C16801   4.733  11.482   4.891 -0.2582 -0.3319 -0.3157
  866MOL0     C16802   4.769  11.458   4.760  0.5967 -0.3838  0.3303
  866MOL0     C16803   4.898  11.476   4.715  0.4890 -0.5576  0.2098
  866MOL0     C16804   4.926  11.434   4.577  0.1954 -0.5848  0.0349
  866MOL0     O16805   5.045  11.460   4.533 -0.0483 -0.0109 -0.2054
  866MOL0     C16806   5.066  11.405   4.406 -0.2324  0.6060 -0.0687
  866MOL0     C16807   5.075  11.501   4.305  0.5213  0.0889  0.1959
  866MOL0     C16808   5.104  11.461   4.179 -0.0758  0.3516 -0.5737
  866MOL0     C16809   5.133  11.328   4.156  0.0557 -0.1360 -0.5832
  866MOL0     O16810   5.151  11.269   4.033 -0.3291  0.2521  0.2849
  866MOL0     C16811   5.219  11.340   3.934  0.3491  0.1666  0.0552
  866MOL0     C16812   5.243  11.254   3.811  0.8674 -0.2518 -0.9383
  866MOL0     C16813   5.304  11.335   3.705  0.8805  0.6794  0.1748
  866MOL0     C16814   5.305  11.252   3.576 -0.0178 -1.2126  0.0547
  866MOL0     C16815   5.399  11.319   3.480  0.2273  0.6360 -0.8275
  866MOL0     C16816   5.325  11.451   3.434 -0.9491  0.5674  0.3319
  866MOL0     C16817   5.429  11.531   3.354 -0.4243  0.6529  0.0723
  866MOL0     C16818   5.496  11.642   3.438 -0.5187  0.6511  0.5954
  866MOL0    Cl16819   5.618  11.710   3.327 -0.0800 -0.0934  0.0051
  866MOL0     C16820   5.116  11.228   4.253  0.6546  0.2370 -0.0857
  866MOL0     C16821   5.081  11.269   4.385 -0.8524 -0.4739 -0.1194
  866MOL0     O16822   4.838  11.368   4.521 -0.5919  0.2065  0.7549
  866MOL0     C16823   4.996  11.529   4.798  0.7138 -0.2850 -0.2919
  866MOL0     C16824   4.952  11.583   4.922 -0.0419 -0.2170 -0.0703
  866MOL0     N16825   4.839  11.238   5.366 -0.2820  0.4562 -0.0912
  866MOL0     N16826   4.907  11.166   5.280 -0.4841 -0.7447 -0.2553
  866MOL0     C16827   5.917  10.792   5.606  0.0448  0.7711 -0.2538
  866MOL0     C16828   5.965  10.810   5.728 -0.0859 -0.0623 -0.7596
  866MOL0     C16829   6.286  10.918   6.064  0.8500 -0.8393 -0.8153
  866MOL0     C16830   6.412  10.905   6.129  0.2610 -0.0617  0.0557
  866MOL0     C16831   6.428  10.940   6.256  0.0431 -0.0486 -0.1342
  866MOL0     C16832   6.327  10.996   6.328 -0.0683 -0.2547  0.4833
  866MOL0     O16833   6.364  11.016   6.456  0.5826 -0.4555  0.2014
  866MOL0     C16834   6.265  11.072   6.550 -0.1500  0.3536 -0.3852
  866MOL0     C16835   6.176  10.958   6.610  0.6327  0.4788  0.0394
  866MOL0     C16836   6.095  11.031   6.723  0.7523  0.1692 -0.7400
  866MOL0     C16837   6.182  11.070   6.846  0.1921  0.6665 -0.2822
  866MOL0     C16838   6.271  10.957   6.881 -0.2232 -0.2861 -0.2682
  866MOL0     C16839   6.344  10.870   6.924 -0.5704 -1.2302 -0.4367
  866MOL0     C16840   6.201  11.003   6.273 -0.3701 -0.5047 -0.5666
  866MOL0     C16841   6.175  10.965   6.140 -0.4623 -0.3607 -0.7895
  866MOL0     C16842   6.035  10.977   6.091 -0.2140  0.1754  0.1600
  866MOL0     H16843   6.288  10.877   5.655  1.1860 -1.5913 -2.3030
  866MOL0     H16844   6.183  10.880   5.419  1.2351  3.7342  1.7763
  866MOL0     H16845   5.970  11.033   5.349  0.2212 -0.1923  0.8356
  866MOL0     H16846   6.047  10.925   5.224 -1.1684  0.2154 -1.5876
  866MOL0     H16847   5.824  10.888   5.127  1.6780  0.2809 -1.1457
  866MOL0     H16848   5.899  11.050   5.117  3.4575 -2.2452  0.0808
  866MOL0     H16849   5.757  11.133   5.297  2.6457 -1.4382  0.0323
  866MOL0     H16850   5.706  10.975   5.350  2.1905  0.0845  0.8424
  866MOL0     H16851   5.655  11.110   5.081 -1.2173  1.9995 -0.3150
  866MOL0     H16852   5.590  10.950   5.135 -0.4437  0.1286  0.9491
  866MOL0     H16853   5.438  11.039   5.291 -0.6136  1.2998 -0.4368
  866MOL0     H16854   5.496  11.201   5.291 -0.2814  0.7274  0.0458
  866MOL0     H16855   5.409  11.213   5.055 -3.4183  4.1576  2.3112
  866MOL0     H16856   5.334  11.049   5.089 -0.7578 -1.3228  4.0470
  866MOL0     H16857   5.265  11.312   5.200 -3.9741  1.5161 -1.5459
  866MOL0     H16858   5.239  11.157   5.301  0.2415 -1.5930 -0.3204
  866MOL0     H16859   5.114  11.252   5.035 -2.7866  1.0170  0.8999
  866MOL0     H16860   5.077  11.099   5.106 -0.3232 -1.1090  0.5484
  866MOL0     H16861   5.061  11.459   5.257 -3.0612  1.5565 -1.3855
  866MOL0     H16862   4.788  11.446   5.528 -2.5206  0.7838 -1.9411
  866MOL0     H16863   4.958  11.482   5.538 -0.3308  0.2069  0.5028
  866MOL0     H16864   4.848  11.694   5.465 -1.2138 -1.5884  1.5587
  866MOL0     H16865   4.940  11.626   5.334  0.1366 -2.0747 -0.4857
  866MOL0     H16866   4.708  11.722   5.281 -1.4881  0.0258  1.0744
  866MOL0     H16867   4.636  11.595   5.380 -1.4232  3.1390 -0.6357
  866MOL0     H16868   4.613  11.535   5.146  0.0961  1.9869 -0.1853
  866MOL0     H16869   4.744  11.440   5.201 -0.8812  0.1809 -0.3201
  866MOL0     H16870   4.635  11.449   4.923 -0.7279  2.0073  0.8938
  866MOL0     H16871   4.695  11.436   4.684 -0.9558 -0.9667  1.9345
  866MOL0     H16872   5.057  11.606   4.326  1.6914 -0.1357  2.8576
  866MOL0     H16873   5.101  11.532   4.097  1.0318 -1.3617 -2.1906
  866MOL0     H16874   5.174  11.435   3.903  1.0801  0.4058 -0.2869
  866MOL0     H16875   5.309  11.364   3.991 -0.7800 -1.1648  2.5927
  866MOL0     H16876   5.309  11.170   3.835  1.6483  0.7740  0.6900
  866MOL0     H16877   5.147  11.211   3.782  1.2766 -1.5348 -0.4460
  866MOL0     H16878   5.229  11.410   3.681 -1.6611 -1.6320  0.4036
  866MOL0     H16879   5.404  11.375   3.726  0.7746  0.5421  0.9761
  866MOL0     H16880   5.205  11.226   3.541 -0.2932 -0.6463  0.3855
  866MOL0     H16881   5.350  11.154   3.594 -2.3249 -2.1932  0.8481
  866MOL0     H16882   5.418  11.263   3.388 -3.2634 -0.7780 -0.8530
  866MOL0     H16883   5.491  11.334   3.537 -0.4361 -2.3778  1.2734
  866MOL0     H16884   5.234  11.427   3.378  0.1898  1.6289 -2.1228
  866MOL0     H16885   5.292  11.508   3.521 -3.7214 -3.0097  1.8927
  866MOL0     H16886   5.380  11.587   3.273  1.1773  1.8324 -0.1211
  866MOL0     H16887   5.509  11.466   3.318 -0.7799  0.9949 -1.4133
  866MOL0     H16888   5.423  11.712   3.479  0.0409  1.4233  0.2868
  866MOL0     H16889   5.558  11.602   3.519 -1.6409  1.3456  1.8434
  866MOL0     H16890   5.146  11.126   4.234  0.5794  0.1209  0.4002
  866MOL0     H16891   5.068  11.198   4.465 -1.3086  0.9372  1.1017
  866MOL0     H16892   5.094  11.548   4.755 -0.2335 -0.6852 -2.8075
  866MOL0     H16893   5.021  11.636   4.987 -3.0731 -0.6887  3.9146
  866MOL0     H16894   5.810  10.779   5.596  0.2557 -1.1219 -0.3616
  866MOL0     H16895   5.898  10.800   5.814  0.6036 -2.5074 -0.4291
  866MOL0     H16896   6.497  10.862   6.077 -0.8169 -1.9464 -0.2443
  866MOL0     H16897   6.522  10.921   6.307 -1.2127 -1.8138  1.7185
  866MOL0     H16898   6.189  11.138   6.506 -0.9851  0.5978  1.3631
  866MOL0     H16899   6.320  11.129   6.625  0.2144 -0.7061  0.1764
  866MOL0     H16900   6.238  10.873   6.639 -0.7456 -0.7173 -0.3791
  866MOL0     H16901   6.102  10.926   6.535 -0.0927  2.0762  0.0313
  866MOL0     H16902   6.008  10.973   6.755  0.9647  0.7988  1.1086
  866MOL0     H16903   6.054  11.124   6.683 -1.4816  0.1566  1.3228
  866MOL0     H16904   6.241  11.158   6.818  1.1881 -0.0747 -0.5646
  866MOL0     H16905   6.119  11.087   6.934  0.5397 -3.4050  0.9721
  866MOL0     H16906   6.420  10.805   6.962 -1.7149 -1.5112  1.4842
  866MOL0     H16907   6.118  11.035   6.335 -0.0674 -0.7166 -0.0454
  866MOL0     H16908   5.992  10.878   6.072  0.0458  0.1053 -0.0767
  866MOL0     H16909   5.972  11.016   6.172  1.0838  0.4539  1.0655
  866MOL0     H16910   6.017  11.044   6.006 -1.1633  1.0043  0.9913
  867MOL0     O16911   4.281   4.766   4.897  0.2572  0.4383 -0.4462
  867MOL0     C16912   4.232   4.836   4.814  0.1064 -0.6498  0.8652
  867MOL0     O16913   4.269   4.833   4.677  0.7741 -0.0037 -0.1970
  867MOL0     C16914   4.378   4.753   4.645  1.4476  0.0116  0.1861
  867MOL0     C16915   4.508   4.803   4.656  0.3219 -0.1794  0.4104
  867MOL0     C16916   4.620   4.716   4.649  1.4065 -1.2954  0.0392
  867MOL0     C16917   4.595   4.578   4.622  0.4295 -0.2661  0.1536
  867MOL0     O16918   4.702   4.491   4.623 -0.1633  0.0797 -0.0749
  867MOL0     C16919   4.702   4.360   4.574  0.2527  0.5680 -0.1128
  867MOL0     C16920   4.846   4.306   4.550  0.1807 -0.7769 -0.0238
  867MOL0     C16921   4.937   4.276   4.668 -0.6642 -0.0302 -0.5028
  867MOL0     C16922   5.018   4.404   4.688  0.1845 -0.6701  0.5348
  867MOL0     C16923   5.128   4.373   4.788  0.1770 -0.6492  0.7445
  867MOL0     C16924   5.206   4.504   4.811  0.3146  0.5989  0.1054
  867MOL0     C16925   5.295   4.498   4.933  0.0823  0.0551  0.8674
  867MOL0     C16926   5.437   4.447   4.906  1.3444  0.1604  0.6080
  867MOL0     N16927   5.544   4.533   4.864  0.5343  0.2367  0.0628
  867MOL0     C16928   5.648   4.499   4.776 -0.3609 -0.0309  0.1933
  867MOL0     C16929   5.708   4.616   4.744  0.2729  0.5629 -0.0099
  867MOL0     C16930   5.843   4.627   4.682 -0.1310  1.0466 -0.7731
  867MOL0     C16931   5.830   4.699   4.550 -0.1335  0.0314  0.9953
  867MOL0     C16932   5.779   4.614   4.434  0.7423  0.6145 -0.3956
  867MOL0     C16933   5.628   4.636   4.415 -0.2870 -1.0227  0.9295
  867MOL0     O16934   5.584   4.569   4.300  0.7352  0.2669  0.7278
  867MOL0     C16935   5.445   4.553   4.283 -0.7135 -0.7269 -0.1505
  867MOL0     C16936   5.388   4.429   4.292  0.3555  0.4856 -1.0411
  867MOL0     C16937   5.252   4.405   4.266  0.9908 -0.2884  0.9574
  867MOL0     C16938   5.172   4.520   4.229  0.2672  0.1200 -0.0073
  867MOL0     C16939   5.024   4.509   4.195 -0.5482  0.9871  0.0617
  867MOL0     O16940   4.950   4.617   4.152  0.0470  0.1926  0.5855
  867MOL0     C16941   4.807   4.612   4.140  0.3609  0.3380 -0.1284
  867MOL0     C16942   4.715   4.618   4.251  0.0519 -0.4409 -0.1349
  867MOL0     C16943   4.578   4.603   4.235 -0.8182 -0.8752 -0.5089
  867MOL0     C16944   4.527   4.578   4.113  0.0602  0.6933  0.0795
  867MOL0     O16945   4.395   4.543   4.084 -0.0750  0.8231  0.0380
  867MOL0     C16946   4.290   4.622   4.141  0.0032  0.6919  0.2607
  867MOL0     C16947   4.270   4.752   4.062 -0.6106  0.5363  0.4052
  867MOL0     C16948   4.215   4.729   3.917 -0.5419 -0.5134  0.3710
  867MOL0     C16949   4.086   4.658   3.897 -0.4699 -0.0854 -0.7127
  867MOL0     C16950   3.964   4.723   3.959 -0.9417 -0.2363  0.9495
  867MOL0     C16951   3.932   4.864   3.908 -0.8067  0.0228 -0.8843
  867MOL0     C16952   3.805   4.915   3.967 -0.6613  0.5140 -0.2201
  867MOL0     C16953   3.814   5.058   3.945  0.5275  0.7418  0.2487
  867MOL0    Cl16954   3.668   5.126   4.013 -0.1670 -0.2427  0.0569
  867MOL0     C16955   4.608   4.565   3.999 -0.5454 -0.3074 -0.8344
  867MOL0     C16956   4.749   4.589   4.015 -0.2419 -0.3527 -0.7713
  867MOL0     O16957   4.975   4.405   4.216  0.4996 -0.4351 -0.6446
  867MOL0     C16958   5.233   4.646   4.220 -0.0607 -0.1816 -0.0991
  867MOL0     C16959   5.369   4.664   4.248 -0.8025  0.3321  0.4120
  867MOL0     N16960   5.649   4.710   4.809 -0.2572  0.4479 -0.2604
  867MOL0     N16961   5.540   4.670   4.874 -0.3764  0.2994  0.1275
  867MOL0     C16962   4.472   4.529   4.613  0.1126 -0.6588 -0.0732
  867MOL0     C16963   4.368   4.616   4.629  1.1097  0.2503 -0.6465
  867MOL0     C16964   4.109   4.921   4.851  1.4063  0.2984  0.4520
  867MOL0     C16965   4.047   4.990   4.741 -0.0289 -0.3369  0.7118
  867MOL0     C16966   3.945   5.077   4.755  0.1986 -0.0082 -0.6272
  867MOL0     C16967   3.878   5.090   4.875  0.2830 -0.1553 -0.9280
  867MOL0     O16968   3.757   5.154   4.900  0.4066  0.4298  0.2286
  867MOL0     C16969   3.684   5.230   4.805 -0.2228  0.6780  0.5092
  867MOL0     C16970   3.557   5.161   4.749 -0.5612  0.1187 -0.2684
  867MOL0     C16971   3.441   5.148   4.854  0.0041  0.1687  0.0006
  867MOL0     C16972   3.318   5.086   4.791  0.2115 -0.2145 -0.4655
  867MOL0     C16973   3.200   5.108   4.883  1.3319  0.4769 -0.5602
  867MOL0     C16974   3.098   5.142   4.941 -0.4646  0.4493  0.7986
  867MOL0     C16975   3.937   5.020   4.990  0.8998 -1.0241  0.0626
  867MOL0     C16976   4.050   4.951   4.979 -0.2351 -0.3347 -0.0296
  867MOL0     C16977   4.099   4.904   5.108  0.5643 -0.4194  0.8331
  867MOL0     H16978   4.522   4.907   4.682  1.6415  0.3193 -2.0211
  867MOL0     H16979   4.715   4.765   4.669  0.4256  0.7005  0.0741
  867MOL0     H16980   4.636   4.290   4.626 -1.4058  1.9230 -0.2996
  867MOL0     H16981   4.657   4.358   4.475 -1.1768 -0.5009  0.5133
  867MOL0     H16982   4.894   4.361   4.469 -0.1833 -0.3753  0.0292
  867MOL0     H16983   4.816   4.205   4.523  1.3414 -1.5181  1.3362
  867MOL0     H16984   5.010   4.196   4.654 -2.0630 -1.3398 -0.5277
  867MOL0     H16985   4.883   4.253   4.760  0.4946 -2.4715 -0.3713
  867MOL0     H16986   5.065   4.438   4.595 -1.6367  0.9843  0.1486
  867MOL0     H16987   4.961   4.489   4.726  0.2507 -1.1001  1.6417
  867MOL0     H16988   5.070   4.344   4.876  0.2577  2.0441  1.7597
  867MOL0     H16989   5.191   4.288   4.762 -0.9328 -1.0365 -0.8952
  867MOL0     H16990   5.263   4.521   4.719  3.4219 -2.4020  1.2435
  867MOL0     H16991   5.143   4.593   4.820 -2.2945 -0.5937 -3.9822
  867MOL0     H16992   5.249   4.444   5.016  0.0678 -1.0592  0.1457
  867MOL0     H16993   5.308   4.601   4.968  2.5454 -0.1347  0.7106
  867MOL0     H16994   5.458   4.401   5.003 -1.6747 -0.4457  1.0769
  867MOL0     H16995   5.422   4.367   4.833 -0.7921  0.9569  0.0833
  867MOL0     H16996   5.670   4.396   4.749  0.6151  0.2552 -0.1310
  867MOL0     H16997   5.905   4.680   4.756  2.3208 -1.9264 -0.5152
  867MOL0     H16998   5.890   4.530   4.665  0.7433  1.0349  1.3798
  867MOL0     H16999   5.767   4.789   4.558 -1.0547  0.1928 -4.3591
  867MOL0     H17000   5.934   4.714   4.521 -0.0848 -1.9297 -0.0319
  867MOL0     H17001   5.791   4.507   4.456 -1.9843  0.4438  0.6509
  867MOL0     H17002   5.840   4.643   4.348 -1.2398 -0.1380 -2.1376
  867MOL0     H17003   5.622   4.744   4.403 -2.2179 -1.3485 -2.1749
  867MOL0     H17004   5.569   4.609   4.503 -0.4936 -0.2873  1.0154
  867MOL0     H17005   5.464   4.356   4.319  1.4256  1.4414 -1.3702
  867MOL0     H17006   5.201   4.310   4.272 -0.7751  0.5314 -0.3360
  867MOL0     H17007   4.752   4.604   4.352  0.7848 -2.2216 -0.5996
  867MOL0     H17008   4.518   4.577   4.321  0.4399  2.9334  1.7743
  867MOL0     H17009   4.194   4.570   4.125  1.7387 -2.4272 -0.9459
  867MOL0     H17010   4.303   4.649   4.246 -1.3665  1.3885  0.2787
  867MOL0     H17011   4.202   4.818   4.116  1.5852  1.9757  1.5817
  867MOL0     H17012   4.366   4.804   4.065  1.3456 -2.5651 -2.3176
  867MOL0     H17013   4.214   4.829   3.873  1.9037  1.3412  3.9929
  867MOL0     H17014   4.295   4.673   3.868 -0.2792  0.6811 -0.6217
  867MOL0     H17015   4.109   4.558   3.937  1.2887  0.2604 -0.7650
  867MOL0     H17016   4.070   4.652   3.789 -0.9932  0.5515 -0.6733
  867MOL0     H17017   3.988   4.736   4.065 -0.4530  1.4411  0.6748
  867MOL0     H17018   3.885   4.650   3.943 -1.7977  0.9072 -0.2853
  867MOL0     H17019   4.021   4.920   3.939 -1.9190  1.2084  0.2980
  867MOL0     H17020   3.931   4.874   3.799 -0.4950 -1.9450 -1.1023
  867MOL0     H17021   3.804   4.894   4.074  0.4399 -1.7872 -0.6030
  867MOL0     H17022   3.710   4.883   3.922 -0.8248  2.2418 -1.2197
  867MOL0     H17023   3.902   5.101   3.994 -0.3465  1.4784  1.2347
  867MOL0     H17024   3.813   5.073   3.837 -0.4294  0.1108  0.1532
  867MOL0     H17025   4.578   4.550   3.896 -1.0118  0.0884 -0.7576
  867MOL0     H17026   4.821   4.596   3.934  2.0397  1.5320  1.2601
  867MOL0     H17027   5.182   4.738   4.196  1.1113 -0.2541 -3.3555
  867MOL0     H17028   5.407   4.764   4.233 -2.0679  0.9774  1.3594
  867MOL0     H17029   4.463   4.425   4.583  1.5725  0.0200 -3.3748
  867MOL0     H17030   4.268   4.575   4.624  0.6376  0.5885  3.1826
  867MOL0     H17031   4.086   4.983   4.640  0.1793  0.6921  0.7045
  867MOL0     H17032   3.908   5.115   4.660 -2.5194 -2.2778 -0.6229
  867MOL0     H17033   3.754   5.266   4.729 -1.2089 -0.0154 -0.7569
  867MOL0     H17034   3.647   5.317   4.861 -1.0982  0.3557  0.4440
  867MOL0     H17035   3.588   5.061   4.717 -0.5894 -1.2672  3.5878
  867MOL0     H17036   3.520   5.231   4.673  0.6593  1.9122  0.6980
  867MOL0     H17037   3.419   5.247   4.894 -0.9600 -0.2598  0.5730
  867MOL0     H17038   3.471   5.084   4.938 -0.9253 -1.6996 -1.0070
  867MOL0     H17039   3.303   5.137   4.695  3.4445  5.2325  1.4712
  867MOL0     H17040   3.337   4.978   4.780 -2.4978 -0.8232 -0.0684
  867MOL0     H17041   3.010   5.175   4.992 -0.1676  0.3075  1.4098
  867MOL0     H17042   3.891   5.047   5.084  0.5342  0.7111 -0.5754
  867MOL0     H17043   4.205   4.877   5.112  1.0861  0.7287 -2.4348
  867MOL0     H17044   4.080   4.988   5.175  1.2481  1.6194 -1.4235
  867MOL0     H17045   4.031   4.824   5.141 -0.7487 -0.2781 -1.3349
  868MOL0     O17046  11.387   6.354   2.589  0.9901  0.3026  0.1433
  868MOL0     C17047  11.391   6.258   2.664  0.1577  0.6154  0.2936
  868MOL0     O17048  11.506   6.199   2.697  0.3341 -0.4314 -0.1727
  868MOL0     C17049  11.626   6.257   2.684  0.0164 -0.6854  0.3561
  868MOL0     C17050  11.729   6.177   2.639 -0.4516  0.3578  0.7224
  868MOL0     C17051  11.852   6.229   2.625 -0.7932  0.0141  0.7815
  868MOL0     C17052  11.879   6.367   2.655 -0.3390 -0.1396  0.3815
  868MOL0     O17053  11.996   6.423   2.645  0.0744  0.3841  0.0480
  868MOL0     C17054  12.020   6.459   2.511  0.1710  0.0003  0.6989
  868MOL0     C17055  12.146   6.538   2.511  0.1187 -0.3826 -0.4387
  868MOL0     C17056  12.189   6.552   2.366 -0.5811 -0.9883 -0.6233
  868MOL0     C17057  12.321   6.631   2.334  0.2440  0.5894  0.4623
  868MOL0     C17058  12.290   6.756   2.242 -1.3789  0.4921  0.1977
  868MOL0     C17059  12.436   6.814   2.199  0.1191 -0.2130  0.2191
  868MOL0     C17060  12.404   6.935   2.113 -1.5393 -0.4902  0.2587
  868MOL0     C17061  12.524   7.027   2.062  0.6350  0.5984  0.3823
  868MOL0     N17062  12.603   7.066   2.182  0.9358  0.3825  0.1921
  868MOL0     C17063  12.700   6.990   2.235 -0.0574  0.5191 -0.5492
  868MOL0     C17064  12.742   7.061   2.348  0.7820  0.5161 -0.8829
  868MOL0     C17065  12.854   7.028   2.436  0.0554  0.2605  0.2962
  868MOL0     C17066  12.879   6.875   2.445  0.1550  0.9658  0.4956
  868MOL0     C17067  12.770   6.825   2.538  0.4755  0.4949 -0.2077
  868MOL0     C17068  12.793   6.686   2.596 -0.6651 -0.5492 -0.2204
  868MOL0     O17069  12.833   6.597   2.498 -0.2985 -0.1117  0.2517
  868MOL0     C17070  12.743   6.500   2.468  0.6274  0.6810  0.2994
  868MOL0     C17071  12.669   6.413   2.552  0.6660  1.2717 -0.1133
  868MOL0     C17072  12.591   6.306   2.497 -0.5566  1.2833 -0.4507
  868MOL0     C17073  12.591   6.284   2.359  0.0893 -0.0074  0.0693
  868MOL0     C17074  12.506   6.177   2.301 -0.1806  0.2147 -0.5316
  868MOL0     O17075  12.416   6.123   2.386  0.1642  0.6432 -0.1309
  868MOL0     C17076  12.321   6.032   2.341  1.0108  0.5632 -1.0523
  868MOL0     C17077  12.342   5.915   2.262  0.1638  0.2665 -0.1706
  868MOL0     C17078  12.236   5.838   2.212  0.4553 -1.0076  0.6022
  868MOL0     C17079  12.106   5.869   2.253  0.0850 -0.7793  0.2102
  868MOL0     O17080  11.989   5.809   2.216 -0.2271  0.3627 -0.0155
  868MOL0     C17081  11.932   5.734   2.318  0.3949  1.2611 -0.2371
  868MOL0     C17082  11.798   5.692   2.263 -0.4595 -0.4717 -0.4438
  868MOL0     C17083  11.731   5.587   2.349  0.4616  0.0617  0.6277
  868MOL0     C17084  11.590   5.548   2.304 -1.3195  0.9335 -1.0483
  868MOL0     C17085  11.538   5.442   2.401  0.1427 -0.2650  0.5774
  868MOL0     C17086  11.387   5.394   2.373 -0.4779  0.6216  0.0457
  868MOL0     C17087  11.343   5.271   2.447 -0.2751 -0.2377  0.4940
  868MOL0     C17088  11.188   5.271   2.453 -0.2976 -0.4163  1.1020
  868MOL0    Cl17089  11.157   5.148   2.586  0.0284 -0.0611 -0.0202
  868MOL0     C17090  12.082   5.986   2.329 -0.2175  0.9851 -0.4692
  868MOL0     C17091  12.186   6.066   2.376 -0.6858 -0.8191  0.9287
  868MOL0     O17092  12.532   6.137   2.188 -0.3379  0.3802 -0.3705
  868MOL0     C17093  12.668   6.373   2.276  0.8380  0.0381  0.8151
  868MOL0     C17094  12.738   6.482   2.333  1.1646 -0.4177  0.2863
  868MOL0     N17095  12.667   7.177   2.351 -0.5541  0.6955 -0.2834
  868MOL0     N17096  12.592   7.189   2.245 -0.0356 -0.9667  0.4778
  868MOL0     C17097  11.776   6.450   2.695 -0.2830  0.3323 -0.0661
  868MOL0     C17098  11.649   6.398   2.713  0.5411 -0.3286  0.7769
  868MOL0     C17099  11.259   6.182   2.686 -0.0617  0.0576 -1.0984
  868MOL0     C17100  11.170   6.171   2.577 -0.2489 -0.4986  0.3842
  868MOL0     C17101  11.055   6.101   2.592  0.2963  0.2980  0.0863
  868MOL0     C17102  11.018   6.050   2.711  0.4942 -0.7648  0.1614
  868MOL0     O17103  10.891   5.993   2.707  0.0267 -0.0334 -0.5409
  868MOL0     C17104  10.833   5.949   2.826 -0.3987  0.1127 -1.0919
  868MOL0     C17105  10.686   5.929   2.796  0.1255  0.7264  0.1484
  868MOL0     C17106  10.647   5.796   2.733 -0.5282 -0.1866  0.3133
  868MOL0     C17107  10.504   5.768   2.703  0.6410  0.0079  1.2208
  868MOL0     C17108  10.495   5.634   2.641  0.4760 -0.1943 -0.0462
  868MOL0     C17109  10.496   5.523   2.591 -0.5061  0.0238 -0.0120
  868MOL0     C17110  11.106   6.049   2.818  0.8560 -0.2969 -1.4895
  868MOL0     C17111  11.217   6.128   2.819  0.1073  1.3493  0.9705
  868MOL0     C17112  11.309   6.137   2.936 -0.3437  0.5727 -0.0312
  868MOL0     H17113  11.706   6.073   2.614 -1.5416 -0.0596  3.1620
  868MOL0     H17114  11.925   6.162   2.581 -1.2106 -0.6207  1.0363
  868MOL0     H17115  12.043   6.379   2.439  2.6121  0.8842  0.4131
  868MOL0     H17116  11.938   6.523   2.476 -0.0374  0.2429  1.6125
  868MOL0     H17117  12.234   6.501   2.564  1.1546  0.2129 -1.6810
  868MOL0     H17118  12.113   6.637   2.544 -0.7085 -0.9103  0.3343
  868MOL0     H17119  12.108   6.594   2.306  0.0466  0.4383 -0.5355
  868MOL0     H17120  12.205   6.448   2.338  0.4715 -0.4491 -2.1696
  868MOL0     H17121  12.368   6.668   2.426  0.2761 -0.4213  0.8751
  868MOL0     H17122  12.399   6.567   2.290  1.0243  0.5368  1.8394
  868MOL0     H17123  12.225   6.736   2.157  1.3608 -1.6133 -1.5833
  868MOL0     H17124  12.239   6.826   2.310 -0.5782 -1.9651  3.6133
  868MOL0     H17125  12.487   6.841   2.292 -1.0331  0.6193  0.6355
  868MOL0     H17126  12.476   6.734   2.136  2.6116  0.3077  1.0133
  868MOL0     H17127  12.351   7.008   2.174 -1.2728  0.7380 -0.9370
  868MOL0     H17128  12.341   6.905   2.029 -0.7245  2.2768 -1.4591
  868MOL0     H17129  12.580   6.968   1.989  3.3969  2.0071  1.1843
  868MOL0     H17130  12.471   7.108   2.011 -1.1264 -0.8239 -0.1244
  868MOL0     H17131  12.739   6.894   2.203  0.7196 -0.5083  3.0256
  868MOL0     H17132  12.942   7.079   2.394  2.3975 -0.7176  3.6364
  868MOL0     H17133  12.842   7.075   2.534 -1.5690 -2.2262  1.3880
  868MOL0     H17134  12.875   6.815   2.353  1.4501 -1.8774  2.1666
  868MOL0     H17135  12.978   6.857   2.487  0.1801 -1.3362 -0.3843
  868MOL0     H17136  12.672   6.824   2.489 -1.0854  1.2737  2.6890
  868MOL0     H17137  12.764   6.893   2.623  0.5102  0.7521 -0.4103
  868MOL0     H17138  12.708   6.653   2.656  0.1594 -0.4287  1.0611
  868MOL0     H17139  12.882   6.708   2.657  0.5411 -0.7785 -1.8268
  868MOL0     H17140  12.678   6.428   2.659 -1.2577 -0.6560  0.3755
  868MOL0     H17141  12.536   6.234   2.556  2.1388 -2.1992 -1.8453
  868MOL0     H17142  12.439   5.888   2.222  0.1971  2.0674 -1.4550
  868MOL0     H17143  12.262   5.777   2.126 -3.0312 -1.9312  0.0197
  868MOL0     H17144  11.996   5.651   2.347 -0.2846  1.4969  2.0962
  868MOL0     H17145  11.925   5.804   2.401 -0.5202  0.8173  0.0693
  868MOL0     H17146  11.734   5.780   2.258 -0.0835 -0.2567 -2.3844
  868MOL0     H17147  11.806   5.652   2.162  0.7729 -0.1677 -0.4888
  868MOL0     H17148  11.787   5.494   2.336  0.5319  0.3282 -1.2142
  868MOL0     H17149  11.731   5.622   2.453 -0.8419 -0.7759  0.9290
  868MOL0     H17150  11.591   5.514   2.200  2.1349  0.0731 -0.8252
  868MOL0     H17151  11.525   5.637   2.309 -1.0070  1.1343 -0.5372
  868MOL0     H17152  11.536   5.491   2.499  0.3717  0.4838  0.2190
  868MOL0     H17153  11.608   5.358   2.399  0.4414 -0.0471  1.3505
  868MOL0     H17154  11.322   5.481   2.384 -0.3305  0.5364  1.8938
  868MOL0     H17155  11.379   5.376   2.265  3.4386  1.9866 -0.6254
  868MOL0     H17156  11.382   5.281   2.549  0.5679 -0.5530  0.2116
  868MOL0     H17157  11.385   5.185   2.394  0.3065  0.4355 -0.1466
  868MOL0     H17158  11.151   5.367   2.492  2.3599  1.3501 -0.3624
  868MOL0     H17159  11.139   5.249   2.358  0.2049  1.5527  0.3320
  868MOL0     H17160  11.986   6.017   2.368 -0.1186  2.2372 -1.1826
  868MOL0     H17161  12.163   6.149   2.443  0.2676  1.1410 -1.0307
  868MOL0     H17162  12.675   6.367   2.168  1.7750 -0.9381  0.9127
  868MOL0     H17163  12.794   6.542   2.263 -0.6660  0.7691 -0.2454
  868MOL0     H17164  11.790   6.553   2.724  1.1177 -0.8112  4.0108
  868MOL0     H17165  11.578   6.475   2.742  0.6582  0.5879 -1.1807
  868MOL0     H17166  11.204   6.226   2.490  2.3302  0.9912  2.1806
  868MOL0     H17167  10.991   6.082   2.508  2.6704 -0.1846 -1.7301
  868MOL0     H17168  10.844   6.029   2.900 -0.4483  0.6646 -1.6690
  868MOL0     H17169  10.869   5.850   2.855 -0.1217  0.3771 -0.5155
  868MOL0     H17170  10.644   6.008   2.733  0.4657 -1.7823 -3.4998
  868MOL0     H17171  10.634   5.941   2.892 -2.7299  2.0128 -1.4354
  868MOL0     H17172  10.684   5.716   2.798  1.7698  0.6451  0.1249
  868MOL0     H17173  10.705   5.785   2.641 -0.5300 -2.0597  0.4870
  868MOL0     H17174  10.460   5.766   2.803  1.5922 -1.0243  1.6393
  868MOL0     H17175  10.455   5.844   2.641  0.3294 -1.7206 -0.7848
  868MOL0     H17176  10.489   5.419   2.569 -0.1938 -0.4222  1.8779
  868MOL0     H17177  11.068   5.996   2.904  2.7431 -1.7996 -1.4968
  868MOL0     H17178  11.267   6.103   3.032  0.2293  0.3860  0.1544
  868MOL0     H17179  11.394   6.078   2.902 -0.9443  0.4901 -1.4755
  868MOL0     H17180  11.347   6.239   2.951  0.3482  0.4780 -1.0902
  869MOL0     O17181   0.754  10.377   1.307 -0.3312  0.0976 -0.6331
  869MOL0     C17182   0.705  10.296   1.395  0.1705 -1.1230  0.1981
  869MOL0     O17183   0.773  10.250   1.504  0.0745  0.7003 -0.3144
  869MOL0     C17184   0.897  10.297   1.546 -0.9477  0.1613  0.0062
  869MOL0     C17185   0.969  10.411   1.499 -0.2464 -0.4078  0.0984
  869MOL0     C17186   1.080  10.457   1.573  0.0056  0.3754  0.4291
  869MOL0     C17187   1.133  10.387   1.687 -0.7648  0.2247  0.5676
  869MOL0     O17188   1.245  10.444   1.747  0.1086  0.6872  0.0150
  869MOL0     C17189   1.354  10.348   1.727  0.3762  0.1437 -0.0263
  869MOL0     C17190   1.490  10.412   1.742  0.3293  0.2177  0.0038
  869MOL0     C17191   1.517  10.468   1.883  0.1577 -0.0284  0.6876
  869MOL0     C17192   1.511  10.369   1.991 -0.3324  0.9171  0.7386
  869MOL0     C17193   1.541  10.434   2.130 -0.8422 -0.0473  0.0206
  869MOL0     C17194   1.687  10.491   2.139 -0.0217 -0.5943 -0.7654
  869MOL0     C17195   1.741  10.507   2.283 -0.3917  0.2516 -0.2253
  869MOL0     C17196   1.878  10.578   2.288 -0.3407 -0.0318 -0.3811
  869MOL0     N17197   1.916  10.600   2.430 -0.6408  0.3699  0.0841
  869MOL0     C17198   1.944  10.503   2.526 -0.3894  0.0206  0.9109
  869MOL0     C17199   1.987  10.577   2.635 -0.3003 -0.3334  0.3182
  869MOL0     C17200   2.048  10.500   2.762  0.0242  0.3887  0.8424
  869MOL0     C17201   2.049  10.581   2.901 -0.2265  0.3799 -0.3342
  869MOL0     C17202   1.913  10.627   2.961  0.2739  0.4436 -0.9078
  869MOL0     C17203   1.890  10.773   2.950  0.5355 -0.0681 -0.5478
  869MOL0     O17204   1.754  10.800   2.987 -0.5520 -0.7568  0.1306
  869MOL0     C17205   1.725  10.931   3.020  0.3577 -0.4131 -0.4972
  869MOL0     C17206   1.823  11.034   3.047  1.0699 -0.3702  0.2612
  869MOL0     C17207   1.782  11.164   3.080  0.0863 -0.4954 -0.0936
  869MOL0     C17208   1.648  11.203   3.080  1.0208  0.6712  0.0678
  869MOL0     C17209   1.618  11.348   3.129 -0.5992  1.2949  0.0010
  869MOL0     O17210   1.738  11.435   3.138  0.0626 -0.0991  0.2219
  869MOL0     C17211   1.728  11.574   3.174  0.6182  0.3288  0.1789
  869MOL0     C17212   1.624  11.641   3.236 -0.8816  0.5969  0.1481
  869MOL0     C17213   1.644  11.772   3.279 -0.4839  0.9079 -0.8575
  869MOL0     C17214   1.759  11.844   3.253  0.6409  0.8176  0.4651
  869MOL0     O17215   1.800  11.968   3.306  0.7012  0.7060 -0.0248
  869MOL0     C17216   1.704  12.030   3.386  1.0150  1.0927 -0.3089
  869MOL0     C17217   1.769  12.164   3.430 -0.2365 -0.0639  0.2124
  869MOL0     C17218   1.713  12.219   3.561  0.3170 -0.0967 -0.7385
  869MOL0     C17219   1.752  12.356   3.602  0.1707 -0.3626  0.3749
  869MOL0     C17220   1.686  12.407   3.731 -0.0118  0.3142 -0.2769
  869MOL0     C17221   1.750  12.356   3.857  0.1104 -0.4415 -0.5751
  869MOL0     C17222   1.873  12.443   3.896  0.7723  0.5482 -0.2567
  869MOL0     C17223   1.939  12.400   4.022 -0.4856  0.7404  0.2630
  869MOL0    Cl17224   2.087  12.496   4.042 -0.0494 -0.0248  0.2259
  869MOL0     C17225   1.862  11.777   3.184  0.5127 -0.1173  0.3696
  869MOL0     C17226   1.847  11.642   3.159  0.4582 -0.2397  0.0471
  869MOL0     O17227   1.502  11.375   3.168  0.4609  0.2891  0.5806
  869MOL0     C17228   1.556  11.106   3.054  0.3657 -0.1928  0.1576
  869MOL0     C17229   1.584  10.973   3.021 -0.8873  1.2322  0.4861
  869MOL0     N17230   1.982  10.711   2.601  0.5543 -0.0208  0.7809
  869MOL0     N17231   1.935  10.716   2.484 -0.3613 -0.3213 -0.3751
  869MOL0     C17232   1.071  10.268   1.724  0.1756 -0.1017  0.4218
  869MOL0     C17233   0.956  10.229   1.657  0.0180  0.7374 -0.0295
  869MOL0     C17234   0.561  10.256   1.386 -0.0891  0.5949  0.1970
  869MOL0     C17235   0.493  10.204   1.501  1.0137 -0.5532 -0.2907
  869MOL0     C17236   0.356  10.159   1.496  0.6518  0.5077  0.9222
  869MOL0     C17237   0.280  10.171   1.379 -1.3882  0.2118  0.3939
  869MOL0     O17238   0.151  10.135   1.352  0.5651  0.0958  0.0370
  869MOL0     C17239   0.065  10.104   1.465  0.7227  0.6762  1.3050
  869MOL0     C17240   0.049   9.951   1.466 -0.1004  0.3144 -0.1696
  869MOL0     C17241  -0.019   9.896   1.349  0.2841  0.4537 -0.0232
  869MOL0     C17242  -0.072   9.755   1.356  0.4575 -0.6045  0.0856
  869MOL0     C17243  -0.160   9.707   1.249  0.2731 -0.1031  0.3650
  869MOL0     C17244  -0.248   9.666   1.169  0.4668  0.7640 -0.3047
  869MOL0     C17245   0.344  10.226   1.269 -0.0055 -0.3107  0.2636
  869MOL0     C17246   0.477  10.267   1.268  0.4257  0.2998  0.1450
  869MOL0     C17247   0.519  10.325   1.129 -0.8381 -0.1647  0.3957
  869MOL0     H17248   0.935  10.482   1.424 -0.4243 -0.4849  0.1040
  869MOL0     H17249   1.134  10.548   1.546  0.3674 -0.3920 -1.6697
  869MOL0     H17250   1.346  10.268   1.802 -0.0694  0.5819  0.3991
  869MOL0     H17251   1.345  10.304   1.628 -3.1486  1.9158 -0.6298
  869MOL0     H17252   1.484  10.495   1.671 -1.5259  1.3324  1.3788
  869MOL0     H17253   1.561  10.335   1.710  0.0913  0.7204 -1.8580
  869MOL0     H17254   1.464  10.562   1.902 -0.1038 -0.5131  2.5120
  869MOL0     H17255   1.621  10.504   1.884  0.8157 -1.8084  2.3851
  869MOL0     H17256   1.417  10.316   2.006 -0.7834  1.7421  0.9236
  869MOL0     H17257   1.580  10.285   1.978 -0.7743  0.9143 -2.0377
  869MOL0     H17258   1.472  10.517   2.149 -0.5755  0.5254 -1.3483
  869MOL0     H17259   1.525  10.360   2.208  0.4221 -1.4302 -0.9766
  869MOL0     H17260   1.754  10.431   2.076 -0.1579 -1.7016  0.1041
  869MOL0     H17261   1.686  10.591   2.095  2.7997 -0.0830  0.1064
  869MOL0     H17262   1.745  10.404   2.320  0.9878 -0.5249 -2.3402
  869MOL0     H17263   1.673  10.566   2.344  1.0288  2.4014 -0.6368
  869MOL0     H17264   1.953  10.512   2.243  0.3809  0.7483 -0.3703
  869MOL0     H17265   1.887  10.676   2.240 -0.7801  1.1921  1.8934
  869MOL0     H17266   1.940  10.395   2.517  0.2674 -0.1165  2.1151
  869MOL0     H17267   1.979  10.416   2.771 -0.1780  0.0321 -2.5169
  869MOL0     H17268   2.145  10.452   2.750 -0.1278 -0.2382  1.9828
  869MOL0     H17269   2.090  10.511   2.975 -2.1751  1.1400  1.5635
  869MOL0     H17270   2.114  10.669   2.896  1.3337 -0.6896  0.1787
  869MOL0     H17271   1.887  10.592   3.061 -2.8102  0.8043 -1.4660
  869MOL0     H17272   1.834  10.582   2.899  0.4389 -0.2536 -0.6191
  869MOL0     H17273   1.905  10.804   2.846 -0.0424 -1.5195 -1.0941
  869MOL0     H17274   1.962  10.812   3.023 -1.0391  0.3969  0.8110
  869MOL0     H17275   1.926  11.003   3.059  0.8264 -0.1321  4.6362
  869MOL0     H17276   1.862  11.228   3.116 -0.6816  0.0832  0.6177
  869MOL0     H17277   1.530  11.596   3.269  1.0720 -1.6171  3.1717
  869MOL0     H17278   1.580  11.827   3.347  2.5316  1.6009  1.7069
  869MOL0     H17279   1.618  12.053   3.323  1.6197  0.0271 -1.5661
  869MOL0     H17280   1.675  11.978   3.478 -3.1494  0.0282 -1.9929
  869MOL0     H17281   1.878  12.159   3.440 -0.4661 -0.1383  3.9817
  869MOL0     H17282   1.754  12.244   3.357 -1.3609  1.5731  2.1563
  869MOL0     H17283   1.605  12.213   3.542 -0.3366 -4.8471  2.4790
  869MOL0     H17284   1.739  12.154   3.646  0.4116  0.5856 -0.2406
  869MOL0     H17285   1.742  12.430   3.522 -2.5054  1.2877  2.0499
  869MOL0     H17286   1.858  12.355   3.627  0.6073  0.3498 -1.3551
  869MOL0     H17287   1.579  12.384   3.729  0.3697 -1.6934 -2.8782
  869MOL0     H17288   1.700  12.516   3.732 -0.3323  0.3718 -1.0265
  869MOL0     H17289   1.679  12.367   3.940  1.5456  1.9142  0.4348
  869MOL0     H17290   1.778  12.250   3.853  4.6838  0.4838  0.9472
  869MOL0     H17291   1.836  12.544   3.912  2.9102  1.5232 -1.1009
  869MOL0     H17292   1.943  12.455   3.813  1.4660  1.4750  0.4399
  869MOL0     H17293   1.879  12.415   4.113  0.6879  2.2733  0.8360
  869MOL0     H17294   1.983  12.301   4.022 -2.4070 -0.1830 -1.4676
  869MOL0     H17295   1.955  11.831   3.168 -0.4960  1.1891 -1.3383
  869MOL0     H17296   1.941  11.599   3.124  2.2170  1.7370  2.0264
  869MOL0     H17297   1.454  11.139   3.066 -0.1696 -1.8432  0.3612
  869MOL0     H17298   1.499  10.906   3.009  0.0420  0.4474 -2.5511
  869MOL0     H17299   1.112  10.212   1.808 -0.4709  1.8599  2.1163
  869MOL0     H17300   0.918  10.135   1.697  0.5684  1.3152  1.9218
  869MOL0     H17301   0.547  10.183   1.593 -2.8942 -0.3567  2.2476
  869MOL0     H17302   0.310  10.095   1.570 -0.7707 -0.5421 -0.7903
  869MOL0     H17303  -0.038  10.140   1.453  0.5511  0.1202  1.0681
  869MOL0     H17304   0.097  10.147   1.560  0.6735  0.6937  1.3137
  869MOL0     H17305  -0.006   9.920   1.556  2.2764 -1.3304  0.8449
  869MOL0     H17306   0.150   9.912   1.477 -0.2456  0.4584  2.3875
  869MOL0     H17307   0.051   9.903   1.265 -1.0340  0.8177 -1.1159
  869MOL0     H17308  -0.105   9.958   1.325 -0.2379  0.1230  0.9328
  869MOL0     H17309   0.017   9.693   1.367 -0.4671 -1.7069  1.8975
  869MOL0     H17310  -0.117   9.735   1.454 -0.9180 -1.8797 -0.7465
  869MOL0     H17311  -0.328   9.639   1.103 -0.8960  0.6751  1.2911
  869MOL0     H17312   0.291  10.242   1.176  2.6740 -0.7964 -1.4582
  869MOL0     H17313   0.586  10.256   1.078  0.3702  1.3240 -0.1207
  869MOL0     H17314   0.435  10.339   1.059  1.0439  1.8758 -1.6452
  869MOL0     H17315   0.574  10.419   1.142 -2.6105  1.6549 -3.4201
  870MOL0     O17316  10.413  10.021  10.441  0.3109 -0.1872  0.1757
  870MOL0     C17317  10.336  10.073  10.357 -0.5194  0.0812 -0.3965
  870MOL0     O17318  10.313  10.210  10.340 -0.2227  0.1860  1.3429
  870MOL0     C17319  10.388  10.306  10.394 -0.0873 -0.2815 -0.5259
  870MOL0     C17320  10.336  10.440  10.374 -0.4375  0.2916  0.8016
  870MOL0     C17321  10.401  10.550  10.434  0.3349  0.0980 -0.1467
  870MOL0     C17322  10.527  10.534  10.497  0.9005 -0.4819  0.1377
  870MOL0     O17323  10.577  10.648  10.557  0.0554 -0.7697 -0.1120
  870MOL0     C17324  10.680  10.637  10.662 -0.6920  1.1354 -0.4871
  870MOL0     C17325  10.706  10.777  10.710 -0.2006 -0.7886 -0.2513
  870MOL0     C17326  10.838  10.769  10.791 -0.1581 -0.0450  1.0189
  870MOL0     C17327  10.836  10.883  10.899  0.4569 -0.1507  0.1874
  870MOL0     C17328  10.947  10.875  11.011  0.5738 -0.1171  0.5185
  870MOL0     C17329  10.914  10.947  11.142 -0.0665  0.3941 -0.5114
  870MOL0     C17330  11.016  10.918  11.254 -0.3826  1.0337  0.5032
  870MOL0     C17331  10.990  10.990  11.391  0.0708  0.4884 -0.3270
  870MOL0     N17332  11.110  11.001  11.477 -0.6818 -0.3942  0.4144
  870MOL0     C17333  11.151  10.902  11.563 -1.2450 -0.5966  0.3679
  870MOL0     C17334  11.246  10.968  11.635 -0.3789  0.1967  0.0739
  870MOL0     C17335  11.316  10.919  11.754  0.2881 -1.1674 -0.2628
  870MOL0     C17336  11.264  10.997  11.884 -0.8550  0.1330 -0.4990
  870MOL0     C17337  11.308  11.154  11.895  0.4852 -0.4416  0.3083
  870MOL0     C17338  11.458  11.171  11.886  0.1242 -0.7673 -0.0623
  870MOL0     O17339  11.517  11.152  12.019  0.5743 -0.4205  0.4637
  870MOL0     C17340  11.654  11.179  12.027  0.4317  0.6118  0.5148
  870MOL0     C17341  11.705  11.187  12.155  0.1392 -0.6356  0.0890
  870MOL0     C17342  11.837  11.221  12.174  0.1816  0.2852  0.1970
  870MOL0     C17343  11.920  11.226  12.065 -0.3193  0.2756 -0.0891
  870MOL0     C17344  12.060  11.265  12.098 -0.2970 -0.4384 -1.2644
  870MOL0     O17345  12.146  11.270  11.994 -0.2453  0.8781  0.1484
  870MOL0     C17346  12.280  11.280  12.012  0.3627  0.1788  1.1747
  870MOL0     C17347  12.372  11.185  11.954  0.9248  0.1292 -0.0749
  870MOL0     C17348  12.507  11.196  11.979 -0.6013  0.4673  0.1503
  870MOL0     C17349  12.558  11.309  12.046 -0.1551 -0.2592  1.1115
  870MOL0     O17350  12.697  11.307  12.052 -0.0293  0.0426  0.0933
  870MOL0     C17351  12.765  11.411  12.118  0.2004 -0.0662 -0.2086
  870MOL0     C17352  12.911  11.415  12.072 -0.3955  0.4472 -0.0680
  870MOL0     C17353  12.997  11.478  12.181 -0.6274 -0.3334  0.3084
  870MOL0     C17354  13.135  11.495  12.115 -0.3790  0.3098 -0.1961
  870MOL0     C17355  13.230  11.565  12.205  0.2262 -0.9642 -0.9003
  870MOL0     C17356  13.337  11.630  12.124 -0.1153  0.0962 -1.3910
  870MOL0     C17357  13.448  11.695  12.199 -0.8203 -0.3872 -0.4198
  870MOL0     C17358  13.580  11.693  12.123  1.0264 -0.1515  0.2401
  870MOL0    Cl17359  13.563  11.811  11.988 -0.8468  0.1687 -0.8529
  870MOL0     C17360  12.465  11.403  12.103 -0.1292 -0.2266  0.2445
  870MOL0     C17361  12.328  11.390  12.081 -0.3831  0.8735  0.1362
  870MOL0     O17362  12.096  11.275  12.216  0.3849  0.6428 -1.0387
  870MOL0     C17363  11.873  11.208  11.933  0.1623 -0.1379  0.6403
  870MOL0     C17364  11.738  11.188  11.914 -0.1091  0.3494 -0.6957
  870MOL0     N17365  11.257  11.099  11.591  0.6885 -0.5291 -0.1235
  870MOL0     N17366  11.187  11.110  11.493  1.0328  0.0703 -0.5196
  870MOL0     C17367  10.572  10.402  10.516 -0.1810 -0.3446  0.4425
  870MOL0     C17368  10.504  10.292  10.459 -0.5024  0.2200  0.5268
  870MOL0     C17369  10.253   9.980  10.282  0.6112 -0.2844  0.1748
  870MOL0     C17370  10.153  10.020  10.193 -0.0437 -0.6636 -0.3373
  870MOL0     C17371  10.075   9.931  10.119  1.1746 -0.9225  0.1246
  870MOL0     C17372  10.093   9.790  10.129 -0.2722  0.8691  0.4846
  870MOL0     O17373  10.027   9.684  10.059  0.5436 -0.4878 -0.0843
  870MOL0     C17374   9.898   9.724  10.013  0.8900 -0.0362 -0.2274
  870MOL0     C17375   9.813   9.610   9.933 -1.4695 -0.5662  0.4901
  870MOL0     C17376   9.779   9.500  10.036  0.1907  0.8238  1.3015
  870MOL0     C17377   9.675   9.390   9.992 -0.2824 -0.0959 -0.2127
  870MOL0     C17378   9.722   9.309   9.878 -1.1128 -0.9197  0.5820
  870MOL0     C17379   9.766   9.245   9.780  0.2609 -0.4124  0.4337
  870MOL0     C17380  10.199   9.752  10.202  0.4010  0.1897 -0.5027
  870MOL0     C17381  10.276   9.833  10.283  0.4333  0.4042 -0.3991
  870MOL0     C17382  10.366   9.766  10.383 -0.8880 -0.9391  0.7947
  870MOL0     H17383  10.238  10.459  10.333 -0.2741 -3.1789 -1.6749
  870MOL0     H17384  10.366  10.653  10.428 -1.4308 -0.3244  1.7581
  870MOL0     H17385  10.650  10.578  10.749  1.9399 -0.3232 -0.4719
  870MOL0     H17386  10.767  10.585  10.621  1.1205  1.0582  3.0491
  870MOL0     H17387  10.617  10.803  10.768 -0.3735 -0.7823 -0.5220
  870MOL0     H17388  10.710  10.853  10.631 -2.8012  4.3538  3.8854
  870MOL0     H17389  10.922  10.777  10.722 -1.8614 -0.1783 -1.1535
  870MOL0     H17390  10.846  10.682  10.857 -1.3728  0.7390  2.2728
  870MOL0     H17391  10.848  10.980  10.849 -0.0549  0.8377  1.8688
  870MOL0     H17392  10.742  10.892  10.955  0.9574 -0.8151  1.1701
  870MOL0     H17393  10.954  10.769  11.040 -0.6872  0.3777  2.8578
  870MOL0     H17394  11.036  10.928  10.978 -0.1294  0.3766 -0.6504
  870MOL0     H17395  10.900  11.056  11.142 -1.5021  0.2902 -3.0901
  870MOL0     H17396  10.821  10.906  11.181  1.3520 -2.2318  0.3410
  870MOL0     H17397  11.110  10.960  11.217  0.1685 -0.1152  0.5629
  870MOL0     H17398  11.037  10.814  11.278 -1.9969  0.5661  0.0155
  870MOL0     H17399  10.950  11.086  11.359  2.6492  1.1410 -1.9559
  870MOL0     H17400  10.909  10.945  11.448  1.1535 -0.1689  0.7387
  870MOL0     H17401  11.109  10.802  11.573 -1.4759 -0.5525 -0.1437
  870MOL0     H17402  11.289  10.813  11.765 -0.8845 -0.9822 -1.2132
  870MOL0     H17403  11.424  10.920  11.739  0.2769  2.0472 -0.6739
  870MOL0     H17404  11.155  10.990  11.891 -0.8105  0.8721  1.5055
  870MOL0     H17405  11.299  10.935  11.967  0.4012  2.0594  0.4825
  870MOL0     H17406  11.282  11.203  11.989  2.3273  1.7256 -0.2367
  870MOL0     H17407  11.266  11.209  11.811  1.1215 -0.9791 -0.3740
  870MOL0     H17408  11.485  11.269  11.845  0.4556 -0.3421  1.1438
  870MOL0     H17409  11.493  11.100  11.810 -0.9851 -1.3214 -0.0785
  870MOL0     H17410  11.633  11.182  12.236 -1.6419  4.9609 -0.6788
  870MOL0     H17411  11.879  11.229  12.274  0.6323  2.3981 -0.1068
  870MOL0     H17412  12.324  11.104  11.900 -0.9950 -0.4007  2.2771
  870MOL0     H17413  12.574  11.120  11.941 -1.6438  0.0329 -0.9096
  870MOL0     H17414  12.719  11.510  12.111  0.9922  0.2634 -0.8409
  870MOL0     H17415  12.772  11.374  12.221  1.5521 -2.0612 -0.9614
  870MOL0     H17416  12.946  11.315  12.047 -1.4763  0.0287  0.0547
  870MOL0     H17417  12.909  11.474  11.979  3.0361  1.4853  0.3491
  870MOL0     H17418  12.953  11.572  12.215 -1.5949 -0.9746  0.8605
  870MOL0     H17419  13.008  11.410  12.266  0.3424  1.2545  1.5213
  870MOL0     H17420  13.125  11.550  12.021  2.1833  0.2474 -0.5834
  870MOL0     H17421  13.172  11.396  12.085 -3.0095 -0.3021 -1.6845
  870MOL0     H17422  13.264  11.494  12.281 -1.2964  2.2114  3.1235
  870MOL0     H17423  13.179  11.644  12.260  1.8199  0.6756 -1.6926
  870MOL0     H17424  13.381  11.554  12.058  0.4874  1.1844 -2.2789
  870MOL0     H17425  13.286  11.701  12.058  0.3604  2.4863  0.6629
  870MOL0     H17426  13.463  11.645  12.296  3.3635  1.5886  0.1688
  870MOL0     H17427  13.427  11.801  12.216  1.5359  0.0546  0.1197
  870MOL0     H17428  13.665  11.710  12.189  0.8693 -1.4954  0.8238
  870MOL0     H17429  13.598  11.597  12.074  0.0945  0.0805 -0.6027
  870MOL0     H17430  12.489  11.502  12.140 -1.2071  0.4026 -0.6971
  870MOL0     H17431  12.266  11.473  12.114  2.6449  2.1913  3.1709
  870MOL0     H17432  11.945  11.206  11.852 -0.3002  2.1460  0.1052
  870MOL0     H17433  11.709  11.168  11.811 -0.6583 -1.0094 -0.3022
  870MOL0     H17434  10.667  10.365  10.555  0.8585  0.8154 -0.9068
  870MOL0     H17435  10.555  10.197  10.468  0.4316  0.6398 -0.1194
  870MOL0     H17436  10.132  10.124  10.170  4.9409  0.1462 -2.4124
  870MOL0     H17437  10.003   9.978  10.053  1.1351  1.5682  1.7861
  870MOL0     H17438   9.919   9.803   9.940  0.8333 -0.6656 -0.9336
  870MOL0     H17439   9.831   9.762  10.091 -1.5120 -3.7314 -0.2495
  870MOL0     H17440   9.875   9.563   9.855  3.1867  1.2684  2.6834
  870MOL0     H17441   9.726   9.654   9.884 -0.1123  2.5858  0.6328
  870MOL0     H17442   9.763   9.533  10.139 -2.0757 -1.2011  1.6741
  870MOL0     H17443   9.878   9.454  10.034  0.2338  0.8691 -1.5346
  870MOL0     H17444   9.648   9.326  10.076 -2.6785 -3.5616 -3.3031
  870MOL0     H17445   9.581   9.442   9.969 -0.4785 -0.1552  0.4420
  870MOL0     H17446   9.810   9.187   9.702 -3.2801 -2.2322 -0.4357
  870MOL0     H17447  10.211   9.646  10.222  0.1875 -0.0725 -1.7049
  870MOL0     H17448  10.470   9.792  10.361 -1.8063  3.5226  0.9015
  870MOL0     H17449  10.330   9.794  10.483 -0.4698  3.2504 -0.0317
  870MOL0     H17450  10.366   9.657  10.380  2.4861 -1.1050 -3.3924
  871MOL0     O17451  10.268   2.913   4.555  0.1383  0.1577  0.0023
  871MOL0     C17452  10.173   2.992   4.552  0.0438 -0.3269 -0.1271
  871MOL0     O17453  10.197   3.117   4.511  0.6617 -0.6881 -0.2047
  871MOL0     C17454  10.320   3.176   4.523 -0.3706 -0.2106  0.1760
  871MOL0     C17455  10.360   3.266   4.419 -0.2877 -0.1938  0.8041
  871MOL0     C17456  10.492   3.320   4.416  0.1583 -0.3794 -0.0113
  871MOL0     C17457  10.576   3.307   4.528  0.6954 -0.2943  0.2381
  871MOL0     O17458  10.703   3.363   4.533 -0.5307  0.1262  0.1394
  871MOL0     C17459  10.784   3.353   4.413  0.2840 -0.4356  0.5150
  871MOL0     C17460  10.908   3.438   4.427  0.2731  0.5941  1.2575
  871MOL0     C17461  11.026   3.379   4.341 -0.0843  0.0332 -0.3764
  871MOL0     C17462  11.158   3.410   4.415  0.4306  0.6792 -0.0217
  871MOL0     C17463  11.261   3.330   4.342 -0.4461  0.0521  0.9658
  871MOL0     C17464  11.386   3.414   4.329  0.3491 -0.7242 -0.4440
  871MOL0     C17465  11.504   3.342   4.274  0.2473 -0.6236 -0.2551
  871MOL0     C17466  11.616   3.450   4.272 -0.0499  0.6522 -0.1231
  871MOL0     N17467  11.731   3.378   4.208  0.1474 -0.9312  0.0552
  871MOL0     C17468  11.779   3.258   4.241 -0.9313 -0.1354 -0.2168
  871MOL0     C17469  11.910   3.265   4.202 -0.1598  0.3421 -0.4336
  871MOL0     C17470  12.004   3.146   4.211  0.2043 -0.1748 -0.1107
  871MOL0     C17471  12.108   3.146   4.100 -1.0522  0.4214  0.0068
  871MOL0     C17472  12.220   3.242   4.121  0.2310  0.4887 -0.3251
  871MOL0     C17473  12.300   3.212   4.254 -0.3290 -0.8206 -0.0085
  871MOL0     O17474  12.392   3.322   4.263  0.2705 -0.3291 -0.2840
  871MOL0     C17475  12.525   3.306   4.297  0.5342 -0.0115 -0.2801
  871MOL0     C17476  12.608   3.417   4.260  1.2091  1.2897  0.1942
  871MOL0     C17477  12.742   3.404   4.274  0.1579 -0.1853  0.0794
  871MOL0     C17478  12.797   3.290   4.344  0.1195  0.2389 -0.6169
  871MOL0     C17479  12.944   3.287   4.346 -0.4201 -0.2314  0.0587
  871MOL0     O17480  13.003   3.179   4.398 -0.0026 -0.3028 -0.9090
  871MOL0     C17481  13.136   3.163   4.401  0.0632 -0.4411  0.5572
  871MOL0     C17482  13.217   3.195   4.515  0.4865 -0.3149 -0.2298
  871MOL0     C17483  13.355   3.182   4.513 -0.3892 -0.1750 -0.0216
  871MOL0     C17484  13.422   3.141   4.392  0.5855 -1.0470 -0.2284
  871MOL0     O17485  13.557   3.129   4.379  0.1058  0.6703 -0.6395
  871MOL0     C17486  13.646   3.127   4.487  0.7985 -0.3917 -0.0645
  871MOL0     C17487  13.768   3.066   4.426 -0.7957 -0.6486 -0.5031
  871MOL0     C17488  13.891   3.066   4.520 -0.0408 -0.3325  0.6265
  871MOL0     C17489  14.016   3.022   4.446  0.7174 -0.4746 -0.0139
  871MOL0     C17490  14.146   3.067   4.523 -0.0976 -0.2636  0.5570
  871MOL0     C17491  14.144   3.005   4.659  0.2135 -0.2674 -0.6052
  871MOL0     C17492  14.275   3.027   4.735 -0.2857 -0.1994  0.3763
  871MOL0     C17493  14.397   2.947   4.684  0.7164 -0.5022  0.1711
  871MOL0    Cl17494  14.374   2.767   4.717  0.0942 -0.4530  0.4142
  871MOL0     C17495  13.339   3.115   4.279 -0.7868  0.6074  0.3444
  871MOL0     C17496  13.198   3.122   4.281 -0.0999  0.1591 -0.6417
  871MOL0     O17497  13.004   3.385   4.304  0.4640 -0.3653 -0.0116
  871MOL0     C17498  12.721   3.188   4.392  0.3488  0.2463  0.4236
  871MOL0     C17499  12.581   3.194   4.364  1.3091 -0.0433 -0.3602
  871MOL0     N17500  11.940   3.383   4.133  0.6304  0.2519  0.1386
  871MOL0     N17501  11.830   3.454   4.140  0.4321 -0.5638 -0.1505
  871MOL0     C17502  10.535   3.230   4.634  0.2465  0.4729 -0.0196
  871MOL0     C17503  10.408   3.159   4.631  0.5636 -0.3135  0.0810
  871MOL0     C17504  10.039   2.942   4.582 -0.1583  0.0046  0.4188
  871MOL0     C17505  10.029   2.804   4.617 -0.2265 -0.0908 -0.1883
  871MOL0     C17506   9.902   2.741   4.647  0.0168 -0.1989 -0.5850
  871MOL0     C17507   9.783   2.811   4.637  0.2918 -0.4802  0.2283
  871MOL0     O17508   9.675   2.741   4.682 -0.0924 -0.7333 -0.1241
  871MOL0     C17509   9.561   2.805   4.744  0.1298 -0.0683  0.6413
  871MOL0     C17510   9.428   2.736   4.705  0.2821  0.3817  0.6808
  871MOL0     C17511   9.307   2.807   4.770 -0.7798  0.3477 -0.4722
  871MOL0     C17512   9.161   2.780   4.714 -1.4743 -0.4279 -0.2396
  871MOL0     C17513   9.159   2.832   4.582  0.7069 -0.1680  0.3352
  871MOL0     C17514   9.157   2.883   4.472  0.9620 -0.5361 -0.4036
  871MOL0     C17515   9.790   2.950   4.598 -1.2758 -0.0775  0.4475
  871MOL0     C17516   9.916   3.016   4.575 -0.5441  0.4996 -0.8850
  871MOL0     C17517   9.897   3.162   4.546 -0.4367  0.0840 -0.3200
  871MOL0     H17518  10.304   3.300   4.333  2.2078 -0.7410 -1.1598
  871MOL0     H17519  10.521   3.377   4.329 -3.5941 -0.8479 -1.7222
  871MOL0     H17520  10.794   3.244   4.418  1.5976 -0.3102  0.9577
  871MOL0     H17521  10.734   3.384   4.320  1.6950 -0.6537 -0.3366
  871MOL0     H17522  10.935   3.438   4.534 -3.6490 -0.5131  2.4012
  871MOL0     H17523  10.887   3.537   4.385  2.8131 -0.9079 -4.5683
  871MOL0     H17524  11.039   3.439   4.251  0.1324  1.5080  0.5944
  871MOL0     H17525  11.008   3.272   4.327 -1.0697 -0.1309  1.6621
  871MOL0     H17526  11.178   3.518   4.414 -0.5985  0.8954 -1.1710
  871MOL0     H17527  11.159   3.387   4.522  1.4691  1.1164  0.0706
  871MOL0     H17528  11.285   3.242   4.404  0.4291 -1.7426 -1.7425
  871MOL0     H17529  11.221   3.284   4.251 -0.0841  1.8840 -0.1740
  871MOL0     H17530  11.370   3.504   4.269 -1.0072  0.4237  1.5235
  871MOL0     H17531  11.413   3.442   4.432 -0.7152 -1.0762 -0.0551
  871MOL0     H17532  11.471   3.307   4.176  0.9149  0.5497 -0.9333
  871MOL0     H17533  11.526   3.258   4.341 -0.9718  0.4690  1.5763
  871MOL0     H17534  11.584   3.539   4.217 -0.7625  2.9839  3.6709
  871MOL0     H17535  11.640   3.495   4.368 -1.9942  0.7697  0.3637
  871MOL0     H17536  11.736   3.170   4.286  0.8268 -1.2913 -0.7112
  871MOL0     H17537  12.044   3.131   4.312 -0.9503 -0.1748  0.3573
  871MOL0     H17538  11.948   3.055   4.189 -0.1094 -0.1135  0.4137
  871MOL0     H17539  12.152   3.047   4.108  0.2185  1.0798  1.7650
  871MOL0     H17540  12.058   3.158   4.003  2.3623  1.9539 -1.7397
  871MOL0     H17541  12.184   3.345   4.111 -3.1808 -0.5900 -0.1245
  871MOL0     H17542  12.279   3.234   4.029 -1.3300  1.2993 -1.4333
  871MOL0     H17543  12.349   3.115   4.244  0.2738 -0.4767 -0.5247
  871MOL0     H17544  12.246   3.224   4.348  0.5511  0.9023  0.3283
  871MOL0     H17545  12.559   3.493   4.199  0.4393 -1.1056 -2.3687
  871MOL0     H17546  12.805   3.475   4.221 -2.2976  0.6665 -1.8949
  871MOL0     H17547  13.177   3.230   4.610  0.4231 -1.4103  0.1613
  871MOL0     H17548  13.414   3.222   4.595 -1.4733  0.4723  0.4703
  871MOL0     H17549  13.679   3.231   4.498 -1.1503  0.3497 -0.7700
  871MOL0     H17550  13.599   3.064   4.563 -0.7565  0.8211  0.0315
  871MOL0     H17551  13.730   2.964   4.420 -0.2121 -1.4226  4.6860
  871MOL0     H17552  13.788   3.112   4.329  0.6864  1.3120  0.6443
  871MOL0     H17553  13.907   3.170   4.552 -0.0845 -0.1467  0.0593
  871MOL0     H17554  13.873   2.993   4.599 -1.3908 -1.4599 -0.6815
  871MOL0     H17555  14.013   3.064   4.345  4.7488 -1.2420 -0.6403
  871MOL0     H17556  14.015   2.913   4.448 -1.7228 -0.5065  2.7630
  871MOL0     H17557  14.165   3.174   4.530  2.5494 -0.7224  1.4985
  871MOL0     H17558  14.227   3.025   4.462  0.9627 -2.3801  3.2266
  871MOL0     H17559  14.063   3.051   4.716 -0.8496  1.9032 -3.6404
  871MOL0     H17560  14.129   2.897   4.650  0.4302 -0.2174 -1.6228
  871MOL0     H17561  14.252   2.982   4.832  1.4917 -0.8570  0.5208
  871MOL0     H17562  14.304   3.132   4.742 -0.3202  0.0218 -1.9969
  871MOL0     H17563  14.419   2.965   4.578 -1.1003 -3.1763 -0.7612
  871MOL0     H17564  14.483   2.981   4.742  0.2857  0.5631  0.2073
  871MOL0     H17565  13.398   3.083   4.193  0.7412  1.3736  1.0704
  871MOL0     H17566  13.146   3.078   4.196 -1.8324  0.5258  0.1653
  871MOL0     H17567  12.755   3.105   4.452 -5.4196 -1.2549  2.2755
  871MOL0     H17568  12.507   3.117   4.384 -0.2765  1.6753  0.7883
  871MOL0     H17569  10.603   3.204   4.714 -1.1983  0.5131  1.2792
  871MOL0     H17570  10.388   3.083   4.706  1.4288 -1.2546 -0.6107
  871MOL0     H17571  10.115   2.738   4.618  0.2273  0.3304 -2.7513
  871MOL0     H17572   9.903   2.638   4.681 -1.5501 -0.3162 -0.8117
  871MOL0     H17573   9.562   2.910   4.714  2.9134  0.9883  3.7432
  871MOL0     H17574   9.583   2.807   4.852 -3.2389 -0.0320  1.4346
  871MOL0     H17575   9.440   2.645   4.765  1.0277 -0.3912 -0.5938
  871MOL0     H17576   9.420   2.726   4.597 -0.9385  0.9132  0.7031
  871MOL0     H17577   9.330   2.914   4.776  1.5193 -0.1698  3.9751
  871MOL0     H17578   9.299   2.774   4.874  0.7518 -1.5713 -0.9129
  871MOL0     H17579   9.140   2.673   4.718 -0.5126 -0.7598 -2.4176
  871MOL0     H17580   9.083   2.822   4.779  0.0267 -0.1914  1.4732
  871MOL0     H17581   9.155   2.927   4.375  1.5458 -2.2641 -1.2490
  871MOL0     H17582   9.696   3.004   4.595 -0.3518  1.5662 -0.1791
  871MOL0     H17583   9.794   3.191   4.566 -0.5276  1.9125 -2.9867
  871MOL0     H17584   9.959   3.216   4.619  0.4873  1.3021 -1.9381
  871MOL0     H17585   9.933   3.194   4.448  0.8163  0.7213  0.3148
  872MOL0     O17586   4.453   2.420   8.202 -0.2021 -0.3974 -0.1552
  872MOL0     C17587   4.503   2.430   8.312 -0.3455 -0.2428 -0.7600
  872MOL0     O17588   4.501   2.342   8.414  0.0039  0.6541  0.4931
  872MOL0     C17589   4.397   2.259   8.439 -0.5321  0.6412  0.3772
  872MOL0     C17590   4.401   2.188   8.563 -0.7664  0.8651 -0.5834
  872MOL0     C17591   4.300   2.108   8.611  0.0748 -0.6188  0.3734
  872MOL0     C17592   4.194   2.074   8.534  0.1835  0.2597  0.3413
  872MOL0     O17593   4.094   1.997   8.592  0.2355 -0.1195  0.0974
  872MOL0     C17594   4.043   1.890   8.510 -0.5669  1.4212 -0.7347
  872MOL0     C17595   3.936   1.832   8.609 -0.2710  0.3957 -0.4134
  872MOL0     C17596   3.866   1.711   8.556  0.0883  0.8953 -0.2941
  872MOL0     C17597   3.741   1.751   8.465 -0.6787 -0.0356  0.3254
  872MOL0     C17598   3.621   1.659   8.486  0.1647 -0.1768  0.1465
  872MOL0     C17599   3.641   1.507   8.456 -0.8321 -0.9727 -0.0029
  872MOL0     C17600   3.496   1.445   8.464  0.4923  0.4104 -0.7053
  872MOL0     C17601   3.496   1.293   8.431 -0.8508 -0.2810  0.1234
  872MOL0     N17602   3.370   1.226   8.476  0.4084 -0.8515  0.1706
  872MOL0     C17603   3.364   1.127   8.572  0.5906  0.1282  0.1428
  872MOL0     C17604   3.230   1.114   8.593 -0.1953 -0.8276  0.0300
  872MOL0     C17605   3.182   1.041   8.714  0.6041  0.4332 -0.1762
  872MOL0     C17606   3.155   1.126   8.841 -0.2090 -0.7601  0.4400
  872MOL0     C17607   3.083   1.042   8.939 -0.0442 -0.8528  0.7555
  872MOL0     C17608   3.046   1.122   9.066 -1.1915 -0.0920 -0.3950
  872MOL0     O17609   2.955   1.230   9.037 -0.2158  0.5416 -0.9605
  872MOL0     C17610   2.865   1.266   9.134  0.1261  0.4998 -0.6352
  872MOL0     C17611   2.891   1.244   9.273  0.5225  0.4847 -0.0000
  872MOL0     C17612   2.793   1.289   9.363  0.0820  0.0534  0.2595
  872MOL0     C17613   2.671   1.350   9.317 -0.9639 -0.6481 -0.6632
  872MOL0     C17614   2.569   1.390   9.411  0.2383 -0.3400  0.4610
  872MOL0     O17615   2.469   1.487   9.370  0.4310  0.3680  0.5498
  872MOL0     C17616   2.375   1.540   9.458  1.0390 -1.0174 -0.8250
  872MOL0     C17617   2.398   1.568   9.594 -0.8598  0.5216 -0.4520
  872MOL0     C17618   2.309   1.635   9.675 -0.3325  0.3779 -0.4988
  872MOL0     C17619   2.184   1.669   9.629 -0.6639 -0.6630 -0.2432
  872MOL0     O17620   2.090   1.731   9.710 -0.4118  0.1189 -0.1672
  872MOL0     C17621   1.999   1.826   9.661  0.0584 -0.1684 -0.3301
  872MOL0     C17622   2.058   1.942   9.582 -0.2510 -0.4353  1.6248
  872MOL0     C17623   1.966   1.999   9.475 -0.5925  0.3053 -0.0400
  872MOL0     C17624   2.021   2.113   9.396 -0.4538 -1.0399 -0.1399
  872MOL0     C17625   1.911   2.194   9.321  0.5551  0.5789 -0.2875
  872MOL0     C17626   1.974   2.297   9.230  0.5343  0.4081  0.1109
  872MOL0     C17627   1.869   2.359   9.140  1.2544  0.1117 -0.7183
  872MOL0     C17628   1.823   2.259   9.033  0.3380 -0.5183  0.4119
  872MOL0    Cl17629   1.954   2.257   8.909 -0.2615  0.2373  0.1349
  872MOL0     C17630   2.152   1.626   9.499 -0.6452  0.3459  1.1037
  872MOL0     C17631   2.242   1.562   9.423 -0.3350  0.7960  0.3184
  872MOL0     O17632   2.564   1.328   9.516  0.1620 -0.3054  0.2403
  872MOL0     C17633   2.658   1.366   9.179  0.6291  0.3598  0.2552
  872MOL0     C17634   2.760   1.329   9.089  0.5146 -0.0766  0.0205
  872MOL0     N17635   3.160   1.203   8.509 -0.1493  0.6900  0.3911
  872MOL0     N17636   3.249   1.280   8.449  0.1588  0.7133  0.8724
  872MOL0     C17637   4.189   2.128   8.403  0.1720  0.0479  0.1360
  872MOL0     C17638   4.284   2.225   8.359  0.1531 -0.2218  0.4329
  872MOL0     C17639   4.618   2.524   8.310 -0.0899  0.9638 -0.4968
  872MOL0     C17640   4.748   2.472   8.324 -0.1060 -0.6128  0.5182
  872MOL0     C17641   4.865   2.553   8.305  1.7020  0.0362  0.6709
  872MOL0     C17642   4.848   2.689   8.269  0.2634 -0.6735  0.8748
  872MOL0     O17643   4.962   2.769   8.250 -0.0873  0.4786 -0.0950
  872MOL0     C17644   5.094   2.723   8.284 -0.1878 -0.3427  0.2505
  872MOL0     C17645   5.179   2.851   8.263  0.4208  0.2563  0.7812
  872MOL0     C17646   5.332   2.834   8.294  0.1478 -0.7860  0.7972
  872MOL0     C17647   5.360   2.793   8.437 -0.0589  0.0038  0.3100
  872MOL0     C17648   5.495   2.836   8.477  0.9683  0.0134 -1.1888
  872MOL0     C17649   5.599   2.856   8.535 -0.2409 -0.1458  0.1952
  872MOL0     C17650   4.726   2.752   8.269 -0.0548  0.8714 -0.8371
  872MOL0     C17651   4.609   2.662   8.289  0.4553  0.3538 -1.1813
  872MOL0     C17652   4.484   2.747   8.300  0.0205  0.7571  0.3293
  872MOL0     H17653   4.490   2.208   8.623 -0.7652  0.9667 -0.6192
  872MOL0     H17654   4.293   2.074   8.714  1.8151 -0.5134  0.5636
  872MOL0     H17655   4.004   1.920   8.413 -3.4928 -1.1174 -0.5047
  872MOL0     H17656   4.130   1.823   8.512 -0.1933  1.9043  0.9290
  872MOL0     H17657   3.866   1.914   8.632  0.9386  1.2345  0.3904
  872MOL0     H17658   3.979   1.807   8.706 -4.3390  0.2009  1.5337
  872MOL0     H17659   3.841   1.644   8.639  4.0327  1.2008  1.3548
  872MOL0     H17660   3.935   1.650   8.496  1.5809  0.5284  1.6943
  872MOL0     H17661   3.704   1.852   8.484 -1.8022 -0.0173 -1.7604
  872MOL0     H17662   3.777   1.740   8.362  4.4721 -1.5635  1.9473
  872MOL0     H17663   3.586   1.674   8.588 -0.1846  1.0408 -0.1313
  872MOL0     H17664   3.541   1.705   8.426 -1.8873  1.8074  4.0159
  872MOL0     H17665   3.678   1.498   8.353  0.4260 -0.5355  0.3963
  872MOL0     H17666   3.715   1.465   8.524 -0.7035  1.8970  1.7474
  872MOL0     H17667   3.436   1.497   8.389  0.0088 -1.4822 -1.6838
  872MOL0     H17668   3.450   1.456   8.563  2.6271 -1.4652  0.5925
  872MOL0     H17669   3.513   1.272   8.325  0.2053  1.4418 -0.0798
  872MOL0     H17670   3.581   1.261   8.492 -1.8683 -1.8967  0.7608
  872MOL0     H17671   3.441   1.089   8.639  1.1912  0.0358 -0.5772
  872MOL0     H17672   3.085   1.007   8.676  0.5588  0.7485 -0.3427
  872MOL0     H17673   3.239   0.955   8.751 -1.5314 -0.3997  1.3639
  872MOL0     H17674   3.252   1.152   8.883  0.7146 -3.8501  0.4854
  872MOL0     H17675   3.099   1.213   8.805  1.2313  0.3101  0.6838
  872MOL0     H17676   3.158   0.966   8.964  3.1858  1.7116 -0.2983
  872MOL0     H17677   2.992   0.998   8.898 -1.3623 -0.0969  2.7672
  872MOL0     H17678   3.136   1.164   9.111 -2.3390  1.5037  0.5331
  872MOL0     H17679   3.003   1.058   9.145  0.0725  0.4028  0.7299
  872MOL0     H17680   2.981   1.192   9.305  0.5580 -1.6671 -3.0709
  872MOL0     H17681   2.789   1.278   9.471 -1.8364 -0.7767  0.1399
  872MOL0     H17682   2.487   1.535   9.646 -1.1184  0.7883  0.1668
  872MOL0     H17683   2.319   1.639   9.783  0.3297 -0.5841 -0.5062
  872MOL0     H17684   1.921   1.773   9.605 -0.9211 -2.8348  3.1905
  872MOL0     H17685   1.935   1.869   9.739 -3.5057 -2.5623 -1.6496
  872MOL0     H17686   2.092   2.027   9.643  0.0925  2.1170 -1.7963
  872MOL0     H17687   2.151   1.903   9.539 -1.6143 -2.6276  0.4736
  872MOL0     H17688   1.934   1.920   9.407 -0.4063  1.1240 -1.0910
  872MOL0     H17689   1.876   2.037   9.525 -1.9660 -1.1491 -1.2928
  872MOL0     H17690   2.094   2.082   9.321 -0.9648 -0.0994 -1.0446
  872MOL0     H17691   2.077   2.173   9.470 -2.2185  0.0842  0.3464
  872MOL0     H17692   1.846   2.245   9.391  0.4661  0.7359 -0.4839
  872MOL0     H17693   1.839   2.131   9.267  0.7216  0.9957 -1.0164
  872MOL0     H17694   2.016   2.378   9.290  0.6033 -0.2906  1.0197
  872MOL0     H17695   2.044   2.257   9.156  0.3306 -1.7836  1.0270
  872MOL0     H17696   1.896   2.443   9.076 -0.3455  0.6341 -0.7296
  872MOL0     H17697   1.793   2.393   9.210  3.1889  1.1450  0.9905
  872MOL0     H17698   1.805   2.165   9.087  0.8990  0.8570  3.1373
  872MOL0     H17699   1.735   2.289   8.975  0.6181 -0.3991  0.0436
  872MOL0     H17700   2.056   1.647   9.453 -0.9475 -0.6799  1.2550
  872MOL0     H17701   2.209   1.545   9.321 -0.3354 -2.2140  0.7286
  872MOL0     H17702   2.558   1.397   9.151  0.1796  0.2330  1.6218
  872MOL0     H17703   2.761   1.348   8.982  1.2711 -2.1685 -0.3922
  872MOL0     H17704   4.103   2.093   8.347  0.6497 -1.2235  0.1648
  872MOL0     H17705   4.274   2.272   8.262  0.9008  0.1418  0.5235
  872MOL0     H17706   4.773   2.370   8.350 -0.0542 -0.4654  1.0647
  872MOL0     H17707   4.963   2.507   8.300  2.5320  1.5686  1.8420
  872MOL0     H17708   5.132   2.647   8.215 -1.7249 -1.4491  0.5761
  872MOL0     H17709   5.090   2.679   8.385  0.4040  1.9583  1.3494
  872MOL0     H17710   5.134   2.922   8.332 -1.9620 -1.2020  0.8397
  872MOL0     H17711   5.165   2.894   8.163 -2.8401  2.3175  1.9728
  872MOL0     H17712   5.372   2.933   8.271  0.7358 -1.4069 -0.9714
  872MOL0     H17713   5.379   2.773   8.217 -0.8563 -0.2006 -0.3140
  872MOL0     H17714   5.290   2.856   8.493 -1.6212 -0.0952 -1.4322
  872MOL0     H17715   5.332   2.689   8.458 -0.5163  0.2689  1.0989
  872MOL0     H17716   5.684   2.890   8.591 -1.5652  1.0471  1.5393
  872MOL0     H17717   4.714   2.857   8.242  1.7984  1.4170  0.2645
  872MOL0     H17718   4.461   2.818   8.220  1.4057  0.4673 -0.3522
  872MOL0     H17719   4.403   2.673   8.306  3.6386 -3.5911  0.5854
  872MOL0     H17720   4.492   2.811   8.388  2.1844  0.1403  0.6333
  873MOL0     O17721   9.255   8.644   1.992 -0.3520 -0.1161  0.3249
  873MOL0     C17722   9.215   8.533   1.992  0.4717  0.2389  0.2900
  873MOL0     O17723   9.091   8.486   2.041 -0.2423  0.3038 -0.0955
  873MOL0     C17724   8.976   8.561   2.054  0.6356  0.1218 -0.0193
  873MOL0     C17725   8.886   8.510   2.144  0.8173 -0.2382 -0.5361
  873MOL0     C17726   8.772   8.589   2.167  0.0251 -0.2087 -0.0123
  873MOL0     C17727   8.744   8.700   2.089 -0.7587 -0.0879  0.7719
  873MOL0     O17728   8.635   8.768   2.125  0.1642  0.1511 -0.2416
  873MOL0     C17729   8.540   8.758   2.027  0.5305  0.9496  0.7984
  873MOL0     C17730   8.416   8.802   2.082  0.1877  0.1087 -0.0444
  873MOL0     C17731   8.297   8.750   2.008 -0.6989 -0.2141  0.1914
  873MOL0     C17732   8.170   8.812   2.037 -0.1893  0.1792  0.7748
  873MOL0     C17733   8.043   8.751   1.979 -0.0848 -0.3939 -0.3810
  873MOL0     C17734   7.995   8.633   2.059 -0.0346  0.7413  0.0903
  873MOL0     C17735   7.848   8.594   2.017 -0.3696 -0.4576 -0.2207
  873MOL0     C17736   7.742   8.690   2.074  0.0171  0.0101  0.2203
  873MOL0     N17737   7.613   8.629   2.060  1.2447 -0.0180  0.1373
  873MOL0     C17738   7.557   8.527   2.130 -0.6988  0.5954  0.1309
  873MOL0     C17739   7.452   8.494   2.060 -0.2159 -0.7544  0.6386
  873MOL0     C17740   7.346   8.389   2.075 -1.0182  1.5886  0.1312
  873MOL0     C17741   7.400   8.245   2.030 -0.8433  0.2749 -0.0523
  873MOL0     C17742   7.294   8.140   2.043 -0.0685  0.9199  0.1277
  873MOL0     C17743   7.185   8.154   1.920  0.0848 -0.2492  0.1904
  873MOL0     O17744   7.137   8.027   1.897  0.2980  0.7068 -0.2957
  873MOL0     C17745   7.010   7.989   1.945 -0.0182 -0.3865 -0.2978
  873MOL0     C17746   6.991   7.848   1.946  0.8344 -0.0949  0.1955
  873MOL0     C17747   6.872   7.798   2.003 -1.1592  0.5514 -0.1447
  873MOL0     C17748   6.772   7.892   2.056  0.5072 -0.7483  0.4053
  873MOL0     C17749   6.638   7.839   2.100 -0.1974 -0.4551 -0.0405
  873MOL0     O17750   6.634   7.704   2.108  0.2686  0.0921  0.2933
  873MOL0     C17751   6.519   7.648   2.159  0.4253 -0.1858  0.6771
  873MOL0     C17752   6.397   7.657   2.099 -0.6372  0.3485 -0.7067
  873MOL0     C17753   6.289   7.600   2.160  0.5052 -0.3939 -1.0185
  873MOL0     C17754   6.286   7.519   2.268  0.2176  0.2460 -0.9131
  873MOL0     O17755   6.163   7.465   2.294 -0.3586 -0.8693 -0.4304
  873MOL0     C17756   6.157   7.323   2.320 -0.6982  0.4768  0.3875
  873MOL0     C17757   6.023   7.291   2.392  0.2843  0.0261  0.3234
  873MOL0     C17758   5.902   7.317   2.299  0.0333  0.2708  0.3602
  873MOL0     C17759   5.769   7.275   2.365  0.4676 -0.3804  0.0684
  873MOL0     C17760   5.649   7.275   2.264 -0.2761  0.5047 -0.9498
  873MOL0     C17761   5.595   7.412   2.222 -0.0293 -0.0958  0.0832
  873MOL0     C17762   5.462   7.382   2.150  0.4355 -0.7771 -0.2686
  873MOL0     C17763   5.342   7.356   2.240 -0.1440  0.6043  0.6249
  873MOL0    Cl17764   5.223   7.244   2.160  0.0470  0.0336  0.1871
  873MOL0     C17765   6.407   7.488   2.315 -1.0945 -0.4882  0.2317
  873MOL0     C17766   6.528   7.550   2.266 -0.6892  0.1838 -0.0928
  873MOL0     O17767   6.539   7.914   2.114  0.3000  0.3856  0.3530
  873MOL0     C17768   6.789   8.033   2.042 -0.0889  0.2208 -0.3744
  873MOL0     C17769   6.917   8.080   1.989 -0.7119 -0.3026 -0.2179
  873MOL0     N17770   7.430   8.587   1.957  0.8029 -0.1603 -0.1020
  873MOL0     N17771   7.532   8.668   1.964  1.1385  0.2607  0.2796
  873MOL0     C17772   8.827   8.739   1.984  0.7700  0.2208  0.2434
  873MOL0     C17773   8.949   8.670   1.967  0.2979 -0.6436 -0.4113
  873MOL0     C17774   9.306   8.430   1.936 -0.1674  0.0340  0.3059
  873MOL0     C17775   9.441   8.478   1.912  0.3706  0.2857  0.0811
  873MOL0     C17776   9.535   8.385   1.863 -0.2374  0.1665  0.0243
  873MOL0     C17777   9.504   8.250   1.834 -0.8581  1.2455  0.8895
  873MOL0     O17778   9.604   8.165   1.785  0.3051 -0.3568 -0.5410
  873MOL0     C17779   9.742   8.209   1.765  0.5877 -0.4043  0.3367
  873MOL0     C17780   9.823   8.207   1.900  0.2543 -0.2329 -0.1889
  873MOL0     C17781   9.973   8.185   1.903 -0.2098  0.9852  0.8384
  873MOL0     C17782  10.019   8.042   1.854  0.1185 -0.1126 -0.4751
  873MOL0     C17783  10.149   8.004   1.901 -0.6696  0.1870 -0.2603
  873MOL0     C17784  10.254   7.966   1.956 -0.9052 -0.7770 -0.2598
  873MOL0     C17785   9.373   8.212   1.853 -0.1739  0.0390  0.0237
  873MOL0     C17786   9.275   8.299   1.898  0.5647  1.4243 -0.4670
  873MOL0     C17787   9.135   8.240   1.916  0.0708 -0.2481 -0.1809
  873MOL0     H17788   8.906   8.416   2.195 -0.2572 -1.2377 -1.8928
  873MOL0     H17789   8.700   8.564   2.244 -0.9249  0.8126 -0.5560
  873MOL0     H17790   8.568   8.822   1.942  2.3959 -1.4157 -0.4852
  873MOL0     H17791   8.530   8.655   1.990 -1.3369  1.5851 -0.6477
  873MOL0     H17792   8.427   8.911   2.079  1.7034  0.0086  0.7691
  873MOL0     H17793   8.410   8.779   2.189  0.2050  1.4665  0.2702
  873MOL0     H17794   8.281   8.645   2.036 -0.2324  0.4203  3.3147
  873MOL0     H17795   8.324   8.750   1.902  1.7938  1.9273  0.7057
  873MOL0     H17796   8.160   8.816   2.146 -0.1649  3.0717  0.7523
  873MOL0     H17797   8.192   8.916   2.010  1.2795 -0.6891 -1.6479
  873MOL0     H17798   7.963   8.825   1.986  1.9491  1.8754  0.2109
  873MOL0     H17799   8.049   8.734   1.871  2.1090  0.2771 -0.3999
  873MOL0     H17800   8.055   8.545   2.035 -2.2695 -1.2764  1.4601
  873MOL0     H17801   8.004   8.662   2.164  0.0353  2.5654 -0.3796
  873MOL0     H17802   7.830   8.502   2.074  2.6945 -0.7126  0.4714
  873MOL0     H17803   7.829   8.586   1.909  0.7916  1.6962 -0.6261
  873MOL0     H17804   7.755   8.719   2.179  3.2002  2.5780 -0.6971
  873MOL0     H17805   7.753   8.774   2.005  3.5302 -3.0591 -3.4830
  873MOL0     H17806   7.592   8.487   2.225  2.3050 -0.7293 -1.3902
  873MOL0     H17807   7.309   8.384   2.178  1.6893 -0.9015  1.1084
  873MOL0     H17808   7.265   8.414   2.006  0.9962  2.6529 -1.9564
  873MOL0     H17809   7.444   8.249   1.929 -0.0610  2.5408  0.3113
  873MOL0     H17810   7.476   8.233   2.108 -1.3088  2.7348  0.8753
  873MOL0     H17811   7.239   8.124   2.136 -0.5972 -2.2038 -0.6002
  873MOL0     H17812   7.339   8.043   2.015 -3.6476 -0.3012 -2.0342
  873MOL0     H17813   7.241   8.183   1.831 -0.0236 -1.4823 -0.2934
  873MOL0     H17814   7.105   8.228   1.931 -0.3823 -0.9866  2.0720
  873MOL0     H17815   7.053   7.769   1.907  0.6348 -0.0661 -0.1845
  873MOL0     H17816   6.857   7.691   2.016 -1.0556  0.4733 -0.6219
  873MOL0     H17817   6.374   7.720   2.013 -1.5974  0.2153 -0.5596
  873MOL0     H17818   6.197   7.615   2.104 -2.2150  0.1735  3.1552
  873MOL0     H17819   6.161   7.264   2.228 -3.9607 -2.1951  1.7552
  873MOL0     H17820   6.247   7.290   2.372 -0.6572  0.0858  0.0709
  873MOL0     H17821   6.025   7.188   2.430 -0.0004  0.0131  0.3078
  873MOL0     H17822   6.020   7.358   2.479 -2.2771 -0.5291  0.7503
  873MOL0     H17823   5.907   7.421   2.266  0.2070 -0.8846 -3.8702
  873MOL0     H17824   5.917   7.256   2.209 -0.0437  2.1382 -1.0008
  873MOL0     H17825   5.736   7.352   2.436 -0.0011  0.9319 -1.5075
  873MOL0     H17826   5.779   7.173   2.402 -0.6118 -1.4510 -2.4430
  873MOL0     H17827   5.570   7.226   2.321 -0.6617 -0.2843 -2.1214
  873MOL0     H17828   5.669   7.201   2.186  1.3912  1.2429 -1.2757
  873MOL0     H17829   5.591   7.482   2.305  0.6454  1.0440 -0.7993
  873MOL0     H17830   5.668   7.462   2.157  0.4859  1.3616  1.6997
  873MOL0     H17831   5.482   7.290   2.093  3.3054 -0.1641 -0.3990
  873MOL0     H17832   5.427   7.458   2.080  0.8982  1.5984  1.9546
  873MOL0     H17833   5.374   7.295   2.325 -3.4725 -1.3141  0.6785
  873MOL0     H17834   5.292   7.448   2.272  0.7757  1.1461  0.5541
  873MOL0     H17835   6.402   7.424   2.402 -0.9394  0.4369  0.9344
  873MOL0     H17836   6.629   7.532   2.300 -2.0105 -2.8997  2.7047
  873MOL0     H17837   6.713   8.107   2.065 -1.4106 -1.7000  2.0130
  873MOL0     H17838   6.920   8.188   1.974  1.0617 -0.5047 -1.6723
  873MOL0     H17839   8.792   8.824   1.927 -1.4980 -1.4009 -0.9633
  873MOL0     H17840   9.018   8.702   1.890 -0.5359 -0.1232 -0.9585
  873MOL0     H17841   9.473   8.581   1.920  1.2955  0.5029 -4.0725
  873MOL0     H17842   9.635   8.424   1.846 -0.2271  1.1539  2.0037
  873MOL0     H17843   9.738   8.310   1.723  1.9809  0.1422  1.4396
  873MOL0     H17844   9.777   8.149   1.680 -0.3526  0.8084 -0.9409
  873MOL0     H17845   9.779   8.121   1.951 -0.0091 -1.5189 -2.4334
  873MOL0     H17846   9.793   8.295   1.959 -0.1388  0.3923 -1.2835
  873MOL0     H17847  10.015   8.197   2.003  1.9698  0.8876  0.0079
  873MOL0     H17848  10.031   8.266   1.857  1.2766 -0.3188  0.3007
  873MOL0     H17849   9.950   7.964   1.888  1.5528 -1.0506  0.3414
  873MOL0     H17850  10.019   8.039   1.744 -0.9529 -3.2619 -0.4903
  873MOL0     H17851  10.343   7.939   2.008 -1.8356 -1.2866  1.1382
  873MOL0     H17852   9.349   8.107   1.839 -1.0826  0.3974 -1.3346
  873MOL0     H17853   9.062   8.302   1.864  0.2242 -0.0202 -0.1259
  873MOL0     H17854   9.122   8.141   1.871  3.0274 -0.0543 -1.6739
  873MOL0     H17855   9.116   8.243   2.024 -0.5040 -0.4895 -0.2705
  874MOL0     O17856   7.623  10.179   6.750 -0.3994 -0.2250 -0.4808
  874MOL0     C17857   7.624  10.059   6.767  0.3729 -0.2926  0.3800
  874MOL0     O17858   7.730   9.977   6.738 -0.3958  0.1353 -0.6433
  874MOL0     C17859   7.844  10.036   6.694  0.2636  0.1698  0.3118
  874MOL0     C17860   7.916   9.967   6.610  1.0120 -0.9933 -0.1764
  874MOL0     C17861   8.048   9.998   6.570  0.5708 -0.2066 -0.6145
  874MOL0     C17862   8.108  10.114   6.624  0.2887 -0.2757 -0.7967
  874MOL0     O17863   8.237  10.162   6.604  0.1141 -0.4583 -0.5373
  874MOL0     C17864   8.313  10.074   6.529 -0.6360  0.0961 -0.6033
  874MOL0     C17865   8.466  10.107   6.550 -0.0424 -0.6250  0.3097
  874MOL0     C17866   8.494  10.262   6.519  0.1270  0.1541  0.6420
  874MOL0     C17867   8.647  10.291   6.527  0.3493 -0.2994  0.2556
  874MOL0     C17868   8.677  10.430   6.471  0.2775 -0.4527  0.2152
  874MOL0     C17869   8.822  10.474   6.451 -0.7805  0.1625  0.1412
  874MOL0     C17870   8.846  10.596   6.371 -0.1072 -0.5497 -0.7701
  874MOL0     C17871   8.965  10.675   6.423  0.0111 -0.3808 -1.1306
  874MOL0     N17872   9.090  10.603   6.400 -0.1894 -0.5936  0.0468
  874MOL0     C17873   9.165  10.550   6.504 -0.1413 -0.3970  0.1199
  874MOL0     C17874   9.242  10.459   6.439  0.0036 -0.5259 -0.7438
  874MOL0     C17875   9.333  10.362   6.515 -0.2761 -0.9090 -0.0869
  874MOL0     C17876   9.262  10.233   6.564 -0.5844  0.9216  0.3010
  874MOL0     C17877   9.340  10.110   6.601 -0.3347  0.4009 -0.2281
  874MOL0     C17878   9.237   9.990   6.622  0.5142 -0.1250 -0.4828
  874MOL0     O17879   9.285   9.871   6.686 -0.1793 -0.0061 -0.5155
  874MOL0     C17880   9.196   9.767   6.709  0.0027 -0.1716 -0.0027
  874MOL0     C17881   9.262   9.642   6.740  0.5132  0.1977  0.5139
  874MOL0     C17882   9.202   9.516   6.752 -0.6564  0.5369  0.5023
  874MOL0     C17883   9.067   9.502   6.729  0.6190 -0.6021 -0.4617
  874MOL0     C17884   8.994   9.376   6.740 -0.6525  0.1948 -0.2720
  874MOL0     O17885   8.860   9.381   6.716 -0.3752  0.1785  0.3777
  874MOL0     C17886   8.761   9.286   6.752 -0.1033 -0.3877  0.0237
  874MOL0     C17887   8.786   9.176   6.836 -0.8831  0.2061  0.5499
  874MOL0     C17888   8.679   9.083   6.872 -0.3567  0.8699  0.6021
  874MOL0     C17889   8.544   9.101   6.815  0.1880 -0.5744  0.4256
  874MOL0     O17890   8.439   9.010   6.841 -0.2726  1.0265 -0.0106
  874MOL0     C17891   8.427   9.009   6.988  0.5194  0.2234 -0.2979
  874MOL0     C17892   8.288   8.961   7.022 -0.6305  0.3368  0.2319
  874MOL0     C17893   8.292   8.805   7.015 -0.0378  0.1641 -0.0447
  874MOL0     C17894   8.147   8.759   7.024 -0.1224  0.5093 -0.1857
  874MOL0     C17895   8.158   8.605   6.992  1.4262 -0.2123 -0.9090
  874MOL0     C17896   8.020   8.559   7.022 -0.1757  1.0560  0.7590
  874MOL0     C17897   7.986   8.424   6.950  0.0615  0.5260  0.9021
  874MOL0     C17898   7.862   8.353   7.016 -0.3447  0.1037  0.8887
  874MOL0    Cl17899   7.738   8.471   6.971  0.4729 -0.0214 -0.0680
  874MOL0     C17900   8.525   9.212   6.728  0.5427  0.3804  0.5160
  874MOL0     C17901   8.624   9.306   6.701  0.0718  0.1005 -0.0559
  874MOL0     O17902   9.060   9.276   6.767 -0.5989  0.1524 -0.5465
  874MOL0     C17903   8.993   9.620   6.700  0.1156  0.3339  0.2708
  874MOL0     C17904   9.059   9.746   6.693  0.2459  1.0721 -0.0813
  874MOL0     N17905   9.217  10.466   6.305 -0.3073  0.2812 -0.1614
  874MOL0     N17906   9.124  10.547   6.283  1.3270  0.6415  0.1190
  874MOL0     C17907   8.034  10.192   6.720 -0.1143 -0.9790  0.1540
  874MOL0     C17908   7.899  10.147   6.760  0.5882 -0.8116 -0.8756
  874MOL0     C17909   7.519   9.986   6.845 -0.3149 -0.1777  0.9986
  874MOL0     C17910   7.450   9.889   6.778  0.9533  0.0474  0.0608
  874MOL0     C17911   7.347   9.818   6.836 -0.6614 -0.5036 -0.1179
  874MOL0     C17912   7.299   9.857   6.965 -0.2716  0.0273  0.5422
  874MOL0     O17913   7.186   9.820   7.032 -0.0640 -0.2884  0.4639
  874MOL0     C17914   7.129   9.686   7.024 -0.3270 -0.4240  0.3849
  874MOL0     C17915   7.067   9.624   7.150  1.1607 -0.5202  0.3851
  874MOL0     C17916   6.931   9.688   7.162  0.3186  0.0073 -0.3178
  874MOL0     C17917   6.924   9.773   7.296  0.1372 -0.8228  0.2981
  874MOL0     C17918   6.911   9.684   7.410  0.4773 -1.2073  0.1361
  874MOL0     C17919   6.940   9.621   7.512  0.4244 -0.3063 -0.0233
  874MOL0     C17920   7.382   9.953   7.034  0.1056 -0.8625  0.4183
  874MOL0     C17921   7.491  10.022   6.978 -0.5806 -0.3837  0.6024
  874MOL0     C17922   7.576  10.121   7.058  0.3092  0.2021  0.7978
  874MOL0     H17923   7.875   9.872   6.579  1.6551 -0.8982 -1.4014
  874MOL0     H17924   8.083   9.934   6.491 -1.5027  1.8397 -3.3880
  874MOL0     H17925   8.297   9.969   6.557 -0.7982 -0.7343 -3.4747
  874MOL0     H17926   8.281  10.077   6.425 -0.1706 -1.0684 -0.7991
  874MOL0     H17927   8.525  10.042   6.484 -0.7461  0.0186 -0.9974
  874MOL0     H17928   8.498  10.086   6.652  2.3077  0.8878 -0.0452
  874MOL0     H17929   8.449  10.334   6.587  0.5883  2.1981 -1.1097
  874MOL0     H17930   8.447  10.282   6.422  1.0865 -2.2082 -0.3941
  874MOL0     H17931   8.687  10.278   6.628 -1.4316 -1.7013  0.8206
  874MOL0     H17932   8.697  10.222   6.459 -1.9821 -2.2188  0.3720
  874MOL0     H17933   8.622  10.441   6.377 -2.8614 -0.1170  1.9288
  874MOL0     H17934   8.644  10.506   6.543  1.0245  0.1173 -0.0349
  874MOL0     H17935   8.858  10.492   6.553 -1.4058 -0.6144  0.5095
  874MOL0     H17936   8.879  10.389   6.413 -1.1858 -0.1716  0.2654
  874MOL0     H17937   8.756  10.657   6.384 -2.3234 -2.8513 -3.8686
  874MOL0     H17938   8.862  10.557   6.270 -0.2831  1.4310 -1.5953
  874MOL0     H17939   8.963  10.760   6.354  2.6867 -0.0387 -0.8862
  874MOL0     H17940   8.954  10.724   6.520 -1.2268 -2.5855 -0.0835
  874MOL0     H17941   9.169  10.567   6.611  0.7583  0.9172 -0.1060
  874MOL0     H17942   9.413  10.325   6.450 -0.7269  1.4696 -2.1563
  874MOL0     H17943   9.374  10.407   6.606 -2.8677  3.7035 -0.8595
  874MOL0     H17944   9.195  10.248   6.649 -0.3901 -2.1113  1.1066
  874MOL0     H17945   9.194  10.205   6.484  1.2747  0.6750 -1.2735
  874MOL0     H17946   9.402  10.113   6.691 -1.0877 -1.7295  0.4132
  874MOL0     H17947   9.408  10.078   6.522  1.1465 -3.2249  2.2256
  874MOL0     H17948   9.191   9.955   6.529 -1.5061  2.3366 -0.5107
  874MOL0     H17949   9.165  10.031   6.692  1.7386  0.9809  0.1537
  874MOL0     H17950   9.363   9.657   6.775  0.3898  2.3940  0.0921
  874MOL0     H17951   9.257   9.425   6.774  0.8733  2.0510  3.6032
  874MOL0     H17952   8.886   9.165   6.877 -1.3716  0.3301  1.8231
  874MOL0     H17953   8.710   8.997   6.929  1.0218 -0.6964 -2.3466
  874MOL0     H17954   8.499   8.945   7.041  2.2146  1.2776 -1.2148
  874MOL0     H17955   8.443   9.111   7.025  1.9284  0.9457 -2.6404
  874MOL0     H17956   8.269   8.984   7.128  0.1904  0.5136  0.3437
  874MOL0     H17957   8.218   9.020   6.962 -1.2617  3.1733  3.4311
  874MOL0     H17958   8.336   8.760   6.925  0.5027  0.8550 -0.1338
  874MOL0     H17959   8.346   8.753   7.095  0.9551  1.4842  0.1745
  874MOL0     H17960   8.086   8.808   6.948 -0.7386 -0.0368 -0.0482
  874MOL0     H17961   8.118   8.783   7.126 -0.6730  0.5544 -0.3519
  874MOL0     H17962   8.219   8.550   7.065  0.4262  1.3426  1.2285
  874MOL0     H17963   8.188   8.588   6.888  0.9132 -4.2043 -0.5628
  874MOL0     H17964   8.011   8.543   7.130  0.1290 -1.4670  0.4778
  874MOL0     H17965   7.947   8.633   6.987  0.6448  0.7160 -1.7948
  874MOL0     H17966   8.074   8.360   6.961 -1.0156 -0.9862  0.9214
  874MOL0     H17967   7.967   8.449   6.845  1.2581 -2.5430 -0.1621
  874MOL0     H17968   7.844   8.262   6.959  0.4951  0.5484 -0.1163
  874MOL0     H17969   7.868   8.335   7.124 -1.3786 -0.5931  0.8398
  874MOL0     H17970   8.423   9.219   6.690  0.7252 -0.9098 -0.2561
  874MOL0     H17971   8.596   9.379   6.626 -1.5277 -0.4561 -0.0375
  874MOL0     H17972   8.889   9.613   6.668  0.0608 -0.2562  0.5716
  874MOL0     H17973   8.998   9.830   6.662 -1.4085  0.7839  2.1393
  874MOL0     H17974   8.069  10.290   6.752 -0.8413  0.2467 -2.5240
  874MOL0     H17975   7.840  10.196   6.836  0.4598 -2.8876  0.4244
  874MOL0     H17976   7.488   9.855   6.682  0.1291 -1.0984  0.1168
  874MOL0     H17977   7.300   9.745   6.772  1.8883 -0.1556 -2.5803
  874MOL0     H17978   7.209   9.616   6.997 -0.1729  0.0086 -0.3058
  874MOL0     H17979   7.049   9.681   6.949 -2.1702  1.0218  2.1278
  874MOL0     H17980   7.131   9.641   7.237 -0.1409  2.5579  0.8629
  874MOL0     H17981   7.058   9.515   7.148  1.1469 -0.5259  0.6925
  874MOL0     H17982   6.851   9.613   7.165  2.0025 -1.8425  1.7646
  874MOL0     H17983   6.915   9.768   7.089 -3.2467 -1.3877 -1.2788
  874MOL0     H17984   7.012   9.837   7.303 -1.7159  1.8829  0.6308
  874MOL0     H17985   6.839   9.842   7.288 -0.0771 -1.1543 -0.3688
  874MOL0     H17986   6.942   9.549   7.592 -0.5658  2.0646  2.2751
  874MOL0     H17987   7.352   9.986   7.133 -2.1110  2.4152 -1.1561
  874MOL0     H17988   7.543  10.222   7.032  1.9188  1.0731  2.0079
  874MOL0     H17989   7.557  10.114   7.165  0.1951  0.1986  0.7771
  874MOL0     H17990   7.684  10.112   7.042  0.7768  1.8197  2.6803
  875MOL0     O17991   1.737   4.203   5.550 -0.0370  0.9951  0.3729
  875MOL0     C17992   1.617   4.211   5.527 -0.1151  0.0829 -0.3104
  875MOL0     O17993   1.552   4.323   5.484  1.0628 -0.2837  0.2948
  875MOL0     C17994   1.596   4.454   5.507 -0.2279  0.5107 -0.2378
  875MOL0     C17995   1.533   4.555   5.434  0.2193 -0.2540 -0.1517
  875MOL0     C17996   1.574   4.691   5.445 -0.2947  0.4252  0.5767
  875MOL0     C17997   1.697   4.730   5.511 -0.3419 -0.0488  0.0639
  875MOL0     O17998   1.737   4.860   5.505 -0.4499 -0.0943 -0.6431
  875MOL0     C17999   1.781   4.928   5.627  0.2495  0.0844 -0.3453
  875MOL0     C18000   1.922   4.982   5.595  0.1208 -0.3314  0.4411
  875MOL0     C18001   1.983   5.050   5.723 -1.2568  0.6187  0.1859
  875MOL0     C18002   2.055   5.187   5.693  0.3040  1.3645 -0.0247
  875MOL0     C18003   2.095   5.234   5.835  0.1912  0.5780 -0.2142
  875MOL0     C18004   2.144   5.385   5.857  0.2581  0.4622 -0.9780
  875MOL0     C18005   2.166   5.420   6.003  0.3272  0.2077 -1.0799
  875MOL0     C18006   2.259   5.546   6.016 -0.0573  0.5050  0.7170
  875MOL0     N18007   2.397   5.518   5.979 -0.8978  0.5840 -0.9165
  875MOL0     C18008   2.463   5.397   5.986 -0.4088 -0.2651  0.4632
  875MOL0     C18009   2.590   5.423   5.931 -0.1897 -0.1305  0.2105
  875MOL0     C18010   2.700   5.323   5.924 -1.2996  0.6693  0.0848
  875MOL0     C18011   2.839   5.363   5.984  0.3528  0.4845 -0.5585
  875MOL0     C18012   2.930   5.447   5.886  0.1047  0.2239 -0.5378
  875MOL0     C18013   3.065   5.465   5.949 -0.4925  0.1409  0.0653
  875MOL0     O18014   3.148   5.360   5.918  0.7360  0.6177 -0.5365
  875MOL0     C18015   3.282   5.380   5.909  0.0675 -0.4587 -0.0767
  875MOL0     C18016   3.358   5.485   5.964  0.2463 -0.1276 -0.2579
  875MOL0     C18017   3.494   5.499   5.956 -0.4939  0.6754  0.0135
  875MOL0     C18018   3.566   5.398   5.887 -0.2706 -0.5401  1.3143
  875MOL0     C18019   3.712   5.412   5.863  1.0731 -0.0811 -0.2164
  875MOL0     O18020   3.786   5.302   5.883  0.1807  0.1482 -0.4681
  875MOL0     C18021   3.918   5.284   5.864 -0.7428 -0.0360 -0.3132
  875MOL0     C18022   3.999   5.378   5.808 -0.4875  0.6916  0.8454
  875MOL0     C18023   4.146   5.364   5.816  0.0500 -0.5357  0.5256
  875MOL0     C18024   4.198   5.243   5.870 -0.5275 -0.7306  0.0815
  875MOL0     O18025   4.332   5.237   5.878  0.2049 -0.1623 -0.4210
  875MOL0     C18026   4.388   5.151   5.980 -0.2219  0.3012 -0.2080
  875MOL0     C18027   4.512   5.233   6.021 -0.1086  0.1792  0.6487
  875MOL0     C18028   4.617   5.151   6.092  1.1360 -0.1302 -1.0283
  875MOL0     C18029   4.743   5.236   6.111 -0.4322 -0.2535  0.4189
  875MOL0     C18030   4.846   5.204   5.998  0.0384 -0.4696  0.0488
  875MOL0     C18031   4.957   5.294   6.010 -0.1336 -0.5421  0.3114
  875MOL0     C18032   5.072   5.247   5.912 -0.4837  0.2655  0.9985
  875MOL0     C18033   5.201   5.314   5.958 -0.0696  0.2350 -0.0099
  875MOL0    Cl18034   5.338   5.233   5.873  0.4955 -0.2007  0.0548
  875MOL0     C18035   4.113   5.142   5.918  0.7685 -0.6732 -1.2023
  875MOL0     C18036   3.976   5.168   5.926  0.6229  0.8556 -0.0879
  875MOL0     O18037   3.753   5.519   5.834 -0.2223 -0.3916  0.0164
  875MOL0     C18038   3.498   5.291   5.825 -0.2352 -0.8334 -0.6669
  875MOL0     C18039   3.353   5.285   5.838 -1.1500 -0.9279  0.2151
  875MOL0     N18040   2.582   5.553   5.890 -1.0894  0.4418  0.2975
  875MOL0     N18041   2.470   5.605   5.916  0.9941 -0.4004 -0.3149
  875MOL0     C18042   1.764   4.633   5.575 -0.1218 -0.0900 -0.4901
  875MOL0     C18043   1.713   4.501   5.582 -0.0772  0.7692 -0.4188
  875MOL0     C18044   1.544   4.078   5.518 -0.1691 -0.6795  0.5250
  875MOL0     C18045   1.408   4.091   5.495 -0.4630  0.1231  0.6803
  875MOL0     C18046   1.328   3.974   5.492  0.2645 -0.0612  0.2105
  875MOL0     C18047   1.390   3.845   5.525 -0.5164  0.7183  0.2257
  875MOL0     O18048   1.308   3.734   5.554  0.0862 -0.0954 -0.0877
  875MOL0     C18049   1.367   3.601   5.548 -0.5703  0.1935 -0.5726
  875MOL0     C18050   1.264   3.494   5.510  0.9696  0.0740  0.4242
  875MOL0     C18051   1.191   3.521   5.374  1.2365 -0.7485 -0.9450
  875MOL0     C18052   1.287   3.570   5.267 -0.4038 -0.4357 -0.2401
  875MOL0     C18053   1.383   3.464   5.241 -0.6582  0.2548  0.5143
  875MOL0     C18054   1.479   3.384   5.216 -0.2486 -0.2771 -0.5940
  875MOL0     C18055   1.528   3.844   5.541  1.2891  0.9793  0.2705
  875MOL0     C18056   1.604   3.956   5.535 -0.5048  0.7449 -0.1223
  875MOL0     C18057   1.752   3.928   5.546  0.8053  0.6120  0.2295
  875MOL0     H18058   1.437   4.543   5.386  0.9658  1.0529 -2.1553
  875MOL0     H18059   1.519   4.776   5.406 -0.2090 -0.4795 -1.6351
  875MOL0     H18060   1.701   5.001   5.643 -0.6996 -1.3373  1.8957
  875MOL0     H18061   1.783   4.862   5.715 -0.8086 -1.8480 -1.7026
  875MOL0     H18062   1.909   5.064   5.524  0.7781  0.4300  1.1871
  875MOL0     H18063   1.976   4.898   5.551 -1.2843  0.0886 -2.3761
  875MOL0     H18064   2.054   4.985   5.775  0.9040  2.2614 -0.5433
  875MOL0     H18065   1.907   5.072   5.798 -2.3291  0.4418 -0.8181
  875MOL0     H18066   2.147   5.177   5.634 -0.1216 -0.4028 -0.4487
  875MOL0     H18067   1.983   5.245   5.635 -0.1123  2.2636  1.3414
  875MOL0     H18068   2.013   5.218   5.906 -1.5542  1.9761 -1.8115
  875MOL0     H18069   2.175   5.164   5.862 -2.6047 -2.2229  1.4612
  875MOL0     H18070   2.234   5.391   5.795  0.5660 -1.2770 -0.7321
  875MOL0     H18071   2.066   5.452   5.819 -1.8244 -1.2506  0.0892
  875MOL0     H18072   2.211   5.336   6.056  2.1389 -0.8358 -4.0317
  875MOL0     H18073   2.067   5.446   6.042  0.5737  3.5688 -2.3510
  875MOL0     H18074   2.217   5.621   5.949 -1.4358 -1.1530 -0.3526
  875MOL0     H18075   2.245   5.573   6.121 -2.7499 -0.4213  0.6849
  875MOL0     H18076   2.447   5.309   6.047  1.9451 -0.4717  0.8686
  875MOL0     H18077   2.669   5.228   5.969  1.8191 -0.3586  0.3221
  875MOL0     H18078   2.727   5.312   5.818 -0.1373  1.2669  0.2978
  875MOL0     H18079   2.819   5.421   6.075 -0.1587 -2.3182  1.2360
  875MOL0     H18080   2.891   5.271   6.010 -0.3572  0.5553  1.2870
  875MOL0     H18081   2.888   5.546   5.869 -0.3636  0.2806  0.8314
  875MOL0     H18082   2.937   5.395   5.790  1.5991  2.2363 -1.5904
  875MOL0     H18083   3.070   5.492   6.055  1.9693 -0.9837  0.3074
  875MOL0     H18084   3.107   5.559   5.910  2.2765  0.4013  3.1659
  875MOL0     H18085   3.294   5.554   6.019 -0.4188 -0.7265 -0.2586
  875MOL0     H18086   3.549   5.582   6.002 -2.9195  1.1392  2.3177
  875MOL0     H18087   3.962   5.471   5.765 -5.2547 -1.0738  0.4994
  875MOL0     H18088   4.208   5.446   5.782 -1.5524  0.5568  0.1416
  875MOL0     H18089   4.335   5.143   6.075  2.1429 -0.3130  1.1362
  875MOL0     H18090   4.416   5.056   5.933  0.3362  0.3335  0.0465
  875MOL0     H18091   4.562   5.258   5.927 -0.9244 -0.1601  0.1104
  875MOL0     H18092   4.494   5.317   6.089  3.4846 -1.3693  3.8897
  875MOL0     H18093   4.578   5.121   6.190 -1.4275  0.9541 -1.6131
  875MOL0     H18094   4.622   5.051   6.049 -0.9782 -0.6219 -0.2779
  875MOL0     H18095   4.785   5.214   6.209 -0.6763 -1.0505  0.3540
  875MOL0     H18096   4.715   5.342   6.104 -1.0698 -0.5021 -2.1821
  875MOL0     H18097   4.811   5.208   5.894  0.2465 -0.5568 -0.0245
  875MOL0     H18098   4.878   5.101   6.017  2.4232 -0.2052 -2.0747
  875MOL0     H18099   4.921   5.396   5.992  2.5350  0.1746 -1.5137
  875MOL0     H18100   4.987   5.280   6.114  0.6557 -2.0954 -0.0938
  875MOL0     H18101   5.061   5.276   5.807  1.9277 -1.9797 -0.0001
  875MOL0     H18102   5.095   5.141   5.918  1.3174  0.6388  1.3076
  875MOL0     H18103   5.191   5.421   5.940 -1.6017 -0.1488 -1.7503
  875MOL0     H18104   5.207   5.295   6.066  0.7094  0.3191 -0.0325
  875MOL0     H18105   4.154   5.052   5.963  1.1398  0.9354  1.9616
  875MOL0     H18106   3.912   5.095   5.974  2.1284 -0.0092  0.6691
  875MOL0     H18107   3.551   5.204   5.787  0.5706 -1.0040  0.7904
  875MOL0     H18108   3.280   5.213   5.804 -2.5488  0.4184  0.2869
  875MOL0     H18109   1.857   4.667   5.620 -1.5262  1.0552  1.7062
  875MOL0     H18110   1.757   4.427   5.649  2.1294 -0.6478 -3.2025
  875MOL0     H18111   1.362   4.189   5.488  0.3299  0.4720  0.1861
  875MOL0     H18112   1.220   3.974   5.497  0.2480  1.4081  0.4621
  875MOL0     H18113   1.395   3.576   5.650 -0.9101  0.2323 -0.4690
  875MOL0     H18114   1.458   3.584   5.490  0.3282  0.0952  0.8215
  875MOL0     H18115   1.195   3.484   5.594  1.4448 -1.6268  0.6390
  875MOL0     H18116   1.310   3.395   5.498  2.2728  0.8336 -1.3860
  875MOL0     H18117   1.123   3.604   5.396  1.7676 -0.1974 -1.3781
  875MOL0     H18118   1.141   3.429   5.341  2.1158 -0.9447 -1.7942
  875MOL0     H18119   1.240   3.611   5.177  0.7438  2.9010  0.5527
  875MOL0     H18120   1.344   3.653   5.308 -1.2449 -1.0268  2.3408
  875MOL0     H18121   1.570   3.328   5.226 -0.4238 -0.2551  1.6273
  875MOL0     H18122   1.564   3.747   5.571  2.6125  1.3910  0.0497
  875MOL0     H18123   1.778   3.823   5.527  1.4783  0.6509  0.8763
  875MOL0     H18124   1.808   3.989   5.475 -0.3039  0.8924 -0.4266
  875MOL0     H18125   1.779   3.953   5.649 -3.5731  1.2535  1.4315
  876MOL0     O18126   9.157   0.358   2.303 -0.1012  0.0989 -0.0241
  876MOL0     C18127   9.141   0.384   2.184  0.0643 -0.4684  0.4214
  876MOL0     O18128   9.234   0.404   2.094 -1.0581  0.8617  0.8382
  876MOL0     C18129   9.367   0.419   2.127  0.5300  0.3591 -0.2575
  876MOL0     C18130   9.456   0.328   2.073 -0.1496  0.3857  0.1488
  876MOL0     C18131   9.590   0.331   2.115  0.1669 -0.8894 -0.0512
  876MOL0     C18132   9.643   0.434   2.209  0.2322 -0.7605 -0.4806
  876MOL0     O18133   9.783   0.435   2.225 -0.3822 -0.0414 -0.0539
  876MOL0     C18134   9.828   0.501   2.352  0.5253  0.7114  0.4672
  876MOL0     C18135   9.976   0.478   2.378 -0.2578  0.2950  0.5163
  876MOL0     C18136  10.069   0.549   2.277  0.2706 -0.4290 -0.6253
  876MOL0     C18137  10.106   0.691   2.316 -0.5501 -0.2569 -0.4402
  876MOL0     C18138  10.129   0.779   2.192  0.6974 -0.1222 -0.2151
  876MOL0     C18139  10.172   0.925   2.201  0.1002 -0.2371  0.0385
  876MOL0     C18140  10.191   0.994   2.057  0.3884  0.8989 -0.7094
  876MOL0     C18141  10.256   1.131   2.074 -0.5245 -0.0679  0.0532
  876MOL0     N18142  10.380   1.137   1.985  0.5746 -0.3384  0.5718
  876MOL0     C18143  10.394   1.184   1.852  0.5347 -0.1143  0.2502
  876MOL0     C18144  10.521   1.157   1.818 -0.7126  0.2678  0.6375
  876MOL0     C18145  10.565   1.176   1.677 -0.4005  0.6474 -0.1148
  876MOL0     C18146  10.709   1.114   1.659 -0.5172 -0.3523  0.3742
  876MOL0     C18147  10.747   1.132   1.507  0.1500 -0.0589 -0.5249
  876MOL0     C18148  10.896   1.102   1.485  0.7179 -0.3437 -0.3738
  876MOL0     O18149  10.906   0.956   1.477 -0.5397 -0.0239 -0.7184
  876MOL0     C18150  11.029   0.903   1.461  0.0946  0.3950 -0.2049
  876MOL0     C18151  11.143   0.976   1.448  0.3393  0.0743 -0.0627
  876MOL0     C18152  11.269   0.912   1.447 -0.8466  0.5423 -0.2818
  876MOL0     C18153  11.286   0.769   1.457 -0.5176  0.2965 -0.1822
  876MOL0     C18154  11.427   0.708   1.438 -0.7700  0.4090 -0.0095
  876MOL0     O18155  11.541   0.795   1.438  0.6915  0.2433 -0.1069
  876MOL0     C18156  11.671   0.752   1.420  0.6400 -0.5575  0.4614
  876MOL0     C18157  11.713   0.627   1.366  0.1943  0.3166 -0.8380
  876MOL0     C18158  11.845   0.586   1.340 -0.0581 -1.0555  0.5232
  876MOL0     C18159  11.943   0.683   1.358 -1.0040  0.2548 -0.8877
  876MOL0     O18160  12.073   0.651   1.332 -0.7083 -0.5270  0.0378
  876MOL0     C18161  12.115   0.643   1.201 -0.3646  0.1286 -0.1723
  876MOL0     C18162  12.255   0.685   1.165 -0.8413  0.6622  0.0362
  876MOL0     C18163  12.360   0.581   1.195 -0.3841 -0.5909  0.4404
  876MOL0     C18164  12.512   0.625   1.186  0.5848  0.4046 -1.1214
  876MOL0     C18165  12.568   0.656   1.048  0.1780  0.6569 -0.2722
  876MOL0     C18166  12.712   0.704   1.056 -0.0552  0.2238  0.0396
  876MOL0     C18167  12.766   0.767   0.923 -0.9454  0.1912 -0.0465
  876MOL0     C18168  12.660   0.850   0.841 -0.2268  0.4746  0.1296
  876MOL0    Cl18169  12.739   0.944   0.700  0.2978  0.1780 -0.5452
  876MOL0     C18170  11.904   0.807   1.400  0.7101  0.0321  0.3499
  876MOL0     C18171  11.769   0.843   1.439 -0.1003  0.1058  0.6817
  876MOL0     O18172  11.439   0.587   1.453 -0.3606  0.2302  0.4224
  876MOL0     C18173  11.168   0.697   1.476  0.1613 -0.2285  0.4049
  876MOL0     C18174  11.041   0.767   1.480 -0.9328 -0.2517 -0.4244
  876MOL0     N18175  10.584   1.104   1.928  0.3469 -0.1070 -0.0248
  876MOL0     N18176  10.504   1.097   2.024 -0.0821 -0.2054 -0.5293
  876MOL0     C18177   9.551   0.522   2.255 -0.0717 -0.5222  0.3093
  876MOL0     C18178   9.418   0.518   2.214  0.1641 -0.6810 -0.5450
  876MOL0     C18179   8.993   0.381   2.130  0.2269 -0.5057  0.8628
  876MOL0     C18180   8.961   0.309   2.012  1.1583 -0.8278 -0.5157
  876MOL0     C18181   8.828   0.306   1.961 -0.1820 -0.1802 -0.3359
  876MOL0     C18182   8.723   0.347   2.033  0.2714 -0.4980 -0.4778
  876MOL0     O18183   8.595   0.355   1.990  0.8402 -0.1072  0.2012
  876MOL0     C18184   8.546   0.488   1.962  1.8056  0.5310  0.5737
  876MOL0     C18185   8.488   0.517   1.822 -1.3290  1.3139 -1.0293
  876MOL0     C18186   8.387   0.410   1.782  0.2728  0.2842 -0.2676
  876MOL0     C18187   8.316   0.441   1.645 -0.0987  0.9771  0.4493
  876MOL0     C18188   8.217   0.345   1.616 -0.3832  0.7307 -0.0765
  876MOL0     C18189   8.125   0.272   1.597 -0.2569 -0.3414 -0.8138
  876MOL0     C18190   8.747   0.415   2.162  0.1119 -0.0156  0.1479
  876MOL0     C18191   8.881   0.429   2.204  0.4482 -0.2733 -0.0532
  876MOL0     C18192   8.896   0.502   2.334 -0.1782  0.0468 -0.3783
  876MOL0     H18193   9.418   0.241   2.020 -1.3458 -0.5171  2.3461
  876MOL0     H18194   9.656   0.251   2.085 -0.6632 -2.5469  2.2210
  876MOL0     H18195   9.816   0.609   2.338  1.1451  0.5446 -1.7025
  876MOL0     H18196   9.779   0.473   2.446  2.5270  1.2809  1.7547
  876MOL0     H18197  10.007   0.372   2.374 -3.8262 -0.8635  0.5316
  876MOL0     H18198  10.002   0.499   2.482 -1.0390 -0.9253  0.9894
  876MOL0     H18199  10.028   0.539   2.176  2.4357  0.2142 -1.6272
  876MOL0     H18200  10.159   0.488   2.263  1.1292  1.2254 -2.9461
  876MOL0     H18201  10.032   0.742   2.377 -0.5551 -1.3230  0.4643
  876MOL0     H18202  10.193   0.692   2.382 -0.4416  0.5612 -0.5869
  876MOL0     H18203  10.208   0.731   2.134  0.9694  0.8732 -0.6948
  876MOL0     H18204  10.039   0.795   2.132  0.9027  0.1667 -0.4471
  876MOL0     H18205  10.108   0.988   2.263  2.4745  2.2686  0.1641
  876MOL0     H18206  10.265   0.933   2.257 -0.9111 -1.3290  1.9720
  876MOL0     H18207  10.096   1.002   2.004  0.2107 -0.7074 -0.6909
  876MOL0     H18208  10.251   0.931   1.991  0.3912  1.5313 -1.3201
  876MOL0     H18209  10.188   1.210   2.039  0.2419 -0.2576 -2.0427
  876MOL0     H18210  10.268   1.147   2.181 -2.2162  1.6786  0.0363
  876MOL0     H18211  10.320   1.224   1.783 -0.1846  0.5322  1.3656
  876MOL0     H18212  10.496   1.134   1.604  0.0572  0.9224 -0.7194
  876MOL0     H18213  10.567   1.284   1.660 -4.1998  0.6232 -1.7322
  876MOL0     H18214  10.776   1.181   1.715  0.2408 -1.2279  0.5448
  876MOL0     H18215  10.721   1.017   1.708 -1.6028 -1.1031 -0.7841
  876MOL0     H18216  10.722   1.237   1.494 -1.1647  0.0173  2.0246
  876MOL0     H18217  10.692   1.056   1.450 -0.6536 -0.7385  1.0854
  876MOL0     H18218  10.961   1.127   1.569 -1.1186 -3.7002  2.2930
  876MOL0     H18219  10.934   1.157   1.398  0.0820  2.3243  0.9354
  876MOL0     H18220  11.149   1.084   1.453  2.4921  0.0093 -0.3411
  876MOL0     H18221  11.353   0.978   1.427 -2.1339  3.2647  2.5112
  876MOL0     H18222  11.638   0.552   1.342 -1.8953  1.7408  0.8730
  876MOL0     H18223  11.875   0.485   1.313 -0.3141 -1.2162  0.8308
  876MOL0     H18224  12.113   0.537   1.176 -0.0344 -0.2518  1.3075
  876MOL0     H18225  12.044   0.699   1.140  1.2071  0.4254 -1.8423
  876MOL0     H18226  12.265   0.716   1.060  1.7423  1.6543  0.4908
  876MOL0     H18227  12.285   0.770   1.228  0.1960  1.0444 -0.9218
  876MOL0     H18228  12.338   0.552   1.298 -0.3843  0.3844  0.7234
  876MOL0     H18229  12.342   0.487   1.142 -1.1913 -0.2756  0.1482
  876MOL0     H18230  12.576   0.546   1.226 -1.7634 -1.6545 -1.1907
  876MOL0     H18231  12.525   0.705   1.260  1.1537 -0.9769  0.3352
  876MOL0     H18232  12.504   0.725   0.992  0.5275 -0.7270 -2.5293
  876MOL0     H18233  12.576   0.561   0.993  0.3736 -1.9242  3.8434
  876MOL0     H18234  12.730   0.777   1.136 -0.8398 -0.1937  0.6059
  876MOL0     H18235  12.772   0.615   1.076  0.2548  0.0281 -1.6207
  876MOL0     H18236  12.798   0.688   0.854  1.9840  1.1254  0.0970
  876MOL0     H18237  12.854   0.825   0.953 -1.6150 -0.5644  3.9159
  876MOL0     H18238  12.584   0.783   0.801  0.0816  0.4219 -0.3703
  876MOL0     H18239  12.597   0.914   0.904 -0.8770  2.7047 -2.5814
  876MOL0     H18240  11.978   0.886   1.408  0.6182  0.1347  0.1956
  876MOL0     H18241  11.762   0.947   1.469  2.0235  0.6841 -0.6239
  876MOL0     H18242  11.163   0.591   1.502 -1.7835 -0.0180  1.0108
  876MOL0     H18243  10.947   0.717   1.499 -0.1738 -1.9452 -0.8788
  876MOL0     H18244   9.576   0.599   2.328 -1.4108  0.5856 -0.3347
  876MOL0     H18245   9.345   0.588   2.253 -0.8321 -0.0472 -3.3332
  876MOL0     H18246   9.042   0.269   1.952  0.4641 -2.4952 -0.4165
  876MOL0     H18247   8.811   0.267   1.861  2.6173 -1.2514 -0.4938
  876MOL0     H18248   8.633   0.554   1.969  2.1345  0.2294 -0.4986
  876MOL0     H18249   8.463   0.514   2.029 -1.4309 -0.3556 -2.7524
  876MOL0     H18250   8.564   0.526   1.744  0.6091  0.3923  0.6417
  876MOL0     H18251   8.441   0.615   1.831 -1.6982  1.0984 -0.5665
  876MOL0     H18252   8.313   0.392   1.860 -2.7358  1.1918 -2.7115
  876MOL0     H18253   8.437   0.313   1.784 -1.6297 -0.7316  1.2323
  876MOL0     H18254   8.263   0.537   1.647 -1.3693  0.3077  3.5558
  876MOL0     H18255   8.394   0.437   1.568  1.8722  1.2429  2.3241
  876MOL0     H18256   8.050   0.198   1.578 -0.7094  1.0396 -5.7163
  876MOL0     H18257   8.669   0.450   2.228 -0.2638  0.9897 -0.7905
  876MOL0     H18258   8.810   0.566   2.358 -0.2203  0.3708 -1.3577
  876MOL0     H18259   8.906   0.428   2.413  4.6031  0.9055  0.1433
  876MOL0     H18260   8.994   0.550   2.337  0.2182 -0.7982  1.1628
  877MOL0     O18261   5.454  10.793   6.336  1.0168  0.0264 -0.1402
  877MOL0     C18262   5.456  10.848   6.446 -0.9239 -0.6436  0.7248
  877MOL0     O18263   5.557  10.827   6.536 -0.0390 -0.4962 -0.6033
  877MOL0     C18264   5.677  10.765   6.516 -0.0264 -0.2374  0.1038
  877MOL0     C18265   5.774  10.768   6.617 -0.0157  0.3489  0.0596
  877MOL0     C18266   5.905  10.722   6.600  0.4457 -0.1707  0.1783
  877MOL0     C18267   5.944  10.668   6.482 -0.7548  0.2994 -0.2888
  877MOL0     O18268   6.073  10.626   6.478 -0.7075 -0.0146 -0.3160
  877MOL0     C18269   6.131  10.592   6.356 -0.8068 -0.2360 -0.9660
  877MOL0     C18270   6.275  10.561   6.378  0.6164  1.2232  0.0993
  877MOL0     C18271   6.328  10.496   6.250 -0.2980 -0.0744  0.2574
  877MOL0     C18272   6.485  10.456   6.270 -0.8087 -0.2165 -0.1528
  877MOL0     C18273   6.540  10.353   6.169  0.7880  0.2548 -0.3814
  877MOL0     C18274   6.692  10.367   6.144 -0.2427 -0.9561  1.2994
  877MOL0     C18275   6.755  10.257   6.060  0.2735 -0.2741  0.1502
  877MOL0     C18276   6.808  10.142   6.149 -0.6179  0.2085 -0.4869
  877MOL0     N18277   6.738  10.106   6.268  0.2352  0.4316  0.3241
  877MOL0     C18278   6.728  10.168   6.386  1.1287 -0.3555  0.4094
  877MOL0     C18279   6.668  10.084   6.474  1.4233  0.7917  0.7272
  877MOL0     C18280   6.625  10.112   6.613 -0.4381 -0.4203  0.2215
  877MOL0     C18281   6.487  10.174   6.635  0.7415  0.1692 -0.5578
  877MOL0     C18282   6.369  10.071   6.602  0.9739  0.2453  0.9847
  877MOL0     C18283   6.301  10.088   6.468  0.7423  0.1324 -0.6721
  877MOL0     O18284   6.264  10.222   6.441  0.9786 -0.0489  0.1544
  877MOL0     C18285   6.125  10.250   6.468  0.2036 -0.2372  0.3974
  877MOL0     C18286   6.032  10.212   6.372 -0.0921  0.9360 -0.5605
  877MOL0     C18287   5.900  10.246   6.390  0.3402 -0.5561  0.4556
  877MOL0     C18288   5.851  10.308   6.505  0.1397 -0.9470 -0.4482
  877MOL0     C18289   5.707  10.343   6.508 -0.8296  0.7919 -0.6951
  877MOL0     O18290   5.634  10.346   6.392  0.1019 -0.2077 -0.4657
  877MOL0     C18291   5.495  10.384   6.395 -0.4159 -0.5576  0.7034
  877MOL0     C18292   5.450  10.488   6.313  0.0063  0.5693 -0.2441
  877MOL0     C18293   5.313  10.511   6.292 -0.0534  1.2151  0.1406
  877MOL0     C18294   5.217  10.441   6.359  0.1118  0.3469  0.4079
  877MOL0     O18295   5.082  10.466   6.341  0.1385  0.1727  0.6855
  877MOL0     C18296   4.990  10.361   6.321 -0.2568  0.2168  1.0876
  877MOL0     C18297   4.887  10.403   6.220  0.6806 -0.3449  0.0481
  877MOL0     C18298   4.745  10.435   6.282 -0.1044  0.5230  0.1834
  877MOL0     C18299   4.640  10.468   6.167 -0.6465 -0.0884  0.2021
  877MOL0     C18300   4.506  10.486   6.227 -0.2701 -0.1175 -1.4100
  877MOL0     C18301   4.398  10.504   6.124 -0.2067  0.0830  1.1091
  877MOL0     C18302   4.383  10.390   6.019 -0.4504  0.1887 -0.7454
  877MOL0     C18303   4.329  10.253   6.079 -0.0222 -0.3882  0.1261
  877MOL0    Cl18304   4.181  10.273   6.171  0.2069  0.3901 -0.2667
  877MOL0     C18305   5.264  10.326   6.434  0.0779 -0.3826 -0.7354
  877MOL0     C18306   5.405  10.305   6.453  0.3759 -0.3160 -0.0138
  877MOL0     O18307   5.667  10.373   6.627 -0.5024 -0.0209 -0.2792
  877MOL0     C18308   5.943  10.356   6.600 -0.2506  0.3437 -0.0306
  877MOL0     C18309   6.081  10.326   6.583  0.4522  0.3524 -0.0590
  877MOL0     N18310   6.641   9.963   6.405  0.4170 -0.2366 -0.9266
  877MOL0     N18311   6.691   9.977   6.290 -0.0241 -0.1928 -0.5144
  877MOL0     C18312   5.860  10.667   6.374  0.8203  0.2384  0.2865
  877MOL0     C18313   5.729  10.720   6.391  1.2935  0.3149  0.0544
  877MOL0     C18314   5.340  10.937   6.493  0.4324 -0.0980  0.2015
  877MOL0     C18315   5.369  11.023   6.602  0.1552  0.6897  0.2785
  877MOL0     C18316   5.274  11.089   6.671  0.3563 -0.1958 -0.2629
  877MOL0     C18317   5.146  11.075   6.627  0.9891  0.6047 -0.1343
  877MOL0     O18318   5.047  11.139   6.692 -0.4814  0.4724  0.0725
  877MOL0     C18319   5.039  11.281   6.695  0.0995  0.2914  0.2933
  877MOL0     C18320   4.967  11.333   6.572  1.2395 -0.7006 -0.1912
  877MOL0     C18321   4.819  11.289   6.562  0.1992 -1.1794  0.0120
  877MOL0     C18322   4.749  11.359   6.439  0.8435 -0.0737 -0.3441
  877MOL0     C18323   4.601  11.327   6.452 -0.2484  0.7625 -0.0318
  877MOL0     C18324   4.482  11.316   6.470  0.9087  0.0697 -1.2238
  877MOL0     C18325   5.109  10.984   6.524  0.0960 -0.9953 -0.1729
  877MOL0     C18326   5.208  10.916   6.451 -0.4152  0.5535 -0.0312
  877MOL0     C18327   5.157  10.814   6.350 -0.4798  0.2806 -0.2458
  877MOL0     H18328   5.737  10.800   6.714 -2.2697 -1.1414 -0.2384
  877MOL0     H18329   5.979  10.715   6.678 -1.6456 -0.8961  2.2054
  877MOL0     H18330   6.071  10.522   6.297 -0.6712 -1.2719  0.1171
  877MOL0     H18331   6.134  10.684   6.295 -0.3039 -1.4563 -2.8786
  877MOL0     H18332   6.285  10.490   6.460  1.1912 -2.1840 -2.6797
  877MOL0     H18333   6.339  10.648   6.394  2.7798  0.2311 -2.3910
  877MOL0     H18334   6.326  10.573   6.172 -0.0443  1.8902  2.0979
  877MOL0     H18335   6.271  10.407   6.225  0.5980 -0.5231 -0.2329
  877MOL0     H18336   6.555  10.540   6.281 -0.5518 -0.5962  1.3138
  877MOL0     H18337   6.487  10.407   6.367  0.0773  2.4550  1.2830
  877MOL0     H18338   6.512  10.252   6.201  1.7104 -0.3836 -1.5278
  877MOL0     H18339   6.480  10.366   6.079  0.3282 -1.8319 -0.4156
  877MOL0     H18340   6.694  10.465   6.096 -4.7136 -1.2381  0.0822
  877MOL0     H18341   6.745  10.379   6.239 -1.1233  2.1026  1.5110
  877MOL0     H18342   6.840  10.299   6.005 -0.3243  1.2764  0.3710
  877MOL0     H18343   6.691  10.217   5.981  0.4085  0.3484 -0.2886
  877MOL0     H18344   6.819  10.045   6.100  0.1800 -0.9808  1.8941
  877MOL0     H18345   6.911  10.166   6.178 -0.1133  0.0369 -2.0262
  877MOL0     H18346   6.761  10.268   6.411  1.2668  0.4984 -2.7187
  877MOL0     H18347   6.633  10.023   6.676 -3.7197 -0.5649  0.6141
  877MOL0     H18348   6.694  10.187   6.655  1.7261 -2.4569  0.5072
  877MOL0     H18349   6.479  10.188   6.743  2.1422 -1.2955 -0.2273
  877MOL0     H18350   6.477  10.270   6.584  5.2372  0.4883 -1.2586
  877MOL0     H18351   6.291  10.090   6.676 -0.1192 -0.1266 -0.0477
  877MOL0     H18352   6.407   9.970   6.619  0.7049  0.1973  1.3020
  877MOL0     H18353   6.227  10.012   6.442  1.6260 -0.0646 -2.8103
  877MOL0     H18354   6.381  10.077   6.394  1.5054 -3.2911  0.4689
  877MOL0     H18355   6.074  10.158   6.288  1.2466  0.3057  0.4914
  877MOL0     H18356   5.834  10.222   6.308 -0.1313 -0.1508  0.7131
  877MOL0     H18357   5.518  10.550   6.255  0.5526 -0.2428 -0.4872
  877MOL0     H18358   5.289  10.589   6.221 -2.6120 -0.8490 -1.4305
  877MOL0     H18359   5.038  10.267   6.293 -0.9866  0.9099 -3.2379
  877MOL0     H18360   4.934  10.350   6.415 -4.0931  2.6461 -0.6395
  877MOL0     H18361   4.922  10.491   6.165 -1.2302  0.8397  0.6257
  877MOL0     H18362   4.862  10.316   6.158  1.7367  0.1861 -1.1862
  877MOL0     H18363   4.713  10.350   6.343  1.1351  0.1632  0.3586
  877MOL0     H18364   4.739  10.521   6.349 -1.9966  0.6239 -0.0735
  877MOL0     H18365   4.634  10.394   6.087  1.8648  1.5520 -1.6389
  877MOL0     H18366   4.664  10.565   6.123  2.3641 -1.2192 -0.8939
  877MOL0     H18367   4.499  10.570   6.297 -1.5685 -1.3375 -0.0117
  877MOL0     H18368   4.485  10.393   6.280 -2.0611  0.3241 -1.2946
  877MOL0     H18369   4.305  10.535   6.172 -0.3074 -2.8942  3.1265
  877MOL0     H18370   4.429  10.596   6.074 -2.8507  1.9496  2.6517
  877MOL0     H18371   4.480  10.373   5.972 -1.3387 -3.0874 -1.7055
  877MOL0     H18372   4.316  10.416   5.936 -0.4629 -1.8562 -1.4492
  877MOL0     H18373   4.315  10.180   5.999 -2.1239  0.9841 -0.8509
  877MOL0     H18374   4.407  10.211   6.143 -0.6669  0.7013  1.6980
  877MOL0     H18375   5.192  10.270   6.492  0.6883 -1.8194 -1.3017
  877MOL0     H18376   5.442  10.222   6.512  1.7489 -0.9155 -1.6529
  877MOL0     H18377   5.904  10.420   6.679 -1.1672 -2.0452  1.5824
  877MOL0     H18378   6.154  10.366   6.653 -1.9420  3.9477  0.6369
  877MOL0     H18379   5.883  10.638   6.272 -0.9772  1.3468 -0.4747
  877MOL0     H18380   5.665  10.728   6.304 -2.3484  2.4797  2.6657
  877MOL0     H18381   5.472  11.025   6.637  1.1582 -2.0509 -2.1020
  877MOL0     H18382   5.293  11.150   6.759  3.8686  3.2051 -3.0057
  877MOL0     H18383   5.138  11.326   6.702  0.8686 -1.3313  0.4343
  877MOL0     H18384   4.979  11.300   6.785 -1.2979  2.1853 -0.9676
  877MOL0     H18385   5.015  11.306   6.478  0.8844  0.9884 -0.8967
  877MOL0     H18386   4.971  11.443   6.576 -2.2693 -0.5012  2.0057
  877MOL0     H18387   4.766  11.330   6.649  0.9740  0.7947 -0.3885
  877MOL0     H18388   4.807  11.181   6.556 -2.6071 -0.9554  0.4655
  877MOL0     H18389   4.756  11.468   6.437 -1.2345  0.1003 -2.7478
  877MOL0     H18390   4.800  11.319   6.351  1.3065 -1.5314  0.5426
  877MOL0     H18391   4.379  11.294   6.490  1.4241 -1.3956  0.0718
  877MOL0     H18392   5.000  10.986   6.517 -0.0250 -2.6095  0.8036
  877MOL0     H18393   5.049  10.801   6.353 -0.4437 -1.2595 -2.5024
  877MOL0     H18394   5.194  10.834   6.249 -2.6962 -0.1328 -1.1894
  877MOL0     H18395   5.203  10.720   6.383 -0.2967  1.4841  3.2685
  878MOL0     O18396   9.640   9.281   7.466  0.5619  0.0674 -0.9287
  878MOL0     C18397   9.547   9.363   7.491 -0.3758 -0.8683  0.1527
  878MOL0     O18398   9.564   9.499   7.503 -0.6196  0.4646 -0.6907
  878MOL0     C18399   9.682   9.557   7.466 -0.5307 -0.5456 -0.3637
  878MOL0     C18400   9.731   9.545   7.340 -0.1481 -0.8539  0.9622
  878MOL0     C18401   9.842   9.614   7.293 -0.0236  0.2270 -0.7056
  878MOL0     C18402   9.926   9.681   7.382  0.6071  0.7548  0.3639
  878MOL0     O18403  10.049   9.716   7.333  0.0431 -0.9428  0.0909
  878MOL0     C18404  10.051   9.858   7.300 -0.1049  0.2889 -0.3223
  878MOL0     C18405  10.186   9.915   7.352  0.0266  0.1215 -0.1989
  878MOL0     C18406  10.317   9.877   7.285  0.5398  0.1049  0.4786
  878MOL0     C18407  10.333   9.936   7.152 -0.5964 -0.1235  0.2442
  878MOL0     C18408  10.443   9.876   7.062 -0.6463  0.5089 -0.2767
  878MOL0     C18409  10.589   9.866   7.111  0.6750 -0.0277  0.7415
  878MOL0     C18410  10.645  10.007   7.162  0.1827  0.2270  1.1309
  878MOL0     C18411  10.662  10.107   7.046  0.7509 -0.5486  0.5066
  878MOL0     N18412  10.729  10.229   7.103 -0.5300  0.7727 -0.2987
  878MOL0     C18413  10.662  10.338   7.164  0.2558  0.3242  0.1080
  878MOL0     C18414  10.749  10.435   7.202 -0.0926  1.1815 -0.1581
  878MOL0     C18415  10.732  10.566   7.267  0.1982 -0.2035  0.1009
  878MOL0     C18416  10.842  10.604   7.367 -0.2057  0.6366 -0.3822
  878MOL0     C18417  10.812  10.738   7.442 -0.1965 -0.5011 -0.3000
  878MOL0     C18418  10.905  10.754   7.557 -0.0082 -0.2087 -0.0685
  878MOL0     O18419  10.896  10.648   7.656  0.3678  0.3236 -0.3934
  878MOL0     C18420  10.773  10.628   7.716 -0.3233 -0.0622 -1.0526
  878MOL0     C18421  10.697  10.724   7.781  0.8612  0.0578  0.2727
  878MOL0     C18422  10.566  10.707   7.829  0.0378  0.2779  0.5842
  878MOL0     C18423  10.513  10.575   7.823  0.2082  0.1572  0.4626
  878MOL0     C18424  10.376  10.551   7.881  0.5375 -0.1327 -0.2232
  878MOL0     O18425  10.332  10.640   7.977  0.0473  0.4827 -0.1602
  878MOL0     C18426  10.199  10.624   8.017 -1.1883  0.1367  0.9154
  878MOL0     C18427  10.105  10.725   7.981  0.4936 -0.1657 -0.4589
  878MOL0     C18428   9.973  10.691   8.006  0.5186  0.7130 -0.7985
  878MOL0     C18429   9.933  10.588   8.087 -0.0922 -0.4318  0.1681
  878MOL0     O18430   9.808  10.564   8.133 -0.2060 -0.2096  0.7904
  878MOL0     C18431   9.702  10.640   8.092 -0.4215  0.2548  0.5749
  878MOL0     C18432   9.569  10.572   8.106  0.4382 -0.2039 -0.5757
  878MOL0     C18433   9.460  10.650   8.023 -0.6699  0.2252 -0.1199
  878MOL0     C18434   9.465  10.797   8.018 -0.7236  0.2216  0.5436
  878MOL0     C18435   9.332  10.869   7.986  0.0570 -0.3439  0.2398
  878MOL0     C18436   9.223  10.843   8.089 -0.6414  0.2942 -0.1806
  878MOL0     C18437   9.107  10.940   8.060 -0.1614 -1.2915 -0.6726
  878MOL0     C18438   9.135  11.085   8.113  0.0878  0.1175 -0.2153
  878MOL0    Cl18439   9.125  11.092   8.283  0.5795 -0.5104 -0.4170
  878MOL0     C18440  10.036  10.504   8.126  0.7160  0.2833 -0.0652
  878MOL0     C18441  10.168  10.522   8.104 -0.0158  0.4118 -0.2312
  878MOL0     O18442  10.315  10.445   7.853 -0.7717 -0.3350 -0.7238
  878MOL0     C18443  10.595  10.464   7.774  0.5164 -0.0430 -0.0551
  878MOL0     C18444  10.722  10.499   7.713 -0.0045  0.0413 -0.7341
  878MOL0     N18445  10.874  10.382   7.158 -0.1478 -0.3404 -0.1701
  878MOL0     N18446  10.860  10.271   7.095  0.1305 -0.3734 -0.1952
  878MOL0     C18447   9.890   9.689   7.514  0.1732  1.0078 -0.4168
  878MOL0     C18448   9.759   9.638   7.561  1.2413  0.7985 -0.9666
  878MOL0     C18449   9.411   9.309   7.515  1.0443 -1.1688  0.0847
  878MOL0     C18450   9.367   9.203   7.438 -0.3766 -0.5773 -1.2859
  878MOL0     C18451   9.247   9.140   7.454  0.3730  0.1580 -0.3206
  878MOL0     C18452   9.145   9.211   7.524  0.1107 -1.0085  0.2964
  878MOL0     O18453   9.028   9.148   7.532  0.3735  0.4826 -0.5186
  878MOL0     C18454   8.924   9.199   7.615 -0.3397  0.2338  0.5411
  878MOL0     C18455   8.831   9.092   7.673  0.6659  0.9440 -0.3502
  878MOL0     C18456   8.686   9.141   7.695  0.6901 -0.3539  0.0613
  878MOL0     C18457   8.577   9.031   7.715 -0.5512 -0.7440 -0.7624
  878MOL0     C18458   8.443   9.091   7.727  0.7004 -0.1602 -0.0254
  878MOL0     C18459   8.328   9.123   7.753 -0.3925  0.3376 -0.0634
  878MOL0     C18460   9.173   9.335   7.585 -0.1125 -0.0740 -0.3925
  878MOL0     C18461   9.307   9.381   7.589 -0.0701  0.3783  0.5842
  878MOL0     C18462   9.335   9.502   7.671 -0.0513  0.7855  0.7291
  878MOL0     H18463   9.682   9.481   7.267  1.7362 -0.3786 -0.8114
  878MOL0     H18464   9.874   9.618   7.189  2.2318  1.3603 -0.0387
  878MOL0     H18465  10.041   9.861   7.191  0.9312 -0.9465 -0.4690
  878MOL0     H18466   9.964   9.913   7.337 -1.3720 -1.9988  0.2596
  878MOL0     H18467  10.178   9.887   7.457 -1.7920 -0.1466 -0.3774
  878MOL0     H18468  10.174  10.020   7.323 -0.1449 -0.7623 -3.8003
  878MOL0     H18469  10.327   9.769   7.269 -0.7910 -0.1029  0.9539
  878MOL0     H18470  10.392   9.901   7.360  1.8026  0.4934 -0.8594
  878MOL0     H18471  10.238   9.925   7.099 -1.2362  1.9033  0.8864
  878MOL0     H18472  10.358  10.043   7.155  1.1074 -0.5030  1.2468
  878MOL0     H18473  10.402   9.776   7.041 -2.9611  1.3245  0.0437
  878MOL0     H18474  10.459   9.930   6.968  1.3614 -0.4557 -0.5499
  878MOL0     H18475  10.593   9.802   7.200 -0.9970  0.6762  1.3622
  878MOL0     H18476  10.643   9.821   7.027  1.6862 -2.0438  2.3586
  878MOL0     H18477  10.742   9.977   7.204 -0.1437 -0.7558  1.1985
  878MOL0     H18478  10.574  10.047   7.235 -2.4647 -1.0127 -0.6165
  878MOL0     H18479  10.726  10.059   6.972  0.1285  0.6908 -0.8875
  878MOL0     H18480  10.563  10.126   7.003  0.9421 -0.2005  0.2219
  878MOL0     H18481  10.555  10.341   7.183  0.5164 -0.1960  1.8324
  878MOL0     H18482  10.723  10.641   7.187  1.6133 -1.8464 -1.7165
  878MOL0     H18483  10.639  10.564   7.324  0.9509  0.6362  1.4156
  878MOL0     H18484  10.857  10.511   7.422  0.7784  0.9692 -0.0589
  878MOL0     H18485  10.929  10.630   7.306 -1.3104  1.2941 -1.7121
  878MOL0     H18486  10.710  10.743   7.479 -1.2866 -2.0334 -2.8240
  878MOL0     H18487  10.835  10.824   7.378 -3.7746  0.6365 -0.2828
  878MOL0     H18488  10.891  10.855   7.598 -0.2532  0.9262 -2.7827
  878MOL0     H18489  11.008  10.746   7.522  0.7039 -1.1716  2.0370
  878MOL0     H18490  10.738  10.824   7.772  1.7155 -0.0537  2.2531
  878MOL0     H18491  10.499  10.784   7.863 -2.6929 -0.7114 -2.0857
  878MOL0     H18492  10.140  10.807   7.920  2.3963 -0.0533  0.7154
  878MOL0     H18493   9.896  10.754   7.963  0.4425  0.6719 -0.7210
  878MOL0     H18494   9.705  10.741   8.133  4.0060  0.4228  0.3254
  878MOL0     H18495   9.720  10.654   7.985  2.6394 -0.0543  0.9360
  878MOL0     H18496   9.574  10.466   8.079  0.9320 -0.8200  1.6768
  878MOL0     H18497   9.560  10.561   8.215  2.0426  2.0435 -0.1512
  878MOL0     H18498   9.459  10.600   7.926  1.2291 -3.3823  1.5154
  878MOL0     H18499   9.359  10.631   8.062 -0.1369  0.7324  1.5886
  878MOL0     H18500   9.553  10.829   7.961 -0.8709 -1.1600 -0.5203
  878MOL0     H18501   9.501  10.832   8.115 -1.1849  0.9446  0.4634
  878MOL0     H18502   9.297  10.853   7.884  0.0030  0.6525  0.0920
  878MOL0     H18503   9.349  10.974   8.010  0.6229 -0.4744  0.4132
  878MOL0     H18504   9.186  10.740   8.082  1.3194 -0.5707  1.1751
  878MOL0     H18505   9.262  10.861   8.190  1.2599  2.4147 -1.1978
  878MOL0     H18506   9.011  10.912   8.103 -0.7512  0.5754 -0.7031
  878MOL0     H18507   9.094  10.956   7.952 -1.4562  1.7865 -0.1513
  878MOL0     H18508   9.235  11.127   8.094 -0.4821  1.0411 -1.2667
  878MOL0     H18509   9.061  11.150   8.066  1.1195 -0.3364 -2.6086
  878MOL0     H18510   9.993  10.429   8.191 -0.3083  3.3241  3.1011
  878MOL0     H18511  10.248  10.460   8.142  1.6271  0.8453 -2.6840
  878MOL0     H18512  10.557  10.363   7.770 -1.1487  0.5889 -1.3699
  878MOL0     H18513  10.793  10.428   7.671  1.6897  2.3424 -1.9882
  878MOL0     H18514   9.958   9.733   7.587  1.1703 -0.4820 -0.4063
  878MOL0     H18515   9.728   9.641   7.665  1.7624  0.4277 -0.7957
  878MOL0     H18516   9.433   9.158   7.365 -0.5451 -2.3505 -0.3995
  878MOL0     H18517   9.217   9.060   7.386 -0.6832  2.3813 -2.6210
  878MOL0     H18518   8.871   9.263   7.543 -1.9895 -1.9104 -0.2676
  878MOL0     H18519   8.966   9.248   7.703 -2.1438 -1.2800  2.3450
  878MOL0     H18520   8.857   9.057   7.773  0.7993  1.3770 -0.2311
  878MOL0     H18521   8.822   9.018   7.593 -0.1947  2.3667 -1.6430
  878MOL0     H18522   8.658   9.198   7.606  0.2814 -0.6080  0.0239
  878MOL0     H18523   8.687   9.215   7.775 -3.1248 -1.1257  1.0183
  878MOL0     H18524   8.569   8.974   7.622  1.5396 -2.2333 -0.1070
  878MOL0     H18525   8.609   8.972   7.801 -2.2911  0.8424  1.0788
  878MOL0     H18526   8.225   9.127   7.781 -0.5359 -1.0441 -0.3472
  878MOL0     H18527   9.101   9.387   7.648 -0.5804 -0.7518 -0.3447
  878MOL0     H18528   9.408   9.473   7.747 -0.4527 -1.6340  0.2896
  878MOL0     H18529   9.377   9.588   7.618 -1.7828 -0.4527 -2.9709
  878MOL0     H18530   9.242   9.531   7.722 -1.5098 -0.1422 -1.2554
  879MOL0     O18531   9.422   2.656   0.516 -0.3777 -0.1591 -0.2867
  879MOL0     C18532   9.343   2.725   0.580  0.0209  0.4624  0.5135
  879MOL0     O18533   9.364   2.781   0.700 -0.6408  0.5870  0.6034
  879MOL0     C18534   9.480   2.748   0.769  0.4744 -0.1612 -0.1005
  879MOL0     C18535   9.476   2.649   0.878  0.2906 -0.2202 -0.2303
  879MOL0     C18536   9.578   2.639   0.967  0.0723  0.2233  0.5554
  879MOL0     C18537   9.684   2.725   0.959  0.3081  0.0326  0.3003
  879MOL0     O18538   9.789   2.714   1.046 -0.3740  0.4032 -0.4815
  879MOL0     C18539   9.875   2.606   0.995 -0.0795 -0.5594  0.7039
  879MOL0     C18540   9.948   2.633   0.865  0.1846 -1.2762  0.2851
  879MOL0     C18541  10.051   2.754   0.872  0.0647 -0.4756  0.5977
  879MOL0     C18542  10.186   2.724   0.949  0.0773 -0.2529  0.1853
  879MOL0     C18543  10.292   2.661   0.859  0.4426 -0.0725  0.5069
  879MOL0     C18544  10.360   2.784   0.783  0.9944  0.2272 -0.3805
  879MOL0     C18545  10.485   2.732   0.717  0.0213  0.8004 -0.1337
  879MOL0     C18546  10.578   2.846   0.672  0.3772 -0.2636  0.4620
  879MOL0     N18547  10.676   2.787   0.573 -0.3833  0.0005 -0.1453
  879MOL0     C18548  10.658   2.685   0.490 -0.6300  0.1683 -0.1294
  879MOL0     C18549  10.783   2.670   0.442  0.1060  0.8176 -0.3919
  879MOL0     C18550  10.824   2.562   0.351  0.0772  0.1731 -0.3919
  879MOL0     C18551  10.963   2.568   0.283  1.0039  1.4506 -1.1722
  879MOL0     C18552  10.961   2.691   0.188 -0.2888 -0.9234  0.5924
  879MOL0     C18553  11.084   2.677   0.099 -0.7136 -0.4018 -0.4053
  879MOL0     O18554  11.198   2.638   0.183 -0.0704 -0.1882  0.0566
  879MOL0     C18555  11.317   2.607   0.122 -0.0975  0.3441  0.1289
  879MOL0     C18556  11.325   2.569  -0.015  0.6330  1.3487 -1.2128
  879MOL0     C18557  11.453   2.532  -0.060  0.1044 -0.0809  0.9815
  879MOL0     C18558  11.573   2.543   0.014  0.6627  0.3861 -0.0942
  879MOL0     C18559  11.698   2.480  -0.026 -0.1758  0.5208 -0.7876
  879MOL0     O18560  11.705   2.411  -0.142  0.4603  0.6055 -0.3442
  879MOL0     C18561  11.823   2.354  -0.174 -0.3186  0.0835 -0.7506
  879MOL0     C18562  11.952   2.421  -0.175 -0.0287  0.4576 -0.0922
  879MOL0     C18563  12.058   2.347  -0.218 -0.0537 -0.6772  1.3824
  879MOL0     C18564  12.041   2.220  -0.278  0.1483  0.1432  0.2151
  879MOL0     O18565  12.153   2.172  -0.344  0.1235 -0.4167  0.0817
  879MOL0     C18566  12.163   2.031  -0.336 -0.3399  0.1444 -0.5053
  879MOL0     C18567  12.264   1.990  -0.231 -0.1477 -0.5347  0.2678
  879MOL0     C18568  12.277   1.844  -0.201  0.0198 -0.6019  0.2118
  879MOL0     C18569  12.411   1.789  -0.144 -0.1815 -0.0469 -0.3053
  879MOL0     C18570  12.438   1.837   0.003 -0.0007  0.2678 -0.4270
  879MOL0     C18571  12.539   1.744   0.082  1.0061 -0.1160 -0.1420
  879MOL0     C18572  12.681   1.761   0.028 -0.6010  0.0181  0.9842
  879MOL0     C18573  12.774   1.655   0.096  0.6231  0.2927 -0.1493
  879MOL0    Cl18574  12.738   1.498   0.016  0.2428  0.2084  0.2896
  879MOL0     C18575  11.912   2.166  -0.291  1.3309 -0.2999  0.2446
  879MOL0     C18576  11.807   2.234  -0.234 -0.0319  0.0240  0.3248
  879MOL0     O18577  11.783   2.473   0.061 -0.6469 -0.3452  0.2176
  879MOL0     C18578  11.552   2.589   0.145  0.3634 -0.2060 -0.2763
  879MOL0     C18579  11.431   2.625   0.190  0.3779 -0.2270 -0.1471
  879MOL0     N18580  10.870   2.765   0.485 -0.4858  0.0189 -0.9707
  879MOL0     N18581  10.803   2.839   0.563 -0.1644  0.1161  0.1411
  879MOL0     C18582   9.691   2.823   0.864  0.7064 -0.3181  0.0652
  879MOL0     C18583   9.589   2.828   0.762 -0.2389 -0.5590 -0.7933
  879MOL0     C18584   9.205   2.738   0.525  0.1590  0.4193 -0.6565
  879MOL0     C18585   9.109   2.812   0.603  0.4255 -0.2589  1.0233
  879MOL0     C18586   8.977   2.829   0.558  1.1279  0.2312 -0.0548
  879MOL0     C18587   8.932   2.770   0.434 -0.7653  0.5917  0.1951
  879MOL0     O18588   8.804   2.786   0.387 -1.2075  0.2074  0.6224
  879MOL0     C18589   8.692   2.793   0.478  0.1460  0.3897  0.8450
  879MOL0     C18590   8.684   2.684   0.582  0.3606 -0.1468  0.0148
  879MOL0     C18591   8.685   2.547   0.513  0.6128 -0.5175 -0.1339
  879MOL0     C18592   8.706   2.426   0.606  0.1391  0.3626 -0.0563
  879MOL0     C18593   8.835   2.426   0.672 -0.1163 -0.1282  0.1173
  879MOL0     C18594   8.930   2.451   0.734 -0.8254 -0.1786 -0.4129
  879MOL0     C18595   9.022   2.689   0.364  0.0108 -0.3420  0.0080
  879MOL0     C18596   9.152   2.657   0.417 -0.2473 -0.3370 -0.4878
  879MOL0     C18597   9.228   2.564   0.333 -0.6763  0.9372  0.0090
  879MOL0     H18598   9.394   2.578   0.890  0.1215 -0.5495 -2.7589
  879MOL0     H18599   9.573   2.560   1.040  0.1079  0.8518  1.2457
  879MOL0     H18600   9.952   2.585   1.070 -0.1868 -0.0748  0.9529
  879MOL0     H18601   9.820   2.511   0.993  0.4817 -0.8744 -0.5326
  879MOL0     H18602   9.865   2.660   0.798 -0.2965  3.5891  2.3957
  879MOL0     H18603   9.990   2.537   0.835  1.7795 -0.2106 -1.0967
  879MOL0     H18604   9.995   2.835   0.918 -0.4518 -0.0254 -0.7640
  879MOL0     H18605  10.070   2.783   0.768  1.4894  0.0586  0.9951
  879MOL0     H18606  10.230   2.814   0.994  1.2149 -0.3323 -0.7181
  879MOL0     H18607  10.168   2.656   1.033  1.8274  1.3930  2.0072
  879MOL0     H18608  10.371   2.610   0.916 -0.5276 -1.1026  0.9683
  879MOL0     H18609  10.253   2.588   0.787 -1.2374 -0.6614  1.9658
  879MOL0     H18610  10.283   2.832   0.723 -1.0568 -0.4428  1.5811
  879MOL0     H18611  10.396   2.868   0.843 -0.4442  1.1922 -0.8220
  879MOL0     H18612  10.454   2.672   0.631  1.0211 -1.3050  0.9155
  879MOL0     H18613  10.545   2.669   0.782  0.5354 -0.3414 -1.6576
  879MOL0     H18614  10.525   2.920   0.611  0.2871 -2.9129 -3.0084
  879MOL0     H18615  10.616   2.897   0.760 -0.3780  1.2063 -0.0400
  879MOL0     H18616  10.563   2.640   0.465  0.4769 -1.7743 -1.0309
  879MOL0     H18617  10.811   2.478   0.420 -2.1100 -0.4668 -1.4701
  879MOL0     H18618  10.737   2.543   0.287 -2.6964  1.2980  2.7390
  879MOL0     H18619  11.035   2.576   0.365  2.4196 -3.1456 -1.7034
  879MOL0     H18620  10.981   2.467   0.244  0.0654  1.6460 -2.1646
  879MOL0     H18621  10.959   2.790   0.234  2.2295  0.6181 -2.2909
  879MOL0     H18622  10.870   2.689   0.128 -1.3355  2.5590  1.8008
  879MOL0     H18623  11.105   2.757   0.028 -3.3659  2.4055  1.6919
  879MOL0     H18624  11.067   2.591   0.033  0.4777  0.5494 -2.0283
  879MOL0     H18625  11.239   2.553  -0.080  1.1562 -3.1211 -1.0581
  879MOL0     H18626  11.472   2.481  -0.154  2.0349  0.2257  1.1639
  879MOL0     H18627  11.959   2.526  -0.146  4.2855 -0.0567  1.5582
  879MOL0     H18628  12.156   2.390  -0.201  0.1689 -0.2233 -0.7633
  879MOL0     H18629  12.066   1.986  -0.313  0.7799 -1.6320  0.9653
  879MOL0     H18630  12.197   2.006  -0.437  0.4422  3.0701 -1.0705
  879MOL0     H18631  12.359   2.018  -0.277 -0.7711 -0.2046 -0.8709
  879MOL0     H18632  12.241   2.034  -0.133  2.5466 -1.4579  1.4205
  879MOL0     H18633  12.190   1.821  -0.140  0.7092 -2.5988  0.5433
  879MOL0     H18634  12.254   1.781  -0.287 -2.2545  0.4001  0.0255
  879MOL0     H18635  12.484   1.833  -0.212 -0.6801 -0.8178 -1.3537
  879MOL0     H18636  12.403   1.680  -0.153 -2.3364 -0.1239  1.6424
  879MOL0     H18637  12.336   1.840   0.042 -0.6305  0.5096 -2.0065
  879MOL0     H18638  12.472   1.941   0.002  1.5567 -0.1996  0.2881
  879MOL0     H18639  12.536   1.767   0.189  2.1812 -0.9269  0.0913
  879MOL0     H18640  12.504   1.641   0.074  1.6301 -0.2928 -0.7132
  879MOL0     H18641  12.727   1.860   0.030 -0.2623 -0.0818 -0.6516
  879MOL0     H18642  12.678   1.756  -0.081 -0.0268  1.6762  0.8559
  879MOL0     H18643  12.879   1.682   0.088  0.1713  1.6480 -2.0292
  879MOL0     H18644  12.746   1.637   0.201 -0.5316 -0.6672 -0.5919
  879MOL0     H18645  11.883   2.072  -0.336 -0.0998  0.1968  0.0856
  879MOL0     H18646  11.710   2.187  -0.238 -1.2499  2.3623  0.9357
  879MOL0     H18647  11.639   2.600   0.210 -0.1861 -1.9099  0.8464
  879MOL0     H18648  11.423   2.651   0.296 -0.2787 -0.0042 -0.2409
  879MOL0     H18649   9.777   2.888   0.856  0.0645  0.5158 -0.1925
  879MOL0     H18650   9.598   2.902   0.682  0.4460  1.3688  0.9823
  879MOL0     H18651   9.127   2.859   0.699 -1.4560  3.1206 -0.1226
  879MOL0     H18652   8.903   2.894   0.605  0.7493 -0.0459 -0.2609
  879MOL0     H18653   8.605   2.776   0.415  0.8655 -0.1205 -0.0250
  879MOL0     H18654   8.674   2.891   0.523 -3.0916  0.6723 -0.8035
  879MOL0     H18655   8.590   2.704   0.634  0.6674 -3.3966  2.1328
  879MOL0     H18656   8.765   2.691   0.655 -0.7496 -0.5602  1.3192
  879MOL0     H18657   8.744   2.548   0.421  3.1208 -1.9602  1.3515
  879MOL0     H18658   8.582   2.540   0.477 -0.1988  2.2484  1.3192
  879MOL0     H18659   8.624   2.431   0.679  0.5371 -1.7545  0.5955
  879MOL0     H18660   8.692   2.339   0.541  1.5013  0.3217 -0.3251
  879MOL0     H18661   9.013   2.497   0.785 -1.2364  0.7111 -0.5184
  879MOL0     H18662   8.984   2.662   0.266 -1.1071  0.7462  0.1226
  879MOL0     H18663   9.158   2.523   0.259  0.5489 -0.6063 -0.3597
  879MOL0     H18664   9.311   2.619   0.288 -0.5994  0.5417 -0.3409
  879MOL0     H18665   9.260   2.479   0.394 -0.9282  1.8915  1.4998
  880MOL0     O18666   1.874   9.421   9.644 -0.5925 -0.1174 -0.4676
  880MOL0     C18667   1.920   9.416   9.535  0.2785 -0.3098 -0.2235
  880MOL0     O18668   2.051   9.408   9.508 -0.4526  0.2384 -0.4972
  880MOL0     C18669   2.158   9.383   9.601  0.3676 -0.9029 -0.2206
  880MOL0     C18670   2.250   9.279   9.568  0.8702 -0.4033  0.0797
  880MOL0     C18671   2.352   9.247   9.656 -0.0038 -0.0182  0.2564
  880MOL0     C18672   2.357   9.294   9.788  0.3725  0.4909  0.0957
  880MOL0     O18673   2.455   9.273   9.880  0.1972  0.4602  0.4950
  880MOL0     C18674   2.563   9.191   9.840 -1.4459  0.6141  0.5073
  880MOL0     C18675   2.680   9.284   9.809 -0.4769 -0.2673 -0.4739
  880MOL0     C18676   2.806   9.195   9.792  0.2121  0.5957 -0.1110
  880MOL0     C18677   2.903   9.285   9.709 -0.7946  1.2602  0.0936
  880MOL0     C18678   3.032   9.209   9.671 -0.3375  0.4818 -0.6216
  880MOL0     C18679   3.122   9.304   9.599 -0.6276  0.3023 -0.1425
  880MOL0     C18680   3.106   9.296   9.447  0.8751 -0.0153  0.0788
  880MOL0     C18681   3.152   9.164   9.386 -0.5125 -1.0575  0.1695
  880MOL0     N18682   3.294   9.140   9.416 -0.0283  0.7639  0.4720
  880MOL0     C18683   3.389   9.234   9.405  0.2560 -0.2912  0.0634
  880MOL0     C18684   3.503   9.160   9.402  0.8230 -0.4061  0.5790
  880MOL0     C18685   3.633   9.217   9.381  0.4982 -0.5954 -0.5259
  880MOL0     C18686   3.737   9.110   9.359 -0.0320  0.1282 -0.0542
  880MOL0     C18687   3.859   9.169   9.286  0.0945  0.5331  0.3810
  880MOL0     C18688   3.959   9.263   9.361 -0.1523 -0.0761 -0.4564
  880MOL0     O18689   4.074   9.302   9.286  0.2439 -0.7546  0.2649
  880MOL0     C18690   4.192   9.335   9.358  0.0317 -0.6385  0.0767
  880MOL0     C18691   4.200   9.397   9.478  0.1117  0.3940 -0.2602
  880MOL0     C18692   4.330   9.430   9.530  0.6305 -0.0077  0.1921
  880MOL0     C18693   4.449   9.397   9.464  0.5296 -0.3912  0.3271
  880MOL0     C18694   4.577   9.402   9.537 -0.3333  0.2298 -0.5748
  880MOL0     O18695   4.693   9.392   9.467 -0.3114 -0.4656  0.1669
  880MOL0     C18696   4.813   9.410   9.524 -0.1930 -0.4989  0.1462
  880MOL0     C18697   4.911   9.316   9.480 -0.4074 -0.7422  0.0589
  880MOL0     C18698   5.049   9.330   9.503 -0.4117 -0.5209 -0.5672
  880MOL0     C18699   5.096   9.444   9.569  0.1501  0.3524  0.2957
  880MOL0     O18700   5.230   9.446   9.584  0.3172  0.4888  0.1225
  880MOL0     C18701   5.284   9.573   9.620 -0.7700  0.3874  0.7706
  880MOL0     C18702   5.437   9.562   9.640  0.4737 -0.1396  0.3424
  880MOL0     C18703   5.482   9.497   9.771  0.1690 -0.1816 -0.1420
  880MOL0     C18704   5.631   9.508   9.805 -0.3501  0.5380  0.2103
  880MOL0     C18705   5.731   9.401   9.751 -0.3600  0.0348  0.2998
  880MOL0     C18706   5.767   9.303   9.855  0.1014 -0.2475 -0.3952
  880MOL0     C18707   5.643   9.211   9.880 -0.1481 -0.7540  0.5283
  880MOL0     C18708   5.679   9.106   9.991  0.0500  0.9320 -1.1251
  880MOL0    Cl18709   5.808   9.010   9.926  0.0864  0.4122  0.0647
  880MOL0     C18710   4.999   9.536   9.607  0.5029 -0.4827 -0.1485
  880MOL0     C18711   4.857   9.515   9.599 -0.5144 -0.4079  0.5197
  880MOL0     O18712   4.576   9.409   9.660 -0.0154 -0.1224  0.1450
  880MOL0     C18713   4.438   9.345   9.330  0.9589  0.4754 -0.0032
  880MOL0     C18714   4.307   9.312   9.283  0.3723  0.4517  0.1562
  880MOL0     N18715   3.472   9.022   9.413  0.2012 -0.6623 -0.2442
  880MOL0     N18716   3.344   9.012   9.416 -0.5806 -0.5571 -0.5908
  880MOL0     C18717   2.252   9.372   9.832 -0.2924 -0.6129  0.1474
  880MOL0     C18718   2.160   9.433   9.737  0.3735 -0.2498 -0.4929
  880MOL0     C18719   1.814   9.410   9.433 -0.2486  0.1908  0.5231
  880MOL0     C18720   1.856   9.353   9.318  0.1085  0.3456 -0.3035
  880MOL0     C18721   1.778   9.346   9.208 -0.4471  0.6086  0.1900
  880MOL0     C18722   1.647   9.397   9.218 -0.3039 -0.0605  1.4658
  880MOL0     O18723   1.564   9.386   9.108  0.1991  0.1976  0.0364
  880MOL0     C18724   1.485   9.503   9.082 -0.6763 -0.5970  0.6952
  880MOL0     C18725   1.448   9.523   8.930 -0.3190 -0.3637  0.1671
  880MOL0     C18726   1.408   9.673   8.896  0.5648 -0.7948  0.7582
  880MOL0     C18727   1.398   9.703   8.735  0.1248  0.5318 -1.2897
  880MOL0     C18728   1.321   9.596   8.665 -0.8326  0.2111 -0.1745
  880MOL0     C18729   1.248   9.509   8.611  0.0005 -0.3261 -0.2957
  880MOL0     C18730   1.605   9.453   9.332 -0.3008  0.8936 -0.1611
  880MOL0     C18731   1.689   9.469   9.438 -0.1074  1.3771 -0.8253
  880MOL0     C18732   1.630   9.540   9.558  0.1523  0.4636 -0.3877
  880MOL0     H18733   2.246   9.240   9.466  0.4114 -2.6680  0.9183
  880MOL0     H18734   2.427   9.180   9.616  0.6385  0.9489 -0.1773
  880MOL0     H18735   2.591   9.127   9.925 -2.5754 -1.8685 -0.8873
  880MOL0     H18736   2.539   9.113   9.768  2.0945  0.1554 -0.3438
  880MOL0     H18737   2.695   9.352   9.893  0.3019  2.4260 -2.6174
  880MOL0     H18738   2.655   9.341   9.719 -2.4539  0.9629  0.7745
  880MOL0     H18739   2.777   9.118   9.720 -1.6606  2.4959 -1.5308
  880MOL0     H18740   2.851   9.160   9.885 -0.2036 -0.8279 -0.4194
  880MOL0     H18741   2.853   9.320   9.618  0.6388  0.8339 -0.8875
  880MOL0     H18742   2.938   9.373   9.764  0.8776  2.6362 -2.9424
  880MOL0     H18743   3.075   9.181   9.768 -0.4151 -4.5122 -1.7342
  880MOL0     H18744   3.012   9.113   9.621  3.2132 -0.6523 -0.1011
  880MOL0     H18745   3.113   9.406   9.639 -2.4491 -0.1412  0.6753
  880MOL0     H18746   3.220   9.274   9.637 -1.7901  0.7527  3.6556
  880MOL0     H18747   3.146   9.385   9.398  1.2283  0.7207  1.6679
  880MOL0     H18748   2.998   9.300   9.430  1.0586 -0.7278 -1.4549
  880MOL0     H18749   3.082   9.089   9.423 -0.9454 -0.6228  0.2366
  880MOL0     H18750   3.144   9.162   9.277  2.4731 -3.4290 -0.1624
  880MOL0     H18751   3.381   9.342   9.408  1.2697 -0.1990 -0.2895
  880MOL0     H18752   3.626   9.282   9.293 -2.5415 -0.8508 -0.5761
  880MOL0     H18753   3.668   9.270   9.470 -0.4054  0.5781 -0.8325
  880MOL0     H18754   3.762   9.053   9.449 -2.3685 -0.7613  0.1031
  880MOL0     H18755   3.693   9.045   9.283 -1.8080 -0.3485  1.3260
  880MOL0     H18756   3.836   9.220   9.192  0.6688  0.8857  0.4232
  880MOL0     H18757   3.924   9.083   9.269  0.6678  0.9411  0.4819
  880MOL0     H18758   3.991   9.216   9.455 -0.8819 -1.6358 -0.9438
  880MOL0     H18759   3.898   9.350   9.387  0.3749  0.0215  0.4836
  880MOL0     H18760   4.106   9.417   9.528  0.6473  0.0815  0.9005
  880MOL0     H18761   4.345   9.478   9.626  3.8879  0.9794 -0.6599
  880MOL0     H18762   4.889   9.230   9.417  1.2234 -2.0828  1.2439
  880MOL0     H18763   5.115   9.251   9.468 -1.5083 -1.1448 -1.3000
  880MOL0     H18764   5.256   9.650   9.547 -1.3839 -0.7243 -0.2022
  880MOL0     H18765   5.250   9.607   9.718 -0.4129  0.5257  0.8489
  880MOL0     H18766   5.478   9.511   9.553 -2.6409 -2.6765  0.1569
  880MOL0     H18767   5.468   9.667   9.646 -3.2221  1.0611  1.5417
  880MOL0     H18768   5.432   9.551   9.852  0.2348 -0.2285 -0.0689
  880MOL0     H18769   5.449   9.393   9.777  0.5394 -0.2540  0.9710
  880MOL0     H18770   5.649   9.509   9.913  2.4944 -2.0005 -0.1091
  880MOL0     H18771   5.662   9.608   9.775  2.6095 -0.6221 -0.9228
  880MOL0     H18772   5.825   9.450   9.726 -1.4524  3.0977  1.7360
  880MOL0     H18773   5.686   9.357   9.662 -1.7018  0.8977  0.5277
  880MOL0     H18774   5.857   9.244   9.836  1.3776  1.2095  0.8923
  880MOL0     H18775   5.791   9.359   9.946 -1.4837  0.6117 -0.4756
  880MOL0     H18776   5.610   9.162   9.788 -0.6052 -1.9038  1.2797
  880MOL0     H18777   5.557   9.267   9.918 -2.5067 -2.0046 -2.5299
  880MOL0     H18778   5.707   9.146  10.089 -0.2335  0.0552 -0.6820
  880MOL0     H18779   5.594   9.039   9.998  0.3135  0.7016  0.1186
  880MOL0     H18780   5.019   9.630   9.657 -0.0192 -0.6425  0.3727
  880MOL0     H18781   4.787   9.592   9.630 -0.3089  0.7435 -1.6338
  880MOL0     H18782   4.532   9.323   9.281  1.2712 -1.4555  1.3343
  880MOL0     H18783   4.299   9.262   9.187 -3.1377  2.0212 -0.5179
  880MOL0     H18784   2.239   9.392   9.938  0.0416 -3.2660  0.7549
  880MOL0     H18785   2.096   9.515   9.767  0.1874 -0.3572 -0.6014
  880MOL0     H18786   1.954   9.309   9.300 -1.0311 -1.8052 -1.6626
  880MOL0     H18787   1.814   9.312   9.111 -0.7368 -2.7806  1.1433
  880MOL0     H18788   1.553   9.580   9.120  0.3303 -1.7687  1.3604
  880MOL0     H18789   1.400   9.517   9.151 -0.3771  2.9520  0.5159
  880MOL0     H18790   1.369   9.454   8.899 -0.4851 -0.0257 -0.1784
  880MOL0     H18791   1.539   9.498   8.873 -0.8564 -1.9332 -0.0418
  880MOL0     H18792   1.484   9.742   8.933 -1.1152  1.0071  0.9880
  880MOL0     H18793   1.312   9.692   8.945  2.1813 -0.4124  4.0618
  880MOL0     H18794   1.353   9.802   8.724  2.5225  2.2718  2.3049
  880MOL0     H18795   1.497   9.697   8.690  0.2657 -1.6566 -0.8089
  880MOL0     H18796   1.188   9.429   8.572  2.9194 -2.6806 -0.4106
  880MOL0     H18797   1.504   9.491   9.339 -0.6490 -0.0010 -0.2376
  880MOL0     H18798   1.700   9.623   9.575 -0.1272  0.4663  0.8561
  880MOL0     H18799   1.532   9.583   9.536 -1.4330 -1.4624  2.3490
  880MOL0     H18800   1.612   9.481   9.649 -0.7210  1.3798  0.0562
  881MOL0     O18801  10.051   8.245   7.661  0.2968  0.2550  0.1293
  881MOL0     C18802  10.015   8.359   7.650 -0.7791  0.5580  0.3797
  881MOL0     O18803   9.896   8.400   7.667  0.6528 -0.6176  0.3086
  881MOL0     C18804   9.788   8.314   7.642 -0.0505  0.7717 -0.7325
  881MOL0     C18805   9.779   8.207   7.553 -0.0284 -0.9028  0.0443
  881MOL0     C18806   9.652   8.141   7.525  0.7239  0.0208 -0.2765
  881MOL0     C18807   9.532   8.189   7.589 -0.1506  0.7320 -0.1633
  881MOL0     O18808   9.400   8.160   7.551  0.4430 -0.0266 -0.4498
  881MOL0     C18809   9.362   8.021   7.573  0.3850 -0.0575  0.0380
  881MOL0     C18810   9.205   7.992   7.582 -1.0164 -0.3319 -0.3980
  881MOL0     C18811   9.133   8.050   7.707 -0.4502  0.6038 -0.1612
  881MOL0     C18812   8.984   8.038   7.727 -0.4083  0.4039  0.2567
  881MOL0     C18813   8.902   8.156   7.670 -0.2771  0.7402 -0.5244
  881MOL0     C18814   8.894   8.145   7.519 -0.2473  0.2133  0.1251
  881MOL0     C18815   8.808   8.256   7.460  0.1288  0.6605 -0.1339
  881MOL0     C18816   8.867   8.396   7.445 -0.4788  0.0672  0.6527
  881MOL0     N18817   8.999   8.389   7.370  1.2649 -0.0758  1.2265
  881MOL0     C18818   9.120   8.368   7.429 -0.3718 -0.4544  0.4642
  881MOL0     C18819   9.199   8.419   7.330  0.1764  0.4050  0.6010
  881MOL0     C18820   9.348   8.424   7.339  0.6677 -0.1289 -0.4442
  881MOL0     C18821   9.392   8.514   7.468 -0.3362  0.1919  0.3312
  881MOL0     C18822   9.398   8.663   7.435  0.3811 -0.9736 -0.1732
  881MOL0     C18823   9.508   8.703   7.343 -0.4045  0.7099 -1.2417
  881MOL0     O18824   9.645   8.689   7.400  0.0647 -0.3644 -0.5768
  881MOL0     C18825   9.732   8.588   7.361  0.3733 -0.0511  0.6167
  881MOL0     C18826   9.707   8.467   7.297 -0.7212  0.2902 -0.9140
  881MOL0     C18827   9.801   8.373   7.255 -1.0010  0.0049 -0.4284
  881MOL0     C18828   9.941   8.405   7.277  0.0450 -0.9812  0.2544
  881MOL0     C18829  10.049   8.311   7.240  0.8773 -0.0687  0.1346
  881MOL0     O18830  10.179   8.345   7.255 -0.2108  0.8448  0.2074
  881MOL0     C18831  10.283   8.268   7.201  0.3723  0.5368 -0.3245
  881MOL0     C18832  10.402   8.292   7.269 -0.8924  0.0545  0.2165
  881MOL0     C18833  10.521   8.213   7.248 -0.3652  0.2865 -0.0330
  881MOL0     C18834  10.528   8.108   7.154  0.7260  0.2767 -0.4027
  881MOL0     O18835  10.646   8.047   7.131  0.5017 -0.6169 -0.1178
  881MOL0     C18836  10.653   7.940   7.036  0.2385 -0.0591 -1.1751
  881MOL0     C18837  10.793   7.878   7.028  0.2328 -0.6108 -0.1933
  881MOL0     C18838  10.860   7.885   6.894 -0.2179  0.0049 -0.9400
  881MOL0     C18839  10.876   7.739   6.836 -0.4775  0.2315  0.0425
  881MOL0     C18840  10.969   7.740   6.710  0.0093 -0.0392 -0.5866
  881MOL0     C18841  10.989   7.599   6.656  0.2964  0.1014 -0.5151
  881MOL0     C18842  11.041   7.603   6.518 -0.2826  0.2257  0.0625
  881MOL0     C18843  11.073   7.465   6.478  0.5025 -0.1486 -0.0744
  881MOL0    Cl18844  11.202   7.394   6.575 -0.3012 -0.3136 -0.1949
  881MOL0     C18845  10.403   8.083   7.089 -1.2394  0.1315 -0.8297
  881MOL0     C18846  10.281   8.155   7.111  0.0449 -0.3328  0.0567
  881MOL0     O18847  10.017   8.199   7.208  0.8085  0.4976 -0.1938
  881MOL0     C18848   9.972   8.531   7.340 -0.4425  0.4850  0.3021
  881MOL0     C18849   9.865   8.608   7.386  0.3150 -0.9004 -0.6107
  881MOL0     N18850   9.133   8.439   7.206  0.0925 -0.1387  0.0906
  881MOL0     N18851   9.008   8.418   7.236  0.2741 -0.2838 -0.5068
  881MOL0     C18852   9.550   8.288   7.683 -0.5729 -0.1565 -0.1022
  881MOL0     C18853   9.671   8.346   7.717 -0.3014  0.4394  0.1244
  881MOL0     C18854  10.125   8.458   7.632 -0.3207  0.1544 -0.0729
  881MOL0     C18855  10.077   8.591   7.649 -0.1851  0.8422  0.5945
  881MOL0     C18856  10.163   8.699   7.644 -0.4678 -0.7955  0.2316
  881MOL0     C18857  10.297   8.683   7.624 -0.1356 -1.0071  0.8184
  881MOL0     O18858  10.397   8.778   7.622  0.0216  0.1686 -0.4183
  881MOL0     C18859  10.366   8.915   7.579 -0.2252 -0.0262 -1.1815
  881MOL0     C18860  10.495   9.006   7.620  0.6789  0.2927 -0.4066
  881MOL0     C18861  10.548   8.982   7.763  0.3642  1.0190 -0.5160
  881MOL0     C18862  10.665   9.075   7.812 -0.2675 -0.0459  0.5278
  881MOL0     C18863  10.639   9.219   7.807 -1.2076 -0.3739  0.3939
  881MOL0     C18864  10.638   9.341   7.786 -0.9308 -0.2071 -0.2961
  881MOL0     C18865  10.353   8.554   7.612  0.3761 -0.1928  0.6998
  881MOL0     C18866  10.265   8.443   7.625 -0.1532  0.1599  0.3421
  881MOL0     C18867  10.333   8.309   7.624  0.4183  0.6898  0.1690
  881MOL0     H18868   9.868   8.184   7.495 -0.3372  0.4922 -1.0486
  881MOL0     H18869   9.654   8.059   7.453 -2.3757  0.9671 -1.5825
  881MOL0     H18870   9.390   7.958   7.488  2.0389  0.0045  0.4942
  881MOL0     H18871   9.426   7.984   7.655  1.2335 -0.8554 -0.9555
  881MOL0     H18872   9.176   7.887   7.579  0.7284 -0.8255 -0.6361
  881MOL0     H18873   9.165   8.045   7.495  1.3198  1.3511 -0.5536
  881MOL0     H18874   9.160   8.156   7.715 -0.2145  0.5659 -0.4442
  881MOL0     H18875   9.175   7.988   7.786 -1.7156 -2.8893 -2.0176
  881MOL0     H18876   8.953   7.945   7.678  2.2926 -1.1029  1.1521
  881MOL0     H18877   8.959   8.044   7.833 -1.5050 -0.3965  0.0641
  881MOL0     H18878   8.803   8.139   7.713  0.0374 -2.7833 -0.8932
  881MOL0     H18879   8.950   8.251   7.696  2.8575 -0.3515 -1.9060
  881MOL0     H18880   8.991   8.158   7.470 -1.1715  1.1987 -1.5683
  881MOL0     H18881   8.854   8.046   7.495  0.4283 -0.1886  0.6230
  881MOL0     H18882   8.713   8.277   7.511  0.4617  1.8918  0.0265
  881MOL0     H18883   8.774   8.225   7.361 -0.3897  0.7129  0.0263
  881MOL0     H18884   8.794   8.454   7.388 -1.3844  0.8901  2.5628
  881MOL0     H18885   8.883   8.451   7.538  0.6908  1.3357 -0.2631
  881MOL0     H18886   9.155   8.327   7.523  1.0139 -1.0729 -0.2866
  881MOL0     H18887   9.383   8.321   7.351 -1.8542 -0.9450  0.5390
  881MOL0     H18888   9.384   8.471   7.247 -0.6926 -0.6126 -1.2580
  881MOL0     H18889   9.321   8.493   7.549  0.4508 -3.2783  0.2582
  881MOL0     H18890   9.495   8.482   7.489  0.2412  1.6245 -0.1654
  881MOL0     H18891   9.392   8.723   7.526 -0.2551 -1.5517  0.1784
  881MOL0     H18892   9.310   8.693   7.376  1.4554 -2.8763 -2.9119
  881MOL0     H18893   9.491   8.809   7.326  0.9826  1.8439  3.1960
  881MOL0     H18894   9.500   8.642   7.252  0.0611  0.4073 -1.0874
  881MOL0     H18895   9.609   8.429   7.269  0.2229 -1.1443 -2.4759
  881MOL0     H18896   9.773   8.286   7.197 -2.3170  0.0732  0.0730
  881MOL0     H18897  10.401   8.371   7.343 -0.1009 -0.1785  0.4849
  881MOL0     H18898  10.609   8.240   7.305 -2.1541  0.4458  2.8589
  881MOL0     H18899  10.590   7.857   7.071 -2.0766  1.1645 -2.2294
  881MOL0     H18900  10.622   7.972   6.936  3.0043  1.6892 -1.5756
  881MOL0     H18901  10.854   7.933   7.100  0.8024 -1.3643 -0.0874
  881MOL0     H18902  10.774   7.773   7.054  1.6968 -1.6935 -3.0084
  881MOL0     H18903  10.804   7.943   6.821  0.9811 -0.2943 -2.1573
  881MOL0     H18904  10.964   7.912   6.913  0.6269 -3.2865 -0.0996
  881MOL0     H18905  10.783   7.682   6.824 -0.8502  1.3688 -3.5021
  881MOL0     H18906  10.932   7.685   6.913  0.9022 -0.4564 -1.3924
  881MOL0     H18907  11.068   7.782   6.729  0.1771  0.0973 -1.7059
  881MOL0     H18908  10.924   7.809   6.638  2.2676  0.4386 -1.6277
  881MOL0     H18909  11.069   7.557   6.717  1.6656 -1.1490 -3.0291
  881MOL0     H18910  10.900   7.536   6.655 -0.2811  0.8969 -0.1725
  881MOL0     H18911  11.129   7.667   6.508  0.2014 -0.4768 -0.2774
  881MOL0     H18912  10.954   7.633   6.458 -1.5146 -2.1050  0.5497
  881MOL0     H18913  10.981   7.411   6.500  0.6325  0.2432  1.5664
  881MOL0     H18914  11.104   7.462   6.373 -0.7300  0.3082 -0.4768
  881MOL0     H18915  10.408   7.999   7.021 -0.7553 -1.3366  0.9423
  881MOL0     H18916  10.194   8.110   7.065  0.5556 -0.0785 -1.2088
  881MOL0     H18917  10.073   8.563   7.363 -0.4166  0.6699 -0.0539
  881MOL0     H18918   9.874   8.694   7.451 -1.5826 -0.3478 -1.0241
  881MOL0     H18919   9.458   8.329   7.722 -0.4483  1.4200 -1.3716
  881MOL0     H18920   9.671   8.424   7.792 -1.5728 -1.5747  2.3342
  881MOL0     H18921   9.972   8.609   7.670 -0.1142  0.8273  0.9681
  881MOL0     H18922  10.110   8.792   7.665 -1.7018 -1.6030  0.8356
  881MOL0     H18923  10.272   8.960   7.612 -1.8977 -3.1103 -1.3629
  881MOL0     H18924  10.362   8.904   7.471 -2.0186 -1.2323 -1.0250
  881MOL0     H18925  10.464   9.110   7.601 -0.0872  0.1116 -0.1879
  881MOL0     H18926  10.581   8.980   7.558 -0.6680  0.3507 -2.3711
  881MOL0     H18927  10.579   8.878   7.772 -0.0457  0.6482 -2.9126
  881MOL0     H18928  10.467   8.994   7.836  1.3199 -0.3109  0.8352
  881MOL0     H18929  10.687   9.042   7.913 -0.4078 -0.0174  0.5682
  881MOL0     H18930  10.751   9.062   7.746  0.2941  0.5126  1.1307
  881MOL0     H18931  10.641   9.446   7.768  0.2477 -0.1390  0.2338
  881MOL0     H18932  10.461   8.545   7.616  0.2304 -4.0142 -0.1938
  881MOL0     H18933  10.326   8.260   7.721  0.3145 -0.2206 -0.2839
  881MOL0     H18934  10.298   8.238   7.548  2.3518  0.3790 -0.4957
  881MOL0     H18935  10.440   8.316   7.599  1.4127 -2.9084  2.5861
  882MOL0     O18936   3.293   2.730   3.063 -0.7575 -0.1588 -0.3165
  882MOL0     C18937   3.342   2.631   2.999  0.4975  1.1448 -0.3099
  882MOL0     O18938   3.283   2.559   2.890 -0.5058  0.1172  0.3446
  882MOL0     C18939   3.175   2.600   2.810 -0.2757  0.5441 -0.3104
  882MOL0     C18940   3.118   2.500   2.733 -0.2475  0.4642  0.8243
  882MOL0     C18941   2.996   2.519   2.655  0.0556 -0.3072 -0.4975
  882MOL0     C18942   2.944   2.646   2.652  0.4543 -0.3218 -0.3412
  882MOL0     O18943   2.824   2.672   2.586 -0.3133  0.0606  0.2443
  882MOL0     C18944   2.849   2.681   2.448  0.0205  0.4977 -0.2190
  882MOL0     C18945   2.769   2.792   2.389  0.0461 -1.0371  0.1850
  882MOL0     C18946   2.812   2.935   2.432  0.2429 -0.1049 -0.6990
  882MOL0     C18947   2.962   2.958   2.441 -0.7434 -0.8390  0.5783
  882MOL0     C18948   3.004   3.099   2.484 -0.0293  0.8312 -0.1561
  882MOL0     C18949   2.936   3.208   2.391  0.1213  0.8356  0.7052
  882MOL0     C18950   2.979   3.351   2.408 -0.3960  0.2975  0.0049
  882MOL0     C18951   2.896   3.454   2.323 -0.4828  0.8321  0.2003
  882MOL0     N18952   2.929   3.602   2.336 -0.8708  0.9214  0.2288
  882MOL0     C18953   2.945   3.664   2.463 -0.1406  1.1510  0.6646
  882MOL0     C18954   2.998   3.790   2.441 -0.3868  0.2010 -0.6586
  882MOL0     C18955   3.013   3.886   2.556 -0.0474  0.5969  0.0896
  882MOL0     C18956   3.157   3.897   2.607 -0.7693  0.3778  0.1515
  882MOL0     C18957   3.217   3.765   2.677  0.1259  0.6624 -0.0797
  882MOL0     C18958   3.364   3.782   2.707 -0.2557 -0.3352  0.1614
  882MOL0     O18959   3.430   3.780   2.580  0.0542  0.3084  0.2912
  882MOL0     C18960   3.572   3.797   2.572 -0.2918  0.6368  0.6742
  882MOL0     C18961   3.636   3.763   2.458 -0.1926 -0.3124 -0.5374
  882MOL0     C18962   3.775   3.776   2.426 -0.5222  0.6244 -0.6312
  882MOL0     C18963   3.849   3.833   2.531 -0.3919 -0.1525 -0.4290
  882MOL0     C18964   4.000   3.851   2.522  0.1049  0.4113 -0.4879
  882MOL0     O18965   4.072   3.861   2.638  0.5781 -0.2433 -0.4354
  882MOL0     C18966   4.189   3.929   2.635  0.0242  0.0054  0.2722
  882MOL0     C18967   4.199   4.059   2.575 -0.1826 -0.3401 -0.6834
  882MOL0     C18968   4.326   4.123   2.565 -0.4190 -0.6863 -0.3092
  882MOL0     C18969   4.445   4.070   2.619  0.6744  0.5044 -0.2633
  882MOL0     O18970   4.566   4.131   2.622 -0.0436  0.3022  0.3049
  882MOL0     C18971   4.584   4.245   2.533 -1.2008  0.7249  0.4607
  882MOL0     C18972   4.713   4.324   2.555 -0.6294 -1.0279 -0.1425
  882MOL0     C18973   4.722   4.457   2.477 -0.0891  0.1367  0.5280
  882MOL0     C18974   4.852   4.531   2.506  0.2604  0.1088  0.1024
  882MOL0     C18975   4.982   4.473   2.457  0.1941 -0.3529  0.2120
  882MOL0     C18976   5.106   4.550   2.507 -0.1483 -0.0868  0.3607
  882MOL0     C18977   5.235   4.527   2.425 -0.2798 -0.3413 -0.5986
  882MOL0     C18978   5.355   4.587   2.494  0.2922 -0.5450  0.2037
  882MOL0    Cl18979   5.358   4.769   2.473  0.4849  0.5333 -0.2213
  882MOL0     C18980   4.424   3.952   2.688 -0.5970  0.2394  0.5880
  882MOL0     C18981   4.304   3.883   2.689 -0.0855  0.5719 -0.3448
  882MOL0     O18982   4.050   3.854   2.407 -0.5434 -0.2182  0.1765
  882MOL0     C18983   3.790   3.863   2.658  0.4911 -1.3463 -0.0393
  882MOL0     C18984   3.647   3.847   2.674 -0.5970  0.6397  0.2215
  882MOL0     N18985   3.002   3.804   2.305  0.2600  0.6605 -0.2884
  882MOL0     N18986   2.965   3.697   2.244 -0.0088 -0.9966  0.9049
  882MOL0     C18987   2.985   2.744   2.744 -0.2599 -0.6852 -0.2066
  882MOL0     C18988   3.106   2.717   2.814  0.4855 -0.6142 -0.0264
  882MOL0     C18989   3.472   2.578   3.062 -1.0469  0.3400  0.0038
  882MOL0     C18990   3.515   2.645   3.182  0.5829  0.2768 -0.2339
  882MOL0     C18991   3.638   2.621   3.237 -0.1489 -0.6466  0.4399
  882MOL0     C18992   3.717   2.510   3.198  0.1298 -0.1322  0.7267
  882MOL0     O18993   3.821   2.460   3.278  0.2131  0.5536  0.0918
  882MOL0     C18994   3.915   2.557   3.334  0.6470 -0.5778 -0.2513
  882MOL0     C18995   3.873   2.589   3.483 -0.4338  1.0094 -0.1575
  882MOL0     C18996   3.990   2.664   3.548  0.1688  0.0594  0.8188
  882MOL0     C18997   3.993   2.672   3.701  1.3862  0.0830  0.4399
  882MOL0     C18998   4.118   2.720   3.744  0.0668  0.2024  0.4351
  882MOL0     C18999   4.216   2.775   3.791  0.0645 -0.3774  0.5541
  882MOL0     C19000   3.679   2.438   3.084 -0.7859  0.0304  0.9195
  882MOL0     C19001   3.561   2.469   3.019 -0.0881 -0.6001 -0.9955
  882MOL0     C19002   3.552   2.382   2.886  0.1352 -0.0377 -0.2799
  882MOL0     H19003   3.170   2.405   2.730  2.0578  1.6649 -0.6858
  882MOL0     H19004   2.939   2.449   2.593 -1.1242  0.2262 -0.0399
  882MOL0     H19005   2.955   2.683   2.421  0.5896 -1.3468  1.5994
  882MOL0     H19006   2.812   2.585   2.410 -1.5338  0.0033  2.3190
  882MOL0     H19007   2.667   2.770   2.419 -1.1199  3.1601 -0.1220
  882MOL0     H19008   2.769   2.786   2.280 -3.5251  1.9116 -0.1802
  882MOL0     H19009   2.780   2.955   2.535  1.3221 -0.7385 -0.2185
  882MOL0     H19010   2.754   3.006   2.374 -2.5237 -1.1275  0.6449
  882MOL0     H19011   3.009   2.892   2.514  0.4807  0.1141  0.6821
  882MOL0     H19012   2.991   2.941   2.337  0.0200  1.6776  0.2975
  882MOL0     H19013   2.983   3.129   2.587  1.2354 -1.1897  0.7783
  882MOL0     H19014   3.113   3.104   2.471  0.0120  1.1604  0.3087
  882MOL0     H19015   2.950   3.163   2.292 -0.9940 -1.5439  1.5618
  882MOL0     H19016   2.829   3.211   2.408 -0.3816 -1.0833 -1.5904
  882MOL0     H19017   3.087   3.358   2.390  0.2334 -1.0259  2.7399
  882MOL0     H19018   2.974   3.365   2.516  2.0924 -1.2190  0.4092
  882MOL0     H19019   2.889   3.440   2.214 -2.4777  3.1332 -0.0397
  882MOL0     H19020   2.795   3.429   2.354  0.5410 -2.7595  1.1418
  882MOL0     H19021   2.919   3.617   2.558 -2.9356 -2.8422 -1.7816
  882MOL0     H19022   2.964   3.980   2.529 -1.3388  0.1095  0.6587
  882MOL0     H19023   2.943   3.857   2.635  0.2612 -2.9949 -0.7574
  882MOL0     H19024   3.216   3.940   2.526 -2.1784 -1.7460 -2.1297
  882MOL0     H19025   3.152   3.976   2.683 -0.2341  1.1283 -0.5705
  882MOL0     H19026   3.214   3.679   2.609  1.1715  1.4242 -1.1332
  882MOL0     H19027   3.168   3.749   2.773  1.0912 -3.1706 -0.1037
  882MOL0     H19028   3.388   3.703   2.779 -1.3197 -0.8243 -0.0125
  882MOL0     H19029   3.383   3.880   2.754 -2.7289  0.7393 -0.9084
  882MOL0     H19030   3.579   3.716   2.378 -2.7182 -2.3960  2.2521
  882MOL0     H19031   3.822   3.756   2.330 -0.6101 -0.2505 -0.4978
  882MOL0     H19032   4.108   4.106   2.540  1.0417  2.0607 -0.8658
  882MOL0     H19033   4.334   4.214   2.507  2.4174  0.7387  2.0559
  882MOL0     H19034   4.573   4.219   2.428 -0.0912 -1.4962  0.8380
  882MOL0     H19035   4.504   4.319   2.548 -1.0493  1.7021 -2.7760
  882MOL0     H19036   4.729   4.342   2.662 -0.1480  1.6611 -0.5927
  882MOL0     H19037   4.797   4.264   2.516 -1.3524 -1.9279 -0.3500
  882MOL0     H19038   4.723   4.438   2.369  1.9948 -0.8315  0.6516
  882MOL0     H19039   4.636   4.517   2.509  2.1020  2.9281  1.6677
  882MOL0     H19040   4.856   4.533   2.615 -1.8930  2.9300  0.2656
  882MOL0     H19041   4.846   4.634   2.468 -0.4608  0.0702  0.0886
  882MOL0     H19042   4.977   4.487   2.349 -3.6924  0.7557  0.3865
  882MOL0     H19043   4.997   4.367   2.481 -0.2155 -0.0331  2.0574
  882MOL0     H19044   5.083   4.657   2.516  1.3688  0.6328 -2.8201
  882MOL0     H19045   5.129   4.512   2.607 -2.8578 -1.6673  0.4605
  882MOL0     H19046   5.222   4.570   2.325 -2.4180 -1.5630 -0.9172
  882MOL0     H19047   5.247   4.418   2.423  1.2013 -0.3214  2.2631
  882MOL0     H19048   5.347   4.566   2.601 -2.8353 -1.1897 -0.0617
  882MOL0     H19049   5.451   4.544   2.464 -0.4655 -1.4241 -1.0338
  882MOL0     H19050   4.501   3.893   2.735 -2.7589 -1.8854  1.6408
  882MOL0     H19051   4.303   3.795   2.752 -0.3616  1.3920  0.8549
  882MOL0     H19052   3.843   3.896   2.746  1.4384 -2.3830 -0.2048
  882MOL0     H19053   3.589   3.881   2.759  2.2745  3.3156  1.3400
  882MOL0     H19054   2.940   2.843   2.749  1.6402  0.2225  0.0085
  882MOL0     H19055   3.135   2.807   2.868 -3.6107 -0.4317  2.3101
  882MOL0     H19056   3.461   2.727   3.228  0.7925  0.1160  0.3098
  882MOL0     H19057   3.668   2.692   3.314  1.2613  2.7034 -2.8972
  882MOL0     H19058   3.910   2.653   3.281 -0.7811 -0.0546  0.7709
  882MOL0     H19059   4.010   2.502   3.330  0.6239 -0.8391  1.8618
  882MOL0     H19060   3.854   2.492   3.531  2.4746  0.1965 -0.4691
  882MOL0     H19061   3.784   2.653   3.492  0.3655  2.2751 -0.9651
  882MOL0     H19062   3.992   2.765   3.505 -0.5037 -0.7294 -1.2008
  882MOL0     H19063   4.081   2.618   3.509  0.8537  1.3829  0.8001
  882MOL0     H19064   3.911   2.738   3.733  1.2824  0.4661 -0.5552
  882MOL0     H19065   3.970   2.573   3.739  0.5080  0.4536  0.9146
  882MOL0     H19066   4.302   2.815   3.842  0.8725 -1.8356  0.3806
  882MOL0     H19067   3.739   2.350   3.062  0.9443  0.8947  1.9443
  882MOL0     H19068   3.652   2.378   2.842  1.4730  1.1758  2.4493
  882MOL0     H19069   3.522   2.279   2.907 -1.9859  0.7043  0.6062
  882MOL0     H19070   3.486   2.432   2.814  2.1687  0.9241 -1.5727
  883MOL0     O19071   8.498   5.663   5.790  0.4727  0.1346 -0.6247
  883MOL0     C19072   8.384   5.653   5.829  1.1799 -0.0761 -0.2410
  883MOL0     O19073   8.294   5.760   5.827  0.2350 -0.0052  0.6351
  883MOL0     C19074   8.348   5.884   5.788  0.4937  0.6512 -0.5396
  883MOL0     C19075   8.342   5.929   5.657  0.2595 -1.2746 -0.6502
  883MOL0     C19076   8.395   6.063   5.633  0.1451  0.9264  0.4491
  883MOL0     C19077   8.446   6.144   5.737 -0.7926  0.3584  1.2031
  883MOL0     O19078   8.488   6.278   5.716  0.5777  0.8466  0.1111
  883MOL0     C19079   8.484   6.371   5.829 -0.0024 -0.8154 -0.4064
  883MOL0     C19080   8.511   6.508   5.785 -0.1428 -1.4316  0.0054
  883MOL0     C19081   8.575   6.601   5.890  0.6006  0.1803  0.3895
  883MOL0     C19082   8.475   6.619   6.017 -0.1272 -0.5656 -0.4804
  883MOL0     C19083   8.533   6.720   6.118  0.0697 -0.5610 -0.6738
  883MOL0     C19084   8.664   6.661   6.171 -0.2302  0.5508 -0.1850
  883MOL0     C19085   8.693   6.735   6.303 -0.3082  0.3352 -1.4572
  883MOL0     C19086   8.828   6.706   6.374  0.5941  0.8661  0.5311
  883MOL0     N19087   8.861   6.810   6.461 -1.3132 -0.7771 -0.4437
  883MOL0     C19088   8.834   6.836   6.593 -0.0013  0.2849  0.1121
  883MOL0     C19089   8.920   6.935   6.636  0.2366  0.7549 -0.4688
  883MOL0     C19090   8.907   6.998   6.776  0.4609  0.3964 -0.4782
  883MOL0     C19091   9.017   6.949   6.871  0.1734 -0.3793 -0.7105
  883MOL0     C19092   8.996   7.009   7.018 -0.1914 -0.2288  0.6475
  883MOL0     C19093   9.131   7.004   7.085  0.1288  0.2544  0.4436
  883MOL0     O19094   9.211   7.120   7.054  0.9965  0.3235  0.4404
  883MOL0     C19095   9.346   7.109   7.047 -1.1650 -0.3721  0.7194
  883MOL0     C19096   9.426   7.003   7.099 -0.0565 -0.3908  0.1816
  883MOL0     C19097   9.569   7.008   7.094  0.1785 -0.9993 -0.1269
  883MOL0     C19098   9.632   7.125   7.044  0.1451 -0.2776 -0.1319
  883MOL0     C19099   9.777   7.129   7.045  0.4915 -1.3967 -0.2991
  883MOL0     O19100   9.842   7.219   6.962 -0.7344  1.0455 -0.3832
  883MOL0     C19101   9.975   7.201   6.924 -0.4973  0.1905 -1.0091
  883MOL0     C19102  10.031   7.076   6.911  0.5429 -0.1559 -1.2229
  883MOL0     C19103  10.170   7.058   6.868 -0.2560 -0.0448  0.8291
  883MOL0     C19104  10.253   7.171   6.847 -0.2474  0.6219  0.1721
  883MOL0     O19105  10.382   7.155   6.798  0.6024  0.9687  0.1271
  883MOL0     C19106  10.432   7.026   6.757 -0.3156 -0.1626  0.7023
  883MOL0     C19107  10.558   7.057   6.675 -0.0213  0.5081  0.7933
  883MOL0     C19108  10.673   7.091   6.769 -0.4417 -0.9123  0.7933
  883MOL0     C19109  10.796   7.129   6.687 -0.1924 -0.0950 -0.1247
  883MOL0     C19110  10.871   7.013   6.620 -0.5644 -0.4925  0.1132
  883MOL0     C19111  11.006   7.082   6.598  0.0414  0.3029  0.1295
  883MOL0     C19112  11.110   6.971   6.547  0.2221  0.1804 -0.2715
  883MOL0     C19113  11.244   7.044   6.539 -0.5103  0.3500 -0.2037
  883MOL0    Cl19114  11.377   6.942   6.528 -0.1665 -0.4340  0.1100
  883MOL0     C19115  10.197   7.295   6.857 -0.3368 -0.8435  0.8665
  883MOL0     C19116  10.064   7.315   6.893  0.4621  0.2065  0.9726
  883MOL0     O19117   9.827   7.040   7.117  0.2783  0.2869 -0.3725
  883MOL0     C19118   9.560   7.220   6.979  0.2950  0.0801  0.0478
  883MOL0     C19119   9.422   7.215   6.981  0.4915  0.3929  0.0007
  883MOL0     N19120   8.997   6.969   6.524  0.4462 -0.1493 -0.8507
  883MOL0     N19121   8.953   6.905   6.424 -0.2505 -0.2366  0.2281
  883MOL0     C19122   8.437   6.094   5.867  0.0791  0.1575 -0.1151
  883MOL0     C19123   8.387   5.967   5.895  0.1139 -0.3781  0.1957
  883MOL0     C19124   8.336   5.520   5.872  0.6992  0.3232 -0.0468
  883MOL0     C19125   8.366   5.410   5.792 -0.4139 -0.5488  0.8644
  883MOL0     C19126   8.326   5.283   5.817 -0.8189  0.0348  0.5398
  883MOL0     C19127   8.255   5.251   5.929  1.0920  0.7059 -0.4466
  883MOL0     O19128   8.196   5.123   5.948 -0.2841  0.7288 -0.4766
  883MOL0     C19129   8.218   5.014   5.852 -0.2779 -0.0201  0.2294
  883MOL0     C19130   8.353   4.942   5.869  0.4095  0.5170  0.0001
  883MOL0     C19131   8.397   4.889   6.009  0.6018  0.2991 -0.6933
  883MOL0     C19132   8.540   4.838   6.003  0.0907  0.2047 -0.2403
  883MOL0     C19133   8.635   4.941   5.957 -0.5797 -0.0262  0.5848
  883MOL0     C19134   8.694   5.037   5.907 -0.1686 -0.1467 -0.1651
  883MOL0     C19135   8.216   5.360   6.012  0.1292 -0.3522 -0.4690
  883MOL0     C19136   8.257   5.493   5.985  0.0405  1.1830 -0.4137
  883MOL0     C19137   8.197   5.607   6.069  0.8240  0.2974 -0.1892
  883MOL0     H19138   8.315   5.870   5.570  0.5329  0.5005 -2.0080
  883MOL0     H19139   8.394   6.102   5.532 -0.3990  0.8491  0.4178
  883MOL0     H19140   8.383   6.348   5.864  0.6540 -1.3925  1.1986
  883MOL0     H19141   8.568   6.347   5.896 -1.2335 -2.3901  0.6350
  883MOL0     H19142   8.415   6.549   5.753  1.0739  1.1671 -0.6427
  883MOL0     H19143   8.583   6.511   5.702  0.6115 -0.4287  0.6631
  883MOL0     H19144   8.587   6.702   5.849  1.4494 -0.2748 -0.5253
  883MOL0     H19145   8.674   6.566   5.921  1.2923  0.4127 -1.4673
  883MOL0     H19146   8.380   6.650   5.971 -0.1091 -1.0402 -0.8445
  883MOL0     H19147   8.458   6.525   6.070 -1.1888 -0.8532 -1.2918
  883MOL0     H19148   8.543   6.821   6.078 -0.2371 -0.5319 -0.6834
  883MOL0     H19149   8.466   6.730   6.204  0.1640 -0.7314 -0.5795
  883MOL0     H19150   8.665   6.552   6.186  0.5471  0.5115 -0.5049
  883MOL0     H19151   8.748   6.687   6.107 -0.6085  4.3538  0.6650
  883MOL0     H19152   8.619   6.705   6.378  0.0837 -0.1266 -1.2571
  883MOL0     H19153   8.698   6.838   6.267  3.2463  0.6739 -0.3646
  883MOL0     H19154   8.815   6.612   6.428  0.1822  0.1897 -0.7250
  883MOL0     H19155   8.902   6.696   6.294 -1.9271 -1.2374 -1.7134
  883MOL0     H19156   8.769   6.782   6.661 -1.4774  1.1912 -0.5211
  883MOL0     H19157   8.910   7.106   6.757  1.3443 -0.2583 -5.4546
  883MOL0     H19158   8.803   6.981   6.803  0.8076 -0.8510  0.1355
  883MOL0     H19159   9.015   6.840   6.876  0.2712 -0.3560 -0.1124
  883MOL0     H19160   9.115   6.989   6.844  1.5122 -1.9522  1.5470
  883MOL0     H19161   8.917   6.948   7.062 -0.7582  0.5477  0.7179
  883MOL0     H19162   8.973   7.115   7.009 -1.3245 -0.5360 -0.2868
  883MOL0     H19163   9.189   6.915   7.061 -3.9242 -2.4947 -0.2179
  883MOL0     H19164   9.103   6.994   7.190 -2.8040 -0.4082 -0.3119
  883MOL0     H19165   9.402   6.910   7.149 -0.4083 -0.8665 -0.8312
  883MOL0     H19166   9.624   6.938   7.155  0.0094 -1.2596 -0.2677
  883MOL0     H19167   9.970   6.987   6.917  1.0312 -0.4600 -0.6651
  883MOL0     H19168  10.211   6.960   6.847 -1.0039  0.0974 -1.5883
  883MOL0     H19169  10.449   6.960   6.843 -1.6002  0.6656  1.6357
  883MOL0     H19170  10.364   6.971   6.692  2.1168 -1.6880 -0.6572
  883MOL0     H19171  10.586   6.973   6.610  3.8158  0.9443  1.6199
  883MOL0     H19172  10.553   7.146   6.612  2.1307  1.1246  1.4081
  883MOL0     H19173  10.634   7.181   6.817 -0.6694  1.0742 -2.7785
  883MOL0     H19174  10.704   7.018   6.844  2.5716 -2.7319 -1.9724
  883MOL0     H19175  10.858   7.192   6.751  1.7025 -2.5514  0.6390
  883MOL0     H19176  10.758   7.198   6.611 -1.4126 -0.7866 -0.1727
  883MOL0     H19177  10.835   6.975   6.524 -1.2165 -2.5255  1.1065
  883MOL0     H19178  10.891   6.936   6.695  2.6380 -0.8938 -1.0110
  883MOL0     H19179  11.006   7.159   6.519  1.0641 -0.7387 -0.9214
  883MOL0     H19180  11.048   7.124   6.689  0.0518  0.7361 -0.0714
  883MOL0     H19181  11.080   6.923   6.454  0.9661 -0.6362 -0.0941
  883MOL0     H19182  11.113   6.894   6.624  1.8219  0.5504  0.0609
  883MOL0     H19183  11.244   7.110   6.452 -0.7311 -0.2048 -0.6279
  883MOL0     H19184  11.254   7.107   6.628  3.6362  1.8348 -1.4865
  883MOL0     H19185  10.236   7.390   6.821  0.2940 -0.1453  3.2472
  883MOL0     H19186  10.025   7.416   6.887 -0.7215 -0.3078 -0.6779
  883MOL0     H19187   9.602   7.308   6.931 -1.2302  1.7790  1.6663
  883MOL0     H19188   9.363   7.285   6.923 -0.5377 -1.5132 -1.3763
  883MOL0     H19189   8.465   6.159   5.950  3.1481  1.1629 -1.7838
  883MOL0     H19190   8.385   5.940   6.000  0.5035 -0.9411  0.0683
  883MOL0     H19191   8.420   5.417   5.698 -1.4037 -0.6520  0.2762
  883MOL0     H19192   8.364   5.213   5.743  1.8821  0.1667  1.6836
  883MOL0     H19193   8.201   5.047   5.749 -0.1832  2.5806  0.9661
  883MOL0     H19194   8.150   4.935   5.884  0.7182 -0.4283  1.4228
  883MOL0     H19195   8.434   5.007   5.834  1.2827 -0.6607 -0.2418
  883MOL0     H19196   8.343   4.847   5.815 -1.3665 -0.3424  1.6990
  883MOL0     H19197   8.328   4.819   6.056  1.5874 -0.3980 -0.2356
  883MOL0     H19198   8.399   4.976   6.076  0.5400  1.8804 -2.6425
  883MOL0     H19199   8.585   4.800   6.095  2.7455  1.3307 -0.9493
  883MOL0     H19200   8.533   4.756   5.932  2.0862 -1.2722  1.1448
  883MOL0     H19201   8.746   5.121   5.866 -0.2948  0.0700  0.1143
  883MOL0     H19202   8.146   5.332   6.091  0.6993 -2.4833 -0.6617
  883MOL0     H19203   8.097   5.638   6.039 -0.6595 -3.1785  0.6632
  883MOL0     H19204   8.191   5.577   6.174  1.3726 -0.1572 -0.2801
  883MOL0     H19205   8.256   5.698   6.077  1.8657 -0.4606  1.3686
  884MOL0     O19206   3.155   7.918   7.509  0.5930  0.0252 -0.5940
  884MOL0     C19207   3.269   7.905   7.543 -0.2313  0.4480 -1.2164
  884MOL0     O19208   3.307   7.860   7.666  0.1734  0.6429 -0.5718
  884MOL0     C19209   3.193   7.816   7.734 -0.7416 -0.9215 -0.4846
  884MOL0     C19210   3.115   7.906   7.812  0.4884  0.0073  0.7003
  884MOL0     C19211   3.004   7.861   7.889 -0.0204  0.3048  0.2720
  884MOL0     C19212   2.990   7.717   7.885 -0.2865 -0.2688  0.6061
  884MOL0     O19213   2.899   7.666   7.970  0.2663  0.4159 -0.3842
  884MOL0     C19214   2.934   7.552   8.046  0.7351  0.5970  0.4605
  884MOL0     C19215   2.858   7.544   8.171 -0.2945  0.6926 -0.6449
  884MOL0     C19216   2.913   7.643   8.274  0.0967 -0.0027 -0.2877
  884MOL0     C19217   2.861   7.618   8.412  0.5237 -0.5208  0.1494
  884MOL0     C19218   2.891   7.724   8.511  0.4689  1.1348  0.1404
  884MOL0     C19219   3.040   7.753   8.542 -0.5134  0.4011 -0.4193
  884MOL0     C19220   3.060   7.852   8.670  0.6886  0.2221 -0.0969
  884MOL0     C19221   3.207   7.904   8.691 -0.6102 -0.1306  0.1025
  884MOL0     N19222   3.260   7.923   8.835 -0.3449  0.3678  0.7884
  884MOL0     C19223   3.267   7.816   8.915  0.0539 -0.2981  0.6109
  884MOL0     C19224   3.318   7.858   9.023 -0.4068 -0.7149 -1.0968
  884MOL0     C19225   3.356   7.783   9.138 -0.2398  0.4226 -0.5352
  884MOL0     C19226   3.466   7.848   9.224 -0.3140  0.4020 -0.1076
  884MOL0     C19227   3.480   7.771   9.358 -0.1197 -0.0150 -0.2257
  884MOL0     C19228   3.612   7.810   9.420  0.1661 -0.3936 -0.0540
  884MOL0     O19229   3.580   7.893   9.528  0.5413 -0.1019 -0.5168
  884MOL0     C19230   3.688   7.943   9.596 -0.0774 -0.2010 -0.2120
  884MOL0     C19231   3.775   7.863   9.674  0.6412 -0.2588 -0.3468
  884MOL0     C19232   3.883   7.914   9.736  0.1886  0.3020  0.2571
  884MOL0     C19233   3.899   8.049   9.739  0.2175  0.1915 -0.4737
  884MOL0     C19234   4.027   8.099   9.794 -0.0994 -0.8504  0.3552
  884MOL0     O19235   4.050   8.237   9.773 -0.4330 -0.1924  0.0128
  884MOL0     C19236   4.181   8.289   9.788  0.3052  0.1617  0.0440
  884MOL0     C19237   4.188   8.426   9.776  0.4048 -0.5103 -0.1833
  884MOL0     C19238   4.307   8.495   9.794  0.0263 -0.4610  0.8068
  884MOL0     C19239   4.421   8.434   9.838  0.2391 -0.5056  0.2281
  884MOL0     O19240   4.527   8.514   9.874 -0.1100  0.1521  0.0842
  884MOL0     C19241   4.640   8.449   9.940  0.4014 -0.0318  0.4806
  884MOL0     C19242   4.763   8.544   9.956  0.7950 -0.2887  0.3040
  884MOL0     C19243   4.827   8.583   9.824 -0.0173 -0.1637  0.3764
  884MOL0     C19244   4.966   8.627   9.826 -1.1182  0.0920  0.5586
  884MOL0     C19245   4.978   8.769   9.886  0.4289 -0.5412  0.1666
  884MOL0     C19246   4.911   8.876   9.801 -0.0153 -0.2063 -0.6629
  884MOL0     C19247   4.924   9.013   9.861 -0.0172  0.0969 -0.1939
  884MOL0     C19248   4.819   9.110   9.816 -0.3797  0.3717 -1.5431
  884MOL0    Cl19249   4.654   9.072   9.877 -0.1867 -0.0583 -0.3672
  884MOL0     C19250   4.412   8.297   9.841 -0.4054  0.1933 -0.5029
  884MOL0     C19251   4.299   8.217   9.819  0.0438 -0.5889 -0.3986
  884MOL0     O19252   4.092   8.028   9.862 -0.1143 -0.7879 -0.7318
  884MOL0     C19253   3.816   8.136   9.670  0.1592 -0.4343 -0.8481
  884MOL0     C19254   3.703   8.086   9.604  0.1106  0.5803 -0.9044
  884MOL0     N19255   3.321   7.999   9.019 -0.2020  0.0609 -0.2802
  884MOL0     N19256   3.290   8.037   8.895  0.3354 -0.4316 -0.0121
  884MOL0     C19257   3.081   7.630   7.812 -0.0292 -0.4328 -0.0467
  884MOL0     C19258   3.184   7.679   7.743 -0.4653 -0.3113  0.5965
  884MOL0     C19259   3.387   7.952   7.466  0.0227  0.4667  0.5171
  884MOL0     C19260   3.523   7.924   7.510 -0.3744 -0.5353 -0.6787
  884MOL0     C19261   3.632   7.975   7.451  0.1573 -0.8025 -0.8730
  884MOL0     C19262   3.619   8.040   7.325  0.8054 -0.1532 -0.2654
  884MOL0     O19263   3.731   8.076   7.248  0.0386  0.6825 -0.7267
  884MOL0     C19264   3.859   8.026   7.287 -0.7107 -0.1475 -0.2374
  884MOL0     C19265   3.943   8.146   7.334  0.3156 -0.2855  0.8200
  884MOL0     C19266   3.883   8.238   7.441  0.3034 -0.6271  0.0328
  884MOL0     C19267   3.992   8.303   7.534  0.2797 -1.2357 -1.0494
  884MOL0     C19268   3.925   8.415   7.600 -0.4405  0.6786 -0.5596
  884MOL0     C19269   3.870   8.502   7.666 -0.6892  0.3242 -0.6902
  884MOL0     C19270   3.490   8.069   7.271  0.1300  0.2205 -0.0473
  884MOL0     C19271   3.372   8.025   7.339  0.3609  0.0343 -0.3317
  884MOL0     C19272   3.244   8.040   7.271  0.4550  0.5795  0.3601
  884MOL0     H19273   3.144   8.010   7.805 -1.5052  0.5563 -0.2751
  884MOL0     H19274   2.931   7.916   7.946 -0.1634  0.6530 -0.2366
  884MOL0     H19275   2.911   7.466   7.983 -1.3967  1.3923  0.0876
  884MOL0     H19276   3.039   7.561   8.077  1.0572  2.9227 -1.0696
  884MOL0     H19277   2.882   7.447   8.215  1.9434  2.0593  1.3884
  884MOL0     H19278   2.749   7.544   8.160 -0.6136  1.6085  1.7959
  884MOL0     H19279   2.867   7.739   8.247 -0.7390  0.1291  1.5047
  884MOL0     H19280   3.022   7.648   8.278  0.2231 -2.6026  1.5803
  884MOL0     H19281   2.753   7.607   8.418  0.6877 -1.4195  2.8572
  884MOL0     H19282   2.901   7.524   8.451 -0.2936  0.1448  2.8281
  884MOL0     H19283   2.844   7.821   8.495 -0.0172  0.9752  0.5500
  884MOL0     H19284   2.848   7.689   8.606  0.5094  1.8182  0.4176
  884MOL0     H19285   3.099   7.662   8.550 -0.8540  0.2800  0.9801
  884MOL0     H19286   3.074   7.807   8.453 -1.9689  0.7500 -0.7943
  884MOL0     H19287   3.020   7.815   8.765 -1.1100  1.1824 -0.4477
  884MOL0     H19288   2.999   7.942   8.660 -1.5380 -1.2537 -0.2380
  884MOL0     H19289   3.281   7.844   8.638  0.7094 -0.1192  1.8352
  884MOL0     H19290   3.217   8.002   8.644  0.9605  0.7270  2.0722
  884MOL0     H19291   3.248   7.717   8.875  2.3543 -0.9427  0.9246
  884MOL0     H19292   3.277   7.758   9.209 -0.9212  1.0136 -1.0739
  884MOL0     H19293   3.392   7.684   9.106 -1.3823 -1.0255  2.2700
  884MOL0     H19294   3.564   7.846   9.174 -0.2332  1.0764  0.0152
  884MOL0     H19295   3.446   7.952   9.249  0.5722  1.3750 -3.0550
  884MOL0     H19296   3.479   7.662   9.345  3.4066  0.0346 -2.1314
  884MOL0     H19297   3.404   7.789   9.435  2.8228 -0.2406  2.9738
  884MOL0     H19298   3.678   7.867   9.353  0.4756  1.0494  1.4150
  884MOL0     H19299   3.655   7.718   9.462 -3.3215 -3.1931 -2.0569
  884MOL0     H19300   3.765   7.755   9.674  0.9384 -0.2886 -0.7839
  884MOL0     H19301   3.955   7.847   9.781 -1.6385 -1.0300  1.3471
  884MOL0     H19302   4.099   8.479   9.743 -2.0915 -3.5218  1.1933
  884MOL0     H19303   4.310   8.603   9.781 -1.9939 -0.5977 -1.5510
  884MOL0     H19304   4.600   8.429  10.040 -2.7870  1.1101 -0.4588
  884MOL0     H19305   4.679   8.368   9.877 -1.6208  0.3765 -1.4155
  884MOL0     H19306   4.735   8.621  10.028 -0.6740  0.1697 -0.7007
  884MOL0     H19307   4.840   8.490  10.012  0.2008 -3.0211 -1.3443
  884MOL0     H19308   4.835   8.487   9.772 -4.2531 -0.1295 -0.7062
  884MOL0     H19309   4.783   8.649   9.749 -0.2353 -1.7750 -0.9753
  884MOL0     H19310   5.008   8.628   9.725 -1.7398  1.6186  0.2825
  884MOL0     H19311   5.014   8.550   9.887 -1.2747  0.5365  1.2515
  884MOL0     H19312   5.087   8.782   9.879  0.5031 -1.6738 -1.6890
  884MOL0     H19313   4.947   8.768   9.991 -2.0655  1.2519 -0.4847
  884MOL0     H19314   4.952   8.880   9.700  1.3904  5.3142 -0.1600
  884MOL0     H19315   4.805   8.846   9.802 -1.1276  3.2431  0.0705
  884MOL0     H19316   5.024   9.045   9.833 -0.8965  2.4455 -0.9028
  884MOL0     H19317   4.929   9.013   9.970  4.3052  1.2256 -0.2415
  884MOL0     H19318   4.847   9.203   9.866  1.1659 -1.0889  0.5117
  884MOL0     H19319   4.821   9.122   9.707  0.1411  4.6782 -1.2513
  884MOL0     H19320   4.496   8.234   9.868 -0.3552  1.0349  1.5115
  884MOL0     H19321   4.308   8.110   9.840  1.5826 -0.0154  2.3380
  884MOL0     H19322   3.833   8.243   9.667  0.1091 -0.3953  0.1468
  884MOL0     H19323   3.639   8.153   9.549 -0.2495 -0.7600 -2.2026
  884MOL0     H19324   3.061   7.523   7.817 -3.2744  0.1016  0.9938
  884MOL0     H19325   3.256   7.611   7.697 -3.1156 -2.1836 -1.1158
  884MOL0     H19326   3.545   7.885   7.609 -2.2148  1.2226  0.5180
  884MOL0     H19327   3.727   7.959   7.501  0.2822 -0.2910 -0.9381
  884MOL0     H19328   3.903   7.972   7.202 -0.0308 -0.2439  0.1702
  884MOL0     H19329   3.855   7.946   7.361 -0.4181 -0.3238 -0.4090
  884MOL0     H19330   3.970   8.199   7.242  2.8922 -1.3122  0.8832
  884MOL0     H19331   4.034   8.098   7.370  0.3489 -0.1847  0.8686
  884MOL0     H19332   3.802   8.196   7.501  0.5873 -2.4929 -0.8199
  884MOL0     H19333   3.829   8.315   7.385  0.1662 -1.9383 -1.7254
  884MOL0     H19334   4.029   8.233   7.609  1.0753  0.7020  0.4510
  884MOL0     H19335   4.071   8.348   7.473 -1.9775 -1.5479 -4.4893
  884MOL0     H19336   3.831   8.580   7.728 -2.0831 -1.6936  1.1225
  884MOL0     H19337   3.502   8.114   7.173 -1.2080 -1.8104 -1.2356
  884MOL0     H19338   3.253   8.066   7.165 -0.5620  0.3886  0.2093
  884MOL0     H19339   3.185   7.948   7.266 -2.2234  2.1877  0.4396
  884MOL0     H19340   3.181   8.115   7.319 -2.2065  0.8627 -3.1242
  885MOL0     O19341   3.082  10.555   5.796  0.2067  0.2382  0.1091
  885MOL0     C19342   3.058  10.676   5.800  0.5799 -0.1259 -0.5214
  885MOL0     O19343   3.140  10.784   5.779  0.6545 -0.6690  0.0008
  885MOL0     C19344   3.271  10.783   5.795 -0.4729 -0.7776 -0.2416
  885MOL0     C19345   3.342  10.898   5.757  1.0070 -0.3806  0.2016
  885MOL0     C19346   3.477  10.914   5.785 -0.8915  0.6686  0.6750
  885MOL0     C19347   3.544  10.800   5.835 -0.7981 -0.8335  0.5685
  885MOL0     O19348   3.684  10.800   5.855 -0.2648 -0.2284  0.5648
  885MOL0     C19349   3.766  10.817   5.741  0.1687 -0.2536 -0.2058
  885MOL0     C19350   3.883  10.909   5.775 -0.2281 -0.0870  0.3079
  885MOL0     C19351   3.984  10.845   5.868 -0.9958 -0.3505  0.0770
  885MOL0     C19352   4.089  10.937   5.932 -0.1480 -0.6119  0.0131
  885MOL0     C19353   4.197  10.867   6.023  0.8497  0.0648 -0.2615
  885MOL0     C19354   4.307  10.972   6.079  0.1557 -0.0493 -0.4899
  885MOL0     C19355   4.421  10.903   6.148 -0.1668  0.1085  0.7539
  885MOL0     C19356   4.517  11.002   6.221 -0.5399 -0.0695 -1.6478
  885MOL0     N19357   4.654  10.952   6.206 -0.2981 -0.2636 -0.9286
  885MOL0     C19358   4.746  11.013   6.127 -0.1806 -0.0785  0.4938
  885MOL0     C19359   4.861  10.943   6.128  0.2408 -0.1504 -0.2263
  885MOL0     C19360   4.989  10.967   6.052 -0.6257 -0.4492  0.3804
  885MOL0     C19361   5.053  11.108   6.068 -0.7709 -0.7761 -0.2285
  885MOL0     C19362   5.044  11.174   6.210  0.4823 -0.3315  1.2925
  885MOL0     C19363   5.119  11.302   6.205  0.6648 -1.0422 -0.0667
  885MOL0     O19364   5.258  11.292   6.180 -0.2403  0.8465  0.2066
  885MOL0     C19365   5.342  11.280   6.292 -0.8751  0.2149  0.0483
  885MOL0     C19366   5.334  11.334   6.416 -0.1370 -0.6957  0.1081
  885MOL0     C19367   5.435  11.338   6.507 -0.7145 -0.7199 -0.2200
  885MOL0     C19368   5.554  11.270   6.483 -0.3564 -0.5426  0.0986
  885MOL0     C19369   5.665  11.280   6.576  0.4547  0.9951 -0.5120
  885MOL0     O19370   5.636  11.349   6.691  0.2041  0.0701  0.3427
  885MOL0     C19371   5.734  11.365   6.791  0.0279  0.6898  0.3124
  885MOL0     C19372   5.773  11.248   6.863 -0.6361 -0.2028  0.4970
  885MOL0     C19373   5.850  11.263   6.985  0.1573 -0.2174  0.1215
  885MOL0     C19374   5.907  11.396   7.010 -0.5716  0.4417 -0.5603
  885MOL0     O19375   5.985  11.427   7.124 -0.0203 -0.1471  0.2230
  885MOL0     C19376   5.972  11.357   7.256  0.6590  0.2197  0.0931
  885MOL0     C19377   5.936  11.466   7.365 -0.1837 -0.5227  0.4285
  885MOL0     C19378   5.925  11.411   7.507  0.1969  0.1031 -0.5303
  885MOL0     C19379   6.062  11.392   7.574 -0.0151  0.7456  0.6416
  885MOL0     C19380   6.052  11.359   7.718 -0.2190 -0.4195 -0.1537
  885MOL0     C19381   6.184  11.380   7.788 -0.0348  0.1427  0.2521
  885MOL0     C19382   6.173  11.370   7.950 -0.7830 -0.2011 -0.0532
  885MOL0     C19383   6.302  11.402   8.021  0.0179  1.0306 -1.0610
  885MOL0    Cl19384   6.416  11.262   7.997 -0.0372  0.1042  0.0297
  885MOL0     C19385   5.884  11.499   6.915 -0.0603  0.2160  0.2877
  885MOL0     C19386   5.796  11.482   6.812 -0.2118  0.0358  0.4940
  885MOL0     O19387   5.769  11.215   6.554  0.1809 -0.2731 -0.6085
  885MOL0     C19388   5.572  11.206   6.360 -0.6516 -0.1007 -0.5502
  885MOL0     C19389   5.470  11.209   6.266  0.4979 -0.8745 -0.3997
  885MOL0     N19390   4.840  10.834   6.210  0.7157 -0.0309 -0.0042
  885MOL0     N19391   4.711  10.836   6.249  0.2463 -0.0665  0.0317
  885MOL0     C19392   3.484  10.689   5.889 -0.0360 -0.0449  0.8708
  885MOL0     C19393   3.348  10.682   5.872  0.8568  0.1559 -0.0490
  885MOL0     C19394   2.920  10.696   5.813  0.3620 -0.5010 -0.4219
  885MOL0     C19395   2.865  10.778   5.916  0.3224  0.5504  0.8088
  885MOL0     C19396   2.725  10.800   5.923  0.4758 -1.0868 -1.0001
  885MOL0     C19397   2.640  10.752   5.832 -0.6387  1.2062  0.1986
  885MOL0     O19398   2.506  10.783   5.826  0.0956  0.3376  0.2393
  885MOL0     C19399   2.417  10.669   5.796  0.2124 -1.4358 -0.6667
  885MOL0     C19400   2.280  10.725   5.803  0.4975 -0.5015  0.3717
  885MOL0     C19401   2.169  10.619   5.802  0.2079  0.1164  0.3145
  885MOL0     C19402   2.043  10.693   5.756 -0.4255 -0.2869 -0.1857
  885MOL0     C19403   1.924  10.606   5.766  0.4117 -0.2023  0.2938
  885MOL0     C19404   1.825  10.536   5.766  0.1864 -0.8581  0.2230
  885MOL0     C19405   2.686  10.653   5.735 -0.9576  0.2391 -0.0389
  885MOL0     C19406   2.830  10.641   5.717 -0.6078 -0.7032 -0.2184
  885MOL0     C19407   2.878  10.565   5.594 -0.2894  0.0202 -0.2061
  885MOL0     H19408   3.292  10.983   5.712  1.3419 -0.4749 -0.3457
  885MOL0     H19409   3.536  11.003   5.768  2.2657 -1.2232  0.8999
  885MOL0     H19410   3.801  10.720   5.704 -1.0533 -0.7414 -0.1071
  885MOL0     H19411   3.705  10.857   5.660  0.1173  1.7859  0.7844
  885MOL0     H19412   3.846  11.001   5.822  1.3830  0.3272  0.8357
  885MOL0     H19413   3.932  10.954   5.688  1.3258 -2.0501  0.0949
  885MOL0     H19414   4.041  10.763   5.824 -0.4224 -1.1975  2.2379
  885MOL0     H19415   3.929  10.811   5.957 -3.9437  3.2943 -0.1226
  885MOL0     H19416   4.142  10.988   5.851 -3.9912  0.9363 -1.7439
  885MOL0     H19417   4.039  11.018   5.985 -0.4694 -0.2806 -0.7742
  885MOL0     H19418   4.154  10.817   6.110  2.8752  0.8655  1.2886
  885MOL0     H19419   4.261  10.794   5.971  0.6017 -0.9736  0.8304
  885MOL0     H19420   4.347  11.020   5.989  2.4679 -1.2439 -0.1886
  885MOL0     H19421   4.273  11.051   6.146 -0.4474 -3.1912  3.2870
  885MOL0     H19422   4.474  10.867   6.059 -1.9518  2.4516 -1.4037
  885MOL0     H19423   4.393  10.819   6.212 -0.9762 -1.1522 -1.1531
  885MOL0     H19424   4.493  11.101   6.182 -4.3623  0.9136  2.3574
  885MOL0     H19425   4.485  11.006   6.326 -0.5976 -2.4940 -1.5228
  885MOL0     H19426   4.727  11.101   6.067  0.0550 -0.4421 -0.1312
  885MOL0     H19427   5.064  10.891   6.075 -0.2171 -0.3695 -0.6405
  885MOL0     H19428   4.965  10.953   5.946 -3.0294 -1.8412  1.0290
  885MOL0     H19429   5.160  11.104   6.046 -0.4973 -1.2662  1.0905
  885MOL0     H19430   5.005  11.166   5.989 -0.6175 -0.0031  0.2334
  885MOL0     H19431   5.084  11.109   6.289  0.2106 -2.3009 -0.1078
  885MOL0     H19432   4.940  11.205   6.228 -0.2452 -0.5462 -1.8505
  885MOL0     H19433   5.110  11.364   6.295 -3.0546 -2.2284  0.5292
  885MOL0     H19434   5.081  11.366   6.125  0.2749  0.8203  1.5324
  885MOL0     H19435   5.245  11.387   6.449 -0.6662 -0.4544 -1.5802
  885MOL0     H19436   5.415  11.392   6.599 -1.5999 -1.2946 -0.0673
  885MOL0     H19437   5.741  11.147   6.839  1.2522 -0.5843 -0.6350
  885MOL0     H19438   5.852  11.181   7.057 -5.8319  0.9209  2.2079
  885MOL0     H19439   5.891  11.286   7.239  0.9666  0.2993 -1.9468
  885MOL0     H19440   6.067  11.308   7.282 -0.1247  0.8209  5.1536
  885MOL0     H19441   6.009  11.547   7.366  1.3148 -1.7486 -1.2513
  885MOL0     H19442   5.836  11.507   7.352 -0.2816 -0.9119 -0.1066
  885MOL0     H19443   5.876  11.490   7.566 -0.7007 -0.0416 -1.0616
  885MOL0     H19444   5.854  11.328   7.515 -0.7001  0.4450 -3.8233
  885MOL0     H19445   6.110  11.490   7.562  0.7942  0.3530  0.5914
  885MOL0     H19446   6.111  11.310   7.520 -3.5315  0.5005 -2.6108
  885MOL0     H19447   6.020  11.256   7.737  1.3941 -0.4698  2.9912
  885MOL0     H19448   5.983  11.423   7.773  1.4199  1.2720  0.0258
  885MOL0     H19449   6.259  11.304   7.764 -2.2378 -3.6273  3.7723
  885MOL0     H19450   6.216  11.484   7.781 -2.2365  1.2268  3.5682
  885MOL0     H19451   6.136  11.276   7.992 -2.3788  0.1180 -0.6804
  885MOL0     H19452   6.099  11.444   7.983 -1.1773  0.0915 -1.5133
  885MOL0     H19453   6.339  11.500   7.990  0.7197  1.0039 -0.3546
  885MOL0     H19454   6.292  11.413   8.130 -3.7035 -2.1373 -0.8733
  885MOL0     H19455   5.949  11.586   6.918 -1.0889  0.9966  0.6310
  885MOL0     H19456   5.765  11.560   6.743 -1.5919 -1.6013 -0.7985
  885MOL0     H19457   5.660  11.148   6.333 -0.7354 -1.1258  1.1649
  885MOL0     H19458   5.470  11.163   6.168 -2.3165 -2.0803  0.0505
  885MOL0     H19459   3.543  10.618   5.947 -0.1424  0.2941  1.3965
  885MOL0     H19460   3.300  10.597   5.920  1.9295 -1.8885 -2.3845
  885MOL0     H19461   2.926  10.821   5.995  0.1877  1.2145  0.5614
  885MOL0     H19462   2.681  10.867   5.997 -0.7262 -2.3287 -0.5540
  885MOL0     H19463   2.427  10.589   5.871  1.2474 -1.9303 -1.3115
  885MOL0     H19464   2.421  10.634   5.693 -1.0914 -0.8658 -0.9298
  885MOL0     H19465   2.264  10.793   5.719  0.2723  0.5032  1.1976
  885MOL0     H19466   2.266  10.786   5.893 -1.4604 -3.3801  2.1991
  885MOL0     H19467   2.141  10.575   5.898  1.9034 -1.0596  0.2980
  885MOL0     H19468   2.198  10.540   5.733  0.2314  0.6656 -0.3204
  885MOL0     H19469   2.029  10.773   5.830 -1.3882  0.1028 -0.7694
  885MOL0     H19470   2.056  10.738   5.657 -0.6010 -1.6458 -0.8429
  885MOL0     H19471   1.733  10.483   5.779  0.1247 -1.0203 -0.7918
  885MOL0     H19472   2.616  10.608   5.665 -0.9261 -0.0910  0.1418
  885MOL0     H19473   2.815  10.573   5.504 -0.3819  2.0419 -0.0005
  885MOL0     H19474   2.964  10.616   5.549 -2.1480  1.5651 -2.2395
  885MOL0     H19475   2.886  10.459   5.618 -0.0974 -0.0376 -0.5208
  886MOL0     O19476   4.707   6.113  11.008  0.4940  1.2610  0.4387
  886MOL0     C19477   4.649   6.132  11.108 -0.6641  0.5257 -0.7138
  886MOL0     O19478   4.708   6.207  11.216 -0.1921  1.0492 -0.8665
  886MOL0     C19479   4.835   6.264  11.213  0.2219 -0.0143 -0.8845
  886MOL0     C19480   4.852   6.395  11.252  0.2393 -0.5877  0.9328
  886MOL0     C19481   4.973   6.466  11.241  0.1053  0.4477 -0.4600
  886MOL0     C19482   5.088   6.394  11.202  0.9477 -0.0162  0.7922
  886MOL0     O19483   5.190   6.480  11.195 -0.6277  0.1278  0.3137
  886MOL0     C19484   5.322   6.428  11.175 -0.3561 -0.1719  0.5457
  886MOL0     C19485   5.417   6.468  11.290 -0.0831  0.4377  0.2776
  886MOL0     C19486   5.392   6.381  11.414 -0.6737  0.5398 -0.4530
  886MOL0     C19487   5.517   6.405  11.515  0.9458  0.4861 -1.2944
  886MOL0     C19488   5.524   6.336  11.653 -0.0065  0.9864 -0.0104
  886MOL0     C19489   5.468   6.191  11.653  0.2848 -0.4418 -0.0776
  886MOL0     C19490   5.456   6.132  11.800 -0.3702  0.2859 -0.0285
  886MOL0     C19491   5.587   6.120  11.883  0.9943 -0.8605 -0.1942
  886MOL0     N19492   5.582   6.211  11.994 -0.0661 -0.2635 -0.3068
  886MOL0     C19493   5.532   6.183  12.120 -0.4828 -0.5652  0.7059
  886MOL0     C19494   5.547   6.298  12.190 -0.6264  0.3384  0.7204
  886MOL0     C19495   5.507   6.327  12.329  0.2264 -0.1417  0.2239
  886MOL0     C19496   5.394   6.433  12.342 -0.8406 -0.1319 -0.8672
  886MOL0     C19497   5.432   6.580  12.354 -0.5925  0.0439 -0.3782
  886MOL0     C19498   5.316   6.665  12.410 -0.0928  0.5277 -0.1178
  886MOL0     O19499   5.253   6.634  12.538  0.0770 -0.5834 -0.0520
  886MOL0     C19500   5.134   6.703  12.577  0.8138 -0.2537 -0.0358
  886MOL0     C19501   5.107   6.831  12.530 -0.1268 -0.5063 -0.2843
  886MOL0     C19502   4.987   6.895  12.568  1.0711  1.1941 -0.5299
  886MOL0     C19503   4.894   6.840  12.664  0.0627  0.4707  0.2109
  886MOL0     C19504   4.772   6.923  12.700 -0.4721  0.3219 -0.0965
  886MOL0     O19505   4.698   6.857  12.802 -0.2166  0.1089  0.3493
  886MOL0     C19506   4.590   6.908  12.872  0.5374  0.9115  0.0525
  886MOL0     C19507   4.536   7.040  12.856 -0.4755  0.5074 -0.1065
  886MOL0     C19508   4.436   7.086  12.945 -0.4395 -0.2137 -0.3893
  886MOL0     C19509   4.379   6.999  13.041 -0.3059 -0.2298  0.2347
  886MOL0     O19510   4.279   7.045  13.121 -0.8270  0.5135  0.4632
  886MOL0     C19511   4.179   6.945  13.156 -0.0844  0.6506 -0.3200
  886MOL0     C19512   4.055   7.013  13.208 -0.0027 -0.5823 -0.8138
  886MOL0     C19513   3.933   6.927  13.202 -0.3053 -0.0116  0.3835
  886MOL0     C19514   3.809   6.993  13.248 -0.4030  0.0312  0.3528
  886MOL0     C19515   3.809   7.031  13.386  0.5658  0.2091 -0.0613
  886MOL0     C19516   3.660   7.053  13.435  0.0904  0.1187 -0.2609
  886MOL0     C19517   3.579   7.168  13.375  0.4631  0.3344  0.0569
  886MOL0     C19518   3.617   7.297  13.434 -0.1711  0.2783 -0.8139
  886MOL0    Cl19519   3.528   7.315  13.590 -0.2582  0.0662  0.0831
  886MOL0     C19520   4.428   6.865  13.052 -0.4248 -0.0063 -0.2641
  886MOL0     C19521   4.528   6.823  12.965 -0.2564 -0.2990 -0.8113
  886MOL0     O19522   4.748   7.036  12.655  0.4654  0.7571  0.1379
  886MOL0     C19523   4.920   6.706  12.702  1.1303 -0.4855 -0.5229
  886MOL0     C19524   5.041   6.641  12.663  0.6359 -0.1595  0.7334
  886MOL0     N19525   5.614   6.391  12.114  0.1563 -0.7139  0.0191
  886MOL0     N19526   5.635   6.334  12.001 -0.2028  0.1802 -0.3927
  886MOL0     C19527   5.074   6.255  11.171  1.1878 -0.1848 -0.6975
  886MOL0     C19528   4.954   6.184  11.191 -0.1769  0.3342  0.6911
  886MOL0     C19529   4.525   6.052  11.140  1.0276  0.6235 -0.6877
  886MOL0     C19530   4.506   6.003  11.269 -0.3979  0.0120  0.8845
  886MOL0     C19531   4.392   5.938  11.307 -0.5700 -0.0811 -0.8283
  886MOL0     C19532   4.287   5.924  11.221  0.0310  0.2216 -0.4708
  886MOL0     O19533   4.177   5.860  11.265  0.0874 -0.2561 -0.6406
  886MOL0     C19534   4.057   5.873  11.186 -1.3438 -0.2278 -0.4319
  886MOL0     C19535   3.931   5.827  11.263  0.4636 -0.0039 -0.6117
  886MOL0     C19536   3.923   5.905  11.388  0.3867 -0.4181  0.0883
  886MOL0     C19537   3.787   5.973  11.415  1.6940  0.5546 -0.2033
  886MOL0     C19538   3.677   5.874  11.442  0.5592 -0.0636 -1.0825
  886MOL0     C19539   3.591   5.792  11.470  0.8042 -0.4783 -0.1790
  886MOL0     C19540   4.295   5.977  11.097 -0.1636 -0.1402  0.4564
  886MOL0     C19541   4.414   6.039  11.060 -0.1238 -0.5550  0.2873
  886MOL0     C19542   4.407   6.116  10.928  0.8892 -0.4084 -0.2012
  886MOL0     H19543   4.765   6.453  11.282 -0.6504 -2.9038  3.1771
  886MOL0     H19544   4.967   6.573  11.261 -0.3370  0.2196  0.6876
  886MOL0     H19545   5.318   6.319  11.166 -1.3231 -0.1336  0.3701
  886MOL0     H19546   5.356   6.468  11.079  0.8358 -0.0530  1.0040
  886MOL0     H19547   5.403   6.572  11.322 -2.0586  0.4444 -0.4410
  886MOL0     H19548   5.522   6.466  11.260 -0.1729 -0.6690  0.0062
  886MOL0     H19549   5.395   6.277  11.381  0.3172  0.5754 -0.5058
  886MOL0     H19550   5.292   6.406  11.452 -1.1919  0.1971 -1.5503
  886MOL0     H19551   5.605   6.374  11.458  0.2191 -1.5952 -1.3655
  886MOL0     H19552   5.514   6.513  11.528  2.2570  0.3589  0.3757
  886MOL0     H19553   5.631   6.331  11.674  0.7971 -2.5396 -3.7069
  886MOL0     H19554   5.461   6.384  11.729 -1.8869 -1.6598  0.2110
  886MOL0     H19555   5.362   6.188  11.624  0.0489 -1.0608  0.8282
  886MOL0     H19556   5.524   6.125  11.586 -1.2771 -1.2419 -0.6447
  886MOL0     H19557   5.413   6.032  11.790 -2.6752  1.2955 -0.8240
  886MOL0     H19558   5.381   6.196  11.847  1.5702  2.5215  0.2567
  886MOL0     H19559   5.585   6.012  11.904  0.1824 -1.2708 -2.1696
  886MOL0     H19560   5.679   6.137  11.827  1.5209 -0.0663  0.8858
  886MOL0     H19561   5.479   6.096  12.158 -0.6826 -2.2506 -3.0003
  886MOL0     H19562   5.471   6.231  12.369  1.4936 -0.7757 -0.0964
  886MOL0     H19563   5.602   6.357  12.374  0.1909  0.3805 -0.0556
  886MOL0     H19564   5.321   6.427  12.261 -0.8287 -0.6849 -0.8410
  886MOL0     H19565   5.337   6.401  12.431 -2.2302 -0.3256 -1.7878
  886MOL0     H19566   5.456   6.606  12.251  1.2646  0.5711  0.1526
  886MOL0     H19567   5.522   6.584  12.415 -0.6141  1.7590 -0.3932
  886MOL0     H19568   5.233   6.645  12.342  1.2534 -0.0812 -1.6412
  886MOL0     H19569   5.334   6.772  12.393 -1.8390  0.6170 -1.7918
  886MOL0     H19570   5.178   6.881  12.465  1.5812 -2.8155 -0.3050
  886MOL0     H19571   4.956   6.992  12.529  0.3956  1.0087 -0.4718
  886MOL0     H19572   4.570   7.095  12.769 -2.1804 -0.0229 -1.1665
  886MOL0     H19573   4.390   7.184  12.939  1.2292  0.5536 -1.4445
  886MOL0     H19574   4.144   6.897  13.064 -2.1837  0.5691  0.4630
  886MOL0     H19575   4.213   6.872  13.229 -0.3331  3.1000  2.4396
  886MOL0     H19576   4.080   7.028  13.313 -1.1420 -1.5568 -0.3837
  886MOL0     H19577   4.034   7.102  13.149  0.3178 -1.9274 -3.0883
  886MOL0     H19578   3.925   6.902  13.096 -0.4668 -1.8549  0.8082
  886MOL0     H19579   3.947   6.834  13.258  0.1395  1.5057  2.9576
  886MOL0     H19580   3.734   6.919  13.221  0.6222 -0.5503 -1.0190
  886MOL0     H19581   3.795   7.084  13.189  2.9944  1.3770  1.3638
  886MOL0     H19582   3.866   7.123  13.399  0.4978  0.2577 -0.1017
  886MOL0     H19583   3.851   6.943  13.434  1.5223 -1.5192 -3.7093
  886MOL0     H19584   3.610   6.957  13.426  1.2216 -0.9060  3.0566
  886MOL0     H19585   3.658   7.072  13.543  0.3899  1.7301 -0.5066
  886MOL0     H19586   3.474   7.142  13.393  0.6022 -0.3683 -0.1261
  886MOL0     H19587   3.595   7.172  13.267  1.6324 -2.9724  0.0065
  886MOL0     H19588   3.724   7.293  13.455 -0.2674 -3.0627 -0.5007
  886MOL0     H19589   3.598   7.377  13.361 -0.9411 -2.3864 -3.7293
  886MOL0     H19590   4.376   6.792  13.112 -3.1039  1.2233 -0.9512
  886MOL0     H19591   4.563   6.721  12.981  1.6884  0.5784  0.9838
  886MOL0     H19592   4.850   6.651  12.763 -2.0914  0.0720 -3.3750
  886MOL0     H19593   5.043   6.535  12.686 -2.1987 -0.1289  1.5116
  886MOL0     H19594   5.153   6.193  11.130 -0.2084 -2.8764  0.4292
  886MOL0     H19595   4.955   6.077  11.172 -0.1488  0.1596  1.6609
  886MOL0     H19596   4.584   6.025  11.342  1.8321 -0.3183 -1.2485
  886MOL0     H19597   4.380   5.912  11.412 -3.3177 -1.1305 -1.3448
  886MOL0     H19598   4.070   5.807  11.100  0.2642 -1.7765  0.9040
  886MOL0     H19599   4.034   5.978  11.167 -2.8444 -0.6640 -1.1609
  886MOL0     H19600   3.936   5.721  11.292  1.2986  0.1736 -0.0669
  886MOL0     H19601   3.851   5.829  11.189 -0.9623 -0.2321  0.8550
  886MOL0     H19602   3.992   5.991  11.383  2.1567 -1.4366  3.7985
  886MOL0     H19603   3.953   5.838  11.468 -2.6062 -0.5625  1.2010
  886MOL0     H19604   3.782   6.039  11.502 -4.2911 -1.1270  1.1785
  886MOL0     H19605   3.754   6.024  11.323  1.8951 -0.7324 -1.0111
  886MOL0     H19606   3.510   5.724  11.491  3.3936 -3.1615  2.0008
  886MOL0     H19607   4.214   5.958  11.026  0.6335 -0.6627 -0.3244
  886MOL0     H19608   4.490   6.102  10.857  2.2688  3.2718  0.4645
  886MOL0     H19609   4.309   6.099  10.884  1.5382 -3.7116 -0.6524
  886MOL0     H19610   4.412   6.221  10.960 -1.1790 -0.4819  0.5151
  887MOL0     O19611   2.968   8.902   1.343 -0.9081 -0.4057 -0.6079
  887MOL0     C19612   2.911   9.007   1.334 -0.9495 -0.0141  0.3800
  887MOL0     O19613   2.897   9.099   1.431 -0.3302  0.2023  0.5191
  887MOL0     C19614   2.941   9.067   1.558  0.2436  0.0659  0.0347
  887MOL0     C19615   2.843   9.081   1.663 -0.1741  0.1849 -0.1197
  887MOL0     C19616   2.877   9.048   1.793 -0.6513  0.1981  0.3369
  887MOL0     C19617   3.001   8.991   1.826  0.2665  0.7855  0.3944
  887MOL0     O19618   3.017   8.936   1.949 -0.1055  0.0918  0.2034
  887MOL0     C19619   3.110   8.836   1.968  0.2751  0.7424 -0.0454
  887MOL0     C19620   3.105   8.779   2.112 -0.4317  0.6477 -0.2130
  887MOL0     C19621   3.007   8.663   2.131  0.1769  1.3895  0.1929
  887MOL0     C19622   3.064   8.531   2.076  0.1296 -0.1989 -0.7323
  887MOL0     C19623   2.957   8.417   2.069  0.4629 -1.4524  0.4141
  887MOL0     C19624   2.999   8.280   2.023  0.1666  0.3780  0.1191
  887MOL0     C19625   2.886   8.198   1.952  0.4581 -0.1194 -0.5898
  887MOL0     C19626   2.783   8.149   2.050  0.3522 -0.5925  0.6729
  887MOL0     N19627   2.696   8.058   1.990  0.0889  0.5926  1.5447
  887MOL0     C19628   2.556   8.087   1.988  0.2188 -0.6425  0.6921
  887MOL0     C19629   2.510   7.969   1.937  0.5279  0.5425  0.5220
  887MOL0     C19630   2.369   7.944   1.899 -0.3367  1.0506  0.7781
  887MOL0     C19631   2.357   7.946   1.741  0.1823 -0.2036  0.6151
  887MOL0     C19632   2.398   7.810   1.671  0.1360  0.0241  0.2820
  887MOL0     C19633   2.389   7.822   1.518  0.0413  0.9018 -0.8014
  887MOL0     O19634   2.266   7.882   1.478  0.4416  0.5679  0.0646
  887MOL0     C19635   2.199   7.815   1.388  0.5298  0.3530 -0.4579
  887MOL0     C19636   2.256   7.786   1.265 -0.4506 -0.2934 -0.6711
  887MOL0     C19637   2.183   7.724   1.167 -0.2095  0.1618 -0.0987
  887MOL0     C19638   2.054   7.681   1.182 -0.0886 -1.0441  0.7602
  887MOL0     C19639   1.985   7.611   1.065 -0.2626  0.3478 -0.5524
  887MOL0     O19640   1.850   7.588   1.093  0.8311 -0.2640  0.1031
  887MOL0     C19641   1.765   7.544   0.997  0.1549 -0.5247 -0.6843
  887MOL0     C19642   1.781   7.472   0.876 -0.4703 -0.1070  0.1568
  887MOL0     C19643   1.679   7.422   0.800  1.0670  0.3868 -1.1111
  887MOL0     C19644   1.547   7.431   0.847 -0.2517 -0.6347 -0.2725
  887MOL0     O19645   1.430   7.390   0.770 -0.0761 -0.0011 -0.2757
  887MOL0     C19646   1.435   7.369   0.632  0.7951 -0.1388  0.2875
  887MOL0     C19647   1.295   7.351   0.579  0.8620 -0.9053  0.2927
  887MOL0     C19648   1.197   7.473   0.604  0.2497 -0.1021  0.1402
  887MOL0     C19649   1.058   7.446   0.539  0.5637 -0.1772  0.6285
  887MOL0     C19650   0.953   7.543   0.580  0.6385 -0.3442  0.2989
  887MOL0     C19651   0.804   7.505   0.524  0.1736  0.8941 -0.1469
  887MOL0     C19652   0.733   7.388   0.582 -0.3566  1.0440 -0.8285
  887MOL0     C19653   0.714   7.392   0.733 -0.0763  0.4942  0.4507
  887MOL0    Cl19654   0.663   7.232   0.784  0.6800  0.2848  0.0779
  887MOL0     C19655   1.521   7.501   0.967  0.3325  0.0060  0.5400
  887MOL0     C19656   1.636   7.547   1.044  0.1825 -0.2427  0.7704
  887MOL0     O19657   2.044   7.592   0.959  0.1661 -0.2908 -0.0883
  887MOL0     C19658   1.989   7.707   1.300  0.6392 -0.1250  1.0465
  887MOL0     C19659   2.057   7.777   1.405 -0.2392  0.1457  0.3024
  887MOL0     N19660   2.607   7.875   1.908 -0.0887 -0.4313 -0.5248
  887MOL0     N19661   2.720   7.932   1.937  0.5722 -1.5385 -0.2264
  887MOL0     C19662   3.096   8.978   1.723 -0.2603 -0.1698 -0.2677
  887MOL0     C19663   3.070   9.022   1.592 -0.1511 -0.9157 -0.3639
  887MOL0     C19664   2.875   9.052   1.199  0.5302  0.5290  0.5241
  887MOL0     C19665   2.883   9.189   1.168  0.3849  0.0960  0.2319
  887MOL0     C19666   2.848   9.242   1.042  0.0712 -0.8131  0.8585
  887MOL0     C19667   2.805   9.161   0.940 -0.9249 -0.2164 -0.3833
  887MOL0     O19668   2.777   9.205   0.816 -0.1312  0.6519  0.0193
  887MOL0     C19669   2.677   9.308   0.803 -0.2927 -0.1946  0.1459
  887MOL0     C19670   2.615   9.340   0.656 -0.0233 -0.5042 -0.4861
  887MOL0     C19671   2.575   9.221   0.563 -0.2619 -0.0567 -0.0312
  887MOL0     C19672   2.460   9.234   0.464  0.3860  0.5962 -0.7403
  887MOL0     C19673   2.338   9.288   0.511  0.1849  0.0809 -0.1247
  887MOL0     C19674   2.235   9.331   0.564 -0.0655 -0.6711 -0.1522
  887MOL0     C19675   2.800   9.022   0.964 -0.2062  0.3352 -0.5610
  887MOL0     C19676   2.832   8.962   1.091  0.0901  0.4267  1.2094
  887MOL0     C19677   2.818   8.813   1.118 -0.1828  0.8090 -0.1140
  887MOL0     H19678   2.758   9.141   1.630  0.1095  0.5394 -0.2207
  887MOL0     H19679   2.806   9.068   1.872 -2.1285  1.0869 -1.1452
  887MOL0     H19680   3.079   8.759   1.896  1.2944 -1.6415  1.9062
  887MOL0     H19681   3.211   8.873   1.949 -0.5689  3.6961  0.6932
  887MOL0     H19682   3.097   8.859   2.187 -0.3590  0.6615 -0.2200
  887MOL0     H19683   3.205   8.735   2.122 -0.1439  1.2018 -0.5917
  887MOL0     H19684   2.918   8.689   2.073  1.8160  0.7783 -2.8162
  887MOL0     H19685   2.973   8.646   2.234 -2.9743 -2.9335 -1.2917
  887MOL0     H19686   3.109   8.536   1.976 -0.2209  0.5166 -0.8598
  887MOL0     H19687   3.141   8.507   2.150 -2.1390  2.4686  2.7994
  887MOL0     H19688   2.895   8.407   2.159  0.1344  1.8501  0.6846
  887MOL0     H19689   2.891   8.456   1.991  1.7863 -0.6274 -0.3390
  887MOL0     H19690   3.080   8.287   1.950  0.6928  1.3881  0.7812
  887MOL0     H19691   3.034   8.221   2.108 -0.3343 -1.3460 -0.8085
  887MOL0     H19692   2.922   8.119   1.886  1.0146 -1.0002  0.7251
  887MOL0     H19693   2.833   8.264   1.884 -2.5574 -1.8086 -0.0371
  887MOL0     H19694   2.828   8.106   2.139 -0.7190 -2.6457  0.2748
  887MOL0     H19695   2.729   8.240   2.079 -0.1122 -0.9722  0.9894
  887MOL0     H19696   2.496   8.176   2.009  0.2156 -0.2357 -0.9191
  887MOL0     H19697   2.334   7.848   1.938 -1.8384  0.8651 -0.8895
  887MOL0     H19698   2.309   8.026   1.939  1.0465  1.4954  2.0353
  887MOL0     H19699   2.257   7.985   1.722  1.1588  1.9640 -0.4919
  887MOL0     H19700   2.422   8.025   1.701  0.6022 -0.0653  1.5222
  887MOL0     H19701   2.340   7.723   1.703  1.4539 -0.5354  1.2295
  887MOL0     H19702   2.506   7.804   1.686  0.4281  2.9614  0.0038
  887MOL0     H19703   2.402   7.719   1.482 -2.3013 -0.6405  2.2789
  887MOL0     H19704   2.477   7.881   1.490  2.2056 -2.3057 -1.3179
  887MOL0     H19705   2.359   7.819   1.253 -1.0367  1.6069 -0.7744
  887MOL0     H19706   2.250   7.698   1.086  1.1245 -0.2883  1.1074
  887MOL0     H19707   1.882   7.445   0.848 -1.2651 -2.0987 -1.0321
  887MOL0     H19708   1.710   7.360   0.718 -0.3157 -0.8509 -0.7403
  887MOL0     H19709   1.484   7.459   0.592 -0.2232  1.2015  1.9078
  887MOL0     H19710   1.501   7.285   0.611 -0.9367 -1.7288  1.0178
  887MOL0     H19711   1.300   7.333   0.472  2.3639  2.9053 -0.4425
  887MOL0     H19712   1.249   7.269   0.636  0.0198 -2.6630 -2.7342
  887MOL0     H19713   1.174   7.486   0.710 -1.5693  1.3035 -0.3645
  887MOL0     H19714   1.239   7.571   0.579  0.7824  0.2929  2.4069
  887MOL0     H19715   1.011   7.348   0.558 -0.3418  0.1521  0.1735
  887MOL0     H19716   1.065   7.440   0.430 -5.0325  1.0324 -0.1357
  887MOL0     H19717   0.988   7.631   0.525  2.6645 -0.7305  0.8865
  887MOL0     H19718   0.950   7.571   0.686 -2.2636  2.8844 -0.4420
  887MOL0     H19719   0.730   7.585   0.533 -1.2394 -0.3990  0.1185
  887MOL0     H19720   0.817   7.486   0.417 -0.1486 -0.2032 -0.0074
  887MOL0     H19721   0.787   7.297   0.556 -0.4950  0.3898  1.0232
  887MOL0     H19722   0.633   7.378   0.537 -0.1157  3.1515 -1.9756
  887MOL0     H19723   0.807   7.419   0.784  0.5226 -0.8908  0.1168
  887MOL0     H19724   0.639   7.464   0.769  0.9431  1.3073  0.9799
  887MOL0     H19725   1.419   7.525   0.996  0.8365  1.4097  1.2032
  887MOL0     H19726   1.609   7.606   1.132  1.3087  0.8915  0.3931
  887MOL0     H19727   1.891   7.663   1.318  0.2010 -0.9707 -2.5991
  887MOL0     H19728   2.003   7.786   1.498  0.9305  1.3885  0.8796
  887MOL0     H19729   3.192   8.928   1.735 -0.2430 -0.4582 -1.4404
  887MOL0     H19730   3.138   9.008   1.509 -0.0341 -0.0603 -0.4178
  887MOL0     H19731   2.915   9.257   1.246  2.1178 -0.6740  0.2365
  887MOL0     H19732   2.861   9.348   1.023 -0.5169 -1.1877 -2.2536
  887MOL0     H19733   2.723   9.402   0.835 -0.5512  0.0579 -0.2036
  887MOL0     H19734   2.589   9.273   0.859  0.6956 -2.2672  0.4836
  887MOL0     H19735   2.688   9.394   0.595 -0.5061  0.5435 -0.1522
  887MOL0     H19736   2.539   9.416   0.672  0.0380 -0.2888 -1.1956
  887MOL0     H19737   2.553   9.131   0.622  1.3653 -0.6629 -0.3258
  887MOL0     H19738   2.665   9.195   0.508  0.7055 -0.9356  1.8637
  887MOL0     H19739   2.504   9.287   0.379  1.0374 -0.0110 -0.7891
  887MOL0     H19740   2.438   9.136   0.422 -1.2104  0.7278 -0.2905
  887MOL0     H19741   2.151   9.375   0.613 -1.8468 -3.5887 -0.3836
  887MOL0     H19742   2.761   8.957   0.886 -2.0203  0.7372 -0.0474
  887MOL0     H19743   2.917   8.767   1.129 -0.5010 -1.2699 -3.9043
  887MOL0     H19744   2.761   8.796   1.210 -0.3659  1.5856 -0.0761
  887MOL0     H19745   2.764   8.767   1.035 -0.2387 -2.5127  1.5910
  888MOL0     O19746   2.926   6.835   8.237  0.0778 -0.2452  0.3696
  888MOL0     C19747   2.910   6.949   8.188  0.1589  0.4779 -0.4694
  888MOL0     O19748   2.998   7.009   8.094 -0.1300  0.8199  0.2034
  888MOL0     C19749   3.107   6.933   8.046 -0.8222 -0.2420  0.3158
  888MOL0     C19750   3.231   6.938   8.116 -0.1393  0.7467  1.3446
  888MOL0     C19751   3.334   6.865   8.062 -1.0640 -0.9852  0.2857
  888MOL0     C19752   3.322   6.786   7.938 -0.6862 -0.7206  0.9445
  888MOL0     O19753   3.421   6.712   7.889 -0.5561 -0.5564 -0.6400
  888MOL0     C19754   3.511   6.776   7.795  0.6636  0.8932  0.5628
  888MOL0     C19755   3.618   6.675   7.739  0.1629 -0.6626  0.6078
  888MOL0     C19756   3.564   6.551   7.682  1.0162  0.1357  0.1939
  888MOL0     C19757   3.667   6.442   7.651  1.1845 -0.3836 -0.0451
  888MOL0     C19758   3.784   6.485   7.557 -0.2358 -0.2241  0.7121
  888MOL0     C19759   3.888   6.375   7.528 -1.1265 -0.7376 -0.9286
  888MOL0     C19760   4.017   6.444   7.474 -0.1694 -0.5338 -0.3382
  888MOL0     C19761   4.117   6.347   7.422  0.6890  0.6440  0.5850
  888MOL0     N19762   4.253   6.393   7.394  0.1926  0.3524  0.0794
  888MOL0     C19763   4.348   6.445   7.483 -0.0607 -0.5264 -0.1384
  888MOL0     C19764   4.457   6.473   7.408  0.9519  0.2538 -0.5946
  888MOL0     C19765   4.573   6.539   7.450 -0.6707  0.2398 -0.2648
  888MOL0     C19766   4.585   6.678   7.398  1.3906 -0.0947 -0.4305
  888MOL0     C19767   4.734   6.722   7.392  0.5213 -0.0963  0.2799
  888MOL0     C19768   4.737   6.879   7.403  0.0602 -0.2019 -0.5391
  888MOL0     O19769   4.648   6.938   7.298  1.1130  0.2114  0.0408
  888MOL0     C19770   4.603   7.068   7.322  0.0783 -0.8269 -0.2057
  888MOL0     C19771   4.486   7.090   7.390  0.1189  0.4044  0.2780
  888MOL0     C19772   4.445   7.215   7.418 -0.0706 -0.2746 -0.5310
  888MOL0     C19773   4.520   7.338   7.395 -0.2214 -0.4508  0.3871
  888MOL0     C19774   4.474   7.472   7.444  0.3106 -0.2531 -0.5072
  888MOL0     O19775   4.366   7.475   7.530 -0.5547 -0.2991  0.3893
  888MOL0     C19776   4.329   7.600   7.568  1.0477  0.2443  0.3539
  888MOL0     C19777   4.244   7.682   7.493  0.8551 -0.5481 -0.2024
  888MOL0     C19778   4.212   7.804   7.536 -0.1000 -0.6932  0.0098
  888MOL0     C19779   4.233   7.856   7.665 -0.0876  0.6630  0.6927
  888MOL0     O19780   4.174   7.976   7.696  0.5758  0.0991 -0.6994
  888MOL0     C19781   4.174   8.019   7.835 -1.3911  0.1173  0.8903
  888MOL0     C19782   4.075   7.942   7.920 -1.1515  0.0432  0.5435
  888MOL0     C19783   4.094   7.973   8.070 -0.5112  0.5824  0.3734
  888MOL0     C19784   4.054   7.842   8.157 -0.0626 -0.2028  0.7342
  888MOL0     C19785   4.101   7.853   8.305  0.7479  0.1968  0.3157
  888MOL0     C19786   4.109   7.715   8.368 -0.6222 -0.3268 -0.3440
  888MOL0     C19787   4.141   7.722   8.524 -0.2436  0.6133  0.6003
  888MOL0     C19788   4.038   7.790   8.602  0.9088 -0.4876 -0.7529
  888MOL0    Cl19789   4.058   7.766   8.785 -0.3486  0.3167  0.3738
  888MOL0     C19790   4.314   7.763   7.751  1.0144 -1.1357  0.4115
  888MOL0     C19791   4.356   7.644   7.694  0.1852  0.5788  0.0914
  888MOL0     O19792   4.541   7.566   7.405 -0.1984  0.9015  0.0870
  888MOL0     C19793   4.643   7.318   7.322  0.8419  0.8840 -0.2947
  888MOL0     C19794   4.683   7.182   7.294  0.9150  0.0378 -0.8687
  888MOL0     N19795   4.426   6.449   7.271 -0.3091 -0.3500  0.1628
  888MOL0     N19796   4.308   6.401   7.263  0.4027 -0.3719 -0.9057
  888MOL0     C19797   3.204   6.792   7.870 -0.1262  0.5620  0.5447
  888MOL0     C19798   3.094   6.866   7.925  0.6419  0.4808  0.0723
  888MOL0     C19799   2.802   7.035   8.237 -0.1670 -0.2033 -0.1418
  888MOL0     C19800   2.783   7.160   8.177 -0.2003 -0.3677 -0.1571
  888MOL0     C19801   2.673   7.238   8.218  0.0708 -0.9929  0.3793
  888MOL0     C19802   2.590   7.206   8.324  0.3018 -0.3192 -0.1399
  888MOL0     O19803   2.497   7.298   8.350  0.0762  0.2755  0.0282
  888MOL0     C19804   2.448   7.322   8.479  0.2005  1.1736 -0.0230
  888MOL0     C19805   2.359   7.448   8.484  0.7427 -0.0304  0.2808
  888MOL0     C19806   2.233   7.423   8.403  0.0743 -0.6732  0.2508
  888MOL0     C19807   2.144   7.549   8.402 -0.0035 -0.0909 -0.0560
  888MOL0     C19808   2.089   7.584   8.542 -1.9885 -0.6725 -0.4325
  888MOL0     C19809   2.028   7.611   8.643  0.0401  0.1442 -0.5068
  888MOL0     C19810   2.615   7.093   8.400  0.3952 -0.2135 -1.0433
  888MOL0     C19811   2.709   7.004   8.346  0.3242 -0.1625 -0.9032
  888MOL0     C19812   2.733   6.880   8.439  0.5147 -0.1741  0.5072
  888MOL0     H19813   3.225   6.977   8.217 -5.3800 -0.5802  1.8243
  888MOL0     H19814   3.432   6.858   8.108 -0.3566 -3.8001 -1.4075
  888MOL0     H19815   3.443   6.816   7.719 -2.1559  0.7459  2.8086
  888MOL0     H19816   3.565   6.857   7.846 -0.1522  0.9211  1.4147
  888MOL0     H19817   3.692   6.655   7.817 -2.0472 -2.6715  2.3553
  888MOL0     H19818   3.676   6.723   7.659 -1.4792 -3.2843 -2.3798
  888MOL0     H19819   3.506   6.576   7.593 -0.9900  0.4516  1.5181
  888MOL0     H19820   3.495   6.505   7.754  3.6809 -3.6676  0.6174
  888MOL0     H19821   3.710   6.405   7.744  0.3762 -2.7932 -0.5591
  888MOL0     H19822   3.619   6.361   7.595  1.4241  1.0996 -2.5645
  888MOL0     H19823   3.737   6.505   7.460  0.8638  1.3993  0.4785
  888MOL0     H19824   3.831   6.580   7.583  2.5372 -0.7471 -1.8876
  888MOL0     H19825   3.920   6.335   7.624  2.4850  2.0144 -0.7762
  888MOL0     H19826   3.845   6.296   7.465  1.6409 -2.9150 -0.2910
  888MOL0     H19827   4.056   6.500   7.560 -0.4109 -1.2253  0.2413
  888MOL0     H19828   3.992   6.496   7.382 -1.0753 -3.0440 -1.6136
  888MOL0     H19829   4.127   6.266   7.495 -1.0290 -0.8138 -0.6724
  888MOL0     H19830   4.068   6.295   7.339 -1.9646  1.3907  1.5980
  888MOL0     H19831   4.332   6.444   7.590 -0.0671 -1.6725 -0.1436
  888MOL0     H19832   4.590   6.541   7.558  3.9069 -1.1276 -0.7628
  888MOL0     H19833   4.653   6.480   7.405  0.6211  0.4275  1.6771
  888MOL0     H19834   4.542   6.686   7.298  1.6271  2.1548 -0.3947
  888MOL0     H19835   4.523   6.744   7.459 -0.3992  1.1012 -3.3340
  888MOL0     H19836   4.784   6.688   7.300 -1.4729 -2.6852  0.0211
  888MOL0     H19837   4.791   6.684   7.477  1.8825  2.4682  0.6005
  888MOL0     H19838   4.832   6.934   7.405 -1.0791  1.9037 -0.7158
  888MOL0     H19839   4.691   6.913   7.497 -1.4561  1.5755 -1.8455
  888MOL0     H19840   4.419   7.007   7.410  0.9688 -0.0950  1.0744
  888MOL0     H19841   4.347   7.215   7.466  0.2503  0.5637  0.1363
  888MOL0     H19842   4.214   7.658   7.391 -2.7318  2.4633 -0.0728
  888MOL0     H19843   4.134   7.863   7.488 -1.2801 -1.1337  1.3156
  888MOL0     H19844   4.275   8.010   7.876 -1.4758 -1.1499  0.8598
  888MOL0     H19845   4.147   8.125   7.829  0.0316  0.4334 -1.0187
  888MOL0     H19846   3.977   7.968   7.878 -1.8008  1.9899  3.0582
  888MOL0     H19847   4.083   7.833   7.911  0.8177  0.1360  0.6700
  888MOL0     H19848   4.195   8.006   8.096 -0.6298  0.5565  0.8863
  888MOL0     H19849   4.027   8.054   8.102 -3.7575 -0.1940 -3.5698
  888MOL0     H19850   4.100   7.756   8.107 -1.4979 -3.2403  4.1791
  888MOL0     H19851   3.947   7.819   8.153 -0.0570 -0.3679  1.4353
  888MOL0     H19852   4.031   7.919   8.356  0.4732 -0.0022  0.1988
  888MOL0     H19853   4.205   7.887   8.319  0.8545  0.3637 -0.7501
  888MOL0     H19854   4.018   7.659   8.349 -3.0109  2.2145  2.5201
  888MOL0     H19855   4.196   7.668   8.321 -0.9676 -2.5790  1.1002
  888MOL0     H19856   4.239   7.767   8.544 -1.4732  3.2973  0.9834
  888MOL0     H19857   4.166   7.623   8.564  1.4717  1.6748  2.3129
  888MOL0     H19858   4.045   7.897   8.580 -0.3493 -0.3539 -0.5635
  888MOL0     H19859   3.937   7.758   8.573  0.7845 -0.7120 -0.0824
  888MOL0     H19860   4.355   7.793   7.847  0.6276  1.5937 -0.2031
  888MOL0     H19861   4.420   7.571   7.743 -1.1624 -1.0796 -0.5303
  888MOL0     H19862   4.693   7.405   7.282  0.6461  1.9559  1.6647
  888MOL0     H19863   4.771   7.165   7.233  1.9067 -1.7094  0.9254
  888MOL0     H19864   3.188   6.714   7.796  2.7889 -0.9441  1.3554
  888MOL0     H19865   2.999   6.864   7.872  1.2350  0.8405 -1.0345
  888MOL0     H19866   2.829   7.192   8.085 -2.4344 -1.9801 -1.9493
  888MOL0     H19867   2.651   7.332   8.169 -2.9166 -1.8430 -0.1134
  888MOL0     H19868   2.532   7.335   8.547  1.1831  1.1136 -1.1936
  888MOL0     H19869   2.385   7.236   8.506 -0.7160  0.8570 -2.8750
  888MOL0     H19870   2.403   7.537   8.440 -0.7188  0.7632  0.3505
  888MOL0     H19871   2.337   7.469   8.590 -0.3024  2.0634 -0.2927
  888MOL0     H19872   2.160   7.348   8.434 -0.6491  1.2332  3.5903
  888MOL0     H19873   2.259   7.400   8.299  1.2296  0.5601  0.2393
  888MOL0     H19874   2.187   7.645   8.370 -0.7050  0.8727  1.7835
  888MOL0     H19875   2.063   7.522   8.334 -1.4812  0.9157  1.2570
  888MOL0     H19876   1.980   7.635   8.736  0.1986  0.5408 -0.5236
  888MOL0     H19877   2.553   7.056   8.481  2.2678 -3.7315 -1.0226
  888MOL0     H19878   2.739   6.785   8.384 -1.5251  0.6124 -1.2408
  888MOL0     H19879   2.821   6.900   8.500 -0.0757  4.0871  0.2718
  888MOL0     H19880   2.650   6.855   8.505 -1.1443  2.0789 -0.5995
  889MOL0     O19881   5.860   3.654   8.296 -1.0118 -0.1100  0.1846
  889MOL0     C19882   5.808   3.763   8.289  0.8211 -1.0778 -0.2328
  889MOL0     O19883   5.871   3.882   8.290 -0.3465 -0.0675 -0.3867
  889MOL0     C19884   6.006   3.882   8.301 -1.2448 -0.0375  0.1354
  889MOL0     C19885   6.086   3.830   8.194  0.2336  0.5689  0.0020
  889MOL0     C19886   6.225   3.813   8.202 -0.4384  0.0985  0.0826
  889MOL0     C19887   6.290   3.841   8.321 -1.2276 -0.0766  0.7060
  889MOL0     O19888   6.419   3.807   8.351 -0.6996  0.1178 -0.0574
  889MOL0     C19889   6.490   3.724   8.256 -0.8629  0.6878  0.7556
  889MOL0     C19890   6.625   3.703   8.327 -0.7435  0.0939 -0.4245
  889MOL0     C19891   6.709   3.835   8.338  0.9429  0.0925  0.5857
  889MOL0     C19892   6.854   3.815   8.376  0.1592  0.1245 -0.1292
  889MOL0     C19893   6.942   3.749   8.272  0.1674  0.0471  0.4337
  889MOL0     C19894   7.087   3.792   8.295  0.3886 -0.0411 -0.5886
  889MOL0     C19895   7.187   3.731   8.198  0.1239  0.7418  0.8136
  889MOL0     C19896   7.181   3.575   8.182 -0.6352  0.7966 -0.0154
  889MOL0     N19897   7.242   3.498   8.301 -0.4178 -0.9255  0.7632
  889MOL0     C19898   7.364   3.520   8.359  0.7179 -0.8050 -0.9154
  889MOL0     C19899   7.371   3.427   8.453 -0.3277  0.0379  0.3938
  889MOL0     C19900   7.485   3.415   8.545  0.0680 -0.4272 -0.3113
  889MOL0     C19901   7.614   3.380   8.466 -0.8065 -0.0226  0.6548
  889MOL0     C19902   7.746   3.407   8.545 -0.0316 -0.0520  0.2397
  889MOL0     C19903   7.852   3.327   8.476 -0.5407  0.1640  0.0289
  889MOL0     O19904   7.975   3.333   8.548 -0.6191  0.1147  0.0217
  889MOL0     C19905   8.091   3.262   8.517  1.6984 -0.3355  0.9445
  889MOL0     C19906   8.202   3.276   8.596 -0.8016  0.8778 -0.6198
  889MOL0     C19907   8.328   3.206   8.557 -0.5431  0.4886 -0.2383
  889MOL0     C19908   8.323   3.134   8.442 -0.0731 -0.0206 -0.0614
  889MOL0     C19909   8.460   3.082   8.404  0.3239 -0.4540  0.2914
  889MOL0     O19910   8.576   3.098   8.485 -0.5406 -0.1885  0.6113
  889MOL0     C19911   8.703   3.068   8.433 -0.3889  0.8343  0.0187
  889MOL0     C19912   8.761   3.070   8.299  0.3883  0.8516 -0.0863
  889MOL0     C19913   8.899   3.038   8.275  0.0533  0.1163  0.6235
  889MOL0     C19914   8.989   3.011   8.371 -0.4274  0.2627 -0.1577
  889MOL0     O19915   9.123   2.978   8.346  0.4302 -0.1143  0.0349
  889MOL0     C19916   9.222   3.045   8.419 -0.2569 -0.6715 -0.6830
  889MOL0     C19917   9.352   2.960   8.402 -0.1257  0.3121  0.1082
  889MOL0     C19918   9.436   2.945   8.523  0.2324 -0.2240  0.4207
  889MOL0     C19919   9.554   2.845   8.498  0.7920 -0.2244 -0.3315
  889MOL0     C19920   9.662   2.867   8.613 -0.0093 -0.3560  0.1852
  889MOL0     C19921   9.612   2.833   8.754 -0.3366  0.5311  0.3195
  889MOL0     C19922   9.578   2.679   8.773  0.5519  0.7654  0.7175
  889MOL0     C19923   9.505   2.660   8.908  0.8723 -0.1267 -0.5929
  889MOL0    Cl19924   9.510   2.486   8.954 -0.1139 -0.3096 -0.1055
  889MOL0     C19925   8.935   3.004   8.499  0.5798  0.0977  0.6046
  889MOL0     C19926   8.804   3.029   8.524  0.3862 -0.0837  0.1710
  889MOL0     O19927   8.457   3.031   8.290  0.0323  0.6322 -0.0866
  889MOL0     C19928   8.202   3.113   8.367  0.6133  0.5203  0.5380
  889MOL0     C19929   8.083   3.172   8.408 -0.9310  0.1606 -0.4710
  889MOL0     N19930   7.264   3.345   8.442 -0.0971 -0.0210  0.2786
  889MOL0     N19931   7.182   3.384   8.348 -0.3724  0.4409 -0.1027
  889MOL0     C19932   6.213   3.884   8.428 -0.5400  0.4580  0.5277
  889MOL0     C19933   6.076   3.914   8.421 -0.2341 -0.0907  0.4495
  889MOL0     C19934   5.663   3.766   8.304  0.2564 -0.1508  0.1174
  889MOL0     C19935   5.584   3.647   8.327  0.3945 -0.2725 -0.0025
  889MOL0     C19936   5.446   3.655   8.370 -0.7522  0.2700  0.2813
  889MOL0     C19937   5.384   3.784   8.361  0.5687 -0.5419 -0.3562
  889MOL0     O19938   5.253   3.804   8.396  0.0308 -0.5421  0.0285
  889MOL0     C19939   5.172   3.701   8.444 -0.1901  0.9441  0.1596
  889MOL0     C19940   5.029   3.748   8.479  0.6076  0.5112  0.7600
  889MOL0     C19941   4.919   3.653   8.435 -0.0031 -0.4633 -0.6774
  889MOL0     C19942   4.776   3.695   8.453  0.1718 -0.0409 -0.1548
  889MOL0     C19943   4.684   3.591   8.396  1.0896 -0.2601 -0.2420
  889MOL0     C19944   4.612   3.505   8.352  0.1645 -0.5235  1.0159
  889MOL0     C19945   5.457   3.899   8.332  1.1490  0.0515 -0.1607
  889MOL0     C19946   5.588   3.887   8.298  0.3523 -0.1117 -0.3007
  889MOL0     C19947   5.647   4.029   8.262 -0.3349  0.2194 -0.0165
  889MOL0     H19948   6.030   3.799   8.106  0.9130  1.8888 -0.9222
  889MOL0     H19949   6.277   3.765   8.119 -0.6204 -0.1250  0.0955
  889MOL0     H19950   6.441   3.629   8.234  0.3048  0.9994 -4.5809
  889MOL0     H19951   6.498   3.779   8.162 -0.2806  0.9659  0.9657
  889MOL0     H19952   6.684   3.627   8.274 -1.8915 -1.6258  0.6652
  889MOL0     H19953   6.616   3.671   8.431 -2.3484  3.0748  0.4420
  889MOL0     H19954   6.673   3.890   8.426 -1.6694  2.1342 -1.5611
  889MOL0     H19955   6.684   3.905   8.258 -1.2079  2.4409  3.0588
  889MOL0     H19956   6.893   3.913   8.404 -0.7306 -0.0097  1.6750
  889MOL0     H19957   6.858   3.769   8.475  4.1893  1.9984  0.7892
  889MOL0     H19958   6.921   3.643   8.283  1.6268 -0.1672  1.3802
  889MOL0     H19959   6.910   3.793   8.177  1.5615 -1.3395 -0.7293
  889MOL0     H19960   7.087   3.901   8.303  0.5013 -0.1477  1.2847
  889MOL0     H19961   7.121   3.746   8.388  2.3216  1.5052 -0.4872
  889MOL0     H19962   7.288   3.756   8.231  0.8820  0.0336 -0.8374
  889MOL0     H19963   7.169   3.778   8.101  2.2194  0.8521  0.4449
  889MOL0     H19964   7.080   3.535   8.175  0.6547 -2.7381 -0.1167
  889MOL0     H19965   7.226   3.541   8.089 -2.2276 -0.8284 -0.2315
  889MOL0     H19966   7.436   3.601   8.348 -1.0633  0.6551 -2.7292
  889MOL0     H19967   7.508   3.512   8.590  1.7307  0.1831 -2.3306
  889MOL0     H19968   7.457   3.344   8.623 -1.1753  0.0302 -0.3337
  889MOL0     H19969   7.603   3.275   8.436 -3.0580  0.8033 -1.8428
  889MOL0     H19970   7.631   3.441   8.376  1.0278 -0.3026  0.7731
  889MOL0     H19971   7.740   3.373   8.649  0.5577 -3.2664 -0.6653
  889MOL0     H19972   7.778   3.512   8.546  1.3024 -0.2917 -3.2776
  889MOL0     H19973   7.871   3.365   8.375 -0.8883 -3.0236 -1.3332
  889MOL0     H19974   7.813   3.226   8.461 -1.9873  0.8302 -0.9294
  889MOL0     H19975   8.204   3.338   8.686  2.6698 -1.7791  1.3820
  889MOL0     H19976   8.419   3.222   8.613 -0.5417  0.0619 -0.1132
  889MOL0     H19977   8.693   3.090   8.216 -1.1036 -2.1807  0.2629
  889MOL0     H19978   8.936   3.048   8.173 -0.2230 -1.4794  0.3347
  889MOL0     H19979   9.239   3.144   8.377  0.1258 -1.6738 -3.0970
  889MOL0     H19980   9.202   3.044   8.527  0.0519 -3.1150 -0.5940
  889MOL0     H19981   9.328   2.861   8.363  3.3196  0.2455 -2.3005
  889MOL0     H19982   9.409   3.010   8.323  1.0853 -2.5157 -0.9168
  889MOL0     H19983   9.479   3.044   8.538 -3.7133  1.9400 -1.1142
  889MOL0     H19984   9.370   2.928   8.609  2.1986  0.2775  2.0930
  889MOL0     H19985   9.593   2.849   8.396  0.8662 -4.0593 -0.6161
  889MOL0     H19986   9.507   2.747   8.511 -1.6280  0.9800  0.4907
  889MOL0     H19987   9.707   2.967   8.609  2.3180 -1.3399 -0.0507
  889MOL0     H19988   9.743   2.801   8.582  0.3351  0.3091 -0.3663
  889MOL0     H19989   9.681   2.864   8.832  0.8742  0.0597 -0.5410
  889MOL0     H19990   9.515   2.880   8.774 -0.2632  0.5189  0.7120
  889MOL0     H19991   9.674   2.629   8.790  0.2618 -0.3897 -0.8371
  889MOL0     H19992   9.512   2.634   8.698  0.3476  1.4884  0.4515
  889MOL0     H19993   9.564   2.718   8.979 -0.1904  1.4816 -0.9640
  889MOL0     H19994   9.402   2.698   8.908  1.5263  1.7917  0.3482
  889MOL0     H19995   8.995   2.977   8.586  1.0855 -1.2442 -0.1371
  889MOL0     H19996   8.785   3.011   8.629  1.0440 -2.7729 -0.0891
  889MOL0     H19997   8.199   3.062   8.271 -2.5247  2.5280 -0.5880
  889MOL0     H19998   8.001   3.164   8.337 -0.0636  0.6862 -1.5628
  889MOL0     H19999   6.273   3.882   8.519 -0.9019 -1.4644  0.7731
  889MOL0     H20000   6.026   3.950   8.510 -0.9859  2.2245 -0.8112
  889MOL0     H20001   5.635   3.551   8.334 -0.8503 -0.8649  1.6502
  889MOL0     H20002   5.393   3.570   8.413 -0.5566 -0.7329 -1.3637
  889MOL0     H20003   5.212   3.679   8.543 -0.9774 -3.8282 -0.3352
  889MOL0     H20004   5.168   3.608   8.386 -2.1707  0.1515  1.4456
  889MOL0     H20005   5.007   3.854   8.461 -1.3673 -0.1627 -1.2663
  889MOL0     H20006   5.036   3.748   8.589 -0.6046  0.9722  0.8600
  889MOL0     H20007   4.942   3.557   8.483  2.3139 -1.0366 -2.7551
  889MOL0     H20008   4.946   3.626   8.333 -0.8702 -2.4339 -0.4290
  889MOL0     H20009   4.740   3.716   8.554 -1.0818  1.0381 -0.8024
  889MOL0     H20010   4.764   3.787   8.395 -3.4140 -0.2953 -0.0652
  889MOL0     H20011   4.536   3.455   8.294 -0.7619  2.3080 -0.4341
  889MOL0     H20012   5.407   3.995   8.338  4.0286  2.1586 -4.2949
  889MOL0     H20013   5.569   4.105   8.266  0.1509  0.8432 -1.5347
  889MOL0     H20014   5.729   4.054   8.331  1.4697 -2.7131 -0.9195
  889MOL0     H20015   5.697   4.015   8.166 -0.6714  2.0557 -0.4900
  890MOL0     O20016   8.116   8.923   5.094  0.1563 -0.0439  0.7966
  890MOL0     C20017   8.067   8.842   5.173  1.0720  0.9054 -0.5394
  890MOL0     O20018   8.123   8.727   5.229  0.2386 -0.1369 -0.0277
  890MOL0     C20019   8.235   8.688   5.147  0.0843 -0.2905 -0.4592
  890MOL0     C20020   8.368   8.735   5.164  0.0136  0.1818 -0.0898
  890MOL0     C20021   8.480   8.685   5.086 -0.3665 -1.1821  0.3573
  890MOL0     C20022   8.451   8.600   4.978 -0.4805  0.1427 -0.2397
  890MOL0     O20023   8.552   8.558   4.891  0.1212 -0.3351  0.3568
  890MOL0     C20024   8.671   8.627   4.891 -0.1516 -0.3100 -0.4844
  890MOL0     C20025   8.662   8.764   4.817  0.5661 -0.2690  0.7215
  890MOL0     C20026   8.783   8.850   4.816 -0.4191  0.3435  0.5350
  890MOL0     C20027   8.896   8.790   4.733  0.0802 -0.0208  0.1120
  890MOL0     C20028   9.022   8.854   4.775  1.2272  1.1172  0.1408
  890MOL0     C20029   9.123   8.832   4.674 -0.3840 -0.4211 -0.4469
  890MOL0     C20030   9.256   8.900   4.718 -0.1630  0.0349  0.7198
  890MOL0     C20031   9.374   8.811   4.766  0.0490 -0.2037 -0.6107
  890MOL0     N20032   9.481   8.777   4.672 -0.5388 -0.3336  0.0661
  890MOL0     C20033   9.609   8.821   4.664 -0.6464 -0.6858  0.8723
  890MOL0     C20034   9.662   8.760   4.553  0.4727  1.1394 -0.3393
  890MOL0     C20035   9.806   8.762   4.513 -0.2058 -0.5071 -0.6349
  890MOL0     C20036   9.881   8.892   4.495 -0.6209 -1.0376  0.4687
  890MOL0     C20037   9.794   8.997   4.426 -0.0829  1.7121  0.2517
  890MOL0     C20038   9.879   9.095   4.350 -0.6813 -0.0499 -0.2555
  890MOL0     O20039   9.968   9.167   4.433 -0.6208 -0.6884 -0.2773
  890MOL0     C20040  10.064   9.239   4.377 -0.2858  0.2932  0.6636
  890MOL0     C20041  10.155   9.306   4.458 -0.0627 -0.2649  0.4796
  890MOL0     C20042  10.263   9.381   4.399  0.2506 -0.8309 -0.1914
  890MOL0     C20043  10.287   9.383   4.265  0.2502  0.5137 -0.2022
  890MOL0     C20044  10.408   9.440   4.203 -0.3308 -0.5151  0.0506
  890MOL0     O20045  10.511   9.484   4.288  0.1443 -0.5970  0.3615
  890MOL0     C20046  10.635   9.516   4.232  0.3481  0.4062  0.4243
  890MOL0     C20047  10.741   9.462   4.304 -0.3127  0.7574 -0.6219
  890MOL0     C20048  10.871   9.468   4.248 -0.5650 -0.3506 -0.6775
  890MOL0     C20049  10.897   9.526   4.121 -0.0339 -0.3748  0.1689
  890MOL0     O20050  11.024   9.543   4.067  0.4074  0.0527 -0.0319
  890MOL0     C20051  11.124   9.451   4.093 -0.3508  0.0536  0.3823
  890MOL0     C20052  11.247   9.488   4.009  0.9887  0.0521 -0.3202
  890MOL0     C20053  11.316   9.612   4.078 -0.1648  0.1748 -0.0128
  890MOL0     C20054  11.463   9.611   4.054  1.3360 -0.1075  0.3725
  890MOL0     C20055  11.532   9.712   4.157 -0.2388  0.8020  0.1764
  890MOL0     C20056  11.650   9.776   4.087  0.4511 -0.2435 -0.3395
  890MOL0     C20057  11.720   9.887   4.170 -0.1829  0.5142 -0.9594
  890MOL0     C20058  11.829   9.828   4.260  0.4992 -0.4256  1.0398
  890MOL0    Cl20059  11.956   9.777   4.153 -0.6032 -0.0054  0.1701
  890MOL0     C20060  10.788   9.582   4.057 -0.4315 -0.0586  0.2025
  890MOL0     C20061  10.662   9.576   4.107  0.6480  0.7084 -0.6289
  890MOL0     O20062  10.411   9.456   4.077  0.2611 -0.9240 -0.0497
  890MOL0     C20063  10.195   9.314   4.181  0.5319 -0.2990  0.3313
  890MOL0     C20064  10.089   9.247   4.238 -0.3221 -0.0529 -0.1162
  890MOL0     N20065   9.566   8.690   4.486 -0.1783 -0.1799 -1.0493
  890MOL0     N20066   9.454   8.704   4.560  0.1471 -0.8080  0.0887
  890MOL0     C20067   8.319   8.558   4.961 -0.0345  0.2178 -0.2552
  890MOL0     C20068   8.212   8.600   5.043  0.7213  0.6613 -0.0413
  890MOL0     C20069   7.931   8.871   5.233 -0.2458  0.5278 -0.4230
  890MOL0     C20070   7.859   8.765   5.299  0.3002  0.0676  0.2739
  890MOL0     C20071   7.723   8.771   5.338  0.8467 -0.6506 -0.7298
  890MOL0     C20072   7.651   8.895   5.312  0.1794  0.4894 -0.1386
  890MOL0     O20073   7.515   8.917   5.336 -0.6159 -0.1777 -0.1092
  890MOL0     C20074   7.435   8.807   5.361 -0.1448  0.6368 -0.8843
  890MOL0     C20075   7.315   8.864   5.437 -0.2042 -0.0597 -0.0862
  890MOL0     C20076   7.225   8.735   5.447  0.2872 -0.9260 -0.0570
  890MOL0     C20077   7.099   8.755   5.539  0.8373 -0.9896  0.4725
  890MOL0     C20078   7.135   8.740   5.681  0.0849 -0.3477 -0.6920
  890MOL0     C20079   7.170   8.724   5.797 -1.2801 -0.0901 -0.2533
  890MOL0     C20080   7.715   9.004   5.255 -0.4538 -0.1022 -0.5057
  890MOL0     C20081   7.853   8.992   5.219 -0.5302 -0.3033  0.1299
  890MOL0     C20082   7.911   9.127   5.184 -0.1475  0.6453 -0.3893
  890MOL0     H20083   8.402   8.802   5.241 -2.6159 -1.5856  2.8203
  890MOL0     H20084   8.574   8.739   5.091  0.1259 -2.1084  1.5511
  890MOL0     H20085   8.728   8.641   4.984  1.0967  1.0760 -1.4110
  890MOL0     H20086   8.744   8.569   4.833  1.7577  2.6049 -1.2385
  890MOL0     H20087   8.583   8.831   4.852  2.5059  1.4078  2.0678
  890MOL0     H20088   8.637   8.751   4.711  0.9604 -0.3861  0.6430
  890MOL0     H20089   8.815   8.874   4.918  2.2269 -0.8013  0.0757
  890MOL0     H20090   8.752   8.940   4.762 -3.3984 -2.4589 -3.0155
  890MOL0     H20091   8.898   8.682   4.752 -1.8868 -0.1691 -0.3404
  890MOL0     H20092   8.869   8.793   4.627 -2.1832  1.3086  0.6750
  890MOL0     H20093   9.014   8.963   4.783  0.3283  0.9851  1.4163
  890MOL0     H20094   9.046   8.815   4.874 -3.6139  2.2616  2.0570
  890MOL0     H20095   9.143   8.726   4.657 -0.0799 -0.7933  1.9014
  890MOL0     H20096   9.108   8.884   4.579  1.1681  1.5512  0.3227
  890MOL0     H20097   9.231   8.972   4.796 -0.4138 -0.1383  0.8007
  890MOL0     H20098   9.299   8.949   4.631 -4.1888  1.7890 -0.5054
  890MOL0     H20099   9.420   8.864   4.850 -0.4460  2.0568 -1.7085
  890MOL0     H20100   9.337   8.720   4.816  4.3002 -2.0976 -0.4544
  890MOL0     H20101   9.661   8.889   4.731  1.7300  0.2603 -1.7541
  890MOL0     H20102   9.870   8.702   4.578  0.1832 -1.0307 -1.4949
  890MOL0     H20103   9.811   8.703   4.422  1.8081 -3.0684  0.9862
  890MOL0     H20104   9.924   8.940   4.584 -0.1893  1.8564 -1.1510
  890MOL0     H20105   9.966   8.876   4.428  1.0929 -0.6940  2.4131
  890MOL0     H20106   9.730   9.050   4.497 -1.9086 -1.2823  0.9816
  890MOL0     H20107   9.743   8.935   4.353 -1.6558 -0.1552  2.7655
  890MOL0     H20108   9.808   9.173   4.322  0.9746  1.4648 -0.4368
  890MOL0     H20109   9.926   9.047   4.264 -0.8311  1.9579 -1.5037
  890MOL0     H20110  10.150   9.311   4.566  3.5047  0.8471  0.7414
  890MOL0     H20111  10.334   9.439   4.458  1.0725 -0.2871 -1.6505
  890MOL0     H20112  10.742   9.411   4.400  0.6747 -2.9779 -2.4389
  890MOL0     H20113  10.939   9.419   4.315 -3.0548 -0.4849  1.9410
  890MOL0     H20114  11.154   9.452   4.198 -1.9482  1.9024  0.8750
  890MOL0     H20115  11.083   9.356   4.057 -2.0150  0.3295  1.4450
  890MOL0     H20116  11.314   9.402   4.022  2.9269  1.8815  3.6252
  890MOL0     H20117  11.225   9.497   3.903  1.0092 -1.1686 -0.4388
  890MOL0     H20118  11.265   9.697   4.033 -0.1654 -1.1859 -2.7833
  890MOL0     H20119  11.292   9.615   4.185 -1.4852  2.0071 -0.3299
  890MOL0     H20120  11.484   9.626   3.948  3.6467 -1.8689  0.4707
  890MOL0     H20121  11.499   9.509   4.074 -0.5009 -0.6144  1.2568
  890MOL0     H20122  11.556   9.653   4.246  0.3019  2.5123  1.2136
  890MOL0     H20123  11.463   9.792   4.186 -1.2409 -0.8820  2.8028
  890MOL0     H20124  11.724   9.700   4.061  1.5378  0.1489  1.4178
  890MOL0     H20125  11.613   9.812   3.991 -1.5171  0.5103  0.6470
  890MOL0     H20126  11.650   9.940   4.234  0.2659  0.2155 -0.2091
  890MOL0     H20127  11.770   9.956   4.102  2.2232  1.2506  1.4297
  890MOL0     H20128  11.867   9.902   4.331  2.4308 -1.6029  1.2814
  890MOL0     H20129  11.774   9.753   4.318  1.0102 -1.2207  0.5136
  890MOL0     H20130  10.812   9.636   3.966  4.1810 -1.1242  0.5147
  890MOL0     H20131  10.574   9.625   4.067  0.2845 -0.7623 -1.7044
  890MOL0     H20132  10.216   9.318   4.074 -0.1951 -2.1130  0.0750
  890MOL0     H20133  10.025   9.201   4.164  0.6136 -1.0233 -0.3377
  890MOL0     H20134   8.311   8.488   4.878 -0.4430 -0.5374  0.4001
  890MOL0     H20135   8.111   8.570   5.016  0.5757  0.6983  0.4469
  890MOL0     H20136   7.910   8.671   5.319 -2.5224 -1.8178 -0.7810
  890MOL0     H20137   7.679   8.681   5.379 -1.5014  1.4067  1.6038
  890MOL0     H20138   7.471   8.716   5.409 -1.7447 -2.1651 -4.4540
  890MOL0     H20139   7.400   8.761   5.268 -0.8409 -1.3387  0.3040
  890MOL0     H20140   7.266   8.951   5.391  2.1356  2.3482  1.6891
  890MOL0     H20141   7.344   8.890   5.539 -1.2961 -1.5874  0.6531
  890MOL0     H20142   7.276   8.657   5.503  0.4977 -1.7598 -1.3885
  890MOL0     H20143   7.195   8.712   5.345 -2.2667  0.5608  0.2554
  890MOL0     H20144   7.050   8.852   5.528  1.4062 -0.8195 -0.7181
  890MOL0     H20145   7.030   8.677   5.504  0.0198  1.0595 -2.9329
  890MOL0     H20146   7.208   8.692   5.892 -3.2384 -0.9444  0.2880
  890MOL0     H20147   7.657   9.096   5.248  0.0575  0.4762  1.9372
  890MOL0     H20148   7.906   9.142   5.076  2.8121 -0.0999 -0.7147
  890MOL0     H20149   7.863   9.204   5.245  1.2134  0.4326  1.0137
  890MOL0     H20150   8.015   9.126   5.218 -0.1434  1.5294 -0.3644
  891MOL0     O20151   6.661   0.611   0.194 -0.0140 -0.7377 -0.1319
  891MOL0     C20152   6.679   0.704   0.279 -0.5711  1.0460 -0.1405
  891MOL0     O20153   6.803   0.762   0.307  0.2184 -0.3266  0.3418
  891MOL0     C20154   6.907   0.744   0.212 -0.7637 -0.4819 -0.7488
  891MOL0     C20155   7.029   0.702   0.253  0.4573  0.0468 -0.1489
  891MOL0     C20156   7.128   0.684   0.156 -0.8522 -0.0412  0.0400
  891MOL0     C20157   7.113   0.711   0.022  0.0512  0.6432  1.1039
  891MOL0     O20158   7.205   0.710  -0.080  0.6516 -0.0688  0.2899
  891MOL0     C20159   7.348   0.699  -0.058  0.5870 -0.1271  0.0796
  891MOL0     C20160   7.401   0.610  -0.169 -0.3266 -0.7335  0.7645
  891MOL0     C20161   7.546   0.584  -0.129 -0.5062  0.2970  0.0925
  891MOL0     C20162   7.620   0.532  -0.255 -0.5151  0.2248  0.5519
  891MOL0     C20163   7.767   0.555  -0.229  0.1052 -0.1328 -0.2767
  891MOL0     C20164   7.853   0.583  -0.363  0.1616  0.6273  0.2404
  891MOL0     C20165   8.004   0.573  -0.344 -0.0036 -0.3963 -0.3523
  891MOL0     C20166   8.063   0.433  -0.342  1.7714 -0.0502 -0.0013
  891MOL0     N20167   8.196   0.439  -0.292 -1.0796 -0.8088  0.0943
  891MOL0     C20168   8.235   0.458  -0.157  0.4073 -0.2445 -0.9297
  891MOL0     C20169   8.365   0.466  -0.153  0.9352 -0.4827  0.4122
  891MOL0     C20170   8.444   0.474  -0.016 -0.2173 -0.2095 -0.5849
  891MOL0     C20171   8.497   0.338   0.026 -0.1307 -0.4307  0.9589
  891MOL0     C20172   8.383   0.251   0.075 -0.5568  0.8051 -0.6277
  891MOL0     C20173   8.421   0.095   0.079 -0.4149 -0.7260  0.5828
  891MOL0     O20174   8.451   0.047   0.208 -0.5507 -0.6751  0.0937
  891MOL0     C20175   8.567   0.100   0.255  0.4695  0.6606 -0.2678
  891MOL0     C20176   8.565   0.161   0.378 -0.2878  0.6799 -0.5540
  891MOL0     C20177   8.688   0.198   0.437  0.3837 -0.1924 -0.0607
  891MOL0     C20178   8.806   0.191   0.373  0.2198  0.1700  0.0091
  891MOL0     C20179   8.937   0.239   0.436  0.1281 -0.3300  0.6567
  891MOL0     O20180   8.948   0.228   0.571 -0.2901  0.3405 -0.6607
  891MOL0     C20181   9.065   0.237   0.636 -0.5398 -0.2404  0.5119
  891MOL0     C20182   9.087   0.306   0.758 -0.4749 -0.4763 -0.3569
  891MOL0     C20183   9.212   0.328   0.815 -0.7616  0.5031  0.6200
  891MOL0     C20184   9.326   0.271   0.757  0.2172  0.3345 -0.4802
  891MOL0     O20185   9.450   0.294   0.802 -0.9634  0.1401 -0.8599
  891MOL0     C20186   9.474   0.381   0.911 -0.2719  0.7738 -0.7189
  891MOL0     C20187   9.623   0.386   0.952  0.6220  0.4513 -0.7775
  891MOL0     C20188   9.717   0.409   0.830  0.2809  0.0633 -0.4036
  891MOL0     C20189   9.853   0.434   0.884 -0.2292  0.6118 -1.5435
  891MOL0     C20190   9.964   0.465   0.783  0.4962 -0.3770 -0.5232
  891MOL0     C20191   9.958   0.600   0.718 -0.2968 -0.5222  0.7352
  891MOL0     C20192  10.091   0.623   0.642  0.1165  0.2557 -0.1346
  891MOL0     C20193  10.091   0.735   0.541 -0.0669 -0.2631  0.9114
  891MOL0    Cl20194  10.100   0.897   0.627  0.1087  0.0850 -0.4993
  891MOL0     C20195   9.314   0.190   0.648  0.2199  1.0032  1.4005
  891MOL0     C20196   9.190   0.185   0.584  0.5094 -0.3389  0.7196
  891MOL0     O20197   9.023   0.293   0.367 -0.4964 -0.3606  0.9410
  891MOL0     C20198   8.809   0.141   0.244 -0.3066  0.1749 -0.8647
  891MOL0     C20199   8.687   0.087   0.190 -0.8005 -0.3074  0.4362
  891MOL0     N20200   8.414   0.456  -0.280 -0.0768  0.3443  0.2718
  891MOL0     N20201   8.314   0.445  -0.364 -0.3749 -0.5795  0.3844
  891MOL0     C20202   6.992   0.767  -0.013  0.1188  0.4785  0.5315
  891MOL0     C20203   6.880   0.786   0.078 -0.6750 -0.7530 -0.0018
  891MOL0     C20204   6.566   0.764   0.353 -0.2002 -0.8724  1.2817
  891MOL0     C20205   6.560   0.907   0.366  0.5324  0.7432  0.5374
  891MOL0     C20206   6.450   0.971   0.429  0.1406 -0.2062  0.6577
  891MOL0     C20207   6.336   0.904   0.469 -0.2769  0.4874  0.3150
  891MOL0     O20208   6.234   0.971   0.525 -0.6567  0.6316  0.8911
  891MOL0     C20209   6.126   0.910   0.592 -0.3242  0.1194  0.3310
  891MOL0     C20210   6.156   0.874   0.743  0.8453 -0.0854  0.5362
  891MOL0     C20211   6.015   0.878   0.807 -0.1692 -0.2313  0.8723
  891MOL0     C20212   6.011   0.851   0.956  0.3328  0.0368  0.5077
  891MOL0     C20213   6.008   0.964   1.044 -0.0354 -0.5802 -0.7401
  891MOL0     C20214   5.975   1.059   1.107  0.2802  0.8154 -0.9510
  891MOL0     C20215   6.342   0.761   0.471 -0.9160 -0.8432 -0.1557
  891MOL0     C20216   6.458   0.698   0.409  0.0619  0.1554  0.5002
  891MOL0     C20217   6.455   0.544   0.415  0.0966  0.2253  0.7216
  891MOL0     H20218   7.038   0.664   0.355 -2.5352  1.2490  0.6758
  891MOL0     H20219   7.217   0.640   0.200 -0.7879  2.0278  2.1567
  891MOL0     H20220   7.389   0.800  -0.069  0.2872  0.0353  0.4407
  891MOL0     H20221   7.374   0.660   0.041  0.5634 -1.3269 -0.3770
  891MOL0     H20222   7.392   0.659  -0.266  1.6654 -2.6181 -0.4813
  891MOL0     H20223   7.342   0.518  -0.165  1.0844 -1.7217 -0.0724
  891MOL0     H20224   7.547   0.501  -0.058 -1.0281  1.0863  1.0569
  891MOL0     H20225   7.597   0.675  -0.095  0.9763  0.1935 -1.6712
  891MOL0     H20226   7.587   0.429  -0.264 -1.2459  0.4362  0.7487
  891MOL0     H20227   7.600   0.592  -0.344  1.3874  0.5834  0.3242
  891MOL0     H20228   7.794   0.631  -0.155 -2.4305 -1.7455  2.5303
  891MOL0     H20229   7.807   0.469  -0.174 -2.4908 -0.6552  0.9317
  891MOL0     H20230   7.839   0.509  -0.442  0.8276 -0.9085  1.5216
  891MOL0     H20231   7.817   0.677  -0.407  0.1318  0.9653  0.9746
  891MOL0     H20232   8.029   0.609  -0.244 -0.6445  0.2222 -0.4067
  891MOL0     H20233   8.061   0.628  -0.419  0.1200  1.0005  0.7363
  891MOL0     H20234   7.992   0.378  -0.280  1.8778 -1.0760 -0.7742
  891MOL0     H20235   8.051   0.385  -0.439 -1.5277 -1.0220  0.7709
  891MOL0     H20236   8.168   0.481  -0.074  0.6026  3.0956 -1.5710
  891MOL0     H20237   8.536   0.525  -0.047 -1.0250  1.1126 -0.8893
  891MOL0     H20238   8.398   0.531   0.066  2.3460  1.1799  0.0080
  891MOL0     H20239   8.555   0.297  -0.057  0.1896  0.1783  0.8760
  891MOL0     H20240   8.554   0.367   0.115  0.5747  4.0113 -0.6957
  891MOL0     H20241   8.295   0.256   0.009  0.4177  0.7893 -1.9760
  891MOL0     H20242   8.349   0.283   0.174  1.5079 -1.3211  0.8587
  891MOL0     H20243   8.497   0.077   0.003  0.1241  0.8106  0.7228
  891MOL0     H20244   8.330   0.044   0.047 -0.8349  0.6253 -0.5182
  891MOL0     H20245   8.468   0.176   0.425 -0.2114 -0.4832  0.0225
  891MOL0     H20246   8.680   0.251   0.532 -2.9254  1.5819 -1.1736
  891MOL0     H20247   8.990   0.339   0.795 -0.2639  0.3119 -0.5004
  891MOL0     H20248   9.220   0.381   0.910 -2.3905  0.7280  0.6595
  891MOL0     H20249   9.434   0.480   0.887  0.0061  1.3513  1.0635
  891MOL0     H20250   9.423   0.338   0.998 -0.5099 -2.6249 -2.3581
  891MOL0     H20251   9.641   0.460   1.032  0.6207  1.0068 -1.2836
  891MOL0     H20252   9.647   0.288   0.993 -3.3896 -1.1140 -1.7080
  891MOL0     H20253   9.711   0.322   0.764 -3.5910  0.2961 -0.5990
  891MOL0     H20254   9.674   0.487   0.767 -2.6548 -1.3728 -0.3434
  891MOL0     H20255   9.881   0.345   0.940 -1.8170  1.6687  1.1268
  891MOL0     H20256   9.845   0.520   0.952  2.2843 -1.8450  2.2134
  891MOL0     H20257   9.944   0.380   0.717 -2.2040 -1.1276  1.0702
  891MOL0     H20258  10.063   0.452   0.826  0.6120  0.8802 -0.3807
  891MOL0     H20259   9.872   0.589   0.651 -1.0957  0.1766  1.6137
  891MOL0     H20260   9.929   0.681   0.786 -1.8785 -1.1621  0.8724
  891MOL0     H20261  10.119   0.531   0.591 -0.4201  0.4224 -0.7380
  891MOL0     H20262  10.172   0.639   0.715 -0.5044 -2.2323  1.2243
  891MOL0     H20263  10.192   0.732   0.499  0.1695  3.2801  0.9399
  891MOL0     H20264  10.011   0.738   0.466  0.8518  1.3871 -0.0538
  891MOL0     H20265   9.402   0.147   0.601  0.4399  2.0489  0.8233
  891MOL0     H20266   9.193   0.142   0.485 -0.3807  1.0890  0.0414
  891MOL0     H20267   8.901   0.138   0.186 -0.7212  1.7786 -1.6797
  891MOL0     H20268   8.699   0.042   0.092  3.8098 -0.8121  0.9844
  891MOL0     H20269   6.973   0.776  -0.120 -0.9497 -1.0036  0.5683
  891MOL0     H20270   6.788   0.833   0.044 -1.4968  0.9792  4.0372
  891MOL0     H20271   6.643   0.971   0.342 -0.8219  1.9396 -1.2090
  891MOL0     H20272   6.442   1.077   0.451 -1.9736 -0.0561 -0.5186
  891MOL0     H20273   6.086   0.826   0.534 -2.5957  2.4368 -1.7181
  891MOL0     H20274   6.043   0.981   0.579 -2.6460 -2.6275 -1.1889
  891MOL0     H20275   6.215   0.956   0.785  2.2798  0.5796 -2.5477
  891MOL0     H20276   6.199   0.773   0.749  1.7945  0.1171 -1.9792
  891MOL0     H20277   5.964   0.792   0.763  0.3745 -0.5602  0.8785
  891MOL0     H20278   5.955   0.967   0.788 -1.3580 -0.9399  1.1657
  891MOL0     H20279   5.920   0.801   0.991  0.4613 -0.5298  0.0458
  891MOL0     H20280   6.093   0.784   0.982  0.0660 -0.0783  1.0741
  891MOL0     H20281   5.953   1.139   1.173 -0.0905 -0.4892  0.5553
  891MOL0     H20282   6.267   0.705   0.525  1.0056 -1.0509  2.4829
  891MOL0     H20283   6.490   0.497   0.322 -3.3036 -0.0651 -0.5303
  891MOL0     H20284   6.531   0.517   0.490  3.3508  0.2387 -2.2853
  891MOL0     H20285   6.362   0.491   0.435  0.5717 -0.5221  1.0090
  892MOL0     O20286   0.012   0.792   0.174  0.0803 -0.2151  0.0627
  892MOL0     C20287   0.057   0.700   0.240  0.1987  0.1520  0.5807
  892MOL0     O20288   0.191   0.682   0.267  0.4504 -0.1988 -0.8640
  892MOL0     C20289   0.283   0.746   0.185 -0.1079 -0.2910  0.0676
  892MOL0     C20290   0.378   0.672   0.106  0.1912 -0.9865  0.4805
  892MOL0     C20291   0.483   0.725   0.034  1.1112  0.3374 -0.6391
  892MOL0     C20292   0.483   0.863   0.022 -0.3636 -0.1037  0.7262
  892MOL0     O20293   0.578   0.913  -0.071  0.6229  0.0185  0.2478
  892MOL0     C20294   0.573   1.037  -0.156  0.4675  0.4605 -0.5081
  892MOL0     C20295   0.511   1.009  -0.288  0.0252  0.7709 -0.3891
  892MOL0     C20296   0.543   1.107  -0.395 -0.3893  0.4901  0.0416
  892MOL0     C20297   0.478   1.053  -0.526  0.4987 -0.0935 -0.2185
  892MOL0     C20298   0.446   1.171  -0.608 -0.4124  0.1236  0.3094
  892MOL0     C20299   0.327   1.256  -0.570 -0.8207 -0.3984 -0.5516
  892MOL0     C20300   0.295   1.356  -0.679  0.9078  0.2032 -0.7810
  892MOL0     C20301   0.224   1.290  -0.798 -0.8513  0.0748 -0.2507
  892MOL0     N20302   0.186   1.375  -0.907 -0.0325  0.3787  0.8688
  892MOL0     C20303   0.068   1.443  -0.910  0.3227  0.0715 -1.8439
  892MOL0     C20304   0.046   1.471  -1.040  0.3313  0.3021  0.4376
  892MOL0     C20305  -0.068   1.556  -1.097  0.1348 -0.5708 -0.3067
  892MOL0     C20306  -0.193   1.470  -1.131 -0.1521 -0.0283  1.0993
  892MOL0     C20307  -0.263   1.394  -1.023  0.3438 -0.4027  0.4390
  892MOL0     C20308  -0.368   1.479  -0.951 -0.3789  0.3203  0.5096
  892MOL0     O20309  -0.333   1.598  -0.876 -0.2288  0.6183  0.1249
  892MOL0     C20310  -0.257   1.567  -0.768  0.0238 -1.6113  0.5500
  892MOL0     C20311  -0.176   1.673  -0.727 -0.5315 -0.3152  1.5967
  892MOL0     C20312  -0.079   1.665  -0.621 -0.1808 -0.9549  0.7760
  892MOL0     C20313  -0.075   1.544  -0.550 -0.6145 -0.0987 -0.5345
  892MOL0     C20314  -0.002   1.541  -0.424 -0.7351  0.7404  0.4528
  892MOL0     O20315  -0.002   1.425  -0.350 -0.9965  0.5039  0.9200
  892MOL0     C20316   0.047   1.435  -0.225  0.1028  0.2430 -0.6036
  892MOL0     C20317   0.188   1.426  -0.205  1.1103 -0.5887  0.1935
  892MOL0     C20318   0.237   1.424  -0.084  0.3045 -1.0482 -0.5030
  892MOL0     C20319   0.161   1.408   0.030  0.1187 -0.0968 -0.6526
  892MOL0     O20320   0.225   1.368   0.151 -0.4662 -0.3879 -0.7382
  892MOL0     C20321   0.153   1.288   0.248 -0.2763  0.6070  0.3280
  892MOL0     C20322   0.229   1.297   0.378 -0.6579  0.6895 -0.2609
  892MOL0     C20323   0.372   1.222   0.395  0.2709 -0.3966 -0.1617
  892MOL0     C20324   0.408   1.201   0.550 -0.1310  0.1179 -0.0873
  892MOL0     C20325   0.452   1.321   0.633  1.1092  0.0662  0.0398
  892MOL0     C20326   0.564   1.405   0.578 -0.0663 -1.1565  0.0853
  892MOL0     C20327   0.590   1.522   0.672 -0.1560  0.5573 -0.1737
  892MOL0     C20328   0.744   1.561   0.675  0.3229  0.2634  1.0783
  892MOL0    Cl20329   0.778   1.702   0.775 -0.1384 -0.0910 -0.1782
  892MOL0     C20330   0.026   1.415   0.017 -0.2075 -0.8438 -0.1599
  892MOL0     C20331  -0.031   1.428  -0.108  0.6025 -0.5048 -0.3154
  892MOL0     O20332   0.042   1.647  -0.385 -0.2915 -0.0626 -0.9822
  892MOL0     C20333  -0.145   1.431  -0.601 -0.9470  0.4392  0.0851
  892MOL0     C20334  -0.237   1.441  -0.708  0.3494 -0.2970  0.1070
  892MOL0     N20335   0.148   1.420  -1.112 -0.6845 -0.6012 -0.4423
  892MOL0     N20336   0.226   1.355  -1.035  0.2897 -0.0410 -0.1484
  892MOL0     C20337   0.400   0.942   0.096  0.0227 -0.2649  0.2158
  892MOL0     C20338   0.293   0.888   0.176 -0.2539  1.0387  0.3796
  892MOL0     C20339  -0.034   0.614   0.312  0.2704  1.1834 -0.3874
  892MOL0     C20340   0.014   0.520   0.409 -0.2191 -0.4714 -0.5141
  892MOL0     C20341  -0.069   0.425   0.456  0.2075 -0.2057  0.6093
  892MOL0     C20342  -0.209   0.423   0.429  0.0126  0.3848 -0.7163
  892MOL0     O20343  -0.302   0.336   0.482 -0.0685  0.1700  1.0790
  892MOL0     C20344  -0.276   0.291   0.615 -1.1245 -0.2442  0.5992
  892MOL0     C20345  -0.413   0.266   0.679 -0.5260 -0.1958  0.7634
  892MOL0     C20346  -0.496   0.140   0.611  0.1175 -0.8697 -0.0520
  892MOL0     C20347  -0.634   0.117   0.673 -0.0841  0.9066  0.1581
  892MOL0     C20348  -0.622   0.097   0.819 -0.3816 -0.3744 -0.1473
  892MOL0     C20349  -0.623   0.073   0.936 -0.2540 -0.4857 -0.4955
  892MOL0     C20350  -0.255   0.513   0.339 -0.0249 -0.7058 -0.0646
  892MOL0     C20351  -0.172   0.612   0.283  0.3116 -0.6165 -0.1413
  892MOL0     C20352  -0.253   0.721   0.216 -0.4983  0.0008  0.4937
  892MOL0     H20353   0.372   0.563   0.107  1.9549 -1.1351 -0.3381
  892MOL0     H20354   0.538   0.654  -0.026 -1.6687 -0.2680 -2.6711
  892MOL0     H20355   0.529   1.126  -0.111  0.5071  0.2583 -0.0538
  892MOL0     H20356   0.678   1.066  -0.166  1.5570 -2.8363  0.0700
  892MOL0     H20357   0.402   1.001  -0.275  0.1089  0.3576  0.1175
  892MOL0     H20358   0.551   0.915  -0.326  3.1641  1.5825  0.6466
  892MOL0     H20359   0.650   1.124  -0.411 -0.8531  1.0830 -3.1054
  892MOL0     H20360   0.497   1.204  -0.373 -0.5920  0.4621 -0.2537
  892MOL0     H20361   0.549   0.985  -0.574 -1.6261 -1.8391 -1.0099
  892MOL0     H20362   0.378   1.011  -0.516  0.5460 -0.5604 -1.4295
  892MOL0     H20363   0.536   1.233  -0.616  1.7571 -3.0070 -3.4504
  892MOL0     H20364   0.437   1.134  -0.711 -0.7617 -3.4833  1.4960
  892MOL0     H20365   0.236   1.197  -0.556 -1.1298  0.1986  0.0003
  892MOL0     H20366   0.350   1.296  -0.471 -1.0354  1.5131 -1.2329
  892MOL0     H20367   0.381   1.407  -0.724 -0.3257  1.5732 -1.6841
  892MOL0     H20368   0.237   1.429  -0.622  1.6229 -0.6790  1.1788
  892MOL0     H20369   0.290   1.215  -0.842  0.8698  0.7807  1.0053
  892MOL0     H20370   0.134   1.245  -0.756 -1.3484  1.9242  0.7802
  892MOL0     H20371  -0.006   1.463  -0.833  1.2964 -0.6842 -0.6681
  892MOL0     H20372  -0.100   1.628  -1.021  1.1469  0.7558 -1.1111
  892MOL0     H20373  -0.038   1.612  -1.186 -1.1179 -2.3932 -1.9675
  892MOL0     H20374  -0.255   1.532  -1.197  0.3798  0.0463  0.6695
  892MOL0     H20375  -0.156   1.391  -1.195 -1.7966  1.6603 -2.1744
  892MOL0     H20376  -0.186   1.353  -0.957  0.0640 -2.7131 -0.5980
  892MOL0     H20377  -0.323   1.313  -1.063  0.5700  0.4188 -1.6835
  892MOL0     H20378  -0.433   1.412  -0.893 -2.0629  0.3799 -1.2259
  892MOL0     H20379  -0.440   1.514  -1.025 -2.2068  1.7399  2.8254
  892MOL0     H20380  -0.191   1.764  -0.784 -0.8718 -0.9363  0.6811
  892MOL0     H20381  -0.014   1.750  -0.606 -1.1078  0.4468 -2.2806
  892MOL0     H20382   0.244   1.433  -0.297 -1.6986  1.9123 -1.5432
  892MOL0     H20383   0.344   1.413  -0.067  0.2548 -0.9753 -0.1484
  892MOL0     H20384   0.057   1.337   0.265  0.9493  2.3051  2.9021
  892MOL0     H20385   0.154   1.184   0.213  2.1533  1.1042 -1.3426
  892MOL0     H20386   0.236   1.399   0.417 -0.7966  1.0737 -1.2306
  892MOL0     H20387   0.167   1.247   0.454  1.9531  0.6596  2.0142
  892MOL0     H20388   0.348   1.125   0.352 -0.7817 -1.7517  3.1273
  892MOL0     H20389   0.444   1.284   0.341  1.6814 -1.0367  0.9233
  892MOL0     H20390   0.481   1.121   0.561  1.3822  1.6178  1.5329
  892MOL0     H20391   0.317   1.159   0.595  1.1522 -0.6196  1.9560
  892MOL0     H20392   0.472   1.283   0.734  2.5566  0.1668 -0.1845
  892MOL0     H20393   0.360   1.379   0.635  1.9314  1.5442 -2.0250
  892MOL0     H20394   0.649   1.341   0.554 -1.0149 -1.5350 -2.5982
  892MOL0     H20395   0.538   1.449   0.482  4.7766 -0.2643 -1.0748
  892MOL0     H20396   0.546   1.485   0.765 -0.2399 -3.5099 -1.6661
  892MOL0     H20397   0.535   1.612   0.640  0.2848  0.1981 -2.1130
  892MOL0     H20398   0.803   1.477   0.713  0.0625  0.2950  1.5592
  892MOL0     H20399   0.780   1.586   0.575  0.6755  4.1042  2.0009
  892MOL0     H20400  -0.043   1.413   0.101 -0.9050  0.5016 -0.6848
  892MOL0     H20401  -0.139   1.440  -0.112  0.7588  0.9791 -0.7663
  892MOL0     H20402  -0.134   1.341  -0.542  0.2114  2.2736  2.8737
  892MOL0     H20403  -0.296   1.355  -0.739  0.4212 -0.3525  0.1232
  892MOL0     H20404   0.393   1.049   0.086 -2.1874 -0.3655  0.1100
  892MOL0     H20405   0.220   0.949   0.229 -0.1270  0.8413  0.7876
  892MOL0     H20406   0.117   0.514   0.442 -0.2167 -0.2054 -0.4719
  892MOL0     H20407  -0.027   0.358   0.531 -1.7873 -1.1368  0.9557
  892MOL0     H20408  -0.221   0.373   0.662 -1.7021  0.0104  0.8447
  892MOL0     H20409  -0.225   0.195   0.623  0.8474  0.9248  3.7006
  892MOL0     H20410  -0.487   0.346   0.672 -2.4073 -1.9363 -1.0260
  892MOL0     H20411  -0.396   0.251   0.786  1.2162 -1.3776  0.3552
  892MOL0     H20412  -0.435   0.051   0.630 -0.3568 -0.9946  0.9278
  892MOL0     H20413  -0.506   0.162   0.504  1.0668  0.0123  0.0183
  892MOL0     H20414  -0.704   0.199   0.659 -0.9186  0.2568  0.4179
  892MOL0     H20415  -0.673   0.025   0.627 -0.9292 -0.9673  4.1519
  892MOL0     H20416  -0.641   0.065   1.041  4.2182 -0.8546  0.4793
  892MOL0     H20417  -0.361   0.509   0.318 -0.2564 -0.7788  1.0480
  892MOL0     H20418  -0.274   0.792   0.296  1.4779  1.7075 -0.3835
  892MOL0     H20419  -0.204   0.755   0.124 -0.5175 -0.2158  0.4039
  892MOL0     H20420  -0.354   0.691   0.189 -0.5609  1.0960 -0.5825
  893MOL0     O20421   6.780   4.811   3.094  0.1429 -0.0676  0.6054
  893MOL0     C20422   6.797   4.880   3.196 -0.4255 -0.5325 -0.5151
  893MOL0     O20423   6.890   4.984   3.212 -0.2258  0.2499 -0.2166
  893MOL0     C20424   7.002   5.001   3.139 -0.2239 -0.5974 -0.4212
  893MOL0     C20425   7.068   5.124   3.121 -1.0651  0.4374  0.4400
  893MOL0     C20426   7.183   5.132   3.033  0.5706  0.0711 -0.3353
  893MOL0     C20427   7.249   5.024   2.983  0.6239  0.2387  0.5948
  893MOL0     O20428   7.351   5.022   2.896  0.9757 -0.6900 -0.6862
  893MOL0     C20429   7.459   5.118   2.917 -0.4602 -0.4422  0.6834
  893MOL0     C20430   7.512   5.176   2.786 -0.0309 -0.1616 -0.3784
  893MOL0     C20431   7.552   5.074   2.683 -0.5646 -0.5423  1.0408
  893MOL0     C20432   7.664   4.971   2.707  0.3316 -1.1325  0.4943
  893MOL0     C20433   7.671   4.857   2.601 -0.5032  0.8188  0.6141
  893MOL0     C20434   7.728   4.892   2.467 -0.3936  0.9574 -0.5705
  893MOL0     C20435   7.760   4.762   2.391 -0.6257 -0.2763  0.5682
  893MOL0     C20436   7.808   4.787   2.250  0.7106 -0.5254  0.1387
  893MOL0     N20437   7.946   4.840   2.240  0.3867  0.2455 -0.3971
  893MOL0     C20438   8.000   4.939   2.160 -0.3147  0.1362 -0.3983
  893MOL0     C20439   8.130   4.932   2.187 -0.1612  0.3659  0.0854
  893MOL0     C20440   8.246   5.009   2.124  0.6222 -1.0564 -0.3328
  893MOL0     C20441   8.302   4.941   1.999 -0.7224  0.1086 -0.3082
  893MOL0     C20442   8.398   4.824   2.015  0.8277  0.3693 -0.0489
  893MOL0     C20443   8.451   4.784   1.879  0.0317  0.1553 -0.1304
  893MOL0     O20444   8.542   4.878   1.822  0.0905  0.5028 -0.3060
  893MOL0     C20445   8.674   4.890   1.868  0.5563 -0.1011  0.3687
  893MOL0     C20446   8.741   4.983   1.795  1.5013 -0.0452 -0.3931
  893MOL0     C20447   8.873   5.022   1.834  0.2652  0.0982 -0.5482
  893MOL0     C20448   8.940   4.943   1.926  0.3861 -0.2541  1.0028
  893MOL0     C20449   9.081   4.974   1.941  0.4333  0.3075 -1.0081
  893MOL0     O20450   9.147   5.044   1.841  0.6053  0.0788  0.2312
  893MOL0     C20451   9.282   5.068   1.828  0.3726  0.3169 -1.0025
  893MOL0     C20452   9.323   5.115   1.706 -0.6475  0.6384  0.5419
  893MOL0     C20453   9.452   5.160   1.695  0.2844  0.7314  0.5185
  893MOL0     C20454   9.548   5.148   1.801 -0.1352  0.0165  0.1576
  893MOL0     O20455   9.675   5.185   1.775  0.2448  0.0741  0.1206
  893MOL0     C20456   9.782   5.096   1.814  0.1640  0.0504 -0.8228
  893MOL0     C20457   9.826   4.989   1.707  0.0455  0.6680  0.4007
  893MOL0     C20458   9.911   5.067   1.602 -0.0427  1.1539  0.0951
  893MOL0     C20459  10.061   5.080   1.637  0.1567  0.0977  0.8341
  893MOL0     C20460  10.161   5.095   1.522  0.3418 -0.3630 -0.0012
  893MOL0     C20461  10.295   5.131   1.573  0.1194 -0.5568 -0.0664
  893MOL0     C20462  10.364   5.028   1.666  0.4400  0.0992 -1.1571
  893MOL0     C20463  10.489   5.078   1.727 -0.3535  0.1873  0.6166
  893MOL0    Cl20464  10.556   4.935   1.810 -0.1957 -0.4913 -0.5341
  893MOL0     C20465   9.506   5.082   1.915 -0.5770  1.1280 -0.6409
  893MOL0     C20466   9.373   5.044   1.930 -0.4341 -1.0666 -0.7665
  893MOL0     O20467   9.131   4.931   2.049  0.2468 -0.0480  0.1132
  893MOL0     C20468   8.871   4.841   1.992 -0.3507 -1.1714  0.1738
  893MOL0     C20469   8.735   4.818   1.969  0.3253  0.0313  0.3668
  893MOL0     N20470   8.154   4.836   2.284  1.3296 -0.2256  0.2923
  893MOL0     N20471   8.046   4.785   2.318  0.0496  1.0866 -0.1367
  893MOL0     C20472   7.189   4.898   3.008 -0.4747 -0.4436  0.3670
  893MOL0     C20473   7.065   4.887   3.080 -0.2036  0.0696  0.3283
  893MOL0     C20474   6.678   4.875   3.280 -1.2592 -0.5989  0.3164
  893MOL0     C20475   6.599   4.991   3.294 -0.3506 -0.4317  0.6285
  893MOL0     C20476   6.478   4.998   3.374  0.4069 -0.6135  0.3245
  893MOL0     C20477   6.440   4.885   3.443 -0.7256  0.4011  0.2082
  893MOL0     O20478   6.349   4.872   3.544  0.0647 -0.6279 -0.1628
  893MOL0     C20479   6.260   4.982   3.572  0.1005 -0.0051  1.0926
  893MOL0     C20480   6.148   4.930   3.656  0.6908 -0.1315  0.1731
  893MOL0     C20481   6.070   5.053   3.708  0.5503  0.1863  0.2507
  893MOL0     C20482   6.134   5.108   3.832  0.0231  0.1782  0.2768
  893MOL0     C20483   6.053   5.213   3.887  0.5049 -0.1744  0.5804
  893MOL0     C20484   5.987   5.304   3.931  0.3646 -0.0458 -0.5123
  893MOL0     C20485   6.512   4.768   3.424 -0.5414  1.3353  0.9274
  893MOL0     C20486   6.628   4.758   3.338 -0.1431 -0.2806  0.1598
  893MOL0     C20487   6.690   4.618   3.323  0.3507  0.3260  0.3674
  893MOL0     H20488   7.019   5.219   3.137  0.3524  1.1370  0.7615
  893MOL0     H20489   7.211   5.229   2.993 -1.5287 -0.2814 -2.9560
  893MOL0     H20490   7.442   5.212   2.971 -1.7302  0.5317 -1.2946
  893MOL0     H20491   7.534   5.066   2.977 -0.4819  1.9133  2.9576
  893MOL0     H20492   7.604   5.231   2.809 -0.6569  0.6236  0.3134
  893MOL0     H20493   7.443   5.245   2.737  0.3947  0.3409 -0.2834
  893MOL0     H20494   7.568   5.122   2.586 -2.2765 -1.1561  0.4014
  893MOL0     H20495   7.459   5.020   2.665 -0.3936  0.0093 -2.1496
  893MOL0     H20496   7.764   5.010   2.727  0.2577 -1.1046  0.8249
  893MOL0     H20497   7.635   4.913   2.795 -1.9586 -0.4426  0.2707
  893MOL0     H20498   7.736   4.778   2.641  1.4847  1.7137 -0.7218
  893MOL0     H20499   7.568   4.824   2.584  0.1343 -1.5144  0.8284
  893MOL0     H20500   7.650   4.956   2.424 -0.5855  0.7311 -0.5625
  893MOL0     H20501   7.813   4.961   2.469 -1.9350  2.9724 -0.9692
  893MOL0     H20502   7.677   4.691   2.398  0.5146 -1.6222  0.9380
  893MOL0     H20503   7.829   4.698   2.447 -1.5266 -2.7040 -0.9047
  893MOL0     H20504   7.800   4.691   2.197  2.5681 -1.2523  1.0718
  893MOL0     H20505   7.746   4.861   2.199  0.1805 -0.3076  1.0772
  893MOL0     H20506   7.956   5.008   2.090 -1.4192  0.1799  0.3201
  893MOL0     H20507   8.213   5.108   2.090  1.5252  0.2493  2.3171
  893MOL0     H20508   8.330   5.035   2.189  1.8882 -1.8200 -1.6012
  893MOL0     H20509   8.223   4.906   1.931 -1.4603  0.8501  0.1574
  893MOL0     H20510   8.363   5.019   1.953  2.7689 -1.6221  1.0996
  893MOL0     H20511   8.345   4.732   2.043 -0.5837  0.3423 -2.5276
  893MOL0     H20512   8.475   4.847   2.089  2.0728 -1.5709 -0.6526
  893MOL0     H20513   8.368   4.771   1.809  2.6775  3.4569 -4.3299
  893MOL0     H20514   8.498   4.686   1.882  0.0682  0.1757 -0.0378
  893MOL0     H20515   8.692   5.035   1.714 -1.6190  1.4648  2.2240
  893MOL0     H20516   8.924   5.105   1.786 -1.4459  0.8973 -1.0972
  893MOL0     H20517   9.254   5.106   1.623  0.6523 -2.5750 -0.3353
  893MOL0     H20518   9.481   5.209   1.603  0.6697 -1.5729 -0.6757
  893MOL0     H20519   9.868   5.162   1.827  0.3440  0.3210 -2.9637
  893MOL0     H20520   9.766   5.037   1.905  1.7313 -0.2655 -0.7212
  893MOL0     H20521   9.884   4.910   1.756 -2.1290 -1.4500 -0.2273
  893MOL0     H20522   9.738   4.941   1.661  0.4853  1.4791 -1.3674
  893MOL0     H20523   9.905   5.007   1.511 -0.0822  1.7656 -0.3110
  893MOL0     H20524   9.858   5.157   1.567 -2.0531 -0.2308 -0.6124
  893MOL0     H20525  10.087   4.987   1.688 -0.0232  0.2350  1.1885
  893MOL0     H20526  10.076   5.155   1.716  1.9242  0.7840 -0.1075
  893MOL0     H20527  10.134   5.169   1.446 -0.0407 -0.5299 -0.0282
  893MOL0     H20528  10.156   5.000   1.468 -1.0919 -0.7254  0.7439
  893MOL0     H20529  10.353   5.151   1.483 -0.1059 -0.9429 -0.2999
  893MOL0     H20530  10.289   5.228   1.622  1.8333  1.2925 -3.1946
  893MOL0     H20531  10.388   4.942   1.604 -0.0205 -0.1009 -1.0551
  893MOL0     H20532  10.289   5.006   1.742  0.6917  1.3298 -0.5222
  893MOL0     H20533  10.561   5.126   1.660 -0.6011 -1.9993 -1.3520
  893MOL0     H20534  10.450   5.151   1.799 -3.2544 -1.8475  1.3217
  893MOL0     H20535   9.578   5.070   1.994  1.5731  1.1450 -2.4911
  893MOL0     H20536   9.357   4.996   2.026  3.5172 -0.4507  0.3687
  893MOL0     H20537   8.923   4.789   2.072  3.6579  1.4386 -0.4512
  893MOL0     H20538   8.684   4.747   2.032  1.6270  0.8652  2.4490
  893MOL0     H20539   7.235   4.809   2.965  2.6977  0.7849  0.9507
  893MOL0     H20540   7.015   4.792   3.098 -0.7047  0.1893 -0.4183
  893MOL0     H20541   6.624   5.074   3.228 -2.2614 -1.2047 -1.1771
  893MOL0     H20542   6.422   5.089   3.390 -0.3126 -1.1539  0.9338
  893MOL0     H20543   6.213   5.018   3.481 -0.4338  0.2488  1.4632
  893MOL0     H20544   6.312   5.062   3.626  0.9538  0.4362 -0.3180
  893MOL0     H20545   6.187   4.866   3.736  1.1740 -1.1134 -0.8300
  893MOL0     H20546   6.082   4.865   3.599 -1.6369  0.1576  2.3495
  893MOL0     H20547   5.963   5.037   3.725  0.6514 -1.5057 -0.4948
  893MOL0     H20548   6.073   5.136   3.637 -2.0263  0.5001  0.4139
  893MOL0     H20549   6.133   5.032   3.911 -1.0740  1.0610  1.1338
  893MOL0     H20550   6.238   5.140   3.821  0.3124 -0.6253  0.5969
  893MOL0     H20551   5.927   5.389   3.955  0.7216  0.3091 -0.8519
  893MOL0     H20552   6.483   4.677   3.475  0.3525  1.6338  2.0055
  893MOL0     H20553   6.664   4.564   3.231  0.2838  1.2624 -0.1873
  893MOL0     H20554   6.797   4.628   3.338  0.1926  2.9686  0.3547
  893MOL0     H20555   6.652   4.558   3.406 -0.3262  2.0520  1.3753
  894MOL0     O20556  10.678   8.119   6.688  0.0915  0.7885 -0.3352
  894MOL0     C20557  10.650   8.149   6.572 -0.3570  0.3077  0.1100
  894MOL0     O20558  10.525   8.135   6.512 -0.2557  0.2764  0.5549
  894MOL0     C20559  10.413   8.124   6.601 -0.7068 -0.2249  0.4089
  894MOL0     C20560  10.393   8.009   6.668 -0.1576  0.4925 -0.5012
  894MOL0     C20561  10.276   7.983   6.739  0.5348 -0.5159  0.3821
  894MOL0     C20562  10.172   8.081   6.755  0.3304  0.0813  0.5539
  894MOL0     O20563  10.059   8.052   6.836  0.3717  0.2428  0.1182
  894MOL0     C20564   9.963   8.152   6.870  0.4767  0.8921  0.3819
  894MOL0     C20565   9.840   8.132   6.777 -0.2474  0.6536  0.5486
  894MOL0     C20566   9.715   8.193   6.832  0.2719 -0.3462 -0.5726
  894MOL0     C20567   9.595   8.140   6.758 -0.7431 -0.4143 -0.4382
  894MOL0     C20568   9.468   8.213   6.802 -0.1158  0.3517 -0.0025
  894MOL0     C20569   9.339   8.144   6.749  0.0964 -0.7335 -0.3297
  894MOL0     C20570   9.221   8.240   6.786  0.1247  0.1537 -0.0265
  894MOL0     C20571   9.085   8.170   6.782  0.2655  0.1423 -0.7473
  894MOL0     N20572   8.973   8.261   6.791 -0.2168 -0.7423  0.6638
  894MOL0     C20573   8.920   8.329   6.682 -0.5292 -0.0464 -0.6257
  894MOL0     C20574   8.827   8.403   6.740 -0.7548 -0.0657 -0.8128
  894MOL0     C20575   8.731   8.501   6.674 -0.1097  0.3984 -0.1104
  894MOL0     C20576   8.765   8.648   6.722  0.2160 -0.3402 -0.6478
  894MOL0     C20577   8.851   8.715   6.616  0.5006 -0.5535 -0.1776
  894MOL0     C20578   8.884   8.859   6.677 -0.0337  0.9293 -0.2885
  894MOL0     O20579   8.958   8.872   6.800 -0.2994 -0.1503  0.6734
  894MOL0     C20580   9.080   8.815   6.794  0.2277  0.3883 -1.8297
  894MOL0     C20581   9.185   8.889   6.736  0.2035 -0.3958  0.2036
  894MOL0     C20582   9.313   8.849   6.741  0.8591 -0.4351  0.3155
  894MOL0     C20583   9.338   8.728   6.789 -0.1448 -0.5231 -0.8383
  894MOL0     C20584   9.478   8.684   6.806 -0.2152 -1.0638  0.7109
  894MOL0     O20585   9.572   8.785   6.822  0.4668  0.5663 -0.1407
  894MOL0     C20586   9.703   8.745   6.818  0.0443  0.0407  0.8238
  894MOL0     C20587   9.756   8.650   6.903 -0.0758 -0.0208 -0.0430
  894MOL0     C20588   9.889   8.622   6.918  0.2649 -0.5586  0.8500
  894MOL0     C20589   9.982   8.689   6.834 -0.8800 -0.4372 -0.5498
  894MOL0     O20590  10.122   8.673   6.845  0.6088  0.5226 -0.0761
  894MOL0     C20591  10.176   8.564   6.920 -0.2739 -0.4037 -0.8892
  894MOL0     C20592  10.317   8.562   6.874 -0.0280  0.8177  0.3726
  894MOL0     C20593  10.405   8.440   6.932  1.2985 -0.2598  0.3820
  894MOL0     C20594  10.528   8.425   6.846 -0.3352 -0.2918 -0.5823
  894MOL0     C20595  10.642   8.365   6.936 -0.3814  0.0858 -0.3855
  894MOL0     C20596  10.783   8.377   6.878 -0.7050  0.2155  0.4587
  894MOL0     C20597  10.892   8.303   6.950 -1.1032  0.1618 -0.8390
  894MOL0     C20598  11.017   8.274   6.865  0.3526  0.6960  0.4223
  894MOL0    Cl20599  11.122   8.422   6.858 -0.0871 -0.1158 -0.0130
  894MOL0     C20600   9.932   8.792   6.754 -0.1449 -0.2109 -0.5698
  894MOL0     C20601   9.795   8.814   6.734  0.5174  0.3113 -0.5687
  894MOL0     O20602   9.502   8.564   6.823 -0.3397  0.1490 -0.2779
  894MOL0     C20603   9.240   8.642   6.838  0.2752  0.0880  0.4868
  894MOL0     C20604   9.111   8.692   6.849  0.1059 -0.7414 -0.6101
  894MOL0     N20605   8.827   8.382   6.879 -0.2323  0.5388  0.5592
  894MOL0     N20606   8.907   8.292   6.909  0.2049  0.5782  0.4362
  894MOL0     C20607  10.195   8.199   6.680 -0.2611 -0.7463  0.4833
  894MOL0     C20608  10.312   8.224   6.602 -0.4291  0.3009  0.3370
  894MOL0     C20609  10.747   8.229   6.498 -0.8792  0.7010  0.8370
  894MOL0     C20610  10.697   8.341   6.435 -0.0002 -0.5710 -0.9491
  894MOL0     C20611  10.786   8.420   6.362  0.1528 -0.0529 -0.3998
  894MOL0     C20612  10.930   8.392   6.355  0.3149 -0.1978 -0.3967
  894MOL0     O20613  11.029   8.460   6.274  0.1404  0.0775 -0.4609
  894MOL0     C20614  10.984   8.560   6.179 -0.2707  0.1264 -0.6401
  894MOL0     C20615  11.095   8.578   6.072 -0.3629 -0.1131 -0.4443
  894MOL0     C20616  11.231   8.621   6.139  0.4336  0.9094  0.2136
  894MOL0     C20617  11.242   8.736   6.247 -0.4438  0.0508  0.2558
  894MOL0     C20618  11.387   8.757   6.266  0.1535 -0.0457  0.4322
  894MOL0     C20619  11.507   8.777   6.274  0.9694 -0.2845 -0.7402
  894MOL0     C20620  10.975   8.284   6.434  0.8117  0.3469  0.4869
  894MOL0     C20621  10.885   8.193   6.498 -0.4139 -0.2377 -0.2428
  894MOL0     C20622  10.941   8.056   6.539 -1.3647 -0.2079  0.0896
  894MOL0     H20623  10.467   7.929   6.667 -2.5532 -1.8471 -0.7907
  894MOL0     H20624  10.279   7.883   6.783  0.3301  0.2559  2.2175
  894MOL0     H20625   9.925   8.135   6.971  0.3628 -2.7624 -0.1448
  894MOL0     H20626  10.000   8.255   6.861  2.3468  0.4689  2.4146
  894MOL0     H20627   9.817   8.027   6.759 -1.3737  0.7937  1.1220
  894MOL0     H20628   9.861   8.168   6.675  2.1444  0.4478  0.8987
  894MOL0     H20629   9.727   8.301   6.822  1.8032 -0.0322  2.8955
  894MOL0     H20630   9.696   8.169   6.937  0.5687 -1.2795 -0.7218
  894MOL0     H20631   9.622   8.152   6.652  2.0311 -0.7192  0.1538
  894MOL0     H20632   9.594   8.034   6.785 -0.5056  0.4290  3.4806
  894MOL0     H20633   9.464   8.197   6.910 -1.3366 -4.0379 -0.4982
  894MOL0     H20634   9.461   8.320   6.783 -0.5590  0.2200 -0.6482
  894MOL0     H20635   9.334   8.136   6.640 -1.8703 -0.3850 -0.3008
  894MOL0     H20636   9.331   8.047   6.798  2.2821 -0.9786 -0.3355
  894MOL0     H20637   9.221   8.324   6.715  1.6400  0.3598  0.1822
  894MOL0     H20638   9.230   8.296   6.880 -1.6825 -0.5092  0.5700
  894MOL0     H20639   9.068   8.108   6.694  1.9078 -1.3320 -0.0889
  894MOL0     H20640   9.076   8.100   6.865  0.0328 -0.4321 -1.2483
  894MOL0     H20641   8.944   8.328   6.576 -0.1019 -0.8483 -0.5235
  894MOL0     H20642   8.744   8.495   6.565 -0.1345  0.5160 -0.1205
  894MOL0     H20643   8.628   8.476   6.699 -0.9217  0.7429 -2.7907
  894MOL0     H20644   8.670   8.698   6.744  0.6680 -0.8696  3.2268
  894MOL0     H20645   8.816   8.644   6.819 -0.9679  1.0087  0.0647
  894MOL0     H20646   8.791   8.732   6.526 -2.4112  4.8762  2.2624
  894MOL0     H20647   8.945   8.670   6.584  0.4659  0.1304 -1.3032
  894MOL0     H20648   8.795   8.922   6.674 -1.9017 -1.2219  2.9652
  894MOL0     H20649   8.964   8.895   6.611  0.7016  1.4041  0.8366
  894MOL0     H20650   9.167   8.986   6.692  0.0055 -0.2568  0.5886
  894MOL0     H20651   9.382   8.916   6.691  0.8858 -1.8772 -1.7386
  894MOL0     H20652   9.685   8.603   6.970 -2.5873 -1.1164 -3.2282
  894MOL0     H20653   9.917   8.551   6.995  0.7609 -1.0355  0.2413
  894MOL0     H20654  10.180   8.583   7.028  1.2333 -1.9595 -0.6322
  894MOL0     H20655  10.129   8.469   6.892 -0.4593 -0.9165  0.9855
  894MOL0     H20656  10.318   8.545   6.766  0.5464 -1.7406  0.7220
  894MOL0     H20657  10.375   8.653   6.896  4.3534 -2.2241  2.9560
  894MOL0     H20658  10.440   8.457   7.034  0.6124 -1.4023  0.8317
  894MOL0     H20659  10.357   8.342   6.922  2.2661 -0.5474 -2.0389
  894MOL0     H20660  10.574   8.519   6.814 -1.5841  1.3426  2.0620
  894MOL0     H20661  10.499   8.353   6.768 -2.8972 -1.2514  1.1265
  894MOL0     H20662  10.623   8.257   6.941  1.9413 -0.5732 -2.8189
  894MOL0     H20663  10.640   8.414   7.033  2.4196 -1.5100  0.5910
  894MOL0     H20664  10.778   8.336   6.777  0.3187 -1.5216  1.0854
  894MOL0     H20665  10.814   8.482   6.884  1.5391 -0.1863 -2.1417
  894MOL0     H20666  10.843   8.213   6.988  0.3546 -1.2563 -2.1634
  894MOL0     H20667  10.929   8.356   7.038 -1.1138 -3.3534  1.4629
  894MOL0     H20668  11.063   8.193   6.924  1.9508 -0.9697 -2.8555
  894MOL0     H20669  10.978   8.238   6.770 -2.3483  2.4727  0.7563
  894MOL0     H20670  10.001   8.848   6.692 -0.9443  0.4640 -0.8514
  894MOL0     H20671   9.754   8.891   6.668  1.6800 -0.0961 -1.8149
  894MOL0     H20672   9.260   8.540   6.868  1.0403 -0.1090 -0.6404
  894MOL0     H20673   9.029   8.633   6.889 -0.8348  0.6170 -0.4741
  894MOL0     H20674  10.118   8.276   6.667  0.2476 -0.5653 -2.2324
  894MOL0     H20675  10.319   8.307   6.532  0.9201 -1.6345 -1.9479
  894MOL0     H20676  10.592   8.364   6.450  0.2819 -0.4656  1.0717
  894MOL0     H20677  10.754   8.516   6.321  1.6879  0.7758  0.2354
  894MOL0     H20678  10.981   8.651   6.240 -1.0014 -0.9855  1.0802
  894MOL0     H20679  10.885   8.544   6.136 -0.8572 -1.0935  1.0276
  894MOL0     H20680  11.065   8.657   6.002 -1.4521 -0.1237 -0.0167
  894MOL0     H20681  11.110   8.482   6.024 -1.0654 -0.4811  0.0538
  894MOL0     H20682  11.293   8.649   6.053  1.5092 -4.8463 -1.3307
  894MOL0     H20683  11.282   8.536   6.186  0.6901  2.4292  2.9253
  894MOL0     H20684  11.189   8.822   6.205 -2.2688 -1.1746 -0.1231
  894MOL0     H20685  11.205   8.695   6.341  4.2612  1.0564  2.7863
  894MOL0     H20686  11.614   8.771   6.275  0.9875 -0.2181  1.2899
  894MOL0     H20687  11.079   8.258   6.420  1.0441  1.3286  0.2645
  894MOL0     H20688  11.050   8.063   6.537 -1.2882 -1.4980 -2.0479
  894MOL0     H20689  10.907   8.051   6.643 -0.4695  0.1281  0.4062
  894MOL0     H20690  10.896   7.980   6.475  0.4703 -0.9886 -0.3209
  895MOL0     O20691   6.485   0.666   2.143 -0.6124 -0.3879 -0.1629
  895MOL0     C20692   6.433   0.570   2.198  0.5539  0.7892  0.2535
  895MOL0     O20693   6.502   0.464   2.262  0.1127 -0.3531  0.4148
  895MOL0     C20694   6.629   0.492   2.288  0.2247 -0.5643 -0.1171
  895MOL0     C20695   6.677   0.601   2.357 -1.1770 -0.8003 -0.2658
  895MOL0     C20696   6.816   0.614   2.382  0.2928 -0.1328 -0.3209
  895MOL0     C20697   6.911   0.535   2.312  0.2966 -0.2345 -0.4652
  895MOL0     O20698   7.045   0.560   2.326  0.0052  0.0637  0.6433
  895MOL0     C20699   7.138   0.446   2.281 -0.2812 -0.6050 -1.6381
  895MOL0     C20700   7.296   0.472   2.318  0.6509  0.3539  0.8305
  895MOL0     C20701   7.389   0.382   2.230 -0.2616 -0.0113 -0.7621
  895MOL0     C20702   7.537   0.426   2.254  0.1054  0.8575  0.8666
  895MOL0     C20703   7.574   0.433   2.398 -0.0856 -0.3238 -0.3682
  895MOL0     C20704   7.719   0.485   2.423  0.0111 -0.2362  0.7024
  895MOL0     C20705   7.746   0.629   2.372  0.2172 -0.4124  0.8141
  895MOL0     C20706   7.682   0.747   2.448 -0.4762 -0.8246 -0.1665
  895MOL0     N20707   7.757   0.773   2.573 -0.5145 -1.0950  0.0386
  895MOL0     C20708   7.705   0.777   2.695  0.5625 -0.6407 -0.2140
  895MOL0     C20709   7.820   0.810   2.766 -0.4825 -0.2060  0.6521
  895MOL0     C20710   7.839   0.801   2.915  0.5842 -1.1213  0.4517
  895MOL0     C20711   7.789   0.944   2.968  0.5406  1.1917  0.4396
  895MOL0     C20712   7.896   1.047   2.958  0.6810  0.2901  0.1944
  895MOL0     C20713   8.040   1.012   3.009  0.0601 -0.6677 -0.1036
  895MOL0     O20714   8.120   1.136   3.005  0.2671  0.1219 -0.3020
  895MOL0     C20715   8.255   1.118   3.021 -0.5940 -0.3680 -0.7518
  895MOL0     C20716   8.331   0.996   3.010 -0.6338 -0.6481  0.2484
  895MOL0     C20717   8.476   0.997   3.013 -0.0848 -0.0578  0.6567
  895MOL0     C20718   8.545   1.117   3.021 -0.4369  0.3779 -0.4335
  895MOL0     C20719   8.695   1.115   3.018  0.1942 -0.6051  0.3790
  895MOL0     O20720   8.750   1.242   3.000 -0.4749  0.1355  0.4301
  895MOL0     C20721   8.882   1.258   3.033  0.3638  0.3590 -0.3764
  895MOL0     C20722   8.933   1.239   3.164 -1.1248 -0.5913  1.0047
  895MOL0     C20723   9.066   1.269   3.190  0.7600  0.1992 -0.4128
  895MOL0     C20724   9.150   1.334   3.092 -0.5190 -0.4558 -0.3060
  895MOL0     O20725   9.283   1.374   3.103 -0.3670  0.7508  0.2604
  895MOL0     C20726   9.362   1.339   3.212  0.8417 -0.6830  0.5290
  895MOL0     C20727   9.486   1.415   3.203  0.2308 -0.2610 -0.2092
  895MOL0     C20728   9.583   1.373   3.099  0.6480 -0.2022  0.0912
  895MOL0     C20729   9.709   1.450   3.121 -0.3314 -1.0277 -0.9533
  895MOL0     C20730   9.814   1.405   3.021  0.2678 -0.0786 -0.4434
  895MOL0     C20731   9.943   1.477   3.047 -0.3372 -0.2195 -0.0263
  895MOL0     C20732  10.066   1.389   3.011 -0.7500  0.4861 -0.2461
  895MOL0     C20733  10.078   1.258   3.094 -0.9057  1.2493  0.0424
  895MOL0    Cl20734   9.986   1.123   3.021  0.3887  0.0400 -0.4534
  895MOL0     C20735   9.093   1.352   2.964 -0.7219 -0.2405  0.1689
  895MOL0     C20736   8.960   1.325   2.940 -0.4165 -0.0153 -0.1410
  895MOL0     O20737   8.757   1.011   3.035  0.0796  1.0227  0.2346
  895MOL0     C20738   8.467   1.235   3.035 -0.2756 -0.1536 -0.0481
  895MOL0     C20739   8.328   1.237   3.043 -0.2363 -0.5361  0.5596
  895MOL0     N20740   7.929   0.838   2.692 -0.1875  0.0535 -0.5345
  895MOL0     N20741   7.889   0.820   2.575  0.2085 -0.5077 -0.6942
  895MOL0     C20742   6.854   0.422   2.244  1.2962 -0.3982  0.3385
  895MOL0     C20743   6.724   0.406   2.224 -0.1674  0.0093  0.3723
  895MOL0     C20744   6.285   0.566   2.181 -0.6631 -0.6264 -0.6524
  895MOL0     C20745   6.214   0.658   2.099  0.4947  1.3812  0.0031
  895MOL0     C20746   6.080   0.674   2.100  0.7133  1.1716 -1.5122
  895MOL0     C20747   6.003   0.597   2.180 -0.2566 -0.0529  0.1435
  895MOL0     O20748   5.867   0.586   2.182 -0.1554 -0.2358 -0.5615
  895MOL0     C20749   5.790   0.682   2.116  0.3010  0.0457  0.1498
  895MOL0     C20750   5.653   0.620   2.078  0.5273  0.4432 -0.5117
  895MOL0     C20751   5.660   0.521   1.975 -0.7315  0.3085  0.3016
  895MOL0     C20752   5.531   0.442   1.943  0.4951  0.3607 -1.3203
  895MOL0     C20753   5.403   0.517   1.933 -0.3931 -0.5563  0.2195
  895MOL0     C20754   5.306   0.589   1.943  0.0610 -0.7173  0.2998
  895MOL0     C20755   6.065   0.514   2.271  0.1189 -0.0033  0.6111
  895MOL0     C20756   6.207   0.492   2.267 -0.1940  0.0199 -1.6632
  895MOL0     C20757   6.258   0.383   2.357  0.2249 -0.5499 -0.0805
  895MOL0     H20758   6.605   0.675   2.393  0.3760 -0.0310  1.3960
  895MOL0     H20759   6.848   0.688   2.455  0.3468 -0.6102  0.1425
  895MOL0     H20760   7.102   0.349   2.318  0.0723  0.2280  1.1627
  895MOL0     H20761   7.127   0.443   2.173 -3.7420  2.7312 -1.5873
  895MOL0     H20762   7.312   0.455   2.425 -0.4043  0.4314  1.0066
  895MOL0     H20763   7.313   0.579   2.299  1.1405  1.0971  4.6391
  895MOL0     H20764   7.357   0.393   2.126  1.1927 -0.8122 -1.3245
  895MOL0     H20765   7.384   0.274   2.247  2.5815  0.1322  1.7843
  895MOL0     H20766   7.598   0.349   2.206 -0.5288  1.7452 -1.5041
  895MOL0     H20767   7.547   0.514   2.189  0.3373  0.9066  0.9685
  895MOL0     H20768   7.506   0.508   2.440  0.4158 -0.3421  0.5166
  895MOL0     H20769   7.561   0.335   2.444 -0.2463  0.8032  2.1803
  895MOL0     H20770   7.751   0.484   2.528 -1.7562 -1.3275  1.2812
  895MOL0     H20771   7.776   0.415   2.362 -0.8084 -1.2197  1.0292
  895MOL0     H20772   7.707   0.643   2.271  1.9537 -0.7872  0.0651
  895MOL0     H20773   7.853   0.649   2.373  0.4382 -1.0370 -2.1401
  895MOL0     H20774   7.681   0.837   2.385  1.8594 -1.1621 -0.7615
  895MOL0     H20775   7.576   0.735   2.473 -1.0084  1.2345 -1.2346
  895MOL0     H20776   7.612   0.741   2.739  0.0336 -1.1425 -1.6749
  895MOL0     H20777   7.776   0.718   2.948  0.5023  0.4339  4.7597
  895MOL0     H20778   7.939   0.773   2.950  1.8129 -1.5428 -2.9838
  895MOL0     H20779   7.692   0.975   2.930 -0.5263 -1.2571  1.0260
  895MOL0     H20780   7.764   0.927   3.073 -0.2618 -3.1137 -0.2968
  895MOL0     H20781   7.852   1.136   3.004  0.1835 -0.4129  1.1098
  895MOL0     H20782   7.909   1.071   2.852  0.9321  4.9411  1.0421
  895MOL0     H20783   8.089   0.942   2.941  0.4596  0.6411 -1.2048
  895MOL0     H20784   8.046   0.979   3.113  2.7500  0.5840  0.2124
  895MOL0     H20785   8.282   0.903   2.985 -1.5011  0.3807 -2.1770
  895MOL0     H20786   8.532   0.905   2.996  1.8057  1.1862 -0.1513
  895MOL0     H20787   8.873   1.184   3.236 -3.0936 -0.1048 -0.1948
  895MOL0     H20788   9.102   1.244   3.289 -0.2196 -0.1917 -0.1464
  895MOL0     H20789   9.312   1.358   3.307  0.4483 -1.7420  0.5425
  895MOL0     H20790   9.384   1.232   3.204  1.9665 -0.4902  0.8050
  895MOL0     H20791   9.469   1.523   3.205 -1.6574 -0.5372  0.2543
  895MOL0     H20792   9.532   1.402   3.301 -2.9691  2.2415  1.7724
  895MOL0     H20793   9.598   1.265   3.096 -3.5892 -0.9521 -1.4267
  895MOL0     H20794   9.538   1.402   3.003  2.2432  1.1387 -0.2835
  895MOL0     H20795   9.741   1.434   3.224 -1.2465  0.8226 -0.3574
  895MOL0     H20796   9.706   1.556   3.096  3.5189 -0.6665 -0.4712
  895MOL0     H20797   9.767   1.415   2.923 -0.1982 -1.7459 -0.4281
  895MOL0     H20798   9.823   1.297   3.041 -0.6639  0.2250  1.9579
  895MOL0     H20799   9.938   1.572   2.993  0.5885 -0.2305 -0.1466
  895MOL0     H20800   9.960   1.497   3.153 -1.3209  1.5124 -0.1685
  895MOL0     H20801  10.151   1.456   3.030 -2.3214  2.3530  0.5217
  895MOL0     H20802  10.073   1.360   2.906 -2.1485 -2.4007  0.3678
  895MOL0     H20803  10.183   1.227   3.097 -1.0631  0.4404 -1.4149
  895MOL0     H20804  10.046   1.277   3.196 -0.8980  0.3904  0.2119
  895MOL0     H20805   9.147   1.402   2.884 -0.0011  1.0304  1.3932
  895MOL0     H20806   8.910   1.357   2.848 -0.0539 -0.1293 -0.3809
  895MOL0     H20807   8.514   1.332   3.043 -2.9780  1.4991 -2.3027
  895MOL0     H20808   8.288   1.333   3.074  1.3123 -0.3168  1.9854
  895MOL0     H20809   6.915   0.343   2.203 -0.9615 -2.6677  1.1021
  895MOL0     H20810   6.692   0.332   2.151  0.3587 -0.2973  0.4404
  895MOL0     H20811   6.258   0.730   2.031 -1.7696 -0.8471 -4.2010
  895MOL0     H20812   6.033   0.748   2.036 -1.1902  2.1387  0.8939
  895MOL0     H20813   5.813   0.714   2.014  2.0603  1.8001  1.0217
  895MOL0     H20814   5.784   0.774   2.175  1.7504 -0.3116  0.9079
  895MOL0     H20815   5.590   0.704   2.047  0.1048  0.2369 -0.2289
  895MOL0     H20816   5.600   0.582   2.166  2.0401 -2.1128 -0.6199
  895MOL0     H20817   5.719   0.440   2.020 -2.2063 -0.4001  1.0106
  895MOL0     H20818   5.719   0.552   1.888  0.5829  2.4350  1.8411
  895MOL0     H20819   5.553   0.388   1.851 -0.5395 -2.0388 -0.2407
  895MOL0     H20820   5.511   0.365   2.019 -2.6850  1.2200 -1.1559
  895MOL0     H20821   5.224   0.650   1.976  0.0973  0.8208 -2.2242
  895MOL0     H20822   6.008   0.438   2.325 -0.2956 -0.7237 -0.7895
  895MOL0     H20823   6.173   0.328   2.398  2.1468 -2.6243  1.3803
  895MOL0     H20824   6.315   0.304   2.306  0.2754 -1.8783  1.9360
  895MOL0     H20825   6.310   0.423   2.444 -1.7736 -0.3748  1.1002
  896MOL0     O20826   3.951   6.452   0.710 -0.0437  0.3179 -0.0633
  896MOL0     C20827   3.852   6.435   0.635 -0.6455 -0.6803 -0.1758
  896MOL0     O20828   3.823   6.515   0.526 -0.9308  0.1621 -0.3597
  896MOL0     C20829   3.902   6.618   0.495 -0.3866  0.2046  0.6919
  896MOL0     C20830   3.959   6.612   0.365  0.6439  0.4002 -0.3125
  896MOL0     C20831   4.043   6.723   0.326 -0.1626  0.3213  0.7107
  896MOL0     C20832   4.053   6.845   0.403 -1.5092  0.3156  0.3163
  896MOL0     O20833   4.131   6.957   0.376  0.4002  0.3986  0.0229
  896MOL0     C20834   4.241   6.938   0.288 -0.2149  0.5867  0.0926
  896MOL0     C20835   4.345   7.041   0.309  0.2686  0.6384 -0.2487
  896MOL0     C20836   4.398   7.062   0.453 -0.0873  0.0706 -0.6084
  896MOL0     C20837   4.474   7.194   0.480  0.1035 -0.1391 -1.2269
  896MOL0     C20838   4.524   7.214   0.622  0.9701  0.8072 -0.3051
  896MOL0     C20839   4.659   7.135   0.646 -0.4662  0.6270  0.8776
  896MOL0     C20840   4.711   7.152   0.787  0.8577 -0.0487 -0.5830
  896MOL0     C20841   4.837   7.077   0.815 -0.3555  0.3487 -0.2344
  896MOL0     N20842   4.830   6.930   0.804 -0.3085  0.7693  0.4902
  896MOL0     C20843   4.751   6.838   0.870 -0.1181  0.0156 -0.4134
  896MOL0     C20844   4.800   6.714   0.838 -0.9845  0.2181  0.7125
  896MOL0     C20845   4.756   6.580   0.887 -0.5030 -0.1021 -0.0445
  896MOL0     C20846   4.848   6.504   0.971 -0.5209 -0.2003 -0.7160
  896MOL0     C20847   4.776   6.376   1.010  0.4844 -1.3878 -0.8321
  896MOL0     C20848   4.807   6.279   0.899  0.5579  0.2491 -0.4386
  896MOL0     O20849   4.941   6.224   0.919 -0.0018  0.2936  0.0661
  896MOL0     C20850   4.961   6.108   0.849 -0.6641  0.4872  1.0682
  896MOL0     C20851   5.075   6.039   0.889  0.8541  0.1369 -0.1250
  896MOL0     C20852   5.134   5.932   0.818  0.3219 -0.5875  0.0225
  896MOL0     C20853   5.064   5.885   0.709  0.1360  0.8676 -0.3185
  896MOL0     C20854   5.112   5.752   0.649 -0.4436 -0.3569  0.3671
  896MOL0     O20855   5.016   5.666   0.598  0.7236 -0.8164 -0.3730
  896MOL0     C20856   5.030   5.543   0.536 -0.2303 -0.6801 -0.0627
  896MOL0     C20857   4.914   5.469   0.520  0.1671  0.4263 -0.1896
  896MOL0     C20858   4.921   5.347   0.448 -0.5506  0.6024 -0.1820
  896MOL0     C20859   5.031   5.291   0.396  0.0811 -0.3746 -0.1659
  896MOL0     O20860   5.047   5.164   0.346 -0.2209  0.1736  0.0916
  896MOL0     C20861   4.935   5.079   0.368 -0.1665 -0.1697 -0.6647
  896MOL0     C20862   4.959   4.941   0.317  0.2753 -0.5868 -0.7445
  896MOL0     C20863   5.056   4.859   0.407 -0.5486  0.3765  0.3819
  896MOL0     C20864   5.109   4.726   0.344 -0.3909 -0.3937 -0.5197
  896MOL0     C20865   4.990   4.637   0.311  0.3073 -0.6201  0.5159
  896MOL0     C20866   5.041   4.496   0.253  0.0410 -0.1828  0.3684
  896MOL0     C20867   4.930   4.395   0.211 -0.3579  0.8643  0.6232
  896MOL0     C20868   4.971   4.251   0.231  0.7549 -0.2435 -0.3258
  896MOL0    Cl20869   5.088   4.195   0.109  0.3427 -0.4607 -0.1242
  896MOL0     C20870   5.144   5.380   0.395 -0.6953  0.2440 -0.2582
  896MOL0     C20871   5.141   5.502   0.467 -0.5812  0.4298  0.0699
  896MOL0     O20872   5.227   5.726   0.665 -0.4156  0.3832  0.3490
  896MOL0     C20873   4.940   5.942   0.669  0.1474  0.9302  0.3706
  896MOL0     C20874   4.899   6.065   0.725  0.3502 -0.3882  0.4597
  896MOL0     N20875   4.906   6.728   0.749 -0.4501  0.4144 -0.1698
  896MOL0     N20876   4.921   6.855   0.747 -0.6573 -0.5418 -0.2985
  896MOL0     C20877   3.982   6.849   0.520  0.3629  0.2184  0.4823
  896MOL0     C20878   3.909   6.737   0.575 -0.7212  0.1423 -0.2519
  896MOL0     C20879   3.761   6.331   0.675  0.3821  0.2317  0.1471
  896MOL0     C20880   3.626   6.359   0.696  0.1563  0.7521 -1.1483
  896MOL0     C20881   3.541   6.257   0.744 -0.3344  0.8937  0.5738
  896MOL0     C20882   3.579   6.124   0.764 -0.4583 -0.2082  0.4422
  896MOL0     O20883   3.488   6.031   0.809 -0.3652 -0.6805 -0.9250
  896MOL0     C20884   3.527   5.893   0.804 -0.2887 -0.1376  0.0295
  896MOL0     C20885   3.507   5.837   0.660  0.4680  0.1801  0.0175
  896MOL0     C20886   3.489   5.682   0.669  0.0516  0.0736  0.5599
  896MOL0     C20887   3.464   5.604   0.537 -0.4089 -1.7560  0.3838
  896MOL0     C20888   3.335   5.625   0.471 -0.0733  0.7646  0.4955
  896MOL0     C20889   3.231   5.651   0.419  1.1191  0.0904 -0.7003
  896MOL0     C20890   3.713   6.096   0.726  0.7985 -0.3228 -0.7971
  896MOL0     C20891   3.801   6.195   0.688 -0.6390 -0.5151 -0.0963
  896MOL0     C20892   3.939   6.150   0.668 -0.4638 -0.2412 -0.0548
  896MOL0     H20893   3.951   6.520   0.309 -1.7035  0.8451 -0.7888
  896MOL0     H20894   4.091   6.716   0.229 -0.3544  1.0592  0.5549
  896MOL0     H20895   4.283   6.842   0.317 -1.7282 -1.0892 -2.7866
  896MOL0     H20896   4.204   6.929   0.185 -3.1251 -1.5176  1.1730
  896MOL0     H20897   4.300   7.133   0.270  0.5159  0.9185  0.1167
  896MOL0     H20898   4.433   7.030   0.244  0.7909 -2.4606  0.8341
  896MOL0     H20899   4.475   6.990   0.480  0.4491  1.1549  0.9134
  896MOL0     H20900   4.311   7.052   0.519 -0.2947  0.3112 -0.8424
  896MOL0     H20901   4.553   7.203   0.405 -0.2959  1.3759 -1.5164
  896MOL0     H20902   4.411   7.282   0.462 -1.8786 -0.9982  0.9363
  896MOL0     H20903   4.541   7.321   0.634  0.1839  0.8146  0.8917
  896MOL0     H20904   4.445   7.195   0.695  0.9402 -1.7061 -0.8875
  896MOL0     H20905   4.624   7.033   0.627  0.2748  0.5021  0.1507
  896MOL0     H20906   4.732   7.170   0.573 -0.3581 -1.7158 -0.2194
  896MOL0     H20907   4.635   7.109   0.853  0.6975  1.7078  0.4454
  896MOL0     H20908   4.728   7.257   0.813  1.5926  0.2378 -2.1248
  896MOL0     H20909   4.922   7.102   0.751  0.8591 -1.5504  0.5301
  896MOL0     H20910   4.878   7.104   0.913  1.5494  2.7347 -1.5924
  896MOL0     H20911   4.669   6.865   0.935  0.2605  0.0582  0.0584
  896MOL0     H20912   4.655   6.586   0.929 -0.2005  0.8359  0.6063
  896MOL0     H20913   4.741   6.525   0.794  0.5649  0.8493 -0.8099
  896MOL0     H20914   4.951   6.490   0.939 -0.8908 -2.1249 -1.2035
  896MOL0     H20915   4.857   6.558   1.066 -0.8246  1.4557 -1.6072
  896MOL0     H20916   4.668   6.390   1.016  0.9065  1.9233  3.0488
  896MOL0     H20917   4.809   6.326   1.102 -1.2259 -1.5812 -0.3019
  896MOL0     H20918   4.796   6.327   0.801  0.5535  3.2612  0.9488
  896MOL0     H20919   4.736   6.196   0.903 -2.1264  2.4529  0.6216
  896MOL0     H20920   5.123   6.066   0.983  1.4743 -0.3122 -0.3079
  896MOL0     H20921   5.224   5.892   0.862 -1.7797 -2.2578  3.1578
  896MOL0     H20922   4.825   5.503   0.572  1.0535 -0.8204  2.2888
  896MOL0     H20923   4.826   5.295   0.443 -1.7140  2.5810  0.2212
  896MOL0     H20924   4.908   5.073   0.474  0.8206  1.5991 -0.2673
  896MOL0     H20925   4.854   5.121   0.307  1.9744  0.4711 -3.2676
  896MOL0     H20926   4.865   4.887   0.302 -1.2173  1.2602  1.3245
  896MOL0     H20927   5.001   4.949   0.216 -1.0745 -4.2236 -1.7385
  896MOL0     H20928   5.148   4.916   0.422 -1.1129  0.7603  2.7287
  896MOL0     H20929   5.016   4.835   0.506  1.3759 -1.3697  0.8090
  896MOL0     H20930   5.167   4.677   0.423 -0.3355 -0.2115 -0.4457
  896MOL0     H20931   5.176   4.737   0.258  0.3576 -1.4658 -0.0887
  896MOL0     H20932   4.931   4.687   0.233  3.0710  1.5412 -0.3522
  896MOL0     H20933   4.928   4.637   0.401  1.0367 -2.2619  1.0491
  896MOL0     H20934   5.094   4.520   0.161  2.0987  0.4818  1.6557
  896MOL0     H20935   5.109   4.448   0.324 -1.2201 -1.9151  0.4959
  896MOL0     H20936   4.907   4.409   0.105  0.6288  1.6751  0.5008
  896MOL0     H20937   4.833   4.411   0.259 -1.1808 -3.0165  0.5576
  896MOL0     H20938   5.021   4.248   0.328 -1.7659  0.0590  1.0683
  896MOL0     H20939   4.887   4.184   0.249  0.0005  1.0397  1.1601
  896MOL0     H20940   5.225   5.346   0.331 -1.6107 -1.0973 -0.7680
  896MOL0     H20941   5.229   5.565   0.468  0.3237 -0.7723  1.6068
  896MOL0     H20942   4.885   5.893   0.589 -3.0712 -0.2691  3.0650
  896MOL0     H20943   4.805   6.107   0.690 -1.1550 -4.4081 -0.8578
  896MOL0     H20944   3.975   6.941   0.577 -1.5407  1.8554 -2.1498
  896MOL0     H20945   3.859   6.741   0.671  4.6955  1.8428  2.9425
  896MOL0     H20946   3.593   6.461   0.683 -1.8698  0.6531  2.0550
  896MOL0     H20947   3.439   6.288   0.763 -0.0809 -0.1767  4.9063
  896MOL0     H20948   3.469   5.838   0.878  0.3806 -0.2622  0.4746
  896MOL0     H20949   3.629   5.883   0.843 -0.1627  2.4952  0.5543
  896MOL0     H20950   3.597   5.863   0.603 -0.3148 -1.0289 -1.8357
  896MOL0     H20951   3.426   5.887   0.607  0.0218  0.4693  0.9442
  896MOL0     H20952   3.414   5.653   0.743  0.4379 -2.1341  0.1565
  896MOL0     H20953   3.584   5.648   0.712  1.0398  0.9177 -0.8405
  896MOL0     H20954   3.551   5.631   0.476 -1.3818  2.2592  0.5101
  896MOL0     H20955   3.466   5.495   0.550 -0.3336 -1.7377  0.5213
  896MOL0     H20956   3.147   5.678   0.358  3.6945  1.9144 -3.7165
  896MOL0     H20957   3.757   5.997   0.725  3.3310  0.6913  0.4492
  896MOL0     H20958   4.007   6.223   0.623 -0.7823 -1.1455 -2.1137
  896MOL0     H20959   3.967   6.130   0.772 -0.8844 -2.1964 -0.2875
  896MOL0     H20960   3.947   6.057   0.611 -0.5764 -0.9744  1.1096
  897MOL0     O20961   6.741   9.755   1.991 -0.1934 -0.5876 -0.4280
  897MOL0     C20962   6.741   9.871   2.037 -1.0794 -0.2435 -0.0522
  897MOL0     O20963   6.844   9.921   2.126  0.7740  0.4345 -0.1265
  897MOL0     C20964   6.952   9.838   2.142 -0.0253  0.1103  0.3547
  897MOL0     C20965   6.934   9.724   2.213  0.1933  0.0725  0.6638
  897MOL0     C20966   7.049   9.641   2.223  0.2040  0.4646  0.1636
  897MOL0     C20967   7.166   9.675   2.161 -0.7612 -0.5900 -0.7531
  897MOL0     O20968   7.264   9.573   2.161 -0.8452  0.2781 -0.1601
  897MOL0     C20969   7.405   9.600   2.141  0.3047 -0.8149  0.9734
  897MOL0     C20970   7.504   9.492   2.156  1.0268 -0.2943 -0.1974
  897MOL0     C20971   7.448   9.359   2.097 -0.1401  0.2775  0.1668
  897MOL0     C20972   7.514   9.232   2.148  0.7183 -0.1443 -0.3940
  897MOL0     C20973   7.656   9.228   2.092 -0.6111  0.0483 -0.5847
  897MOL0     C20974   7.730   9.111   2.158 -0.1610 -0.7333  0.4946
  897MOL0     C20975   7.877   9.097   2.137  0.0002 -0.9678 -0.3494
  897MOL0     C20976   7.961   9.236   2.149  0.3975 -0.5483 -0.2095
  897MOL0     N20977   7.928   9.304   2.282  0.1605  0.3373  0.3326
  897MOL0     C20978   7.897   9.439   2.295  0.1137  0.2108 -0.2028
  897MOL0     C20979   7.891   9.468   2.421 -0.6318 -0.1153 -0.8597
  897MOL0     C20980   7.873   9.605   2.483  0.5217 -0.5585 -0.0065
  897MOL0     C20981   8.007   9.654   2.557  0.3639  0.4426  0.1301
  897MOL0     C20982   7.980   9.769   2.646  0.3712  0.7115  0.1176
  897MOL0     C20983   8.100   9.797   2.731  0.1402 -0.2634  0.5043
  897MOL0     O20984   8.153   9.693   2.814  0.2285 -0.0231  0.2890
  897MOL0     C20985   8.282   9.692   2.869 -0.0674 -0.2071 -0.1336
  897MOL0     C20986   8.361   9.815   2.889  0.9651  0.5867 -0.1216
  897MOL0     C20987   8.494   9.815   2.926  0.4642  0.2447  0.0997
  897MOL0     C20988   8.550   9.688   2.942  0.3325 -0.3227  0.2024
  897MOL0     C20989   8.692   9.681   2.983 -0.4979  0.0780 -0.2660
  897MOL0     O20990   8.763   9.792   2.999  0.0349 -0.8414  0.6545
  897MOL0     C20991   8.891   9.784   3.046  0.2098 -0.3909  0.0365
  897MOL0     C20992   8.920   9.787   3.182 -1.2182  0.9275 -0.4426
  897MOL0     C20993   9.053   9.777   3.221  0.3899 -0.0954 -0.5828
  897MOL0     C20994   9.154   9.760   3.122 -1.1284  0.0892  0.8003
  897MOL0     O20995   9.288   9.730   3.148 -0.0406 -0.2200  0.1585
  897MOL0     C20996   9.336   9.785   3.269 -0.2705  0.3390  0.8266
  897MOL0     C20997   9.483   9.737   3.311 -0.4586 -0.6296 -0.7623
  897MOL0     C20998   9.506   9.599   3.353  0.1908  1.0572 -0.7540
  897MOL0     C20999   9.653   9.572   3.389  0.6749 -0.3446 -0.0965
  897MOL0     C21000   9.700   9.433   3.359 -0.0150  0.9932  0.1272
  897MOL0     C21001   9.840   9.399   3.428  0.5429  0.0919  0.6107
  897MOL0     C21002   9.882   9.252   3.412 -0.1066 -0.1147  0.5986
  897MOL0     C21003   9.970   9.237   3.287 -0.2203 -0.6142 -0.0710
  897MOL0    Cl21004  10.131   9.323   3.319  0.4286  0.4021  0.4871
  897MOL0     C21005   9.128   9.757   2.983 -0.5294 -0.0470  0.3556
  897MOL0     C21006   8.993   9.780   2.949 -0.4304  0.8899 -0.6324
  897MOL0     O21007   8.740   9.565   2.990 -0.4921 -0.6674 -0.5261
  897MOL0     C21008   8.476   9.569   2.940  0.0658 -0.0651  0.3494
  897MOL0     C21009   8.341   9.571   2.903  0.4436 -0.4953  0.0755
  897MOL0     N21010   7.938   9.355   2.488 -1.1857  0.1427 -0.2748
  897MOL0     N21011   7.954   9.258   2.405 -0.3862 -0.2747 -0.3457
  897MOL0     C21012   7.187   9.795   2.100  0.9010  1.0369 -0.0205
  897MOL0     C21013   7.071   9.878   2.088  0.4764  0.2362 -0.0998
  897MOL0     C21014   6.634   9.965   1.986  0.0314  1.2778  0.2875
  897MOL0     C21015   6.516   9.899   1.937 -0.6808  0.0861  1.1051
  897MOL0     C21016   6.407   9.970   1.887  0.4143 -0.0942 -0.9416
  897MOL0     C21017   6.409  10.114   1.896  0.3276 -0.5502  0.5581
  897MOL0     O21018   6.290  10.171   1.854  0.4470  0.4369  0.4988
  897MOL0     C21019   6.272  10.317   1.873  0.9945  0.1558  0.4844
  897MOL0     C21020   6.319  10.393   1.753  0.0150 -0.2733  0.4971
  897MOL0     C21021   6.253  10.332   1.618  0.7028 -0.4138  0.0047
  897MOL0     C21022   6.370  10.296   1.529  0.4159  0.1190  0.7676
  897MOL0     C21023   6.469  10.209   1.579 -0.6498  0.3687  0.0555
  897MOL0     C21024   6.553  10.124   1.605 -0.6612  0.9824  0.7062
  897MOL0     C21025   6.521  10.178   1.956  0.5705  0.4887  0.4929
  897MOL0     C21026   6.632  10.097   2.001 -0.4843  0.3952 -0.2793
  897MOL0     C21027   6.746  10.168   2.069  0.1387 -0.0962 -0.5679
  897MOL0     H21028   6.838   9.694   2.253  0.0719  1.2078  1.2448
  897MOL0     H21029   7.032   9.542   2.266  0.4382 -0.2628 -1.3432
  897MOL0     H21030   7.402   9.644   2.041 -3.1149  1.2314  1.8273
  897MOL0     H21031   7.424   9.673   2.220 -0.5122  0.4229  0.0525
  897MOL0     H21032   7.510   9.472   2.264  0.7586  0.3530 -0.0593
  897MOL0     H21033   7.596   9.531   2.111  1.2466  0.2468  0.6933
  897MOL0     H21034   7.453   9.368   1.988  3.0999 -2.5909 -0.0782
  897MOL0     H21035   7.343   9.345   2.125  0.0319  1.3893  1.4530
  897MOL0     H21036   7.522   9.231   2.257  3.1828 -0.1533 -0.5257
  897MOL0     H21037   7.463   9.140   2.118  0.8019 -0.7662  1.2278
  897MOL0     H21038   7.658   9.215   1.983  2.6403  2.7971 -1.0233
  897MOL0     H21039   7.701   9.327   2.107 -1.4328  0.3062  0.2512
  897MOL0     H21040   7.714   9.109   2.266 -0.1440 -1.1189  0.4888
  897MOL0     H21041   7.691   9.022   2.108  0.6822  0.1174 -1.8385
  897MOL0     H21042   7.897   9.057   2.037  1.1942  1.4238 -1.1388
  897MOL0     H21043   7.919   9.025   2.208  2.2447  1.3764  0.8832
  897MOL0     H21044   8.064   9.200   2.151  0.7118  0.3552  0.3165
  897MOL0     H21045   7.951   9.311   2.070  2.7207 -0.2714 -0.3168
  897MOL0     H21046   7.883   9.509   2.214  0.9000 -1.2206 -1.6383
  897MOL0     H21047   7.847   9.674   2.402 -0.7131 -1.6466 -0.5832
  897MOL0     H21048   7.787   9.597   2.550  0.3579  0.1511 -0.1178
  897MOL0     H21049   8.046   9.565   2.606 -2.6119 -1.8820 -1.3786
  897MOL0     H21050   8.084   9.686   2.486  0.6020  1.0316  0.6372
  897MOL0     H21051   7.902   9.733   2.714 -0.9013  0.8593 -1.2190
  897MOL0     H21052   7.940   9.859   2.599 -2.5560 -0.0598  0.9218
  897MOL0     H21053   8.083   9.879   2.801  0.4290 -0.8032  1.2146
  897MOL0     H21054   8.183   9.818   2.664 -0.1237 -0.3512  0.1417
  897MOL0     H21055   8.317   9.904   2.845  1.7806  0.7666 -0.5944
  897MOL0     H21056   8.558   9.903   2.927  4.5197 -2.4580 -0.0667
  897MOL0     H21057   8.850   9.783   3.265  0.7437 -3.3531  1.3595
  897MOL0     H21058   9.071   9.799   3.325 -0.6728 -0.9940 -0.1978
  897MOL0     H21059   9.340   9.894   3.259  2.2407  0.2715  0.5117
  897MOL0     H21060   9.270   9.766   3.354  0.9505  2.8454  2.4549
  897MOL0     H21061   9.546   9.746   3.221  1.7081  1.9858  0.8601
  897MOL0     H21062   9.535   9.802   3.382 -0.7451 -1.2200 -0.0011
  897MOL0     H21063   9.440   9.570   3.435 -0.5877  1.4011 -1.2520
  897MOL0     H21064   9.476   9.539   3.267  0.9960  0.5281 -0.6781
  897MOL0     H21065   9.657   9.589   3.497  4.9137 -2.0562  0.2414
  897MOL0     H21066   9.725   9.640   3.343  0.9545 -1.1063 -0.8340
  897MOL0     H21067   9.694   9.420   3.251 -1.5321  3.6661 -0.2035
  897MOL0     H21068   9.621   9.373   3.404  0.0849  1.9563  1.6629
  897MOL0     H21069   9.908   9.457   3.365  0.5526  0.3251  0.8371
  897MOL0     H21070   9.828   9.423   3.534  0.0080 -0.2932  0.6418
  897MOL0     H21071   9.791   9.191   3.414  1.5573 -2.8384 -0.8097
  897MOL0     H21072   9.945   9.233   3.499  0.7002  2.4124  0.6490
  897MOL0     H21073   9.982   9.137   3.244 -0.7656 -0.0027 -1.7097
  897MOL0     H21074   9.924   9.294   3.205  3.6767  2.2287 -0.5338
  897MOL0     H21075   9.193   9.753   2.896 -0.8347  0.6724  0.0867
  897MOL0     H21076   8.971   9.786   2.843  3.1034  1.1615 -1.4805
  897MOL0     H21077   8.522   9.474   2.963  0.6926  0.9137  3.6433
  897MOL0     H21078   8.298   9.477   2.872  0.2007 -0.2591 -0.3186
  897MOL0     H21079   7.282   9.815   2.052 -0.0702  0.7981 -2.1357
  897MOL0     H21080   7.075   9.974   2.039  1.6655  1.5291  2.3731
  897MOL0     H21081   6.514   9.791   1.921  0.2563 -0.1480  2.4130
  897MOL0     H21082   6.326   9.907   1.850 -0.1445  1.3797 -2.3804
  897MOL0     H21083   6.323  10.347   1.965  0.9131 -2.3158  1.4285
  897MOL0     H21084   6.167  10.340   1.895  0.3863  0.5700 -2.4013
  897MOL0     H21085   6.428  10.393   1.751  0.0196  0.4881  0.3774
  897MOL0     H21086   6.293  10.500   1.756  3.1816  0.5917  0.6701
  897MOL0     H21087   6.191  10.404   1.564  2.4928  3.0473  2.2641
  897MOL0     H21088   6.188  10.246   1.637 -1.2119  1.2634  1.5275
  897MOL0     H21089   6.327  10.250   1.440 -0.5106  1.8682  0.2801
  897MOL0     H21090   6.413  10.393   1.501  3.6720 -1.0133  1.3251
  897MOL0     H21091   6.621  10.049   1.639 -0.4012  0.2556 -1.3183
  897MOL0     H21092   6.529  10.282   1.984  1.6914  0.2221  1.2226
  897MOL0     H21093   6.736  10.271   2.031 -4.7842 -1.5101 -4.1378
  897MOL0     H21094   6.751  10.170   2.178  2.3040  6.8069 -0.2753
  897MOL0     H21095   6.842  10.135   2.028  0.6545  2.4519 -1.6333
  898MOL0     O21096  10.745   2.943   2.492  0.1834  0.3161  0.1755
  898MOL0     C21097  10.756   3.062   2.531 -0.7007  0.7169 -0.1925
  898MOL0     O21098  10.862   3.130   2.520 -0.7193  0.2751  0.0129
  898MOL0     C21099  10.990   3.077   2.486  0.4749 -0.5033  0.6079
  898MOL0     C21100  11.019   3.001   2.362  0.6628 -0.0518 -0.2963
  898MOL0     C21101  11.159   2.964   2.332  0.5818  1.6439 -0.6580
  898MOL0     C21102  11.256   2.985   2.427  0.8466  0.0728  0.2488
  898MOL0     O21103  11.378   2.939   2.399 -0.3319  0.0124 -0.4072
  898MOL0     C21104  11.450   3.000   2.292  0.5345 -0.3419  0.0274
  898MOL0     C21105  11.601   3.005   2.277  0.7790  0.4841  0.7559
  898MOL0     C21106  11.641   3.024   2.138  1.1202 -0.1822  0.6801
  898MOL0     C21107  11.778   3.085   2.109  0.2722  0.6503  0.1583
  898MOL0     C21108  11.886   2.982   2.111  0.0935  0.5852 -0.3087
  898MOL0     C21109  12.034   3.018   2.081  0.3296 -0.4118  0.4478
  898MOL0     C21110  12.079   3.016   1.937 -0.1277  0.5397 -0.0614
  898MOL0     C21111  12.065   3.148   1.862  0.0620  0.2780 -0.2638
  898MOL0     N21112  11.929   3.176   1.813 -0.2029  0.2131  0.3652
  898MOL0     C21113  11.860   3.085   1.740  0.7161  0.7326  0.7850
  898MOL0     C21114  11.739   3.136   1.707 -0.0422 -0.6921 -0.9275
  898MOL0     C21115  11.617   3.091   1.627  0.2336  0.5972  0.7519
  898MOL0     C21116  11.644   2.961   1.553  0.9330  0.3937 -0.3981
  898MOL0     C21117  11.529   2.901   1.474 -0.5030 -0.8294  0.8762
  898MOL0     C21118  11.552   2.755   1.427  0.1763 -0.1101  0.5314
  898MOL0     O21119  11.544   2.657   1.526 -0.5395 -0.1916 -0.4813
  898MOL0     C21120  11.534   2.530   1.497 -0.1422 -0.7305  0.1184
  898MOL0     C21121  11.470   2.445   1.586 -0.4882  0.5673  0.6971
  898MOL0     C21122  11.456   2.314   1.557  0.7675 -0.4430  0.4673
  898MOL0     C21123  11.497   2.267   1.433 -0.3212  0.2598  0.5208
  898MOL0     C21124  11.473   2.124   1.402 -1.0127  0.2021 -0.6532
  898MOL0     O21125  11.534   2.070   1.290 -0.0829 -0.5822  0.2452
  898MOL0     C21126  11.529   1.934   1.267  0.0247  0.3106  0.4352
  898MOL0     C21127  11.606   1.840   1.339 -0.5177  1.1199  0.0568
  898MOL0     C21128  11.591   1.698   1.311  0.3279  0.5851 -0.0403
  898MOL0     C21129  11.481   1.657   1.225 -0.4315 -0.5228 -0.4010
  898MOL0     O21130  11.458   1.521   1.219 -0.1479 -0.0797  1.0790
  898MOL0     C21131  11.325   1.479   1.249 -0.3408 -0.1560  1.1711
  898MOL0     C21132  11.317   1.353   1.336 -0.0999  0.0817 -0.0549
  898MOL0     C21133  11.403   1.244   1.268 -0.5698 -0.6207  0.6912
  898MOL0     C21134  11.515   1.186   1.356 -1.2518 -0.1036  0.4919
  898MOL0     C21135  11.631   1.289   1.352  0.5886  0.6568  0.0096
  898MOL0     C21136  11.765   1.221   1.382  0.1681 -0.5439  0.2453
  898MOL0     C21137  11.888   1.300   1.334 -0.4426 -1.1844 -0.1457
  898MOL0     C21138  12.017   1.234   1.400 -0.4538 -0.9498  0.1695
  898MOL0    Cl21139  12.042   1.289   1.567 -0.0781 -0.2953 -0.0506
  898MOL0     C21140  11.419   1.751   1.148 -0.5428 -0.5363  0.5175
  898MOL0     C21141  11.451   1.889   1.159  0.5042  0.0053 -0.4104
  898MOL0     O21142  11.394   2.067   1.479  0.2254 -0.6353  0.3871
  898MOL0     C21143  11.558   2.349   1.335  0.5022 -0.4767 -0.1745
  898MOL0     C21144  11.573   2.481   1.371 -0.3252  0.2060 -0.5727
  898MOL0     N21145  11.745   3.266   1.757  0.8317  0.3264 -0.4499
  898MOL0     N21146  11.853   3.288   1.827 -0.5777 -0.1350  1.2237
  898MOL0     C21147  11.223   3.037   2.548  0.4215  0.1182 -0.1710
  898MOL0     C21148  11.099   3.092   2.576  0.2637  0.2743  0.3024
  898MOL0     C21149  10.643   3.137   2.589 -0.0929  0.0317 -0.1257
  898MOL0     C21150  10.538   3.070   2.646  0.4840 -0.5873  0.3190
  898MOL0     C21151  10.421   3.134   2.693  0.0129 -0.1402  0.1857
  898MOL0     C21152  10.427   3.279   2.705  0.3621 -0.0880  0.4402
  898MOL0     O21153  10.325   3.353   2.754  0.2563  0.1182  0.2368
  898MOL0     C21154  10.206   3.284   2.803  0.3464 -0.1784  0.6053
  898MOL0     C21155  10.107   3.363   2.875  0.6416  0.1868  1.3238
  898MOL0     C21156  10.017   3.439   2.769 -0.9296  0.6074 -0.0178
  898MOL0     C21157   9.890   3.513   2.812 -0.2598 -0.8221  0.5821
  898MOL0     C21158   9.810   3.434   2.911 -0.5620 -0.0378  0.3354
  898MOL0     C21159   9.743   3.371   2.984  0.7483  0.2072 -0.2518
  898MOL0     C21160  10.536   3.342   2.647 -1.1108  0.0941  0.0093
  898MOL0     C21161  10.647   3.276   2.602  0.4238  0.4277  0.0206
  898MOL0     C21162  10.751   3.376   2.552 -0.9785  0.2478 -0.6227
  898MOL0     H21163  10.938   2.977   2.294  1.0540 -1.9915 -0.1222
  898MOL0     H21164  11.187   2.908   2.244 -1.9889 -0.7883 -0.0917
  898MOL0     H21165  11.415   2.943   2.205 -2.7589 -0.5313  1.3392
  898MOL0     H21166  11.407   3.101   2.289 -4.5716 -1.9107  4.3433
  898MOL0     H21167  11.631   2.903   2.303  2.0675  1.2720  2.5205
  898MOL0     H21168  11.648   3.066   2.354  1.9719 -2.4028  2.4468
  898MOL0     H21169  11.565   3.087   2.091  0.8519 -0.1887  1.0963
  898MOL0     H21170  11.638   2.927   2.087 -1.3528  0.7523 -1.1663
  898MOL0     H21171  11.760   3.116   2.006 -1.5662  0.5181  0.3964
  898MOL0     H21172  11.796   3.168   2.179 -2.2449  0.1347  1.5358
  898MOL0     H21173  11.886   2.944   2.214 -1.7329  2.3671  0.3973
  898MOL0     H21174  11.867   2.911   2.029 -1.6244 -1.4511  1.7390
  898MOL0     H21175  12.049   3.120   2.117 -5.0406 -0.4926  4.0911
  898MOL0     H21176  12.096   2.955   2.145  0.1342  0.0311  1.0768
  898MOL0     H21177  12.032   2.933   1.884  1.1076  0.0566 -0.4312
  898MOL0     H21178  12.183   2.985   1.942 -0.8730 -1.9906  3.1311
  898MOL0     H21179  12.088   3.237   1.921  0.7162  2.4879 -3.5910
  898MOL0     H21180  12.130   3.138   1.774 -0.8964 -0.4370 -0.9102
  898MOL0     H21181  11.895   2.991   1.699  2.0217  2.7377 -3.3089
  898MOL0     H21182  11.530   3.078   1.692  1.1842 -2.0841  1.6338
  898MOL0     H21183  11.596   3.168   1.552  0.2452 -0.1650 -0.0531
  898MOL0     H21184  11.723   2.986   1.483  1.4668  0.0431  0.0715
  898MOL0     H21185  11.668   2.887   1.630 -1.3836  0.0577  0.0933
  898MOL0     H21186  11.521   2.967   1.387  2.2532 -1.5987 -0.0669
  898MOL0     H21187  11.433   2.915   1.524 -0.6508 -0.7576  0.5770
  898MOL0     H21188  11.654   2.747   1.388 -0.7049  1.3125 -2.3729
  898MOL0     H21189  11.477   2.742   1.349 -0.8341 -1.6360  1.6941
  898MOL0     H21190  11.432   2.484   1.680  0.0548 -1.2167  1.6903
  898MOL0     H21191  11.406   2.257   1.635  1.8894  0.6176  2.0539
  898MOL0     H21192  11.684   1.866   1.410  1.0495 -1.4200 -0.5898
  898MOL0     H21193  11.648   1.623   1.364 -0.1219  0.5490  0.4058
  898MOL0     H21194  11.263   1.552   1.301  2.5383  1.3666  2.7161
  898MOL0     H21195  11.280   1.455   1.152 -1.6846  1.5837  1.3248
  898MOL0     H21196  11.342   1.363   1.442 -0.8829  0.2841  0.1206
  898MOL0     H21197  11.213   1.319   1.348  0.0305  0.4241  2.7338
  898MOL0     H21198  11.336   1.159   1.254 -1.1878 -0.3788  1.9895
  898MOL0     H21199  11.440   1.273   1.169  2.9805  1.7552  2.4826
  898MOL0     H21200  11.551   1.106   1.291 -1.5853 -0.5362  0.8346
  898MOL0     H21201  11.487   1.146   1.454  1.3086 -1.0440  0.9369
  898MOL0     H21202  11.626   1.377   1.418 -1.7489  1.7324 -1.4683
  898MOL0     H21203  11.637   1.324   1.249  1.6931  0.4312 -0.0140
  898MOL0     H21204  11.767   1.211   1.491  0.5349  2.8405  0.6537
  898MOL0     H21205  11.763   1.119   1.342 -1.5689 -0.7251  0.7386
  898MOL0     H21206  11.885   1.400   1.377  0.9382 -1.7374  1.3417
  898MOL0     H21207  11.894   1.301   1.225  0.2045  1.3622 -0.1375
  898MOL0     H21208  12.017   1.127   1.377 -2.5157 -0.6998 -1.2462
  898MOL0     H21209  12.096   1.282   1.341 -2.6250  1.0379 -1.2918
  898MOL0     H21210  11.349   1.713   1.074  0.8964 -2.2029 -0.0553
  898MOL0     H21211  11.402   1.952   1.085 -0.9839 -1.3989 -0.6672
  898MOL0     H21212  11.592   2.322   1.235 -0.6119 -0.7905 -0.4773
  898MOL0     H21213  11.611   2.550   1.295  1.8785  0.6344  0.8255
  898MOL0     H21214  11.302   3.051   2.621  0.4864 -0.8772 -0.0388
  898MOL0     H21215  11.095   3.155   2.665  3.9389  3.1557 -1.3090
  898MOL0     H21216  10.528   2.963   2.630  0.6486 -1.0075  2.6956
  898MOL0     H21217  10.334   3.078   2.726 -1.9115  2.2589 -0.5419
  898MOL0     H21218  10.246   3.199   2.859 -0.5540 -2.3440 -1.8080
  898MOL0     H21219  10.164   3.226   2.720 -1.6929  1.4497  0.4453
  898MOL0     H21220  10.151   3.446   2.932  1.4127  0.2378  0.6691
  898MOL0     H21221  10.043   3.292   2.929 -0.7348 -0.3034 -0.8322
  898MOL0     H21222   9.991   3.362   2.696 -1.7069  0.1648  0.7121
  898MOL0     H21223  10.084   3.508   2.717  0.7483 -2.4360 -2.1741
  898MOL0     H21224   9.917   3.612   2.848  1.6502 -1.3683  0.7667
  898MOL0     H21225   9.830   3.526   2.721  2.9511 -3.8328 -2.2704
  898MOL0     H21226   9.670   3.322   3.045  2.8288  0.5510  2.7837
  898MOL0     H21227  10.537   3.450   2.652  1.0948  0.2483 -1.9536
  898MOL0     H21228  10.832   3.396   2.623 -0.0806 -0.4252 -1.4276
  898MOL0     H21229  10.796   3.333   2.462 -1.2093 -0.6965 -0.2972
  898MOL0     H21230  10.701   3.469   2.521 -1.3455 -0.6816 -2.9521
  899MOL0     O21231   6.987   2.593   4.855  0.5082 -0.4704  0.3566
  899MOL0     C21232   7.095   2.545   4.891  0.1569 -0.9892  0.1523
  899MOL0     O21233   7.213   2.617   4.887  0.0411  0.3134 -0.3288
  899MOL0     C21234   7.213   2.750   4.934  0.4530  0.3755  0.7514
  899MOL0     C21235   7.286   2.792   5.039  0.1039 -0.0066 -0.4270
  899MOL0     C21236   7.274   2.932   5.072 -0.4756  0.0973 -0.0981
  899MOL0     C21237   7.185   3.022   5.011 -0.1151  0.6479  0.6469
  899MOL0     O21238   7.189   3.155   5.060 -0.7319  0.6871  0.6437
  899MOL0     C21239   7.184   3.248   4.955 -0.4241  0.2413 -0.1115
  899MOL0     C21240   7.225   3.379   5.015 -0.3155 -1.1383  0.1065
  899MOL0     C21241   7.240   3.499   4.922 -0.5819 -0.7947 -0.4097
  899MOL0     C21242   7.122   3.523   4.819  0.1440  0.4614 -0.2234
  899MOL0     C21243   7.104   3.670   4.786 -0.6698  0.2032  1.2684
  899MOL0     C21244   7.047   3.745   4.902  0.2724  0.3199 -0.3182
  899MOL0     C21245   7.063   3.893   4.860 -0.1909  0.4449  0.1357
  899MOL0     C21246   6.995   3.985   4.952 -0.2795  0.4908  0.3762
  899MOL0     N21247   6.854   3.960   4.976 -0.5589 -0.6911  0.5106
  899MOL0     C21248   6.793   3.901   5.080  0.0846  0.0882  0.4136
  899MOL0     C21249   6.657   3.906   5.055 -0.4182  0.6071 -0.2684
  899MOL0     C21250   6.554   3.860   5.153 -0.0518  1.0001  0.5126
  899MOL0     C21251   6.407   3.865   5.104  0.0948  0.3306 -0.3018
  899MOL0     C21252   6.321   3.781   5.202  1.1874  0.3139 -0.0865
  899MOL0     C21253   6.180   3.767   5.137  0.3392 -0.4827  0.6822
  899MOL0     O21254   6.174   3.683   5.024  0.2038  0.3966 -0.4973
  899MOL0     C21255   6.051   3.628   4.984  0.3709  0.0964  0.0841
  899MOL0     C21256   5.926   3.686   4.986  0.2267 -0.7648  0.8532
  899MOL0     C21257   5.810   3.610   4.952 -0.0961  0.2497 -0.3023
  899MOL0     C21258   5.821   3.480   4.911  0.5795  0.7352  0.0481
  899MOL0     C21259   5.700   3.403   4.875 -0.1002 -0.4087 -1.7452
  899MOL0     O21260   5.583   3.467   4.893  0.5785 -0.6113 -0.1506
  899MOL0     C21261   5.465   3.397   4.872  0.1434  0.0480  0.6449
  899MOL0     C21262   5.371   3.396   4.977  0.3971  0.1851 -0.0327
  899MOL0     C21263   5.248   3.326   4.969 -0.2754  0.6869 -0.0725
  899MOL0     C21264   5.211   3.257   4.855  0.0947  0.8081  0.3300
  899MOL0     O21265   5.103   3.169   4.865 -0.0504 -0.3917 -0.1824
  899MOL0     C21266   5.091   3.081   4.755  0.2958  0.2114 -0.1324
  899MOL0     C21267   4.979   2.980   4.773  0.6825  0.1069 -0.7593
  899MOL0     C21268   4.844   3.063   4.774 -0.2046  0.2800  0.3225
  899MOL0     C21269   4.729   2.970   4.742  0.4551  1.0742 -0.2759
  899MOL0     C21270   4.615   3.070   4.747  0.7557  0.1176  0.3588
  899MOL0     C21271   4.480   2.995   4.719 -0.1514 -0.1820 -0.3444
  899MOL0     C21272   4.449   2.897   4.836  0.2112 -0.7757  0.5105
  899MOL0     C21273   4.305   2.852   4.841 -0.5453 -0.4338 -0.0735
  899MOL0    Cl21274   4.187   2.985   4.853 -0.2435 -1.0054 -0.0784
  899MOL0     C21275   5.293   3.272   4.747 -0.6277  0.3235  0.0706
  899MOL0     C21276   5.416   3.336   4.756  0.2688 -0.0144  0.2954
  899MOL0     O21277   5.714   3.294   4.826 -0.0411 -0.0640  0.1820
  899MOL0     C21278   5.953   3.429   4.905 -0.4095 -0.4981 -0.8236
  899MOL0     C21279   6.070   3.508   4.929  0.1676  0.4795 -0.5077
  899MOL0     N21280   6.647   3.968   4.930  0.7989 -0.6641  0.0108
  899MOL0     N21281   6.762   4.003   4.879 -0.6987  0.1639 -0.5167
  899MOL0     C21282   7.115   2.978   4.901 -0.4869  0.4276  0.7252
  899MOL0     C21283   7.137   2.846   4.861  0.7750  0.2102 -0.3342
  899MOL0     C21284   7.109   2.404   4.887 -0.3954  0.4907  0.0693
  899MOL0     C21285   7.224   2.343   4.825  0.8076 -0.8395 -0.1376
  899MOL0     C21286   7.236   2.205   4.829 -1.0165  0.1160 -0.6140
  899MOL0     C21287   7.131   2.115   4.874  0.5757 -0.1542  0.4510
  899MOL0     O21288   7.124   1.983   4.844 -1.3463 -0.7940  0.3346
  899MOL0     C21289   7.241   1.914   4.787 -0.2266  0.6666  0.7011
  899MOL0     C21290   7.350   1.881   4.891  0.5586 -0.2691  0.2775
  899MOL0     C21291   7.418   1.742   4.879  0.4205 -0.0852  0.0276
  899MOL0     C21292   7.519   1.733   4.757  0.0082  0.7613  0.6873
  899MOL0     C21293   7.450   1.720   4.628  0.5344  0.7549 -1.2248
  899MOL0     C21294   7.381   1.694   4.530  0.9218 -0.1787  0.1724
  899MOL0     C21295   7.014   2.175   4.920 -0.5342  0.4071  0.3452
  899MOL0     C21296   7.009   2.311   4.938 -1.0598 -0.2299  0.9212
  899MOL0     C21297   6.881   2.366   5.011  0.6352  0.2246  0.5470
  899MOL0     H21298   7.357   2.739   5.103  1.2888  3.4377  1.3881
  899MOL0     H21299   7.337   2.970   5.151  0.0085  0.2905 -0.5745
  899MOL0     H21300   7.249   3.209   4.876 -1.2533 -0.2690 -0.5579
  899MOL0     H21301   7.081   3.252   4.919 -1.1415 -0.8330  1.6969
  899MOL0     H21302   7.320   3.366   5.068  0.5150 -1.1621 -1.3371
  899MOL0     H21303   7.136   3.406   5.074 -1.4322  2.0185 -2.7222
  899MOL0     H21304   7.331   3.485   4.863  0.6791  2.4704  0.5082
  899MOL0     H21305   7.262   3.583   4.989 -0.9095  0.5915 -1.9564
  899MOL0     H21306   7.136   3.458   4.732 -1.2717  0.9650 -0.8662
  899MOL0     H21307   7.026   3.487   4.856 -0.9346  1.2806 -2.0800
  899MOL0     H21308   7.202   3.711   4.762  0.1927 -2.4272  0.0188
  899MOL0     H21309   7.044   3.666   4.695  1.7877 -1.1466 -0.3746
  899MOL0     H21310   6.942   3.726   4.927  0.6538 -0.9067  0.4347
  899MOL0     H21311   7.094   3.731   5.000 -2.1338 -0.5064  0.7862
  899MOL0     H21312   7.037   3.906   4.755  3.1488 -1.7152 -1.1395
  899MOL0     H21313   7.171   3.910   4.855 -0.0441 -0.7759 -1.6952
  899MOL0     H21314   7.052   3.992   5.045  2.5443  1.1535 -1.2703
  899MOL0     H21315   7.004   4.084   4.906 -0.0091  0.2738 -0.0482
  899MOL0     H21316   6.843   3.880   5.174 -0.9392  2.9912  1.7115
  899MOL0     H21317   6.584   3.760   5.186  2.0632  1.0254 -1.0745
  899MOL0     H21318   6.557   3.920   5.244  0.6562  0.5037  0.8256
  899MOL0     H21319   6.379   3.971   5.107 -0.9922  0.2537 -3.3983
  899MOL0     H21320   6.401   3.833   4.999  1.5350  0.0529 -0.3280
  899MOL0     H21321   6.316   3.823   5.303 -1.5199 -0.7422  0.3037
  899MOL0     H21322   6.354   3.678   5.209 -0.9693 -0.3033  2.2017
  899MOL0     H21323   6.157   3.869   5.105  3.3711 -0.7883 -3.2775
  899MOL0     H21324   6.111   3.720   5.207  1.2163 -2.9081  0.0073
  899MOL0     H21325   5.920   3.790   5.019  0.0594 -1.3279  2.6944
  899MOL0     H21326   5.714   3.660   4.947 -0.2696  0.4882  3.0426
  899MOL0     H21327   5.395   3.449   5.069 -0.9831 -0.5577  0.7999
  899MOL0     H21328   5.182   3.331   5.055 -0.4888  3.2505 -0.3149
  899MOL0     H21329   5.066   3.128   4.660 -0.2158 -0.1311 -0.1728
  899MOL0     H21330   5.182   3.022   4.741 -1.3293 -2.3840 -0.4064
  899MOL0     H21331   4.974   2.904   4.695 -0.1887 -0.1841 -0.4343
  899MOL0     H21332   4.990   2.918   4.862  0.8576  3.9471  2.1797
  899MOL0     H21333   4.822   3.102   4.874 -1.5067 -1.4782  0.7871
  899MOL0     H21334   4.850   3.150   4.707 -0.8143 -0.6757 -1.0148
  899MOL0     H21335   4.720   2.902   4.827  1.1851  0.9355 -0.2981
  899MOL0     H21336   4.728   2.911   4.650 -0.3131 -0.0283  0.4199
  899MOL0     H21337   4.621   3.150   4.673 -0.6189  0.5112  0.6432
  899MOL0     H21338   4.608   3.115   4.847 -0.3512 -0.1380  0.4137
  899MOL0     H21339   4.409   3.077   4.709 -0.6104 -0.3473  1.2565
  899MOL0     H21340   4.498   2.937   4.628  0.6673  1.0075 -0.9768
  899MOL0     H21341   4.474   2.956   4.924  2.9644 -0.1729 -0.5541
  899MOL0     H21342   4.517   2.810   4.841  0.5882 -0.4774  0.6543
  899MOL0     H21343   4.288   2.813   4.741 -1.1770 -3.7201  1.1715
  899MOL0     H21344   4.299   2.760   4.900  3.8687 -1.5055 -0.9325
  899MOL0     H21345   5.285   3.205   4.662 -3.5668  0.7206 -0.0513
  899MOL0     H21346   5.477   3.340   4.667  0.3151  2.7587  0.3653
  899MOL0     H21347   5.943   3.324   4.879 -4.2850 -0.0595 -1.7890
  899MOL0     H21348   6.168   3.463   4.936 -0.4468 -0.5944  3.1315
  899MOL0     H21349   7.046   3.038   4.843 -1.5279 -1.5457 -0.1832
  899MOL0     H21350   7.074   2.820   4.776 -1.2288  0.3658  1.0359
  899MOL0     H21351   7.295   2.415   4.785  0.5938 -0.0202  0.9250
  899MOL0     H21352   7.330   2.174   4.785  1.1330  3.4972  1.1445
  899MOL0     H21353   7.282   1.977   4.708  0.8022 -1.2548 -0.3796
  899MOL0     H21354   7.214   1.817   4.744  2.4631 -1.7337  3.8666
  899MOL0     H21355   7.304   1.899   4.989  3.0733  0.4665  1.4324
  899MOL0     H21356   7.430   1.956   4.892 -0.1089  0.6557  4.6234
  899MOL0     H21357   7.334   1.673   4.863  1.5055 -1.1927 -1.1388
  899MOL0     H21358   7.462   1.716   4.975 -1.6095  0.2711  1.1063
  899MOL0     H21359   7.588   1.817   4.761  0.9772  0.0008  0.2338
  899MOL0     H21360   7.582   1.648   4.782  2.8606  3.3760  3.2718
  899MOL0     H21361   7.325   1.684   4.439  2.0110 -4.4191 -0.2529
  899MOL0     H21362   6.927   2.112   4.936  0.1705 -1.0058 -1.1079
  899MOL0     H21363   6.902   2.434   5.095  2.0292 -0.2647  0.6060
  899MOL0     H21364   6.820   2.431   4.947 -2.5468  1.2335  4.1654
  899MOL0     H21365   6.818   2.281   5.039  0.5545 -0.5849 -1.8548
  900MOL0     O21366   4.600   2.589   1.874 -0.0935  0.0050 -0.6854
  900MOL0     C21367   4.580   2.711   1.872 -0.5854 -0.6246  0.5100
  900MOL0     O21368   4.661   2.811   1.913 -0.2520 -0.3499  0.2650
  900MOL0     C21369   4.778   2.775   1.976 -0.3181 -0.3079 -0.3421
  900MOL0     C21370   4.896   2.732   1.901  0.5380 -0.8827  0.0117
  900MOL0     C21371   4.998   2.684   1.983 -0.4160  0.2400  0.5021
  900MOL0     C21372   5.005   2.671   2.119  0.1501  0.0963 -0.9786
  900MOL0     O21373   5.114   2.634   2.192  0.3756  0.3262  0.5175
  900MOL0     C21374   5.236   2.661   2.123  1.1195  0.1644  0.1353
  900MOL0     C21375   5.360   2.646   2.204  0.1581  0.2836 -0.3868
  900MOL0     C21376   5.484   2.592   2.138  1.1907 -0.1065  0.5260
  900MOL0     C21377   5.611   2.610   2.224 -0.2139 -0.1633  0.9377
  900MOL0     C21378   5.735   2.646   2.137  0.5008  0.1466 -0.3067
  900MOL0     C21379   5.864   2.660   2.216  0.3692 -0.0507  0.7062
  900MOL0     C21380   5.974   2.699   2.116 -0.2563 -0.5853  0.3704
  900MOL0     C21381   6.046   2.571   2.074  0.0369  0.7257  0.4017
  900MOL0     N21382   6.168   2.596   1.997  0.0356 -0.3124  0.2070
  900MOL0     C21383   6.298   2.612   2.047  0.4047  0.0186 -0.0812
  900MOL0     C21384   6.375   2.608   1.941  0.0921  1.1140  0.6048
  900MOL0     C21385   6.515   2.651   1.956  0.4100  0.4247  0.6028
  900MOL0     C21386   6.609   2.540   1.904 -0.3822  0.0542 -0.5295
  900MOL0     C21387   6.752   2.590   1.912 -0.3490 -0.5909  0.1903
  900MOL0     C21388   6.851   2.480   1.881  0.0562  0.2437  0.5744
  900MOL0     O21389   6.796   2.376   1.796 -0.4573  0.0706  0.1541
  900MOL0     C21390   6.852   2.247   1.823 -0.7102 -0.6474 -0.1095
  900MOL0     C21391   6.989   2.217   1.844  0.0483 -0.3492  0.0117
  900MOL0     C21392   7.037   2.084   1.882  0.9108 -0.1761 -0.3238
  900MOL0     C21393   6.949   1.977   1.885 -0.1541 -0.2764  0.3890
  900MOL0     C21394   6.988   1.839   1.919 -0.6348  0.3357 -0.0292
  900MOL0     O21395   7.114   1.809   1.954 -0.1855  0.1102  0.7128
  900MOL0     C21396   7.155   1.675   1.971  0.7532 -0.8722 -0.0413
  900MOL0     C21397   7.159   1.618   2.098  0.6328  0.6204 -0.0886
  900MOL0     C21398   7.209   1.484   2.110  0.0525  0.5083  0.2445
  900MOL0     C21399   7.266   1.419   2.008 -0.8888 -0.9060  0.8361
  900MOL0     O21400   7.328   1.303   2.007 -0.7589 -0.1650 -0.2092
  900MOL0     C21401   7.277   1.202   2.100  0.8062 -0.0772  0.3894
  900MOL0     C21402   7.141   1.140   2.061  0.3451  0.3841  0.4068
  900MOL0     C21403   7.109   1.013   2.150 -0.0673 -0.1477  0.4592
  900MOL0     C21404   6.970   1.018   2.224 -0.5182 -0.2139 -0.9116
  900MOL0     C21405   6.869   0.974   2.122 -0.3516  0.4758 -0.4201
  900MOL0     C21406   6.739   1.007   2.182  0.2391  0.4126  0.7130
  900MOL0     C21407   6.620   0.979   2.087 -0.2715  0.3868  0.9450
  900MOL0     C21408   6.488   0.977   2.147 -0.2262  1.1905  0.8421
  900MOL0    Cl21409   6.446   1.129   2.217 -0.1450  0.1458  0.1721
  900MOL0     C21410   7.253   1.474   1.881  0.6481 -1.2846 -0.2205
  900MOL0     C21411   7.208   1.607   1.862  0.4741  0.3256  0.0218
  900MOL0     O21412   6.905   1.749   1.899  0.2252 -0.0514  0.6219
  900MOL0     C21413   6.810   2.010   1.847  0.0527  1.0873  0.0693
  900MOL0     C21414   6.771   2.142   1.826  0.1887  0.8294  0.0418
  900MOL0     N21415   6.299   2.601   1.828 -0.3075 -0.8818 -0.8117
  900MOL0     N21416   6.180   2.593   1.862  0.5301  1.0682 -0.0869
  900MOL0     C21417   4.892   2.727   2.184  0.5472  0.3966 -1.0425
  900MOL0     C21418   4.783   2.773   2.119 -0.3902  1.1945  0.2225
  900MOL0     C21419   4.454   2.771   1.818  0.1719  0.0643  0.5848
  900MOL0     C21420   4.333   2.733   1.889 -0.2667 -0.0327  0.1467
  900MOL0     C21421   4.210   2.764   1.842 -0.1441  0.0837  0.4841
  900MOL0     C21422   4.193   2.840   1.724 -0.4312  0.4613  0.8648
  900MOL0     O21423   4.075   2.868   1.664  0.4390  0.0681  0.3151
  900MOL0     C21424   3.951   2.817   1.715 -0.3136  0.1602  0.6659
  900MOL0     C21425   3.828   2.834   1.620 -0.3636  0.3438  0.7121
  900MOL0     C21426   3.849   2.771   1.481  0.4991  0.9552 -0.4106
  900MOL0     C21427   3.898   2.624   1.473 -0.0512 -0.8375  0.7518
  900MOL0     C21428   3.810   2.533   1.538 -0.1175 -0.5854 -0.6763
  900MOL0     C21429   3.710   2.468   1.570  0.4134 -0.5486  0.2463
  900MOL0     C21430   4.309   2.882   1.652 -0.1517  0.2365  0.3968
  900MOL0     C21431   4.438   2.848   1.700 -0.4967 -0.5932 -0.2654
  900MOL0     C21432   4.564   2.862   1.604 -0.2497 -0.2696 -0.1271
  900MOL0     H21433   4.894   2.720   1.793 -0.2651 -2.0533  0.1328
  900MOL0     H21434   5.093   2.664   1.934 -0.0734  1.6057  0.5673
  900MOL0     H21435   5.240   2.593   2.038 -0.0099 -1.4643  1.2942
  900MOL0     H21436   5.246   2.763   2.086 -0.8200  0.0352 -0.8718
  900MOL0     H21437   5.336   2.578   2.286 -3.5255  0.0927 -1.4268
  900MOL0     H21438   5.382   2.746   2.243 -0.7302 -0.0241  0.9683
  900MOL0     H21439   5.498   2.638   2.040  0.5619 -3.4095 -1.2701
  900MOL0     H21440   5.478   2.488   2.106  0.1612  0.2037 -0.3651
  900MOL0     H21441   5.602   2.693   2.295  0.5167  0.5585  0.2234
  900MOL0     H21442   5.620   2.529   2.296 -0.9831 -0.3617  0.8146
  900MOL0     H21443   5.749   2.567   2.063 -2.0736 -0.6529 -0.0622
  900MOL0     H21444   5.714   2.739   2.083 -1.7307 -1.5424 -2.6630
  900MOL0     H21445   5.849   2.749   2.279  1.6104  0.9631 -0.3728
  900MOL0     H21446   5.885   2.566   2.267 -1.0422 -0.5881  0.3422
  900MOL0     H21447   6.051   2.757   2.167  1.4358 -2.6924  0.3341
  900MOL0     H21448   5.937   2.753   2.028  2.0933 -0.0170 -0.3415
  900MOL0     H21449   6.072   2.510   2.161  2.4912 -0.3142 -0.9724
  900MOL0     H21450   5.984   2.519   2.000  2.7214  1.0688 -2.2914
  900MOL0     H21451   6.321   2.604   2.153 -2.5810  0.3181  0.6710
  900MOL0     H21452   6.531   2.746   1.903 -1.6667  0.1709 -0.5661
  900MOL0     H21453   6.540   2.677   2.060  1.8909  0.9058  0.1568
  900MOL0     H21454   6.590   2.452   1.966 -2.4069 -0.7756 -2.1959
  900MOL0     H21455   6.584   2.505   1.803  2.5681 -2.7160 -0.4720
  900MOL0     H21456   6.766   2.622   2.016 -1.5584  1.3924 -0.2066
  900MOL0     H21457   6.760   2.672   1.840  1.7697 -0.1283  0.8859
  900MOL0     H21458   6.890   2.431   1.971 -0.7028 -1.3184  0.0919
  900MOL0     H21459   6.935   2.523   1.825 -2.6522  0.5606 -3.6569
  900MOL0     H21460   7.074   2.285   1.840  1.9615 -2.6391 -0.8927
  900MOL0     H21461   7.139   2.070   1.914  1.1982  3.5692  0.9257
  900MOL0     H21462   7.092   1.661   2.172  1.0641 -0.1228  0.7573
  900MOL0     H21463   7.204   1.442   2.210 -1.4820  2.8879  1.2482
  900MOL0     H21464   7.338   1.111   2.102 -1.3678 -1.7017 -1.6449
  900MOL0     H21465   7.275   1.240   2.202  1.4632 -0.6480  0.6231
  900MOL0     H21466   7.068   1.216   2.088  1.2193  0.8855  1.4491
  900MOL0     H21467   7.125   1.121   1.955  1.1024  1.8023  0.0139
  900MOL0     H21468   7.122   0.929   2.082 -1.3735 -0.5965  0.7352
  900MOL0     H21469   7.176   0.999   2.235  0.3417  1.8701  0.5095
  900MOL0     H21470   6.948   1.111   2.277 -1.3692 -0.1403 -1.3862
  900MOL0     H21471   6.975   0.933   2.292  0.5011  0.1664 -0.4808
  900MOL0     H21472   6.878   0.865   2.111  0.7888  0.6455 -1.3821
  900MOL0     H21473   6.892   1.018   2.024  3.9232  2.1408  1.0843
  900MOL0     H21474   6.727   0.936   2.265  1.3773  4.0646  4.3011
  900MOL0     H21475   6.728   1.111   2.214 -2.8521  0.8456 -1.2242
  900MOL0     H21476   6.636   0.880   2.041  0.9017  1.0359 -0.1398
  900MOL0     H21477   6.619   1.056   2.009  1.0225  0.5966  1.1032
  900MOL0     H21478   6.419   0.959   2.064  2.7370  1.0622 -1.8412
  900MOL0     H21479   6.473   0.897   2.219  0.1670 -1.9989 -2.3336
  900MOL0     H21480   7.299   1.425   1.795 -0.6640 -0.0504 -1.6594
  900MOL0     H21481   7.181   1.658   1.770  0.6003 -0.6987 -0.5971
  900MOL0     H21482   6.736   1.931   1.857 -1.2386  2.0455 -1.4143
  900MOL0     H21483   6.665   2.164   1.830  0.3206  1.5769  4.4362
  900MOL0     H21484   4.900   2.732   2.292 -0.2397 -2.5975 -0.7603
  900MOL0     H21485   4.697   2.801   2.179 -0.4442  0.0222  0.7164
  900MOL0     H21486   4.338   2.682   1.985 -4.1320 -1.4638 -0.2419
  900MOL0     H21487   4.122   2.723   1.890 -1.2001 -0.1754 -1.5671
  900MOL0     H21488   3.922   2.879   1.800  0.0305  1.3809 -0.0719
  900MOL0     H21489   3.960   2.711   1.742  0.5415 -0.6837 -2.4241
  900MOL0     H21490   3.819   2.942   1.607 -0.8946  0.6137  2.9725
  900MOL0     H21491   3.740   2.799   1.674 -0.4863  0.8151  0.8201
  900MOL0     H21492   3.923   2.835   1.432 -1.5773  3.0398 -1.0288
  900MOL0     H21493   3.760   2.786   1.420  1.3687 -0.6680 -2.1921
  900MOL0     H21494   3.926   2.594   1.372 -0.7161 -2.0591  0.9059
  900MOL0     H21495   3.992   2.624   1.529  0.0758 -0.8573  0.5411
  900MOL0     H21496   3.622   2.414   1.597 -1.2048  1.4872 -0.6407
  900MOL0     H21497   4.296   2.928   1.555 -4.2048 -0.7477  0.3185
  900MOL0     H21498   4.635   2.934   1.646  0.2347 -0.1093 -1.1856
  900MOL0     H21499   4.614   2.766   1.592 -1.1818 -0.5519 -2.2036
  900MOL0     H21500   4.527   2.901   1.508 -2.2750 -2.0993 -0.1694
  901MOL0     O21501   5.693   6.302   1.288  0.0743 -0.1407  0.4891
  901MOL0     C21502   5.673   6.184   1.319 -0.0386  0.5837  0.7991
  901MOL0     O21503   5.766   6.103   1.391  0.4749 -0.0043  0.2027
  901MOL0     C21504   5.901   6.121   1.383 -0.1809 -0.6141  0.2201
  901MOL0     C21505   5.983   6.056   1.477  0.2453  0.0318  0.6906
  901MOL0     C21506   6.123   6.056   1.491  0.0855 -0.7317 -0.4414
  901MOL0     C21507   6.191   6.142   1.395 -0.2435 -0.7819 -0.2594
  901MOL0     O21508   6.323   6.166   1.400 -0.4650 -0.7210 -0.3300
  901MOL0     C21509   6.403   6.091   1.485 -0.0825  0.5049  0.3781
  901MOL0     C21510   6.542   6.119   1.454  0.5777 -0.3719 -0.3506
  901MOL0     C21511   6.647   6.010   1.490 -0.3221 -0.0399  0.2413
  901MOL0     C21512   6.757   6.008   1.383 -0.2882 -0.0933 -0.0441
  901MOL0     C21513   6.882   6.097   1.405  0.5546  0.5668  0.6719
  901MOL0     C21514   6.976   6.089   1.284 -0.1646 -0.7581 -0.3175
  901MOL0     C21515   7.108   6.170   1.299 -0.4097  0.8319  0.5906
  901MOL0     C21516   7.189   6.150   1.167  0.8709  0.4842 -0.1225
  901MOL0     N21517   7.289   6.259   1.157 -0.0577  0.2330  0.9358
  901MOL0     C21518   7.415   6.249   1.204  0.5327  0.0792 -0.2434
  901MOL0     C21519   7.472   6.371   1.194  0.6799  0.9000 -0.7401
  901MOL0     C21520   7.610   6.396   1.246 -0.6355  0.2532  0.1396
  901MOL0     C21521   7.730   6.395   1.142  0.1697  0.7533  0.0011
  901MOL0     C21522   7.702   6.449   0.998  1.1764 -0.3063 -0.6358
  901MOL0     C21523   7.825   6.441   0.902 -0.3194  0.3595  0.4283
  901MOL0     O21524   7.927   6.528   0.954 -0.0421 -1.1376  0.2148
  901MOL0     C21525   8.048   6.535   0.887  0.2172 -0.3010 -1.0343
  901MOL0     C21526   8.089   6.440   0.793 -0.9295 -0.2275  0.9697
  901MOL0     C21527   8.208   6.455   0.722  0.2988 -0.4997 -0.1488
  901MOL0     C21528   8.299   6.565   0.753  0.3548 -0.5439  0.1435
  901MOL0     C21529   8.420   6.572   0.684 -0.0506  0.2778 -0.1919
  901MOL0     O21530   8.454   6.474   0.596 -0.2817 -0.1825 -0.4897
  901MOL0     C21531   8.579   6.472   0.546 -0.3135 -0.3293  0.3015
  901MOL0     C21532   8.639   6.352   0.550  0.2094  0.3466 -0.4493
  901MOL0     C21533   8.771   6.333   0.520  0.7042  1.7828  0.5341
  901MOL0     C21534   8.856   6.427   0.461 -0.3536  0.6096 -0.8536
  901MOL0     O21535   8.989   6.392   0.450  0.3857  0.8827 -0.1750
  901MOL0     C21536   9.069   6.500   0.413 -0.7951 -0.0017 -0.1005
  901MOL0     C21537   9.218   6.497   0.458  0.2944  0.5884 -0.0260
  901MOL0     C21538   9.302   6.620   0.432 -0.6444  0.5358 -0.1818
  901MOL0     C21539   9.301   6.720   0.548 -0.6265 -1.1920  0.7441
  901MOL0     C21540   9.375   6.854   0.510 -0.2674 -0.2779 -0.6624
  901MOL0     C21541   9.520   6.827   0.472 -0.3156 -0.0762 -0.0680
  901MOL0     C21542   9.600   6.949   0.448  0.3881 -0.5330  0.7152
  901MOL0     C21543   9.752   6.921   0.432  0.3621  0.4678 -0.8276
  901MOL0    Cl21544   9.825   7.078   0.414  0.3346  0.0674  0.3095
  901MOL0     C21545   8.791   6.550   0.425  0.1374  0.6944 -0.3371
  901MOL0     C21546   8.660   6.572   0.483 -0.4874  0.2456  0.5920
  901MOL0     O21547   8.494   6.666   0.711  0.2398  0.3618 -0.9845
  901MOL0     C21548   8.253   6.655   0.856 -0.2845  0.4286  0.6655
  901MOL0     C21549   8.132   6.639   0.919 -0.1493  0.4562 -0.5830
  901MOL0     N21550   7.386   6.455   1.126  0.1273  0.3261  0.0967
  901MOL0     N21551   7.281   6.382   1.096  0.3113 -0.0445 -0.4262
  901MOL0     C21552   6.115   6.204   1.293  0.4068  0.1672  0.5123
  901MOL0     C21553   5.974   6.193   1.291 -0.5366 -0.7221  0.4062
  901MOL0     C21554   5.536   6.119   1.287 -0.8218 -0.1361 -1.4023
  901MOL0     C21555   5.533   5.982   1.257  0.4118  0.0287  0.0062
  901MOL0     C21556   5.417   5.917   1.222 -0.3730  0.3477  0.8919
  901MOL0     C21557   5.300   5.990   1.213 -0.0620  0.0743  0.1560
  901MOL0     O21558   5.178   5.925   1.194  0.0044  0.4887  0.1964
  901MOL0     C21559   5.170   5.783   1.175  1.3054  0.3722 -0.1041
  901MOL0     C21560   5.033   5.730   1.151 -0.5952  0.4112 -0.2336
  901MOL0     C21561   4.948   5.761   1.274 -0.1076 -0.3630  0.8752
  901MOL0     C21562   4.900   5.903   1.284  0.9476 -0.0543 -0.0059
  901MOL0     C21563   4.815   5.947   1.177 -0.2884  0.4859  0.2616
  901MOL0     C21564   4.736   5.988   1.096  0.9355  1.5165  0.8443
  901MOL0     C21565   5.298   6.123   1.232 -0.7204 -0.4043 -0.9226
  901MOL0     C21566   5.414   6.193   1.268 -0.4535  0.8199 -0.5102
  901MOL0     C21567   5.415   6.341   1.301  0.4135  0.4607 -0.6452
  901MOL0     H21568   5.942   5.997   1.558 -0.1401 -1.0132 -0.2226
  901MOL0     H21569   6.165   6.000   1.573 -1.7301 -1.6205 -0.0771
  901MOL0     H21570   6.385   6.123   1.588  0.6426  1.2276  0.2859
  901MOL0     H21571   6.374   5.986   1.477 -1.4301  0.7846  1.1582
  901MOL0     H21572   6.571   6.208   1.511 -2.3055 -1.2396  2.7978
  901MOL0     H21573   6.553   6.133   1.346  2.1812 -0.4281 -0.2278
  901MOL0     H21574   6.603   5.913   1.517  2.6309 -0.1382  6.9171
  901MOL0     H21575   6.702   6.040   1.580 -1.1188  0.7112  0.4865
  901MOL0     H21576   6.799   5.908   1.392 -2.0947 -0.9229 -0.4408
  901MOL0     H21577   6.722   6.022   1.280  0.4822  0.3118 -0.2646
  901MOL0     H21578   6.839   6.198   1.407  2.4042  1.3940  0.5743
  901MOL0     H21579   6.931   6.073   1.499  1.2422  2.3212  0.7892
  901MOL0     H21580   6.998   5.983   1.271 -0.5425 -0.6517 -2.0087
  901MOL0     H21581   6.913   6.136   1.208 -0.9784  3.8678  2.7492
  901MOL0     H21582   7.173   6.136   1.380  3.4181  0.5636 -2.3296
  901MOL0     H21583   7.085   6.276   1.307 -1.3795  0.9833 -2.8841
  901MOL0     H21584   7.228   6.051   1.140  0.9862  0.4779  0.0636
  901MOL0     H21585   7.113   6.179   1.094 -0.2460 -0.5708  0.5795
  901MOL0     H21586   7.462   6.159   1.242  0.5279 -0.6386 -1.8404
  901MOL0     H21587   7.604   6.495   1.293  2.8646  1.1259 -0.9346
  901MOL0     H21588   7.626   6.322   1.324 -0.9339 -2.8837 -2.5546
  901MOL0     H21589   7.803   6.461   1.191 -0.3901  0.2268  1.6141
  901MOL0     H21590   7.767   6.292   1.139  3.1545  1.7233  0.1748
  901MOL0     H21591   7.673   6.554   0.992  0.2169 -0.6259 -2.0627
  901MOL0     H21592   7.615   6.396   0.957  0.5353 -0.6245  1.0522
  901MOL0     H21593   7.791   6.469   0.802 -0.9941 -1.9367 -0.0379
  901MOL0     H21594   7.860   6.338   0.908  1.4609  0.9883  2.2318
  901MOL0     H21595   8.024   6.361   0.759 -0.8081 -0.0322  0.2685
  901MOL0     H21596   8.220   6.377   0.648  0.7195 -0.3199 -0.2736
  901MOL0     H21597   8.577   6.287   0.612  0.3802  1.4320  0.8984
  901MOL0     H21598   8.803   6.240   0.566  0.8494  1.9870  0.8528
  901MOL0     H21599   9.063   6.501   0.304  3.2731 -1.2707 -0.4919
  901MOL0     H21600   9.042   6.598   0.454 -1.2096  0.1744 -0.7761
  901MOL0     H21601   9.217   6.477   0.565  0.9127  0.6154 -0.0100
  901MOL0     H21602   9.269   6.416   0.405 -2.4219 -1.0518 -0.3302
  901MOL0     H21603   9.404   6.583   0.425 -0.8786 -0.7734  2.1683
  901MOL0     H21604   9.290   6.670   0.336  1.9759  1.1886 -0.2324
  901MOL0     H21605   9.348   6.673   0.635  0.3758  0.5701  1.1979
  901MOL0     H21606   9.195   6.736   0.572 -0.2566  1.7871  0.7306
  901MOL0     H21607   9.367   6.926   0.592 -0.8301  1.1300 -1.9020
  901MOL0     H21608   9.315   6.904   0.434 -1.1431 -0.5473 -0.1726
  901MOL0     H21609   9.562   6.769   0.555  2.3572 -1.5609 -2.2901
  901MOL0     H21610   9.540   6.757   0.390 -0.1094 -3.6469  2.7427
  901MOL0     H21611   9.575   7.021   0.527 -2.5786  0.5367 -1.0325
  901MOL0     H21612   9.561   6.992   0.356  1.2944  0.9017  0.9744
  901MOL0     H21613   9.796   6.876   0.521  0.9950 -1.0720 -1.8844
  901MOL0     H21614   9.784   6.860   0.347 -0.6757  2.5849 -2.8421
  901MOL0     H21615   8.838   6.631   0.371 -0.6499  1.2722 -0.1692
  901MOL0     H21616   8.632   6.676   0.465 -3.2250 -0.1069  2.2867
  901MOL0     H21617   8.314   6.732   0.902 -0.9446 -0.1766  2.6508
  901MOL0     H21618   8.103   6.718   0.987 -2.8900 -0.8690 -0.1119
  901MOL0     H21619   6.161   6.258   1.211  0.8641  0.0457  0.6863
  901MOL0     H21620   5.929   6.240   1.204  2.7602 -0.1527 -1.1494
  901MOL0     H21621   5.624   5.922   1.256 -0.2340 -1.0020 -1.4950
  901MOL0     H21622   5.418   5.811   1.199 -3.4666  0.6948 -1.5335
  901MOL0     H21623   5.220   5.722   1.250  0.6953 -0.5199 -0.4067
  901MOL0     H21624   5.232   5.771   1.085  0.2023 -0.7931 -0.7310
  901MOL0     H21625   5.024   5.625   1.122  2.8403  0.6998 -3.1609
  901MOL0     H21626   4.993   5.778   1.061  1.1794  0.8768 -0.8265
  901MOL0     H21627   5.001   5.730   1.364  0.6088  1.1053  0.9857
  901MOL0     H21628   4.863   5.697   1.250  1.5056 -1.4600 -2.4997
  901MOL0     H21629   4.835   5.907   1.372 -0.7481 -0.6686 -1.1814
  901MOL0     H21630   4.978   5.978   1.298 -0.3698  1.2001  1.0093
  901MOL0     H21631   4.677   6.029   1.017 -1.3132 -0.8027  1.1545
  901MOL0     H21632   5.201   6.171   1.226 -1.7072 -2.2551 -0.7104
  901MOL0     H21633   5.437   6.350   1.408  0.6188 -0.1150 -0.6366
  901MOL0     H21634   5.477   6.406   1.239  1.8228  0.1857  0.4221
  901MOL0     H21635   5.312   6.378   1.295  0.1668  0.0570  0.6707
  902MOL0     O21636   5.211   6.257   9.607  0.3456 -0.6944  0.0586
  902MOL0     C21637   5.111   6.332   9.626 -0.4202 -0.0094  0.0538
  902MOL0     O21638   5.117   6.466   9.661  0.0148  0.3041 -0.5095
  902MOL0     C21639   5.245   6.507   9.672 -1.4448  0.3392  0.3279
  902MOL0     C21640   5.311   6.496   9.795  0.2685 -0.4405  0.0805
  902MOL0     C21641   5.439   6.539   9.807  0.1367  0.8327 -0.2421
  902MOL0     C21642   5.510   6.590   9.702 -0.1783  0.1962  0.0406
  902MOL0     O21643   5.646   6.616   9.734 -0.1859  0.7737 -0.4393
  902MOL0     C21644   5.719   6.702   9.642 -0.7121  0.1660 -0.1670
  902MOL0     C21645   5.813   6.795   9.713  0.4459 -0.8400  0.2979
  902MOL0     C21646   5.777   6.848   9.855 -0.7951 -0.2435  0.3831
  902MOL0     C21647   5.867   6.972   9.871  0.4401 -0.7170  0.4265
  902MOL0     C21648   6.000   6.923   9.933 -0.5112  0.2826 -0.2073
  902MOL0     C21649   6.126   7.018   9.956  0.6366 -0.0632 -0.2376
  902MOL0     C21650   6.251   6.938   9.971  0.8696 -0.2532  1.1196
  902MOL0     C21651   6.373   7.022   9.981  0.2151  0.0451  0.7452
  902MOL0     N21652   6.505   6.956   9.985 -0.1122 -0.2773  0.4807
  902MOL0     C21653   6.530   6.816   9.974 -0.4178 -0.2214 -1.1749
  902MOL0     C21654   6.664   6.798   9.984  0.1400 -0.1740 -0.0716
  902MOL0     C21655   6.727   6.653   9.986  0.1336  0.4150  0.0579
  902MOL0     C21656   6.722   6.590  10.127  0.5383  0.1053 -0.7960
  902MOL0     C21657   6.757   6.684  10.245  1.0511 -0.3797 -0.3928
  902MOL0     C21658   6.892   6.761  10.223 -0.3778  0.1960 -0.2169
  902MOL0     O21659   6.933   6.811  10.350 -0.7465  0.1661 -0.1617
  902MOL0     C21660   7.038   6.898  10.354 -0.7993  0.5329  0.2989
  902MOL0     C21661   7.038   7.011  10.277 -0.0773 -0.2627  1.0866
  902MOL0     C21662   7.151   7.098  10.276  0.1388 -0.0087  0.0343
  902MOL0     C21663   7.263   7.075  10.350 -0.0556  0.2155 -0.4365
  902MOL0     C21664   7.375   7.182  10.353 -0.2114  0.1080 -0.6180
  902MOL0     O21665   7.496   7.143  10.411 -0.1238  0.0631 -0.2605
  902MOL0     C21666   7.594   7.242  10.415  0.7872  0.4354 -0.1199
  902MOL0     C21667   7.664   7.275  10.298  0.7553 -0.8743  0.1664
  902MOL0     C21668   7.757   7.377  10.304  0.2464  0.4666 -0.2357
  902MOL0     C21669   7.787   7.440  10.427  0.4712 -0.7200  1.0770
  902MOL0     O21670   7.882   7.544  10.446 -0.1364 -0.0832  0.4112
  902MOL0     C21671   7.878   7.641  10.347  0.8405  0.3832 -0.2052
  902MOL0     C21672   7.887   7.774  10.412  0.3906 -0.4922  0.5022
  902MOL0     C21673   7.910   7.875  10.305 -0.2206  0.5142 -0.1226
  902MOL0     C21674   7.915   8.022  10.368  0.4690 -0.1630  0.3167
  902MOL0     C21675   7.901   8.135  10.263 -0.6440  0.2089 -0.5537
  902MOL0     C21676   8.042   8.153  10.193  0.0019 -0.3357 -0.1004
  902MOL0     C21677   8.028   8.176  10.042 -0.3009 -1.2174 -0.3614
  902MOL0     C21678   7.998   8.045   9.969  0.8884 -0.4097 -0.8649
  902MOL0    Cl21679   7.827   7.985   9.961  0.2620  0.7759 -0.2322
  902MOL0     C21680   7.734   7.387  10.545 -0.4577  0.0090 -0.4571
  902MOL0     C21681   7.634   7.291  10.541 -0.2376  0.4331  0.3746
  902MOL0     O21682   7.352   7.289  10.293  0.0649  0.4369 -0.1106
  902MOL0     C21683   7.266   6.959  10.424  0.0786  0.3483  0.5035
  902MOL0     C21684   7.153   6.872  10.427  0.0422 -0.2335 -0.1889
  902MOL0     N21685   6.724   6.920   9.991  0.2829  0.2517  0.2275
  902MOL0     N21686   6.630   7.012   9.992 -0.3394 -0.5127 -0.4088
  902MOL0     C21687   5.451   6.612   9.576  0.0372  0.8692 -0.8135
  902MOL0     C21688   5.315   6.570   9.565  0.2756 -0.1188 -0.0391
  902MOL0     C21689   4.970   6.282   9.598 -0.7132  0.7901 -0.3401
  902MOL0     C21690   4.862   6.365   9.609 -0.1489  0.0142  0.3672
  902MOL0     C21691   4.733   6.315   9.593  0.1726  0.1399  0.2087
  902MOL0     C21692   4.709   6.182   9.568 -0.0360  0.4288 -0.3963
  902MOL0     O21693   4.587   6.126   9.543  0.1681 -0.7917  0.4410
  902MOL0     C21694   4.504   6.191   9.451  0.5842 -0.2461  0.5896
  902MOL0     C21695   4.366   6.137   9.444 -1.0495  0.6932 -0.9845
  902MOL0     C21696   4.281   6.156   9.574 -0.5142 -0.0965  0.0414
  902MOL0     C21697   4.131   6.127   9.552 -0.3978 -0.4547  0.8020
  902MOL0     C21698   4.116   5.982   9.546  0.2242 -0.3954 -0.4677
  902MOL0     C21699   4.066   5.872   9.539 -1.2691 -0.0894  0.1015
  902MOL0     C21700   4.813   6.090   9.572 -0.4392 -0.2192 -0.6246
  902MOL0     C21701   4.944   6.140   9.572  0.0458 -0.8946 -0.2900
  902MOL0     C21702   5.057   6.039   9.549 -0.8677 -0.7323  0.3834
  902MOL0     H21703   5.255   6.478   9.886  1.6626 -1.1011  0.8315
  902MOL0     H21704   5.485   6.536   9.905  3.0561  3.2563 -1.3827
  902MOL0     H21705   5.766   6.639   9.566 -1.9434  0.0544 -0.8589
  902MOL0     H21706   5.652   6.764   9.581  1.0427 -0.9643 -3.5007
  902MOL0     H21707   5.812   6.876   9.640  1.9241 -3.4431 -2.8591
  902MOL0     H21708   5.913   6.750   9.711  2.7710  3.7646  0.3342
  902MOL0     H21709   5.798   6.772   9.930  1.4940 -0.5616 -0.4962
  902MOL0     H21710   5.674   6.884   9.865  0.4341  3.6823  0.9217
  902MOL0     H21711   5.889   7.023   9.777 -0.8705 -2.0423 -0.6443
  902MOL0     H21712   5.823   7.046   9.939 -2.3515 -2.2052  0.3823
  902MOL0     H21713   5.988   6.867  10.026 -1.4935 -2.2951 -1.7849
  902MOL0     H21714   6.021   6.842   9.863 -2.4087 -1.6416  1.2872
  902MOL0     H21715   6.132   7.081   9.867 -0.2041 -0.9764 -0.9532
  902MOL0     H21716   6.113   7.083  10.044 -2.3795  2.9067 -2.6131
  902MOL0     H21717   6.256   6.876   9.881  1.6752  0.9131  0.3256
  902MOL0     H21718   6.242   6.867  10.054 -2.8702 -2.1694 -0.6232
  902MOL0     H21719   6.370   7.087   9.893 -1.5582 -0.0929  0.6614
  902MOL0     H21720   6.367   7.087  10.070 -1.4133  1.8921 -0.6144
  902MOL0     H21721   6.458   6.735   9.969  0.6546 -1.8636  3.7314
  902MOL0     H21722   6.682   6.581   9.916  0.9178 -0.1859  0.1512
  902MOL0     H21723   6.829   6.658   9.946 -0.7710 -1.8263 -2.9125
  902MOL0     H21724   6.624   6.548  10.150  1.6211 -1.4154  1.3463
  902MOL0     H21725   6.803   6.517  10.132  2.4657  2.2084  2.1489
  902MOL0     H21726   6.758   6.612  10.327  2.3418  2.2905  2.1482
  902MOL0     H21727   6.675   6.750  10.275 -0.4915 -1.5023 -1.9598
  902MOL0     H21728   6.888   6.835  10.143  0.3499 -2.2068 -2.6471
  902MOL0     H21729   6.974   6.691  10.206  2.3185  2.3515  2.7569
  902MOL0     H21730   6.952   7.045  10.220 -0.3285  1.0784  2.2071
  902MOL0     H21731   7.138   7.187  10.216  0.1116  0.9842  1.4833
  902MOL0     H21732   7.640   7.235  10.200 -1.1430 -0.2055  0.3237
  902MOL0     H21733   7.809   7.404  10.213  2.2176 -1.5637  0.2095
  902MOL0     H21734   7.961   7.626  10.277  0.9855  1.9000 -0.3775
  902MOL0     H21735   7.792   7.629  10.279  0.4305  0.8599  0.2195
  902MOL0     H21736   7.794   7.793  10.467  0.9409 -0.4423  1.4410
  902MOL0     H21737   7.967   7.767  10.486  0.0976 -0.4312  0.8332
  902MOL0     H21738   8.007   7.855  10.257  0.5200 -1.0413  1.8806
  902MOL0     H21739   7.828   7.871  10.233 -2.7759 -3.6131  2.6173
  902MOL0     H21740   8.007   8.027  10.427 -0.0408  1.2097  1.0224
  902MOL0     H21741   7.831   8.024  10.438  0.0830  0.2556 -0.1517
  902MOL0     H21742   7.868   8.235  10.295  1.0121  1.2097 -1.8107
  902MOL0     H21743   7.827   8.106  10.188 -0.6655  0.0634 -0.4767
  902MOL0     H21744   8.083   8.244  10.238 -1.7834 -0.0710  1.1110
  902MOL0     H21745   8.120   8.078  10.206  1.5629  0.8190 -2.1152
  902MOL0     H21746   8.125   8.213  10.008 -0.0928 -1.7018 -0.3017
  902MOL0     H21747   7.959   8.256  10.013  1.0353  0.2092  0.2368
  902MOL0     H21748   8.018   8.061   9.863  1.5825  2.3311 -0.4064
  902MOL0     H21749   8.067   7.970  10.009 -0.3465 -1.4225 -0.6104
  902MOL0     H21750   7.774   7.438  10.631 -3.0243  1.4127 -0.0003
  902MOL0     H21751   7.574   7.263  10.627  0.3285 -0.2299  0.5604
  902MOL0     H21752   7.349   6.927  10.486  0.1002  0.0568  0.3239
  902MOL0     H21753   7.145   6.798  10.507  1.4940  1.8123  2.0011
  902MOL0     H21754   5.499   6.664   9.493  1.6782  0.4547 -0.1484
  902MOL0     H21755   5.261   6.596   9.475 -2.7714 -1.9051  1.1150
  902MOL0     H21756   4.885   6.471   9.617 -0.1217  0.2937 -2.3853
  902MOL0     H21757   4.644   6.377   9.600  0.8549  1.1414  0.1863
  902MOL0     H21758   4.556   6.185   9.354 -1.2238 -0.9545 -0.3684
  902MOL0     H21759   4.492   6.295   9.482  0.9120  0.4372 -1.3908
  902MOL0     H21760   4.368   6.030   9.426 -2.9438  0.2679  0.9440
  902MOL0     H21761   4.309   6.172   9.357  0.0610  1.0317 -1.5890
  902MOL0     H21762   4.292   6.256   9.615 -0.9044 -1.3134  3.4004
  902MOL0     H21763   4.312   6.087   9.653 -0.1184 -1.8286 -1.5595
  902MOL0     H21764   4.076   6.154   9.642  0.0375 -2.8624  1.8462
  902MOL0     H21765   4.087   6.176   9.464  1.4167 -2.2792 -1.2557
  902MOL0     H21766   4.029   5.772   9.529 -3.4485  0.7617 -0.9160
  902MOL0     H21767   4.788   5.985   9.559 -0.6206 -0.5424  1.8965
  902MOL0     H21768   5.112   6.076   9.462 -0.5681  1.7459  1.5159
  902MOL0     H21769   5.128   6.029   9.631  1.3179 -1.3144 -1.4753
  902MOL0     H21770   5.027   5.936   9.529  0.4269 -0.9892 -0.3375
  903MOL0     O21771   1.078  11.210   6.939  0.3116  0.1510 -0.8266
  903MOL0     C21772   1.154  11.264   7.020 -0.0029  1.0657  0.6860
  903MOL0     O21773   1.222  11.192   7.123  0.5495 -0.6836 -0.0814
  903MOL0     C21774   1.133  11.091   7.162  0.8755  0.4220  0.1219
  903MOL0     C21775   1.164  10.956   7.140  0.0086 -1.2042 -0.6127
  903MOL0     C21776   1.077  10.841   7.169  0.3680 -0.3139 -0.8511
  903MOL0     C21777   0.959  10.869   7.238  0.3448  0.6486 -0.2338
  903MOL0     O21778   0.869  10.766   7.273  0.4345 -0.0032  0.5114
  903MOL0     C21779   0.910  10.633   7.310  0.3401 -0.6336  0.6128
  903MOL0     C21780   0.925  10.619   7.462 -0.2472 -0.1691 -0.2115
  903MOL0     C21781   0.837  10.715   7.545  0.3115  0.8513  0.6444
  903MOL0     C21782   0.785  10.647   7.672  0.0890  0.3065  0.2976
  903MOL0     C21783   0.703  10.762   7.746  0.0257  0.0992  0.7606
  903MOL0     C21784   0.629  10.724   7.870 -0.5827  0.2818 -0.8516
  903MOL0     C21785   0.520  10.834   7.904  0.1991  0.3609  0.4610
  903MOL0     C21786   0.571  10.939   8.006 -0.0642  0.1017  0.2681
  903MOL0     N21787   0.607  10.881   8.138 -0.5421  0.0472 -0.0998
  903MOL0     C21788   0.513  10.871   8.246 -0.9643 -0.2804  0.6635
  903MOL0     C21789   0.581  10.807   8.344  0.3095 -0.6472  0.3008
  903MOL0     C21790   0.528  10.779   8.481  0.0954  0.0535 -0.7671
  903MOL0     C21791   0.375  10.742   8.476  0.2291 -0.0796  0.1816
  903MOL0     C21792   0.347  10.634   8.568 -0.1558 -0.0196  0.4810
  903MOL0     C21793   0.207  10.571   8.554  0.0089  0.0969 -0.1438
  903MOL0     O21794   0.196  10.442   8.626 -0.2759 -0.0107 -0.1401
  903MOL0     C21795   0.153  10.448   8.754  0.2202  0.0343  0.0699
  903MOL0     C21796   0.090  10.327   8.799 -0.9735 -0.1278 -0.4420
  903MOL0     C21797   0.032  10.326   8.924  1.7081 -0.3782  0.1923
  903MOL0     C21798   0.025  10.437   9.006  0.1312  0.8099  0.7672
  903MOL0     C21799  -0.055  10.429   9.129 -0.6967 -0.3830 -0.2828
  903MOL0     O21800  -0.109  10.301   9.150 -0.0027  0.5797 -0.8231
  903MOL0     C21801  -0.175  10.271   9.267 -0.7178  0.5202 -0.2019
  903MOL0     C21802  -0.269  10.348   9.323 -0.6448  0.4519  0.6284
  903MOL0     C21803  -0.331  10.330   9.444  0.1223 -0.0207  0.2998
  903MOL0     C21804  -0.304  10.216   9.511  0.2792  0.8908  0.6163
  903MOL0     O21805  -0.370  10.202   9.628 -0.2783  0.6556 -0.6472
  903MOL0     C21806  -0.407  10.065   9.650 -0.6350  0.0183  0.2967
  903MOL0     C21807  -0.485  10.055   9.788  0.8023 -0.5327  0.2574
  903MOL0     C21808  -0.634  10.088   9.782  0.3924 -0.9502  0.2383
  903MOL0     C21809  -0.679  10.059   9.930 -0.3017 -0.4956  0.3949
  903MOL0     C21810  -0.831  10.066   9.934 -0.0839  0.4315  0.6510
  903MOL0     C21811  -0.917   9.958   9.863 -0.3259 -0.6323 -0.4954
  903MOL0     C21812  -0.940   9.836   9.944  1.1521  0.7345  0.0514
  903MOL0     C21813  -1.078   9.781   9.916  0.5681 -0.0946  0.2322
  903MOL0    Cl21814  -1.123   9.765   9.744  0.2220 -0.0151  0.5418
  903MOL0     C21815  -0.215  10.117   9.449 -0.1104  0.5355  0.0261
  903MOL0     C21816  -0.160  10.147   9.326 -0.1887 -0.2070  0.2017
  903MOL0     O21817  -0.064  10.523   9.206  0.6577 -0.4664 -0.1512
  903MOL0     C21818   0.109  10.544   8.979  0.1713 -0.2151  0.8929
  903MOL0     C21819   0.172  10.555   8.849 -0.0767 -0.0955  0.0364
  903MOL0     N21820   0.709  10.786   8.303  0.6674 -1.0281  1.2299
  903MOL0     N21821   0.724  10.821   8.180  0.8650  0.3388  1.7405
  903MOL0     C21822   0.935  10.998   7.284  0.5749  0.4898  0.4159
  903MOL0     C21823   1.011  11.109   7.236 -0.7234  0.1727 -0.7703
  903MOL0     C21824   1.173  11.405   7.007 -0.4153 -0.5099 -0.1207
  903MOL0     C21825   1.203  11.466   7.130 -1.4523  0.4136 -0.0054
  903MOL0     C21826   1.237  11.597   7.130 -0.0987  0.3143 -0.3282
  903MOL0     C21827   1.248  11.667   7.014  0.7957  0.1550 -0.0726
  903MOL0     O21828   1.277  11.800   7.004 -0.4032  0.1513  0.4101
  903MOL0     C21829   1.280  11.888   7.114 -0.5708  0.2195  0.0540
  903MOL0     C21830   1.145  11.939   7.166 -0.6768  0.6848  0.4986
  903MOL0     C21831   1.160  12.078   7.239 -0.7683  0.1291  0.3246
  903MOL0     C21832   1.017  12.132   7.274 -0.6428 -0.6353 -0.4525
  903MOL0     C21833   0.963  12.068   7.395 -0.0862 -0.1886 -0.8170
  903MOL0     C21834   0.916  12.010   7.491  0.0461  0.9045 -0.1029
  903MOL0     C21835   1.226  11.603   6.888 -0.3628  0.0925 -0.0762
  903MOL0     C21836   1.181  11.477   6.891 -0.0289 -0.0423 -0.1899
  903MOL0     C21837   1.140  11.422   6.749  0.5818 -0.2779 -0.1937
  903MOL0     H21838   1.250  10.934   7.078 -0.2737 -2.5161 -0.5624
  903MOL0     H21839   1.103  10.743   7.131  1.8896 -0.7595  1.1854
  903MOL0     H21840   0.828  10.575   7.266 -0.5711  0.8364  0.3011
  903MOL0     H21841   1.006  10.616   7.260 -0.1364  0.3679 -0.7157
  903MOL0     H21842   1.029  10.645   7.481 -0.3773  0.3225 -0.1715
  903MOL0     H21843   0.900  10.514   7.481 -0.6864 -0.2944 -1.4197
  903MOL0     H21844   0.751  10.755   7.490 -0.8873 -0.5563  1.4268
  903MOL0     H21845   0.906  10.797   7.568 -0.1715  0.5153  3.7684
  903MOL0     H21846   0.723  10.562   7.641  1.9656 -1.1513  0.3731
  903MOL0     H21847   0.871  10.611   7.729 -0.8629 -2.0547  0.3575
  903MOL0     H21848   0.774  10.843   7.766  0.2913  0.6750 -2.0297
  903MOL0     H21849   0.636  10.812   7.675 -0.0027  1.9946  2.0441
  903MOL0     H21850   0.576  10.632   7.843 -1.0233  0.3194 -0.1468
  903MOL0     H21851   0.697  10.687   7.948 -2.0631 -3.5246 -1.1623
  903MOL0     H21852   0.432  10.778   7.936  1.3075 -0.6959  1.7898
  903MOL0     H21853   0.482  10.880   7.812  2.8432 -1.1569 -1.5140
  903MOL0     H21854   0.667  10.978   7.972 -0.2458  1.9023  1.7024
  903MOL0     H21855   0.506  11.026   8.011 -0.0254  0.0787  1.2692
  903MOL0     H21856   0.410  10.907   8.249 -0.7811  0.1718  2.0353
  903MOL0     H21857   0.577  10.692   8.526 -2.3040 -1.1910 -0.3531
  903MOL0     H21858   0.537  10.863   8.551 -2.4253  0.2987 -0.6142
  903MOL0     H21859   0.319  10.833   8.501 -0.8071 -0.1158 -1.8122
  903MOL0     H21860   0.335  10.711   8.379  0.4655  0.7866 -0.1955
  903MOL0     H21861   0.364  10.681   8.665 -0.1387 -0.4383  0.6836
  903MOL0     H21862   0.421  10.556   8.548 -0.9509 -0.4096 -1.1322
  903MOL0     H21863   0.195  10.535   8.452 -0.4461 -1.1564  0.3178
  903MOL0     H21864   0.116  10.628   8.575 -1.0267 -1.2343 -0.8603
  903MOL0     H21865   0.084  10.238   8.737 -0.8591  0.7699 -1.7878
  903MOL0     H21866  -0.003  10.233   8.968 -0.9810  0.9057  0.9598
  903MOL0     H21867  -0.292  10.438   9.267 -1.6927  0.7522  1.4997
  903MOL0     H21868  -0.394  10.412   9.476  0.6614  0.3296  0.4917
  903MOL0     H21869  -0.471  10.018   9.575 -2.1367 -1.6744  2.4628
  903MOL0     H21870  -0.322  10.000   9.669  0.1788  1.1761  0.7239
  903MOL0     H21871  -0.468   9.951   9.820  2.1662  0.2857  2.4390
  903MOL0     H21872  -0.444  10.122   9.864  0.0780  1.3639 -0.9498
  903MOL0     H21873  -0.648  10.194   9.759  2.2172 -0.4700  1.1827
  903MOL0     H21874  -0.681  10.018   9.712  0.5854 -1.2226  0.3825
  903MOL0     H21875  -0.637  10.133   9.998  0.2049 -1.1024  0.7571
  903MOL0     H21876  -0.656   9.957   9.963 -3.3524 -0.7874  2.0145
  903MOL0     H21877  -0.854  10.157   9.880  0.0750 -0.9944 -1.9683
  903MOL0     H21878  -0.861  10.085  10.038 -0.2346 -0.2379  0.7387
  903MOL0     H21879  -1.016  10.006   9.862 -0.0013  0.0725  0.0014
  903MOL0     H21880  -0.891   9.932   9.760 -2.9194  0.1535 -1.4365
  903MOL0     H21881  -0.945   9.868  10.048 -0.7549  2.1328 -0.4135
  903MOL0     H21882  -0.858   9.764   9.931  2.4917  2.0061  1.0565
  903MOL0     H21883  -1.100   9.687   9.968  1.8034 -0.0465  0.8684
  903MOL0     H21884  -1.141   9.854   9.968  0.9942  1.1686 -0.9627
  903MOL0     H21885  -0.188  10.025   9.499 -3.0831  0.1496  1.1231
  903MOL0     H21886  -0.089  10.086   9.270 -0.7529  1.2437 -2.2580
  903MOL0     H21887   0.100  10.634   9.039 -1.6791  1.5895 -1.8441
  903MOL0     H21888   0.222  10.643   8.810  2.6056 -1.2738  0.6250
  903MOL0     H21889   0.852  10.994   7.354  0.2141  0.9140  0.0217
  903MOL0     H21890   0.982  11.210   7.262 -0.9950  0.1251 -0.8855
  903MOL0     H21891   1.202  11.411   7.224  0.0027  4.8219  2.8914
  903MOL0     H21892   1.267  11.636   7.227 -1.0975 -2.3909  1.1862
  903MOL0     H21893   1.345  11.972   7.089 -0.9483  0.0262 -1.7201
  903MOL0     H21894   1.343  11.847   7.193  0.3467 -0.8938 -1.2179
  903MOL0     H21895   1.105  11.870   7.241  1.6078 -1.5011 -0.1526
  903MOL0     H21896   1.081  11.957   7.080 -0.5965 -0.7772  0.1118
  903MOL0     H21897   1.210  12.149   7.173  0.2211 -2.2570 -1.6699
  903MOL0     H21898   1.222  12.068   7.329  1.6255  0.8612 -1.1530
  903MOL0     H21899   1.024  12.235   7.310 -1.3722 -0.4583 -0.8167
  903MOL0     H21900   0.954  12.123   7.185  1.2962  0.1117 -1.9949
  903MOL0     H21901   0.873  11.956   7.573  2.3018 -1.0196 -0.0879
  903MOL0     H21902   1.230  11.659   6.795 -2.3595  1.4033  0.5575
  903MOL0     H21903   1.140  11.501   6.674  1.5657 -0.5015 -0.4431
  903MOL0     H21904   1.201  11.340   6.711  0.4714  0.1077 -1.2265
  903MOL0     H21905   1.041  11.378   6.764  0.5652 -0.4450 -0.8036
  904MOL0     O21906   3.698   0.151   2.894  0.2487  0.1950 -0.2877
  904MOL0     C21907   3.664   0.182   3.009  0.6744  0.3779  0.0559
  904MOL0     O21908   3.744   0.246   3.101 -0.1722 -0.5440 -1.5355
  904MOL0     C21909   3.879   0.264   3.073  0.3857 -0.3483  0.5804
  904MOL0     C21910   3.912   0.391   3.016  0.7375  0.0188  0.3925
  904MOL0     C21911   4.040   0.432   3.000  1.5291  0.1861  0.7154
  904MOL0     C21912   4.144   0.345   3.016 -1.0615  0.9502 -0.7252
  904MOL0     O21913   4.282   0.372   2.997  0.3694 -0.0476  0.0645
  904MOL0     C21914   4.319   0.507   2.972 -0.1638  1.3392  0.0219
  904MOL0     C21915   4.467   0.517   2.908  0.2190  1.1683 -0.1279
  904MOL0     C21916   4.506   0.661   2.887 -0.0412  0.7446 -0.1370
  904MOL0     C21917   4.630   0.685   2.807 -0.8399  0.4491  0.5247
  904MOL0     C21918   4.759   0.651   2.878 -1.1497 -0.6564  0.5807
  904MOL0     C21919   4.824   0.515   2.836  0.0937 -0.0734  1.4878
  904MOL0     C21920   4.967   0.506   2.875 -0.2008  0.1129 -0.7253
  904MOL0     C21921   5.042   0.378   2.837 -0.5758 -0.4694 -0.0312
  904MOL0     N21922   5.195   0.399   2.860 -0.3214 -0.6569  0.3788
  904MOL0     C21923   5.291   0.456   2.766 -0.4077  0.1050  0.1488
  904MOL0     C21924   5.410   0.425   2.823  0.6805  0.6136 -0.0772
  904MOL0     C21925   5.544   0.426   2.758  0.0136  0.2702  0.2360
  904MOL0     C21926   5.606   0.564   2.724 -0.6996 -0.4295  0.1686
  904MOL0     C21927   5.757   0.564   2.717 -0.4741 -0.1634  0.0219
  904MOL0     C21928   5.820   0.519   2.581  0.2283 -0.1941 -0.8059
  904MOL0     O21929   5.958   0.549   2.575 -0.1828  0.6506  0.3770
  904MOL0     C21930   6.049   0.483   2.650 -0.3523 -0.1619  0.3650
  904MOL0     C21931   6.022   0.372   2.735  0.7583  0.7809 -0.3886
  904MOL0     C21932   6.119   0.314   2.814 -0.0765 -0.5319  0.4808
  904MOL0     C21933   6.250   0.361   2.808  0.7217  0.1496 -0.8252
  904MOL0     C21934   6.353   0.303   2.898 -0.3499  0.5079  0.4522
  904MOL0     O21935   6.476   0.369   2.916  0.4066 -0.1911 -0.3139
  904MOL0     C21936   6.585   0.319   2.982 -0.1169 -0.2919 -0.1466
  904MOL0     C21937   6.637   0.186   2.991 -0.3074 -0.1737  0.2359
  904MOL0     C21938   6.758   0.158   3.042  0.0940 -0.1174 -0.5449
  904MOL0     C21939   6.837   0.258   3.104 -0.1462 -0.1068 -0.1832
  904MOL0     O21940   6.963   0.228   3.143 -0.1853 -0.8561  0.1445
  904MOL0     C21941   7.046   0.326   3.206  0.2149 -0.4904  0.1011
  904MOL0     C21942   7.202   0.289   3.193 -1.3405  0.9292 -0.4494
  904MOL0     C21943   7.298   0.405   3.242  0.1591  0.9997  0.0046
  904MOL0     C21944   7.442   0.359   3.228  0.0882  0.3190  0.4283
  904MOL0     C21945   7.544   0.467   3.209  0.0358 -0.3862  0.1920
  904MOL0     C21946   7.685   0.413   3.226  0.6752  0.1437  0.7335
  904MOL0     C21947   7.800   0.521   3.212 -1.3064  0.5694  0.2290
  904MOL0     C21948   7.777   0.641   3.304 -0.2709  0.4165  0.9773
  904MOL0    Cl21949   7.917   0.757   3.281  0.0962  0.4547 -0.0431
  904MOL0     C21950   6.785   0.391   3.103 -0.0243  0.4549  0.4411
  904MOL0     C21951   6.662   0.418   3.037 -0.8644 -0.9181  0.5910
  904MOL0     O21952   6.320   0.203   2.963  0.1238 -0.1568 -0.0939
  904MOL0     C21953   6.281   0.472   2.728  0.2449 -0.0704  0.0290
  904MOL0     C21954   6.184   0.528   2.644  0.2189  0.0858 -0.6855
  904MOL0     N21955   5.386   0.371   2.944  0.0384  0.6022 -0.9931
  904MOL0     N21956   5.256   0.355   2.968  0.1845 -0.4586 -0.5749
  904MOL0     C21957   4.116   0.205   3.062 -0.3801 -1.0530  0.0248
  904MOL0     C21958   3.982   0.167   3.096  0.8878  0.0978  1.0587
  904MOL0     C21959   3.523   0.152   3.039 -0.4505 -0.4224 -0.3853
  904MOL0     C21960   3.494   0.124   3.180  0.9774  0.5745  0.6276
  904MOL0     C21961   3.356   0.093   3.219 -1.0645 -0.2670  0.2382
  904MOL0     C21962   3.255   0.105   3.125 -0.0533 -0.1656 -0.8646
  904MOL0     O21963   3.132   0.054   3.136  0.9139  0.5615  0.4029
  904MOL0     C21964   3.070  -0.000   3.255  0.6502 -0.1549 -0.8203
  904MOL0     C21965   2.984   0.099   3.339  0.3749  0.1015  0.3171
  904MOL0     C21966   3.073   0.187   3.428 -0.4638 -1.1128 -0.7255
  904MOL0     C21967   2.980   0.281   3.514 -0.4107  0.1369 -0.0862
  904MOL0     C21968   3.039   0.336   3.630  0.0450 -0.4501  0.4163
  904MOL0     C21969   3.098   0.385   3.727  0.5460 -0.7305 -0.5621
  904MOL0     C21970   3.281   0.144   2.996  0.1971 -0.6297 -0.5455
  904MOL0     C21971   3.409   0.165   2.957 -0.3451  0.1242  0.3629
  904MOL0     C21972   3.431   0.212   2.809  0.6543 -0.2955 -0.0678
  904MOL0     H21973   3.834   0.452   2.973  1.8580  0.2332 -1.4905
  904MOL0     H21974   4.055   0.532   2.961  0.9610 -0.3312 -0.9207
  904MOL0     H21975   4.249   0.548   2.898  0.7762  2.9329 -0.0463
  904MOL0     H21976   4.301   0.565   3.063 -1.1870 -0.4173  0.9887
  904MOL0     H21977   4.455   0.473   2.809  2.2338  0.2995 -0.0180
  904MOL0     H21978   4.545   0.466   2.964  1.1856  3.6141  0.9136
  904MOL0     H21979   4.515   0.720   2.979  5.4071 -0.4580  0.4246
  904MOL0     H21980   4.422   0.693   2.824 -2.7713 -0.2383  2.7551
  904MOL0     H21981   4.620   0.631   2.712  1.3412 -3.7281  2.3917
  904MOL0     H21982   4.631   0.794   2.797  3.0847  0.5512  0.6017
  904MOL0     H21983   4.826   0.729   2.840 -1.9045  0.4186  1.3796
  904MOL0     H21984   4.757   0.667   2.986  0.6762  0.3428  0.5045
  904MOL0     H21985   4.765   0.433   2.880 -3.6791  0.9772 -1.1337
  904MOL0     H21986   4.816   0.512   2.727  0.0890  1.5013  1.4270
  904MOL0     H21987   4.969   0.508   2.984  2.3616  0.9884 -0.7234
  904MOL0     H21988   5.026   0.592   2.842  2.0053 -1.2969 -0.6939
  904MOL0     H21989   5.003   0.294   2.895  2.8484 -1.0770  1.6653
  904MOL0     H21990   5.024   0.363   2.731  0.7981  1.1832 -0.5642
  904MOL0     H21991   5.282   0.489   2.663  1.0027  1.1379  0.3166
  904MOL0     H21992   5.612   0.369   2.822 -0.6813  1.5335  2.1821
  904MOL0     H21993   5.520   0.390   2.658 -0.8418  2.4522 -0.4070
  904MOL0     H21994   5.569   0.586   2.624 -0.9758  1.0294  0.5674
  904MOL0     H21995   5.574   0.641   2.795  0.5413  0.3768 -0.1276
  904MOL0     H21996   5.798   0.513   2.805 -0.6639 -1.1738 -0.4654
  904MOL0     H21997   5.777   0.671   2.717 -1.0431 -0.0467 -0.8511
  904MOL0     H21998   5.763   0.565   2.500  1.5319  2.8458 -0.1156
  904MOL0     H21999   5.804   0.412   2.564 -1.3569  0.3477 -3.1207
  904MOL0     H22000   5.924   0.330   2.755  0.4184  0.5570 -2.3276
  904MOL0     H22001   6.095   0.244   2.894  0.9180  0.8004  2.0190
  904MOL0     H22002   6.583   0.105   2.943 -2.8422  1.6653 -0.1978
  904MOL0     H22003   6.782   0.053   3.052 -0.1357  0.0511  3.0601
  904MOL0     H22004   7.035   0.425   3.161 -2.2734 -0.2088  1.1898
  904MOL0     H22005   7.016   0.340   3.311  0.9181  1.5788  0.0806
  904MOL0     H22006   7.212   0.193   3.244 -0.0444  1.1654 -0.2302
  904MOL0     H22007   7.218   0.255   3.090  0.0068  1.7896 -0.5350
  904MOL0     H22008   7.284   0.496   3.182  0.7352  1.1517  0.0950
  904MOL0     H22009   7.281   0.442   3.343  3.0672  1.8715  0.2645
  904MOL0     H22010   7.453   0.294   3.141  1.8451  0.7064  0.3339
  904MOL0     H22011   7.479   0.296   3.309  1.1894 -2.5462 -2.1014
  904MOL0     H22012   7.532   0.540   3.290  0.2331  3.1558 -2.7274
  904MOL0     H22013   7.541   0.524   3.116 -1.6975  1.0082  1.0444
  904MOL0     H22014   7.690   0.360   3.322 -1.5885 -2.7975 -0.6062
  904MOL0     H22015   7.710   0.339   3.149  1.3673  2.4427 -1.3959
  904MOL0     H22016   7.803   0.561   3.110 -0.7181 -1.8348 -0.7707
  904MOL0     H22017   7.900   0.483   3.235 -0.0920  3.9810  1.0603
  904MOL0     H22018   7.688   0.688   3.260 -0.1535 -0.0604  0.2086
  904MOL0     H22019   7.767   0.608   3.407 -4.1537 -1.9973  0.0131
  904MOL0     H22020   6.847   0.470   3.144 -0.6796 -0.2212  2.9271
  904MOL0     H22021   6.631   0.521   3.045  0.9750 -0.2200 -0.6135
  904MOL0     H22022   6.377   0.517   2.704  0.7340 -1.8440 -1.5691
  904MOL0     H22023   6.224   0.606   2.580  0.3463 -1.0960 -2.1025
  904MOL0     H22024   4.200   0.143   3.091 -0.8519 -1.4046  0.6714
  904MOL0     H22025   3.956   0.074   3.147 -1.9592 -0.2000 -0.6827
  904MOL0     H22026   3.569   0.138   3.257 -0.4033  0.3788  2.0574
  904MOL0     H22027   3.340   0.045   3.315  0.6723 -2.4223 -0.4904
  904MOL0     H22028   3.155  -0.035   3.315  1.0707  0.8013 -0.8393
  904MOL0     H22029   3.007  -0.081   3.216 -0.1589  0.4889 -0.8696
  904MOL0     H22030   2.911   0.053   3.406 -0.4057  1.4355  0.4320
  904MOL0     H22031   2.931   0.169   3.273 -1.0808  1.4078  2.7088
  904MOL0     H22032   3.132   0.259   3.372  0.2766 -2.9370 -2.3891
  904MOL0     H22033   3.151   0.137   3.488  1.9405  0.2821 -2.5420
  904MOL0     H22034   2.947   0.361   3.448 -3.4731 -0.5729  0.4271
  904MOL0     H22035   2.898   0.222   3.557  0.7858 -1.8715 -0.4097
  904MOL0     H22036   3.158   0.430   3.804 -1.8528 -0.6940  1.3998
  904MOL0     H22037   3.204   0.134   2.921  1.3321 -1.4976 -1.6414
  904MOL0     H22038   3.512   0.154   2.764  1.1710 -0.2782  0.8114
  904MOL0     H22039   3.345   0.195   2.744 -0.3329  0.4121  1.0105
  904MOL0     H22040   3.455   0.319   2.814  0.5530 -0.3382  2.7982
  905MOL0     O22041   8.167   9.929   6.199  0.5579  0.2497  0.5558
  905MOL0     C22042   8.190   9.996   6.103 -0.4757 -0.6029  1.2660
  905MOL0     O22043   8.182   9.949   5.975  0.2405 -0.4499  0.5289
  905MOL0     C22044   8.157  10.049   5.878  0.0332  0.7381 -0.9707
  905MOL0     C22045   8.266  10.107   5.806 -0.1460  0.2907  0.2129
  905MOL0     C22046   8.248  10.210   5.714 -0.1359 -0.1760 -0.4414
  905MOL0     C22047   8.118  10.261   5.683 -0.4047 -0.7456  0.3793
  905MOL0     O22048   8.111  10.358   5.588  0.1380  0.2658  0.3502
  905MOL0     C22049   7.995  10.440   5.588 -0.3956  0.3050  0.2489
  905MOL0     C22050   7.996  10.557   5.682 -0.0305  0.2953  0.0084
  905MOL0     C22051   8.138  10.618   5.675  0.7086  0.1480  0.6829
  905MOL0     C22052   8.136  10.763   5.709 -0.4493  0.2100 -0.5035
  905MOL0     C22053   8.275  10.811   5.745 -0.1931  0.6266  0.1057
  905MOL0     C22054   8.336  10.768   5.884  0.4098  0.5674  1.1875
  905MOL0     C22055   8.472  10.843   5.911  0.7858  0.0492 -0.3664
  905MOL0     C22056   8.455  10.990   5.962 -0.4512  0.8463  0.2897
  905MOL0     N22057   8.587  11.056   5.961  0.9543  0.3366 -0.9190
  905MOL0     C22058   8.638  11.132   5.856 -0.4653 -0.4687 -0.9814
  905MOL0     C22059   8.756  11.170   5.899 -0.5528  0.6177 -0.4159
  905MOL0     C22060   8.855  11.248   5.825 -0.1546  0.1406  0.9588
  905MOL0     C22061   8.972  11.173   5.748 -0.4667 -0.2042 -0.4158
  905MOL0     C22062   9.089  11.127   5.848 -0.1314  0.4420 -0.5477
  905MOL0     C22063   9.204  11.222   5.832  1.2460 -0.0310  0.0185
  905MOL0     O22064   9.300  11.197   5.927 -0.3765  0.0813  0.4094
  905MOL0     C22065   9.428  11.264   5.927  0.2748 -0.7053  0.1623
  905MOL0     C22066   9.485  11.291   6.053 -0.2464 -0.5172 -0.5610
  905MOL0     C22067   9.607  11.367   6.051  0.2970 -0.1569  0.3003
  905MOL0     C22068   9.688  11.395   5.941 -0.1673  0.9936 -0.1192
  905MOL0     C22069   9.831  11.434   5.958 -0.7646 -0.1740 -0.2416
  905MOL0     O22070   9.877  11.442   6.086 -0.3502 -0.2377  0.5205
  905MOL0     C22071  10.005  11.478   6.114  0.6158  0.4385  0.1354
  905MOL0     C22072  10.041  11.609   6.078 -0.3332 -0.6203 -0.2128
  905MOL0     C22073  10.162  11.652   6.110 -0.1450  0.2019 -0.1930
  905MOL0     C22074  10.256  11.557   6.154 -0.7363  0.3343 -0.8503
  905MOL0     O22075  10.388  11.597   6.180 -0.3191 -0.4565 -0.1514
  905MOL0     C22076  10.450  11.700   6.101  0.1544 -0.0171  1.3650
  905MOL0     C22077  10.598  11.719   6.138  0.3858 -0.3796  0.7747
  905MOL0     C22078  10.634  11.727   6.285  0.1326  0.0315 -0.4216
  905MOL0     C22079  10.787  11.759   6.292 -1.0075  0.2476  0.4907
  905MOL0     C22080  10.834  11.757   6.441 -0.4073  0.2271  0.0136
  905MOL0     C22081  10.980  11.801   6.446 -0.2105  0.2858 -1.2969
  905MOL0     C22082  11.032  11.776   6.587  0.1885  0.6042 -0.1909
  905MOL0     C22083  11.154  11.850   6.613  1.0640 -0.0378  1.0084
  905MOL0    Cl22084  11.219  11.836   6.782 -0.0168  0.0714 -0.0141
  905MOL0     C22085  10.214  11.427   6.184  0.0679 -0.8280 -0.1417
  905MOL0     C22086  10.086  11.382   6.159  0.1143 -0.5794 -1.1649
  905MOL0     O22087   9.892  11.458   5.858  0.1751  0.4588 -0.3188
  905MOL0     C22088   9.628  11.361   5.819 -0.3217 -0.1701 -0.3038
  905MOL0     C22089   9.492  11.308   5.805  0.3124  0.0872  0.7205
  905MOL0     N22090   8.769  11.128   6.032 -0.2033 -1.0316 -0.1494
  905MOL0     N22091   8.674  11.050   6.058  0.2827  0.5125  0.5225
  905MOL0     C22092   8.009  10.195   5.748  0.1054  0.3265  0.1279
  905MOL0     C22093   8.028  10.080   5.832  0.0612 -0.0686  0.2167
  905MOL0     C22094   8.232  10.131   6.138  1.1824  0.3113 -0.2962
  905MOL0     C22095   8.131  10.232   6.158  0.0420 -0.9910  0.7638
  905MOL0     C22096   8.170  10.369   6.175  0.4665 -0.9537 -0.3479
  905MOL0     C22097   8.306  10.402   6.170  0.9604 -0.4143 -0.0078
  905MOL0     O22098   8.348  10.528   6.169 -0.0052 -0.3097 -0.1593
  905MOL0     C22099   8.268  10.620   6.261 -0.2552  0.3103  0.2211
  905MOL0     C22100   8.348  10.745   6.299  0.4697  0.3900  0.2155
  905MOL0     C22101   8.463  10.706   6.382 -0.0532  0.3305 -0.0468
  905MOL0     C22102   8.474  10.799   6.506  0.0408  1.4316 -0.0910
  905MOL0     C22103   8.598  10.788   6.576 -0.6471  0.3771  0.6979
  905MOL0     C22104   8.706  10.806   6.626  0.2695  0.4241  0.8475
  905MOL0     C22105   8.399  10.300   6.165  0.3960 -0.5444 -0.1168
  905MOL0     C22106   8.365  10.166   6.145 -0.2966  1.5528  0.3008
  905MOL0     C22107   8.485  10.071   6.137  0.2715  0.7675 -0.0691
  905MOL0     H22108   8.365  10.080   5.840 -0.0677  1.2531  0.7694
  905MOL0     H22109   8.337  10.251   5.669 -0.1198 -1.5501 -1.7332
  905MOL0     H22110   7.988  10.493   5.493  0.9530 -1.4018 -0.8678
  905MOL0     H22111   7.905  10.380   5.606  0.0465  0.1364  2.1410
  905MOL0     H22112   7.982  10.519   5.784  1.4130  0.1389  0.1724
  905MOL0     H22113   7.920  10.627   5.646 -1.8710 -1.0404  1.0925
  905MOL0     H22114   8.170  10.605   5.571 -1.5159 -0.7886  0.0547
  905MOL0     H22115   8.207  10.570   5.746  1.5274  1.5360  0.8677
  905MOL0     H22116   8.096  10.812   5.619  2.1582  0.5881 -1.5440
  905MOL0     H22117   8.070  10.782   5.794  1.6965  1.0678  1.0372
  905MOL0     H22118   8.342  10.786   5.662  0.0858  2.6624 -0.3482
  905MOL0     H22119   8.255  10.919   5.749  1.5043  0.9496  3.7386
  905MOL0     H22120   8.269  10.792   5.967 -0.3040  1.9735  0.2305
  905MOL0     H22121   8.350  10.660   5.868 -0.7556  0.7867 -2.1525
  905MOL0     H22122   8.533  10.846   5.821  1.1128 -0.8319 -0.1890
  905MOL0     H22123   8.526  10.786   5.988 -1.8810  0.6872  2.1671
  905MOL0     H22124   8.407  11.047   5.881  0.1517  2.9137  1.3102
  905MOL0     H22125   8.390  10.986   6.049 -0.5017 -0.2536  0.2185
  905MOL0     H22126   8.596  11.141   5.756 -0.7045  0.0499 -0.8346
  905MOL0     H22127   8.800  11.289   5.741  0.3237 -2.8229 -0.9480
  905MOL0     H22128   8.899  11.330   5.883 -3.2417  2.3622  0.3845
  905MOL0     H22129   8.931  11.088   5.692 -3.0074 -0.4321  1.5520
  905MOL0     H22130   9.010  11.249   5.680 -1.3213 -0.3500 -1.0729
  905MOL0     H22131   9.125  11.031   5.811  0.4344 -0.6061  2.4736
  905MOL0     H22132   9.070  11.116   5.955  0.2659 -2.0848 -0.6989
  905MOL0     H22133   9.167  11.325   5.845  2.4257  0.6622 -1.7718
  905MOL0     H22134   9.242  11.208   5.731 -0.6468 -3.6090 -0.3502
  905MOL0     H22135   9.425  11.270   6.141 -3.9518 -0.9595 -3.0035
  905MOL0     H22136   9.648  11.388   6.150  3.3898 -2.0367 -0.4327
  905MOL0     H22137   9.972  11.676   6.030 -0.2382 -2.7019 -3.5988
  905MOL0     H22138  10.186  11.755   6.084 -1.4374  1.5051  3.1743
  905MOL0     H22139  10.442  11.664   5.998  1.9752  2.4121  0.2801
  905MOL0     H22140  10.396  11.794   6.105  0.9530  0.5888 -0.9040
  905MOL0     H22141  10.638  11.625   6.099  0.4540 -0.0423  0.0208
  905MOL0     H22142  10.636  11.805   6.082 -0.5590 -0.5721 -0.2061
  905MOL0     H22143  10.566  11.805   6.320 -1.8927 -2.4460  1.5078
  905MOL0     H22144  10.602  11.641   6.345 -1.4763  1.4928  0.9503
  905MOL0     H22145  10.803  11.855   6.243 -1.8623 -0.0978 -0.4867
  905MOL0     H22146  10.843  11.684   6.236 -0.8108 -0.2476  1.3227
  905MOL0     H22147  10.830  11.653   6.475 -0.6847 -0.1610 -1.1519
  905MOL0     H22148  10.769  11.826   6.495 -1.6119 -2.0848  1.7362
  905MOL0     H22149  11.040  11.749   6.371 -0.5240 -1.7356 -0.2175
  905MOL0     H22150  10.988  11.908   6.425  1.9751  0.6231  0.8323
  905MOL0     H22151  11.057  11.672   6.611  1.3282  1.4003  2.4401
  905MOL0     H22152  10.958  11.801   6.664 -0.1929 -1.6160  0.2282
  905MOL0     H22153  11.232  11.806   6.550  0.2912 -0.0876  0.0667
  905MOL0     H22154  11.149  11.956   6.587  3.2672 -0.6247 -2.6040
  905MOL0     H22155  10.280  11.360   6.239  0.5348  0.0571  0.4082
  905MOL0     H22156  10.051  11.281   6.175 -2.1855  0.1893 -1.0013
  905MOL0     H22157   9.693  11.387   5.736  1.8404  0.4688  1.4830
  905MOL0     H22158   9.457  11.293   5.703  3.5631  2.5146 -0.9125
  905MOL0     H22159   7.905  10.217   5.729  0.1279  1.4488  1.2203
  905MOL0     H22160   7.951  10.023   5.883 -0.5008  0.9086  0.4878
  905MOL0     H22161   8.024  10.218   6.149 -0.4792  1.4662  2.0717
  905MOL0     H22162   8.095  10.447   6.183 -0.8910 -2.0167 -2.0062
  905MOL0     H22163   8.240  10.568   6.353  0.0768 -2.1528 -0.9942
  905MOL0     H22164   8.181  10.658   6.207 -0.3333  0.3411  0.3710
  905MOL0     H22165   8.287  10.814   6.358  1.9495  3.3452 -1.5196
  905MOL0     H22166   8.378  10.803   6.212  1.5068  1.5794  1.3148
  905MOL0     H22167   8.547  10.732   6.317 -1.3397  1.5134 -1.2944
  905MOL0     H22168   8.478  10.600   6.402  3.4290  0.4455 -1.3189
  905MOL0     H22169   8.444  10.901   6.480 -4.9732 -0.2421 -2.2250
  905MOL0     H22170   8.405  10.753   6.578  0.8089 -2.5098 -1.6468
  905MOL0     H22171   8.804  10.821   6.666  0.6164 -1.1485  0.6281
  905MOL0     H22172   8.505  10.323   6.165  0.1916  0.4025 -0.0681
  905MOL0     H22173   8.505  10.029   6.236  0.3824  2.9542  0.8892
  905MOL0     H22174   8.466   9.990   6.066  3.1409  1.2607 -1.5389
  905MOL0     H22175   8.580  10.113   6.103 -0.0176  1.9655  0.5328
  906MOL0     O22176   0.902   3.765   9.907 -0.2466 -0.1913 -0.0451
  906MOL0     C22177   0.838   3.769   9.801 -0.6087  0.5423  0.1686
  906MOL0     O22178   0.881   3.829   9.685 -0.2527  0.1284  0.0632
  906MOL0     C22179   1.010   3.860   9.684 -1.3752 -0.5609  0.3679
  906MOL0     C22180   1.109   3.772   9.649 -0.6254  0.3021  0.3259
  906MOL0     C22181   1.241   3.811   9.656 -0.5345 -0.9323 -0.3319
  906MOL0     C22182   1.279   3.945   9.705  0.4481  1.0342 -0.1841
  906MOL0     O22183   1.408   3.981   9.728 -0.5526  0.0089  0.0597
  906MOL0     C22184   1.518   3.893   9.673  0.7759  0.0512  0.5712
  906MOL0     C22185   1.636   3.986   9.668  0.0799  0.6155 -0.4435
  906MOL0     C22186   1.753   3.909   9.600 -0.5744  0.8725  0.8191
  906MOL0     C22187   1.837   4.008   9.511  0.1307 -0.2173 -0.4647
  906MOL0     C22188   1.927   3.937   9.408  0.5514  0.4798 -0.4555
  906MOL0     C22189   2.011   4.033   9.338 -0.3068 -0.5441 -0.7986
  906MOL0     C22190   2.127   3.956   9.272 -0.5072  0.0719  0.0316
  906MOL0     C22191   2.205   4.043   9.178  0.2231  0.3630 -0.4479
  906MOL0     N22192   2.307   4.122   9.242  0.2126 -0.6303  0.4226
  906MOL0     C22193   2.399   4.073   9.325  0.0838 -0.0850 -0.1208
  906MOL0     C22194   2.476   4.179   9.354  0.0507  0.0162  0.3814
  906MOL0     C22195   2.594   4.179   9.445  0.5689 -0.1447  0.3425
  906MOL0     C22196   2.729   4.162   9.369 -0.5694 -0.8930  0.0230
  906MOL0     C22197   2.754   4.255   9.242 -0.6105  0.0576 -0.1206
  906MOL0     C22198   2.764   4.397   9.286  0.2214  0.0964 -0.7942
  906MOL0     O22199   2.882   4.418   9.367 -0.4807  0.0163 -0.9329
  906MOL0     C22200   2.985   4.500   9.326 -0.7817  1.0346  1.1495
  906MOL0     C22201   3.061   4.551   9.433 -0.3085  0.3104 -0.4085
  906MOL0     C22202   3.183   4.623   9.408  0.3326  0.9245 -0.3480
  906MOL0     C22203   3.225   4.644   9.273  0.0869  0.1332  0.8056
  906MOL0     C22204   3.356   4.698   9.243 -0.9433  1.0168  0.1804
  906MOL0     O22205   3.391   4.713   9.115 -0.9306 -0.0371  1.2724
  906MOL0     C22206   3.520   4.756   9.087 -0.2144  0.1040  0.4713
  906MOL0     C22207   3.547   4.892   9.101  0.6914 -0.4341  0.2876
  906MOL0     C22208   3.679   4.945   9.091  0.4030  0.1821 -0.8450
  906MOL0     C22209   3.789   4.857   9.071  0.7782  0.3364  0.1532
  906MOL0     O22210   3.912   4.923   9.062  0.4129  0.7058  0.7101
  906MOL0     C22211   4.032   4.872   9.012  0.5823  0.1579 -0.5146
  906MOL0     C22212   4.137   4.980   9.024 -0.7299  0.2478  0.1316
  906MOL0     C22213   4.156   5.034   9.166 -0.6620 -0.0818  0.2203
  906MOL0     C22214   4.193   4.923   9.276 -0.4548  0.2331 -1.1071
  906MOL0     C22215   4.307   4.828   9.250  0.2068 -0.0105  0.7436
  906MOL0     C22216   4.352   4.744   9.368 -0.1260  0.1565  0.5881
  906MOL0     C22217   4.238   4.683   9.449 -0.2504  0.2137 -0.7766
  906MOL0     C22218   4.292   4.613   9.570 -0.0905  0.4397 -0.8465
  906MOL0    Cl22219   4.172   4.549   9.672  0.4522  0.2798 -0.1143
  906MOL0     C22220   3.761   4.714   9.068  0.0827 -0.2243  0.3384
  906MOL0     C22221   3.628   4.667   9.063  1.2496 -0.5676 -1.9710
  906MOL0     O22222   3.424   4.730   9.338  1.3128  0.2412  0.7442
  906MOL0     C22223   3.146   4.591   9.164  0.8449  0.0469  0.2944
  906MOL0     C22224   3.027   4.521   9.194  0.4035 -0.4278  0.0650
  906MOL0     N22225   2.436   4.292   9.289  0.3742  0.6655 -0.3366
  906MOL0     N22226   2.331   4.255   9.216 -0.6753 -0.1500  0.0830
  906MOL0     C22227   1.180   4.034   9.738  0.1375 -0.3324  0.6112
  906MOL0     C22228   1.049   3.993   9.723 -0.0669  0.5400 -0.9068
  906MOL0     C22229   0.695   3.722   9.797 -0.5575 -0.7630 -0.7037
  906MOL0     C22230   0.635   3.710   9.669  0.2661 -0.1054 -0.0400
  906MOL0     C22231   0.511   3.659   9.648 -0.7126  0.2091  1.1167
  906MOL0     C22232   0.433   3.619   9.755  0.3442  0.2206  0.1812
  906MOL0     O22233   0.309   3.565   9.745 -0.0435  0.3135 -0.0091
  906MOL0     C22234   0.221   3.576   9.630 -0.1327  0.9245 -0.5774
  906MOL0     C22235   0.081   3.514   9.648 -0.6858 -0.1790  0.0267
  906MOL0     C22236  -0.002   3.614   9.729  0.4626  0.1051  0.0898
  906MOL0     C22237  -0.143   3.569   9.705  0.4378 -0.3530 -0.1659
  906MOL0     C22238  -0.225   3.650   9.786 -0.0261  0.3566  0.0006
  906MOL0     C22239  -0.293   3.730   9.850  0.4612  0.3484 -0.2633
  906MOL0     C22240   0.487   3.628   9.883  0.2117  0.3452 -0.4349
  906MOL0     C22241   0.612   3.681   9.909 -0.7301 -0.4837 -0.2678
  906MOL0     C22242   0.655   3.690  10.050  0.7130  0.2731  0.8832
  906MOL0     H22243   1.070   3.675   9.622 -2.4520  0.3057  2.6399
  906MOL0     H22244   1.320   3.743   9.626 -0.6698 -1.3204  0.1651
  906MOL0     H22245   1.523   3.795   9.721  2.3507 -1.7218 -2.7947
  906MOL0     H22246   1.503   3.871   9.567 -0.8903 -1.1877  1.0199
  906MOL0     H22247   1.665   3.992   9.774  0.4491  0.6699 -0.5466
  906MOL0     H22248   1.596   4.080   9.630 -2.0114  0.3480  0.8966
  906MOL0     H22249   1.712   3.839   9.526  1.5672  2.1092 -1.7384
  906MOL0     H22250   1.815   3.861   9.676  1.2509 -2.0699 -2.2464
  906MOL0     H22251   1.776   4.066   9.442 -0.0639 -1.0237 -0.9898
  906MOL0     H22252   1.895   4.077   9.573  0.1597 -0.0076 -0.7254
  906MOL0     H22253   1.972   3.858   9.469  0.2127  1.1869  0.7360
  906MOL0     H22254   1.864   3.880   9.339 -1.6491 -0.2108  2.0040
  906MOL0     H22255   1.958   4.093   9.264 -1.0453 -1.3653 -0.9420
  906MOL0     H22256   2.052   4.100   9.414 -0.4551  2.4786 -3.1638
  906MOL0     H22257   2.085   3.872   9.215  0.7440 -1.1861  0.9116
  906MOL0     H22258   2.199   3.920   9.346 -0.3731  0.4927  0.1067
  906MOL0     H22259   2.249   3.981   9.099  2.4809  3.1978 -1.5934
  906MOL0     H22260   2.146   4.107   9.112  1.0629  0.4170 -1.1643
  906MOL0     H22261   2.408   3.972   9.364 -1.6005 -0.4301 -0.5685
  906MOL0     H22262   2.599   4.276   9.495  2.7944 -0.2327  0.4022
  906MOL0     H22263   2.586   4.106   9.526  4.3228 -0.9079  0.2012
  906MOL0     H22264   2.806   4.183   9.443 -1.4688  1.9240  0.3056
  906MOL0     H22265   2.738   4.060   9.331  1.0702 -0.5094 -0.6709
  906MOL0     H22266   2.671   4.248   9.171 -2.0784 -1.9938  1.6441
  906MOL0     H22267   2.846   4.224   9.191  0.2728  0.7641  0.9799
  906MOL0     H22268   2.673   4.427   9.338 -0.4244 -1.8421 -0.7503
  906MOL0     H22269   2.764   4.460   9.197 -0.9726  1.2790  0.0166
  906MOL0     H22270   3.033   4.536   9.537  1.2868  1.4844  0.2334
  906MOL0     H22271   3.249   4.640   9.492 -0.4448  2.6154 -0.0214
  906MOL0     H22272   3.475   4.967   9.133  3.2024  1.4438  2.0332
  906MOL0     H22273   3.688   5.052   9.104  2.5284 -0.2961  3.5955
  906MOL0     H22274   4.060   4.786   9.074 -0.4585  1.0793  1.3051
  906MOL0     H22275   4.030   4.848   8.905  3.7931  2.8180 -1.3194
  906MOL0     H22276   4.231   4.944   8.982 -0.9619 -0.1220 -0.0880
  906MOL0     H22277   4.115   5.058   8.950  1.4624  1.7507  0.9799
  906MOL0     H22278   4.242   5.102   9.174 -0.5454 -0.2979  0.8371
  906MOL0     H22279   4.070   5.095   9.196 -0.1790 -0.0873  1.6668
  906MOL0     H22280   4.100   4.866   9.284  0.1749 -0.9237 -1.7310
  906MOL0     H22281   4.212   4.964   9.376 -0.2963  0.1689 -1.1092
  906MOL0     H22282   4.385   4.889   9.204 -1.7965 -0.3947 -3.6626
  906MOL0     H22283   4.271   4.756   9.176  0.3022  2.1313 -1.5167
  906MOL0     H22284   4.416   4.661   9.336  1.0477  0.9969  0.6706
  906MOL0     H22285   4.422   4.801   9.431  0.6906  1.0953 -1.0934
  906MOL0     H22286   4.187   4.613   9.382 -2.4312  0.6029  0.3946
  906MOL0     H22287   4.161   4.756   9.476 -3.0439 -2.6546 -0.3160
  906MOL0     H22288   4.357   4.532   9.538 -0.6032  1.2355 -4.2858
  906MOL0     H22289   4.361   4.677   9.626 -1.6714  0.8012  0.7967
  906MOL0     H22290   3.854   4.663   9.046  0.0218  0.5650 -2.0479
  906MOL0     H22291   3.594   4.565   9.050  0.3656 -0.8100  1.3972
  906MOL0     H22292   3.189   4.588   9.064  1.0835 -1.4348  0.4215
  906MOL0     H22293   2.994   4.463   9.109  1.6734  1.4969 -1.8298
  906MOL0     H22294   1.206   4.128   9.785  0.7400 -0.8231  1.2678
  906MOL0     H22295   0.969   4.058   9.757 -0.5363 -0.5435  0.1431
  906MOL0     H22296   0.691   3.749   9.584 -0.0310 -1.5944 -0.9576
  906MOL0     H22297   0.467   3.644   9.550 -0.8432 -1.2037  1.3659
  906MOL0     H22298   0.279   3.530   9.549  0.3599 -0.1295  0.3436
  906MOL0     H22299   0.221   3.682   9.601  1.5126  1.5769  1.5579
  906MOL0     H22300   0.088   3.421   9.705 -2.1640  0.2134  0.9191
  906MOL0     H22301   0.033   3.506   9.550 -1.9968  1.0137  0.5199
  906MOL0     H22302   0.012   3.720   9.701 -2.2807  0.8122  1.1414
  906MOL0     H22303   0.017   3.607   9.836 -5.5067 -0.7284  1.4207
  906MOL0     H22304  -0.177   3.576   9.601  1.0025  0.5478 -0.2969
  906MOL0     H22305  -0.146   3.469   9.750  1.5302 -0.2729  0.1316
  906MOL0     H22306  -0.373   3.787   9.892 -0.5437 -1.9143  1.0972
  906MOL0     H22307   0.427   3.590   9.965  2.9181 -0.7340  1.1822
  906MOL0     H22308   0.705   3.787  10.062  0.7761  0.7551 -2.4267
  906MOL0     H22309   0.578   3.669  10.124 -1.1637  0.6429 -0.8839
  906MOL0     H22310   0.734   3.616  10.068 -0.8590 -1.6014  0.3464
  907MOL0     O22311   9.816   4.509  10.151 -0.0261 -0.0588  0.4679
  907MOL0     C22312   9.793   4.412  10.082  0.2395 -0.1512 -0.6012
  907MOL0     O22313   9.825   4.289  10.109 -0.6579 -0.6691  0.5184
  907MOL0     C22314   9.920   4.272  10.204  0.3488  0.4357 -1.5248
  907MOL0     C22315   9.895   4.237  10.341  0.3525 -0.2528 -0.3533
  907MOL0     C22316   9.994   4.193  10.433 -0.7065  0.5585 -0.3084
  907MOL0     C22317  10.130   4.204  10.385  1.1792 -0.3289  0.5820
  907MOL0     O22318  10.235   4.177  10.473  0.2070  0.6338  0.7149
  907MOL0     C22319  10.363   4.137  10.414  0.0393 -0.0748 -0.4534
  907MOL0     C22320  10.458   4.106  10.521 -0.0960 -0.0371 -0.3341
  907MOL0     C22321  10.406   3.993  10.614  0.5198  0.5981 -0.5722
  907MOL0     C22322  10.480   3.861  10.593 -0.0546  0.2748 -0.2712
  907MOL0     C22323  10.613   3.870  10.655  0.0407  0.7086 -0.9799
  907MOL0     C22324  10.670   3.737  10.722  0.2833 -1.1766  0.6239
  907MOL0     C22325  10.691   3.632  10.614 -0.6348 -0.2650  0.0160
  907MOL0     C22326  10.747   3.500  10.664  0.3627 -0.3237  0.0202
  907MOL0     N22327  10.887   3.493  10.654 -0.2834  0.0098  0.3831
  907MOL0     C22328  10.981   3.546  10.750 -0.7549  0.6938  0.9283
  907MOL0     C22329  11.101   3.552  10.688 -0.1174  0.5860 -0.2960
  907MOL0     C22330  11.224   3.581  10.742  0.4749  0.6831 -0.8091
  907MOL0     C22331  11.307   3.689  10.674 -0.3310  0.1731  0.0893
  907MOL0     C22332  11.452   3.698  10.733  0.2895  0.4942  1.0272
  907MOL0     C22333  11.528   3.815  10.677  0.3559 -0.0975 -0.7519
  907MOL0     O22334  11.536   3.792  10.542  0.7231  0.3989 -0.3073
  907MOL0     C22335  11.654   3.847  10.496  0.5856 -0.2089  0.1646
  907MOL0     C22336  11.663   3.970  10.453 -0.6453  0.1142  0.3360
  907MOL0     C22337  11.777   4.027  10.395  1.2026 -1.0646 -0.1433
  907MOL0     C22338  11.889   3.942  10.370  0.7989  0.0001 -0.1109
  907MOL0     C22339  12.019   3.998  10.312  0.5624 -0.3023 -0.6766
  907MOL0     O22340  12.132   3.915  10.323  0.2548 -0.3470  0.1336
  907MOL0     C22341  12.254   3.952  10.289  0.3506  0.2121  0.1178
  907MOL0     C22342  12.294   4.078  10.218 -0.1734  0.6646 -0.7004
  907MOL0     C22343  12.432   4.109  10.185  0.7744  0.3033 -0.9353
  907MOL0     C22344  12.517   4.005  10.226 -1.5032 -0.5842 -0.0353
  907MOL0     O22345  12.650   4.016  10.215 -0.2407 -0.2374  0.9376
  907MOL0     C22346  12.710   4.026  10.081 -0.8973  0.2033 -0.5799
  907MOL0     C22347  12.865   3.999  10.101  0.4487 -0.0252  0.5608
  907MOL0     C22348  12.962   4.117  10.135  0.0694 -0.5808  0.0767
  907MOL0     C22349  12.999   4.205  10.016  0.1040  0.3999 -0.2782
  907MOL0     C22350  13.149   4.226   9.996 -0.3934  0.1703 -0.4502
  907MOL0     C22351  13.192   4.354  10.062 -0.2691  0.6705  0.0713
  907MOL0     C22352  13.348   4.359  10.067 -0.4770  0.1426 -0.2933
  907MOL0     C22353  13.403   4.494  10.123  1.0266  0.4098 -0.8775
  907MOL0    Cl22354  13.396   4.617   9.995 -0.1152 -0.5474 -0.0767
  907MOL0     C22355  12.483   3.888  10.298  0.5687  1.2631 -0.3365
  907MOL0     C22356  12.353   3.867  10.336  0.1895  0.4075  0.4394
  907MOL0     O22357  12.006   4.101  10.249  0.1437 -0.2675 -0.2764
  907MOL0     C22358  11.877   3.802  10.396  1.0349 -0.7797  0.7553
  907MOL0     C22359  11.757   3.758  10.464 -0.7207  0.0380  0.7066
  907MOL0     N22360  11.083   3.486  10.567  0.4498  0.1906  0.1176
  907MOL0     N22361  10.959   3.452  10.553 -0.1198  0.4451  1.3503
  907MOL0     C22362  10.156   4.245  10.255  0.3423 -0.4805 -0.0451
  907MOL0     C22363  10.053   4.288  10.169  0.6263  0.9699 -0.3622
  907MOL0     C22364   9.698   4.425   9.970  0.1775  0.6255 -0.0006
  907MOL0     C22365   9.622   4.307   9.938  0.5806  0.1025 -0.1427
  907MOL0     C22366   9.520   4.316   9.845  0.2735  0.5745 -0.7474
  907MOL0     C22367   9.477   4.437   9.793 -0.8328 -0.1108 -0.0444
  907MOL0     O22368   9.370   4.452   9.706 -0.5358 -0.1464  0.1594
  907MOL0     C22369   9.273   4.346   9.704  1.0830 -0.4891  0.8957
  907MOL0     C22370   9.161   4.391   9.615 -0.0772  0.2425 -0.1213
  907MOL0     C22371   9.084   4.513   9.673  0.6052  0.2001  0.6293
  907MOL0     C22372   8.947   4.542   9.600  0.8113 -0.4529 -0.2463
  907MOL0     C22373   8.888   4.665   9.660 -0.5845  1.1238 -0.6289
  907MOL0     C22374   8.855   4.768   9.708 -0.1948  0.5024 -0.1559
  907MOL0     C22375   9.555   4.551   9.815 -0.0566  0.1314  0.5412
  907MOL0     C22376   9.661   4.549   9.910 -0.2567 -0.2950  0.4573
  907MOL0     C22377   9.740   4.678   9.935 -0.4186  0.5737 -0.3948
  907MOL0     H22378   9.789   4.241  10.362  0.7764 -0.2877  2.0574
  907MOL0     H22379   9.972   4.157  10.533  0.2481  1.6198  0.2975
  907MOL0     H22380  10.355   4.048  10.352  3.8842 -1.3930  0.6255
  907MOL0     H22381  10.400   4.225  10.361 -1.9498 -0.4010 -2.5344
  907MOL0     H22382  10.469   4.182  10.598 -2.2142  0.0525 -0.0751
  907MOL0     H22383  10.558   4.082  10.483 -0.4123 -1.9739 -0.0474
  907MOL0     H22384  10.301   3.968  10.598  0.1478 -0.2029  2.4664
  907MOL0     H22385  10.410   4.020  10.720 -1.6346  1.5516 -0.6910
  907MOL0     H22386  10.437   3.776  10.647  1.7166 -1.6687 -1.7271
  907MOL0     H22387  10.477   3.845  10.485 -2.3666  5.6608 -1.2841
  907MOL0     H22388  10.681   3.882  10.570  1.0331  0.2628 -0.2688
  907MOL0     H22389  10.613   3.955  10.723  0.7538  0.3837 -0.5665
  907MOL0     H22390  10.769   3.754  10.766  0.1911 -1.1363  0.8110
  907MOL0     H22391  10.609   3.687  10.797  4.4868 -1.4003  4.3115
  907MOL0     H22392  10.766   3.680  10.550 -1.0853  2.2607  1.2511
  907MOL0     H22393  10.604   3.611  10.552 -1.0193  4.2246 -1.3475
  907MOL0     H22394  10.709   3.461  10.759  0.2075 -1.7080 -0.5808
  907MOL0     H22395  10.709   3.428  10.591  2.3584 -1.4303 -0.0156
  907MOL0     H22396  10.949   3.569  10.851 -0.0226 -1.3897  1.6864
  907MOL0     H22397  11.207   3.619  10.843  1.2727  0.9018 -0.7513
  907MOL0     H22398  11.286   3.492  10.756  1.3642  1.4132 -0.0307
  907MOL0     H22399  11.317   3.669  10.567  2.2798 -0.7822  0.4455
  907MOL0     H22400  11.252   3.783  10.686 -0.3652  0.4601 -1.9355
  907MOL0     H22401  11.510   3.610  10.705  1.1245  0.9883  1.1846
  907MOL0     H22402  11.448   3.699  10.842 -2.8386 -2.2711  1.1125
  907MOL0     H22403  11.630   3.804  10.716 -0.1185 -4.0601 -0.2408
  907MOL0     H22404  11.483   3.913  10.694  2.3619  0.7632  0.0118
  907MOL0     H22405  11.576   4.031  10.474  0.0451  0.9286  0.9303
  907MOL0     H22406  11.774   4.136  10.389  0.1515 -0.7030  4.0106
  907MOL0     H22407  12.224   4.146  10.172  1.5383  2.0602 -1.3707
  907MOL0     H22408  12.459   4.195  10.124 -1.3241  1.6795 -0.0554
  907MOL0     H22409  12.658   3.949  10.024 -0.6594  0.7773 -1.5876
  907MOL0     H22410  12.697   4.127  10.041  0.3576  0.7566  0.3320
  907MOL0     H22411  12.870   3.927  10.184 -4.4604  0.3013  1.4238
  907MOL0     H22412  12.906   3.940  10.018 -0.6724 -2.8684  1.8704
  907MOL0     H22413  12.926   4.187  10.212 -1.2427 -2.0573  0.8680
  907MOL0     H22414  13.050   4.070  10.180  0.4097  1.4043  1.6630
  907MOL0     H22415  12.950   4.303  10.021  1.3341  1.1775 -2.0883
  907MOL0     H22416  12.958   4.144   9.935  0.8045 -2.8280  1.6299
  907MOL0     H22417  13.175   4.241   9.890  2.6131 -0.0402  0.1820
  907MOL0     H22418  13.204   4.136  10.023 -0.8243 -0.8413 -2.6412
  907MOL0     H22419  13.148   4.445  10.021 -0.1097 -0.7740 -3.6781
  907MOL0     H22420  13.152   4.329  10.160  0.0935 -2.5816 -0.4919
  907MOL0     H22421  13.393   4.344   9.968 -1.0656  1.5473 -0.8054
  907MOL0     H22422  13.377   4.279  10.136 -1.7733  0.1062  0.2272
  907MOL0     H22423  13.336   4.526  10.203  1.1690  0.1455 -0.6510
  907MOL0     H22424  13.503   4.486  10.164  0.5298  1.5567  0.6386
  907MOL0     H22425  12.558   3.815  10.324 -0.5295 -0.0741 -0.8228
  907MOL0     H22426  12.325   3.778  10.390 -0.2064 -1.2752 -2.3391
  907MOL0     H22427  11.949   3.723  10.381  0.1044 -1.3633 -0.9034
  907MOL0     H22428  11.761   3.651  10.483 -1.6299 -0.0171  0.6406
  907MOL0     H22429  10.252   4.257  10.205  0.4215  0.8710  0.3894
  907MOL0     H22430  10.079   4.320  10.068  0.4607  0.2826 -0.6261
  907MOL0     H22431   9.636   4.209   9.982 -1.5985 -0.6491 -1.0085
  907MOL0     H22432   9.447   4.237   9.830 -2.1559  2.6120 -0.4057
  907MOL0     H22433   9.225   4.343   9.802  0.4650  2.0153  0.7434
  907MOL0     H22434   9.311   4.251   9.666  1.1420  0.3523 -1.2631
  907MOL0     H22435   9.094   4.306   9.600  0.3178  0.0382 -0.7461
  907MOL0     H22436   9.200   4.428   9.520  0.2030  2.1628  0.6963
  907MOL0     H22437   9.155   4.591   9.643 -0.2164  0.7208  0.0133
  907MOL0     H22438   9.073   4.497   9.780 -0.5984 -3.4639  0.1065
  907MOL0     H22439   8.961   4.556   9.492  1.4695 -0.3625 -0.1491
  907MOL0     H22440   8.884   4.456   9.624  0.6720 -0.5329 -0.8805
  907MOL0     H22441   8.826   4.854   9.765  0.0698  0.2357  0.3883
  907MOL0     H22442   9.528   4.643   9.764 -0.2729 -0.0528  0.3240
  907MOL0     H22443   9.680   4.761   9.895 -1.1897  0.3678  0.3018
  907MOL0     H22444   9.764   4.690  10.041 -0.5457  0.7955 -0.3891
  907MOL0     H22445   9.834   4.670   9.880  1.9475 -2.2239  3.5394
  908MOL0     O22446   8.227   6.687   4.756 -0.2078 -0.2912  0.3156
  908MOL0     C22447   8.282   6.654   4.649  0.8154 -0.4715  0.1591
  908MOL0     O22448   8.230   6.670   4.522  0.4226 -0.6486  1.0739
  908MOL0     C22449   8.097   6.686   4.511  0.0238 -0.0787  1.0654
  908MOL0     C22450   8.044   6.814   4.492  0.3697  0.5614 -0.4922
  908MOL0     C22451   7.906   6.840   4.486 -0.2707  0.0864 -0.6695
  908MOL0     C22452   7.820   6.727   4.468  0.2915 -0.0236 -0.0268
  908MOL0     O22453   7.681   6.745   4.447  0.3496 -0.2446  0.1397
  908MOL0     C22454   7.628   6.872   4.415 -0.3336 -0.0392 -0.4162
  908MOL0     C22455   7.590   6.934   4.540 -0.9864 -0.3242  0.0797
  908MOL0     C22456   7.466   6.869   4.599 -0.2794  0.5889  0.2322
  908MOL0     C22457   7.342   6.918   4.521  0.0082  0.3964 -0.1025
  908MOL0     C22458   7.223   6.830   4.555 -0.3873 -0.6367 -0.8501
  908MOL0     C22459   7.186   6.848   4.704 -0.4647 -0.2623 -0.6422
  908MOL0     C22460   7.037   6.818   4.743 -0.4587  1.0524 -0.0131
  908MOL0     C22461   6.986   6.677   4.718  0.5627  0.1166  0.9875
  908MOL0     N22462   6.842   6.681   4.730  0.1379  0.7542 -0.1410
  908MOL0     C22463   6.756   6.594   4.665 -0.1528  0.4962 -0.2598
  908MOL0     C22464   6.639   6.609   4.724  0.8435  0.4608 -0.3593
  908MOL0     C22465   6.521   6.520   4.705  0.0896  0.2400  0.0448
  908MOL0     C22466   6.420   6.502   4.811  0.0478 -0.5386 -1.2118
  908MOL0     C22467   6.475   6.431   4.929 -0.1617 -0.3178  0.1997
  908MOL0     C22468   6.393   6.477   5.057  0.3812  0.1769  1.5503
  908MOL0     O22469   6.429   6.386   5.163 -0.2682 -0.0891 -0.5213
  908MOL0     C22470   6.325   6.347   5.237 -0.2686  1.1514 -0.6545
  908MOL0     C22471   6.233   6.430   5.299 -0.0034 -1.2845  0.5377
  908MOL0     C22472   6.143   6.383   5.398 -0.1392 -0.1593  0.3055
  908MOL0     C22473   6.140   6.246   5.429 -0.3752  0.4236  0.8797
  908MOL0     C22474   6.048   6.196   5.531 -0.1125  0.0148 -0.0803
  908MOL0     O22475   5.960   6.284   5.582  0.3522 -0.6844  0.1297
  908MOL0     C22476   5.858   6.235   5.672 -0.4219 -0.0154 -0.1844
  908MOL0     C22477   5.897   6.173   5.787 -0.9013 -1.0500  0.1328
  908MOL0     C22478   5.796   6.131   5.872 -0.6969  0.5320  0.1544
  908MOL0     C22479   5.659   6.159   5.839  1.3037 -0.3632 -0.5470
  908MOL0     O22480   5.555   6.117   5.916 -0.0062  0.2653  1.0454
  908MOL0     C22481   5.570   6.084   6.058 -0.6580  0.0690  1.3225
  908MOL0     C22482   5.581   6.214   6.138  0.0063  0.6666  0.1451
  908MOL0     C22483   5.617   6.186   6.283  0.9135 -0.4541 -1.4966
  908MOL0     C22484   5.530   6.262   6.390  0.4609 -0.6089  0.3130
  908MOL0     C22485   5.545   6.188   6.527  0.6416  0.0239  0.3256
  908MOL0     C22486   5.673   6.238   6.600 -0.5440  0.0258 -0.7411
  908MOL0     C22487   5.800   6.176   6.555 -0.5534  0.1793  0.5721
  908MOL0     C22488   5.894   6.167   6.675  0.0135 -0.0482 -0.2490
  908MOL0    Cl22489   5.949   6.321   6.771 -0.0306  0.5359  0.4329
  908MOL0     C22490   5.624   6.228   5.728 -0.3236  0.6589  0.1899
  908MOL0     C22491   5.723   6.254   5.638  0.4513 -0.4281 -0.2377
  908MOL0     O22492   6.060   6.077   5.556  0.3023 -0.2951 -0.0613
  908MOL0     C22493   6.227   6.161   5.368 -0.5599  0.2419 -0.1548
  908MOL0     C22494   6.316   6.212   5.276 -0.1103 -0.8899 -0.9410
  908MOL0     N22495   6.649   6.695   4.830  0.1136 -0.1085  0.0560
  908MOL0     N22496   6.767   6.740   4.829 -0.7686  0.1069 -0.3017
  908MOL0     C22497   7.869   6.597   4.482  0.6366 -0.4923  1.1548
  908MOL0     C22498   8.008   6.580   4.503 -0.6350 -0.0621  0.5270
  908MOL0     C22499   8.426   6.621   4.648 -0.4056 -0.6379 -0.9543
  908MOL0     C22500   8.510   6.711   4.727 -0.0560  0.1734 -0.5392
  908MOL0     C22501   8.641   6.671   4.739  0.0954 -0.4938 -0.0111
  908MOL0     C22502   8.690   6.564   4.659  0.5090 -1.2460 -0.5770
  908MOL0     O22503   8.825   6.536   4.669  0.2564 -0.0777 -0.1929
  908MOL0     C22504   8.887   6.571   4.548 -0.0157  0.4276  0.3217
  908MOL0     C22505   9.034   6.592   4.573  0.0442  0.1464 -1.1409
  908MOL0     C22506   9.060   6.721   4.652 -0.6255 -0.0899  0.3044
  908MOL0     C22507   9.042   6.849   4.570 -0.5401  0.1560  0.2977
  908MOL0     C22508   9.164   6.888   4.489 -0.8693 -0.2616  0.8981
  908MOL0     C22509   9.259   6.920   4.423  0.2081  0.6001  0.7859
  908MOL0     C22510   8.606   6.487   4.580 -0.4512  0.0557 -0.9768
  908MOL0     C22511   8.474   6.512   4.579 -0.2613 -0.4414 -0.7447
  908MOL0     C22512   8.391   6.396   4.523  0.2875 -0.2050  0.2874
  908MOL0     H22513   8.119   6.891   4.504  1.7340 -1.1200  3.2433
  908MOL0     H22514   7.883   6.945   4.466 -0.4352  0.1819  0.0053
  908MOL0     H22515   7.703   6.933   4.363  0.4548  0.0732  0.8093
  908MOL0     H22516   7.540   6.859   4.351 -0.3024  1.7950 -0.8711
  908MOL0     H22517   7.580   7.043   4.533  0.3335 -0.2125 -0.4038
  908MOL0     H22518   7.668   6.918   4.616 -2.3296  2.0645  2.1379
  908MOL0     H22519   7.447   6.892   4.705  0.1827 -3.2559  1.2981
  908MOL0     H22520   7.468   6.760   4.595 -1.5890  0.5770 -2.6559
  908MOL0     H22521   7.327   7.022   4.552 -0.8785  1.6912 -4.2415
  908MOL0     H22522   7.355   6.929   4.413  0.2768 -1.4697 -0.3003
  908MOL0     H22523   7.128   6.863   4.510 -2.7166 -1.8351  2.7181
  908MOL0     H22524   7.241   6.725   4.529  2.7589 -0.8565  1.5944
  908MOL0     H22525   7.253   6.804   4.779 -2.4898  2.1061  2.8306
  908MOL0     H22526   7.204   6.955   4.702  0.7244 -0.4551 -0.7850
  908MOL0     H22527   6.979   6.887   4.682 -1.5459 -0.2491 -0.5080
  908MOL0     H22528   7.023   6.850   4.846 -2.2988  0.7967 -0.1457
  908MOL0     H22529   7.011   6.649   4.615 -0.4920  0.7035  0.5616
  908MOL0     H22530   7.015   6.602   4.792 -4.0249 -1.8633  1.0851
  908MOL0     H22531   6.774   6.522   4.586  1.6125  1.3285 -0.6655
  908MOL0     H22532   6.472   6.563   4.617  0.6037  4.3829  1.5550
  908MOL0     H22533   6.557   6.419   4.682  0.3922  0.9214 -2.9574
  908MOL0     H22534   6.378   6.601   4.835  0.1825 -0.4914 -1.1665
  908MOL0     H22535   6.339   6.433   4.789  1.1498 -1.7337 -1.6333
  908MOL0     H22536   6.580   6.456   4.948  0.3478 -2.9903  1.4447
  908MOL0     H22537   6.464   6.322   4.925  0.0188 -0.3145 -1.4517
  908MOL0     H22538   6.284   6.480   5.040  0.4142  1.2733  1.4335
  908MOL0     H22539   6.421   6.577   5.091  1.3582 -0.1042  1.5956
  908MOL0     H22540   6.234   6.536   5.274  3.1323 -1.4124 -0.2833
  908MOL0     H22541   6.064   6.445   5.439 -2.5613  1.2410 -5.4265
  908MOL0     H22542   6.001   6.176   5.819 -0.4763  2.4361 -1.1243
  908MOL0     H22543   5.831   6.079   5.961 -2.4306  1.9871  1.7727
  908MOL0     H22544   5.477   6.048   6.102  0.2964 -0.8799  2.6332
  908MOL0     H22545   5.643   6.004   6.069  0.4628  1.0260  1.0252
  908MOL0     H22546   5.656   6.283   6.098 -0.4469 -0.1057 -2.2062
  908MOL0     H22547   5.491   6.275   6.142  0.6982  1.8059 -0.8881
  908MOL0     H22548   5.612   6.078   6.298  1.0494 -0.1744  1.0938
  908MOL0     H22549   5.720   6.213   6.308  0.9110 -1.4988 -0.2438
  908MOL0     H22550   5.423   6.252   6.365  0.5692 -1.0743  0.0127
  908MOL0     H22551   5.557   6.365   6.412 -2.1613 -0.3353  2.9683
  908MOL0     H22552   5.542   6.080   6.515  1.0247 -0.0843  1.1518
  908MOL0     H22553   5.454   6.216   6.581 -0.3562  2.1262 -2.2209
  908MOL0     H22554   5.684   6.343   6.574  1.7547 -0.2909 -1.3121
  908MOL0     H22555   5.668   6.222   6.708  5.2346 -3.9820 -0.5814
  908MOL0     H22556   5.841   6.245   6.481 -2.6696  1.4205  0.4795
  908MOL0     H22557   5.794   6.075   6.511 -0.7130  1.2365 -2.0094
  908MOL0     H22558   5.861   6.088   6.743 -0.1680  0.3153  0.0837
  908MOL0     H22559   5.978   6.109   6.635 -1.4399 -2.1709 -0.4078
  908MOL0     H22560   5.519   6.245   5.706  0.0378  3.3965  0.2597
  908MOL0     H22561   5.699   6.296   5.541  1.0487  0.3228 -0.0786
  908MOL0     H22562   6.233   6.054   5.386  0.0996 -0.1251 -2.2452
  908MOL0     H22563   6.399   6.158   5.231  2.1716  1.9516 -0.4652
  908MOL0     H22564   7.801   6.513   4.485  0.8505 -0.6726  0.9841
  908MOL0     H22565   8.045   6.478   4.511 -1.0812 -0.1269  2.4027
  908MOL0     H22566   8.477   6.796   4.786 -0.9487 -0.3498 -0.2666
  908MOL0     H22567   8.702   6.732   4.805 -0.9952  0.1039  0.4729
  908MOL0     H22568   8.835   6.653   4.498 -1.1686 -1.5048 -1.7981
  908MOL0     H22569   8.881   6.492   4.474 -1.5110 -0.2245  1.0930
  908MOL0     H22570   9.099   6.587   4.485  0.3302  1.6254 -1.0390
  908MOL0     H22571   9.074   6.508   4.630  3.6381  2.3419 -0.0608
  908MOL0     H22572   9.160   6.721   4.697 -0.4315  0.9563 -0.0788
  908MOL0     H22573   8.983   6.734   4.728 -3.4043  1.4878 -2.5579
  908MOL0     H22574   8.965   6.827   4.496 -0.8038  1.4478  0.1738
  908MOL0     H22575   9.011   6.932   4.635 -4.7935 -1.3871  0.5414
  908MOL0     H22576   9.340   6.954   4.361 -1.0678  0.3734 -1.0843
  908MOL0     H22577   8.666   6.416   4.525  2.2796  2.1785 -0.9700
  908MOL0     H22578   8.370   6.421   4.419 -2.2296 -0.1268  0.7487
  908MOL0     H22579   8.438   6.298   4.514  1.0007  0.2429 -1.1917
  908MOL0     H22580   8.295   6.391   4.576 -0.2797 -0.6682 -0.7600
  909MOL0     O22581   0.218   0.666   4.256 -0.8255 -0.5774 -0.2804
  909MOL0     C22582   0.172   0.709   4.358  0.0806 -0.2377 -0.6496
  909MOL0     O22583   0.107   0.635   4.461  0.2272  0.5071 -0.1626
  909MOL0     C22584   0.076   0.502   4.441  0.3844 -0.5516 -0.1894
  909MOL0     C22585   0.161   0.400   4.409  0.0711 -0.0840  0.7216
  909MOL0     C22586   0.117   0.269   4.402  0.0703  0.4593  0.2770
  909MOL0     C22587  -0.020   0.243   4.427 -0.2145 -0.2778  0.3807
  909MOL0     O22588  -0.050   0.114   4.437  0.2339  0.6765  0.4200
  909MOL0     C22589  -0.190   0.089   4.407 -0.3388 -0.5415  0.2817
  909MOL0     C22590  -0.207  -0.057   4.398  0.0995  0.4686  0.2962
  909MOL0     C22591  -0.118  -0.127   4.295 -0.1894 -0.4670 -0.3258
  909MOL0     C22592  -0.133  -0.277   4.295  0.1356 -0.9419  0.3341
  909MOL0     C22593  -0.031  -0.347   4.386 -0.4020 -0.0974  0.2052
  909MOL0     C22594  -0.053  -0.500   4.382 -0.2510 -0.4999 -0.2375
  909MOL0     C22595   0.063  -0.575   4.447 -0.0501  0.2749  0.2485
  909MOL0     C22596   0.021  -0.727   4.446 -0.1123 -0.0639 -0.3142
  909MOL0     N22597  -0.055  -0.766   4.569  0.7996  0.6793  0.1718
  909MOL0     C22598  -0.027  -0.723   4.697 -0.3137 -0.5791  1.6120
  909MOL0     C22599  -0.110  -0.790   4.779 -0.0982 -0.5494 -0.5730
  909MOL0     C22600  -0.105  -0.783   4.925 -0.8799 -0.1837  0.6632
  909MOL0     C22601  -0.065  -0.921   4.984 -0.1664 -0.2354 -0.3634
  909MOL0     C22602  -0.083  -0.905   5.136  0.5524  1.1942  0.3858
  909MOL0     C22603   0.002  -0.810   5.208 -0.1858  0.4941  0.7524
  909MOL0     O22604   0.127  -0.875   5.232 -0.4455  0.1010 -0.4955
  909MOL0     C22605   0.226  -0.804   5.295  0.2469 -0.4344 -0.3680
  909MOL0     C22606   0.225  -0.663   5.327  0.0597  0.9532  0.7680
  909MOL0     C22607   0.335  -0.608   5.394 -0.3065  0.4634  0.4133
  909MOL0     C22608   0.451  -0.676   5.439  0.0067 -0.2713 -0.2563
  909MOL0     C22609   0.557  -0.615   5.531 -0.5977  0.2543  0.4397
  909MOL0     O22610   0.586  -0.483   5.503  0.2872  0.3733  0.3083
  909MOL0     C22611   0.685  -0.409   5.561  0.1420 -0.7095 -1.2069
  909MOL0     C22612   0.681  -0.270   5.549  0.1365  0.0853 -0.4506
  909MOL0     C22613   0.769  -0.191   5.613  1.5279  0.8939  0.0040
  909MOL0     C22614   0.876  -0.243   5.678 -0.0513 -0.0212  0.3904
  909MOL0     O22615   0.981  -0.162   5.719  0.1029 -1.0437  0.0880
  909MOL0     C22616   0.967  -0.018   5.716 -0.4679  0.1227  0.3242
  909MOL0     C22617   1.071   0.054   5.804 -0.3473 -0.2939  0.3486
  909MOL0     C22618   1.063   0.016   5.950 -0.3518  0.7069 -0.2589
  909MOL0     C22619   0.948   0.074   6.034  0.7232 -0.1322 -0.1727
  909MOL0     C22620   0.969   0.057   6.186  0.4283  0.1510 -0.7084
  909MOL0     C22621   0.919  -0.083   6.241  0.2052 -0.0275 -0.2302
  909MOL0     C22622   0.946  -0.103   6.392  0.0065 -0.0082 -1.1797
  909MOL0     C22623   0.876  -0.234   6.439  0.1305 -0.6031 -0.6592
  909MOL0    Cl22624   0.933  -0.279   6.604  0.6503  0.1266 -0.2922
  909MOL0     C22625   0.880  -0.377   5.691 -1.1887  0.3869 -0.3775
  909MOL0     C22626   0.792  -0.466   5.639 -0.4232  0.1279  0.3718
  909MOL0     O22627   0.595  -0.674   5.626  0.2872 -0.1496 -0.5096
  909MOL0     C22628   0.450  -0.817   5.404  0.2572  1.2140  0.5122
  909MOL0     C22629   0.339  -0.879   5.331 -0.5274  0.8193  0.2467
  909MOL0     N22630  -0.184  -0.873   4.699  0.1477 -0.2041  0.4096
  909MOL0     N22631  -0.152  -0.857   4.576 -1.1229  0.8089 -0.3680
  909MOL0     C22632  -0.108   0.345   4.447 -0.5898 -0.2139  0.7840
  909MOL0     C22633  -0.061   0.481   4.451  1.4136  0.2482 -0.5339
  909MOL0     C22634   0.200   0.854   4.387 -0.2307  0.4171 -0.2638
  909MOL0     C22635   0.230   0.887   4.522  0.5205 -0.3391 -0.6086
  909MOL0     C22636   0.256   1.019   4.558 -0.7706  0.3112 -0.7311
  909MOL0     C22637   0.256   1.122   4.475 -0.0271  1.0015 -0.4770
  909MOL0     O22638   0.302   1.248   4.499 -0.1405  0.1215 -1.1895
  909MOL0     C22639   0.259   1.316   4.618 -0.2753 -0.0150  0.1862
  909MOL0     C22640   0.234   1.460   4.595  0.1108 -0.2847  0.7269
  909MOL0     C22641   0.086   1.481   4.549  0.1067  0.8562 -0.5769
  909MOL0     C22642   0.061   1.625   4.539  0.0055 -0.0814 -0.0965
  909MOL0     C22643   0.104   1.686   4.410 -0.6549 -0.0203 -0.3433
  909MOL0     C22644   0.130   1.733   4.302  0.0758 -1.5946  0.6316
  909MOL0     C22645   0.223   1.097   4.342 -0.2542  0.1417 -0.0293
  909MOL0     C22646   0.192   0.964   4.297  0.5547  0.1754 -1.1104
  909MOL0     C22647   0.145   0.951   4.152 -0.0980  0.6220  0.4917
  909MOL0     H22648   0.266   0.419   4.390  0.6324 -1.4912  2.2689
  909MOL0     H22649   0.184   0.186   4.380 -2.5649 -2.4917  2.3449
  909MOL0     H22650  -0.260   0.109   4.488  0.3216  0.6128  0.5888
  909MOL0     H22651  -0.213   0.133   4.309  3.2867 -1.8882 -1.3398
  909MOL0     H22652  -0.311  -0.084   4.376  0.9361 -2.1932 -0.7928
  909MOL0     H22653  -0.178  -0.109   4.490 -0.4702 -1.0090 -0.3263
  909MOL0     H22654  -0.011  -0.112   4.316  0.1388 -2.4193 -0.4357
  909MOL0     H22655  -0.134  -0.074   4.200  2.1826 -1.6038 -1.4607
  909MOL0     H22656  -0.233  -0.310   4.325 -1.4725  2.7969 -0.3867
  909MOL0     H22657  -0.115  -0.307   4.191  2.1964  1.8650 -0.2470
  909MOL0     H22658   0.068  -0.316   4.353 -0.9107  1.3118 -0.0494
  909MOL0     H22659  -0.044  -0.309   4.488  0.5176 -1.3088  0.7934
  909MOL0     H22660  -0.145  -0.524   4.436 -0.5843  0.6864 -0.2529
  909MOL0     H22661  -0.070  -0.529   4.277 -0.9124  1.2814 -0.6620
  909MOL0     H22662   0.075  -0.528   4.545 -4.2170  2.0177  0.1615
  909MOL0     H22663   0.155  -0.563   4.390  1.5977 -0.9962  2.4802
  909MOL0     H22664  -0.027  -0.752   4.351  0.3711  0.4581 -0.6976
  909MOL0     H22665   0.110  -0.790   4.443  0.5532  0.8144  0.5256
  909MOL0     H22666   0.051  -0.649   4.716  0.5602 -0.9506 -0.3238
  909MOL0     H22667  -0.039  -0.704   4.961 -2.4831  1.7745 -0.5436
  909MOL0     H22668  -0.205  -0.763   4.964 -2.3001 -2.0323 -1.6968
  909MOL0     H22669  -0.119  -1.000   4.932 -1.1662 -0.6782  1.2682
  909MOL0     H22670   0.044  -0.931   4.977  0.1462  0.6583  2.0783
  909MOL0     H22671  -0.063  -1.011   5.157  1.0596  1.3629  0.7731
  909MOL0     H22672  -0.189  -0.882   5.145  0.1062  0.5643 -2.3993
  909MOL0     H22673  -0.040  -0.794   5.308  2.0230  2.1288  1.4855
  909MOL0     H22674   0.011  -0.714   5.156  3.3129 -0.4238 -0.5985
  909MOL0     H22675   0.138  -0.603   5.301 -0.3690 -0.8245 -2.4215
  909MOL0     H22676   0.346  -0.503   5.417  2.9830  0.6328 -1.3546
  909MOL0     H22677   0.597  -0.216   5.507 -0.4019  1.5882  2.3053
  909MOL0     H22678   0.749  -0.085   5.606  0.1393  0.7099  0.8154
  909MOL0     H22679   0.950   0.027   5.617  0.4240 -0.1564  0.0333
  909MOL0     H22680   0.875   0.017   5.764 -0.5916  2.6651 -1.5213
  909MOL0     H22681   1.170   0.043   5.760 -0.7326  1.5245 -1.0895
  909MOL0     H22682   1.053   0.162   5.795  1.1743 -0.1423 -1.4862
  909MOL0     H22683   1.050  -0.092   5.960 -0.6178  0.7606 -0.0261
  909MOL0     H22684   1.160   0.043   5.994  1.2129 -0.8429 -2.4777
  909MOL0     H22685   0.855   0.026   6.003  1.8089 -2.2875 -0.2628
  909MOL0     H22686   0.932   0.180   6.012  1.3381 -0.2652 -1.3145
  909MOL0     H22687   0.924   0.131   6.253  1.0409 -1.4493  1.5813
  909MOL0     H22688   1.075   0.056   6.213  0.1370 -1.2468  0.5087
  909MOL0     H22689   0.811  -0.090   6.225  0.0294 -0.1965  0.9546
  909MOL0     H22690   0.966  -0.158   6.176 -0.3827 -1.1178  0.5770
  909MOL0     H22691   0.909  -0.019   6.451 -1.2989 -2.4840  1.7898
  909MOL0     H22692   1.052  -0.113   6.414  0.0028  3.2010  1.0830
  909MOL0     H22693   0.768  -0.221   6.440 -0.7241 -5.7560  0.4790
  909MOL0     H22694   0.893  -0.310   6.363  3.2531 -1.6938  0.9469
  909MOL0     H22695   0.957  -0.426   5.750 -1.3593  2.3479  1.5978
  909MOL0     H22696   0.816  -0.572   5.641 -2.2029 -0.3472 -1.0022
  909MOL0     H22697   0.516  -0.899   5.429 -3.5786 -2.8558 -1.3020
  909MOL0     H22698   0.346  -0.982   5.300 -1.2627  0.4971  1.1258
  909MOL0     H22699  -0.213   0.326   4.470 -1.3682  0.5195 -1.8222
  909MOL0     H22700  -0.123   0.570   4.466  1.6748  0.0658  2.0590
  909MOL0     H22701   0.231   0.809   4.597 -3.1128 -3.4155 -3.3505
  909MOL0     H22702   0.284   1.038   4.661  0.9871  2.2569 -1.5096
  909MOL0     H22703   0.350   1.300   4.675  0.5709 -3.3385 -1.8409
  909MOL0     H22704   0.172   1.271   4.667  0.4458 -2.5015 -0.6509
  909MOL0     H22705   0.298   1.501   4.516  1.2764 -2.3833  0.5224
  909MOL0     H22706   0.261   1.517   4.685  1.8475  2.1045 -1.1437
  909MOL0     H22707   0.029   1.440   4.633  1.7022 -1.3356 -0.4581
  909MOL0     H22708   0.071   1.422   4.458  1.3532 -2.9689  1.4660
  909MOL0     H22709  -0.048   1.639   4.548  0.1008  0.7966 -0.1988
  909MOL0     H22710   0.104   1.675   4.626 -2.9734 -3.0637  3.4603
  909MOL0     H22711   0.129   1.777   4.204 -0.9080 -0.6059  1.0673
  909MOL0     H22712   0.217   1.166   4.259 -0.2341 -2.7463 -2.5961
  909MOL0     H22713   0.220   0.991   4.084 -0.3505 -2.1279 -1.5838
  909MOL0     H22714   0.131   0.846   4.127 -2.6521  1.2095 -0.9336
  909MOL0     H22715   0.050   1.005   4.141 -0.1654  0.9154  2.2120
  910MOL0     O22716   3.641   6.219   6.916 -0.0271  0.2910 -0.2449
  910MOL0     C22717   3.671   6.138   6.827  0.3285  0.0526 -0.3085
  910MOL0     O22718   3.796   6.106   6.785 -0.2582 -0.2699 -0.1722
  910MOL0     C22719   3.891   6.193   6.830  0.3603  0.7281  1.0210
  910MOL0     C22720   3.933   6.289   6.741  0.4471  0.6176 -0.2629
  910MOL0     C22721   4.029   6.380   6.777 -0.8113 -0.1739 -0.3605
  910MOL0     C22722   4.101   6.357   6.900  0.4899  0.4935 -0.2035
  910MOL0     O22723   4.195   6.444   6.952  0.0912 -0.2984 -0.1798
  910MOL0     C22724   4.207   6.574   6.893 -0.5051 -0.0182 -0.6392
  910MOL0     C22725   4.295   6.650   6.990 -0.8123  0.9518 -0.2465
  910MOL0     C22726   4.262   6.794   7.015  1.0166 -0.2302  0.4011
  910MOL0     C22727   4.309   6.875   6.891 -0.6514  0.0756 -0.3814
  910MOL0     C22728   4.287   7.023   6.925  0.4958 -0.4766 -0.0457
  910MOL0     C22729   4.402   7.072   7.017  0.2790  0.2415  0.5909
  910MOL0     C22730   4.449   7.214   7.007 -0.0725  0.0837  1.0195
  910MOL0     C22731   4.332   7.316   7.020  0.9331 -0.8336 -0.5996
  910MOL0     N22732   4.365   7.455   6.987  0.1836 -0.3297 -0.1763
  910MOL0     C22733   4.392   7.502   6.859  0.0871  0.9862 -0.5733
  910MOL0     C22734   4.431   7.622   6.882  0.3890 -0.5037  0.1757
  910MOL0     C22735   4.456   7.724   6.765  0.1999  0.8594 -0.0374
  910MOL0     C22736   4.557   7.688   6.660  0.3401  0.5439  0.2108
  910MOL0     C22737   4.579   7.790   6.553  0.5533  0.5974 -0.4305
  910MOL0     C22738   4.717   7.775   6.487  0.0098 -0.1464 -0.2926
  910MOL0     O22739   4.823   7.804   6.578  0.8240 -0.5848 -0.6832
  910MOL0     C22740   4.941   7.828   6.523  0.0585  0.5552  0.7296
  910MOL0     C22741   4.996   7.955   6.523  0.2171  0.2170  0.4453
  910MOL0     C22742   5.117   7.991   6.460  0.1768 -0.0888 -0.6749
  910MOL0     C22743   5.194   7.887   6.397  0.8833 -0.2915  0.0183
  910MOL0     C22744   5.325   7.930   6.342 -0.2559  0.2821 -0.0571
  910MOL0     O22745   5.414   7.826   6.305 -0.9678 -1.0152  0.4579
  910MOL0     C22746   5.549   7.862   6.276  1.3764  0.1548 -1.2617
  910MOL0     C22747   5.640   7.766   6.298 -0.5628  1.5232  0.2766
  910MOL0     C22748   5.777   7.773   6.259 -0.0899  0.5623 -0.0080
  910MOL0     C22749   5.824   7.894   6.207 -0.4999  0.2420  0.4802
  910MOL0     O22750   5.950   7.904   6.169  0.2698 -0.5125  0.9570
  910MOL0     C22751   6.027   7.972   6.272  0.3333  0.1062  0.2769
  910MOL0     C22752   6.134   8.043   6.188 -0.3584 -0.1891 -0.1351
  910MOL0     C22753   6.232   7.940   6.137 -0.7273  0.1349  0.4091
  910MOL0     C22754   6.315   8.005   6.022 -0.0211  0.7821  0.5812
  910MOL0     C22755   6.423   7.909   5.966 -0.6442  0.0517 -0.4939
  910MOL0     C22756   6.548   7.919   6.059 -0.2777  0.3407 -0.0477
  910MOL0     C22757   6.629   8.042   6.054  0.1738 -0.2147 -0.0409
  910MOL0     C22758   6.728   8.039   6.172 -0.3926 -0.4474 -0.2194
  910MOL0    Cl22759   6.848   7.913   6.160 -0.0906  0.1888 -0.0803
  910MOL0     C22760   5.733   7.993   6.179 -0.1859 -0.5877 -0.5221
  910MOL0     C22761   5.598   7.975   6.211 -0.1225  1.3476  0.9202
  910MOL0     O22762   5.355   8.047   6.341 -0.0820 -0.4100 -0.2545
  910MOL0     C22763   5.137   7.756   6.401 -0.1513 -0.7997 -0.0437
  910MOL0     C22764   5.019   7.728   6.470 -0.4125  0.2582  0.1685
  910MOL0     N22765   4.419   7.661   7.013  0.3410 -0.3310  0.0658
  910MOL0     N22766   4.391   7.551   7.080 -0.5298 -0.3635  0.8104
  910MOL0     C22767   4.064   6.255   6.986 -0.2218 -0.3620 -0.3551
  910MOL0     C22768   3.963   6.169   6.950 -0.2861 -0.3857  0.0909
  910MOL0     C22769   3.549   6.072   6.769 -0.3769  0.1970  0.0193
  910MOL0     C22770   3.429   6.085   6.837  0.4756  0.0965 -0.1356
  910MOL0     C22771   3.311   6.067   6.768 -0.7017  1.0249  1.4227
  910MOL0     C22772   3.314   6.017   6.639 -0.0177  0.2335  0.2647
  910MOL0     O22773   3.202   5.991   6.560 -0.6070 -1.0652  0.3309
  910MOL0     C22774   3.075   6.027   6.609  0.1144 -0.5728  0.0212
  910MOL0     C22775   2.977   5.963   6.500 -0.1107 -0.3172  0.2644
  910MOL0     C22776   2.961   5.810   6.511  0.4501 -0.1201 -0.6497
  910MOL0     C22777   2.915   5.765   6.650  0.0193  0.2412 -0.3539
  910MOL0     C22778   2.808   5.657   6.636 -0.2493  0.3204 -0.9817
  910MOL0     C22779   2.710   5.582   6.642 -0.1651 -0.2392 -0.1352
  910MOL0     C22780   3.430   5.984   6.581  0.3184  0.6801  0.6960
  910MOL0     C22781   3.553   6.017   6.631  0.5347 -0.3270 -0.3005
  910MOL0     C22782   3.683   5.997   6.560 -0.5107  0.0748  0.2780
  910MOL0     H22783   3.883   6.294   6.645  0.9071 -2.3605 -0.7388
  910MOL0     H22784   4.066   6.457   6.711  0.9132 -1.0075 -0.4155
  910MOL0     H22785   4.248   6.571   6.792 -0.1553  4.6611 -0.8879
  910MOL0     H22786   4.112   6.628   6.899 -1.9265 -2.2525 -1.9567
  910MOL0     H22787   4.397   6.638   6.951 -1.7292 -0.2224 -2.4243
  910MOL0     H22788   4.286   6.592   7.082 -1.1447  1.5644  0.1107
  910MOL0     H22789   4.302   6.826   7.112  2.4593 -2.7166  0.6960
  910MOL0     H22790   4.155   6.806   7.031  0.9196 -1.2962  0.6189
  910MOL0     H22791   4.403   6.836   6.851 -0.8684 -0.6689 -0.1819
  910MOL0     H22792   4.246   6.855   6.804  0.8948  0.6741 -1.6944
  910MOL0     H22793   4.306   7.087   6.839  0.3500  0.7373  0.8048
  910MOL0     H22794   4.188   7.032   6.971  0.2629  0.0412 -0.6437
  910MOL0     H22795   4.372   7.050   7.120  3.2640  1.2678  1.7964
  910MOL0     H22796   4.496   7.018   7.004  0.4686  0.4479  1.0775
  910MOL0     H22797   4.492   7.226   6.907 -1.2902 -1.1842  0.3125
  910MOL0     H22798   4.522   7.239   7.084  1.2862  0.9225 -0.4889
  910MOL0     H22799   4.248   7.276   6.962 -0.6499  0.6349  0.5509
  910MOL0     H22800   4.301   7.323   7.125  1.4650  0.4301 -0.5107
  910MOL0     H22801   4.386   7.448   6.765  0.1542 -0.0864  0.0186
  910MOL0     H22802   4.357   7.732   6.717  0.5658  1.1944 -0.7491
  910MOL0     H22803   4.478   7.824   6.802 -1.9434  1.9796 -1.5247
  910MOL0     H22804   4.653   7.677   6.713 -0.5325  0.6688  1.9019
  910MOL0     H22805   4.543   7.596   6.604  0.5480  2.4453 -3.2445
  910MOL0     H22806   4.557   7.886   6.601 -0.5529 -0.2507  0.8393
  910MOL0     H22807   4.501   7.780   6.478  0.6982 -1.0813 -0.3950
  910MOL0     H22808   4.722   7.844   6.402  2.4556 -0.1127 -0.2040
  910MOL0     H22809   4.740   7.683   6.433  2.9279  2.2947 -3.6453
  910MOL0     H22810   4.949   8.034   6.582 -0.5688 -2.3812  3.6265
  910MOL0     H22811   5.147   8.094   6.472 -0.0640 -0.2846  2.4141
  910MOL0     H22812   5.613   7.673   6.347 -0.4416  0.9037 -0.7910
  910MOL0     H22813   5.850   7.699   6.289 -0.4640  0.5185  0.8179
  910MOL0     H22814   5.971   8.051   6.323  1.7616  1.1663  0.2725
  910MOL0     H22815   6.076   7.898   6.336  0.3480 -4.1001 -4.0031
  910MOL0     H22816   6.082   8.104   6.115 -0.3502  0.6867  0.5719
  910MOL0     H22817   6.186   8.123   6.242 -1.4795  3.9554 -4.5814
  910MOL0     H22818   6.285   7.915   6.229 -0.5049  3.3682  1.3017
  910MOL0     H22819   6.185   7.853   6.091 -0.0388  0.7811 -1.6171
  910MOL0     H22820   6.345   8.108   6.042 -0.9955  1.6841 -2.1521
  910MOL0     H22821   6.249   8.013   5.935  0.6983 -2.7364 -0.4322
  910MOL0     H22822   6.462   7.948   5.871  0.7918  3.3694  1.2921
  910MOL0     H22823   6.391   7.805   5.967  1.1377 -0.5640  2.2369
  910MOL0     H22824   6.516   7.905   6.163 -3.4175 -2.9466 -1.2415
  910MOL0     H22825   6.624   7.845   6.029  1.9059  2.0065  1.0880
  910MOL0     H22826   6.556   8.123   6.049 -3.5484 -3.1689  1.7112
  910MOL0     H22827   6.685   8.032   5.960  2.3899 -4.6606  1.4771
  910MOL0     H22828   6.774   8.138   6.167 -0.7934 -0.2746 -0.5961
  910MOL0     H22829   6.684   8.023   6.271  0.3277 -5.0121 -0.4514
  910MOL0     H22830   5.769   8.074   6.117  1.7215 -2.2508 -1.7060
  910MOL0     H22831   5.527   8.046   6.170 -0.9825 -0.9307 -1.9655
  910MOL0     H22832   5.196   7.676   6.358  0.7821 -0.3404  0.3561
  910MOL0     H22833   4.976   7.629   6.475  1.0483 -0.5151 -1.4357
  910MOL0     H22834   4.101   6.252   7.088 -2.7207 -0.3377  0.6413
  910MOL0     H22835   3.935   6.082   7.009  0.8242 -1.0020 -0.2470
  910MOL0     H22836   3.416   6.126   6.937  0.0844  0.3990 -0.3079
  910MOL0     H22837   3.218   6.098   6.814 -1.6659  0.0889  0.1810
  910MOL0     H22838   3.063   6.135   6.607 -2.7591 -0.8189 -1.7078
  910MOL0     H22839   3.055   5.987   6.709  2.7855 -1.5604  0.2451
  910MOL0     H22840   3.000   5.991   6.397 -0.8343 -2.2287 -0.4540
  910MOL0     H22841   2.879   6.005   6.525  0.1913  0.2883  0.4672
  910MOL0     H22842   3.057   5.767   6.483 -0.0668 -0.5267 -1.8817
  910MOL0     H22843   2.888   5.774   6.437  0.9987 -1.2648 -0.6511
  910MOL0     H22844   2.999   5.722   6.705 -0.6597  1.5217  1.8117
  910MOL0     H22845   2.869   5.848   6.706  0.1341  0.3059 -0.3572
  910MOL0     H22846   2.622   5.520   6.642  0.0574 -0.5802  1.2680
  910MOL0     H22847   3.427   5.947   6.479  0.8535 -0.2726  1.0119
  910MOL0     H22848   3.735   6.093   6.549 -2.4534  1.4722  2.3443
  910MOL0     H22849   3.742   5.922   6.613 -1.9526 -0.7999  0.6763
  910MOL0     H22850   3.652   5.957   6.463  1.8170 -2.1448  0.3616
  911MOL0     O22851  10.036   1.270   1.780 -0.6528  0.6143 -0.0382
  911MOL0     C22852   9.977   1.281   1.670  0.0718 -0.2392 -0.3391
  911MOL0     O22853  10.030   1.343   1.563 -0.0519 -1.1103 -0.9453
  911MOL0     C22854  10.156   1.400   1.578  0.2620  0.1408  0.8401
  911MOL0     C22855  10.263   1.355   1.494  0.3118  0.8026  0.1537
  911MOL0     C22856  10.384   1.424   1.492  0.2983  0.3371  0.2748
  911MOL0     C22857  10.413   1.528   1.579 -0.2023 -0.8932 -0.6366
  911MOL0     O22858  10.545   1.561   1.583 -0.7781 -0.0341  0.6623
  911MOL0     C22859  10.600   1.625   1.705 -0.5207  0.0485 -0.4792
  911MOL0     C22860  10.765   1.639   1.695  0.1207 -0.1871 -0.1039
  911MOL0     C22861  10.819   1.701   1.822  0.0483  0.9851 -0.0199
  911MOL0     C22862  10.789   1.607   1.951  0.1325  0.4287  0.4239
  911MOL0     C22863  10.834   1.463   1.934  0.5015 -0.7782 -0.5466
  911MOL0     C22864  10.987   1.467   1.911 -0.2837  0.0975 -0.4063
  911MOL0     C22865  11.061   1.331   1.914  0.7199  0.2402 -0.5980
  911MOL0     C22866  11.061   1.247   2.047  0.1537 -0.0320  0.9481
  911MOL0     N22867  11.158   1.305   2.142 -0.1179  0.6542 -0.9207
  911MOL0     C22868  11.124   1.350   2.263  0.3299 -0.1229  0.1423
  911MOL0     C22869  11.253   1.393   2.303 -0.0009  0.0028 -0.5252
  911MOL0     C22870  11.280   1.465   2.432  0.1664  0.8707 -0.3081
  911MOL0     C22871  11.276   1.370   2.547 -0.2169  0.5271  0.1235
  911MOL0     C22872  11.300   1.444   2.675  0.7419  0.5134 -0.8452
  911MOL0     C22873  11.286   1.353   2.795 -0.2004  0.2362 -0.2802
  911MOL0     O22874  11.360   1.231   2.788  0.2588  0.4381  0.4598
  911MOL0     C22875  11.494   1.221   2.769  0.4527 -0.5859  1.1271
  911MOL0     C22876  11.553   1.101   2.724 -0.4712 -0.4288 -0.2353
  911MOL0     C22877  11.687   1.094   2.687  0.6362 -0.2943  0.7272
  911MOL0     C22878  11.780   1.199   2.714  0.2331  0.6875  0.2347
  911MOL0     C22879  11.923   1.178   2.708  0.2288 -0.1125  0.2709
  911MOL0     O22880  11.965   1.062   2.649 -0.4382 -0.6422 -0.2427
  911MOL0     C22881  12.097   1.022   2.647 -0.5843 -0.4887 -1.2904
  911MOL0     C22882  12.132   0.898   2.676  0.4252 -0.7123 -0.6128
  911MOL0     C22883  12.261   0.854   2.684 -1.6914  0.2608  0.0494
  911MOL0     C22884  12.365   0.943   2.648  0.1740  0.3314 -0.2280
  911MOL0     O22885  12.499   0.914   2.652  0.0632  0.0006  0.6005
  911MOL0     C22886  12.546   0.780   2.691  0.2993  0.4851 -0.6763
  911MOL0     C22887  12.689   0.774   2.643 -0.6068 -0.5179  0.5745
  911MOL0     C22888  12.770   0.900   2.681 -0.6854 -1.0109 -0.0792
  911MOL0     C22889  12.806   0.989   2.554 -0.4183 -0.3768 -0.2590
  911MOL0     C22890  12.852   1.126   2.599  0.4480  0.6895  0.0987
  911MOL0     C22891  12.997   1.138   2.661 -0.6223 -0.5529  0.0695
  911MOL0     C22892  13.012   1.271   2.745 -0.1557  0.0504 -0.4382
  911MOL0     C22893  13.167   1.269   2.790 -0.0556  0.1861  0.2411
  911MOL0    Cl22894  13.203   1.127   2.895 -0.6026 -0.3972  0.0647
  911MOL0     C22895  12.329   1.073   2.614  0.3574 -0.4109 -0.7772
  911MOL0     C22896  12.201   1.110   2.614  0.8829  0.1293 -0.1499
  911MOL0     O22897  11.998   1.265   2.753 -0.3867 -0.0224 -0.2126
  911MOL0     C22898  11.723   1.317   2.759  0.5112 -0.5087  0.4842
  911MOL0     C22899  11.587   1.329   2.785 -0.8084 -0.3555 -0.6642
  911MOL0     N22900  11.349   1.374   2.205  0.6135 -0.5701  0.5543
  911MOL0     N22901  11.282   1.315   2.107  0.1409 -0.5141 -0.5974
  911MOL0     C22902  10.305   1.566   1.665 -0.5629  0.1163  0.0809
  911MOL0     C22903  10.183   1.500   1.666  0.3676 -0.5096  0.4943
  911MOL0     C22904   9.840   1.243   1.672  0.3696 -0.2379  0.1012
  911MOL0     C22905   9.747   1.317   1.591 -0.2996 -1.1193 -1.0474
  911MOL0     C22906   9.610   1.291   1.601 -0.0577 -0.2159  0.1085
  911MOL0     C22907   9.564   1.184   1.681 -0.8382  0.0187 -0.4229
  911MOL0     O22908   9.429   1.180   1.704  0.2228  0.6171 -0.7956
  911MOL0     C22909   9.363   1.118   1.817 -0.2417  0.1198  0.1468
  911MOL0     C22910   9.335   1.225   1.928 -0.1772 -0.3467 -0.0846
  911MOL0     C22911   9.206   1.319   1.900  0.1108  0.2266  0.7174
  911MOL0     C22912   9.149   1.381   2.024  0.0983  0.0843  0.2368
  911MOL0     C22913   9.022   1.324   2.088  1.0958  0.7147 -0.3778
  911MOL0     C22914   8.925   1.272   2.135  1.0410 -0.2919 -0.3067
  911MOL0     C22915   9.654   1.106   1.741  0.5739  0.6754 -0.0118
  911MOL0     C22916   9.793   1.127   1.739  0.2504  0.2335  0.4140
  911MOL0     C22917   9.889   1.033   1.813  0.7470 -0.4754 -0.9963
  911MOL0     H22918  10.257   1.266   1.432  2.4753  2.3772 -2.5596
  911MOL0     H22919  10.463   1.389   1.426  1.4403 -1.4023  2.4058
  911MOL0     H22920  10.561   1.726   1.723 -1.9914 -0.7668  1.2117
  911MOL0     H22921  10.557   1.563   1.783 -1.8094 -0.4224 -1.5387
  911MOL0     H22922  10.790   1.700   1.607 -0.8365 -0.5337 -0.6244
  911MOL0     H22923  10.811   1.545   1.662 -1.7647 -1.3584  0.4483
  911MOL0     H22924  10.773   1.799   1.835  0.3979  1.1096  0.2912
  911MOL0     H22925  10.924   1.720   1.801  0.4867 -2.1704 -1.1903
  911MOL0     H22926  10.833   1.661   2.035 -1.2385  3.0735 -0.4500
  911MOL0     H22927  10.685   1.604   1.986 -0.1896 -1.9213 -0.5706
  911MOL0     H22928  10.804   1.409   2.024 -5.0595 -1.4481 -2.4708
  911MOL0     H22929  10.778   1.413   1.855  1.1169 -1.7418 -0.3878
  911MOL0     H22930  11.020   1.517   1.819  0.6777  1.9607  0.9010
  911MOL0     H22931  11.012   1.526   1.999 -0.5150 -1.7158  0.9516
  911MOL0     H22932  11.167   1.347   1.888  1.5835  2.8711  3.5938
  911MOL0     H22933  11.012   1.277   1.833 -0.9530  2.9319 -1.5033
  911MOL0     H22934  10.966   1.243   2.101  0.5231 -1.2510  1.5431
  911MOL0     H22935  11.092   1.144   2.026 -1.2381 -0.2794 -0.0972
  911MOL0     H22936  11.026   1.342   2.310 -1.2180 -1.9002 -3.0187
  911MOL0     H22937  11.377   1.516   2.433  0.6196  0.0478 -1.0896
  911MOL0     H22938  11.196   1.534   2.450  0.0827  1.1690 -1.6966
  911MOL0     H22939  11.179   1.320   2.551  0.4598 -0.7804  1.6960
  911MOL0     H22940  11.353   1.292   2.547 -0.2978  0.4308 -1.5436
  911MOL0     H22941  11.216   1.512   2.691 -1.0337 -1.2562 -2.1761
  911MOL0     H22942  11.391   1.505   2.676  1.7491 -0.8736  1.9795
  911MOL0     H22943  11.181   1.339   2.820 -0.5947  0.2547 -1.8345
  911MOL0     H22944  11.330   1.412   2.875 -2.2917  1.7374 -0.1717
  911MOL0     H22945  11.492   1.012   2.715 -0.2340 -0.9646  2.6468
  911MOL0     H22946  11.721   0.998   2.652  1.6138  0.3769 -0.2334
  911MOL0     H22947  12.056   0.827   2.705 -1.2445  1.6992  1.3595
  911MOL0     H22948  12.276   0.752   2.718 -0.1622  1.0106  1.8361
  911MOL0     H22949  12.550   0.774   2.800 -0.9609 -1.3027 -0.6972
  911MOL0     H22950  12.482   0.698   2.658 -1.2127  1.1299  0.5457
  911MOL0     H22951  12.729   0.684   2.690 -0.1364 -0.4831  0.2500
  911MOL0     H22952  12.675   0.760   2.535 -1.0926 -1.5616  0.7556
  911MOL0     H22953  12.712   0.967   2.746 -0.7102 -1.0986 -0.0121
  911MOL0     H22954  12.868   0.880   2.726  1.1419  1.5896 -2.5022
  911MOL0     H22955  12.719   1.002   2.489  0.1267  0.9876 -0.7678
  911MOL0     H22956  12.884   0.939   2.495 -0.0564  0.1878 -0.2696
  911MOL0     H22957  12.774   1.153   2.671 -1.6591 -1.4897 -1.2268
  911MOL0     H22958  12.836   1.204   2.524 -1.8634 -0.2570 -0.4523
  911MOL0     H22959  13.023   1.048   2.718  0.6986 -0.3242 -0.1272
  911MOL0     H22960  13.069   1.137   2.579  1.3534 -0.2410  1.7135
  911MOL0     H22961  12.945   1.272   2.832 -0.8281 -1.1458 -0.9242
  911MOL0     H22962  12.990   1.352   2.675 -3.1780 -2.6798 -2.9761
  911MOL0     H22963  13.245   1.266   2.713  3.2414 -0.8522  3.3394
  911MOL0     H22964  13.182   1.359   2.850 -2.3252 -1.8709  4.3047
  911MOL0     H22965  12.404   1.140   2.574 -2.7942  3.6673 -0.5476
  911MOL0     H22966  12.166   1.200   2.565  0.1805 -1.4540 -2.7651
  911MOL0     H22967  11.787   1.402   2.780 -2.4644  1.9043  0.4863
  911MOL0     H22968  11.535   1.415   2.825  0.6814 -1.6211  4.7201
  911MOL0     H22969  10.333   1.641   1.738 -0.0852  0.8516 -0.8419
  911MOL0     H22970  10.107   1.520   1.741  0.5442 -0.2741  0.6086
  911MOL0     H22971   9.784   1.397   1.529 -2.4507  0.0276 -0.9346
  911MOL0     H22972   9.554   1.373   1.557 -1.8106  0.6187  3.5373
  911MOL0     H22973   9.422   1.035   1.859  0.9755  0.8616 -0.0372
  911MOL0     H22974   9.278   1.074   1.764  0.8271  0.4232 -1.9680
  911MOL0     H22975   9.425   1.286   1.947  0.1436 -1.1147  0.9631
  911MOL0     H22976   9.299   1.170   2.015 -4.0764  0.0863 -1.2651
  911MOL0     H22977   9.134   1.271   1.833  1.0902 -0.7259  0.3152
  911MOL0     H22978   9.246   1.404   1.844  0.1617 -0.0390  0.3456
  911MOL0     H22979   9.229   1.398   2.097 -1.4863 -0.2266  2.1420
  911MOL0     H22980   9.117   1.481   1.997  1.0639 -0.1851 -2.0839
  911MOL0     H22981   8.836   1.228   2.176 -0.1750  2.2957  0.0213
  911MOL0     H22982   9.621   1.017   1.794 -2.3474  1.7682  0.1997
  911MOL0     H22983   9.930   1.069   1.908  1.9566 -2.0350 -0.8774
  911MOL0     H22984   9.847   0.935   1.835  2.1386 -0.7724  0.5222
  911MOL0     H22985   9.975   1.023   1.745  0.3629  1.1605 -1.7844
  912MOL0     O22986   5.703   3.926   1.721  1.0866 -0.0577 -1.1279
  912MOL0     C22987   5.712   3.991   1.827 -0.1451 -0.7548  0.5696
  912MOL0     O22988   5.802   4.086   1.848  0.4770  0.5701  0.0068
  912MOL0     C22989   5.895   4.112   1.750 -0.5228 -1.1503 -0.1608
  912MOL0     C22990   6.015   4.165   1.799 -0.8998 -0.5154  0.8473
  912MOL0     C22991   6.111   4.227   1.712  0.6503 -0.2260  1.0026
  912MOL0     C22992   6.086   4.236   1.580 -0.1822  0.2809  0.3216
  912MOL0     O22993   6.188   4.307   1.510  0.6914 -0.6434  0.0254
  912MOL0     C22994   6.162   4.345   1.377 -0.2657 -0.7273  0.3031
  912MOL0     C22995   6.297   4.367   1.310  0.1664 -0.5332 -0.0402
  912MOL0     C22996   6.366   4.493   1.374 -0.1289 -0.2727 -0.8236
  912MOL0     C22997   6.313   4.624   1.307  0.1929 -0.1881  0.1532
  912MOL0     C22998   6.335   4.735   1.397 -0.5049  0.3597 -0.0430
  912MOL0     C22999   6.287   4.869   1.326  0.0071 -0.6800 -0.7024
  912MOL0     C23000   6.328   4.987   1.411  0.0084 -0.6185  0.4450
  912MOL0     C23001   6.275   5.133   1.365 -0.2980  0.9105 -0.3841
  912MOL0     N23002   6.336   5.175   1.241 -0.0403  0.5813 -0.3014
  912MOL0     C23003   6.453   5.240   1.231 -0.2907  0.0427  0.2372
  912MOL0     C23004   6.466   5.281   1.105 -0.1505 -0.4439  0.2188
  912MOL0     C23005   6.584   5.360   1.046 -0.2485  0.0279 -0.0429
  912MOL0     C23006   6.646   5.292   0.919 -1.1723 -1.3313  0.3244
  912MOL0     C23007   6.749   5.369   0.840 -0.4870  0.0898 -0.7099
  912MOL0     C23008   6.873   5.408   0.925 -0.4006  0.0130  0.5365
  912MOL0     O23009   6.938   5.285   0.969  0.1519  0.2551  0.0661
  912MOL0     C23010   7.062   5.265   0.923 -0.0393 -0.5112  0.9285
  912MOL0     C23011   7.178   5.302   0.992  0.2233 -0.3466 -0.4322
  912MOL0     C23012   7.305   5.271   0.944  0.3955  0.3155  0.2203
  912MOL0     C23013   7.319   5.193   0.830 -0.8447 -0.6017  0.0456
  912MOL0     C23014   7.451   5.158   0.786  0.0489  0.0847  0.8673
  912MOL0     O23015   7.565   5.224   0.827  0.0550 -0.0488 -0.3493
  912MOL0     C23016   7.676   5.174   0.775 -0.4491  0.0314 -0.1713
  912MOL0     C23017   7.733   5.058   0.828 -0.1160  0.1650 -0.7332
  912MOL0     C23018   7.864   5.030   0.789  0.1418  0.8674  0.1688
  912MOL0     C23019   7.923   5.095   0.684  0.6688 -0.2079  0.1587
  912MOL0     O23020   8.048   5.068   0.638 -0.2180  0.4882  0.3529
  912MOL0     C23021   8.116   4.940   0.649 -0.3913  0.1832  0.1509
  912MOL0     C23022   8.231   4.923   0.755 -0.5290  0.1472  0.0352
  912MOL0     C23023   8.367   4.991   0.724  0.0464  0.1232  0.0114
  912MOL0     C23024   8.388   5.134   0.692  0.2134 -1.3570  0.3630
  912MOL0     C23025   8.525   5.167   0.630 -0.0818  0.3595 -0.0576
  912MOL0     C23026   8.627   5.171   0.746  0.0760  0.0078 -0.5325
  912MOL0     C23027   8.761   5.196   0.685  0.3778 -0.3837  0.0289
  912MOL0     C23028   8.866   5.230   0.790  0.3168 -0.4745 -0.4897
  912MOL0    Cl23029   9.029   5.261   0.719 -0.1108 -0.1381  0.4673
  912MOL0     C23030   7.853   5.208   0.632 -0.3110  0.3908  0.9128
  912MOL0     C23031   7.732   5.255   0.676 -1.4778  0.0924  0.2294
  912MOL0     O23032   7.448   5.054   0.712 -0.4108 -0.1502  0.8609
  912MOL0     C23033   7.201   5.155   0.766  0.2475 -0.0865 -0.0575
  912MOL0     C23034   7.075   5.187   0.814 -0.4426  0.1915  0.2625
  912MOL0     N23035   6.342   5.246   1.037 -0.8654  0.0778 -0.5491
  912MOL0     N23036   6.277   5.180   1.119  1.0058  0.2806  1.2783
  912MOL0     C23037   5.965   4.179   1.531 -0.1689  0.6539  0.2685
  912MOL0     C23038   5.874   4.118   1.607 -0.5308  0.0965 -0.2044
  912MOL0     C23039   5.624   3.960   1.933  0.2018 -0.2747 -0.1791
  912MOL0     C23040   5.483   3.980   1.914 -0.7359  0.3523  0.2460
  912MOL0     C23041   5.399   3.937   2.016  0.3794  0.0985 -0.0355
  912MOL0     C23042   5.445   3.884   2.137  0.2633  0.2861  0.0996
  912MOL0     O23043   5.371   3.860   2.252  0.4394 -0.0098  0.6931
  912MOL0     C23044   5.225   3.895   2.243  0.2120  0.0632  0.5273
  912MOL0     C23045   5.152   3.769   2.182 -0.7931  0.6526  0.0010
  912MOL0     C23046   5.009   3.809   2.159 -0.1490  0.3528 -0.1914
  912MOL0     C23047   4.929   3.720   2.057 -0.5518  1.0122  0.2916
  912MOL0     C23048   4.905   3.590   2.125  0.0223 -1.0084 -0.4524
  912MOL0     C23049   4.861   3.490   2.177 -0.0109 -0.6879  0.2830
  912MOL0     C23050   5.582   3.879   2.162 -0.1885 -0.6742  0.1042
  912MOL0     C23051   5.674   3.918   2.060  0.1398  0.4513  0.0130
  912MOL0     C23052   5.821   3.914   2.092  0.0519 -0.3837 -0.4891
  912MOL0     H23053   6.031   4.171   1.906  0.8740 -1.7501  0.6964
  912MOL0     H23054   6.199   4.271   1.758 -0.9506  1.5527  2.4569
  912MOL0     H23055   6.121   4.264   1.315 -3.4808  2.7637 -2.5824
  912MOL0     H23056   6.095   4.431   1.366 -0.5093 -0.8114  1.0909
  912MOL0     H23057   6.287   4.380   1.202  1.9625 -0.7234 -0.2518
  912MOL0     H23058   6.360   4.278   1.314  2.1995  0.7444 -1.6083
  912MOL0     H23059   6.475   4.494   1.359  0.0397  2.7057 -0.0960
  912MOL0     H23060   6.351   4.504   1.481 -2.0545  0.6805 -1.1626
  912MOL0     H23061   6.364   4.630   1.210 -1.2541 -0.4530 -0.6727
  912MOL0     H23062   6.205   4.610   1.290  0.6631 -2.1263 -1.7450
  912MOL0     H23063   6.268   4.721   1.483 -0.4762 -4.1780 -0.4977
  912MOL0     H23064   6.439   4.743   1.430  0.9185 -0.2732 -3.8761
  912MOL0     H23065   6.339   4.891   1.232 -0.4210  2.2794 -0.3455
  912MOL0     H23066   6.178   4.871   1.314 -0.1550  0.0626  0.6836
  912MOL0     H23067   6.435   5.006   1.425  0.7616 -1.6694 -3.0423
  912MOL0     H23068   6.282   4.970   1.509 -1.1446  0.6487  0.1601
  912MOL0     H23069   6.167   5.118   1.360 -0.0336 -1.4674  0.0246
  912MOL0     H23070   6.298   5.201   1.447  0.9589  1.2710 -1.0120
  912MOL0     H23071   6.527   5.255   1.310  2.9042  2.2671 -2.8533
  912MOL0     H23072   6.546   5.461   1.030  0.4497  0.4337  0.7944
  912MOL0     H23073   6.655   5.370   1.129 -0.5677 -0.0777  0.2442
  912MOL0     H23074   6.697   5.203   0.959  1.0192  0.9269  2.9423
  912MOL0     H23075   6.566   5.262   0.850  1.3547  0.2466 -3.6330
  912MOL0     H23076   6.700   5.458   0.800 -0.7730 -1.0113 -2.9351
  912MOL0     H23077   6.777   5.315   0.750 -1.4496  0.7517 -1.4344
  912MOL0     H23078   6.836   5.475   1.003  0.8544  2.1200 -0.5925
  912MOL0     H23079   6.940   5.463   0.858 -2.1845 -1.1520 -2.3785
  912MOL0     H23080   7.160   5.353   1.086  2.5155 -1.6540  0.8173
  912MOL0     H23081   7.389   5.304   1.004  0.8989  2.9254 -1.7519
  912MOL0     H23082   7.691   5.002   0.911  1.2501  2.4963  1.6572
  912MOL0     H23083   7.886   4.937   0.842 -0.1977 -0.0965 -1.3367
  912MOL0     H23084   8.042   4.860   0.663 -1.2633  0.8002 -0.7614
  912MOL0     H23085   8.156   4.933   0.548 -2.2392 -1.7591 -0.5104
  912MOL0     H23086   8.204   4.964   0.853 -1.8979  1.0985 -0.7017
  912MOL0     H23087   8.242   4.815   0.768 -1.7043  0.1974  1.6556
  912MOL0     H23088   8.432   4.964   0.808  1.0689 -1.1256 -1.1348
  912MOL0     H23089   8.407   4.945   0.633  1.6220  0.4246  0.5189
  912MOL0     H23090   8.378   5.191   0.784  1.4007 -3.1805  1.6927
  912MOL0     H23091   8.306   5.147   0.620  0.0920 -1.6369  0.4494
  912MOL0     H23092   8.522   5.266   0.584 -2.5734  2.2042  3.5292
  912MOL0     H23093   8.547   5.103   0.545 -0.2828  1.8656 -1.2980
  912MOL0     H23094   8.611   5.257   0.811 -1.2830  0.0597 -0.9085
  912MOL0     H23095   8.623   5.077   0.802 -0.5630 -1.4829 -2.9069
  912MOL0     H23096   8.741   5.285   0.623 -2.4920  0.1830  1.5808
  912MOL0     H23097   8.775   5.108   0.621 -2.3811  1.1599 -3.0668
  912MOL0     H23098   8.829   5.319   0.841 -0.1512 -0.8259 -0.2118
  912MOL0     H23099   8.858   5.149   0.863 -0.2779 -1.4399 -1.6013
  912MOL0     H23100   7.905   5.250   0.546  0.7435 -0.7290  0.9719
  912MOL0     H23101   7.687   5.343   0.632 -0.6005 -0.5889 -2.1722
  912MOL0     H23102   7.200   5.097   0.674  0.9563 -1.7663  0.9576
  912MOL0     H23103   6.987   5.163   0.755 -3.3324 -0.6533  4.4760
  912MOL0     H23104   5.930   4.178   1.428 -0.0931 -1.2080  0.2121
  912MOL0     H23105   5.777   4.106   1.559 -0.7649 -2.3999  0.7463
  912MOL0     H23106   5.435   4.013   1.823 -0.7399  1.0899  0.5123
  912MOL0     H23107   5.292   3.954   2.010  0.2570 -1.0846 -2.4308
  912MOL0     H23108   5.218   3.992   2.193  3.6302  0.7589  1.1871
  912MOL0     H23109   5.196   3.916   2.346  2.7343 -0.3688  1.3885
  912MOL0     H23110   5.158   3.684   2.250 -0.4916 -1.3068 -2.3142
  912MOL0     H23111   5.190   3.740   2.083 -1.0099  1.7869 -0.4270
  912MOL0     H23112   5.017   3.913   2.126 -0.8356  0.0746 -1.3119
  912MOL0     H23113   4.945   3.799   2.247  0.2867 -1.0323 -0.0166
  912MOL0     H23114   4.833   3.760   2.025 -0.4552 -0.0495 -1.3941
  912MOL0     H23115   4.988   3.714   1.965  1.9105  2.4347  1.6535
  912MOL0     H23116   4.822   3.423   2.251 -2.0549  1.2626  1.1047
  912MOL0     H23117   5.614   3.851   2.262 -1.2600 -2.6831 -0.0829
  912MOL0     H23118   5.888   3.929   2.007 -0.9570 -1.3654 -1.5045
  912MOL0     H23119   5.823   3.990   2.171  2.3377 -0.2745 -0.6011
  912MOL0     H23120   5.858   3.826   2.145  1.0467  2.5680  4.3624
  913MOL0     O23121   8.797   7.819   0.415  0.0516 -0.3814  0.1807
  913MOL0     C23122   8.726   7.723   0.393  0.6689  0.0138 -1.0048
  913MOL0     O23123   8.775   7.608   0.330 -0.0423  0.6848  0.0519
  913MOL0     C23124   8.858   7.626   0.209  0.3134  0.1109  0.4683
  913MOL0     C23125   8.870   7.751   0.145 -0.3778  0.6382  1.3815
  913MOL0     C23126   8.942   7.779   0.023  0.1472 -0.1522 -0.3652
  913MOL0     C23127   9.011   7.671  -0.034 -0.4215  1.5627 -0.3881
  913MOL0     O23128   9.071   7.664  -0.156  0.1466 -0.2828  0.2931
  913MOL0     C23129   9.134   7.793  -0.193  0.1182  1.2246 -0.0397
  913MOL0     C23130   9.219   7.771  -0.320 -1.1514  0.3472 -0.3634
  913MOL0     C23131   9.328   7.666  -0.293  0.1395  0.1162 -0.8328
  913MOL0     C23132   9.405   7.622  -0.416 -0.2588 -0.1884 -0.5162
  913MOL0     C23133   9.533   7.539  -0.388 -0.7541  0.2478  0.3583
  913MOL0     C23134   9.629   7.551  -0.509 -0.2069 -0.1542 -0.7014
  913MOL0     C23135   9.763   7.491  -0.482  0.1852  1.0347 -0.2431
  913MOL0     C23136   9.869   7.600  -0.443  0.2291  0.5316  0.5963
  913MOL0     N23137   9.843   7.653  -0.311 -0.1969  0.0205 -0.5436
  913MOL0     C23138   9.853   7.581  -0.200 -0.9605 -0.0688  0.7588
  913MOL0     C23139   9.808   7.660  -0.102 -1.3816  0.3295  0.1849
  913MOL0     C23140   9.794   7.630   0.050  0.2342  0.7994  0.0552
  913MOL0     C23141   9.926   7.626   0.127  0.4155 -0.3449 -0.5275
  913MOL0     C23142  10.033   7.732   0.071 -0.5996 -0.4299  0.4690
  913MOL0     C23143  10.131   7.758   0.186  0.6286 -0.0505  0.0086
  913MOL0     O23144  10.218   7.640   0.208  0.0046 -0.0692 -0.2928
  913MOL0     C23145  10.343   7.674   0.242 -0.5194 -0.1309 -0.2153
  913MOL0     C23146  10.436   7.670   0.137  0.3975 -0.5815 -0.2497
  913MOL0     C23147  10.571   7.702   0.161 -0.2197  0.7495  0.1122
  913MOL0     C23148  10.616   7.728   0.293  1.2368  0.7075 -0.0613
  913MOL0     C23149  10.751   7.736   0.320 -1.3466  0.7573  0.8911
  913MOL0     O23150  10.786   7.780   0.439 -0.5648  0.0724 -0.0309
  913MOL0     C23151  10.920   7.807   0.464  0.8533 -0.1430  0.5339
  913MOL0     C23152  10.939   7.932   0.526  0.2729  0.8237  0.2235
  913MOL0     C23153  11.057   7.985   0.550  0.3242 -0.2884 -1.1236
  913MOL0     C23154  11.174   7.899   0.540 -0.4833 -1.3374  1.2655
  913MOL0     O23155  11.302   7.940   0.565 -0.6063 -0.1631  0.0951
  913MOL0     C23156  11.321   8.049   0.651 -1.0203  0.6831  0.5863
  913MOL0     C23157  11.470   8.086   0.662  0.1561 -0.1741 -0.3671
  913MOL0     C23158  11.567   7.963   0.684  0.3778  0.1373 -0.4608
  913MOL0     C23159  11.686   7.965   0.587  0.2138  0.1073  0.1050
  913MOL0     C23160  11.784   7.848   0.615  1.0475 -1.0130 -0.1230
  913MOL0     C23161  11.713   7.706   0.621  0.6989  0.5940 -0.6410
  913MOL0     C23162  11.816   7.588   0.642 -0.8295  0.6548  0.3191
  913MOL0     C23163  11.758   7.449   0.652  0.3420  0.3676  1.1784
  913MOL0    Cl23164  11.669   7.412   0.499 -0.2922  0.0839  0.4363
  913MOL0     C23165  11.152   7.762   0.501 -0.3450  0.0610  0.3873
  913MOL0     C23166  11.022   7.718   0.455 -0.5508  0.5430 -0.1123
  913MOL0     O23167  10.835   7.706   0.231  0.2524 -0.7192  0.4761
  913MOL0     C23168  10.525   7.724   0.400  0.4578 -0.4919  0.5494
  913MOL0     C23169  10.389   7.696   0.372  0.3951  0.4732 -1.1307
  913MOL0     N23170   9.776   7.784  -0.158 -0.7488  0.3965  0.2177
  913MOL0     N23171   9.805   7.788  -0.280  0.4511  0.1276 -0.3008
  913MOL0     C23172   9.007   7.546   0.031  0.0379  0.4278  1.2517
  913MOL0     C23173   8.926   7.521   0.145  0.2891 -0.6159 -0.0954
  913MOL0     C23174   8.584   7.714   0.440  0.0925 -0.4968  0.6356
  913MOL0     C23175   8.515   7.597   0.428  0.8367  0.2115  0.5753
  913MOL0     C23176   8.376   7.578   0.464 -0.2506  0.7942 -0.8774
  913MOL0     C23177   8.309   7.686   0.513 -0.1499 -0.9359  1.1532
  913MOL0     O23178   8.175   7.691   0.549 -0.0853 -1.0125  0.4816
  913MOL0     C23179   8.095   7.577   0.531 -0.3642 -0.1625  0.3755
  913MOL0     C23180   7.957   7.608   0.577  0.6429 -0.3015 -0.1392
  913MOL0     C23181   7.939   7.619   0.735 -0.3797  0.2290 -0.6243
  913MOL0     C23182   7.790   7.607   0.776  0.2058  0.2171  0.0972
  913MOL0     C23183   7.707   7.694   0.691 -0.5572 -0.2373 -0.2459
  913MOL0     C23184   7.638   7.770   0.630 -0.8535 -0.4372 -0.6706
  913MOL0     C23185   8.386   7.804   0.541  0.1220  0.0506  0.1369
  913MOL0     C23186   8.521   7.819   0.504 -0.1124  0.1328 -0.9132
  913MOL0     C23187   8.583   7.953   0.532 -0.9024  0.5029 -0.3340
  913MOL0     H23188   8.819   7.840   0.181 -0.9158 -0.7538  4.4516
  913MOL0     H23189   8.936   7.877  -0.022  2.4722 -0.3564 -1.2634
  913MOL0     H23190   9.056   7.869  -0.210  1.6066  2.3482 -2.3310
  913MOL0     H23191   9.203   7.833  -0.119  0.8918  0.1991 -0.1760
  913MOL0     H23192   9.254   7.863  -0.366  0.7885 -0.2260 -0.1305
  913MOL0     H23193   9.154   7.716  -0.388 -0.1973 -0.8170 -0.3779
  913MOL0     H23194   9.277   7.575  -0.261 -0.3356 -0.2416 -2.4821
  913MOL0     H23195   9.409   7.700  -0.228 -2.4293 -0.4016  2.9333
  913MOL0     H23196   9.339   7.559  -0.476  0.7268 -2.5357  0.7320
  913MOL0     H23197   9.429   7.713  -0.471 -1.3888 -0.5688 -1.6778
  913MOL0     H23198   9.572   7.575  -0.293  0.3443  0.5807 -0.1966
  913MOL0     H23199   9.510   7.434  -0.366  0.5425  0.0620  0.8675
  913MOL0     H23200   9.581   7.500  -0.593  0.6571 -2.6997  0.2463
  913MOL0     H23201   9.638   7.659  -0.525 -2.6743  0.3136  0.5625
  913MOL0     H23202   9.799   7.438  -0.571  1.3956 -2.4078  2.0822
  913MOL0     H23203   9.752   7.412  -0.406 -0.9864 -0.6353 -2.0571
  913MOL0     H23204   9.970   7.557  -0.445 -1.1945 -3.2772  1.9080
  913MOL0     H23205   9.861   7.684  -0.513  0.0554  1.5009  1.7380
  913MOL0     H23206   9.887   7.479  -0.202  1.4725  0.6969 -0.6259
  913MOL0     H23207   9.744   7.713   0.102  0.4741  0.1415  1.3930
  913MOL0     H23208   9.732   7.541   0.062 -0.8891  1.6613  0.9683
  913MOL0     H23209   9.904   7.649   0.231  3.4204  1.9286 -0.2486
  913MOL0     H23210   9.951   7.520   0.116 -1.0211 -0.4991 -3.5647
  913MOL0     H23211   9.990   7.829   0.041  1.5085  1.4724  3.1292
  913MOL0     H23212  10.090   7.693  -0.014  1.2422  0.6892  1.1381
  913MOL0     H23213  10.089   7.786   0.283 -2.6883 -1.6659 -0.8219
  913MOL0     H23214  10.192   7.844   0.157 -1.5892  2.4045  2.1350
  913MOL0     H23215  10.414   7.641   0.034 -2.4832  1.2533 -0.2615
  913MOL0     H23216  10.633   7.699   0.072  2.0920  0.7990  1.6184
  913MOL0     H23217  10.856   7.995   0.555 -1.6416 -0.9797 -1.0092
  913MOL0     H23218  11.062   8.085   0.592  1.4614  0.2024 -2.3504
  913MOL0     H23219  11.281   8.144   0.615  2.3487  1.8449 -0.4764
  913MOL0     H23220  11.286   8.021   0.751 -1.9888  1.2288  0.4039
  913MOL0     H23221  11.506   8.149   0.580  1.3482 -1.2788 -0.7411
  913MOL0     H23222  11.464   8.149   0.751 -2.3991 -0.4006 -0.2852
  913MOL0     H23223  11.600   7.976   0.788 -2.6869  0.9262  0.5163
  913MOL0     H23224  11.502   7.876   0.666 -2.1760  1.1790  2.6528
  913MOL0     H23225  11.733   8.064   0.593 -2.0851  1.4645 -2.2462
  913MOL0     H23226  11.647   7.951   0.486  2.2926 -3.5607 -0.3841
  913MOL0     H23227  11.824   7.866   0.715  1.0327  1.3852 -0.4957
  913MOL0     H23228  11.861   7.840   0.538  0.9385 -0.4764 -0.2908
  913MOL0     H23229  11.651   7.714   0.710  0.5108 -0.1559 -0.6963
  913MOL0     H23230  11.653   7.694   0.530 -3.2959  2.5650  1.4785
  913MOL0     H23231  11.878   7.605   0.730 -0.3572 -1.8966  0.5516
  913MOL0     H23232  11.876   7.583   0.550  1.8914  0.2020  1.9995
  913MOL0     H23233  11.826   7.363   0.656  1.2784  0.7668 -2.6782
  913MOL0     H23234  11.698   7.441   0.743  0.0179  2.0243  1.1375
  913MOL0     H23235  11.238   7.698   0.491  0.4511  1.2091 -0.4238
  913MOL0     H23236  10.992   7.618   0.427 -1.5833  0.7935  0.0494
  913MOL0     H23237  10.565   7.734   0.501 -0.4724  0.0671  0.8754
  913MOL0     H23238  10.331   7.689   0.464  1.0523 -0.2362 -0.7573
  913MOL0     H23239   9.066   7.470  -0.021  1.3657  0.8562  2.0695
  913MOL0     H23240   8.919   7.422   0.191 -0.1964  0.0771  1.3953
  913MOL0     H23241   8.555   7.518   0.366  0.6949  0.0135  0.7331
  913MOL0     H23242   8.322   7.486   0.444 -0.0213  0.0156  1.7349
  913MOL0     H23243   8.138   7.491   0.583  0.9919 -0.5856 -1.3567
  913MOL0     H23244   8.095   7.557   0.424 -2.4285  2.5824 -0.2532
  913MOL0     H23245   7.895   7.536   0.524  1.7416 -0.7826 -0.7969
  913MOL0     H23246   7.917   7.704   0.544 -1.6389  0.1197  3.3824
  913MOL0     H23247   7.989   7.707   0.776  2.2084 -0.4189 -2.1946
  913MOL0     H23248   7.998   7.536   0.772 -2.7481 -0.7679  1.1458
  913MOL0     H23249   7.768   7.501   0.769  3.8783 -0.7088  0.3282
  913MOL0     H23250   7.774   7.634   0.881 -0.8347 -2.3117  0.6518
  913MOL0     H23251   7.591   7.855   0.586 -0.7112 -0.3617 -0.6779
  913MOL0     H23252   8.343   7.892   0.587  1.3082  0.1865  1.0425
  913MOL0     H23253   8.619   7.998   0.439  0.9985  0.0850  0.1471
  913MOL0     H23254   8.526   8.028   0.588 -0.9208 -0.4094  0.9317
  913MOL0     H23255   8.670   7.948   0.599 -2.2634 -0.4029  1.4575
  914MOL0     O23256   4.051   8.791   3.712  0.7810  0.3151  0.3159
  914MOL0     C23257   4.057   8.884   3.630 -0.0720 -0.8063 -0.9104
  914MOL0     O23258   4.143   8.886   3.524 -0.2256 -0.1292 -0.3953
  914MOL0     C23259   4.234   8.786   3.524 -0.6137 -0.1682 -0.6448
  914MOL0     C23260   4.366   8.808   3.553 -0.7333 -0.1763 -0.6796
  914MOL0     C23261   4.460   8.712   3.529 -0.0733 -0.0394  0.6755
  914MOL0     C23262   4.430   8.584   3.479 -0.3334 -1.1437 -0.6615
  914MOL0     O23263   4.534   8.498   3.460  0.0679 -0.3488  0.1850
  914MOL0     C23264   4.497   8.380   3.385 -1.6194 -0.2324  0.5051
  914MOL0     C23265   4.614   8.285   3.400 -1.3800 -0.5842  0.4556
  914MOL0     C23266   4.750   8.331   3.338 -0.3366  0.1561  0.2590
  914MOL0     C23267   4.859   8.240   3.391  0.2116 -0.1763 -0.2032
  914MOL0     C23268   4.994   8.282   3.355  0.6175  0.6180 -0.3490
  914MOL0     C23269   5.106   8.204   3.430 -0.1213  0.5443  0.2491
  914MOL0     C23270   5.126   8.067   3.359  0.1465  0.2233  0.7798
  914MOL0     C23271   5.261   8.003   3.382 -0.2690  0.0056 -0.7630
  914MOL0     N23272   5.380   8.078   3.338  0.0927  0.5637  0.7222
  914MOL0     C23273   5.453   8.154   3.416 -0.2353  0.6560 -0.0490
  914MOL0     C23274   5.544   8.201   3.328 -0.4973  0.4756  0.5890
  914MOL0     C23275   5.644   8.310   3.355  0.4295 -0.1287 -0.5023
  914MOL0     C23276   5.737   8.288   3.477 -0.0451  0.3493 -0.3527
  914MOL0     C23277   5.832   8.167   3.460  0.3399  0.4205  0.1866
  914MOL0     C23278   5.929   8.146   3.574  0.2959 -0.0920 -0.7309
  914MOL0     O23279   6.031   8.061   3.538  0.1916 -0.2524  0.3309
  914MOL0     C23280   6.149   8.114   3.479  0.3988 -0.2815  0.2518
  914MOL0     C23281   6.243   8.016   3.446  0.1653 -1.0776 -0.9613
  914MOL0     C23282   6.352   8.045   3.365 -0.4331 -0.4431 -0.1515
  914MOL0     C23283   6.361   8.171   3.314 -0.6435 -0.3751 -0.0125
  914MOL0     C23284   6.471   8.213   3.218 -0.4270 -0.2578  0.0991
  914MOL0     O23285   6.551   8.118   3.149 -0.2141 -0.8073 -0.1395
  914MOL0     C23286   6.680   8.154   3.093 -0.3556 -0.3310 -0.4543
  914MOL0     C23287   6.720   8.059   3.006 -1.2917  0.4997  0.2127
  914MOL0     C23288   6.846   8.063   2.941  0.2902  0.3286 -0.2777
  914MOL0     C23289   6.923   8.171   2.949 -0.7696 -0.2865 -0.2978
  914MOL0     O23290   7.039   8.189   2.879 -0.2989 -0.0177 -0.2700
  914MOL0     C23291   7.115   8.082   2.822  0.7637 -0.7970  0.2135
  914MOL0     C23292   7.248   8.137   2.768  0.0677 -0.0831  0.2834
  914MOL0     C23293   7.343   8.020   2.717  0.3280  0.1957 -0.2571
  914MOL0     C23294   7.486   8.041   2.758  0.4582  0.1179 -0.7178
  914MOL0     C23295   7.577   7.954   2.680 -0.3745  0.0017  0.7313
  914MOL0     C23296   7.709   8.022   2.639  0.5766  0.4370  0.4896
  914MOL0     C23297   7.703   8.132   2.530 -0.1164  0.1816  0.0357
  914MOL0     C23298   7.631   8.096   2.394 -0.0876  0.0695 -0.1750
  914MOL0    Cl23299   7.698   8.202   2.261  0.0987  0.0100  0.0278
  914MOL0     C23300   6.886   8.275   3.041  1.0414 -0.0407 -0.4691
  914MOL0     C23301   6.762   8.265   3.115  0.1851 -0.7409 -0.5609
  914MOL0     O23302   6.489   8.331   3.207 -0.4474  0.2457  0.7654
  914MOL0     C23303   6.274   8.267   3.351  0.0550  0.5324  0.1159
  914MOL0     C23304   6.160   8.237   3.429  0.1373  0.2238 -0.8417
  914MOL0     N23305   5.529   8.143   3.200 -0.1812  0.7200 -0.0701
  914MOL0     N23306   5.422   8.068   3.212 -0.2661  0.4351  0.2465
  914MOL0     C23307   4.292   8.564   3.458  0.1440  0.0062  0.1300
  914MOL0     C23308   4.198   8.663   3.480 -0.3689  0.4811 -0.3342
  914MOL0     C23309   3.963   8.998   3.645  0.2239  0.8692  0.6988
  914MOL0     C23310   3.903   9.000   3.773 -0.6312  0.3827 -0.0305
  914MOL0     C23311   3.805   9.085   3.811 -0.2228 -0.5969  1.0158
  914MOL0     C23312   3.760   9.181   3.714  0.6782  0.5275 -0.5690
  914MOL0     O23313   3.660   9.275   3.731  0.5933  0.0790 -0.1858
  914MOL0     C23314   3.585   9.287   3.849  0.2985 -0.5164  0.6200
  914MOL0     C23315   3.449   9.204   3.841 -0.4255  0.2294 -0.1872
  914MOL0     C23316   3.373   9.239   3.716  0.0368  0.3487 -0.2393
  914MOL0     C23317   3.227   9.205   3.741  0.4189 -0.2104 -0.3122
  914MOL0     C23318   3.147   9.240   3.629  0.2995 -1.0448 -0.2798
  914MOL0     C23319   3.100   9.257   3.516 -0.9714 -0.3266  1.2107
  914MOL0     C23320   3.810   9.171   3.589 -0.1248 -0.6674  0.2105
  914MOL0     C23321   3.916   9.087   3.545  0.2877  0.2844 -0.0183
  914MOL0     C23322   3.961   9.086   3.401 -0.1149  0.4611  0.3985
  914MOL0     H23323   4.397   8.907   3.585 -0.7171  0.2867 -2.0809
  914MOL0     H23324   4.564   8.736   3.544 -0.6024  1.9089  1.6301
  914MOL0     H23325   4.402   8.341   3.421 -2.2801  1.1079  0.2647
  914MOL0     H23326   4.507   8.416   3.282  1.7299  1.8430  1.3706
  914MOL0     H23327   4.587   8.184   3.367 -4.0079  0.2746 -0.2821
  914MOL0     H23328   4.614   8.278   3.509  0.8541  1.5608  0.6662
  914MOL0     H23329   4.779   8.433   3.368  3.5787 -0.0019 -2.2488
  914MOL0     H23330   4.741   8.342   3.230  1.8530 -0.5055 -0.0487
  914MOL0     H23331   4.851   8.255   3.499  0.6751  0.6675 -0.2787
  914MOL0     H23332   4.843   8.134   3.372  1.9821 -0.3793 -0.6658
  914MOL0     H23333   5.014   8.295   3.248  0.6444  0.1830 -0.4004
  914MOL0     H23334   5.012   8.384   3.388  1.0404  0.8921 -1.3817
  914MOL0     H23335   5.195   8.266   3.439  0.0097  0.3353  0.4071
  914MOL0     H23336   5.079   8.183   3.534 -0.4998 -5.1350 -0.6610
  914MOL0     H23337   5.116   8.092   3.253 -1.1285 -2.1065  0.2902
  914MOL0     H23338   5.051   8.000   3.402  1.5297 -1.3953  0.7791
  914MOL0     H23339   5.277   7.990   3.489 -1.5416  4.5364  0.2242
  914MOL0     H23340   5.275   7.911   3.325  0.0197  1.4357 -3.1421
  914MOL0     H23341   5.450   8.160   3.524 -0.2005 -2.5720  0.2259
  914MOL0     H23342   5.701   8.325   3.263 -2.1297 -2.2485 -2.5672
  914MOL0     H23343   5.591   8.403   3.375  0.1138 -0.7478  1.8255
  914MOL0     H23344   5.786   8.385   3.488 -0.8928  0.6047  1.6078
  914MOL0     H23345   5.674   8.264   3.563 -0.0431  0.6540 -0.2662
  914MOL0     H23346   5.880   8.173   3.362 -1.3038 -2.0241 -0.8522
  914MOL0     H23347   5.774   8.075   3.455  0.7400  0.1086  1.1091
  914MOL0     H23348   5.870   8.105   3.656 -0.0704  1.0813 -0.3787
  914MOL0     H23349   5.964   8.246   3.603 -0.9359 -0.0056  0.5736
  914MOL0     H23350   6.223   7.913   3.474 -1.2138 -0.3607  0.8757
  914MOL0     H23351   6.419   7.967   3.331  0.3873  1.2279 -2.6729
  914MOL0     H23352   6.654   7.972   2.998 -1.9011  0.6906  2.4984
  914MOL0     H23353   6.872   7.984   2.871 -0.0422 -2.0052  2.0740
  914MOL0     H23354   7.134   8.009   2.901  2.4015  0.3860  1.0012
  914MOL0     H23355   7.062   8.028   2.744  0.4449 -2.4702  1.5239
  914MOL0     H23356   7.221   8.210   2.691  1.6524  3.7335  3.0829
  914MOL0     H23357   7.293   8.197   2.847  0.3312 -0.3620  0.3463
  914MOL0     H23358   7.310   7.919   2.743  0.8360 -0.1949 -1.0911
  914MOL0     H23359   7.334   8.033   2.609 -0.5461  0.0837 -0.2070
  914MOL0     H23360   7.502   8.012   2.862  2.2020 -1.3219 -1.3441
  914MOL0     H23361   7.517   8.146   2.746 -0.1817  0.1123 -2.6966
  914MOL0     H23362   7.523   7.925   2.590  3.5797 -0.4848 -1.7394
  914MOL0     H23363   7.598   7.862   2.735  1.9473  0.7446  1.2163
  914MOL0     H23364   7.768   8.064   2.722  2.1735 -4.1568  2.0055
  914MOL0     H23365   7.778   7.951   2.593 -0.2447 -0.5859  0.8093
  914MOL0     H23366   7.802   8.176   2.514 -0.5012  1.6727  1.4614
  914MOL0     H23367   7.654   8.222   2.569  0.7189  1.6891 -2.1579
  914MOL0     H23368   7.638   7.989   2.372 -2.2032  0.4474 -3.5168
  914MOL0     H23369   7.522   8.107   2.404  0.0621  0.4353  1.2017
  914MOL0     H23370   6.949   8.362   3.049 -0.2939  0.8906  0.5321
  914MOL0     H23371   6.728   8.347   3.178  0.8197  0.6914 -1.9849
  914MOL0     H23372   6.290   8.365   3.308  2.2156  0.5725  0.9175
  914MOL0     H23373   6.087   8.315   3.446 -1.3835 -1.5027  1.0651
  914MOL0     H23374   4.255   8.465   3.434  1.8021 -0.1835 -1.9767
  914MOL0     H23375   4.093   8.637   3.463 -0.5351  0.8492  0.1253
  914MOL0     H23376   3.928   8.924   3.846  1.6218  0.7889 -0.2891
  914MOL0     H23377   3.768   9.097   3.912 -2.9132 -2.8870  0.3944
  914MOL0     H23378   3.558   9.393   3.856 -1.2555 -0.8466  0.1176
  914MOL0     H23379   3.646   9.259   3.935  2.0612  3.0921  0.7027
  914MOL0     H23380   3.397   9.234   3.932  0.5340  0.0720  0.4265
  914MOL0     H23381   3.464   9.096   3.852  1.0793  0.2069 -1.9137
  914MOL0     H23382   3.421   9.193   3.630  1.0199 -0.4375  0.6971
  914MOL0     H23383   3.389   9.347   3.701  3.2908 -0.2278 -1.6635
  914MOL0     H23384   3.215   9.101   3.771  0.3461 -0.1222 -0.0365
  914MOL0     H23385   3.201   9.266   3.827  3.7294  1.5712 -0.4065
  914MOL0     H23386   3.050   9.265   3.422  0.5474 -4.2228 -0.1503
  914MOL0     H23387   3.760   9.243   3.525 -0.2597 -1.1688 -0.2579
  914MOL0     H23388   4.068   9.070   3.393 -0.3101 -0.8665  0.2261
  914MOL0     H23389   3.905   9.013   3.343  1.9699  1.2110 -2.7910
  914MOL0     H23390   3.926   9.180   3.358  1.8614  2.0085  1.9588
  915MOL0     O23391  10.127   9.839   3.408  0.2429  0.6065  0.4396
  915MOL0     C23392  10.015   9.852   3.367 -0.0532 -0.5862  0.1186
  915MOL0     O23393   9.961   9.773   3.270 -0.9418  0.9967 -1.0815
  915MOL0     C23394  10.049   9.714   3.179  0.3603  0.3002 -0.5009
  915MOL0     C23395  10.180   9.763   3.158  0.1921 -0.8714  0.6025
  915MOL0     C23396  10.273   9.699   3.086 -0.4169 -0.0512 -0.3571
  915MOL0     C23397  10.237   9.591   3.006 -0.3270 -0.1901 -0.5405
  915MOL0     O23398  10.323   9.531   2.916  0.7649 -0.2713 -0.2138
  915MOL0     C23399  10.337   9.390   2.922 -0.6127  0.2565 -0.4164
  915MOL0     C23400  10.479   9.328   2.884 -0.9147 -0.8359  0.1109
  915MOL0     C23401  10.572   9.317   3.008  0.1754  0.5720  0.0803
  915MOL0     C23402  10.708   9.248   2.995  0.8785 -0.6401 -0.5123
  915MOL0     C23403  10.814   9.348   2.935  0.1583  0.9658  0.0839
  915MOL0     C23404  10.957   9.316   2.983 -1.1901 -0.1091 -0.6742
  915MOL0     C23405  11.064   9.376   2.894 -0.3029 -0.2814  0.4003
  915MOL0     C23406  11.210   9.341   2.938 -0.0572  0.3272  1.1772
  915MOL0     N23407  11.301   9.386   2.830 -0.3031 -0.5033 -0.1606
  915MOL0     C23408  11.381   9.501   2.840 -0.5970 -0.7098 -0.2110
  915MOL0     C23409  11.452   9.515   2.721  0.4772 -0.4781  1.1987
  915MOL0     C23410  11.541   9.625   2.669  0.2861 -0.4840  0.1491
  915MOL0     C23411  11.693   9.606   2.712  1.1162  0.4663  0.5546
  915MOL0     C23412  11.783   9.715   2.670  0.6976  0.8233  0.0917
  915MOL0     C23413  11.921   9.680   2.733  0.4305  0.1449  0.2750
  915MOL0     O23414  12.004   9.777   2.664  0.1304  0.0375 -0.2959
  915MOL0     C23415  12.141   9.775   2.689  0.1449  0.2018  0.2973
  915MOL0     C23416  12.214   9.846   2.598  0.3241  0.5927  0.4916
  915MOL0     C23417  12.355   9.832   2.591 -1.0604 -0.0895  0.0289
  915MOL0     C23418  12.420   9.758   2.688  0.3509 -1.0502 -0.4761
  915MOL0     C23419  12.561   9.768   2.698  0.3566  0.2920 -0.1188
  915MOL0     O23420  12.623   9.653   2.734  0.1272 -0.3074 -0.5726
  915MOL0     C23421  12.755   9.670   2.757 -0.3757  0.5496 -0.0580
  915MOL0     C23422  12.851   9.627   2.663 -0.1901  0.2947  0.5994
  915MOL0     C23423  12.984   9.662   2.677 -0.1590  0.0862  0.5545
  915MOL0     C23424  13.033   9.699   2.801 -0.4980 -0.2353  0.9085
  915MOL0     O23425  13.169   9.715   2.811 -0.1045 -0.1049  0.7525
  915MOL0     C23426  13.224   9.713   2.942 -0.4476 -0.3183 -0.0295
  915MOL0     C23427  13.373   9.754   2.937  0.6447 -0.1171 -0.3589
  915MOL0     C23428  13.434   9.744   3.073 -0.0260  0.8179  0.1967
  915MOL0     C23429  13.591   9.773   3.077  0.2145  0.4219  0.1310
  915MOL0     C23430  13.657   9.692   3.194  0.1795 -0.1136 -0.9345
  915MOL0     C23431  13.804   9.728   3.201  0.4208 -1.0220  1.1523
  915MOL0     C23432  13.863   9.670   3.327 -0.2322  0.0242  0.1285
  915MOL0     C23433  14.013   9.706   3.308  0.3939  0.2712 -0.2089
  915MOL0    Cl23434  14.094   9.648   3.457 -0.0944 -0.2667 -0.2505
  915MOL0     C23435  12.937   9.740   2.898 -0.3296 -0.3372 -0.2665
  915MOL0     C23436  12.801   9.730   2.873  0.4887 -0.1552  0.4029
  915MOL0     O23437  12.612   9.871   2.660  0.3526  0.5611  0.7963
  915MOL0     C23438  12.349   9.678   2.775  0.8868 -1.0884 -0.2324
  915MOL0     C23439  12.203   9.685   2.769  1.1313  0.2295 -0.5903
  915MOL0     N23440  11.417   9.403   2.650 -0.1053  0.1096 -0.1637
  915MOL0     N23441  11.332   9.328   2.711  0.8582  0.0728  0.8473
  915MOL0     C23442  10.105   9.545   3.011  0.1975  0.1777  0.4923
  915MOL0     C23443  10.015   9.603   3.105 -0.1852  0.9384  0.5823
  915MOL0     C23444   9.927   9.959   3.429  0.0408  0.0678 -0.1300
  915MOL0     C23445   9.799   9.987   3.369  0.0773 -0.2935 -0.4944
  915MOL0     C23446   9.707  10.077   3.426  0.0084 -1.1343  0.6427
  915MOL0     C23447   9.743  10.152   3.537  0.8156  0.1872 -0.9205
  915MOL0     O23448   9.654  10.237   3.597  0.4828 -0.5187  0.2594
  915MOL0     C23449   9.594  10.343   3.527 -0.1527 -0.2003  0.6566
  915MOL0     C23450   9.703  10.427   3.460  0.3607 -0.2072  0.6846
  915MOL0     C23451   9.795  10.505   3.559 -0.8119  0.3563 -0.1163
  915MOL0     C23452   9.888  10.590   3.471 -0.0377 -0.5138 -0.8463
  915MOL0     C23453   9.992  10.647   3.565 -0.0646 -1.1219  1.2096
  915MOL0     C23454  10.075  10.701   3.633  0.3108 -0.8451 -0.6841
  915MOL0     C23455   9.863  10.128   3.597 -0.4139  0.0530 -0.2235
  915MOL0     C23456   9.960  10.034   3.545  0.3648 -1.5787 -0.5591
  915MOL0     C23457  10.095  10.037   3.618  0.5267 -0.2683 -0.0989
  915MOL0     H23458  10.199   9.866   3.187 -3.5010  0.6261 -1.5134
  915MOL0     H23459  10.367   9.751   3.073 -0.8329  0.6523 -0.6167
  915MOL0     H23460  10.303   9.343   3.014 -3.5838  0.3427 -1.3686
  915MOL0     H23461  10.268   9.365   2.840 -1.0105  4.6205 -1.6647
  915MOL0     H23462  10.521   9.397   2.810 -1.5954 -2.6133 -2.0233
  915MOL0     H23463  10.457   9.234   2.832 -1.0856  1.4434 -4.4599
  915MOL0     H23464  10.502   9.275   3.081 -0.3218  2.9141  1.0229
  915MOL0     H23465  10.595   9.415   3.051 -0.5106  0.4923  0.6442
  915MOL0     H23466  10.738   9.222   3.097 -0.0032 -0.5297 -0.2172
  915MOL0     H23467  10.700   9.156   2.936  1.4384 -1.2129  0.2826
  915MOL0     H23468  10.809   9.338   2.826 -1.7265  0.2255  0.1932
  915MOL0     H23469  10.791   9.455   2.947  2.1170  1.4637 -0.2898
  915MOL0     H23470  10.965   9.352   3.086 -2.2766  3.5637 -1.7167
  915MOL0     H23471  10.968   9.208   2.967 -0.8239 -0.1119 -0.4094
  915MOL0     H23472  11.047   9.484   2.888  1.1859 -0.1275 -2.6443
  915MOL0     H23473  11.044   9.340   2.793 -0.5467 -1.7863  0.9621
  915MOL0     H23474  11.224   9.405   3.026  0.2557  3.8271 -1.2070
  915MOL0     H23475  11.215   9.234   2.960 -3.0526 -0.3107 -0.6022
  915MOL0     H23476  11.382   9.583   2.912  2.2414 -0.6059 -0.2570
  915MOL0     H23477  11.526   9.629   2.560  2.5807  1.6523 -0.1789
  915MOL0     H23478  11.509   9.721   2.709  0.5314 -0.1998 -0.3292
  915MOL0     H23479  11.686   9.586   2.820 -0.7514  1.5961  0.6793
  915MOL0     H23480  11.724   9.516   2.657  3.4319  1.6533 -0.1760
  915MOL0     H23481  11.744   9.811   2.704 -0.9812  0.5040 -0.8066
  915MOL0     H23482  11.787   9.708   2.561  0.1398 -1.1798  0.1537
  915MOL0     H23483  11.947   9.573   2.733  1.9993  0.4698  2.2748
  915MOL0     H23484  11.923   9.708   2.839 -2.0507 -0.0298  0.4362
  915MOL0     H23485  12.161   9.906   2.525  3.6095  3.6154  0.3496
  915MOL0     H23486  12.405   9.895   2.518  0.6888 -1.4511 -0.0087
  915MOL0     H23487  12.808   9.584   2.573  2.4846 -1.0253 -0.1770
  915MOL0     H23488  13.049   9.636   2.594  0.9212 -0.3439  1.4958
  915MOL0     H23489  13.168   9.772   3.014 -1.7579 -3.6817  1.9234
  915MOL0     H23490  13.215   9.612   2.983 -1.2591  0.0991  0.8506
  915MOL0     H23491  13.423   9.688   2.865  2.7328  0.2553  0.6644
  915MOL0     H23492  13.390   9.858   2.907 -0.4976  0.2952  0.3506
  915MOL0     H23493  13.374   9.816   3.129  1.7128  1.8268  0.8246
  915MOL0     H23494  13.424   9.644   3.117  1.5911  1.2348  1.5910
  915MOL0     H23495  13.610   9.878   3.102  2.5427 -0.0840  0.7427
  915MOL0     H23496  13.646   9.747   2.986  1.1966  0.4773  0.6968
  915MOL0     H23497  13.640   9.585   3.185 -2.3642  0.3514 -2.4412
  915MOL0     H23498  13.611   9.726   3.288  1.9186 -3.6928  1.4430
  915MOL0     H23499  13.852   9.684   3.114 -0.1141  0.4547  0.0559
  915MOL0     H23500  13.822   9.835   3.188 -0.8222 -1.1029 -2.1421
  915MOL0     H23501  13.835   9.565   3.325  0.5552 -0.1975  0.4244
  915MOL0     H23502  13.827   9.724   3.414 -0.0161  0.3979 -0.0080
  915MOL0     H23503  14.043   9.650   3.219 -2.8502 -2.6101  0.2968
  915MOL0     H23504  14.031   9.814   3.308  2.5103 -0.0346 -0.0201
  915MOL0     H23505  12.962   9.780   2.996 -1.8923 -0.9116  0.4045
  915MOL0     H23506  12.729   9.759   2.949 -1.2343 -0.3057 -1.0949
  915MOL0     H23507  12.407   9.607   2.834  0.0126 -1.8725 -0.2992
  915MOL0     H23508  12.144   9.620   2.832  0.3737 -1.1110 -2.5990
  915MOL0     H23509  10.069   9.469   2.943  2.1632 -0.1095 -0.2986
  915MOL0     H23510   9.916   9.566   3.128  0.0965 -0.2785 -0.0844
  915MOL0     H23511   9.760   9.942   3.279 -2.5163 -0.4227  0.6106
  915MOL0     H23512   9.605  10.081   3.390 -0.6908  1.1013  2.6735
  915MOL0     H23513   9.535  10.404   3.597  0.7672  0.0525  1.2259
  915MOL0     H23514   9.543  10.305   3.438  0.9378 -0.9484  0.3376
  915MOL0     H23515   9.660  10.506   3.398 -1.1274 -1.8998 -0.5431
  915MOL0     H23516   9.753  10.369   3.383 -2.6647 -2.5065  0.2472
  915MOL0     H23517   9.852  10.435   3.622 -2.6705 -0.7608  0.4122
  915MOL0     H23518   9.734  10.565   3.626 -0.9572 -0.7221  0.7568
  915MOL0     H23519   9.936  10.535   3.390  1.3170 -0.8376  0.1484
  915MOL0     H23520   9.829  10.678   3.440  0.0912  1.5537  3.8946
  915MOL0     H23521  10.135  10.752   3.706  1.3770 -2.8269 -0.1201
  915MOL0     H23522   9.902  10.177   3.686  4.3010  0.4639 -2.1678
  915MOL0     H23523  10.095  10.097   3.709 -0.7538 -1.1648  0.5189
  915MOL0     H23524  10.115   9.933   3.646 -0.7259 -0.3442  0.5999
  915MOL0     H23525  10.177  10.074   3.556  0.9882  2.9298  2.1759
  916MOL0     O23526   2.465   5.340   6.440  0.1932  0.4569 -0.1554
  916MOL0     C23527   2.493   5.435   6.359  0.3790  0.0595 -0.0458
  916MOL0     O23528   2.398   5.516   6.308 -0.1256 -0.7987 -0.3678
  916MOL0     C23529   2.288   5.517   6.382  0.1444  0.7969 -0.7307
  916MOL0     C23530   2.287   5.593   6.504  0.2529 -0.3489 -0.2884
  916MOL0     C23531   2.174   5.594   6.589  0.0390  0.2472  0.0648
  916MOL0     C23532   2.047   5.544   6.549 -0.3669 -0.1826  1.0114
  916MOL0     O23533   1.932   5.547   6.623  0.5088  0.4638  0.0135
  916MOL0     C23534   1.949   5.600   6.756  0.3118  0.4391  0.2689
  916MOL0     C23535   2.004   5.504   6.859 -0.2281  0.3535  0.1825
  916MOL0     C23536   1.910   5.383   6.877 -0.3690 -0.2525 -0.3692
  916MOL0     C23537   1.778   5.408   6.951 -0.0103 -0.2753  0.1226
  916MOL0     C23538   1.801   5.476   7.087 -0.4133  0.7791 -0.7469
  916MOL0     C23539   1.667   5.518   7.156 -1.2665 -0.2941  0.3325
  916MOL0     C23540   1.596   5.401   7.225  0.6615 -0.5535  0.3328
  916MOL0     C23541   1.464   5.424   7.307  0.1629  1.2424 -0.3963
  916MOL0     N23542   1.380   5.309   7.338  0.4983 -0.3375 -0.0915
  916MOL0     C23543   1.311   5.238   7.253  0.5157 -0.0763  0.0631
  916MOL0     C23544   1.253   5.144   7.328  0.4974  0.7392  0.5230
  916MOL0     C23545   1.176   5.039   7.259 -0.2366  0.4979 -0.1626
  916MOL0     C23546   1.256   4.968   7.147 -0.4322 -0.4350  0.2993
  916MOL0     C23547   1.200   4.845   7.077  0.0590  0.1420 -0.5598
  916MOL0     C23548   1.093   4.855   6.970  0.3827  0.5295 -0.4568
  916MOL0     O23549   0.967   4.802   7.011  0.6330  0.1700  0.4095
  916MOL0     C23550   0.885   4.749   6.917 -0.2060  0.1736  0.9382
  916MOL0     C23551   0.896   4.789   6.782  0.2557 -0.2331  0.3291
  916MOL0     C23552   0.786   4.771   6.692  0.7915  0.1867  0.7898
  916MOL0     C23553   0.670   4.702   6.730 -0.6722 -0.4195  0.2714
  916MOL0     C23554   0.558   4.676   6.641  0.2429 -1.0118  1.5201
  916MOL0     O23555   0.445   4.630   6.701 -0.4823  0.3922  0.2024
  916MOL0     C23556   0.332   4.624   6.626 -0.9446 -0.2231 -0.1592
  916MOL0     C23557   0.278   4.732   6.558  0.1784  0.0460 -1.2031
  916MOL0     C23558   0.156   4.722   6.494  0.6382 -0.5984 -0.6501
  916MOL0     C23559   0.068   4.608   6.512 -1.1701 -0.7063  0.2943
  916MOL0     O23560  -0.058   4.618   6.456 -0.2724  0.7261 -0.2080
  916MOL0     C23561  -0.113   4.509   6.383 -0.6971 -0.6276  0.1629
  916MOL0     C23562  -0.030   4.507   6.252 -0.1608  0.9012  0.7337
  916MOL0     C23563  -0.042   4.634   6.168  0.2046 -0.3056  0.3603
  916MOL0     C23564  -0.156   4.620   6.065 -0.3657 -0.1862  0.5983
  916MOL0     C23565  -0.157   4.744   5.975  0.0546  0.3949 -0.0262
  916MOL0     C23566  -0.034   4.760   5.871  1.3146  1.0375 -0.6810
  916MOL0     C23567  -0.051   4.646   5.770  0.3237 -0.6933  0.5142
  916MOL0     C23568   0.066   4.632   5.679  0.5976  0.1359  1.0251
  916MOL0    Cl23569   0.057   4.757   5.544  0.0616 -0.0048 -0.2211
  916MOL0     C23570   0.121   4.504   6.592 -0.8010  0.2096  1.2675
  916MOL0     C23571   0.250   4.516   6.646 -1.3265  0.8538  0.2085
  916MOL0     O23572   0.571   4.714   6.525  0.4479 -0.2291  0.4218
  916MOL0     C23573   0.672   4.657   6.867  0.3029  0.0199 -0.2715
  916MOL0     C23574   0.777   4.680   6.960 -0.3650  0.0603  0.3450
  916MOL0     N23575   1.284   5.157   7.466  0.4469 -0.1434 -0.6323
  916MOL0     N23576   1.353   5.260   7.467  0.2551 -0.5378  0.5984
  916MOL0     C23577   2.040   5.482   6.427 -0.1788 -0.8612  0.1279
  916MOL0     C23578   2.158   5.464   6.346 -0.4856 -0.4324 -0.2335
  916MOL0     C23579   2.644   5.454   6.343 -0.7755 -0.2862 -0.4044
  916MOL0     C23580   2.726   5.340   6.372  0.6511 -1.0469  0.3868
  916MOL0     C23581   2.865   5.348   6.359 -0.0057 -0.3511 -0.3561
  916MOL0     C23582   2.926   5.465   6.330  0.7643 -0.2679  0.1342
  916MOL0     O23583   3.061   5.475   6.329 -0.1522 -0.5748  0.1084
  916MOL0     C23584   3.120   5.465   6.460  0.4839  0.0538 -0.9153
  916MOL0     C23585   3.267   5.460   6.440 -0.2323 -0.6244  0.2623
  916MOL0     C23586   3.316   5.327   6.370  0.1431 -0.3957  1.3155
  916MOL0     C23587   3.452   5.348   6.304 -0.1253  0.0782 -0.4105
  916MOL0     C23588   3.560   5.407   6.391 -0.2181 -0.5506 -0.5699
  916MOL0     C23589   3.656   5.439   6.455 -0.4244  0.0957  0.4947
  916MOL0     C23590   2.844   5.571   6.300  0.7128  0.7697  0.6077
  916MOL0     C23591   2.705   5.566   6.305  0.9903  0.4695 -0.0195
  916MOL0     C23592   2.639   5.686   6.253 -0.3700  0.6556 -0.1841
  916MOL0     H23593   2.376   5.646   6.537  0.8462 -0.7900 -1.1667
  916MOL0     H23594   2.187   5.642   6.686  0.5525 -2.7980  1.6330
  916MOL0     H23595   2.010   5.690   6.743  0.0618  0.5071 -0.4629
  916MOL0     H23596   1.850   5.636   6.785 -0.4926 -1.4412 -0.0256
  916MOL0     H23597   2.025   5.556   6.953 -0.0122 -2.2537  1.6948
  916MOL0     H23598   2.102   5.465   6.828 -1.4454 -2.9346  0.1102
  916MOL0     H23599   1.962   5.306   6.935  0.5467 -0.1496 -1.0285
  916MOL0     H23600   1.886   5.344   6.778 -0.7364 -1.0740  0.0341
  916MOL0     H23601   1.708   5.469   6.894  1.7839  0.7899 -1.0620
  916MOL0     H23602   1.735   5.309   6.969 -3.6460  0.8842 -1.3210
  916MOL0     H23603   1.850   5.407   7.157 -1.1234  1.1282  0.1031
  916MOL0     H23604   1.856   5.568   7.068 -1.7129  1.3781 -1.7679
  916MOL0     H23605   1.685   5.599   7.228 -0.6199  1.5071 -1.7352
  916MOL0     H23606   1.598   5.569   7.088 -0.1699  0.1195 -0.5032
  916MOL0     H23607   1.668   5.358   7.295 -0.1715 -1.5749  0.5969
  916MOL0     H23608   1.566   5.336   7.142  2.0126 -0.6765 -0.0817
  916MOL0     H23609   1.497   5.473   7.399 -1.9081 -0.9265  1.6019
  916MOL0     H23610   1.401   5.494   7.250 -1.6577 -1.5899 -2.0969
  916MOL0     H23611   1.291   5.257   7.148  3.2166  1.2754 -0.2888
  916MOL0     H23612   1.148   4.966   7.335 -2.0358  2.6317  1.3752
  916MOL0     H23613   1.089   5.081   7.208  1.5304  2.5034 -1.7274
  916MOL0     H23614   1.270   5.049   7.075  0.9086 -1.7628 -1.0055
  916MOL0     H23615   1.350   4.930   7.188  0.4993  0.6692 -0.7157
  916MOL0     H23616   1.163   4.780   7.157  3.3224  0.6696  1.5617
  916MOL0     H23617   1.282   4.789   7.032  0.7281  0.4180  0.3036
  916MOL0     H23618   1.127   4.792   6.887  1.6592 -1.0355  1.1653
  916MOL0     H23619   1.075   4.957   6.935  0.0412  0.8818  0.6848
  916MOL0     H23620   0.986   4.830   6.737 -1.3345  3.8303  0.4696
  916MOL0     H23621   0.801   4.810   6.592  1.3307 -2.2101 -0.1093
  916MOL0     H23622   0.327   4.828   6.543  0.1921  0.9756  3.3366
  916MOL0     H23623   0.128   4.808   6.434  1.1973  0.1916  0.2033
  916MOL0     H23624  -0.100   4.409   6.427 -2.3285 -1.2308 -0.6399
  916MOL0     H23625  -0.219   4.515   6.357 -0.8784 -3.4197 -0.0847
  916MOL0     H23626   0.073   4.487   6.282  0.2702  2.1495  0.1629
  916MOL0     H23627  -0.063   4.421   6.194  2.5135 -0.6786  1.4134
  916MOL0     H23628  -0.058   4.730   6.217  1.3190  0.1840 -0.2104
  916MOL0     H23629   0.052   4.640   6.111  1.2589 -0.8618  1.9725
  916MOL0     H23630  -0.249   4.615   6.122 -0.9235 -0.3686 -0.3098
  916MOL0     H23631  -0.139   4.533   6.002 -0.5661 -0.8035  1.3803
  916MOL0     H23632  -0.174   4.832   6.038 -1.0532 -0.4868  0.9413
  916MOL0     H23633  -0.244   4.734   5.909  1.2533  0.3239 -1.6636
  916MOL0     H23634  -0.050   4.850   5.812  0.4128  1.0850 -0.3701
  916MOL0     H23635   0.068   4.761   5.912  1.4620 -0.2388 -0.9524
  916MOL0     H23636  -0.146   4.665   5.720  0.6683 -0.5949 -0.1254
  916MOL0     H23637  -0.068   4.544   5.805  2.1262 -1.2652 -0.1066
  916MOL0     H23638   0.168   4.641   5.718  1.7340  2.9450 -2.1107
  916MOL0     H23639   0.064   4.533   5.632  0.5625 -0.0058  1.3243
  916MOL0     H23640   0.059   4.419   6.618 -0.7349  0.7775  3.5318
  916MOL0     H23641   0.275   4.432   6.711 -4.5333 -0.9598 -0.6419
  916MOL0     H23642   0.586   4.605   6.909 -0.3113  0.5116 -0.8859
  916MOL0     H23643   0.776   4.657   7.066  3.1840  1.4964  0.8371
  916MOL0     H23644   1.946   5.433   6.403 -1.0038  1.1199 -0.9267
  916MOL0     H23645   2.143   5.400   6.259 -1.3991 -0.6267  0.0617
  916MOL0     H23646   2.691   5.243   6.407 -0.1330 -2.2051 -3.1534
  916MOL0     H23647   2.925   5.259   6.373  0.8041  0.1288 -0.7120
  916MOL0     H23648   3.089   5.375   6.513 -2.9847  0.0563 -2.6487
  916MOL0     H23649   3.085   5.548   6.522 -0.3165  0.0386 -1.3328
  916MOL0     H23650   3.315   5.464   6.538 -2.4133  0.4306  1.3576
  916MOL0     H23651   3.300   5.548   6.385 -0.6463 -1.2413 -1.0168
  916MOL0     H23652   3.238   5.287   6.304  2.8136 -0.6056 -2.0152
  916MOL0     H23653   3.318   5.257   6.454 -3.1541 -2.8408 -0.3851
  916MOL0     H23654   3.485   5.250   6.269  0.4921 -0.4800  1.5985
  916MOL0     H23655   3.442   5.408   6.214  1.1732 -1.2948 -1.5248
  916MOL0     H23656   3.736   5.469   6.520 -0.4024  0.5372  0.2661
  916MOL0     H23657   2.890   5.663   6.265 -2.5864  3.2942  2.2705
  916MOL0     H23658   2.713   5.765   6.243  1.9488 -1.3385  0.3635
  916MOL0     H23659   2.604   5.651   6.155  1.2580 -1.3040 -0.1288
  916MOL0     H23660   2.559   5.727   6.315 -0.0821 -0.2322  0.8011
  917MOL0     O23661   5.418   2.787   9.626  0.6441 -0.2192 -0.3106
  917MOL0     C23662   5.358   2.890   9.615 -0.2085 -0.4482 -0.6227
  917MOL0     O23663   5.419   3.010   9.625  0.6642 -0.0032  0.2404
  917MOL0     C23664   5.555   3.032   9.661 -0.7427  0.5527 -0.7337
  917MOL0     C23665   5.661   2.952   9.621 -0.2237  0.7483 -0.0989
  917MOL0     C23666   5.784   2.981   9.675 -0.1722  0.2091  0.1445
  917MOL0     C23667   5.804   3.087   9.770 -0.0672  0.1879  0.0148
  917MOL0     O23668   5.930   3.102   9.826  0.2506 -0.5066 -0.2294
  917MOL0     C23669   6.002   3.000   9.887  0.1467  0.1302  0.3391
  917MOL0     C23670   6.135   3.068   9.932  0.0581 -0.0843 -0.2606
  917MOL0     C23671   6.256   2.973   9.952 -0.8115  0.5554 -0.0717
  917MOL0     C23672   6.241   2.871  10.062  0.9162 -0.2126 -0.3291
  917MOL0     C23673   6.365   2.782  10.087 -0.8209 -0.2376  0.3624
  917MOL0     C23674   6.472   2.878  10.144 -0.0463 -0.0879  0.0538
  917MOL0     C23675   6.594   2.796  10.184 -0.9048 -0.1559  0.4874
  917MOL0     C23676   6.685   2.864  10.278 -0.7937 -0.8404 -0.2643
  917MOL0     N23677   6.746   2.983  10.213  0.7503 -0.3099  0.6596
  917MOL0     C23678   6.866   2.993  10.150  0.3208  0.5854  0.9079
  917MOL0     C23679   6.871   3.125  10.111 -0.5342  0.7208  1.0523
  917MOL0     C23680   6.985   3.192  10.028 -0.6330  0.8671 -0.1304
  917MOL0     C23681   7.023   3.105   9.899  0.0012 -0.0013  0.2388
  917MOL0     C23682   7.170   3.137   9.861  0.0900 -0.3245 -1.5087
  917MOL0     C23683   7.188   3.264   9.794 -0.0995 -0.7109 -0.1110
  917MOL0     O23684   7.315   3.284   9.720 -0.2086  0.3876  0.6798
  917MOL0     C23685   7.433   3.305   9.780 -0.1019  0.2406 -0.0914
  917MOL0     C23686   7.447   3.323   9.913 -0.6147  0.0332 -1.2331
  917MOL0     C23687   7.570   3.341   9.970 -0.5837  0.9928 -0.9598
  917MOL0     C23688   7.694   3.331   9.891  0.7888  0.0363 -0.9267
  917MOL0     C23689   7.825   3.355   9.956  0.4715 -0.3132  0.0155
  917MOL0     O23690   7.933   3.368   9.873 -0.3231  0.0210  0.1701
  917MOL0     C23691   8.064   3.376   9.920  0.0486 -1.1487 -0.0223
  917MOL0     C23692   8.103   3.480  10.001 -0.0936 -0.5984  0.7445
  917MOL0     C23693   8.231   3.480  10.069  0.5898  0.3571  0.1329
  917MOL0     C23694   8.313   3.364  10.051  0.5254  1.1986  0.2701
  917MOL0     O23695   8.426   3.352  10.131 -0.1047  0.2124 -1.4492
  917MOL0     C23696   8.545   3.282  10.097  0.3279  0.4718 -0.8715
  917MOL0     C23697   8.539   3.126  10.132 -0.2789  0.6016  0.0619
  917MOL0     C23698   8.582   3.109  10.286 -0.0373  0.0424 -0.0692
  917MOL0     C23699   8.734   3.113  10.277  0.3678 -0.2153 -0.5314
  917MOL0     C23700   8.796   3.123  10.425 -0.8289 -0.3152  0.3821
  917MOL0     C23701   8.936   3.063  10.422 -0.1772 -0.3948 -0.0066
  917MOL0     C23702   9.047   3.159  10.361  0.8122 -0.1708 -0.3895
  917MOL0     C23703   9.177   3.089  10.342  0.7340  0.2182  0.2257
  917MOL0    Cl23704   9.228   2.997  10.489 -0.3084 -0.1514 -0.0912
  917MOL0     C23705   8.275   3.268   9.962 -0.1690 -0.4433  0.8290
  917MOL0     C23706   8.147   3.268   9.898 -0.1213  0.9641 -0.0904
  917MOL0     O23707   7.825   3.362  10.080 -0.3257 -0.2835  0.3314
  917MOL0     C23708   7.678   3.301   9.759 -0.2662 -0.0616 -0.5810
  917MOL0     C23709   7.552   3.288   9.702 -0.2841 -0.0633  0.5583
  917MOL0     N23710   6.762   3.190  10.152 -0.3798  0.5365  1.4317
  917MOL0     N23711   6.686   3.105  10.210 -0.6870 -0.4040 -0.2342
  917MOL0     C23712   5.690   3.158   9.807 -0.2936  0.1864 -0.2012
  917MOL0     C23713   5.570   3.120   9.765 -0.0336  0.1162 -0.1797
  917MOL0     C23714   5.213   2.886   9.600  0.4763  0.0232  0.4381
  917MOL0     C23715   5.147   2.773   9.536 -0.1629 -0.1093  0.4638
  917MOL0     C23716   5.009   2.772   9.518  0.4528  0.2678 -0.9961
  917MOL0     C23717   4.930   2.874   9.575  0.8298  0.0277  0.6980
  917MOL0     O23718   4.791   2.872   9.570 -0.4591 -0.3591 -0.0288
  917MOL0     C23719   4.728   2.754   9.519  0.0507 -0.8165 -0.0661
  917MOL0     C23720   4.577   2.782   9.504 -1.0485 -0.5136 -0.4375
  917MOL0     C23721   4.505   2.800   9.638 -0.4639  0.7102  0.5165
  917MOL0     C23722   4.357   2.837   9.628  0.4795  0.4848 -0.1103
  917MOL0     C23723   4.283   2.754   9.531 -0.1109  0.2944  0.0514
  917MOL0     C23724   4.226   2.695   9.435  0.1191  0.4006 -0.4164
  917MOL0     C23725   4.993   2.989   9.614 -0.7465  0.3447  0.4628
  917MOL0     C23726   5.128   2.994   9.643 -0.0622 -0.5995 -1.0361
  917MOL0     C23727   5.172   3.121   9.716 -0.3359  0.0647  0.2882
  917MOL0     H23728   5.646   2.878   9.544 -1.8792 -1.0809  1.8687
  917MOL0     H23729   5.866   2.921   9.638 -1.5627 -0.7149 -1.5670
  917MOL0     H23730   5.939   2.957   9.967 -1.3783  0.1093 -0.8294
  917MOL0     H23731   6.017   2.923   9.811 -1.4740  2.3841 -2.4524
  917MOL0     H23732   6.126   3.139  10.015  4.2287 -0.2915  0.6283
  917MOL0     H23733   6.167   3.128   9.847 -1.1804  0.4268 -0.3881
  917MOL0     H23734   6.344   3.034   9.974  0.9161 -1.4415 -1.0138
  917MOL0     H23735   6.290   2.932   9.856  2.3438  2.1904  0.2113
  917MOL0     H23736   6.209   2.916  10.156 -0.6536 -2.2405  0.1706
  917MOL0     H23737   6.159   2.804  10.035  1.1638 -0.5848 -0.1546
  917MOL0     H23738   6.336   2.708  10.162 -0.3222  1.0353  1.8727
  917MOL0     H23739   6.406   2.743   9.993  1.0285 -0.3040  1.1557
  917MOL0     H23740   6.502   2.953  10.071 -4.8267 -0.9828 -3.3210
  917MOL0     H23741   6.427   2.928  10.230 -0.8073 -4.2374  2.3489
  917MOL0     H23742   6.645   2.751  10.098 -1.8831 -1.8171  0.7395
  917MOL0     H23743   6.569   2.705  10.238  1.3086  0.5896  3.0115
  917MOL0     H23744   6.646   2.881  10.379 -1.5366 -3.8295  0.0416
  917MOL0     H23745   6.770   2.798  10.295  0.0352  0.4879  1.0121
  917MOL0     H23746   6.931   2.917  10.109  0.3982  1.7539 -1.3148
  917MOL0     H23747   6.965   3.298  10.006  0.4205  0.6264 -2.4805
  917MOL0     H23748   7.069   3.186  10.098 -1.7187 -1.3135  1.0720
  917MOL0     H23749   7.013   2.997   9.915 -4.1341  0.1272 -0.4754
  917MOL0     H23750   6.943   3.131   9.830 -2.9544 -0.3101  3.2943
  917MOL0     H23751   7.213   3.066   9.790  0.2498 -1.0042 -0.7530
  917MOL0     H23752   7.224   3.130   9.956 -0.8815  2.1757 -0.6903
  917MOL0     H23753   7.169   3.356   9.850  0.3127 -0.9568  0.4472
  917MOL0     H23754   7.105   3.267   9.723 -0.4236 -2.0527  0.1712
  917MOL0     H23755   7.365   3.334   9.983 -0.4691  0.3080 -1.1008
  917MOL0     H23756   7.562   3.381  10.071 -1.6908 -0.7649 -0.3036
  917MOL0     H23757   8.039   3.568  10.008  2.0172  1.4152 -2.4363
  917MOL0     H23758   8.250   3.548  10.151 -1.1053 -1.2800  2.0044
  917MOL0     H23759   8.562   3.292   9.990 -0.4281 -0.3859 -1.0844
  917MOL0     H23760   8.625   3.328  10.155 -1.2182 -0.0371  1.8712
  917MOL0     H23761   8.443   3.074  10.124 -1.2150  2.1454  0.8010
  917MOL0     H23762   8.610   3.064  10.077 -2.3172  1.8503 -4.4471
  917MOL0     H23763   8.530   3.194  10.331 -1.1703  0.8386 -2.6871
  917MOL0     H23764   8.558   3.017  10.340  4.9567 -1.1309  0.6029
  917MOL0     H23765   8.774   3.190  10.210 -1.5369  1.2088 -0.1441
  917MOL0     H23766   8.758   3.016  10.232 -0.6902 -1.2069  0.9669
  917MOL0     H23767   8.727   3.065  10.488 -1.9446  1.3393  0.7579
  917MOL0     H23768   8.802   3.224  10.466 -1.1072 -0.1774  0.0826
  917MOL0     H23769   8.979   3.038  10.520  0.8886 -0.0650 -0.3836
  917MOL0     H23770   8.929   2.973  10.361  1.7115  0.9659 -2.3911
  917MOL0     H23771   9.075   3.246  10.422 -0.9402  1.5723 -1.9235
  917MOL0     H23772   9.015   3.195  10.262  0.8490 -2.1516 -1.1617
  917MOL0     H23773   9.175   3.021  10.256  1.4229 -0.2160  0.5438
  917MOL0     H23774   9.263   3.154  10.319  0.8928 -0.1472 -0.2279
  917MOL0     H23775   8.337   3.181   9.944 -0.4981 -0.4648 -0.2620
  917MOL0     H23776   8.109   3.178   9.851 -0.9398  1.2083  0.0820
  917MOL0     H23777   7.767   3.301   9.696 -0.5644  2.7104 -1.1640
  917MOL0     H23778   7.545   3.262   9.597  0.4411 -0.1892  0.5345
  917MOL0     H23779   5.715   3.231   9.882  2.1622 -1.3975  0.6564
  917MOL0     H23780   5.481   3.173   9.797 -0.4411  0.1117 -1.2653
  917MOL0     H23781   5.204   2.691   9.493 -0.7591 -0.9703  1.2734
  917MOL0     H23782   4.972   2.695   9.451 -1.7822  0.2164  0.2043
  917MOL0     H23783   4.744   2.678   9.596 -0.4232 -1.5051 -0.6302
  917MOL0     H23784   4.766   2.716   9.424  2.8587 -1.6100  1.2888
  917MOL0     H23785   4.525   2.696   9.462 -1.4252 -0.7712  0.5317
  917MOL0     H23786   4.566   2.870   9.440 -0.1382  0.9527  1.3136
  917MOL0     H23787   4.563   2.872   9.696  1.0449  1.8218 -2.2064
  917MOL0     H23788   4.522   2.705   9.690  3.2775  0.4667 -0.8157
  917MOL0     H23789   4.309   2.827   9.726  0.0477 -1.0776 -0.4609
  917MOL0     H23790   4.352   2.938   9.586  0.8563 -0.2596 -2.0256
  917MOL0     H23791   4.193   2.649   9.344  0.6911  0.7597 -0.8155
  917MOL0     H23792   4.935   3.077   9.641  0.9302  1.0516  2.0261
  917MOL0     H23793   5.260   3.106   9.779  0.6242  0.1623 -0.9921
  917MOL0     H23794   5.192   3.202   9.646 -0.5665  0.5507  0.7798
  917MOL0     H23795   5.095   3.150   9.788 -0.1046  2.8604 -0.5001
  918MOL0     O23796   1.852   2.958   5.317  0.3296  0.0269  0.0260
  918MOL0     C23797   1.743   2.928   5.373 -0.1937 -0.2491 -0.2578
  918MOL0     O23798   1.721   2.920   5.512  0.3110  0.1872 -0.3128
  918MOL0     C23799   1.821   2.973   5.585  0.0612 -0.6077 -0.6312
  918MOL0     C23800   1.899   2.892   5.657 -0.7937  0.6491  0.1631
  918MOL0     C23801   1.992   2.945   5.754  0.4146  0.9600 -0.5940
  918MOL0     C23802   2.004   3.082   5.775  0.2398  0.4178  0.2486
  918MOL0     O23803   2.071   3.151   5.872 -0.9079  0.2780 -0.2773
  918MOL0     C23804   2.129   3.085   5.984 -0.3566 -0.0441  0.1472
  918MOL0     C23805   2.163   3.183   6.089 -0.7016 -0.1915 -0.7396
  918MOL0     C23806   2.266   3.280   6.036 -0.8850  0.1223 -0.3242
  918MOL0     C23807   2.410   3.230   6.016  0.7486 -0.1817 -0.3259
  918MOL0     C23808   2.497   3.337   5.947 -0.3800 -0.4847 -0.1191
  918MOL0     C23809   2.630   3.285   5.892 -0.8551 -0.4727 -0.0395
  918MOL0     C23810   2.722   3.380   5.803  0.3430 -0.0272 -0.7118
  918MOL0     C23811   2.857   3.408   5.875  1.5251 -0.4150  0.2994
  918MOL0     N23812   2.956   3.309   5.838  0.2932  0.0560  0.7523
  918MOL0     C23813   3.044   3.325   5.730  0.1328 -0.1344  0.0571
  918MOL0     C23814   3.134   3.228   5.747  0.6360  0.4432 -0.4233
  918MOL0     C23815   3.233   3.208   5.643 -0.5205 -0.4425  0.6175
  918MOL0     C23816   3.378   3.198   5.703 -0.8152  0.0424 -0.1957
  918MOL0     C23817   3.407   3.067   5.785 -0.0063 -0.0825 -0.0143
  918MOL0     C23818   3.533   3.053   5.864  0.3336 -0.5134 -0.0751
  918MOL0     O23819   3.644   3.059   5.776  0.0657  0.4502 -0.5373
  918MOL0     C23820   3.769   3.023   5.828  0.1680 -0.3834  0.1666
  918MOL0     C23821   3.874   3.072   5.755  0.3624  0.1646  0.3912
  918MOL0     C23822   4.000   3.034   5.792 -0.3553  0.4131 -0.8574
  918MOL0     C23823   4.029   2.960   5.908  0.2344 -0.7201  0.4317
  918MOL0     C23824   4.171   2.921   5.951  0.2182  0.0942  0.1988
  918MOL0     O23825   4.183   2.852   6.066  0.4966  0.2166  0.4863
  918MOL0     C23826   4.304   2.813   6.110  0.1016  0.5680 -0.1872
  918MOL0     C23827   4.342   2.862   6.231 -0.2953 -0.5052  0.1129
  918MOL0     C23828   4.459   2.816   6.292 -1.0011 -0.0851  0.0862
  918MOL0     C23829   4.534   2.714   6.241 -0.3748 -0.1199  0.0954
  918MOL0     O23830   4.656   2.680   6.300 -0.0808  0.3428 -1.3170
  918MOL0     C23831   4.747   2.786   6.351 -0.0139  0.3529 -0.0103
  918MOL0     C23832   4.883   2.716   6.369  0.5168 -0.2906  0.3789
  918MOL0     C23833   4.965   2.817   6.448 -0.6588  0.7012 -0.1420
  918MOL0     C23834   5.104   2.767   6.494  0.0913 -0.6807  0.5135
  918MOL0     C23835   5.201   2.786   6.368  0.6786 -0.1925 -0.9734
  918MOL0     C23836   5.341   2.740   6.415 -0.3751  0.4902  0.4824
  918MOL0     C23837   5.456   2.774   6.316  0.2977  0.4822 -0.8576
  918MOL0     C23838   5.586   2.713   6.368  0.2691 -0.4448 -0.1772
  918MOL0    Cl23839   5.721   2.753   6.258  0.1515  0.4473  0.0111
  918MOL0     C23840   4.494   2.658   6.119  0.4986  0.2058  0.6072
  918MOL0     C23841   4.379   2.706   6.059  0.4013  0.4418  0.4567
  918MOL0     O23842   4.264   2.952   5.875 -0.2090  0.1508 -0.7688
  918MOL0     C23843   3.921   2.916   5.989  0.2562 -0.6305 -0.7163
  918MOL0     C23844   3.792   2.943   5.944  0.0067  0.0258  0.2044
  918MOL0     N23845   3.100   3.144   5.854  0.0090  0.4119  0.3570
  918MOL0     N23846   2.989   3.195   5.903 -0.0384 -0.1934 -0.3108
  918MOL0     C23847   1.916   3.159   5.695  0.3673  0.0975  0.1225
  918MOL0     C23848   1.829   3.109   5.604 -0.6341  0.2928  0.3211
  918MOL0     C23849   1.633   2.886   5.283  0.6587 -0.4099 -0.0350
  918MOL0     C23850   1.649   2.786   5.185 -0.3819 -0.0330 -0.1439
  918MOL0     C23851   1.543   2.743   5.110 -0.3355 -1.4382  0.7571
  918MOL0     C23852   1.408   2.782   5.119 -0.5568  0.3183 -0.4975
  918MOL0     O23853   1.307   2.722   5.043 -0.0073  0.3483  1.7003
  918MOL0     C23854   1.173   2.753   5.057  0.6803  0.4237  0.3064
  918MOL0     C23855   1.095   2.629   5.010  0.0678 -0.9327  0.0427
  918MOL0     C23856   0.955   2.656   5.085 -0.3784  0.3841  1.2883
  918MOL0     C23857   0.835   2.592   5.009 -0.7181  0.1756  0.4577
  918MOL0     C23858   0.715   2.634   5.078  0.2136  1.6046 -0.4788
  918MOL0     C23859   0.612   2.651   5.138  0.4613  0.5854  0.1146
  918MOL0     C23860   1.394   2.884   5.211  0.0100  0.3160 -0.7637
  918MOL0     C23861   1.493   2.932   5.296 -0.3195 -0.4589 -1.2145
  918MOL0     C23862   1.458   3.040   5.399 -0.1173 -0.3566 -0.1454
  918MOL0     H23863   1.892   2.786   5.635 -0.2111  0.6308  0.0636
  918MOL0     H23864   2.047   2.881   5.823  0.4355  0.2136 -1.2847
  918MOL0     H23865   2.065   3.004   6.021 -0.1130 -0.9732 -1.3666
  918MOL0     H23866   2.215   3.026   5.952  0.9128  0.3958  2.5070
  918MOL0     H23867   2.210   3.141   6.178 -0.9338 -1.3720 -1.1639
  918MOL0     H23868   2.079   3.234   6.137 -0.4134  0.5352 -0.9931
  918MOL0     H23869   2.270   3.354   6.116 -2.8451  1.0150 -1.0021
  918MOL0     H23870   2.229   3.320   5.942 -1.0835 -1.3911 -0.9233
  918MOL0     H23871   2.447   3.215   6.117 -1.7544 -0.1136  0.6750
  918MOL0     H23872   2.423   3.140   5.956  2.3997  0.0631 -0.3893
  918MOL0     H23873   2.443   3.396   5.873  1.3170  0.7520 -0.4252
  918MOL0     H23874   2.517   3.413   6.023 -0.6845  1.5021 -1.9270
  918MOL0     H23875   2.688   3.273   5.984  2.8986  1.2522 -1.9188
  918MOL0     H23876   2.618   3.189   5.839 -3.0187  0.3110 -1.0757
  918MOL0     H23877   2.673   3.477   5.796 -1.0232 -0.5178  1.2733
  918MOL0     H23878   2.731   3.322   5.710 -3.0156 -0.4223 -0.8890
  918MOL0     H23879   2.884   3.510   5.848 -4.7597  1.8457  1.1356
  918MOL0     H23880   2.848   3.401   5.983  0.8963  0.5978  0.3187
  918MOL0     H23881   3.029   3.396   5.650 -1.6005 -0.1366  0.3421
  918MOL0     H23882   3.214   3.122   5.577  1.1041  0.6748 -1.4599
  918MOL0     H23883   3.224   3.297   5.580 -4.3536  0.5170  2.2396
  918MOL0     H23884   3.448   3.197   5.618  0.6898 -2.5069  0.9469
  918MOL0     H23885   3.388   3.288   5.764 -1.8307  0.8774 -1.2070
  918MOL0     H23886   3.396   2.981   5.718 -1.0482  0.3612 -0.4410
  918MOL0     H23887   3.320   3.062   5.852 -0.8688  0.6687 -1.0357
  918MOL0     H23888   3.531   2.962   5.926 -0.3694  0.6834  1.7369
  918MOL0     H23889   3.540   3.133   5.938 -2.3599  0.4190 -0.7141
  918MOL0     H23890   3.856   3.138   5.670 -0.6524 -3.2525 -2.2788
  918MOL0     H23891   4.085   3.074   5.738  0.6516 -1.3761 -0.6602
  918MOL0     H23892   4.277   2.933   6.281  0.2238 -0.0476  0.1441
  918MOL0     H23893   4.492   2.851   6.390  1.0294 -0.5995 -0.3715
  918MOL0     H23894   4.750   2.864   6.275  1.8201  0.6209  0.3013
  918MOL0     H23895   4.706   2.827   6.444  1.9196  0.0217  1.0501
  918MOL0     H23896   4.862   2.627   6.429  0.7433 -0.8276 -0.3281
  918MOL0     H23897   4.926   2.679   6.275  0.9309 -2.1425  1.2454
  918MOL0     H23898   4.971   2.907   6.387 -0.2311  0.4660 -0.4500
  918MOL0     H23899   4.911   2.846   6.538  0.2068 -0.0790  0.6516
  918MOL0     H23900   5.108   2.667   6.538  1.7986 -2.4035 -3.0483
  918MOL0     H23901   5.139   2.841   6.567 -1.8412  1.3249 -0.4829
  918MOL0     H23902   5.199   2.891   6.337 -2.3983 -0.2224 -1.2567
  918MOL0     H23903   5.171   2.720   6.286 -1.2064 -1.8524  0.9244
  918MOL0     H23904   5.363   2.791   6.509 -0.6071  2.0506 -0.2593
  918MOL0     H23905   5.329   2.633   6.429 -1.5441  0.6048  0.4387
  918MOL0     H23906   5.468   2.883   6.313 -1.1404  0.7292  0.9958
  918MOL0     H23907   5.454   2.736   6.213  1.4905  0.3927 -0.8639
  918MOL0     H23908   5.612   2.770   6.458  1.1132 -1.2791  0.1315
  918MOL0     H23909   5.585   2.606   6.394  3.9764 -0.7420 -0.6069
  918MOL0     H23910   4.530   2.565   6.078 -4.0660 -1.7759  0.5130
  918MOL0     H23911   4.349   2.658   5.966  3.5889  0.2295 -0.5831
  918MOL0     H23912   3.934   2.851   6.075 -2.3782 -1.0270 -0.5279
  918MOL0     H23913   3.708   2.907   6.004 -1.8239  0.0638 -2.1670
  918MOL0     H23914   1.929   3.266   5.703  1.2331 -0.0979  1.5725
  918MOL0     H23915   1.775   3.180   5.542  1.9792  2.1124 -0.0416
  918MOL0     H23916   1.745   2.739   5.167 -0.7289 -1.1497  0.8412
  918MOL0     H23917   1.559   2.666   5.036 -1.9778 -0.7790 -0.3621
  918MOL0     H23918   1.139   2.836   4.995 -0.6696 -0.5241 -0.2652
  918MOL0     H23919   1.145   2.774   5.160  0.6110  0.4004  0.2925
  918MOL0     H23920   1.140   2.535   5.043 -0.8769 -1.3581  0.1535
  918MOL0     H23921   1.090   2.622   4.901  1.4198  1.6884 -0.2583
  918MOL0     H23922   0.927   2.761   5.098  1.7716  1.0354  1.0477
  918MOL0     H23923   0.956   2.605   5.181 -0.9710  0.3110  1.2637
  918MOL0     H23924   0.838   2.630   4.906 -0.9922  0.8527  0.6897
  918MOL0     H23925   0.852   2.486   5.026  2.7613  0.4306 -0.6948
  918MOL0     H23926   0.520   2.658   5.192  0.2338 -2.7486  0.3432
  918MOL0     H23927   1.292   2.908   5.236  0.2524  0.1511  0.4473
  918MOL0     H23928   1.464   2.986   5.493  0.6392 -0.6267 -0.3451
  918MOL0     H23929   1.526   3.125   5.413  1.0007 -1.1689 -0.4812
  918MOL0     H23930   1.359   3.085   5.390 -0.4807 -0.3547  2.8687
  919MOL0     O23931   1.416   9.552  10.123 -0.1290 -0.8085  0.6653
  919MOL0     C23932   1.376   9.584  10.231  0.4209  1.3228 -0.1653
  919MOL0     O23933   1.351   9.495  10.328 -0.0265  0.2723 -0.3777
  919MOL0     C23934   1.384   9.362  10.308 -0.1551 -0.2682  0.3263
  919MOL0     C23935   1.515   9.306  10.312 -0.2819 -0.1529  0.3382
  919MOL0     C23936   1.540   9.167  10.297  0.6907  0.4598  0.1343
  919MOL0     C23937   1.430   9.076  10.268 -0.4580 -0.7093  0.1576
  919MOL0     O23938   1.446   8.942  10.255 -0.5171  0.2195 -0.0541
  919MOL0     C23939   1.394   8.878  10.139 -0.5850  0.0307  0.7454
  919MOL0     C23940   1.447   8.736  10.131  0.2056 -0.4382 -0.5205
  919MOL0     C23941   1.372   8.671  10.010 -0.1800  0.4618 -0.5344
  919MOL0     C23942   1.226   8.631  10.059 -0.3769  0.0293 -0.7290
  919MOL0     C23943   1.184   8.489  10.005  0.3326 -0.2154  0.2535
  919MOL0     C23944   1.165   8.477   9.855 -0.9689  0.5394  0.1598
  919MOL0     C23945   1.100   8.355   9.803 -0.3691  0.4597  0.1978
  919MOL0     C23946   0.955   8.395   9.752 -0.2051  0.0653  0.3487
  919MOL0     N23947   0.939   8.405   9.603 -0.0736 -0.3815 -0.0601
  919MOL0     C23948   0.973   8.517   9.529  0.7941  1.3443 -0.0674
  919MOL0     C23949   0.941   8.483   9.403 -0.2999  0.9735 -0.3457
  919MOL0     C23950   0.970   8.576   9.289  0.1141  0.4622 -0.4453
  919MOL0     C23951   1.097   8.539   9.228 -0.5087 -0.3042 -0.0539
  919MOL0     C23952   1.118   8.620   9.103  0.3168  0.1640  0.0431
  919MOL0     C23953   1.170   8.760   9.105 -0.0239  0.5725 -0.5100
  919MOL0     O23954   1.289   8.780   9.179  0.4183  0.5485  0.4997
  919MOL0     C23955   1.418   8.738   9.127  1.0161 -0.8805 -0.7065
  919MOL0     C23956   1.444   8.657   9.014 -0.0270  0.2460 -0.2261
  919MOL0     C23957   1.575   8.609   8.992 -0.3288 -0.0603 -0.0286
  919MOL0     C23958   1.687   8.639   9.076  0.1317  0.2025 -0.2246
  919MOL0     C23959   1.812   8.570   9.050 -0.4014 -1.0148 -0.8911
  919MOL0     O23960   1.919   8.622   9.102 -0.2307  0.0404  0.6806
  919MOL0     C23961   2.034   8.558   9.079 -1.4146  0.2521 -0.4592
  919MOL0     C23962   2.137   8.568   9.178 -0.0962 -0.2697  0.6017
  919MOL0     C23963   2.259   8.497   9.171  0.2794  0.3506  0.2962
  919MOL0     C23964   2.288   8.421   9.057 -0.9474 -0.5205 -1.1212
  919MOL0     O23965   2.399   8.341   9.041  0.2668  0.2154 -0.1577
  919MOL0     C23966   2.449   8.261   9.152 -0.8278 -0.1838  0.8206
  919MOL0     C23967   2.596   8.221   9.109 -0.8642 -0.0326  0.6252
  919MOL0     C23968   2.682   8.342   9.070  0.2422  0.8040 -0.7658
  919MOL0     C23969   2.660   8.462   9.161  0.2788 -0.7193  0.8311
  919MOL0     C23970   2.753   8.583   9.112 -0.0313  0.6740 -0.1258
  919MOL0     C23971   2.883   8.591   9.191  0.6108 -0.1262  0.7502
  919MOL0     C23972   2.992   8.679   9.132  0.3102  0.5409 -0.6336
  919MOL0     C23973   2.934   8.815   9.120 -0.2780 -0.1684  0.6104
  919MOL0    Cl23974   3.068   8.923   9.072  0.2011 -0.0671  0.0083
  919MOL0     C23975   2.194   8.412   8.957 -0.5439 -0.4023 -0.1655
  919MOL0     C23976   2.073   8.481   8.969  0.0531 -0.6682  0.0205
  919MOL0     O23977   1.803   8.461   9.006  0.5905  0.7470 -0.5657
  919MOL0     C23978   1.658   8.725   9.185  0.7858 -0.4082 -0.5335
  919MOL0     C23979   1.530   8.775   9.204  0.3724  0.1905 -0.3551
  919MOL0     N23980   0.875   8.363   9.415 -0.2954 -0.1096  0.8624
  919MOL0     N23981   0.871   8.314   9.533  0.8873 -0.5182  0.1049
  919MOL0     C23982   1.298   9.141  10.252  0.1412  0.5325 -0.0952
  919MOL0     C23983   1.281   9.280  10.268 -0.2327  0.9353 -0.8291
  919MOL0     C23984   1.329   9.726  10.243  0.8254 -1.1184  0.1284
  919MOL0     C23985   1.416   9.835  10.218 -0.3999 -0.7366 -0.3494
  919MOL0     C23986   1.365   9.968  10.222  0.4103 -0.1826 -0.2729
  919MOL0     C23987   1.235   9.991  10.272 -0.0597  0.3099  0.2654
  919MOL0     O23988   1.173  10.113  10.290  0.2265 -0.5849  0.7467
  919MOL0     C23989   1.166  10.144  10.427  0.0449 -0.2209 -0.3249
  919MOL0     C23990   1.033  10.143  10.489  0.7208 -0.7205  0.7999
  919MOL0     C23991   0.935  10.239  10.415  0.3654  0.0344 -0.1067
  919MOL0     C23992   0.965  10.382  10.428 -1.1270  0.2287  0.4578
  919MOL0     C23993   0.923  10.446  10.545 -0.1070  0.3026 -0.1465
  919MOL0     C23994   0.883  10.511  10.640  0.5953  1.1356 -0.7095
  919MOL0     C23995   1.149   9.890  10.288  0.0062  0.3148  1.6033
  919MOL0     C23996   1.190   9.756  10.266  0.4135 -0.3956 -0.0774
  919MOL0     C23997   1.069   9.664  10.278  0.1914  0.0856 -0.1347
  919MOL0     H23998   1.596   9.379  10.320 -1.4755  1.6187 -2.1746
  919MOL0     H23999   1.636   9.118  10.282 -0.6027 -2.2264  0.0014
  919MOL0     H24000   1.288   8.880  10.164 -0.5925  1.2821  0.6327
  919MOL0     H24001   1.419   8.937  10.051 -3.1553  1.4893  0.9097
  919MOL0     H24002   1.437   8.685  10.228 -1.4976  0.9022  0.0799
  919MOL0     H24003   1.554   8.746  10.113  0.0389  4.2519 -0.1619
  919MOL0     H24004   1.423   8.580   9.979 -0.3106 -0.4723  1.7949
  919MOL0     H24005   1.366   8.731   9.919 -0.0028 -0.1382 -0.9454
  919MOL0     H24006   1.209   8.634  10.167 -0.5840 -4.0662 -0.4918
  919MOL0     H24007   1.143   8.690  10.019  1.1060  1.5433 -1.7330
  919MOL0     H24008   1.267   8.425  10.037  1.2384 -0.5596 -2.5761
  919MOL0     H24009   1.092   8.452  10.052  0.3044  0.1731  0.5100
  919MOL0     H24010   1.115   8.567   9.819  2.9018  1.7829 -2.9526
  919MOL0     H24011   1.265   8.488   9.811 -0.4576  1.3302  1.4647
  919MOL0     H24012   1.092   8.287   9.889 -0.8874 -1.6253 -1.4091
  919MOL0     H24013   1.163   8.307   9.728 -0.4410  0.0884  0.3717
  919MOL0     H24014   0.884   8.317   9.783  1.1347 -2.8968 -3.3055
  919MOL0     H24015   0.916   8.488   9.795  2.6044  0.8534  1.4416
  919MOL0     H24016   1.028   8.601   9.568  1.0518  1.7889 -1.3564
  919MOL0     H24017   0.896   8.579   9.209  1.4619 -0.4083 -1.7918
  919MOL0     H24018   0.984   8.678   9.328  0.6045  1.3102 -2.6947
  919MOL0     H24019   1.179   8.545   9.300 -0.5731 -1.1344  0.0968
  919MOL0     H24020   1.098   8.434   9.197 -3.9298 -0.8650  1.3342
  919MOL0     H24021   1.022   8.628   9.050  0.8290  2.5137 -0.6746
  919MOL0     H24022   1.188   8.571   9.035 -0.9957  2.3841 -3.1609
  919MOL0     H24023   1.094   8.831   9.139 -1.4485 -0.2020 -1.8984
  919MOL0     H24024   1.195   8.780   9.000 -1.9053  1.9839 -0.7431
  919MOL0     H24025   1.380   8.637   8.929 -0.7890  2.3547 -0.2236
  919MOL0     H24026   1.602   8.556   8.901  1.3413 -2.8453  1.9662
  919MOL0     H24027   2.110   8.628   9.264 -1.5698  2.2856 -1.4874
  919MOL0     H24028   2.331   8.485   9.252 -0.7520 -1.9711  0.9543
  919MOL0     H24029   2.458   8.318   9.245 -1.0986 -1.5769  1.7157
  919MOL0     H24030   2.377   8.180   9.163  0.3742 -1.3832  0.1173
  919MOL0     H24031   2.646   8.156   9.182 -0.0633 -1.2877 -0.9853
  919MOL0     H24032   2.584   8.156   9.022  0.6317  1.5610 -0.8425
  919MOL0     H24033   2.784   8.308   9.091 -0.3627  0.2790  1.5949
  919MOL0     H24034   2.683   8.368   8.964  0.3410  2.9642 -0.2818
  919MOL0     H24035   2.676   8.443   9.267  0.0538  1.6345  1.3438
  919MOL0     H24036   2.560   8.504   9.149  0.9308  0.2349 -2.0437
  919MOL0     H24037   2.684   8.667   9.114  0.1677  0.8820 -1.2526
  919MOL0     H24038   2.778   8.570   9.006  0.6455 -0.7020  0.1748
  919MOL0     H24039   2.858   8.627   9.292 -1.8534 -0.1855  0.2375
  919MOL0     H24040   2.919   8.489   9.209 -0.1271 -0.2820  1.4238
  919MOL0     H24041   3.017   8.633   9.036 -0.8564  1.6271 -1.5006
  919MOL0     H24042   3.085   8.699   9.185 -0.6661  1.6402  0.7753
  919MOL0     H24043   2.851   8.815   9.048 -2.5409  2.7728  2.9488
  919MOL0     H24044   2.892   8.842   9.217  0.2119  2.1429  0.2412
  919MOL0     H24045   2.229   8.378   8.860  0.4428  1.1171 -0.3877
  919MOL0     H24046   2.009   8.478   8.882  0.7120  0.5639 -0.5341
  919MOL0     H24047   1.725   8.765   9.260 -0.6649 -0.0007  0.6042
  919MOL0     H24048   1.524   8.839   9.291  1.9185 -1.9522  1.4698
  919MOL0     H24049   1.219   9.082  10.205  0.9249 -0.2788 -0.4360
  919MOL0     H24050   1.178   9.310  10.255  0.5419  2.8456 -3.3877
  919MOL0     H24051   1.519   9.820  10.185  0.1786  2.7837 -0.5425
  919MOL0     H24052   1.426  10.057  10.207 -0.0258  0.5504  1.9469
  919MOL0     H24053   1.217  10.240  10.441  0.7329 -0.2245 -2.4811
  919MOL0     H24054   1.210  10.062  10.485  0.6157 -0.2810 -0.8328
  919MOL0     H24055   1.051  10.180  10.590  0.0915  1.9736 -0.0095
  919MOL0     H24056   0.990  10.042  10.484 -2.4124  0.5322 -1.1569
  919MOL0     H24057   0.839  10.203  10.451 -1.0549  0.4368 -3.1930
  919MOL0     H24058   0.940  10.213  10.309  1.8590  4.1760 -1.2652
  919MOL0     H24059   1.073  10.396  10.424 -0.7507 -2.3808 -1.4543
  919MOL0     H24060   0.922  10.432  10.341  1.2740  0.9285 -0.4042
  919MOL0     H24061   0.836  10.566  10.719  0.8634 -0.2275  0.4363
  919MOL0     H24062   1.045   9.911  10.310 -1.2283 -0.2224 -2.7298
  919MOL0     H24063   0.976   9.721  10.280  0.1763  0.0494  0.4556
  919MOL0     H24064   1.069   9.595  10.193  0.0305  2.1039 -1.8569
  919MOL0     H24065   1.077   9.596  10.364  0.8864 -1.2477 -1.2050
  920MOL0     O24066   2.610   9.996   0.843 -0.2348 -0.1997 -0.2799
  920MOL0     C24067   2.496  10.036   0.809  0.3549  0.2793  0.1029
  920MOL0     O24068   2.449  10.168   0.808 -0.5955  0.5576  0.0364
  920MOL0     C24069   2.503  10.271   0.880 -0.2902  0.4499 -0.0113
  920MOL0     C24070   2.490  10.399   0.810 -0.5273 -0.1030 -1.0097
  920MOL0     C24071   2.544  10.507   0.886 -0.1454 -0.5362 -0.0686
  920MOL0     C24072   2.618  10.491   1.003 -0.6490  0.3068 -0.6261
  920MOL0     O24073   2.668  10.599   1.070  0.0026 -0.4143  0.2268
  920MOL0     C24074   2.563  10.682   1.140 -0.1402  0.1501 -1.1525
  920MOL0     C24075   2.639  10.798   1.207  0.4219  0.1105 -0.4442
  920MOL0     C24076   2.698  10.901   1.109 -0.0442  0.1072  0.2779
  920MOL0     C24077   2.759  11.007   1.199 -0.0276  0.1902 -0.3874
  920MOL0     C24078   2.762  11.146   1.120  0.5920 -1.3530  0.1718
  920MOL0     C24079   2.859  11.232   1.211 -0.1284  0.0210  0.1041
  920MOL0     C24080   2.856  11.374   1.161 -0.5952 -0.1471 -0.6754
  920MOL0     C24081   2.757  11.472   1.230 -0.2706 -0.1342  1.3118
  920MOL0     N24082   2.766  11.613   1.178 -0.1623  0.3184  0.1698
  920MOL0     C24083   2.770  11.727   1.252  0.2527  0.0094  0.6086
  920MOL0     C24084   2.773  11.829   1.159  0.2160 -0.2975  0.7547
  920MOL0     C24085   2.792  11.972   1.187 -0.5460  0.2450  0.0816
  920MOL0     C24086   2.676  12.064   1.149 -0.0593 -0.5052 -0.7404
  920MOL0     C24087   2.573  12.080   1.260 -0.2240  0.3516 -0.0427
  920MOL0     C24088   2.426  12.048   1.230  0.2117 -0.2346  0.7401
  920MOL0     O24089   2.409  11.951   1.127  0.3734 -0.1016  0.1106
  920MOL0     C24090   2.312  11.855   1.145  0.1975 -0.7122 -0.0303
  920MOL0     C24091   2.328  11.740   1.075  0.8191 -0.2269 -0.6244
  920MOL0     C24092   2.237  11.639   1.088 -0.2357 -0.1787 -0.0592
  920MOL0     C24093   2.123  11.641   1.171 -0.4714 -0.5846  0.6894
  920MOL0     C24094   2.035  11.523   1.196 -0.5678  0.4103  0.3842
  920MOL0     O24095   1.920  11.541   1.267 -0.1294 -0.0536  0.5317
  920MOL0     C24096   1.836  11.435   1.287 -0.5005 -0.9914 -0.5947
  920MOL0     C24097   1.784  11.358   1.177 -0.0799  0.0792 -0.0602
  920MOL0     C24098   1.679  11.263   1.194  0.5056  0.5825 -0.1108
  920MOL0     C24099   1.625  11.250   1.324 -0.3669 -0.3421 -0.8268
  920MOL0     O24100   1.510  11.172   1.352  0.2931 -0.4718  0.1898
  920MOL0     C24101   1.460  11.073   1.258  0.0853  0.3194  0.0767
  920MOL0     C24102   1.555  10.949   1.251  0.5405 -0.8961  0.2376
  920MOL0     C24103   1.567  10.861   1.381  0.0249 -0.4350  0.1672
  920MOL0     C24104   1.674  10.751   1.380  0.9019 -0.5964 -1.0686
  920MOL0     C24105   1.646  10.647   1.491  1.2739  0.0968 -1.0722
  920MOL0     C24106   1.757  10.542   1.514  0.1716  0.3900  1.0095
  920MOL0     C24107   1.890  10.610   1.561 -1.1125  0.0843 -0.6946
  920MOL0     C24108   1.986  10.521   1.645  0.2220 -0.2633 -0.1945
  920MOL0    Cl24109   1.926  10.535   1.813  0.0207  0.5179  0.3722
  920MOL0     C24110   1.679  11.323   1.437 -0.8176  0.0102  1.1087
  920MOL0     C24111   1.785  11.420   1.418  0.4416 -0.4467  0.5073
  920MOL0     O24112   2.075  11.408   1.158  0.3650 -0.3059  0.0049
  920MOL0     C24113   2.104  11.765   1.236 -0.4717 -0.2237 -0.3352
  920MOL0     C24114   2.199  11.874   1.225 -0.0673 -0.5106  0.0067
  920MOL0     N24115   2.755  11.778   1.034  0.1157 -0.2465 -0.6376
  920MOL0     N24116   2.737  11.650   1.052  0.9522  0.0536  0.1504
  920MOL0     C24117   2.626  10.365   1.067  0.3814  0.1936  0.2122
  920MOL0     C24118   2.560  10.259   1.011 -0.2066  0.2730  0.0818
  920MOL0     C24119   2.392   9.940   0.756 -0.4749 -1.0768 -0.0420
  920MOL0     C24120   2.272   9.988   0.708  0.2715  0.1032 -0.2639
  920MOL0     C24121   2.168   9.899   0.662  0.1287  0.6306  0.5117
  920MOL0     C24122   2.187   9.762   0.661 -0.1758  0.1006  0.5203
  920MOL0     O24123   2.087   9.661   0.629 -0.3881 -0.0445  0.1738
  920MOL0     C24124   1.959   9.701   0.662  0.6640  0.7062 -0.0886
  920MOL0     C24125   1.883   9.567   0.657  0.2806  0.1818  0.1261
  920MOL0     C24126   1.739   9.570   0.724 -1.2796 -0.0255  1.2262
  920MOL0     C24127   1.663   9.441   0.682  0.5807  0.3150  0.0075
  920MOL0     C24128   1.524   9.484   0.643 -0.9762  0.0868 -0.1128
  920MOL0     C24129   1.419   9.528   0.596  0.8912  0.2477  0.0887
  920MOL0     C24130   2.304   9.711   0.719  0.1788 -0.3004 -0.8403
  920MOL0     C24131   2.409   9.801   0.770 -0.5578 -0.9305  0.4337
  920MOL0     C24132   2.530   9.722   0.823 -0.6777  0.2852 -0.2852
  920MOL0     H24133   2.445  10.416   0.712 -2.2028  3.1265  0.1604
  920MOL0     H24134   2.548  10.602   0.834  1.0396 -1.7174 -2.3057
  920MOL0     H24135   2.490  10.723   1.071 -2.1001  0.7427  1.1429
  920MOL0     H24136   2.515  10.626   1.221  0.3372 -2.0048 -2.2813
  920MOL0     H24137   2.719  10.760   1.270 -2.2974 -3.8244  1.0325
  920MOL0     H24138   2.568  10.840   1.280 -0.6290  2.1765 -2.5165
  920MOL0     H24139   2.617  10.939   1.046 -0.2909 -0.5943  0.1615
  920MOL0     H24140   2.774  10.856   1.044  0.8620  1.4744  0.3474
  920MOL0     H24141   2.692  11.028   1.283  2.0633 -0.4172  1.5204
  920MOL0     H24142   2.849  10.962   1.241 -1.8298 -1.2954  2.1139
  920MOL0     H24143   2.788  11.133   1.014 -0.5151 -1.1407 -0.1465
  920MOL0     H24144   2.663  11.194   1.120  0.6957 -0.9253 -2.7853
  920MOL0     H24145   2.836  11.232   1.317 -2.4135 -1.2775 -0.3300
  920MOL0     H24146   2.965  11.206   1.198  0.2427  0.3288  2.1934
  920MOL0     H24147   2.840  11.380   1.052 -0.5653  1.2802 -0.6157
  920MOL0     H24148   2.957  11.411   1.174 -0.4361 -0.5685 -0.6911
  920MOL0     H24149   2.650  11.454   1.215  0.0277  0.1576 -1.9989
  920MOL0     H24150   2.778  11.484   1.336 -4.2425 -0.1590  2.2486
  920MOL0     H24151   2.785  11.741   1.358 -1.8383  1.2506  0.8043
  920MOL0     H24152   2.829  11.980   1.289  2.0479  0.7420 -0.7971
  920MOL0     H24153   2.878  12.009   1.128 -2.7878  2.7781 -1.8723
  920MOL0     H24154   2.712  12.165   1.130 -0.5331 -0.2128 -0.1183
  920MOL0     H24155   2.637  12.026   1.054  0.5698 -2.3335 -0.3197
  920MOL0     H24156   2.582  12.179   1.304  0.3675 -0.2073  1.1469
  920MOL0     H24157   2.594  12.005   1.338  1.0959 -0.9314 -1.5520
  920MOL0     H24158   2.384  12.140   1.188 -0.5838 -0.3088  1.3443
  920MOL0     H24159   2.373  12.019   1.320 -1.2136  0.1564  0.0483
  920MOL0     H24160   2.414  11.737   1.009  0.4966  1.4574 -1.1529
  920MOL0     H24161   2.249  11.550   1.026  2.2470 -1.2328  1.7692
  920MOL0     H24162   1.820  11.368   1.075  1.0449  0.5176  0.3705
  920MOL0     H24163   1.630  11.202   1.119  0.7666 -0.4557  0.5370
  920MOL0     H24164   1.358  11.049   1.291  1.0452 -0.9482  2.4256
  920MOL0     H24165   1.447  11.112   1.157 -1.2331  0.1042  0.1547
  920MOL0     H24166   1.527  10.893   1.161  1.6614 -1.0999 -0.0060
  920MOL0     H24167   1.655  10.972   1.213  1.4735 -1.2386  2.3216
  920MOL0     H24168   1.597  10.931   1.459  1.1224 -2.7617  1.9367
  920MOL0     H24169   1.472  10.821   1.416 -0.6404  0.3179 -0.7157
  920MOL0     H24170   1.776  10.792   1.383  0.6931 -0.1307  1.8655
  920MOL0     H24171   1.668  10.693   1.288 -1.7415 -1.7543 -0.2599
  920MOL0     H24172   1.553  10.592   1.475  1.5493 -1.4291  1.8831
  920MOL0     H24173   1.630  10.699   1.586 -1.6280  0.8855 -1.8986
  920MOL0     H24174   1.728  10.458   1.579  1.3169 -0.3705  0.5759
  920MOL0     H24175   1.780  10.505   1.413 -0.2052  0.3639  0.9322
  920MOL0     H24176   1.867  10.696   1.623  0.3562 -1.9671  2.9984
  920MOL0     H24177   1.949  10.632   1.471  6.0152 -4.8461  1.8313
  920MOL0     H24178   1.984  10.417   1.609 -2.4865 -0.3071 -0.0990
  920MOL0     H24179   2.088  10.560   1.650 -0.5157  1.6096  2.4237
  920MOL0     H24180   1.634  11.306   1.534  1.3825  0.0035  2.2002
  920MOL0     H24181   1.820  11.492   1.491 -0.7148  0.7718 -0.0926
  920MOL0     H24182   2.019  11.773   1.302 -0.7251 -1.3727 -0.4986
  920MOL0     H24183   2.178  11.967   1.276  1.0441  1.6487 -3.1901
  920MOL0     H24184   2.674  10.360   1.165  0.1984  2.2910  0.4552
  920MOL0     H24185   2.561  10.162   1.059 -0.5123 -1.9304 -3.9358
  920MOL0     H24186   2.253  10.094   0.694  0.8418  0.2377 -0.0839
  920MOL0     H24187   2.069   9.927   0.628  0.5878  1.0162 -0.5727
  920MOL0     H24188   1.914   9.762   0.583 -2.1104 -2.7604 -1.4556
  920MOL0     H24189   1.954   9.753   0.758 -0.5943 -2.6576  1.8253
  920MOL0     H24190   1.932   9.481   0.704 -2.7135 -1.8900 -0.2608
  920MOL0     H24191   1.873   9.546   0.550 -3.2621 -0.7250  0.5130
  920MOL0     H24192   1.682   9.655   0.685  1.0903  2.1222  2.1771
  920MOL0     H24193   1.751   9.578   0.833 -0.9681 -0.8588  1.2607
  920MOL0     H24194   1.702   9.384   0.597 -1.4611 -0.3566 -0.5273
  920MOL0     H24195   1.654   9.369   0.764  1.3523 -1.0256 -1.0389
  920MOL0     H24196   1.317   9.556   0.579  1.7681  1.9735 -3.2850
  920MOL0     H24197   2.312   9.603   0.725 -0.3081 -0.3090 -0.1787
  920MOL0     H24198   2.609   9.693   0.752 -1.5561  0.5830 -1.4225
  920MOL0     H24199   2.573   9.784   0.902 -0.8144  1.7237 -1.2883
  920MOL0     H24200   2.489   9.633   0.870  0.1756  0.0221 -0.0278
  921MOL0     O24201   3.400  11.041   6.561 -0.0871 -0.5296  0.7640
  921MOL0     C24202   3.418  11.009   6.675 -0.2759  0.8531  0.1217
  921MOL0     O24203   3.331  10.943   6.756 -0.0239 -0.1392  0.4191
  921MOL0     C24204   3.201  10.912   6.717  0.2198 -0.5120 -0.4674
  921MOL0     C24205   3.146  10.809   6.799  0.7673  0.6103 -0.0985
  921MOL0     C24206   3.018  10.768   6.772 -0.9318 -0.3673 -0.6093
  921MOL0     C24207   2.937  10.818   6.673 -0.2694 -0.0938 -0.4756
  921MOL0     O24208   2.808  10.782   6.651 -0.5034  0.0716  0.1060
  921MOL0     C24209   2.763  10.661   6.709  0.5363  1.3222 -0.8301
  921MOL0     C24210   2.640  10.626   6.655  0.5058 -0.3647 -0.0658
  921MOL0     C24211   2.564  10.520   6.753 -0.4052 -0.4274  0.3185
  921MOL0     C24212   2.431  10.470   6.692 -0.3824 -0.2733 -0.4959
  921MOL0     C24213   2.341  10.387   6.777  0.1167  0.0812 -0.1151
  921MOL0     C24214   2.217  10.346   6.689 -0.0651 -0.6146  0.0483
  921MOL0     C24215   2.147  10.251   6.787  0.9216  0.5627  0.5902
  921MOL0     C24216   2.003  10.218   6.740 -0.8889 -0.8032 -0.0024
  921MOL0     N24217   2.009  10.139   6.621  0.1174  0.4108 -0.6489
  921MOL0     C24218   2.017  10.007   6.630 -0.0699  0.4508 -0.3372
  921MOL0     C24219   2.043   9.972   6.503 -0.0488  0.7083 -0.5816
  921MOL0     C24220   2.066   9.834   6.450 -0.3473  0.3321  0.8076
  921MOL0     C24221   2.017   9.716   6.545 -0.4663  0.3565  0.2149
  921MOL0     C24222   2.095   9.577   6.519 -0.0527  0.2079 -0.8438
  921MOL0     C24223   2.057   9.521   6.377  0.4552 -0.0557 -0.3477
  921MOL0     O24224   2.118   9.400   6.342  0.1834 -0.0572  0.6572
  921MOL0     C24225   2.257   9.392   6.320 -0.5101 -0.6260  0.1246
  921MOL0     C24226   2.293   9.273   6.269 -0.7309 -0.7620 -1.3960
  921MOL0     C24227   2.420   9.242   6.245 -1.0596 -0.3302  1.1221
  921MOL0     C24228   2.526   9.337   6.263 -1.1586 -0.4727  0.3901
  921MOL0     C24229   2.673   9.300   6.247 -0.0481  0.4504 -0.9626
  921MOL0     O24230   2.761   9.397   6.267 -0.1750  0.2781 -0.3271
  921MOL0     C24231   2.897   9.382   6.252  0.1890  0.8273  0.2789
  921MOL0     C24232   2.972   9.498   6.251  0.3269 -0.5577  0.2562
  921MOL0     C24233   3.112   9.506   6.253 -0.6554 -0.4700  0.2809
  921MOL0     C24234   3.181   9.383   6.247  1.3307 -0.0497  0.4220
  921MOL0     O24235   3.313   9.363   6.254 -0.6429 -0.0750  0.5320
  921MOL0     C24236   3.396   9.469   6.300 -0.2720  0.1087 -0.8907
  921MOL0     C24237   3.437   9.549   6.177  0.0116 -0.0155 -0.2717
  921MOL0     C24238   3.574   9.626   6.155  0.3314  0.3449 -0.6982
  921MOL0     C24239   3.679   9.533   6.084  0.5824 -0.4480 -0.1188
  921MOL0     C24240   3.811   9.603   6.053 -0.4652 -0.1218 -0.3509
  921MOL0     C24241   3.804   9.728   5.968  0.4491 -0.3648 -0.6517
  921MOL0     C24242   3.929   9.795   5.935  0.1764 -0.7062 -0.4083
  921MOL0     C24243   3.900   9.946   5.902 -0.0516  0.0402  0.5165
  921MOL0    Cl24244   3.786   9.951   5.760 -0.3819 -0.1942  0.0533
  921MOL0     C24245   3.110   9.265   6.231 -0.4720 -0.0751 -0.8744
  921MOL0     C24246   2.969   9.255   6.240 -0.4023 -0.8418 -0.0953
  921MOL0     O24247   2.700   9.190   6.202 -0.7903 -0.3071 -0.3321
  921MOL0     C24248   2.490   9.460   6.320  0.5487 -0.1731  0.6955
  921MOL0     C24249   2.356   9.491   6.334 -0.2053  0.5045 -1.1883
  921MOL0     N24250   2.047  10.080   6.424 -0.4781  0.3387  0.2073
  921MOL0     N24251   2.026  10.182   6.497  0.4223 -0.1290  1.1421
  921MOL0     C24252   2.991  10.926   6.599 -0.5309  0.4259  0.0372
  921MOL0     C24253   3.121  10.981   6.618 -0.1030  1.0275  0.1919
  921MOL0     C24254   3.551  11.014   6.737 -1.4640  0.4301 -0.4465
  921MOL0     C24255   3.570  10.958   6.865 -0.2092  0.6379  0.0365
  921MOL0     C24256   3.681  10.990   6.943  0.5029 -0.1874  0.0364
  921MOL0     C24257   3.793  11.035   6.874 -0.6860 -1.5934  0.0440
  921MOL0     O24258   3.926  11.038   6.911 -0.4975  0.5076  0.3218
  921MOL0     C24259   3.956  10.985   7.037  0.0313  0.7660 -0.0634
  921MOL0     C24260   4.102  11.005   7.077 -0.5625  0.4762  0.5957
  921MOL0     C24261   4.193  10.929   6.971 -0.1178  0.1745 -0.1404
  921MOL0     C24262   4.343  10.971   6.992 -0.0440  0.4787  0.4628
  921MOL0     C24263   4.383  11.088   6.908 -0.7003 -0.4984 -0.0967
  921MOL0     C24264   4.425  11.162   6.825 -0.2206 -0.6416  0.6758
  921MOL0     C24265   3.777  11.089   6.741  0.0306 -0.2749 -0.1888
  921MOL0     C24266   3.659  11.086   6.672  0.0468  0.0488 -0.2509
  921MOL0     C24267   3.662  11.155   6.543 -0.0908 -0.5249 -0.5660
  921MOL0     H24268   3.207  10.781   6.884 -0.6746  2.3707  1.6255
  921MOL0     H24269   2.973  10.681   6.819  0.2618 -0.8538 -0.3415
  921MOL0     H24270   2.839  10.583   6.703  0.7948  1.6048 -1.3489
  921MOL0     H24271   2.749  10.683   6.815  1.2634 -2.5213  0.1961
  921MOL0     H24272   2.650  10.590   6.553 -3.6337  0.0017 -0.7849
  921MOL0     H24273   2.588  10.722   6.646  3.5261  1.8910  3.3872
  921MOL0     H24274   2.545  10.570   6.849  1.4206  1.0527 -0.0248
  921MOL0     H24275   2.612  10.424   6.774 -2.0210 -0.4542  5.2922
  921MOL0     H24276   2.370  10.553   6.656  1.4889  0.2692 -2.6136
  921MOL0     H24277   2.457  10.419   6.599  1.4597  1.2977 -0.9180
  921MOL0     H24278   2.398  10.300   6.807 -2.5783 -0.7014  3.4330
  921MOL0     H24279   2.325  10.452   6.863  2.5652  1.8285 -0.8543
  921MOL0     H24280   2.157  10.432   6.658 -2.7889 -2.0308  1.0989
  921MOL0     H24281   2.263  10.298   6.602 -0.5145  0.1041 -0.5873
  921MOL0     H24282   2.134  10.299   6.885  0.1110  2.4270 -0.3808
  921MOL0     H24283   2.207  10.163   6.812  1.3673  1.0714  1.3681
  921MOL0     H24284   1.954  10.156   6.815 -0.7443  0.4537  1.1888
  921MOL0     H24285   1.948  10.311   6.725  0.3730 -0.0213  0.0182
  921MOL0     H24286   2.024   9.949   6.722  2.2680  1.2729  0.0667
  921MOL0     H24287   2.023   9.816   6.351  2.7468  2.0747 -1.0129
  921MOL0     H24288   2.175   9.829   6.438 -0.0257  2.7914  2.1715
  921MOL0     H24289   2.022   9.738   6.652 -0.1466 -0.1251  0.3019
  921MOL0     H24290   1.911   9.698   6.526 -0.4470 -1.0658  1.2694
  921MOL0     H24291   2.080   9.508   6.603  1.6186  0.4433 -0.3081
  921MOL0     H24292   2.202   9.598   6.533 -0.0284 -0.4663  0.1351
  921MOL0     H24293   2.079   9.587   6.293  4.3586  1.4434  1.5815
  921MOL0     H24294   1.950   9.501   6.376  0.2383  0.7078  1.8328
  921MOL0     H24295   2.215   9.200   6.247 -2.7298  0.1642  1.8585
  921MOL0     H24296   2.438   9.143   6.207 -0.2619 -1.2346  3.6393
  921MOL0     H24297   2.913   9.589   6.242  0.2588 -0.7270 -1.1616
  921MOL0     H24298   3.170   9.598   6.256 -1.0092 -0.2777  2.0600
  921MOL0     H24299   3.353   9.538   6.373 -4.2543 -1.7084 -1.2512
  921MOL0     H24300   3.494   9.433   6.331 -1.7149 -1.8783  1.7408
  921MOL0     H24301   3.417   9.484   6.091 -1.7350 -0.5415  0.4730
  921MOL0     H24302   3.363   9.627   6.154 -0.3007 -0.9393 -2.7161
  921MOL0     H24303   3.562   9.712   6.089 -1.5770 -1.3665 -2.7141
  921MOL0     H24304   3.624   9.651   6.250  1.2948 -3.1296 -0.1544
  921MOL0     H24305   3.626   9.497   5.995 -0.7524  0.6439  0.2121
  921MOL0     H24306   3.702   9.444   6.144  0.5825  0.7808  1.7702
  921MOL0     H24307   3.872   9.535   5.992  2.4358  1.4104  0.6105
  921MOL0     H24308   3.851   9.626   6.152 -2.2572  1.5755  0.0380
  921MOL0     H24309   3.734   9.704   5.888 -1.4649  1.8666  0.2352
  921MOL0     H24310   3.754   9.797   6.037  0.2341  0.8795 -2.0135
  921MOL0     H24311   3.968   9.746   5.845 -4.0409 -2.7073 -1.3894
  921MOL0     H24312   4.002   9.789   6.016  2.0223 -1.8345 -2.0342
  921MOL0     H24313   3.862   9.989   5.995 -0.2340 -0.9067  0.8841
  921MOL0     H24314   3.995   9.995   5.878 -0.5708  1.2406  0.8298
  921MOL0     H24315   3.174   9.177   6.225 -1.3603 -1.1910  3.1926
  921MOL0     H24316   2.919   9.159   6.248  2.0697 -2.0384  3.0289
  921MOL0     H24317   2.555   9.539   6.357 -1.1108 -0.1484  3.9252
  921MOL0     H24318   2.327   9.594   6.353 -3.0916 -0.1532 -1.5707
  921MOL0     H24319   2.919  10.957   6.524 -0.4215 -0.6338 -0.5331
  921MOL0     H24320   3.149  11.052   6.541 -1.8905  0.5538 -0.9498
  921MOL0     H24321   3.492  10.897   6.909 -1.6334  1.7115 -0.9200
  921MOL0     H24322   3.684  10.952   7.045 -0.2002 -0.3745 -0.0074
  921MOL0     H24323   3.919  10.882   7.046 -1.0639  1.2153  0.7181
  921MOL0     H24324   3.900  11.036   7.116  1.7177  0.1720  1.5768
  921MOL0     H24325   4.121  10.952   7.171  1.0652 -0.7884 -0.4009
  921MOL0     H24326   4.127  11.111   7.082  0.9867  0.0889  1.7463
  921MOL0     H24327   4.164  10.941   6.866  2.3215 -0.9489 -1.0364
  921MOL0     H24328   4.183  10.820   6.977  4.2086 -0.5438 -2.0140
  921MOL0     H24329   4.353  11.001   7.097  1.5799  0.7060  0.2729
  921MOL0     H24330   4.400  10.882   6.966 -1.3508 -0.5581  1.0488
  921MOL0     H24331   4.448  11.226   6.742 -1.2989 -4.9186 -3.3322
  921MOL0     H24332   3.863  11.143   6.703  0.0521 -0.0678  0.1472
  921MOL0     H24333   3.602  11.112   6.463 -2.0413  0.8978  0.0617
  921MOL0     H24334   3.619  11.252   6.568 -0.9659 -0.9360 -0.4437
  921MOL0     H24335   3.767  11.168   6.513 -0.0103 -0.0672 -0.0973
  922MOL0     O24336   7.340   0.584   6.720  0.1267 -0.7223 -0.6239
  922MOL0     C24337   7.357   0.663   6.625 -0.8114 -0.0791 -0.1227
  922MOL0     O24338   7.481   0.698   6.581 -0.4585 -0.1597  0.4361
  922MOL0     C24339   7.599   0.671   6.651  0.3468 -0.7535 -0.7592
  922MOL0     C24340   7.697   0.590   6.590 -0.2910  0.2882 -0.9371
  922MOL0     C24341   7.811   0.539   6.656  0.4105 -0.2034 -0.4758
  922MOL0     C24342   7.817   0.559   6.795 -0.8179  0.4375  0.1085
  922MOL0     O24343   7.926   0.502   6.862 -0.0674 -0.7166  0.0537
  922MOL0     C24344   7.923   0.506   7.008 -0.3087 -0.1530  0.7742
  922MOL0     C24345   8.039   0.404   7.054  0.6215  0.5716 -0.0285
  922MOL0     C24346   8.081   0.406   7.205  0.1205 -0.1766  0.5701
  922MOL0     C24347   7.961   0.379   7.294 -0.4603  0.2722  0.0300
  922MOL0     C24348   8.000   0.334   7.439 -0.1521  0.3033  0.5308
  922MOL0     C24349   8.130   0.256   7.455  0.4055  1.5753  0.0517
  922MOL0     C24350   8.147   0.209   7.598 -0.4901 -0.2904  0.1027
  922MOL0     C24351   8.282   0.133   7.610 -0.2317 -1.0389 -0.2031
  922MOL0     N24352   8.400   0.218   7.620 -0.5811 -0.7826  0.5204
  922MOL0     C24353   8.437   0.299   7.728  0.1498 -0.6796 -0.4534
  922MOL0     C24354   8.567   0.324   7.699  0.6287 -0.0391 -0.2989
  922MOL0     C24355   8.657   0.386   7.801  0.0600 -0.3768 -0.0896
  922MOL0     C24356   8.683   0.293   7.923  0.1202 -0.3505  0.8362
  922MOL0     C24357   8.756   0.357   8.047  0.5166 -0.6004  0.3345
  922MOL0     C24358   8.899   0.420   8.030  0.2814  0.4016 -0.4188
  922MOL0     O24359   8.952   0.477   8.152 -0.2787 -0.5634  0.7858
  922MOL0     C24360   9.070   0.550   8.147  0.1614  1.7122 -0.4978
  922MOL0     C24361   9.143   0.574   8.026 -0.7246  0.5330  0.2233
  922MOL0     C24362   9.251   0.662   8.032  0.2756  0.0557 -0.0962
  922MOL0     C24363   9.287   0.723   8.152  0.6796 -0.5018 -0.5087
  922MOL0     C24364   9.400   0.816   8.149  0.3059 -0.3389 -0.4252
  922MOL0     O24365   9.403   0.913   8.246 -0.7099  0.0020  0.4062
  922MOL0     C24366   9.521   0.995   8.241 -0.2141  0.5712 -0.3597
  922MOL0     C24367   9.648   0.937   8.270  0.4028  0.7241  0.6144
  922MOL0     C24368   9.763   1.016   8.269  0.5241 -0.2029 -0.2156
  922MOL0     C24369   9.751   1.151   8.251 -0.2650  0.3312 -0.3364
  922MOL0     O24370   9.857   1.241   8.271  0.6393 -0.4291 -1.3902
  922MOL0     C24371   9.970   1.220   8.201 -0.4481 -0.4336  0.9223
  922MOL0     C24372  10.068   1.345   8.181  0.3861 -1.1350  0.6708
  922MOL0     C24373  10.021   1.450   8.079  1.0799 -0.1847  1.0993
  922MOL0     C24374   9.885   1.502   8.129  0.0416  0.8278 -0.0587
  922MOL0     C24375   9.847   1.633   8.072 -0.1515  0.5810 -0.0793
  922MOL0     C24376   9.708   1.694   8.110  0.2087  0.4633  0.2553
  922MOL0     C24377   9.660   1.808   8.014  0.9298  0.3813 -0.0218
  922MOL0     C24378   9.506   1.845   8.059  0.7566  0.0098  0.7351
  922MOL0    Cl24379   9.475   1.907   8.227  0.0813  0.0999  0.1051
  922MOL0     C24380   9.629   1.208   8.230  0.1543 -0.4619 -0.9918
  922MOL0     C24381   9.511   1.132   8.215  0.0232 -0.0468  0.4104
  922MOL0     O24382   9.480   0.802   8.056 -0.1357 -0.1126  0.4173
  922MOL0     C24383   9.222   0.698   8.268 -0.8813  0.1644 -0.7380
  922MOL0     C24384   9.111   0.603   8.264  0.1020 -0.8932  0.5307
  922MOL0     N24385   8.606   0.269   7.579 -0.2525  0.6553 -0.2870
  922MOL0     N24386   8.503   0.205   7.532  0.8194  0.1948  0.1441
  922MOL0     C24387   7.719   0.641   6.856  0.2943 -0.2902  0.3323
  922MOL0     C24388   7.618   0.698   6.782 -0.3964 -0.8464  0.2995
  922MOL0     C24389   7.240   0.710   6.559  1.4536 -0.9947  0.4002
  922MOL0     C24390   7.136   0.614   6.520 -1.2240  0.1971  0.3296
  922MOL0     C24391   7.027   0.655   6.455  0.8744 -0.6225  1.0456
  922MOL0     C24392   7.004   0.797   6.429  0.3898  1.5870 -0.5536
  922MOL0     O24393   6.890   0.854   6.374 -0.2511  0.0984 -0.2269
  922MOL0     C24394   6.806   0.771   6.299  0.1830 -0.2084  0.4414
  922MOL0     C24395   6.728   0.664   6.382  0.5106 -0.6173 -0.6084
  922MOL0     C24396   6.589   0.718   6.413 -0.0322  0.4644  0.4902
  922MOL0     C24397   6.586   0.860   6.478 -0.3426 -0.4129  0.2642
  922MOL0     C24398   6.610   0.851   6.625 -0.7174  0.1762 -1.1255
  922MOL0     C24399   6.621   0.834   6.743  0.8142  0.3205 -0.4988
  922MOL0     C24400   7.100   0.889   6.463  0.8581 -0.0178 -0.4750
  922MOL0     C24401   7.216   0.849   6.532 -0.1933  0.0278 -0.4047
  922MOL0     C24402   7.312   0.961   6.552  0.0443  1.1490 -0.6256
  922MOL0     H24403   7.681   0.561   6.487 -0.0529  0.1440 -0.9351
  922MOL0     H24404   7.880   0.467   6.613  0.7215 -0.3562  0.2648
  922MOL0     H24405   7.950   0.603   7.051  1.4602 -0.3253  0.1052
  922MOL0     H24406   7.827   0.468   7.046 -0.3332  0.0022  0.8720
  922MOL0     H24407   8.130   0.429   6.998  1.1683 -1.4614 -0.1150
  922MOL0     H24408   8.009   0.300   7.037 -0.6081  1.2339 -2.4291
  922MOL0     H24409   8.123   0.505   7.226  1.3743 -1.0750  2.6099
  922MOL0     H24410   8.166   0.338   7.219 -2.6058 -4.1728 -0.4980
  922MOL0     H24411   7.902   0.469   7.276  2.4145  2.0095 -1.3695
  922MOL0     H24412   7.910   0.288   7.261 -1.0488  0.7229 -0.3010
  922MOL0     H24413   8.031   0.426   7.490  2.4267  0.0201 -0.3640
  922MOL0     H24414   7.918   0.285   7.493  0.6930 -0.9065  0.7548
  922MOL0     H24415   8.146   0.166   7.394  0.4537  1.2092  0.5938
  922MOL0     H24416   8.217   0.315   7.427  4.0592 -3.5199 -0.7408
  922MOL0     H24417   8.067   0.137   7.616  0.1197 -1.2401 -0.9130
  922MOL0     H24418   8.145   0.290   7.672  2.4177  0.0968 -0.1175
  922MOL0     H24419   8.275   0.069   7.699 -1.6210 -1.9415 -0.9101
  922MOL0     H24420   8.292   0.071   7.520  1.9148 -1.7702  0.4842
  922MOL0     H24421   8.385   0.303   7.823 -1.2624  1.5972 -1.2347
  922MOL0     H24422   8.757   0.405   7.762  0.2198 -1.1719 -0.0789
  922MOL0     H24423   8.619   0.485   7.827  0.0759 -0.2037 -0.7166
  922MOL0     H24424   8.590   0.252   7.962  0.2441 -3.3631 -1.6386
  922MOL0     H24425   8.740   0.206   7.888 -2.0936 -1.0664 -1.2697
  922MOL0     H24426   8.762   0.277   8.121 -0.0566 -2.0632 -1.1511
  922MOL0     H24427   8.692   0.432   8.094  1.1992  0.7221 -0.7621
  922MOL0     H24428   8.897   0.505   7.961  2.1414 -0.5798 -1.7734
  922MOL0     H24429   8.969   0.346   7.991  0.6687 -0.2765  1.4550
  922MOL0     H24430   9.117   0.538   7.928  2.1332 -0.2509 -0.3145
  922MOL0     H24431   9.285   0.685   7.932  0.0696 -2.3092 -0.7726
  922MOL0     H24432   9.654   0.836   8.309 -1.8599 -0.5178 -1.9176
  922MOL0     H24433   9.860   0.968   8.280  0.3457 -0.7383 -0.8805
  922MOL0     H24434  10.031   1.136   8.238  0.7110  0.5596  1.3425
  922MOL0     H24435   9.942   1.199   8.097  2.5964  1.3111 -0.3764
  922MOL0     H24436  10.091   1.384   8.280  3.3194 -2.7969  0.7365
  922MOL0     H24437  10.165   1.313   8.143 -0.2497 -1.2045 -0.9959
  922MOL0     H24438  10.087   1.529   8.042 -0.4056  0.2310 -0.8830
  922MOL0     H24439   9.994   1.391   7.990 -0.3679  1.8997  0.0462
  922MOL0     H24440   9.891   1.525   8.236 -1.0067  5.8503 -0.8164
  922MOL0     H24441   9.811   1.424   8.108  2.1777 -2.0361  2.3152
  922MOL0     H24442   9.835   1.619   7.964 -0.6147 -1.0282  0.1410
  922MOL0     H24443   9.934   1.698   8.081  0.1911  0.2658 -0.9192
  922MOL0     H24444   9.633   1.616   8.095  0.1271  0.9410 -2.1950
  922MOL0     H24445   9.714   1.727   8.214  4.3882  0.1483  0.2846
  922MOL0     H24446   9.658   1.769   7.912 -4.8238  0.7249 -0.3808
  922MOL0     H24447   9.719   1.899   8.028 -0.0073  0.6758  2.6660
  922MOL0     H24448   9.462   1.928   8.003  1.0165  0.6401  1.4479
  922MOL0     H24449   9.447   1.757   8.031  2.1150 -0.9093  0.6823
  922MOL0     H24450   9.626   1.313   8.203 -0.6359 -0.7870 -2.3097
  922MOL0     H24451   9.412   1.172   8.196  0.9084  1.2558 -1.8420
  922MOL0     H24452   9.263   0.748   8.356  0.7508 -1.5013 -0.4988
  922MOL0     H24453   9.064   0.568   8.356 -3.2644 -3.6753 -1.9991
  922MOL0     H24454   7.724   0.672   6.960 -2.0279 -0.6888  0.5948
  922MOL0     H24455   7.537   0.723   6.850  0.0172 -1.2039  0.9328
  922MOL0     H24456   7.145   0.506   6.530  2.0675  0.1628 -1.6900
  922MOL0     H24457   6.964   0.571   6.425  0.7295  0.0736 -0.7404
  922MOL0     H24458   6.870   0.726   6.222  1.8028  0.3842  1.3928
  922MOL0     H24459   6.730   0.826   6.242  1.8521  0.4160 -1.3071
  922MOL0     H24460   6.776   0.627   6.473 -0.8748 -3.7428 -1.0452
  922MOL0     H24461   6.726   0.575   6.320  1.7709 -0.3471 -1.0673
  922MOL0     H24462   6.543   0.653   6.488 -0.2999  0.9692  0.7616
  922MOL0     H24463   6.524   0.708   6.326 -1.2726 -0.8526  1.5164
  922MOL0     H24464   6.668   0.927   6.448  1.7118 -2.3914  1.1472
  922MOL0     H24465   6.485   0.898   6.458  0.5172  0.6066 -2.7428
  922MOL0     H24466   6.622   0.819   6.850  2.5282 -0.4000 -0.5868
  922MOL0     H24467   7.083   0.993   6.439  1.0755  0.8783  2.8250
  922MOL0     H24468   7.267   1.050   6.508  0.4512  0.5114 -2.4208
  922MOL0     H24469   7.328   0.978   6.659  1.2017 -0.5086 -0.4952
  922MOL0     H24470   7.408   0.947   6.501 -0.4713  2.7198 -2.1040
  923MOL0     O24471   5.694   0.704   0.691 -0.1017 -1.1266 -0.1156
  923MOL0     C24472   5.692   0.598   0.633 -0.4284 -0.5518  0.0112
  923MOL0     O24473   5.797   0.514   0.618 -0.5376 -0.4147 -0.4737
  923MOL0     C24474   5.899   0.509   0.709 -0.2784  0.2862  0.1866
  923MOL0     C24475   5.893   0.533   0.846 -0.0296 -0.9293  0.1643
  923MOL0     C24476   6.010   0.513   0.923 -0.0511 -0.0887  0.5350
  923MOL0     C24477   6.136   0.477   0.868 -1.2052 -0.2554  0.4672
  923MOL0     O24478   6.243   0.468   0.957  0.4606  0.3909 -0.5640
  923MOL0     C24479   6.377   0.445   0.911 -0.4208  0.0870  0.3430
  923MOL0     C24480   6.436   0.574   0.860 -0.3527  0.5030  1.4688
  923MOL0     C24481   6.585   0.568   0.821 -0.9513  0.1058  0.1244
  923MOL0     C24482   6.644   0.708   0.766  0.3418  0.1511 -0.6975
  923MOL0     C24483   6.790   0.695   0.715 -0.2684  0.3016 -0.4892
  923MOL0     C24484   6.841   0.827   0.676  0.8992  0.5573  0.8606
  923MOL0     C24485   6.884   0.914   0.788  0.7731 -0.6088 -0.4074
  923MOL0     C24486   6.916   1.069   0.755 -0.3006  0.1073 -0.2896
  923MOL0     N24487   7.031   1.066   0.661  0.1239  0.4658  0.4545
  923MOL0     C24488   7.038   1.042   0.524 -0.2703 -0.3438 -0.1701
  923MOL0     C24489   7.172   1.036   0.494  0.2663 -0.1335 -0.0432
  923MOL0     C24490   7.229   1.016   0.358  0.6714 -0.4390  0.1834
  923MOL0     C24491   7.380   0.999   0.361  0.6151  0.0837  0.1153
  923MOL0     C24492   7.417   0.926   0.238 -0.4523 -1.1067  0.4403
  923MOL0     C24493   7.568   0.875   0.249 -0.0150  0.8685  0.2436
  923MOL0     O24494   7.621   0.896   0.112  0.1642  0.1305  0.2253
  923MOL0     C24495   7.753   0.883   0.091 -0.0064 -0.4607 -0.2209
  923MOL0     C24496   7.805   0.906  -0.034 -0.0540  0.7463  0.0168
  923MOL0     C24497   7.942   0.879  -0.064  0.6308  0.9804 -0.8362
  923MOL0     C24498   8.026   0.822   0.032 -0.7878 -0.1722  0.4997
  923MOL0     C24499   8.163   0.790  -0.004 -0.7872  0.3967 -0.2945
  923MOL0     O24500   8.218   0.855  -0.112 -0.1852  0.0126  0.5751
  923MOL0     C24501   8.328   0.812  -0.173 -1.5389  0.1795 -0.7351
  923MOL0     C24502   8.331   0.806  -0.309  0.5764 -0.6639  1.3074
  923MOL0     C24503   8.454   0.777  -0.375 -0.4941 -0.1124  0.2530
  923MOL0     C24504   8.573   0.756  -0.309 -0.6350  0.7307  0.7085
  923MOL0     O24505   8.701   0.729  -0.360 -0.0574 -0.1775 -0.7841
  923MOL0     C24506   8.712   0.682  -0.498  0.1466 -0.1288  0.4334
  923MOL0     C24507   8.845   0.608  -0.490 -0.8031  0.0165  0.1119
  923MOL0     C24508   8.853   0.499  -0.384  0.7082 -0.4588 -0.0731
  923MOL0     C24509   8.990   0.514  -0.308  0.3605 -0.3903  0.2425
  923MOL0     C24510   8.968   0.584  -0.169 -0.0849 -0.4959  0.9086
  923MOL0     C24511   8.883   0.503  -0.077 -0.5545  0.8543  0.8230
  923MOL0     C24512   8.891   0.526   0.072 -0.2485 -1.3149  0.1249
  923MOL0     C24513   8.787   0.626   0.120  0.3422  0.1967 -0.2123
  923MOL0    Cl24514   8.806   0.656   0.295 -0.6418 -0.0146  0.1025
  923MOL0     C24515   8.572   0.772  -0.173  0.1022 -0.3283 -0.5040
  923MOL0     C24516   8.454   0.810  -0.111  0.1474  0.6521  1.0763
  923MOL0     O24517   8.209   0.683   0.053 -0.7231 -0.3672 -0.4732
  923MOL0     C24518   7.974   0.803   0.157  0.6412  0.3854  0.0657
  923MOL0     C24519   7.845   0.830   0.186  0.9102  0.0755 -0.3159
  923MOL0     N24520   7.241   1.074   0.611 -0.5519 -0.1873  0.1941
  923MOL0     N24521   7.156   1.100   0.700 -0.1952  1.0368  0.1355
  923MOL0     C24522   6.142   0.465   0.724 -1.4931  0.0245 -0.1723
  923MOL0     C24523   6.019   0.473   0.647 -0.2355  0.2701 -0.1815
  923MOL0     C24524   5.556   0.578   0.559  0.3353 -0.2739 -0.0568
  923MOL0     C24525   5.458   0.679   0.572  0.3861  0.7009 -0.4855
  923MOL0     C24526   5.339   0.660   0.515  1.4179  0.2348 -0.3588
  923MOL0     C24527   5.320   0.565   0.413 -0.0787 -0.8036  0.1451
  923MOL0     O24528   5.217   0.557   0.319  0.2543  0.3862 -0.3119
  923MOL0     C24529   5.083   0.589   0.364 -0.7619  0.0845 -0.0674
  923MOL0     C24530   4.979   0.558   0.262  0.2090  0.0756  0.5934
  923MOL0     C24531   4.835   0.611   0.283  0.2521  0.2400 -1.0130
  923MOL0     C24532   4.719   0.514   0.330 -0.8316  0.1415 -1.7066
  923MOL0     C24533   4.763   0.428   0.441  0.0181  0.1742  0.2239
  923MOL0     C24534   4.801   0.354   0.531 -0.0058  0.4843  0.0110
  923MOL0     C24535   5.424   0.486   0.380  0.7139  0.2141 -1.0392
  923MOL0     C24536   5.540   0.483   0.456  0.2829  0.1706 -0.0440
  923MOL0     C24537   5.649   0.386   0.417 -0.3128 -0.3345 -0.6032
  923MOL0     H24538   5.794   0.555   0.885 -0.0425 -0.4662 -0.1205
  923MOL0     H24539   6.015   0.528   1.030  3.1827 -0.4920  0.5333
  923MOL0     H24540   6.433   0.406   0.997 -0.4188 -0.7088 -0.0104
  923MOL0     H24541   6.381   0.369   0.832  5.1631  1.4791 -1.1515
  923MOL0     H24542   6.433   0.647   0.942  1.9958  0.7230  1.4202
  923MOL0     H24543   6.387   0.602   0.766  1.8317 -3.9305 -1.3293
  923MOL0     H24544   6.595   0.491   0.744  0.6755  0.4289 -0.0279
  923MOL0     H24545   6.643   0.529   0.905 -0.9911 -2.2080 -0.8599
  923MOL0     H24546   6.580   0.747   0.686  1.0379  0.1623 -1.2645
  923MOL0     H24547   6.638   0.772   0.854  1.4403  0.0537 -0.5317
  923MOL0     H24548   6.857   0.660   0.794 -0.5117 -0.6823 -0.7036
  923MOL0     H24549   6.791   0.628   0.628  2.7257  1.9609 -1.8848
  923MOL0     H24550   6.923   0.800   0.609 -1.7132 -3.6892 -1.0751
  923MOL0     H24551   6.760   0.870   0.616  1.7623  1.3173  0.2237
  923MOL0     H24552   6.963   0.868   0.849 -0.6486  0.1802  2.1390
  923MOL0     H24553   6.793   0.932   0.844 -1.0632 -2.7051 -2.5049
  923MOL0     H24554   6.834   1.121   0.704  1.7449 -0.2193 -4.2461
  923MOL0     H24555   6.950   1.109   0.851  2.1898  1.6038 -1.6943
  923MOL0     H24556   6.953   1.039   0.457  1.0603 -0.3820 -1.9380
  923MOL0     H24557   7.169   0.941   0.306  2.1778 -1.9321  0.4934
  923MOL0     H24558   7.208   1.101   0.293 -0.5514  1.5272  3.0012
  923MOL0     H24559   7.439   1.091   0.371  0.4936  0.0628  1.1832
  923MOL0     H24560   7.420   0.933   0.439  0.4806 -1.8931 -1.4044
  923MOL0     H24561   7.413   1.002   0.159 -0.4700 -0.9183  0.6199
  923MOL0     H24562   7.352   0.839   0.228  0.0850 -1.9266  3.1714
  923MOL0     H24563   7.574   0.770   0.280 -0.5665  0.5263 -0.7836
  923MOL0     H24564   7.622   0.937   0.322 -0.6313  0.5051  1.0259
  923MOL0     H24565   7.739   0.936  -0.115 -1.0423 -1.2474  0.0294
  923MOL0     H24566   7.972   0.901  -0.166 -2.2614 -0.2913 -2.0600
  923MOL0     H24567   8.245   0.829  -0.371  1.6838  1.2340  0.3601
  923MOL0     H24568   8.453   0.751  -0.480 -2.2764 -0.2133  0.2684
  923MOL0     H24569   8.629   0.613  -0.520  1.5132 -2.3756  1.8274
  923MOL0     H24570   8.722   0.765  -0.568 -2.2591 -0.6805 -0.6746
  923MOL0     H24571   8.857   0.549  -0.582 -2.1083  1.0014 -0.7223
  923MOL0     H24572   8.926   0.681  -0.486 -1.4137  0.6499  2.9117
  923MOL0     H24573   8.762   0.503  -0.324  0.4606  0.1140 -0.4771
  923MOL0     H24574   8.856   0.400  -0.432 -0.3869 -0.4030 -0.2848
  923MOL0     H24575   9.066   0.572  -0.361 -0.3739 -0.6295 -1.1232
  923MOL0     H24576   9.038   0.415  -0.304  3.6484  1.0913  0.1524
  923MOL0     H24577   8.927   0.686  -0.172 -1.2908 -0.9802 -1.3751
  923MOL0     H24578   9.069   0.601  -0.132 -1.0982  0.3707  3.5420
  923MOL0     H24579   8.775   0.505  -0.099 -1.1409 -0.9527  3.1538
  923MOL0     H24580   8.916   0.400  -0.092  2.8033  1.8553  0.5120
  923MOL0     H24581   8.985   0.572   0.102 -1.2455  0.1887  1.0379
  923MOL0     H24582   8.881   0.429   0.123  2.4034 -1.2115  1.0378
  923MOL0     H24583   8.796   0.725   0.075  1.8454  1.9395  3.5570
  923MOL0     H24584   8.686   0.586   0.105  0.1844  1.2188 -2.3265
  923MOL0     H24585   8.667   0.774  -0.120  0.5827  2.1965 -1.3306
  923MOL0     H24586   8.467   0.840  -0.007  3.3154 -1.0115  1.2941
  923MOL0     H24587   8.039   0.751   0.227 -1.6715 -3.5605 -0.3976
  923MOL0     H24588   7.814   0.795   0.284 -0.8842 -2.2050 -1.5932
  923MOL0     H24589   6.236   0.453   0.671 -0.7097  2.4392  0.5156
  923MOL0     H24590   6.028   0.458   0.540 -1.1376 -3.0084  0.0858
  923MOL0     H24591   5.472   0.759   0.644  0.2806 -1.1112  1.6296
  923MOL0     H24592   5.262   0.735   0.533 -3.4277 -4.0830 -0.8040
  923MOL0     H24593   5.062   0.688   0.407  0.6630  1.2642 -1.9402
  923MOL0     H24594   5.084   0.523   0.451  0.4709 -1.2563 -1.0657
  923MOL0     H24595   4.983   0.450   0.244  0.8521  0.5963 -3.1560
  923MOL0     H24596   5.008   0.601   0.166  0.1219  1.5261  1.1947
  923MOL0     H24597   4.795   0.657   0.192 -1.4737 -1.1089 -0.9937
  923MOL0     H24598   4.833   0.684   0.365  0.4942 -1.1588  0.2638
  923MOL0     H24599   4.650   0.589   0.369 -2.5049 -0.8084 -2.7150
  923MOL0     H24600   4.658   0.456   0.260 -5.5720  0.4970  1.6617
  923MOL0     H24601   4.828   0.292   0.614  1.6162 -1.4115 -1.8047
  923MOL0     H24602   5.414   0.429   0.288  1.2695  1.5879 -1.9931
  923MOL0     H24603   5.665   0.307   0.491  0.5170  0.5442  0.1791
  923MOL0     H24604   5.615   0.344   0.321 -4.7613  3.0664 -0.8490
  923MOL0     H24605   5.742   0.434   0.387  0.2231  0.5616  2.2795
  924MOL0     O24606   0.198   8.328  10.052  0.5872 -0.0173 -0.3373
  924MOL0     C24607   0.092   8.283  10.009 -0.1341  0.2996  0.0818
  924MOL0     O24608   0.069   8.219   9.891  0.2104 -0.9430  0.4799
  924MOL0     C24609   0.168   8.196   9.793  0.0550 -0.5914 -0.3121
  924MOL0     C24610   0.290   8.270   9.781 -0.1380  0.2213 -0.4509
  924MOL0     C24611   0.392   8.231   9.700 -0.9490  0.6787 -0.8182
  924MOL0     C24612   0.377   8.114   9.623  0.2733  0.5006 -0.7180
  924MOL0     O24613   0.465   8.068   9.533 -0.3159  0.3098  0.5156
  924MOL0     C24614   0.605   8.123   9.545 -0.1892  0.7578 -0.7661
  924MOL0     C24615   0.709   8.026   9.470  0.3060 -0.4007 -0.0755
  924MOL0     C24616   0.704   7.891   9.540  0.7995 -0.6548 -0.5265
  924MOL0     C24617   0.772   7.795   9.442 -0.4344  0.4666  0.7695
  924MOL0     C24618   0.815   7.663   9.516 -0.8219 -0.0415  0.4096
  924MOL0     C24619   0.917   7.677   9.634  0.0153 -0.5449  0.2007
  924MOL0     C24620   1.046   7.741   9.590 -0.6093  1.5155 -0.1227
  924MOL0     C24621   1.044   7.887   9.623  0.7334 -0.1530  0.1084
  924MOL0     N24622   1.170   7.959   9.606 -0.4597  0.2946 -0.7455
  924MOL0     C24623   1.177   8.079   9.546  0.4328 -0.0508  0.3811
  924MOL0     C24624   1.309   8.116   9.560  0.0957 -0.3028  0.0613
  924MOL0     C24625   1.378   8.240   9.519  0.6163 -0.5950  0.8938
  924MOL0     C24626   1.362   8.257   9.369 -0.5320  0.8171  0.8474
  924MOL0     C24627   1.443   8.372   9.314 -1.1034  0.4188  0.0693
  924MOL0     C24628   1.600   8.339   9.304  0.2345  0.3411  0.4822
  924MOL0     O24629   1.658   8.364   9.435 -1.2837 -0.2065 -1.1867
  924MOL0     C24630   1.792   8.361   9.445 -0.0158 -0.3209  1.2312
  924MOL0     C24631   1.843   8.385   9.567  0.2123 -0.9465 -1.0372
  924MOL0     C24632   1.983   8.378   9.588 -0.6572 -0.9785  0.8142
  924MOL0     C24633   2.070   8.340   9.488  0.6092  0.2238  0.5447
  924MOL0     C24634   2.214   8.327   9.506  0.0325  0.9435 -0.1472
  924MOL0     O24635   2.264   8.404   9.613 -0.2058 -0.3863 -0.0966
  924MOL0     C24636   2.400   8.400   9.645 -0.0658 -0.1394  0.6754
  924MOL0     C24637   2.428   8.389   9.782  1.3585  0.6710  0.0223
  924MOL0     C24638   2.556   8.376   9.824 -0.1744 -0.0598 -0.6494
  924MOL0     C24639   2.670   8.375   9.733  0.4998  0.0982 -0.6169
  924MOL0     O24640   2.798   8.383   9.786 -0.3331  0.4566  0.0726
  924MOL0     C24641   2.827   8.292   9.893 -0.4448  0.8723 -0.2466
  924MOL0     C24642   2.870   8.371  10.018 -0.2288  0.4105 -0.1302
  924MOL0     C24643   2.872   8.274  10.139 -0.7704 -0.1317 -1.0559
  924MOL0     C24644   2.929   8.332  10.268  0.9402  0.0675 -0.0589
  924MOL0     C24645   3.009   8.227  10.344  0.2237 -0.7109  0.0101
  924MOL0     C24646   2.918   8.131  10.421  0.3894 -0.6158 -0.6153
  924MOL0     C24647   2.999   8.000  10.444  0.4090 -0.2315  0.0089
  924MOL0     C24648   2.924   7.889  10.505  0.5969 -0.6201 -0.0203
  924MOL0    Cl24649   2.780   7.861  10.405 -0.2783  0.3251 -0.0660
  924MOL0     C24650   2.641   8.382   9.592 -0.1962 -0.5811  0.6428
  924MOL0     C24651   2.505   8.379   9.551 -0.0313 -0.7011 -0.5660
  924MOL0     O24652   2.275   8.239   9.439  0.0175 -0.1321  0.1020
  924MOL0     C24653   2.020   8.324   9.359  0.0384  0.1148  0.4505
  924MOL0     C24654   1.882   8.335   9.341  0.0822 -0.3933  0.5536
  924MOL0     N24655   1.370   8.021   9.648  0.1602  0.1791  0.0219
  924MOL0     N24656   1.287   7.925   9.662  0.5239  0.2563 -0.0895
  924MOL0     C24657   0.253   8.039   9.633 -0.3431 -0.4815 -0.8997
  924MOL0     C24658   0.153   8.082   9.720  0.2207  0.3661  0.4491
  924MOL0     C24659  -0.037   8.332  10.079  0.1175  0.2618 -0.2509
  924MOL0     C24660  -0.141   8.395  10.000 -0.2190 -0.3802 -0.0091
  924MOL0     C24661  -0.257   8.445  10.064 -0.5821 -0.0816  0.7581
  924MOL0     C24662  -0.271   8.433  10.202  0.2765  0.3069 -0.2537
  924MOL0     O24663  -0.402   8.464  10.245 -0.0966 -0.3491 -0.8995
  924MOL0     C24664  -0.399   8.510  10.377 -0.0072  0.7596 -0.3183
  924MOL0     C24665  -0.540   8.559  10.400  0.2523  0.3106 -0.2388
  924MOL0     C24666  -0.627   8.438  10.442  0.5359 -0.0380  0.6001
  924MOL0     C24667  -0.782   8.453  10.424 -0.6882  0.3811  0.2806
  924MOL0     C24668  -0.816   8.472  10.286  0.6366  0.4140 -0.4796
  924MOL0     C24669  -0.855   8.476  10.171 -0.3398 -0.2477 -0.2162
  924MOL0     C24670  -0.170   8.389  10.280 -0.7484 -0.3035 -0.1970
  924MOL0     C24671  -0.052   8.342  10.222 -1.0655  0.0644  0.7614
  924MOL0     C24672   0.041   8.276  10.308  1.3357 -0.5656 -0.3107
  924MOL0     H24673   0.300   8.354   9.850 -3.4661 -0.0107  0.5046
  924MOL0     H24674   0.482   8.289   9.688  0.6261 -1.9884 -3.0628
  924MOL0     H24675   0.618   8.220   9.495  0.4493 -1.4429 -5.4185
  924MOL0     H24676   0.642   8.141   9.646  1.7019  1.1597 -1.4711
  924MOL0     H24677   0.808   8.070   9.455  0.9733 -2.0114 -0.6113
  924MOL0     H24678   0.661   8.016   9.372  2.0166  0.9456 -1.0959
  924MOL0     H24679   0.598   7.867   9.555  0.3203  1.1113 -0.8562
  924MOL0     H24680   0.760   7.883   9.634  1.8040  0.0851 -1.0476
  924MOL0     H24681   0.695   7.781   9.365  0.7478  1.2967 -0.6019
  924MOL0     H24682   0.855   7.843   9.391 -1.8749  1.9711 -0.2819
  924MOL0     H24683   0.725   7.615   9.557 -1.6805 -1.4416 -2.7991
  924MOL0     H24684   0.860   7.597   9.442 -2.5721  1.4314 -2.1381
  924MOL0     H24685   0.870   7.719   9.723  0.6073 -0.6048  0.5480
  924MOL0     H24686   0.940   7.574   9.666  1.3543 -0.4183 -0.2792
  924MOL0     H24687   1.051   7.722   9.482 -1.8860 -1.5391  0.2558
  924MOL0     H24688   1.121   7.680   9.642 -1.6384  0.5410  0.2612
  924MOL0     H24689   0.956   7.936   9.580  0.1098 -0.2782  1.1993
  924MOL0     H24690   1.023   7.888   9.730 -2.8670  1.0427 -0.4712
  924MOL0     H24691   1.094   8.123   9.491  0.3557 -0.1370  0.4288
  924MOL0     H24692   1.336   8.329   9.566  0.6789 -0.5955  0.9502
  924MOL0     H24693   1.485   8.233   9.538  0.4432  0.0884  2.1724
  924MOL0     H24694   1.387   8.161   9.323 -1.1124  0.7241  0.7235
  924MOL0     H24695   1.258   8.272   9.340 -0.2871 -0.0449 -0.5954
  924MOL0     H24696   1.436   8.453   9.387 -0.6904 -1.2388  2.0393
  924MOL0     H24697   1.411   8.397   9.212  0.2282  0.5921 -0.3223
  924MOL0     H24698   1.639   8.403   9.225  1.4019 -0.0309  0.7410
  924MOL0     H24699   1.610   8.236   9.269 -0.6894  0.9416 -1.7276
  924MOL0     H24700   1.778   8.396   9.654  2.1300  1.4388  0.2083
  924MOL0     H24701   2.031   8.402   9.682  2.3098  0.2521 -0.8525
  924MOL0     H24702   2.345   8.392   9.852  3.1388 -0.5289  2.3158
  924MOL0     H24703   2.580   8.372   9.929 -1.0162  0.5854 -0.4173
  924MOL0     H24704   2.744   8.227   9.923 -0.2432  0.7150 -0.0196
  924MOL0     H24705   2.907   8.224   9.862 -0.4497  1.7762 -2.4094
  924MOL0     H24706   2.969   8.414  10.000 -0.6914  0.3785 -3.3490
  924MOL0     H24707   2.793   8.448  10.031 -1.0240 -0.2640 -0.7526
  924MOL0     H24708   2.768   8.246  10.158 -0.2132 -1.8028 -0.2583
  924MOL0     H24709   2.936   8.191  10.107  0.0358  1.1122 -2.8305
  924MOL0     H24710   2.868   8.375  10.347  1.0159 -1.6062  0.9729
  924MOL0     H24711   2.993   8.415  10.237  1.0933 -0.5641 -1.5373
  924MOL0     H24712   3.072   8.266  10.424 -0.0173  0.2848 -0.2699
  924MOL0     H24713   3.075   8.174  10.275  0.9120  0.8727 -0.5901
  924MOL0     H24714   2.878   8.182  10.509  2.0822  0.4096 -0.3764
  924MOL0     H24715   2.837   8.103  10.354 -0.8452  1.0284  0.1328
  924MOL0     H24716   3.082   8.029  10.509 -0.4891  0.7486  0.7509
  924MOL0     H24717   3.027   7.966  10.344 -0.6860  3.7468 -1.8552
  924MOL0     H24718   2.983   7.798  10.524  0.9894 -0.5933 -1.0537
  924MOL0     H24719   2.892   7.915  10.607 -1.2802 -2.6667 -0.0098
  924MOL0     H24720   2.725   8.384   9.523  3.1382  2.5534  4.3333
  924MOL0     H24721   2.474   8.383   9.447  2.3604 -0.3998 -1.3391
  924MOL0     H24722   2.094   8.294   9.285  1.0550  3.9124 -0.2941
  924MOL0     H24723   1.846   8.316   9.240 -1.6162  0.3834  0.9760
  924MOL0     H24724   0.238   7.947   9.577  0.2990 -0.0263 -1.8539
  924MOL0     H24725   0.065   8.021   9.733  1.8693 -2.0925  0.7124
  924MOL0     H24726  -0.139   8.402   9.891 -0.0735  1.1743  0.0765
  924MOL0     H24727  -0.326   8.503  10.003  0.7811 -0.1074 -0.8680
  924MOL0     H24728  -0.332   8.597  10.382 -0.5134  1.2959 -2.0645
  924MOL0     H24729  -0.378   8.427  10.444  0.0097  2.0037  1.2989
  924MOL0     H24730  -0.575   8.605  10.307  0.8689  3.3025  0.8928
  924MOL0     H24731  -0.547   8.641  10.473  1.0656  1.5509 -1.4853
  924MOL0     H24732  -0.611   8.427  10.550 -3.9567 -0.4250  1.4147
  924MOL0     H24733  -0.600   8.354  10.377 -0.0866 -0.7655  1.2587
  924MOL0     H24734  -0.827   8.357  10.451  5.3731 -3.0995 -0.1037
  924MOL0     H24735  -0.819   8.532  10.489 -0.8759  1.1888 -0.7739
  924MOL0     H24736  -0.877   8.477  10.066  1.5745 -2.8926 -0.7429
  924MOL0     H24737  -0.189   8.375  10.386  1.4061  2.4076  0.6552
  924MOL0     H24738   0.137   8.329  10.302  2.5257 -2.5409  0.4494
  924MOL0     H24739   0.001   8.279  10.410 -0.8483  1.0254 -1.1205
  924MOL0     H24740   0.058   8.174  10.275  3.1485  0.3148 -2.3409
  925MOL0     O24741  11.103  10.268   5.030  1.0545 -0.4544 -0.4185
  925MOL0     C24742  11.027  10.175   5.032  0.9033 -0.6442  0.5136
  925MOL0     O24743  11.034  10.056   5.101  1.0617  0.6059  0.1798
  925MOL0     C24744  11.138  10.025   5.182  0.2863  0.0734 -0.3683
  925MOL0     C24745  11.272  10.054   5.161 -0.8679 -0.2189 -0.1755
  925MOL0     C24746  11.366  10.036   5.268 -0.2142 -0.1365  1.0561
  925MOL0     C24747  11.324   9.969   5.378  0.4014  0.6548 -0.1783
  925MOL0     O24748  11.431   9.949   5.469  0.3821  0.8504  0.0940
  925MOL0     C24749  11.398   9.929   5.606  1.2214  0.1067 -0.1589
  925MOL0     C24750  11.525   9.912   5.699 -0.0582  0.2023  0.6459
  925MOL0     C24751  11.630   9.811   5.642 -0.5018 -0.4865  0.1555
  925MOL0     C24752  11.723   9.783   5.767  0.2240 -0.4040  0.3174
  925MOL0     C24753  11.776   9.639   5.766 -0.6870  0.3591  0.0256
  925MOL0     C24754  11.677   9.534   5.823  0.6875  0.0841  0.2778
  925MOL0     C24755  11.723   9.390   5.811 -0.2555  0.5562  0.7783
  925MOL0     C24756  11.629   9.310   5.903 -0.0260  0.1703 -0.1818
  925MOL0     N24757  11.661   9.166   5.900  0.4367 -0.1252 -0.5490
  925MOL0     C24758  11.692   9.094   6.008 -0.7828  0.9959  0.3554
  925MOL0     C24759  11.709   8.968   5.955 -0.7287 -0.9419 -0.5532
  925MOL0     C24760  11.768   8.850   6.017  1.0638 -0.1137 -0.1069
  925MOL0     C24761  11.907   8.810   5.974 -0.0209 -0.0692  0.3845
  925MOL0     C24762  11.908   8.688   5.888  0.0119 -0.5840 -0.0089
  925MOL0     C24763  12.049   8.671   5.819 -0.0053 -0.1123  0.3941
  925MOL0     O24764  12.152   8.685   5.917 -0.2047 -0.1270  0.1305
  925MOL0     C24765  12.279   8.689   5.870 -0.6780  0.8937  1.0970
  925MOL0     C24766  12.320   8.649   5.744  0.2676 -0.1930 -0.2499
  925MOL0     C24767  12.457   8.645   5.709 -0.2787  0.0823 -0.5051
  925MOL0     C24768  12.555   8.680   5.800  0.1921 -1.2756  0.2731
  925MOL0     C24769  12.691   8.693   5.746 -0.0551 -0.4091  0.8901
  925MOL0     O24770  12.720   8.637   5.621  0.3717 -0.0306  0.5820
  925MOL0     C24771  12.840   8.637   5.574 -0.4252  0.5799 -0.7906
  925MOL0     C24772  12.959   8.598   5.646 -0.1469  0.5199  1.1648
  925MOL0     C24773  13.088   8.615   5.582 -0.3560  0.7285  1.1117
  925MOL0     C24774  13.103   8.698   5.466  0.9726  0.2312  0.1308
  925MOL0     O24775  13.231   8.718   5.420 -0.3222 -0.6660 -0.0361
  925MOL0     C24776  13.235   8.728   5.272  0.2999 -0.0939 -0.7076
  925MOL0     C24777  13.375   8.721   5.233 -0.5253  1.3008  0.2988
  925MOL0     C24778  13.449   8.586   5.224  0.7955  0.2942  0.1802
  925MOL0     C24779  13.471   8.501   5.349 -0.6651  0.3937 -0.3790
  925MOL0     C24780  13.566   8.574   5.448  1.0463  0.0638 -0.1375
  925MOL0     C24781  13.582   8.502   5.584 -0.2962 -0.1357 -0.3758
  925MOL0     C24782  13.722   8.536   5.643 -0.1543  0.1496  0.0284
  925MOL0     C24783  13.709   8.685   5.689  0.0098  1.5130 -0.4706
  925MOL0    Cl24784  13.781   8.794   5.576  0.1938  0.4054  0.4817
  925MOL0     C24785  12.987   8.748   5.405  0.7989  0.2875 -0.8100
  925MOL0     C24786  12.859   8.716   5.459  0.1482 -0.1650  0.7050
  925MOL0     O24787  12.769   8.756   5.817 -1.2306  0.0182  0.0472
  925MOL0     C24788  12.506   8.705   5.935 -0.7859  0.3006 -0.7053
  925MOL0     C24789  12.376   8.709   5.965 -1.0670 -0.1691 -0.3364
  925MOL0     N24790  11.677   8.959   5.827  0.2195  0.3593 -0.1796
  925MOL0     N24791  11.659   9.081   5.785  0.0952 -0.9470 -0.2971
  925MOL0     C24792  11.193   9.919   5.386  0.1861 -0.8752 -0.4025
  925MOL0     C24793  11.104   9.952   5.292 -0.5341 -0.1465 -0.5315
  925MOL0     C24794  10.909  10.206   4.939 -0.2916 -0.1483 -0.2403
  925MOL0     C24795  10.930  10.307   4.834  0.3888  0.3111 -0.1458
  925MOL0     C24796  10.827  10.325   4.738  0.4920  0.1197 -0.1054
  925MOL0     C24797  10.717  10.243   4.729  0.6212 -0.1109 -0.8837
  925MOL0     O24798  10.625  10.272   4.631 -0.9189 -0.1189 -0.1854
  925MOL0     C24799  10.523  10.178   4.597 -0.1870  0.2636 -0.3240
  925MOL0     C24800  10.571  10.049   4.526  0.1737  0.3306 -0.0676
  925MOL0     C24801  10.465   9.971   4.456 -0.3823  0.6135 -0.1869
  925MOL0     C24802  10.534   9.874   4.342 -0.2173  0.0417  0.3515
  925MOL0     C24803  10.425   9.829   4.249 -0.4817 -0.5268  0.2908
  925MOL0     C24804  10.344   9.810   4.160  0.4985  0.1960 -0.2833
  925MOL0     C24805  10.706  10.149   4.823 -0.8084  0.6914  0.0234
  925MOL0     C24806  10.790  10.134   4.928 -0.5420 -0.3465 -0.0897
  925MOL0     C24807  10.747  10.027   5.025  0.3322 -0.4850 -0.6434
  925MOL0     H24808  11.295  10.114   5.074 -1.6581 -0.5172 -0.5979
  925MOL0     H24809  11.463  10.084   5.261  0.7677 -2.1316 -4.3778
  925MOL0     H24810  11.341  10.010   5.651 -0.2097 -0.5379 -0.7270
  925MOL0     H24811  11.340   9.837   5.621  1.0784  0.3151  0.5863
  925MOL0     H24812  11.506   9.887   5.804 -1.9465  1.7534  0.7253
  925MOL0     H24813  11.575  10.009   5.697 -0.6089  0.4960 -1.4111
  925MOL0     H24814  11.679   9.851   5.553 -2.5673  0.0354 -0.8260
  925MOL0     H24815  11.586   9.719   5.603 -1.2976 -1.1410  2.4230
  925MOL0     H24816  11.804   9.855   5.750 -0.0821 -0.3791 -1.1948
  925MOL0     H24817  11.686   9.814   5.865 -1.8651  0.5904 -0.7235
  925MOL0     H24818  11.796   9.611   5.663 -1.9511 -1.4061  0.2185
  925MOL0     H24819  11.865   9.627   5.829 -0.8816 -3.1461 -0.1576
  925MOL0     H24820  11.655   9.562   5.926 -3.1655  0.2987 -0.4311
  925MOL0     H24821  11.584   9.535   5.764  1.4347 -1.6169 -1.0375
  925MOL0     H24822  11.826   9.371   5.842 -0.2453  0.0358  0.4307
  925MOL0     H24823  11.715   9.366   5.705 -0.6931 -1.4792  1.2301
  925MOL0     H24824  11.645   9.353   6.002  1.5152  1.6110 -1.0184
  925MOL0     H24825  11.524   9.319   5.874 -0.2119 -3.8174 -1.4716
  925MOL0     H24826  11.712   9.124   6.111  2.4931 -0.7701  0.3728
  925MOL0     H24827  11.774   8.871   6.125 -2.8032 -3.3699  0.9717
  925MOL0     H24828  11.697   8.768   6.002 -1.2670  1.6347  0.6677
  925MOL0     H24829  11.958   8.891   5.921 -0.8556 -1.8135 -3.4578
  925MOL0     H24830  11.971   8.782   6.058 -0.0100  0.2359  0.4780
  925MOL0     H24831  11.828   8.700   5.814 -0.8893 -1.5451  0.7718
  925MOL0     H24832  11.888   8.607   5.958 -2.5068 -0.7183 -0.7593
  925MOL0     H24833  12.051   8.755   5.749  0.3020 -0.7424 -0.3756
  925MOL0     H24834  12.066   8.573   5.773 -1.2797  0.0166 -0.4177
  925MOL0     H24835  12.251   8.631   5.662  0.5813  1.5580 -0.9248
  925MOL0     H24836  12.492   8.614   5.612 -2.2987 -2.4544 -0.5475
  925MOL0     H24837  12.957   8.557   5.746  1.9761  2.8932  2.3253
  925MOL0     H24838  13.171   8.571   5.636 -1.4104 -1.5728  0.9847
  925MOL0     H24839  13.170   8.658   5.219  0.7588 -0.4837 -0.7689
  925MOL0     H24840  13.216   8.827   5.231  0.7534 -0.4646 -1.8575
  925MOL0     H24841  13.372   8.749   5.127 -1.9573  0.6830  0.1426
  925MOL0     H24842  13.434   8.794   5.289 -0.1622  1.2803 -0.0533
  925MOL0     H24843  13.394   8.525   5.152  1.8198  0.1175 -0.4864
  925MOL0     H24844  13.554   8.594   5.192  1.1523 -1.4172  0.8060
  925MOL0     H24845  13.524   8.409   5.325  0.0886  0.0902  2.1197
  925MOL0     H24846  13.376   8.478   5.400 -0.1519  1.3368  1.0805
  925MOL0     H24847  13.519   8.667   5.478  1.2885 -0.1438  0.9292
  925MOL0     H24848  13.664   8.592   5.403 -0.0676 -0.8821 -3.2397
  925MOL0     H24849  13.507   8.507   5.663  0.0754  0.3651 -0.0543
  925MOL0     H24850  13.580   8.397   5.554  2.6314 -0.6199  0.7560
  925MOL0     H24851  13.810   8.528   5.579 -0.5493 -1.4572 -0.3759
  925MOL0     H24852  13.742   8.459   5.718  0.1077 -2.4305 -2.5146
  925MOL0     H24853  13.602   8.708   5.699 -0.4213 -0.9854  1.8718
  925MOL0     H24854  13.761   8.701   5.784 -0.3753 -2.6704  0.6722
  925MOL0     H24855  12.993   8.809   5.315  1.3335 -0.3228 -1.2020
  925MOL0     H24856  12.768   8.742   5.404 -0.9024 -2.4689  1.2389
  925MOL0     H24857  12.579   8.728   6.013 -1.9432  0.5571  0.3265
  925MOL0     H24858  12.360   8.735   6.069  3.0240 -0.0981  0.4455
  925MOL0     H24859  11.151   9.852   5.460 -0.7445 -0.3687 -0.4560
  925MOL0     H24860  11.002   9.915   5.300 -0.4062 -0.5725 -0.8252
  925MOL0     H24861  11.018  10.370   4.824 -0.7306  1.6495 -2.3019
  925MOL0     H24862  10.837  10.396   4.656 -1.7822 -2.4729 -2.8586
  925MOL0     H24863  10.473  10.224   4.512 -0.0239  0.6256 -0.2247
  925MOL0     H24864  10.456  10.153   4.679  1.4892 -2.2067  0.4301
  925MOL0     H24865  10.627   9.986   4.596 -3.1652 -1.2709  1.4026
  925MOL0     H24866  10.650  10.076   4.456 -0.5723  2.3117 -0.2277
  925MOL0     H24867  10.391  10.037   4.410  0.6013  0.5071 -2.0072
  925MOL0     H24868  10.415   9.912   4.533  1.1292  0.3642  0.6482
  925MOL0     H24869  10.616   9.928   4.293 -2.8691  0.9793 -3.5751
  925MOL0     H24870  10.585   9.786   4.381  2.4799  0.9160 -0.9793
  925MOL0     H24871  10.259   9.796   4.096  1.3479 -0.4958 -1.3052
  925MOL0     H24872  10.619  10.084   4.834  1.3161 -2.3223  0.2282
  925MOL0     H24873  10.764   9.926   4.987 -1.1016 -0.1380 -2.3571
  925MOL0     H24874  10.799  10.025   5.121 -2.0953 -0.2337  0.7478
  925MOL0     H24875  10.644  10.040   5.060  0.3540  2.6889 -1.3993
  926MOL0     O24876   4.580   5.956   5.896  0.4624  0.1977 -0.3300
  926MOL0     C24877   4.678   5.922   5.954  0.7132  1.2981  0.3684
  926MOL0     O24878   4.719   5.978   6.073  1.5044  0.8731  0.6351
  926MOL0     C24879   4.640   6.071   6.129  0.1442  0.2842  1.1509
  926MOL0     C24880   4.697   6.194   6.133 -0.7158 -0.3354 -0.8208
  926MOL0     C24881   4.633   6.304   6.206  0.2391 -0.3094  0.3018
  926MOL0     C24882   4.502   6.289   6.258 -0.1832 -0.4074  0.3603
  926MOL0     O24883   4.442   6.393   6.330  0.7091  0.5060  0.4717
  926MOL0     C24884   4.310   6.373   6.372 -0.4111 -0.2193 -0.1204
  926MOL0     C24885   4.265   6.475   6.474 -0.5682  0.6615 -0.3104
  926MOL0     C24886   4.249   6.618   6.420 -0.8866  0.1443 -0.0808
  926MOL0     C24887   4.170   6.710   6.509  1.2732  0.5143  0.1787
  926MOL0     C24888   4.158   6.846   6.434  0.5199 -0.2205 -0.7092
  926MOL0     C24889   4.274   6.954   6.476 -0.4603 -0.3832 -0.1675
  926MOL0     C24890   4.406   6.938   6.405 -0.1204  0.4757  0.0228
  926MOL0     C24891   4.502   7.060   6.437 -0.5934  0.0406 -0.4954
  926MOL0     N24892   4.442   7.193   6.400 -0.6209 -0.5341  0.1795
  926MOL0     C24893   4.411   7.235   6.269  0.4263  0.1922  0.7360
  926MOL0     C24894   4.369   7.367   6.287  0.3600  0.0938  0.2126
  926MOL0     C24895   4.326   7.477   6.199 -0.1070 -0.2467 -0.0282
  926MOL0     C24896   4.388   7.467   6.069  0.4019 -0.3797  0.4580
  926MOL0     C24897   4.545   7.462   6.073 -0.2439 -0.3378  0.7214
  926MOL0     C24898   4.616   7.576   6.150 -0.0324  0.0196  0.4523
  926MOL0     O24899   4.762   7.558   6.129  0.0833  0.6084 -0.0581
  926MOL0     C24900   4.835   7.467   6.201  0.1946 -0.0674  0.3478
  926MOL0     C24901   4.781   7.382   6.299 -0.0997  0.3461  0.7189
  926MOL0     C24902   4.872   7.306   6.375  0.8841  0.2513 -0.1056
  926MOL0     C24903   5.012   7.307   6.346  0.0386  0.0802 -0.3968
  926MOL0     C24904   5.115   7.233   6.419  0.0748  0.4807 -0.1323
  926MOL0     O24905   5.065   7.118   6.487 -0.2964  0.3671  0.2102
  926MOL0     C24906   5.145   7.078   6.596 -0.0869 -0.2116 -0.8484
  926MOL0     C24907   5.249   6.986   6.584 -0.2650  0.6877 -0.3466
  926MOL0     C24908   5.316   6.945   6.699  0.2333  0.2450 -0.2591
  926MOL0     C24909   5.298   7.014   6.822 -0.2660  0.2169 -0.0063
  926MOL0     O24910   5.390   7.003   6.930  0.2812  0.3757 -0.0237
  926MOL0     C24911   5.502   6.917   6.920  0.4741  0.1938  0.4325
  926MOL0     C24912   5.581   6.933   7.052  0.6541 -0.2591  0.2972
  926MOL0     C24913   5.511   6.872   7.176 -0.2056  0.2818 -0.0868
  926MOL0     C24914   5.466   6.722   7.168 -0.3724 -0.3932  0.5323
  926MOL0     C24915   5.578   6.628   7.122  0.2940 -0.3622  0.3404
  926MOL0     C24916   5.569   6.483   7.164 -0.5255  0.5623 -0.0047
  926MOL0     C24917   5.701   6.409   7.124 -0.1699 -0.3799  0.5912
  926MOL0     C24918   5.832   6.447   7.205 -0.6442  0.8384  0.3372
  926MOL0    Cl24919   5.805   6.426   7.386  0.3313  0.4716 -0.8474
  926MOL0     C24920   5.208   7.111   6.828 -0.3533  0.2040 -0.4366
  926MOL0     C24921   5.122   7.132   6.717  0.1681 -0.1376  0.5327
  926MOL0     O24922   5.226   7.279   6.426  0.2147 -0.5504 -0.2234
  926MOL0     C24923   5.063   7.394   6.251 -0.0309 -0.5103 -0.1294
  926MOL0     C24924   4.978   7.467   6.170  0.6953 -0.1310 -0.9539
  926MOL0     N24925   4.367   7.398   6.421  0.3694 -0.6707 -0.0072
  926MOL0     N24926   4.420   7.297   6.487 -0.2742  0.6198 -0.0772
  926MOL0     C24927   4.447   6.160   6.246 -0.6073 -0.2365  0.4031
  926MOL0     C24928   4.519   6.051   6.188 -0.1263 -0.6018  0.7424
  926MOL0     C24929   4.764   5.823   5.888  0.1332  0.7194  0.2366
  926MOL0     C24930   4.884   5.790   5.954 -0.6644 -0.6673 -0.5066
  926MOL0     C24931   4.968   5.699   5.900 -0.1936 -0.0498  0.2484
  926MOL0     C24932   4.952   5.647   5.773 -0.2456  0.1503 -0.4412
  926MOL0     O24933   5.032   5.544   5.727  0.0025  0.7543  0.2523
  926MOL0     C24934   5.159   5.593   5.679  0.9960  0.2758 -0.4382
  926MOL0     C24935   5.211   5.470   5.598  0.0827  0.3309  0.0742
  926MOL0     C24936   5.143   5.484   5.461 -0.3050  0.4828 -0.4754
  926MOL0     C24937   5.143   5.354   5.386  1.0526  0.1518  0.0796
  926MOL0     C24938   5.049   5.371   5.273  0.3364  0.8940  0.2641
  926MOL0     C24939   4.970   5.366   5.185  1.2353 -0.2876 -0.3129
  926MOL0     C24940   4.842   5.689   5.699  0.1213 -0.0419  0.0375
  926MOL0     C24941   4.744   5.780   5.755  0.3264 -0.0620 -0.2595
  926MOL0     C24942   4.625   5.794   5.666 -0.0945 -0.1182  0.3243
  926MOL0     H24943   4.796   6.215   6.094  0.1087  3.4453  2.6134
  926MOL0     H24944   4.683   6.400   6.205  0.6186 -0.4483  2.2471
  926MOL0     H24945   4.241   6.348   6.291 -0.1547 -0.6373 -0.2122
  926MOL0     H24946   4.314   6.283   6.434  4.0085 -1.3820 -1.7134
  926MOL0     H24947   4.312   6.478   6.573 -3.8651 -0.8168  1.4411
  926MOL0     H24948   4.164   6.442   6.497 -0.9604  2.4522  0.6857
  926MOL0     H24949   4.212   6.605   6.317 -1.1521  0.0068  0.0300
  926MOL0     H24950   4.348   6.662   6.413 -0.8485  0.1614  0.5301
  926MOL0     H24951   4.067   6.675   6.521  1.8192 -0.4808  2.4693
  926MOL0     H24952   4.208   6.722   6.611  0.4653  3.7725  0.1908
  926MOL0     H24953   4.157   6.840   6.325 -0.1174 -1.7417 -0.6509
  926MOL0     H24954   4.061   6.887   6.463 -0.2872 -0.6398 -2.6558
  926MOL0     H24955   4.249   7.056   6.448  4.3871  0.7954 -1.0621
  926MOL0     H24956   4.309   6.947   6.580  1.0863 -3.2497 -0.7675
  926MOL0     H24957   4.391   6.929   6.297 -0.7310 -1.0632  0.2129
  926MOL0     H24958   4.457   6.851   6.446 -2.5115 -1.4110 -0.8220
  926MOL0     H24959   4.527   7.052   6.543 -0.2992  1.2355 -0.4553
  926MOL0     H24960   4.598   7.049   6.386  0.0788 -0.9134  0.9410
  926MOL0     H24961   4.415   7.178   6.177  1.6278  1.3543  0.0267
  926MOL0     H24962   4.218   7.493   6.192  0.2190  3.0248  0.5656
  926MOL0     H24963   4.363   7.572   6.238 -0.7441 -0.1071  0.2498
  926MOL0     H24964   4.343   7.392   6.004 -2.3542  0.5884  1.1322
  926MOL0     H24965   4.377   7.569   6.034 -0.1479 -1.4121 -2.6323
  926MOL0     H24966   4.580   7.465   5.969 -0.2841 -1.3393  0.6663
  926MOL0     H24967   4.582   7.366   6.110  2.3079 -0.1337 -1.0424
  926MOL0     H24968   4.577   7.576   6.253 -0.0038  0.8951  0.4741
  926MOL0     H24969   4.584   7.665   6.095  0.0840 -0.2948 -0.1266
  926MOL0     H24970   4.675   7.361   6.306 -0.3398  1.8449  1.9860
  926MOL0     H24971   4.835   7.231   6.444  2.6208  0.0062  0.6131
  926MOL0     H24972   5.290   6.940   6.495 -0.5242  0.2410 -0.2366
  926MOL0     H24973   5.375   6.855   6.696 -1.2414 -0.8274  1.0494
  926MOL0     H24974   5.466   6.814   6.914  0.9716  0.1024 -1.5209
  926MOL0     H24975   5.565   6.954   6.838 -2.4949  3.4240 -0.6293
  926MOL0     H24976   5.674   6.876   7.040  1.2472  0.5188  1.0540
  926MOL0     H24977   5.592   7.040   7.070  1.7024 -0.4735  1.0216
  926MOL0     H24978   5.577   6.874   7.264  2.0417 -0.0764 -1.6806
  926MOL0     H24979   5.419   6.929   7.190 -0.3047  0.3111 -0.8420
  926MOL0     H24980   5.385   6.718   7.095  1.1154 -1.9273 -1.1354
  926MOL0     H24981   5.439   6.685   7.268 -3.7341 -2.5482 -1.0032
  926MOL0     H24982   5.673   6.660   7.167 -0.1323 -0.5727  1.4410
  926MOL0     H24983   5.593   6.629   7.014 -0.5052  1.6810  0.1867
  926MOL0     H24984   5.555   6.476   7.272  1.8393  0.4899  0.3353
  926MOL0     H24985   5.488   6.425   7.118  0.3616 -1.3478  0.7781
  926MOL0     H24986   5.714   6.423   7.017  0.3152 -4.8340 -0.1261
  926MOL0     H24987   5.680   6.302   7.127 -1.8263 -0.2108 -1.8660
  926MOL0     H24988   5.914   6.382   7.172 -1.0109  0.2397  0.5924
  926MOL0     H24989   5.868   6.546   7.176 -0.5143 -0.2741 -3.8389
  926MOL0     H24990   5.194   7.171   6.917  0.7158  1.7384 -1.2627
  926MOL0     H24991   5.050   7.212   6.733 -1.1962 -1.5180  1.4901
  926MOL0     H24992   5.171   7.391   6.241 -0.0641 -0.3753 -0.5302
  926MOL0     H24993   5.017   7.532   6.093  0.6253  1.4948  0.3420
  926MOL0     H24994   4.348   6.146   6.286 -0.4930  0.0472  0.7925
  926MOL0     H24995   4.487   5.948   6.185  2.1696 -1.3429 -0.6208
  926MOL0     H24996   4.916   5.835   6.047 -3.1102  1.0803 -0.4175
  926MOL0     H24997   5.055   5.664   5.954  1.5095  0.4066 -2.0515
  926MOL0     H24998   5.226   5.615   5.762  0.2610 -0.4337  0.3653
  926MOL0     H24999   5.148   5.680   5.614 -0.8394 -1.3466 -2.4341
  926MOL0     H25000   5.188   5.379   5.654  0.3818 -0.8933 -1.7189
  926MOL0     H25001   5.319   5.483   5.590  0.2118  0.4356  1.7713
  926MOL0     H25002   5.196   5.555   5.396  1.9019  0.1338  0.8351
  926MOL0     H25003   5.044   5.521   5.487 -0.5436 -2.2500  3.3415
  926MOL0     H25004   5.234   5.342   5.326 -1.5819  0.9632 -4.5037
  926MOL0     H25005   5.111   5.272   5.451 -2.5580  2.0231  0.9346
  926MOL0     H25006   4.883   5.339   5.129  2.1230  1.2568 -2.5975
  926MOL0     H25007   4.835   5.641   5.602 -0.4317 -0.0846  0.0980
  926MOL0     H25008   4.649   5.770   5.562 -1.1420  0.2194  0.0001
  926MOL0     H25009   4.542   5.731   5.699 -0.4161  0.3394  0.4123
  926MOL0     H25010   4.579   5.893   5.666 -0.2456 -0.1658  1.5970
  927MOL0     O25011   2.610  10.893   9.766  0.6288 -0.0390  0.3813
  927MOL0     C25012   2.572  10.966   9.673  0.0009  0.2353 -0.6724
  927MOL0     O25013   2.657  11.020   9.582  0.5336 -0.5446  0.2560
  927MOL0     C25014   2.779  10.966   9.580  0.2843 -0.0245 -0.0429
  927MOL0     C25015   2.887  11.036   9.622 -0.2057 -0.2996  0.1730
  927MOL0     C25016   3.012  10.986   9.606  0.2097  0.6032  0.7613
  927MOL0     C25017   3.033  10.874   9.520 -0.2916 -0.2132  0.0014
  927MOL0     O25018   3.161  10.831   9.473  0.3880 -0.2849  0.0164
  927MOL0     C25019   3.260  10.936   9.457  0.0730 -0.2615 -0.3639
  927MOL0     C25020   3.358  10.890   9.353  0.2335 -0.5494  0.7780
  927MOL0     C25021   3.475  10.828   9.428  0.5872 -0.5765  0.8275
  927MOL0     C25022   3.576  10.932   9.493 -0.1037  0.5227  0.1390
  927MOL0     C25023   3.709  10.879   9.538  0.1042 -0.0575  1.6298
  927MOL0     C25024   3.801  10.827   9.429  0.4993  0.4803 -0.1729
  927MOL0     C25025   3.917  10.752   9.498 -0.4590 -0.3980 -0.7595
  927MOL0     C25026   4.002  10.852   9.572 -0.3946  0.0227 -0.1340
  927MOL0     N25027   4.132  10.782   9.593  0.1482 -0.7000  0.2135
  927MOL0     C25028   4.176  10.766   9.717  0.5467 -0.5427 -0.7005
  927MOL0     C25029   4.305  10.722   9.697 -0.1493 -0.2808  0.7131
  927MOL0     C25030   4.412  10.681   9.808 -0.0587 -0.3215  0.0807
  927MOL0     C25031   4.547  10.751   9.788 -0.2429 -0.7065  0.2804
  927MOL0     C25032   4.651  10.698   9.888  0.4288  0.5548 -0.1120
  927MOL0     C25033   4.781  10.754   9.854  0.1345 -0.2103  0.3666
  927MOL0     O25034   4.789  10.889   9.800  0.6691  0.4855 -0.0809
  927MOL0     C25035   4.907  10.925   9.741  0.0772 -0.7667  1.0315
  927MOL0     C25036   5.028  10.897   9.793 -0.4888  0.3157  0.7982
  927MOL0     C25037   5.144  10.946   9.737  0.3914 -0.0094  0.0952
  927MOL0     C25038   5.141  11.019   9.614 -0.3989 -0.9474  0.6756
  927MOL0     C25039   5.266  11.075   9.560 -0.0695 -0.0946  0.8896
  927MOL0     O25040   5.378  11.038   9.626 -0.5376 -0.0344  0.2621
  927MOL0     C25041   5.490  11.104   9.584 -0.4563 -0.2468  1.4333
  927MOL0     C25042   5.546  11.069   9.458  0.2031  0.0984 -0.3349
  927MOL0     C25043   5.664  11.126   9.414 -0.3112  0.1413 -0.1668
  927MOL0     C25044   5.733  11.213   9.493 -0.0410  0.5928  0.3361
  927MOL0     O25045   5.853  11.267   9.446  0.1008 -0.1314  0.1437
  927MOL0     C25046   5.927  11.373   9.515 -0.2309 -0.2774  0.1274
  927MOL0     C25047   6.049  11.410   9.437  0.7173  1.0722  0.0795
  927MOL0     C25048   6.161  11.305   9.426 -0.7973 -0.9067 -0.2322
  927MOL0     C25049   6.283  11.375   9.363  0.5392  0.5096  0.9195
  927MOL0     C25050   6.406  11.278   9.367  0.1831  0.6256 -0.0384
  927MOL0     C25051   6.534  11.351   9.335 -0.3780 -0.3895  1.2434
  927MOL0     C25052   6.656  11.263   9.349 -0.1191 -0.3301  0.4024
  927MOL0     C25053   6.769  11.313   9.268  0.4039  0.8455  0.3792
  927MOL0    Cl25054   6.906  11.231   9.314 -0.1620 -0.2208 -0.4738
  927MOL0     C25055   5.690  11.236   9.626  0.2345  0.1936  0.7604
  927MOL0     C25056   5.567  11.187   9.666 -0.3326  0.9917 -0.7361
  927MOL0     O25057   5.264  11.160   9.465  0.7674  0.0403 -0.1186
  927MOL0     C25058   5.014  11.042   9.560 -0.9507 -0.7191  0.1660
  927MOL0     C25059   4.897  11.002   9.624 -0.0701  0.0677  0.4823
  927MOL0     N25060   4.328  10.717   9.557 -0.2157  0.4965 -0.3014
  927MOL0     N25061   4.224  10.750   9.497  0.3613  0.4291  0.0629
  927MOL0     C25062   2.927  10.799   9.478 -0.0461  0.0060  0.0653
  927MOL0     C25063   2.798  10.846   9.504  0.4361 -0.2363  0.2540
  927MOL0     C25064   2.428  11.000   9.663 -0.8893 -0.1760  0.0601
  927MOL0     C25065   2.390  11.111   9.593 -0.5931 -1.0483  0.4178
  927MOL0     C25066   2.258  11.157   9.600 -0.9211 -0.3383  0.9382
  927MOL0     C25067   2.157  11.093   9.679  0.0026  0.2108  0.6868
  927MOL0     O25068   2.024  11.127   9.678  0.1481 -0.0166 -0.5760
  927MOL0     C25069   1.999  11.262   9.643  0.7160  1.0144  0.2292
  927MOL0     C25070   1.858  11.292   9.691  0.4335 -0.6196  0.3805
  927MOL0     C25071   1.803  11.428   9.651 -0.2544  0.7780  0.0221
  927MOL0     C25072   1.677  11.473   9.721 -0.2487  1.0977  0.6109
  927MOL0     C25073   1.563  11.391   9.697 -1.1919  1.1000 -0.3243
  927MOL0     C25074   1.475  11.316   9.674 -0.0450  0.7996  0.7390
  927MOL0     C25075   2.198  10.974   9.733 -1.1762  0.4276 -0.4205
  927MOL0     C25076   2.330  10.924   9.736 -0.2054 -0.7980  0.2606
  927MOL0     C25077   2.349  10.795   9.816  0.4349 -0.0425  0.3748
  927MOL0     H25078   2.865  11.136   9.659 -0.1765  0.1770 -1.0608
  927MOL0     H25079   3.103  11.031   9.644 -0.2850  1.8766  0.4567
  927MOL0     H25080   3.207  11.023   9.418  1.6562 -0.0780 -2.2653
  927MOL0     H25081   3.322  10.953   9.546  2.3533  1.5830 -2.1685
  927MOL0     H25082   3.396  10.963   9.281 -3.3475 -0.2294 -1.0018
  927MOL0     H25083   3.305  10.816   9.292 -0.4186  0.7456 -0.2783
  927MOL0     H25084   3.533  10.761   9.364  0.2680  0.6194 -0.7758
  927MOL0     H25085   3.433  10.782   9.518  4.0628 -0.8840  2.4897
  927MOL0     H25086   3.585  11.002   9.410 -1.0189 -0.7708 -1.1102
  927MOL0     H25087   3.531  10.982   9.579  3.0683  1.9073  1.1526
  927MOL0     H25088   3.769  10.959   9.582  1.3345 -0.3560  0.5199
  927MOL0     H25089   3.690  10.797   9.608 -1.1042 -0.2258  1.1292
  927MOL0     H25090   3.749  10.764   9.356  2.6160 -1.7421  0.1181
  927MOL0     H25091   3.831  10.920   9.381 -2.6337  1.1581 -1.0929
  927MOL0     H25092   3.964  10.700   9.414  2.7091  0.8592  0.0827
  927MOL0     H25093   3.878  10.682   9.573  2.3014  0.1694  1.3523
  927MOL0     H25094   4.009  10.945   9.516  2.1018 -0.9284 -1.5927
  927MOL0     H25095   3.954  10.875   9.668 -0.1250 -0.2426  0.0647
  927MOL0     H25096   4.120  10.786   9.807  2.9877  0.3519  0.7163
  927MOL0     H25097   4.375  10.712   9.906 -1.0828  2.4950 -1.1117
  927MOL0     H25098   4.416  10.571   9.810 -1.6779 -0.4229 -0.2363
  927MOL0     H25099   4.584  10.722   9.689 -1.3674  2.8386 -1.3301
  927MOL0     H25100   4.537  10.860   9.794 -2.8771 -0.7422 -1.6595
  927MOL0     H25101   4.648  10.589   9.885  1.1512  0.4296  1.9802
  927MOL0     H25102   4.611  10.714   9.989 -3.1207 -1.8902 -0.9595
  927MOL0     H25103   4.826  10.687   9.780 -2.8997 -2.0851  0.0350
  927MOL0     H25104   4.843  10.738   9.943  1.1805 -3.2551 -0.7964
  927MOL0     H25105   5.029  10.849   9.890 -3.4764 -0.8572  0.3684
  927MOL0     H25106   5.230  10.927   9.801  0.0880 -2.0224 -0.0335
  927MOL0     H25107   5.482  11.010   9.393 -2.5174  3.0532 -0.6245
  927MOL0     H25108   5.715  11.098   9.323  0.8526 -0.6821  0.7125
  927MOL0     H25109   5.874  11.464   9.544  1.4469  0.7874 -0.0200
  927MOL0     H25110   5.965  11.337   9.611 -0.6576 -0.2106  0.3217
  927MOL0     H25111   6.027  11.445   9.335  0.2233 -0.1721 -0.2537
  927MOL0     H25112   6.102  11.493   9.486  3.1598 -1.1195  1.3640
  927MOL0     H25113   6.189  11.277   9.527 -0.6311 -2.1198 -0.5980
  927MOL0     H25114   6.129  11.215   9.373  0.1457 -1.1735 -0.3605
  927MOL0     H25115   6.309  11.462   9.425 -0.5511  2.5804 -1.3807
  927MOL0     H25116   6.277  11.409   9.260 -0.1702  1.1305  1.1576
  927MOL0     H25117   6.395  11.192   9.301  0.0255 -0.3032  1.1528
  927MOL0     H25118   6.411  11.245   9.471 -0.8174 -0.5707 -0.3435
  927MOL0     H25119   6.514  11.373   9.229  0.8291 -2.9138  0.4056
  927MOL0     H25120   6.557  11.442   9.391  3.2693 -0.1765 -0.3245
  927MOL0     H25121   6.646  11.158   9.319 -0.9542 -0.6736  1.8216
  927MOL0     H25122   6.685  11.256   9.454  0.6053 -1.2689  0.1543
  927MOL0     H25123   6.766  11.297   9.159 -0.0147 -1.2023  0.6594
  927MOL0     H25124   6.795  11.417   9.289  3.8217 -0.2741  2.4874
  927MOL0     H25125   5.753  11.296   9.691  1.4841  0.6865 -0.8398
  927MOL0     H25126   5.525  11.200   9.766  1.3132  1.8352 -0.1263
  927MOL0     H25127   4.995  11.103   9.472 -0.9298  1.8686  1.8430
  927MOL0     H25128   4.806  11.047   9.586  1.1556 -0.5058 -3.5309
  927MOL0     H25129   2.938  10.712   9.414  1.2499 -1.4381  2.1173
  927MOL0     H25130   2.711  10.799   9.458  0.2207  1.3329 -1.0229
  927MOL0     H25131   2.462  11.174   9.542 -0.0504 -2.0873 -0.1399
  927MOL0     H25132   2.226  11.246   9.548 -0.0542  0.6660  2.0799
  927MOL0     H25133   1.998  11.256   9.534  3.1412 -0.1596  0.2141
  927MOL0     H25134   2.071  11.340   9.672  0.4200  2.6003 -2.8683
  927MOL0     H25135   1.858  11.293   9.801 -0.4310  2.3338  0.4286
  927MOL0     H25136   1.778  11.230   9.648  0.7797 -0.2509 -0.8283
  927MOL0     H25137   1.787  11.433   9.543 -0.0970 -2.4246 -0.2596
  927MOL0     H25138   1.884  11.494   9.685  0.6706 -0.5013  0.3881
  927MOL0     H25139   1.702  11.483   9.827 -1.1114 -0.3155  0.9749
  927MOL0     H25140   1.657  11.572   9.680 -0.8968  0.2324 -1.2761
  927MOL0     H25141   1.395  11.254   9.640  2.8958 -4.0351  1.6348
  927MOL0     H25142   2.129  10.912   9.790  0.0830  1.1020  1.9811
  927MOL0     H25143   2.256  10.772   9.870 -0.4965 -1.2797 -1.6139
  927MOL0     H25144   2.366  10.720   9.738  2.2369  1.0296 -0.3129
  927MOL0     H25145   2.424  10.801   9.895  0.1378  0.0913  0.6464
  928MOL0     O25146   4.444   3.776   4.027  0.1725  0.0039 -0.5784
  928MOL0     C25147   4.549   3.807   4.089  0.0367 -0.2745  0.0994
  928MOL0     O25148   4.555   3.911   4.180  0.1871 -0.5043  0.4935
  928MOL0     C25149   4.470   4.021   4.198 -0.1452  0.1022  0.2178
  928MOL0     C25150   4.523   4.134   4.257  0.4866 -0.6596  0.5508
  928MOL0     C25151   4.442   4.244   4.290 -0.5289  0.1718 -1.0032
  928MOL0     C25152   4.303   4.246   4.267 -0.0594  0.6547 -1.1904
  928MOL0     O25153   4.226   4.355   4.311 -0.2572  0.3612 -0.0370
  928MOL0     C25154   4.186   4.347   4.446 -0.4924  0.0401  0.2712
  928MOL0     C25155   4.050   4.279   4.469  0.4297 -0.3124  0.4234
  928MOL0     C25156   3.944   4.365   4.400 -0.4722  0.5734 -1.4127
  928MOL0     C25157   3.905   4.303   4.267 -0.3464  0.3355 -0.0192
  928MOL0     C25158   3.805   4.399   4.199  0.1680  0.5074  0.0980
  928MOL0     C25159   3.764   4.339   4.071  0.1948 -0.5447 -0.6029
  928MOL0     C25160   3.651   4.424   3.998  0.1790  0.6098  0.0124
  928MOL0     C25161   3.595   4.371   3.862 -0.2522  0.1575  0.1433
  928MOL0     N25162   3.718   4.377   3.773  0.0938 -0.4842 -0.4787
  928MOL0     C25163   3.783   4.269   3.726 -0.1498 -0.3884  0.0322
  928MOL0     C25164   3.888   4.311   3.652  0.7324 -0.2049 -0.5226
  928MOL0     C25165   3.991   4.235   3.582  0.6421  0.5754 -0.0231
  928MOL0     C25166   4.120   4.272   3.643 -0.7146  0.7508 -0.3618
  928MOL0     C25167   4.133   4.238   3.791 -0.4030 -0.0098  0.2501
  928MOL0     C25168   4.278   4.269   3.839  0.2396  0.3597 -0.0113
  928MOL0     O25169   4.372   4.187   3.763  0.3459 -0.2053 -1.4985
  928MOL0     C25170   4.491   4.155   3.833 -0.5188  0.1501  0.1477
  928MOL0     C25171   4.554   4.037   3.796  0.5578 -0.2396 -0.4691
  928MOL0     C25172   4.683   3.991   3.852 -0.3518 -1.0550  0.4790
  928MOL0     C25173   4.745   4.076   3.950 -0.0471  0.0365  0.7381
  928MOL0     C25174   4.876   4.031   3.994  0.0120  0.0282 -0.3998
  928MOL0     O25175   4.906   4.077   4.115 -0.1499 -0.4462  0.0442
  928MOL0     C25176   5.011   4.034   4.195 -0.5157  0.2542  0.0072
  928MOL0     C25177   5.002   4.051   4.332  0.2614 -0.0247  0.1692
  928MOL0     C25178   5.114   4.018   4.414 -0.3214 -0.1993  0.1170
  928MOL0     C25179   5.237   3.985   4.361  0.9531 -0.3630 -0.1173
  928MOL0     O25180   5.346   3.958   4.441 -0.4294  0.3109  0.4161
  928MOL0     C25181   5.364   4.034   4.567  0.9233 -0.3929  0.2244
  928MOL0     C25182   5.469   4.147   4.543 -0.7416 -0.4861 -0.6856
  928MOL0     C25183   5.595   4.106   4.465 -0.0612 -0.1985  0.9132
  928MOL0     C25184   5.717   4.209   4.472 -0.0184  1.4071 -0.2154
  928MOL0     C25185   5.823   4.171   4.372  1.3120 -0.1847  0.0286
  928MOL0     C25186   5.949   4.253   4.397 -0.0883  0.2475 -0.3034
  928MOL0     C25187   6.066   4.225   4.304 -0.4549 -0.6953  0.3716
  928MOL0     C25188   6.177   4.337   4.312  0.3883  0.1443 -0.4240
  928MOL0    Cl25189   6.101   4.493   4.288 -0.1598 -0.1527 -0.4846
  928MOL0     C25190   5.252   3.967   4.220  0.0189  0.2212  0.5229
  928MOL0     C25191   5.139   3.993   4.136  0.2265  0.2615 -0.1824
  928MOL0     O25192   4.952   3.958   3.932 -0.5738  0.1044  0.2811
  928MOL0     C25193   4.676   4.193   3.985  0.0188  0.8971 -0.0018
  928MOL0     C25194   4.551   4.231   3.939  0.0590 -0.0756 -0.0972
  928MOL0     N25195   3.868   4.447   3.642 -0.6467  0.4126 -0.1986
  928MOL0     N25196   3.772   4.486   3.718 -0.6320  0.1899  0.3363
  928MOL0     C25197   4.248   4.133   4.199 -0.2545  0.1767  0.7129
  928MOL0     C25198   4.335   4.022   4.158  0.5044 -0.5582 -1.0103
  928MOL0     C25199   4.676   3.733   4.056  0.2235 -0.2004  0.2550
  928MOL0     C25200   4.785   3.740   4.137 -0.1757 -0.1694 -0.6104
  928MOL0     C25201   4.910   3.685   4.105  0.3829 -0.0517 -0.1181
  928MOL0     C25202   4.932   3.600   3.992  0.2121  0.2356 -0.0162
  928MOL0     O25203   5.052   3.539   3.991  0.0008  0.0839  0.5150
  928MOL0     C25204   5.096   3.487   3.862  0.0452  0.3007  0.4933
  928MOL0     C25205   5.232   3.420   3.862  0.5992  0.4207 -0.2446
  928MOL0     C25206   5.356   3.514   3.851  1.5590 -0.6734 -0.0264
  928MOL0     C25207   5.482   3.422   3.867  0.2720 -0.7062  0.8729
  928MOL0     C25208   5.604   3.502   3.850  0.4996 -0.0968  0.6307
  928MOL0     C25209   5.707   3.569   3.863  0.1682 -0.4051 -0.6676
  928MOL0     C25210   4.815   3.583   3.914  0.7203  0.0493 -0.3262
  928MOL0     C25211   4.688   3.644   3.944 -0.4113 -0.2451  0.2057
  928MOL0     C25212   4.572   3.600   3.854  0.8814  0.1704  0.4235
  928MOL0     H25213   4.630   4.141   4.271  0.2200  3.9641  2.0225
  928MOL0     H25214   4.487   4.331   4.337 -2.2364  0.3319  0.4241
  928MOL0     H25215   4.268   4.309   4.507 -0.6795 -0.0676  0.4566
  928MOL0     H25216   4.160   4.446   4.486 -1.6942 -0.8555  1.7996
  928MOL0     H25217   4.026   4.278   4.576 -0.5436  1.0248  0.2309
  928MOL0     H25218   4.067   4.180   4.426  1.5477 -0.6125  1.4827
  928MOL0     H25219   3.970   4.470   4.412  0.1646  0.2428  0.4241
  928MOL0     H25220   3.858   4.359   4.468 -0.0389 -0.4739 -0.9320
  928MOL0     H25221   3.995   4.311   4.206 -1.0478  1.0069 -1.0013
  928MOL0     H25222   3.865   4.201   4.269 -2.6850  1.1440 -1.3966
  928MOL0     H25223   3.719   4.398   4.266  0.2567 -2.2779  0.3061
  928MOL0     H25224   3.845   4.500   4.190 -0.8197  1.0689  1.6662
  928MOL0     H25225   3.846   4.328   3.999  1.0482  0.5081  0.1796
  928MOL0     H25226   3.726   4.240   4.095 -3.5108  0.5533 -1.3119
  928MOL0     H25227   3.682   4.528   3.980 -3.1129  1.4981 -1.4430
  928MOL0     H25228   3.560   4.433   4.058 -1.7256  0.0961 -2.5975
  928MOL0     H25229   3.562   4.267   3.865 -1.6031  0.5780  0.9658
  928MOL0     H25230   3.510   4.433   3.830 -1.0072 -1.4251 -1.0350
  928MOL0     H25231   3.766   4.167   3.759 -0.6837 -0.2523  0.1924
  928MOL0     H25232   3.972   4.128   3.590 -2.0947  1.0133  0.4302
  928MOL0     H25233   3.990   4.275   3.480 -1.7037  0.5857 -0.0520
  928MOL0     H25234   4.194   4.218   3.583 -0.0192  2.3935 -1.0575
  928MOL0     H25235   4.135   4.380   3.633 -2.4802  1.1760  1.1211
  928MOL0     H25236   4.116   4.132   3.808  1.3030 -0.5759 -1.2738
  928MOL0     H25237   4.064   4.303   3.846 -0.5655  1.7247 -1.8939
  928MOL0     H25238   4.289   4.268   3.948 -0.4566 -0.6178  0.0598
  928MOL0     H25239   4.305   4.370   3.806  3.1412  0.3482  1.8763
  928MOL0     H25240   4.506   3.969   3.727  1.7911 -0.5997 -0.9937
  928MOL0     H25241   4.732   3.904   3.811 -1.0154 -1.3582  0.3152
  928MOL0     H25242   4.905   4.062   4.380  0.0005  0.1124 -0.3858
  928MOL0     H25243   5.106   4.025   4.522  2.0037 -0.7658  0.3592
  928MOL0     H25244   5.275   4.082   4.607  0.4764 -0.9933 -0.0326
  928MOL0     H25245   5.400   3.962   4.641 -0.7251 -0.3530  1.1066
  928MOL0     H25246   5.425   4.240   4.508  1.7088  0.9825 -0.0911
  928MOL0     H25247   5.519   4.180   4.635 -1.7349  2.5478 -1.1220
  928MOL0     H25248   5.625   4.009   4.507 -1.9956 -0.9165  0.7504
  928MOL0     H25249   5.558   4.089   4.364  2.9111 -1.6491 -0.0438
  928MOL0     H25250   5.763   4.206   4.571  1.9818 -1.7378 -1.0941
  928MOL0     H25251   5.687   4.313   4.456 -1.1225  1.0469 -0.5899
  928MOL0     H25252   5.776   4.200   4.278 -3.4431 -1.5343  1.6972
  928MOL0     H25253   5.834   4.063   4.376 -2.9395 -0.8445 -0.5099
  928MOL0     H25254   5.926   4.360   4.394  1.3748  0.5734 -0.2704
  928MOL0     H25255   5.975   4.232   4.501  1.4536  0.3262 -0.6545
  928MOL0     H25256   6.028   4.216   4.201 -0.9421  3.2720  0.0667
  928MOL0     H25257   6.109   4.128   4.331  0.5168 -0.2503  0.4619
  928MOL0     H25258   6.228   4.329   4.408  3.0226 -0.0729 -1.7685
  928MOL0     H25259   6.250   4.312   4.234 -0.0853  0.0845 -0.8591
  928MOL0     H25260   5.339   3.940   4.162 -1.3484  0.2212 -1.6521
  928MOL0     H25261   5.155   3.969   4.032  1.5090  1.7624 -0.3685
  928MOL0     H25262   4.713   4.268   4.054 -1.8710 -1.2705  3.6433
  928MOL0     H25263   4.502   4.322   3.972 -2.4038 -1.6961  1.0799
  928MOL0     H25264   4.141   4.122   4.182 -0.3991  2.4605 -0.1997
  928MOL0     H25265   4.293   3.931   4.117 -0.9850 -0.9329  1.1369
  928MOL0     H25266   4.786   3.812   4.217  1.0133  0.9480 -1.5878
  928MOL0     H25267   4.992   3.711   4.172  1.1815  0.8699 -1.4034
  928MOL0     H25268   5.095   3.574   3.797  0.9930 -2.4497 -3.6046
  928MOL0     H25269   5.022   3.425   3.810  1.2162  0.3769 -1.3717
  928MOL0     H25270   5.237   3.356   3.774 -0.1424  0.1126 -0.0735
  928MOL0     H25271   5.245   3.335   3.930  1.6219 -1.9678 -3.1856
  928MOL0     H25272   5.353   3.585   3.935  0.5135 -1.0192  0.2507
  928MOL0     H25273   5.359   3.570   3.757 -0.0707  3.2372  1.9916
  928MOL0     H25274   5.487   3.369   3.963 -1.4526 -0.9673  0.8513
  928MOL0     H25275   5.477   3.350   3.785 -0.7603 -0.9656  1.1500
  928MOL0     H25276   5.797   3.627   3.867 -0.2042  0.1241  0.5770
  928MOL0     H25277   4.809   3.504   3.840  2.7700  1.9683 -2.7260
  928MOL0     H25278   4.478   3.574   3.905  0.2481  0.2132 -0.6925
  928MOL0     H25279   4.554   3.690   3.795  0.6173 -1.5105 -2.2219
  928MOL0     H25280   4.604   3.514   3.796  0.2066  0.3332 -0.2049
  929MOL0     O25281   0.193   9.478   7.225 -0.3448  0.0080  0.1098
  929MOL0     C25282   0.172   9.469   7.105 -0.6115 -0.4804  0.5354
  929MOL0     O25283   0.050   9.450   7.048 -0.0237  0.1385 -0.6593
  929MOL0     C25284  -0.054   9.486   7.128  1.0732 -0.6875  0.0041
  929MOL0     C25285  -0.080   9.618   7.157  0.2721 -1.4389  0.2361
  929MOL0     C25286  -0.197   9.642   7.222  0.4390 -0.5406 -0.1857
  929MOL0     C25287  -0.270   9.540   7.292 -0.4592 -0.4572 -0.0553
  929MOL0     O25288  -0.374   9.568   7.374  0.3246 -0.0945 -0.3139
  929MOL0     C25289  -0.420   9.707   7.398  0.0506 -0.2100 -0.1075
  929MOL0     C25290  -0.543   9.711   7.499 -0.3580 -0.2319  0.8981
  929MOL0     C25291  -0.671   9.641   7.456 -0.2093  0.1215 -0.4721
  929MOL0     C25292  -0.795   9.658   7.552 -0.4208 -1.3930 -0.5252
  929MOL0     C25293  -0.915   9.586   7.496  0.2539  0.4616  0.1696
  929MOL0     C25294  -1.037   9.592   7.587 -0.6111  1.0169  0.1849
  929MOL0     C25295  -1.155   9.507   7.546 -0.8355  0.1953  0.4107
  929MOL0     C25296  -1.257   9.514   7.661  0.2796 -0.7817  0.5272
  929MOL0     N25297  -1.340   9.389   7.658 -0.6337 -0.3199 -0.6420
  929MOL0     C25298  -1.417   9.349   7.552  0.1987  0.6094  0.4570
  929MOL0     C25299  -1.440   9.220   7.574 -0.6610  0.7282  1.5353
  929MOL0     C25300  -1.508   9.127   7.484  0.4600 -0.0158 -0.2814
  929MOL0     C25301  -1.428   9.001   7.448 -0.2622  0.6088  0.1463
  929MOL0     C25302  -1.352   9.024   7.320 -0.4066 -0.1975  0.0586
  929MOL0     C25303  -1.343   8.897   7.228  0.7541 -0.2498  0.5026
  929MOL0     O25304  -1.241   8.802   7.269  0.6418  0.1520 -0.2533
  929MOL0     C25305  -1.116   8.795   7.218  0.0912 -0.1987  0.2425
  929MOL0     C25306  -1.068   8.864   7.099 -0.4370  0.1592  0.5514
  929MOL0     C25307  -0.940   8.840   7.041 -1.0529 -0.0901 -0.6951
  929MOL0     C25308  -0.856   8.740   7.101 -0.3257  0.3748  0.3840
  929MOL0     C25309  -0.724   8.712   7.043 -0.8194 -0.2017 -0.4915
  929MOL0     O25310  -0.696   8.780   6.930  0.2757  0.5317  0.4335
  929MOL0     C25311  -0.580   8.746   6.872  0.6513 -1.3333 -0.3209
  929MOL0     C25312  -0.451   8.777   6.914 -0.1210 -0.5075  0.3476
  929MOL0     C25313  -0.333   8.756   6.842 -0.4535 -0.0694 -0.5828
  929MOL0     C25314  -0.341   8.687   6.719 -0.1505  0.1914 -0.6332
  929MOL0     O25315  -0.238   8.659   6.636  0.1293 -0.3998 -0.3684
  929MOL0     C25316  -0.100   8.668   6.689 -0.4905  0.1794 -0.1914
  929MOL0     C25317   0.001   8.591   6.596 -0.3219 -0.1747 -0.1275
  929MOL0     C25318  -0.060   8.449   6.581 -0.5712  0.9094 -0.1434
  929MOL0     C25319   0.017   8.368   6.475 -0.8301  0.2241  1.0735
  929MOL0     C25320  -0.017   8.219   6.468  0.0742  0.0127 -0.3571
  929MOL0     C25321   0.075   8.120   6.399  0.2226  0.0695  1.2307
  929MOL0     C25322   0.068   7.980   6.469 -0.1180 -0.5194 -0.2891
  929MOL0     C25323   0.106   7.866   6.378  0.5241 -0.5358  0.0830
  929MOL0    Cl25324  -0.043   7.824   6.290 -0.1505 -0.2874 -0.1017
  929MOL0     C25325  -0.466   8.649   6.675 -0.7306  0.4457 -0.6017
  929MOL0     C25326  -0.588   8.684   6.746 -0.7548 -0.2801 -0.4513
  929MOL0     O25327  -0.651   8.628   7.096 -0.0152  1.4897 -0.6740
  929MOL0     C25328  -0.898   8.682   7.223  0.1609  0.2402  0.0397
  929MOL0     C25329  -1.032   8.698   7.274 -0.1779 -0.5431 -0.0585
  929MOL0     N25330  -1.378   9.178   7.689  0.6508  0.4842  0.7744
  929MOL0     N25331  -1.321   9.282   7.741 -0.1436 -0.9738  0.0378
  929MOL0     C25332  -0.237   9.409   7.256  0.2699 -0.7722  0.0771
  929MOL0     C25333  -0.137   9.379   7.175  0.5189 -1.1791  0.1781
  929MOL0     C25334   0.291   9.442   7.022  0.4667  0.1852  0.0210
  929MOL0     C25335   0.266   9.359   6.914  0.6636 -0.3436 -0.9397
  929MOL0     C25336   0.356   9.333   6.821  0.0056  0.0585  0.4928
  929MOL0     C25337   0.478   9.404   6.817 -0.0584 -0.2024  0.5075
  929MOL0     O25338   0.574   9.386   6.730 -0.7431 -0.3654  0.6919
  929MOL0     C25339   0.537   9.320   6.605 -0.8932 -0.2273  0.1526
  929MOL0     C25340   0.645   9.313   6.496  0.0481 -0.8632  0.7101
  929MOL0     C25341   0.796   9.320   6.538  0.0895  0.1671  0.6529
  929MOL0     C25342   0.878   9.295   6.410 -0.0639  0.2023 -0.1645
  929MOL0     C25343   1.022   9.326   6.430 -0.8576  0.2746  0.1567
  929MOL0     C25344   1.142   9.360   6.432  0.3137 -0.1640 -0.6696
  929MOL0     C25345   0.508   9.479   6.932  0.1738  0.4771  1.2498
  929MOL0     C25346   0.416   9.503   7.034  0.6524  0.1696  0.8074
  929MOL0     C25347   0.434   9.597   7.148 -0.4578 -0.2033  0.0389
  929MOL0     H25348  -0.022   9.699   7.115 -2.3264  0.1254 -0.5374
  929MOL0     H25349  -0.226   9.746   7.235  1.3747 -0.0168 -2.0047
  929MOL0     H25350  -0.344   9.776   7.436  1.3697 -0.6652 -1.7865
  929MOL0     H25351  -0.454   9.742   7.300 -1.3992 -1.6937 -0.1700
  929MOL0     H25352  -0.571   9.816   7.512 -0.2506 -0.0954  0.1051
  929MOL0     H25353  -0.508   9.673   7.595  2.1542  1.1894  0.6406
  929MOL0     H25354  -0.660   9.532   7.458 -0.8319 -0.0446  3.9072
  929MOL0     H25355  -0.683   9.679   7.354 -1.6068 -0.7213 -0.6473
  929MOL0     H25356  -0.768   9.607   7.645 -0.3829  1.2171  1.0220
  929MOL0     H25357  -0.815   9.765   7.570 -0.1408 -1.1297 -1.7279
  929MOL0     H25358  -0.940   9.628   7.398  2.0699 -0.3183 -0.6839
  929MOL0     H25359  -0.885   9.481   7.488  1.9411  0.9432 -0.3554
  929MOL0     H25360  -1.005   9.563   7.687 -1.9587 -0.4255  0.2377
  929MOL0     H25361  -1.076   9.694   7.588 -4.4097 -0.2567  2.1291
  929MOL0     H25362  -1.118   9.404   7.548  1.3214  0.8961  2.4236
  929MOL0     H25363  -1.197   9.545   7.453 -1.2225 -2.8417 -0.7638
  929MOL0     H25364  -1.206   9.520   7.758  0.8074 -3.1598  0.4605
  929MOL0     H25365  -1.324   9.601   7.655 -2.5795 -2.9086 -4.0784
  929MOL0     H25366  -1.450   9.401   7.462 -2.9875 -4.2529 -1.6067
  929MOL0     H25367  -1.603   9.098   7.529 -0.6982 -1.2442 -3.2774
  929MOL0     H25368  -1.552   9.167   7.393  1.0648 -0.5989 -0.8414
  929MOL0     H25369  -1.353   8.977   7.523  3.6311  3.6672 -2.3831
  929MOL0     H25370  -1.496   8.916   7.432 -0.3400  0.7202 -0.1366
  929MOL0     H25371  -1.254   9.070   7.336  0.0493 -0.0666 -2.5249
  929MOL0     H25372  -1.404   9.106   7.269  1.0355  0.5893 -0.2177
  929MOL0     H25373  -1.330   8.924   7.123 -1.6776 -4.0888 -1.0249
  929MOL0     H25374  -1.441   8.848   7.224  0.6057  0.1170 -0.7495
  929MOL0     H25375  -1.143   8.931   7.059 -1.8092 -0.2650  2.3202
  929MOL0     H25376  -0.912   8.888   6.947 -0.5731  1.2340  0.0937
  929MOL0     H25377  -0.449   8.824   7.012 -1.3911  1.7636 -0.6224
  929MOL0     H25378  -0.239   8.808   6.856 -0.1485 -0.8147  0.2900
  929MOL0     H25379  -0.067   8.772   6.689  1.9458 -0.5401  0.2905
  929MOL0     H25380  -0.094   8.644   6.796  0.2106  0.8231 -0.0811
  929MOL0     H25381   0.018   8.641   6.500  0.0628 -0.4614 -0.2104
  929MOL0     H25382   0.097   8.590   6.649  0.0951  0.2617 -0.8576
  929MOL0     H25383  -0.054   8.385   6.669 -1.3757 -0.5580 -1.1064
  929MOL0     H25384  -0.165   8.456   6.551 -0.7633 -1.1272 -0.1064
  929MOL0     H25385   0.122   8.399   6.481 -1.2684  2.5641 -1.3127
  929MOL0     H25386  -0.011   8.401   6.374 -2.2919 -0.0813  1.3658
  929MOL0     H25387  -0.120   8.204   6.434 -0.1969 -1.5795  1.0023
  929MOL0     H25388  -0.011   8.179   6.570  1.3213 -1.0906 -0.8302
  929MOL0     H25389   0.040   8.116   6.296  0.0875  1.4491  1.2069
  929MOL0     H25390   0.179   8.155   6.405 -0.5447  2.9585 -0.4476
  929MOL0     H25391  -0.029   7.961   6.517 -0.6047 -0.6371 -1.2847
  929MOL0     H25392   0.144   7.981   6.547 -0.3478 -1.1680 -0.0527
  929MOL0     H25393   0.183   7.898   6.306 -2.1511  2.0343 -1.8773
  929MOL0     H25394   0.137   7.782   6.440  1.8207  0.0024  0.1928
  929MOL0     H25395  -0.466   8.592   6.583  1.1151  1.6473 -1.4043
  929MOL0     H25396  -0.680   8.653   6.699 -0.0736 -0.4204 -1.7339
  929MOL0     H25397  -0.827   8.613   7.266  0.6720  1.7182  1.7023
  929MOL0     H25398  -1.067   8.642   7.360  2.9700 -0.6662  1.2898
  929MOL0     H25399  -0.296   9.331   7.305 -0.1265 -0.5951 -0.1111
  929MOL0     H25400  -0.105   9.281   7.142  3.0040 -0.5414  0.4872
  929MOL0     H25401   0.168   9.318   6.896  1.1500 -1.5889 -0.8595
  929MOL0     H25402   0.332   9.251   6.754 -0.2778  0.3595  0.2237
  929MOL0     H25403   0.449   9.367   6.561  0.1977  2.6727  0.8312
  929MOL0     H25404   0.506   9.218   6.629 -0.1741 -0.7188 -0.9118
  929MOL0     H25405   0.626   9.401   6.434  0.9510 -1.5104 -0.5246
  929MOL0     H25406   0.627   9.237   6.420 -2.1115  1.0403 -0.8394
  929MOL0     H25407   0.818   9.236   6.605  0.0417  1.1874  1.9767
  929MOL0     H25408   0.816   9.406   6.602 -1.2224 -0.3078  1.7410
  929MOL0     H25409   0.868   9.190   6.382  0.7469 -0.3970  1.6581
  929MOL0     H25410   0.844   9.363   6.331 -1.7740 -2.0721 -1.5206
  929MOL0     H25411   1.246   9.386   6.435  0.5388 -1.0610 -0.3597
  929MOL0     H25412   0.602   9.530   6.945 -1.6762  4.3453  0.9177
  929MOL0     H25413   0.383   9.694   7.147  0.6342  0.3876 -1.2752
  929MOL0     H25414   0.423   9.542   7.242 -0.1387 -1.3133 -0.5533
  929MOL0     H25415   0.542   9.615   7.144  0.3897 -4.1631  1.0253
  930MOL0     O25416  11.030   8.486   1.035  0.5660  0.2794 -0.1794
  930MOL0     C25417  11.033   8.367   1.045 -0.4313 -0.7979  0.5394
  930MOL0     O25418  10.923   8.283   1.037  0.4147  0.4325 -0.0186
  930MOL0     C25419  10.798   8.333   1.015  0.5360 -0.2121 -0.1382
  930MOL0     C25420  10.722   8.417   1.104  0.1828  0.3907 -0.3857
  930MOL0     C25421  10.587   8.459   1.078  1.0831  0.3715  0.4922
  930MOL0     C25422  10.535   8.441   0.950 -0.0470  0.6123  0.0615
  930MOL0     O25423  10.410   8.502   0.928 -0.2794  0.4359 -0.7141
  930MOL0     C25424  10.352   8.493   0.792 -0.2586 -0.2997 -0.4759
  930MOL0     C25425  10.223   8.569   0.782  0.4303 -0.1967  0.3795
  930MOL0     C25426  10.121   8.513   0.890 -1.2332 -0.4793 -0.4642
  930MOL0     C25427   9.977   8.545   0.837  0.5110  0.7105 -1.0944
  930MOL0     C25428   9.881   8.464   0.920 -0.0390 -0.2666 -0.0180
  930MOL0     C25429   9.743   8.483   0.865  0.7676 -0.4930  0.9751
  930MOL0     C25430   9.676   8.624   0.871  0.0246 -0.2827  0.7225
  930MOL0     C25431   9.541   8.618   0.787  0.1047  0.6118  0.0935
  930MOL0     N25432   9.493   8.751   0.745 -1.0473 -1.0539  0.2163
  930MOL0     C25433   9.409   8.828   0.813  0.9648 -0.4637  0.4822
  930MOL0     C25434   9.432   8.954   0.758  0.7574  0.5921  0.7820
  930MOL0     C25435   9.378   9.083   0.801 -1.1023 -0.5272 -0.5489
  930MOL0     C25436   9.253   9.118   0.732 -1.0512 -0.8093  0.8306
  930MOL0     C25437   9.282   9.154   0.586  1.0427  0.1951  1.5152
  930MOL0     C25438   9.149   9.201   0.512 -0.7975  0.0736  0.3459
  930MOL0     O25439   9.087   9.306   0.589 -0.5654  0.4174 -0.8237
  930MOL0     C25440   8.963   9.351   0.558 -0.0850 -0.5059  0.0912
  930MOL0     C25441   8.907   9.435   0.657  0.1132 -0.3418  0.3070
  930MOL0     C25442   8.782   9.493   0.632 -0.3043  0.4493  0.7484
  930MOL0     C25443   8.716   9.468   0.508  0.1556 -0.5051 -0.1433
  930MOL0     C25444   8.581   9.518   0.483  0.9405 -0.5822  1.1311
  930MOL0     O25445   8.499   9.528   0.594 -0.7202  1.1967  0.4248
  930MOL0     C25446   8.367   9.570   0.597 -0.4864  1.0122 -0.1354
  930MOL0     C25447   8.275   9.531   0.509  0.3825  0.4305  1.1445
  930MOL0     C25448   8.140   9.571   0.528  0.2372 -0.6302 -0.2868
  930MOL0     C25449   8.098   9.640   0.639 -0.7336  0.2919 -0.0203
  930MOL0     O25450   7.971   9.679   0.634  0.2161  0.0691  0.0729
  930MOL0     C25451   7.919   9.740   0.748 -0.5476 -0.4294 -0.6469
  930MOL0     C25452   7.766   9.761   0.747  0.3372  0.5066  0.2905
  930MOL0     C25453   7.721   9.839   0.613 -0.4970 -0.4023  0.2270
  930MOL0     C25454   7.577   9.887   0.618  0.3047 -0.0500  0.3055
  930MOL0     C25455   7.484   9.764   0.614 -0.4677  0.2656  0.1396
  930MOL0     C25456   7.454   9.705   0.469 -0.0879  0.5027 -0.0926
  930MOL0     C25457   7.364   9.579   0.485 -0.0135  0.4684 -0.1960
  930MOL0     C25458   7.318   9.545   0.339  0.7715 -0.0805 -1.0784
  930MOL0    Cl25459   7.194   9.421   0.345  0.2041  0.1692  0.4248
  930MOL0     C25460   8.200   9.685   0.726  0.3789  0.1073  0.9216
  930MOL0     C25461   8.335   9.648   0.708  1.0142  0.3809 -0.4374
  930MOL0     O25462   8.550   9.557   0.369 -0.4332 -0.1236 -0.7808
  930MOL0     C25463   8.782   9.400   0.404  0.3209 -0.0202 -0.4391
  930MOL0     C25464   8.897   9.335   0.434 -0.0973  0.4223  0.7145
  930MOL0     N25465   9.513   8.938   0.651 -0.3100  0.3919  0.7130
  930MOL0     N25466   9.563   8.820   0.654  0.2856 -0.3660  0.3844
  930MOL0     C25467  10.600   8.358   0.855  0.3362  0.6118  0.2725
  930MOL0     C25468  10.731   8.305   0.894  0.1943 -0.1995 -0.0714
  930MOL0     C25469  11.163   8.297   1.055 -0.4986 -0.0565 -0.0291
  930MOL0     C25470  11.159   8.156   1.069 -0.0728  1.5187 -0.8886
  930MOL0     C25471  11.281   8.079   1.078  0.5655 -0.6671 -0.6351
  930MOL0     C25472  11.401   8.145   1.089 -0.3997  0.4098 -0.3446
  930MOL0     O25473  11.522   8.084   1.109  0.3287 -0.3132 -0.0204
  930MOL0     C25474  11.535   7.944   1.112  0.6208  0.2909 -0.4094
  930MOL0     C25475  11.676   7.898   1.100 -0.0544 -0.4830  0.4594
  930MOL0     C25476  11.686   7.752   1.130 -0.1458 -0.3409 -0.1405
  930MOL0     C25477  11.808   7.690   1.066 -0.1781 -0.5045 -0.2878
  930MOL0     C25478  11.817   7.544   1.109  0.3248  0.5510 -0.1914
  930MOL0     C25479  11.832   7.435   1.169  0.3973  0.8659 -0.8221
  930MOL0     C25480  11.407   8.283   1.078 -0.4522  0.6520  0.2563
  930MOL0     C25481  11.295   8.360   1.045  0.0215 -0.0148 -0.2799
  930MOL0     C25482  11.308   8.509   1.011  0.0275  0.2521  0.1390
  930MOL0     H25483  10.765   8.434   1.203  1.0920 -0.5466 -0.5957
  930MOL0     H25484  10.535   8.517   1.153  1.0945  2.8714 -1.3232
  930MOL0     H25485  10.420   8.532   0.715 -0.4903  0.4353 -0.3247
  930MOL0     H25486  10.332   8.387   0.776 -1.4573 -0.2349  0.4129
  930MOL0     H25487  10.182   8.553   0.682  3.4178 -0.2909 -0.9115
  930MOL0     H25488  10.251   8.673   0.798  0.9593 -0.3103  0.2026
  930MOL0     H25489  10.148   8.548   0.990 -0.7111 -3.8323  0.6928
  930MOL0     H25490  10.134   8.405   0.894  1.4149 -0.2189 -0.3180
  930MOL0     H25491   9.959   8.650   0.860 -0.9099 -0.0866  1.9347
  930MOL0     H25492   9.963   8.530   0.729 -1.6145 -1.5881 -0.5990
  930MOL0     H25493   9.906   8.357   0.925 -0.3655 -0.2860  1.8336
  930MOL0     H25494   9.875   8.499   1.024  3.5717  1.6572 -0.3154
  930MOL0     H25495   9.757   8.442   0.765  0.6650 -0.2494  0.8616
  930MOL0     H25496   9.672   8.419   0.918 -3.6962  3.5155  0.5381
  930MOL0     H25497   9.743   8.699   0.828 -0.5876  0.8367  1.6496
  930MOL0     H25498   9.657   8.640   0.978  1.3330 -3.9540  1.6738
  930MOL0     H25499   9.550   8.548   0.704 -0.0174  0.2284  0.4034
  930MOL0     H25500   9.476   8.568   0.860  1.3039 -2.7154 -0.9507
  930MOL0     H25501   9.340   8.785   0.884  0.8811 -2.2508 -0.6274
  930MOL0     H25502   9.348   9.069   0.906 -2.4149  0.1452 -0.8163
  930MOL0     H25503   9.457   9.159   0.795 -0.8204 -0.8899 -1.6634
  930MOL0     H25504   9.186   9.032   0.741 -3.0047  0.7090  1.3934
  930MOL0     H25505   9.212   9.202   0.788 -1.7458 -1.9024  2.0015
  930MOL0     H25506   9.304   9.058   0.539 -1.4033  0.3428 -0.1167
  930MOL0     H25507   9.346   9.241   0.570 -0.4794  1.6946  2.9839
  930MOL0     H25508   9.081   9.117   0.495 -0.1252 -0.0941 -1.7421
  930MOL0     H25509   9.169   9.240   0.412  2.8806 -3.1773 -0.4576
  930MOL0     H25510   8.968   9.455   0.744  3.5229  0.6941 -2.1056
  930MOL0     H25511   8.736   9.559   0.705 -2.1582 -0.2442  0.2729
  930MOL0     H25512   8.290   9.469   0.420 -2.9825  0.8183  0.1602
  930MOL0     H25513   8.071   9.545   0.449 -1.7192  1.3796  0.6506
  930MOL0     H25514   7.934   9.666   0.828  1.9346  0.3721 -0.3136
  930MOL0     H25515   7.968   9.834   0.773 -0.6535 -1.0053  2.0797
  930MOL0     H25516   7.721   9.662   0.759 -0.0040  0.9339  3.5475
  930MOL0     H25517   7.732   9.817   0.835 -1.1523  1.7710 -1.0287
  930MOL0     H25518   7.783   9.928   0.601  0.5564 -1.1099  0.2122
  930MOL0     H25519   7.733   9.768   0.530  1.2559 -1.0075  0.9511
  930MOL0     H25520   7.562   9.965   0.543  1.9026 -0.2037 -0.2061
  930MOL0     H25521   7.561   9.935   0.715  2.0382  2.1673 -0.4160
  930MOL0     H25522   7.383   9.797   0.640 -0.2584  1.1603 -0.1493
  930MOL0     H25523   7.514   9.689   0.687 -2.4832  1.6144  2.5215
  930MOL0     H25524   7.408   9.783   0.407 -1.9041 -0.7568 -0.4047
  930MOL0     H25525   7.549   9.670   0.428 -0.6590 -0.8290 -0.3013
  930MOL0     H25526   7.273   9.605   0.539  0.0441  0.4595 -0.0928
  930MOL0     H25527   7.417   9.495   0.531 -1.0043  0.3504  0.7690
  930MOL0     H25528   7.270   9.630   0.290 -0.0968 -1.0621 -1.9888
  930MOL0     H25529   7.404   9.503   0.286 -0.2234 -2.2184 -1.0894
  930MOL0     H25530   8.172   9.761   0.798 -2.0501  2.0034 -1.7786
  930MOL0     H25531   8.399   9.692   0.784  3.3909  0.7561 -2.5334
  930MOL0     H25532   8.740   9.378   0.306  3.0194 -0.5972 -1.5773
  930MOL0     H25533   8.939   9.282   0.349 -2.7661 -1.4065  0.3851
  930MOL0     H25534  10.548   8.336   0.762  1.2805  4.0503 -1.2593
  930MOL0     H25535  10.774   8.231   0.827  0.7067  0.3949 -0.4157
  930MOL0     H25536  11.070   8.095   1.066  0.5125  0.6547 -1.0262
  930MOL0     H25537  11.273   7.974   1.103 -1.5624 -0.5504 -0.6958
  930MOL0     H25538  11.495   7.900   1.020  0.1219 -1.8927  0.7817
  930MOL0     H25539  11.488   7.900   1.201 -0.5034 -0.9796 -1.5868
  930MOL0     H25540  11.749   7.967   1.143 -0.4570  1.6636 -2.0438
  930MOL0     H25541  11.689   7.893   0.992 -2.4460 -2.6436  0.1641
  930MOL0     H25542  11.596   7.700   1.095 -1.4155  0.1901  2.1034
  930MOL0     H25543  11.684   7.736   1.239 -0.7875  0.7716  0.0273
  930MOL0     H25544  11.800   7.690   0.957  1.2830 -0.7458 -0.4210
  930MOL0     H25545  11.902   7.741   1.088 -0.5266  0.2253 -0.4773
  930MOL0     H25546  11.843   7.337   1.211 -0.1278  1.2518  0.2626
  930MOL0     H25547  11.494   8.347   1.086 -2.1943  3.1147  0.9304
  930MOL0     H25548  11.260   8.516   0.913 -0.1448 -2.8016 -0.0922
  930MOL0     H25549  11.253   8.570   1.084 -0.3768 -0.7573  0.6975
  930MOL0     H25550  11.412   8.541   1.012  0.2545 -0.3852 -1.2944
  931MOL0     O25551   1.217   3.156   1.093  0.3998 -0.5645 -0.5528
  931MOL0     C25552   1.118   3.198   1.151  0.1960 -0.0662 -0.2995
  931MOL0     O25553   0.998   3.138   1.142  0.6724 -0.2982  0.7044
  931MOL0     C25554   0.996   3.014   1.098  0.4403  0.5821 -0.0883
  931MOL0     C25555   1.021   2.980   0.966  0.8666  0.8438  0.5541
  931MOL0     C25556   1.006   2.849   0.928  0.3277 -0.3215 -1.0577
  931MOL0     C25557   0.982   2.753   1.025 -0.2827 -0.2061  0.5493
  931MOL0     O25558   0.973   2.623   0.998  0.1352 -0.1988  1.1741
  931MOL0     C25559   0.852   2.551   1.010  0.1320 -0.0707  0.5730
  931MOL0     C25560   0.740   2.632   0.961 -0.2336  0.6977  0.8653
  931MOL0     C25561   0.639   2.554   0.886 -0.2938 -0.0743 -0.1563
  931MOL0     C25562   0.655   2.545   0.734 -0.0224 -0.6006  0.1377
  931MOL0     C25563   0.543   2.476   0.666 -1.2284  0.2401  0.8733
  931MOL0     C25564   0.542   2.517   0.514  0.3417  0.3213 -0.0374
  931MOL0     C25565   0.474   2.419   0.426 -0.8700  0.4405 -0.6735
  931MOL0     C25566   0.561   2.287   0.414  0.4130  0.3080  0.8043
  931MOL0     N25567   0.699   2.288   0.363  0.3654 -0.2247 -0.9817
  931MOL0     C25568   0.761   2.223   0.262  0.8909 -0.1787 -0.5505
  931MOL0     C25569   0.888   2.240   0.288  0.1564 -0.5090  0.9181
  931MOL0     C25570   1.002   2.173   0.217  0.7235  0.0941  0.3764
  931MOL0     C25571   1.116   2.268   0.176 -0.1652 -0.2765  0.0066
  931MOL0     C25572   1.215   2.216   0.076  1.2729  0.0105 -0.3622
  931MOL0     C25573   1.161   2.200  -0.067  0.0223 -0.4908  0.3312
  931MOL0     O25574   1.272   2.143  -0.147  0.0620  0.6875 -0.1840
  931MOL0     C25575   1.243   2.120  -0.277 -0.0854 -0.3003  0.5402
  931MOL0     C25576   1.270   2.002  -0.348 -0.9636 -0.1050  0.1071
  931MOL0     C25577   1.244   1.988  -0.484  0.2747 -0.5266  0.0617
  931MOL0     C25578   1.186   2.088  -0.559  0.1173 -0.2388 -0.3248
  931MOL0     C25579   1.169   2.086  -0.698 -0.6722 -0.0343  0.0026
  931MOL0     O25580   1.107   2.187  -0.762  0.3891 -0.5161 -0.0379
  931MOL0     C25581   1.052   2.187  -0.889 -0.2152  0.4502  0.7021
  931MOL0     C25582   1.034   2.305  -0.963 -0.2964  0.2824 -0.4447
  931MOL0     C25583   0.977   2.305  -1.090  0.8035 -0.5420 -0.1270
  931MOL0     C25584   0.913   2.190  -1.141 -0.2322 -0.2476  0.3207
  931MOL0     O25585   0.843   2.193  -1.262  0.1647 -0.4813 -0.2874
  931MOL0     C25586   0.724   2.266  -1.254 -0.0998  0.2357 -0.4907
  931MOL0     C25587   0.602   2.190  -1.213  0.3332  0.1893 -0.1999
  931MOL0     C25588   0.594   2.073  -1.313  0.3237  0.2673  0.1756
  931MOL0     C25589   0.544   2.119  -1.452 -0.3248 -0.0628  0.5464
  931MOL0     C25590   0.444   2.027  -1.520 -0.4841  0.1098 -0.6583
  931MOL0     C25591   0.317   2.019  -1.437  0.0468 -0.2457  0.1477
  931MOL0     C25592   0.196   1.980  -1.519  1.2788 -0.1264 -0.1431
  931MOL0     C25593   0.076   1.967  -1.426  0.3430  0.6291  0.0980
  931MOL0    Cl25594   0.094   1.806  -1.358 -0.0871 -0.3931 -0.0423
  931MOL0     C25595   0.933   2.072  -1.074 -0.0626 -0.8901  0.5658
  931MOL0     C25596   0.996   2.069  -0.946 -0.3875 -0.0600  0.6841
  931MOL0     O25597   1.226   1.994  -0.755  0.4663 -0.6205  0.1792
  931MOL0     C25598   1.152   2.209  -0.487  0.1759 -0.2046  1.0033
  931MOL0     C25599   1.185   2.225  -0.356  0.1988 -0.2918 -0.5956
  931MOL0     N25600   0.921   2.320   0.398  1.2046  0.3748 -0.5474
  931MOL0     N25601   0.802   2.355   0.439 -0.8281 -0.4186  0.4223
  931MOL0     C25602   0.940   2.791   1.154  0.7391 -0.0914 -1.0731
  931MOL0     C25603   0.950   2.924   1.191  0.2397 -0.7129  0.0806
  931MOL0     C25604   1.112   3.329   1.210 -0.0038 -0.6094  0.1797
  931MOL0     C25605   0.993   3.395   1.249 -0.1412 -0.5227  0.1450
  931MOL0     C25606   0.997   3.520   1.320  0.7874  0.9517 -0.4501
  931MOL0     C25607   1.110   3.592   1.331 -0.0620 -0.6246 -0.7480
  931MOL0     O25608   1.100   3.712   1.401 -0.3898  0.3069  0.8204
  931MOL0     C25609   1.192   3.810   1.361  0.6337 -0.2699 -0.3370
  931MOL0     C25610   1.166   3.947   1.435 -0.1864  0.8292 -0.0497
  931MOL0     C25611   1.060   4.028   1.354 -0.2131  0.6199 -0.0591
  931MOL0     C25612   1.027   4.163   1.419 -0.2157  0.2792 -0.0500
  931MOL0     C25613   0.934   4.144   1.529  0.6640 -0.6445  0.3010
  931MOL0     C25614   0.858   4.150   1.624  0.4287 -0.6267  0.1228
  931MOL0     C25615   1.226   3.536   1.283 -0.0493 -0.3421  0.2391
  931MOL0     C25616   1.234   3.404   1.240  0.1649 -0.2892  1.1235
  931MOL0     C25617   1.368   3.357   1.194 -0.2588  0.8620  0.0359
  931MOL0     H25618   1.039   3.048   0.882 -1.1255  1.6265  0.7233
  931MOL0     H25619   1.023   2.822   0.824  1.3381 -0.5593 -0.8496
  931MOL0     H25620   0.857   2.457   0.954  0.0145 -0.7228  1.6242
  931MOL0     H25621   0.844   2.525   1.116 -2.4953 -0.7636  0.2735
  931MOL0     H25622   0.779   2.696   0.882  0.0503 -3.6671 -2.9196
  931MOL0     H25623   0.705   2.688   1.049 -0.4052  2.0695 -0.0434
  931MOL0     H25624   0.542   2.595   0.918 -1.4759 -2.8877  0.2152
  931MOL0     H25625   0.637   2.453   0.929 -0.5432 -0.7141 -1.5804
  931MOL0     H25626   0.672   2.647   0.698 -0.4551 -0.8967 -0.9384
  931MOL0     H25627   0.743   2.486   0.706 -1.3219 -3.1505  1.0879
  931MOL0     H25628   0.560   2.367   0.667 -0.5443  0.2444 -2.0836
  931MOL0     H25629   0.447   2.508   0.709 -1.5546  1.0241 -0.4008
  931MOL0     H25630   0.478   2.606   0.508 -0.0718  0.0222 -0.1226
  931MOL0     H25631   0.637   2.548   0.469 -0.8862 -0.7935 -3.8038
  931MOL0     H25632   0.450   2.463   0.329 -0.5968  1.1921 -0.4057
  931MOL0     H25633   0.381   2.402   0.480  0.2047 -0.7923  0.8989
  931MOL0     H25634   0.557   2.231   0.507  4.2803  0.8734  1.5045
  931MOL0     H25635   0.512   2.224   0.339  1.6623 -1.3989  1.3805
  931MOL0     H25636   0.714   2.178   0.175  1.7868  0.3379 -1.3183
  931MOL0     H25637   1.038   2.093   0.283  3.2588 -0.0079 -1.0370
  931MOL0     H25638   0.959   2.120   0.131 -1.6218  1.3662  0.6885
  931MOL0     H25639   1.078   2.365   0.142 -3.4155 -1.1977  0.6514
  931MOL0     H25640   1.165   2.302   0.267 -1.2244 -1.0188  0.8737
  931MOL0     H25641   1.271   2.137   0.126 -0.9298 -1.3611  0.1112
  931MOL0     H25642   1.296   2.288   0.069  0.9664  0.4254  0.2147
  931MOL0     H25643   1.131   2.302  -0.094  0.5244  1.1970  5.1801
  931MOL0     H25644   1.074   2.135  -0.081 -0.2961 -0.3520  1.5547
  931MOL0     H25645   1.305   1.915  -0.292  2.7472  0.9773 -0.2714
  931MOL0     H25646   1.271   1.891  -0.524  2.1366 -0.0141 -0.0455
  931MOL0     H25647   1.059   2.395  -0.909  0.7593 -0.2676  0.0200
  931MOL0     H25648   0.976   2.404  -1.135  2.3284 -0.1040  0.7272
  931MOL0     H25649   0.724   2.353  -1.187 -3.1120  1.8633 -2.4041
  931MOL0     H25650   0.698   2.317  -1.347 -3.3266 -1.5832 -0.7188
  931MOL0     H25651   0.616   2.164  -1.108 -0.4136  1.7632  0.3145
  931MOL0     H25652   0.511   2.250  -1.218  0.1917  0.1170  1.2678
  931MOL0     H25653   0.688   2.017  -1.313 -0.0413 -0.5509  3.5204
  931MOL0     H25654   0.522   1.995  -1.285  1.1143 -0.1888  0.9773
  931MOL0     H25655   0.628   2.130  -1.521 -0.3723  0.3736  0.5577
  931MOL0     H25656   0.502   2.219  -1.437 -1.3272  0.0012 -2.0869
  931MOL0     H25657   0.481   1.924  -1.521 -1.7692 -0.3756 -0.3629
  931MOL0     H25658   0.415   2.061  -1.620  0.7616  4.3057  0.2129
  931MOL0     H25659   0.326   1.943  -1.360 -0.3760  0.5114  0.9583
  931MOL0     H25660   0.301   2.115  -1.388  1.4935  0.5979 -0.9470
  931MOL0     H25661   0.219   1.887  -1.572 -0.4701  0.7437 -2.6134
  931MOL0     H25662   0.157   2.045  -1.598  1.8346  0.6062  0.1806
  931MOL0     H25663   0.070   2.047  -1.352 -2.0205  0.6048  0.0089
  931MOL0     H25664  -0.021   1.960  -1.477  0.0796 -3.3000  0.8430
  931MOL0     H25665   0.880   1.983  -1.109  0.8759 -0.5830 -1.8390
  931MOL0     H25666   0.996   1.975  -0.893  0.1617 -0.5554 -0.1830
  931MOL0     H25667   1.097   2.294  -0.526 -0.3984  0.1410  2.5046
  931MOL0     H25668   1.167   2.325  -0.317 -0.9187 -0.7941  0.2257
  931MOL0     H25669   0.917   2.730   1.241 -0.6595 -0.6845 -1.8161
  931MOL0     H25670   0.918   2.966   1.286 -2.3181 -1.4254 -0.3829
  931MOL0     H25671   0.899   3.342   1.244  1.0995 -3.0577  1.6357
  931MOL0     H25672   0.908   3.570   1.355  0.8906  1.3407 -0.7284
  931MOL0     H25673   1.184   3.813   1.252  1.4907 -2.1253 -0.4758
  931MOL0     H25674   1.296   3.780   1.375  0.9495  1.6644  2.1836
  931MOL0     H25675   1.268   3.982   1.453  0.6822 -1.3145 -0.4760
  931MOL0     H25676   1.128   3.938   1.537  1.9238 -0.2561  0.6818
  931MOL0     H25677   0.975   3.964   1.329  0.9068 -0.9125 -0.1098
  931MOL0     H25678   1.115   4.057   1.264  1.0291  1.1386  0.8389
  931MOL0     H25679   1.122   4.206   1.452  2.6475 -2.7510 -3.5202
  931MOL0     H25680   0.984   4.234   1.349  2.2685  3.6810  1.6189
  931MOL0     H25681   0.799   4.136   1.712  1.6290 -3.6200  0.5671
  931MOL0     H25682   1.319   3.592   1.287  1.3453 -2.2688 -2.3397
  931MOL0     H25683   1.444   3.416   1.246  0.2735 -0.0338  0.3011
  931MOL0     H25684   1.394   3.255   1.224  2.2910  0.5959 -2.6445
  931MOL0     H25685   1.390   3.366   1.087  0.7367 -3.0304 -0.2513
  932MOL0     O25686   7.473  10.360   0.267 -0.2282  0.4867  0.0570
  932MOL0     C25687   7.478  10.241   0.300 -0.6230 -1.3255 -0.1294
  932MOL0     O25688   7.588  10.178   0.354  0.1800  0.1891  0.8070
  932MOL0     C25689   7.710  10.240   0.338  1.0052  0.1055  0.3351
  932MOL0     C25690   7.749  10.304   0.220  0.3994  0.0881 -0.4668
  932MOL0     C25691   7.880  10.350   0.209 -0.0117  0.4934 -0.8213
  932MOL0     C25692   7.980  10.326   0.306  0.3363 -0.4188 -0.8364
  932MOL0     O25693   8.114  10.354   0.290  0.2289  0.2920 -0.1135
  932MOL0     C25694   8.159  10.368   0.152 -0.8764 -0.0772 -0.6504
  932MOL0     C25695   8.308  10.355   0.160  0.2359 -0.0018 -0.6171
  932MOL0     C25696   8.384  10.488   0.176 -0.7228  0.2353  1.0720
  932MOL0     C25697   8.430  10.557   0.044  0.4055  0.1629 -0.8964
  932MOL0     C25698   8.519  10.688   0.060  0.2106 -0.2232 -0.0920
  932MOL0     C25699   8.631  10.660   0.167  1.1241 -0.2995 -0.5432
  932MOL0     C25700   8.750  10.558   0.131 -0.1659  1.3835 -0.0280
  932MOL0     C25701   8.840  10.529   0.254 -0.4460  0.3353  0.8372
  932MOL0     N25702   8.947  10.622   0.272 -0.3370 -0.3584  0.4182
  932MOL0     C25703   9.053  10.601   0.360 -0.1911 -0.0181  0.3072
  932MOL0     C25704   9.136  10.714   0.334  0.6572  0.1861  0.1613
  932MOL0     C25705   9.252  10.749   0.416  0.2276 -0.4539  0.1036
  932MOL0     C25706   9.248  10.893   0.474  0.9246 -0.7757  0.4449
  932MOL0     C25707   9.340  10.919   0.590  0.2476  0.4995  0.3934
  932MOL0     C25708   9.311  11.044   0.676 -0.0953  0.0510  1.1392
  932MOL0     O25709   9.329  11.171   0.597  0.6604  1.0076  0.4896
  932MOL0     C25710   9.452  11.232   0.591  0.6558 -0.0328 -0.2369
  932MOL0     C25711   9.466  11.314   0.480 -0.7614  0.2131 -0.1326
  932MOL0     C25712   9.586  11.385   0.455  0.7260 -0.7614  0.3057
  932MOL0     C25713   9.696  11.364   0.542  0.4824 -0.3175  0.4366
  932MOL0     C25714   9.820  11.436   0.510 -0.7406  0.2512 -1.2737
  932MOL0     O25715   9.838  11.470   0.384  0.1614  1.0085  0.2492
  932MOL0     C25716   9.910  11.576   0.346  0.3631 -0.7261 -1.2201
  932MOL0     C25717  10.016  11.566   0.249 -0.6615  0.5623  0.0578
  932MOL0     C25718  10.091  11.686   0.224  0.5545 -0.0002  0.3018
  932MOL0     C25719  10.061  11.810   0.292  0.0460 -0.8624 -0.5211
  932MOL0     O25720  10.118  11.934   0.272  0.4033  0.6099 -0.6079
  932MOL0     C25721  10.047  12.007   0.175 -0.4735 -0.2991  0.9455
  932MOL0     C25722  10.102  12.153   0.174 -0.5510  0.8324  0.0979
  932MOL0     C25723  10.100  12.216   0.037  0.1854 -1.1264  0.1691
  932MOL0     C25724   9.965  12.290   0.006  1.1017 -0.1786 -0.4846
  932MOL0     C25725   9.981  12.345  -0.137  0.0825  0.3578  0.4840
  932MOL0     C25726   9.858  12.426  -0.172 -0.8438  0.3572  0.2935
  932MOL0     C25727   9.869  12.446  -0.327  0.2629 -0.7005 -0.2013
  932MOL0     C25728   9.761  12.536  -0.387  0.1152  0.5787 -0.2960
  932MOL0    Cl25729   9.600  12.490  -0.324 -0.4023 -0.4490 -0.4481
  932MOL0     C25730   9.950  11.814   0.379  0.2154 -0.4217 -0.1723
  932MOL0     C25731   9.886  11.693   0.414 -0.1914 -0.6170 -0.2808
  932MOL0     O25732   9.901  11.461   0.604  0.4792 -0.6672  0.2750
  932MOL0     C25733   9.678  11.276   0.652 -0.9863  0.0333 -0.8640
  932MOL0     C25734   9.559  11.210   0.678  0.4877 -0.8679 -0.2703
  932MOL0     N25735   9.073  10.796   0.244 -0.0656  0.6717  0.2841
  932MOL0     N25736   8.956  10.744   0.209 -0.3604 -0.6298 -0.5352
  932MOL0     C25737   7.938  10.258   0.421  0.0737 -1.0504  0.7095
  932MOL0     C25738   7.809  10.216   0.435  0.1895  0.4004 -0.2893
  932MOL0     C25739   7.355  10.163   0.284 -0.4900  0.3806  1.5045
  932MOL0     C25740   7.320  10.085   0.390  0.3957  0.5111 -0.0181
  932MOL0     C25741   7.199  10.019   0.389 -0.3052  0.9518  1.3721
  932MOL0     C25742   7.107  10.039   0.289  0.4300 -0.3102  0.0498
  932MOL0     O25743   6.993   9.963   0.287 -0.2895 -0.4396 -0.0096
  932MOL0     C25744   6.873  10.024   0.247 -0.2915 -0.0991 -0.2944
  932MOL0     C25745   6.774   9.924   0.192 -0.5440 -0.5960 -0.7968
  932MOL0     C25746   6.633   9.991   0.169 -0.2655 -0.0587 -0.6189
  932MOL0     C25747   6.630  10.068   0.035 -0.4102 -0.4759 -0.2026
  932MOL0     C25748   6.501  10.122   0.006 -0.1990  0.1298  0.6351
  932MOL0     C25749   6.392  10.158  -0.010 -0.2688 -0.0207 -1.0753
  932MOL0     C25750   7.147  10.112   0.175 -0.3397  0.1734 -0.0045
  932MOL0     C25751   7.270  10.182   0.178  0.9484  0.5942 -0.2404
  932MOL0     C25752   7.295  10.273   0.059 -0.4669 -0.2880 -0.2164
  932MOL0     H25753   7.673  10.322   0.144 -0.4276 -1.0094  0.0736
  932MOL0     H25754   7.909  10.405   0.120  1.5099 -0.9420 -1.2680
  932MOL0     H25755   8.116  10.288   0.090  1.7735 -1.5780 -0.6945
  932MOL0     H25756   8.122  10.463   0.114  0.1597  0.4370 -0.4039
  932MOL0     H25757   8.350  10.302   0.074  1.6825 -3.2738  1.9129
  932MOL0     H25758   8.337  10.293   0.245  1.9492  0.0004 -1.1539
  932MOL0     H25759   8.475  10.465   0.231 -0.5178 -3.2096 -0.4806
  932MOL0     H25760   8.323  10.560   0.232 -2.1926  1.4961 -1.9039
  932MOL0     H25761   8.486  10.483  -0.015 -0.7786 -0.8605 -0.7904
  932MOL0     H25762   8.348  10.574  -0.026 -2.2116 -2.5298  1.2409
  932MOL0     H25763   8.569  10.706  -0.035 -1.0568 -4.5399 -1.8041
  932MOL0     H25764   8.461  10.776   0.090 -0.9442 -1.4912  1.5653
  932MOL0     H25765   8.667  10.763   0.173 -1.9614  0.9094 -1.0939
  932MOL0     H25766   8.602  10.621   0.265  5.6279  0.2143  1.2100
  932MOL0     H25767   8.812  10.595   0.049 -0.8154 -1.5726 -1.9771
  932MOL0     H25768   8.709  10.464   0.096  1.3043  1.2315 -1.4207
  932MOL0     H25769   8.778  10.534   0.344 -0.0433  1.1369  1.0807
  932MOL0     H25770   8.884  10.429   0.256  0.2610  0.6401  2.2770
  932MOL0     H25771   9.077  10.522   0.430 -1.0755  0.3162  1.0065
  932MOL0     H25772   9.255  10.681   0.502  2.2375  0.9276  1.2004
  932MOL0     H25773   9.347  10.742   0.363  0.8104  2.4807  0.5993
  932MOL0     H25774   9.260  10.961   0.389  1.0410 -1.8978 -0.4586
  932MOL0     H25775   9.147  10.920   0.506  0.6461  0.9336 -1.5909
  932MOL0     H25776   9.443  10.931   0.557  0.2325  0.8604  0.4678
  932MOL0     H25777   9.344  10.829   0.652 -1.0062 -2.6749 -3.6621
  932MOL0     H25778   9.378  11.034   0.762  1.3120  2.6260  0.4664
  932MOL0     H25779   9.207  11.037   0.708 -0.8493 -1.3416 -1.3509
  932MOL0     H25780   9.369  11.324   0.431 -1.4335  0.1418  1.1384
  932MOL0     H25781   9.603  11.462   0.381 -2.7353  0.7756  0.9222
  932MOL0     H25782  10.047  11.472   0.203 -0.1070  0.5198  0.5181
  932MOL0     H25783  10.185  11.684   0.170  0.3283 -0.6200 -0.0793
  932MOL0     H25784  10.074  11.952   0.085 -1.0423 -1.1214  1.2582
  932MOL0     H25785   9.938  12.011   0.178 -0.5657  2.5224 -1.7538
  932MOL0     H25786  10.063  12.215   0.256  1.6215  0.5276  1.4447
  932MOL0     H25787  10.206  12.148   0.210 -0.8790  1.4209  1.1787
  932MOL0     H25788  10.184  12.286   0.037 -0.0852 -0.7955  0.6115
  932MOL0     H25789  10.119  12.138  -0.037 -0.5996  0.6212 -1.9580
  932MOL0     H25790   9.950  12.369   0.080 -0.2165 -0.7454 -0.1120
  932MOL0     H25791   9.885  12.216   0.017  1.1389 -0.1954 -0.3316
  932MOL0     H25792  10.019  12.276  -0.212  1.2148  0.0358  1.3197
  932MOL0     H25793  10.065  12.415  -0.132  1.7762 -1.5130 -0.3109
  932MOL0     H25794   9.765  12.373  -0.151 -1.2864  1.3914  0.9991
  932MOL0     H25795   9.869  12.524  -0.124 -0.6153  1.6216 -2.1794
  932MOL0     H25796   9.843  12.348  -0.369 -0.0443 -0.5536 -0.3569
  932MOL0     H25797   9.971  12.479  -0.349 -0.0024  1.7734  1.8336
  932MOL0     H25798   9.765  12.641  -0.357 -2.0905  0.7877 -0.5552
  932MOL0     H25799   9.764  12.520  -0.495 -1.3889 -2.8128  0.0429
  932MOL0     H25800   9.909  11.904   0.423 -1.0551 -1.5824  1.1243
  932MOL0     H25801   9.802  11.693   0.483 -0.1262 -0.1357 -0.2000
  932MOL0     H25802   9.765  11.265   0.716 -0.1571 -0.5106 -2.0632
  932MOL0     H25803   9.563  11.142   0.762  0.4545 -0.1402  0.3349
  932MOL0     H25804   8.005  10.241   0.505  1.8821 -0.2644 -0.5049
  932MOL0     H25805   7.783  10.160   0.525 -0.8858  3.1153  1.1908
  932MOL0     H25806   7.387  10.068   0.473 -0.5091  1.1249  0.8597
  932MOL0     H25807   7.176   9.951   0.470 -1.5481  0.3476  0.5455
  932MOL0     H25808   6.891  10.100   0.170  0.4161  2.6519  2.3733
  932MOL0     H25809   6.832  10.082   0.330 -0.0383  0.1881 -0.3653
  932MOL0     H25810   6.751   9.851   0.271 -1.6722  1.6043  1.0273
  932MOL0     H25811   6.822   9.881   0.104 -2.6472 -3.3215 -0.7651
  932MOL0     H25812   6.619  10.065   0.249 -1.1263  0.4232 -1.1996
  932MOL0     H25813   6.561   9.910   0.174 -0.5140  0.2309  1.1568
  932MOL0     H25814   6.697  10.155   0.037 -1.0259  0.0086  1.2354
  932MOL0     H25815   6.661   9.996  -0.041  0.4680 -1.8690  1.4007
  932MOL0     H25816   6.290  10.189  -0.022 -0.4926 -0.2206  0.1547
  932MOL0     H25817   7.077  10.123   0.092 -0.9387  0.7537  0.5698
  932MOL0     H25818   7.386  10.243   0.009 -1.6284  0.1255 -2.7242
  932MOL0     H25819   7.216  10.275  -0.016  1.6263 -1.8104 -2.5877
  932MOL0     H25820   7.302  10.373   0.103  2.8319 -0.1083 -0.9129
  933MOL0     O25821   2.228   9.524   8.291 -0.2336  0.0895  0.2617
  933MOL0     C25822   2.130   9.592   8.320  0.3943  0.4447  0.5632
  933MOL0     O25823   2.096   9.620   8.451 -0.3277 -0.0062 -0.3624
  933MOL0     C25824   2.200   9.628   8.545 -0.4513  0.0896  0.9000
  933MOL0     C25825   2.296   9.527   8.570 -0.6059 -0.8714 -0.1783
  933MOL0     C25826   2.407   9.554   8.654  0.0688 -0.5235 -0.1173
  933MOL0     C25827   2.425   9.677   8.712  0.3601  0.3130  0.0750
  933MOL0     O25828   2.533   9.704   8.796 -0.0619  0.2187  0.6345
  933MOL0     C25829   2.488   9.780   8.917 -0.4996  0.4445  0.5826
  933MOL0     C25830   2.598   9.758   9.021  0.0392  0.8471  0.2214
  933MOL0     C25831   2.723   9.847   8.975 -0.3445 -0.2634  0.0481
  933MOL0     C25832   2.831   9.827   9.075 -0.2054  0.7083 -0.4026
  933MOL0     C25833   2.955   9.899   9.024  0.6267 -0.4172 -0.2807
  933MOL0     C25834   3.075   9.866   9.105 -0.4687 -0.5506 -0.4151
  933MOL0     C25835   3.191   9.945   9.062 -0.6093 -0.1376  0.5658
  933MOL0     C25836   3.319   9.949   9.149 -0.1171 -0.1194  0.5744
  933MOL0     N25837   3.421  10.040   9.083  0.2246 -0.9575  0.6446
  933MOL0     C25838   3.528   9.998   9.012  1.0189  0.9259 -0.5144
  933MOL0     C25839   3.602  10.114   8.988 -0.4050  0.7991 -0.0528
  933MOL0     C25840   3.737  10.109   8.928  0.2414  0.7587  0.0065
  933MOL0     C25841   3.845  10.104   9.045 -0.7871  0.2789  0.6642
  933MOL0     C25842   3.982  10.077   8.978  0.2460  0.8270  0.3674
  933MOL0     C25843   4.102  10.096   9.077  0.6951  0.0890 -0.2226
  933MOL0     O25844   4.115   9.984   9.169 -0.8708 -0.4240  0.3194
  933MOL0     C25845   4.222   9.985   9.249 -1.5908  0.4864 -0.2399
  933MOL0     C25846   4.332  10.070   9.252 -0.4743  0.5779  0.7675
  933MOL0     C25847   4.445  10.053   9.336 -0.1930 -0.0467  1.1025
  933MOL0     C25848   4.453   9.933   9.414  0.1537  0.2724  0.1031
  933MOL0     C25849   4.571   9.898   9.485 -0.0759 -0.6666 -0.2011
  933MOL0     O25850   4.684   9.971   9.446  0.8354 -0.1172 -0.0610
  933MOL0     C25851   4.803   9.934   9.495 -0.9287  0.2499 -0.0615
  933MOL0     C25852   4.909   9.911   9.407 -0.5428  0.3794 -0.1353
  933MOL0     C25853   5.038   9.887   9.469 -0.5723 -0.2440  0.7330
  933MOL0     C25854   5.066   9.884   9.608 -0.8102 -0.3578  0.9416
  933MOL0     O25855   5.195   9.869   9.647  0.9524 -0.2394 -0.2701
  933MOL0     C25856   5.235   9.964   9.741 -0.4707 -0.3054 -0.7538
  933MOL0     C25857   5.382   9.959   9.769  0.1899  0.2297 -0.8329
  933MOL0     C25858   5.465   9.992   9.637  0.3090  0.6281 -0.6194
  933MOL0     C25859   5.605  10.032   9.702 -0.2132  0.0959 -0.2963
  933MOL0     C25860   5.726  10.023   9.605 -1.1581 -0.4952 -0.1485
  933MOL0     C25861   5.767   9.871   9.581  0.1190 -0.6181  0.1446
  933MOL0     C25862   5.860   9.856   9.464  0.2849 -0.6096 -0.1132
  933MOL0     C25863   5.920   9.713   9.464 -0.7113  0.4801  0.2107
  933MOL0    Cl25864   5.783   9.589   9.425  0.5481 -0.4157  0.1175
  933MOL0     C25865   4.961   9.914   9.689 -0.9774  1.5815 -0.1766
  933MOL0     C25866   4.833   9.939   9.632  0.0951 -0.1317  0.7776
  933MOL0     O25867   4.571   9.801   9.557 -0.6430 -0.0968 -0.6789
  933MOL0     C25868   4.343   9.852   9.411 -0.3351  0.3016  0.2249
  933MOL0     C25869   4.234   9.874   9.332 -0.3074  0.5105 -0.3993
  933MOL0     N25870   3.534  10.226   9.035  0.6133  0.6194 -0.1977
  933MOL0     N25871   3.427  10.175   9.094  0.4971  0.0006  0.6954
  933MOL0     C25872   2.339   9.783   8.665 -0.8009  0.5552  0.0903
  933MOL0     C25873   2.230   9.754   8.584 -0.3393 -0.4869 -0.4995
  933MOL0     C25874   2.039   9.634   8.208 -0.8905 -0.5608  1.2225
  933MOL0     C25875   1.913   9.687   8.238  0.5071 -0.0429 -0.4623
  933MOL0     C25876   1.819   9.722   8.139 -0.0611  0.6155 -0.7759
  933MOL0     C25877   1.852   9.712   8.014 -0.2466 -0.5857  1.2489
  933MOL0     O25878   1.754   9.739   7.917  0.4866  0.7607 -0.4477
  933MOL0     C25879   1.713   9.869   7.921  0.3040 -0.2772  0.2069
  933MOL0     C25880   1.807   9.965   7.856  0.2860  0.1004  0.1854
  933MOL0     C25881   1.855   9.909   7.720 -0.9810 -0.5942  0.9884
  933MOL0     C25882   1.751   9.933   7.612 -0.4250  0.9521 -0.2838
  933MOL0     C25883   1.804   9.863   7.496 -0.3990  0.6033  0.9054
  933MOL0     C25884   1.843   9.811   7.390 -0.3045 -0.2446 -0.5621
  933MOL0     C25885   1.973   9.654   7.976  0.1235 -0.5611 -0.8440
  933MOL0     C25886   2.077   9.628   8.069  0.2051 -0.3458 -0.6119
  933MOL0     C25887   2.213   9.607   8.020 -0.5493 -0.1038 -0.4284
  933MOL0     H25888   2.293   9.447   8.497  0.9181 -0.4096 -0.7966
  933MOL0     H25889   2.471   9.469   8.675  0.3095  0.1121  1.9692
  933MOL0     H25890   2.482   9.886   8.889 -0.6854 -0.1530 -1.9487
  933MOL0     H25891   2.391   9.753   8.961 -1.2545  1.3798 -0.4181
  933MOL0     H25892   2.624   9.652   9.028 -3.1438 -0.1424 -1.1228
  933MOL0     H25893   2.572   9.796   9.120  2.7551 -0.1509  1.4232
  933MOL0     H25894   2.695   9.953   8.972 -0.6586 -0.3301  0.5971
  933MOL0     H25895   2.745   9.823   8.870 -1.2670 -0.6781 -0.0627
  933MOL0     H25896   2.796   9.862   9.172 -1.0284 -2.1872  0.4536
  933MOL0     H25897   2.839   9.719   9.094 -1.7030  0.6706  0.0842
  933MOL0     H25898   2.972   9.861   8.923 -0.9248 -2.6947  0.2423
  933MOL0     H25899   2.927  10.004   9.034  0.6377 -0.3531 -0.8614
  933MOL0     H25900   3.058   9.889   9.211 -1.8795 -1.8303 -0.3300
  933MOL0     H25901   3.099   9.760   9.104  1.1768 -0.2159 -2.6327
  933MOL0     H25902   3.151  10.047   9.063 -2.2930 -0.7797  1.8003
  933MOL0     H25903   3.210   9.912   8.959 -1.7587  3.4017 -0.9512
  933MOL0     H25904   3.297   9.992   9.247 -3.0550 -0.4713  0.1731
  933MOL0     H25905   3.358   9.848   9.164  2.2052  0.3617 -1.6514
  933MOL0     H25906   3.544   9.895   8.983  2.0172 -0.0831  3.1598
  933MOL0     H25907   3.752  10.020   8.866  2.9097  0.3398  1.0737
  933MOL0     H25908   3.757  10.192   8.859  2.3091 -0.9545 -1.6050
  933MOL0     H25909   3.840  10.190   9.112  2.3337  0.7703  0.4108
  933MOL0     H25910   3.813  10.017   9.103 -0.6130 -1.6160 -1.9391
  933MOL0     H25911   3.990  10.140   8.889 -0.7793 -1.7756 -1.6920
  933MOL0     H25912   3.981   9.973   8.944 -1.1467 -0.1022  2.9366
  933MOL0     H25913   4.102  10.193   9.127  3.5909 -1.3787  3.0408
  933MOL0     H25914   4.198  10.098   9.025  1.0267 -2.1809  0.1878
  933MOL0     H25915   4.325  10.163   9.196 -1.2414 -0.0862 -0.2907
  933MOL0     H25916   4.521  10.129   9.350 -0.7258  0.5199  0.9369
  933MOL0     H25917   4.891   9.901   9.301 -2.4751  1.1784  0.0695
  933MOL0     H25918   5.121   9.873   9.401  0.1995 -2.0537  1.9756
  933MOL0     H25919   5.215  10.067   9.709  2.2138  0.6998  0.4998
  933MOL0     H25920   5.185   9.934   9.834  0.9827 -1.8052 -0.4145
  933MOL0     H25921   5.411  10.023   9.853  0.6038  0.8082 -1.4121
  933MOL0     H25922   5.406   9.854   9.791  1.5194  0.6441 -0.2469
  933MOL0     H25923   5.461   9.900   9.578  0.2350  0.6800 -0.6954
  933MOL0     H25924   5.419  10.077   9.585  0.4025  0.5267 -0.8736
  933MOL0     H25925   5.622   9.957   9.780 -1.9239 -0.3140 -0.2845
  933MOL0     H25926   5.600  10.128   9.754 -1.5492 -0.5471  0.8267
  933MOL0     H25927   5.808  10.084   9.644 -0.0880 -2.3536  0.5813
  933MOL0     H25928   5.701  10.075   9.512 -1.2485 -0.3199 -0.0281
  933MOL0     H25929   5.808   9.832   9.675 -0.7412  0.9697  1.2463
  933MOL0     H25930   5.673   9.818   9.562  0.6122 -0.7727 -2.0597
  933MOL0     H25931   5.944   9.926   9.467  2.1550 -2.6874 -1.2453
  933MOL0     H25932   5.797   9.867   9.376 -1.2064 -1.2890  0.8301
  933MOL0     H25933   6.006   9.714   9.396 -1.4163  3.3462 -0.7862
  933MOL0     H25934   5.968   9.684   9.558 -1.1116 -1.0762 -0.0240
  933MOL0     H25935   4.974   9.926   9.796  1.6821  1.1917 -0.3740
  933MOL0     H25936   4.757   9.976   9.699 -1.2947 -1.2816 -0.1016
  933MOL0     H25937   4.361   9.760   9.466 -2.7952  1.5061  3.3792
  933MOL0     H25938   4.169   9.788   9.322  3.1037 -2.4485  0.5577
  933MOL0     H25939   2.368   9.880   8.703  1.6571  0.2682 -0.8465
  933MOL0     H25940   2.164   9.831   8.546 -0.5282 -0.7911 -0.8004
  933MOL0     H25941   1.885   9.708   8.341 -1.5834 -0.1071 -0.9650
  933MOL0     H25942   1.718   9.750   8.169  0.4289 -1.1013  3.1779
  933MOL0     H25943   1.666   9.910   8.011 -1.2468 -2.1343  0.3059
  933MOL0     H25944   1.625   9.865   7.856  1.2108  2.5799 -1.3767
  933MOL0     H25945   1.895   9.987   7.917  0.1181  1.8204 -0.1576
  933MOL0     H25946   1.747  10.056   7.846 -1.6794 -0.8838  2.0413
  933MOL0     H25947   1.900   9.809   7.722  2.3848  0.7471 -0.2799
  933MOL0     H25948   1.941   9.971   7.690 -0.2012 -2.8705 -1.9859
  933MOL0     H25949   1.652   9.894   7.640  0.2243 -0.8486 -0.3397
  933MOL0     H25950   1.736  10.040   7.599 -0.7970  1.3812  2.8703
  933MOL0     H25951   1.863   9.766   7.294 -0.6436 -0.5365 -0.4985
  933MOL0     H25952   1.999   9.642   7.871  2.8616 -2.2756 -0.0670
  933MOL0     H25953   2.224   9.633   7.914  0.8805  0.7231 -0.1069
  933MOL0     H25954   2.286   9.664   8.078 -1.6680 -2.1114  3.2293
  933MOL0     H25955   2.235   9.501   8.035 -2.5155 -0.2771  1.6859
  934MOL0     O25956   0.279   3.057   9.158  0.1391  0.3354  0.3293
  934MOL0     C25957   0.376   3.077   9.222 -0.0564  0.7750 -0.6842
  934MOL0     O25958   0.375   3.122   9.351 -0.0702  0.1313  0.0329
  934MOL0     C25959   0.250   3.138   9.416  0.3220 -0.4873 -0.4169
  934MOL0     C25960   0.260   3.129   9.556  0.7821  0.1479  0.2635
  934MOL0     C25961   0.145   3.158   9.634  0.0592 -0.2884 -0.1128
  934MOL0     C25962   0.025   3.191   9.581 -0.2844  1.5153  0.3618
  934MOL0     O25963  -0.065   3.215   9.673  0.0183  0.3661 -0.2638
  934MOL0     C25964  -0.202   3.194   9.639  0.5567  0.1732 -0.6501
  934MOL0     C25965  -0.290   3.216   9.767  0.7973  0.9199 -0.8585
  934MOL0     C25966  -0.351   3.073   9.811  0.8208 -0.4080  0.1250
  934MOL0     C25967  -0.482   3.034   9.738 -0.3070 -0.2121 -0.5012
  934MOL0     C25968  -0.566   2.940   9.830 -0.3772  0.5062 -0.7011
  934MOL0     C25969  -0.690   2.909   9.745  0.3777 -0.1083 -0.0404
  934MOL0     C25970  -0.807   2.851   9.830  0.0556 -0.3168  0.1457
  934MOL0     C25971  -0.943   2.881   9.751  0.7434  0.7955 -0.0229
  934MOL0     N25972  -0.958   2.805   9.623 -0.5513  0.3793  0.1397
  934MOL0     C25973  -0.957   2.668   9.612  0.2242  0.6102 -0.9121
  934MOL0     C25974  -0.979   2.632   9.482  0.8141 -1.0986 -0.2907
  934MOL0     C25975  -0.993   2.498   9.426  0.1431  0.2598 -0.3714
  934MOL0     C25976  -0.895   2.483   9.316 -0.1919  0.2460  0.3380
  934MOL0     C25977  -0.746   2.454   9.348  0.8806  0.2491  0.1214
  934MOL0     C25978  -0.654   2.446   9.229 -0.3379 -0.5950 -0.1745
  934MOL0     O25979  -0.544   2.365   9.259 -0.4246  0.5557  0.0677
  934MOL0     C25980  -0.416   2.403   9.217  0.3596  0.0560 -0.3645
  934MOL0     C25981  -0.381   2.475   9.106 -1.0317  0.1180  0.3355
  934MOL0     C25982  -0.255   2.500   9.066 -0.5371 -0.6659  0.2084
  934MOL0     C25983  -0.153   2.428   9.128 -0.3643 -0.7761  0.5099
  934MOL0     C25984  -0.009   2.440   9.075  0.7138  0.2618  0.8109
  934MOL0     O25985   0.018   2.544   8.991 -0.2810 -0.5577  0.2680
  934MOL0     C25986   0.157   2.545   8.968  0.9337 -0.2344 -0.4032
  934MOL0     C25987   0.253   2.596   9.060 -0.0479  0.2011  0.7977
  934MOL0     C25988   0.392   2.596   9.024  0.3057  0.2229 -0.5068
  934MOL0     C25989   0.429   2.560   8.894 -0.6369  0.6166 -0.3309
  934MOL0     O25990   0.560   2.574   8.852 -1.4941  0.6130 -0.2287
  934MOL0     C25991   0.623   2.455   8.792 -0.9140 -0.2858 -0.4488
  934MOL0     C25992   0.774   2.472   8.822  0.2708  0.3634  0.5323
  934MOL0     C25993   0.844   2.340   8.825 -0.2692 -0.2003 -0.1763
  934MOL0     C25994   0.996   2.373   8.808 -0.2019 -0.8641 -0.2012
  934MOL0     C25995   1.075   2.248   8.799 -1.0198  0.4646  0.1029
  934MOL0     C25996   1.221   2.273   8.760 -0.3454  0.4832  0.3100
  934MOL0     C25997   1.230   2.343   8.618  0.1984  0.0206  0.1646
  934MOL0     C25998   1.176   2.263   8.504 -0.3367 -0.2231  0.1979
  934MOL0    Cl25999   1.296   2.131   8.489 -0.5467  0.5362  0.1078
  934MOL0     C26000   0.335   2.507   8.806  0.3785 -0.0243 -0.5736
  934MOL0     C26001   0.200   2.498   8.850 -0.7069 -0.2941 -0.1792
  934MOL0     O26002   0.072   2.370   9.132 -0.0536  0.0260 -0.7237
  934MOL0     C26003  -0.182   2.351   9.245 -0.0794 -0.2320 -0.5743
  934MOL0     C26004  -0.314   2.343   9.291  0.0038  0.1363  0.3912
  934MOL0     N26005  -0.997   2.757   9.419 -0.2802 -0.0932 -1.0473
  934MOL0     N26006  -0.988   2.857   9.503  0.1146 -0.1451 -0.3162
  934MOL0     C26007   0.014   3.201   9.439 -0.6367 -0.4795  0.8409
  934MOL0     C26008   0.135   3.187   9.362 -0.0656 -0.9195  0.1212
  934MOL0     C26009   0.499   3.051   9.159 -0.3353  0.0104 -0.3946
  934MOL0     C26010   0.500   2.968   9.042 -1.2094  0.1739 -0.0139
  934MOL0     C26011   0.616   2.926   8.981 -0.3485 -1.0828  0.3874
  934MOL0     C26012   0.738   2.956   9.024  0.3016 -0.4488 -0.0734
  934MOL0     O26013   0.844   2.890   8.978 -0.4345  0.2183  0.2075
  934MOL0     C26014   0.951   2.984   8.952  0.6073  0.3853  0.4197
  934MOL0     C26015   1.044   2.914   8.846 -0.4264  0.7389 -0.8951
  934MOL0     C26016   1.069   2.763   8.881  0.2733 -0.1982 -0.8126
  934MOL0     C26017   1.170   2.697   8.781  0.5304  0.1372 -0.2965
  934MOL0     C26018   1.292   2.763   8.744 -0.7045  0.1246  0.1556
  934MOL0     C26019   1.403   2.807   8.722 -0.1889  0.6767  0.2811
  934MOL0     C26020   0.737   3.051   9.139 -0.0103 -0.6018 -0.0487
  934MOL0     C26021   0.624   3.096   9.207 -0.1167  0.5222 -0.2773
  934MOL0     C26022   0.643   3.191   9.319 -1.0914  0.1766  0.3533
  934MOL0     H26023   0.361   3.100   9.582  0.6330 -0.7000 -0.0623
  934MOL0     H26024   0.158   3.161   9.742  0.7194  1.0896 -0.2123
  934MOL0     H26025  -0.231   3.269   9.565  2.3222  1.8292  0.2437
  934MOL0     H26026  -0.207   3.101   9.582  4.3615 -0.8793  0.4071
  934MOL0     H26027  -0.366   3.294   9.753 -0.7136 -0.5708 -1.3751
  934MOL0     H26028  -0.238   3.260   9.853 -1.4388 -0.3514  1.2718
  934MOL0     H26029  -0.373   3.084   9.918 -0.9012 -0.1895 -0.2232
  934MOL0     H26030  -0.276   2.995   9.799  1.8181  0.3576  1.1689
  934MOL0     H26031  -0.545   3.121   9.717 -2.3785 -1.2662  0.9940
  934MOL0     H26032  -0.463   2.991   9.640  0.3588 -0.3978 -0.2936
  934MOL0     H26033  -0.515   2.845   9.851  0.1035  0.5498 -1.6220
  934MOL0     H26034  -0.602   2.981   9.925  0.6859 -6.1528  3.2718
  934MOL0     H26035  -0.716   3.007   9.703 -0.3358  0.1846  1.0593
  934MOL0     H26036  -0.669   2.839   9.664  0.7110  0.2125 -0.2333
  934MOL0     H26037  -0.810   2.906   9.925 -0.1650  1.4125 -0.8234
  934MOL0     H26038  -0.795   2.744   9.851 -0.8721 -0.7844 -1.5433
  934MOL0     H26039  -1.022   2.853   9.821  2.6546 -1.3497  1.3905
  934MOL0     H26040  -0.953   2.989   9.732  0.6856  0.9293  0.7324
  934MOL0     H26041  -0.950   2.592   9.690  0.1514  3.1971  1.7644
  934MOL0     H26042  -0.981   2.418   9.499 -1.7625 -0.0362 -0.3166
  934MOL0     H26043  -1.095   2.493   9.385 -0.5085  0.7530  1.1194
  934MOL0     H26044  -0.928   2.404   9.249 -0.6033  1.1729 -0.5827
  934MOL0     H26045  -0.887   2.576   9.258  2.2785 -0.3991 -0.5060
  934MOL0     H26046  -0.746   2.353   9.389 -1.9238  0.6427  1.3311
  934MOL0     H26047  -0.721   2.530   9.423 -3.6452  0.7547  1.4562
  934MOL0     H26048  -0.622   2.546   9.198 -1.0043 -0.6324 -1.0194
  934MOL0     H26049  -0.693   2.405   9.135 -1.8689  0.9849 -0.2710
  934MOL0     H26050  -0.459   2.503   9.036 -0.6994 -0.1968 -0.1658
  934MOL0     H26051  -0.244   2.561   8.977 -0.8133  0.9142  1.2142
  934MOL0     H26052   0.219   2.622   9.160 -0.2581  0.7446  0.5833
  934MOL0     H26053   0.472   2.612   9.095  0.8695 -4.3186  0.1461
  934MOL0     H26054   0.572   2.361   8.815 -1.2447 -0.2685 -1.0822
  934MOL0     H26055   0.613   2.460   8.683  0.3740 -1.5899 -0.6581
  934MOL0     H26056   0.818   2.551   8.759 -2.0068 -0.0952 -1.8008
  934MOL0     H26057   0.783   2.515   8.922 -0.5558 -0.8586  1.1523
  934MOL0     H26058   0.826   2.301   8.926  2.3981 -0.8422  0.1416
  934MOL0     H26059   0.813   2.273   8.745  0.8240 -1.0688  0.0947
  934MOL0     H26060   1.034   2.434   8.891  0.2247 -1.6013  0.1589
  934MOL0     H26061   1.009   2.431   8.716 -1.5650  0.8869  0.6683
  934MOL0     H26062   1.030   2.177   8.729 -0.1338 -1.9933  1.8508
  934MOL0     H26063   1.075   2.197   8.896  0.4008  0.2314  0.0054
  934MOL0     H26064   1.265   2.343   8.831  0.6647  0.7006 -0.4967
  934MOL0     H26065   1.286   2.185   8.750 -0.6797  0.0990  1.4056
  934MOL0     H26066   1.336   2.359   8.595  0.3353 -0.4536  0.4653
  934MOL0     H26067   1.182   2.441   8.614 -1.3748 -0.7076 -3.3246
  934MOL0     H26068   1.081   2.217   8.535  0.2289 -1.5084  0.0654
  934MOL0     H26069   1.160   2.310   8.407  0.3281  1.7241  0.9807
  934MOL0     H26070   0.367   2.456   8.716  4.2336 -2.8954  2.1194
  934MOL0     H26071   0.125   2.460   8.782 -0.6143 -0.6589 -0.0862
  934MOL0     H26072  -0.115   2.290   9.306  2.5201  1.8450 -1.1710
  934MOL0     H26073  -0.338   2.280   9.376  3.2559 -0.4509  1.0174
  934MOL0     H26074  -0.080   3.226   9.391  0.0737 -3.9578 -2.9654
  934MOL0     H26075   0.125   3.191   9.254  0.5985 -2.2415 -0.0080
  934MOL0     H26076   0.406   2.934   8.999  0.5064 -2.4993 -1.9587
  934MOL0     H26077   0.605   2.854   8.900 -3.0301 -0.5757  0.2109
  934MOL0     H26078   1.000   3.011   9.045  2.1451 -0.3169 -0.1466
  934MOL0     H26079   0.918   3.080   8.911 -0.8809  1.5821  4.0149
  934MOL0     H26080   1.142   2.963   8.856  1.1764 -2.3776 -0.2628
  934MOL0     H26081   1.001   2.915   8.745 -0.4575 -3.1538 -1.0419
  934MOL0     H26082   0.977   2.704   8.881  0.2675 -0.1981 -1.5868
  934MOL0     H26083   1.112   2.758   8.981  0.9597  1.1223 -1.0096
  934MOL0     H26084   1.203   2.601   8.822  1.7214  1.0007  0.8350
  934MOL0     H26085   1.114   2.665   8.692  1.8825 -2.5974 -0.2625
  934MOL0     H26086   1.496   2.859   8.725 -1.5974  3.4165  3.2013
  934MOL0     H26087   0.830   3.081   9.187  0.3337  2.7157 -2.4115
  934MOL0     H26088   0.575   3.276   9.313  1.5800  2.3605 -1.7850
  934MOL0     H26089   0.627   3.134   9.411  3.6625 -2.7772 -0.2890
  934MOL0     H26090   0.749   3.219   9.316 -0.4294 -2.1961 -0.4472
  935MOL0     O26091   5.706   0.834   8.500 -0.1064  0.4944  0.1889
  935MOL0     C26092   5.646   0.899   8.415  0.1471  0.1231 -0.2295
  935MOL0     O26093   5.707   1.010   8.357 -0.1239 -0.5304  0.2787
  935MOL0     C26094   5.834   1.026   8.389 -0.4502  0.9253 -0.0887
  935MOL0     C26095   5.932   0.984   8.299 -0.1254 -0.8118 -0.8202
  935MOL0     C26096   6.068   1.016   8.330 -0.7893 -0.0299  0.5021
  935MOL0     C26097   6.105   1.083   8.452  0.9000 -0.4540  0.7202
  935MOL0     O26098   6.237   1.117   8.478  0.2254  0.0177 -0.5129
  935MOL0     C26099   6.311   1.184   8.373  0.5891 -0.1267  0.5018
  935MOL0     C26100   6.448   1.237   8.428 -0.1670 -0.3019  0.1468
  935MOL0     C26101   6.558   1.195   8.326 -0.3953  0.1261  0.3343
  935MOL0     C26102   6.693   1.237   8.387 -0.4871  0.4258  0.1215
  935MOL0     C26103   6.801   1.237   8.279 -0.5756 -0.4058  0.7821
  935MOL0     C26104   6.939   1.254   8.336  0.1802 -0.2300 -0.2211
  935MOL0     C26105   7.045   1.289   8.235  0.4379 -0.1446 -0.9146
  935MOL0     C26106   7.094   1.164   8.147  0.5276 -0.0480 -1.0845
  935MOL0     N26107   7.179   1.202   8.031  0.2899 -0.0486 -1.6156
  935MOL0     C26108   7.309   1.164   7.995  0.3780  0.2411  0.1497
  935MOL0     C26109   7.331   1.234   7.880 -0.7009 -0.1819  0.0331
  935MOL0     C26110   7.446   1.214   7.780 -0.3111 -0.1751  0.0690
  935MOL0     C26111   7.576   1.289   7.811 -0.0663  1.0849 -0.0354
  935MOL0     C26112   7.695   1.223   7.734  0.6377  1.0870 -0.5215
  935MOL0     C26113   7.834   1.263   7.774 -1.0483 -1.0023 -0.2466
  935MOL0     O26114   7.917   1.146   7.792  0.6083  0.0658 -0.2668
  935MOL0     C26115   8.035   1.168   7.856  0.1453  1.1691 -0.2158
  935MOL0     C26116   8.091   1.294   7.875 -0.3723 -0.3308 -0.5349
  935MOL0     C26117   8.210   1.323   7.948  0.3695  0.0644  0.1156
  935MOL0     C26118   8.282   1.219   7.998  0.2374 -0.4409 -0.0775
  935MOL0     C26119   8.403   1.238   8.067  0.3781 -0.2390 -0.7492
  935MOL0     O26120   8.470   1.361   8.039  0.5701  0.5438  0.7088
  935MOL0     C26121   8.602   1.393   8.051  0.7952 -0.2366 -0.5004
  935MOL0     C26122   8.698   1.292   8.076  1.3282 -0.6242  0.7502
  935MOL0     C26123   8.831   1.336   8.090  0.3321  0.1117 -0.5631
  935MOL0     C26124   8.869   1.464   8.088  0.2339 -0.7300 -0.5910
  935MOL0     O26125   8.999   1.494   8.127  0.8956 -0.4512  0.2194
  935MOL0     C26126   9.036   1.611   8.203 -0.3354  0.5448 -0.1913
  935MOL0     C26127   9.185   1.616   8.232 -0.7219  1.3919 -0.1353
  935MOL0     C26128   9.225   1.530   8.351 -0.0885 -0.5643  0.1218
  935MOL0     C26129   9.365   1.569   8.405  0.4549 -0.1424 -0.2534
  935MOL0     C26130   9.385   1.461   8.510  1.1356 -0.9444 -0.3929
  935MOL0     C26131   9.490   1.495   8.614 -0.1765  0.2013 -0.2608
  935MOL0     C26132   9.616   1.524   8.535  0.2714  0.1945  0.4397
  935MOL0     C26133   9.737   1.528   8.622 -0.9364 -0.2166 -0.5487
  935MOL0    Cl26134   9.748   1.663   8.752  0.1646 -0.4991  0.3762
  935MOL0     C26135   8.772   1.558   8.076 -0.2735 -0.3648  0.0595
  935MOL0     C26136   8.639   1.527   8.048 -1.0391 -0.9515 -0.4433
  935MOL0     O26137   8.441   1.150   8.148 -1.1057 -0.3710  0.6381
  935MOL0     C26138   8.218   1.082   7.988 -1.1920  0.9638  0.2904
  935MOL0     C26139   8.100   1.060   7.918 -1.0617 -0.1593  0.2550
  935MOL0     N26140   7.222   1.312   7.853  0.3654 -0.2611  0.0957
  935MOL0     N26141   7.129   1.296   7.953 -0.6923 -1.1392  0.2063
  935MOL0     C26142   6.004   1.110   8.546 -0.2268  1.0873 -0.0480
  935MOL0     C26143   5.869   1.073   8.517 -0.6110 -0.5694  1.7171
  935MOL0     C26144   5.503   0.864   8.395 -0.3007 -0.6001  0.5998
  935MOL0     C26145   5.439   0.807   8.501 -0.2728 -0.2229  0.3142
  935MOL0     C26146   5.305   0.755   8.492 -0.0349 -1.0817 -0.6015
  935MOL0     C26147   5.229   0.767   8.373 -0.2906  0.4148  0.0583
  935MOL0     O26148   5.110   0.709   8.365  0.9469  0.1253 -0.0446
  935MOL0     C26149   5.038   0.694   8.241 -0.0950  0.3356  0.2814
  935MOL0     C26150   4.908   0.627   8.283 -0.0784  0.6074 -0.2661
  935MOL0     C26151   4.901   0.522   8.383  0.1506 -0.5853 -0.0131
  935MOL0     C26152   4.977   0.391   8.342 -0.7029 -0.2924  1.5097
  935MOL0     C26153   4.877   0.313   8.272 -0.6111 -0.1896 -0.5611
  935MOL0     C26154   4.795   0.242   8.225  0.3908 -1.2275  0.1583
  935MOL0     C26155   5.304   0.823   8.261  0.4754 -0.6639  0.8812
  935MOL0     C26156   5.434   0.878   8.275  0.6390  0.1289  0.0482
  935MOL0     C26157   5.503   0.934   8.150 -0.1605 -0.4810  0.5199
  935MOL0     H26158   5.902   0.940   8.205  0.6381 -0.4913 -1.2252
  935MOL0     H26159   6.145   0.999   8.255  0.0858  3.1088  0.5228
  935MOL0     H26160   6.337   1.110   8.296  2.6747 -0.4819  1.4787
  935MOL0     H26161   6.255   1.266   8.329 -1.4384 -3.2212 -3.3299
  935MOL0     H26162   6.472   1.190   8.524  2.5044 -2.1293 -1.2930
  935MOL0     H26163   6.447   1.345   8.443  1.3172 -0.3830  1.0207
  935MOL0     H26164   6.546   1.258   8.238 -1.2937 -0.1344  0.2605
  935MOL0     H26165   6.561   1.086   8.311  3.1657 -0.2364  2.3831
  935MOL0     H26166   6.695   1.341   8.421 -2.1509  0.9948 -1.3914
  935MOL0     H26167   6.728   1.173   8.468  2.6208  0.7247 -0.8257
  935MOL0     H26168   6.803   1.137   8.236  4.2016 -0.8838  1.5696
  935MOL0     H26169   6.789   1.323   8.212  3.9118  0.4534  0.7877
  935MOL0     H26170   6.939   1.336   8.409  1.9060 -1.1384  0.8720
  935MOL0     H26171   6.966   1.167   8.396  0.2145  0.4426  0.7781
  935MOL0     H26172   7.129   1.341   8.283 -0.0611 -1.1698  1.2010
  935MOL0     H26173   7.000   1.347   8.154  1.6557  0.1008 -1.4512
  935MOL0     H26174   7.153   1.101   8.215  0.0304 -1.2134 -1.6900
  935MOL0     H26175   7.015   1.101   8.106  2.0223 -1.5379 -1.8126
  935MOL0     H26176   7.365   1.078   8.029  0.3668  0.8104  1.7031
  935MOL0     H26177   7.473   1.109   7.773  1.3524  0.3162 -1.5991
  935MOL0     H26178   7.409   1.255   7.686  2.3664 -0.8202 -1.3728
  935MOL0     H26179   7.556   1.389   7.773 -0.5601  1.1652  0.4258
  935MOL0     H26180   7.597   1.298   7.918 -1.3929  1.6157  0.1922
  935MOL0     H26181   7.675   1.245   7.629 -1.5690 -0.9700 -0.6429
  935MOL0     H26182   7.685   1.114   7.745  0.8705  1.2619  2.2901
  935MOL0     H26183   7.826   1.316   7.869 -0.7761  2.0104 -1.7679
  935MOL0     H26184   7.871   1.339   7.704  1.0688  1.3168  3.0646
  935MOL0     H26185   8.045   1.386   7.841 -1.6606  0.2358  2.3517
  935MOL0     H26186   8.248   1.425   7.951 -2.6232  1.2673  2.7981
  935MOL0     H26187   8.683   1.184   8.078  2.9638 -0.9012 -0.2576
  935MOL0     H26188   8.905   1.256   8.093 -1.6787 -1.8178  0.0321
  935MOL0     H26189   9.004   1.702   8.151 -3.2097 -0.8932 -1.1820
  935MOL0     H26190   8.970   1.595   8.289  1.4386 -0.5852  1.0217
  935MOL0     H26191   9.244   1.575   8.151 -0.8370 -1.3330  1.0590
  935MOL0     H26192   9.218   1.719   8.250 -1.9760  1.8352 -0.2707
  935MOL0     H26193   9.151   1.558   8.427 -0.5247 -1.9017  0.2066
  935MOL0     H26194   9.231   1.424   8.326  1.3405 -0.1834 -1.3671
  935MOL0     H26195   9.387   1.670   8.440  3.2866 -0.0109 -2.0301
  935MOL0     H26196   9.437   1.561   8.323 -0.6476  3.1138 -1.7059
  935MOL0     H26197   9.409   1.365   8.464 -2.4198 -2.0911 -0.1504
  935MOL0     H26198   9.296   1.455   8.573  0.3860 -2.8217 -1.5627
  935MOL0     H26199   9.455   1.586   8.663  1.9619 -0.3554  2.5545
  935MOL0     H26200   9.498   1.413   8.686  1.1838  0.2523 -0.3240
  935MOL0     H26201   9.592   1.617   8.482 -3.6313 -2.0134 -2.2531
  935MOL0     H26202   9.620   1.441   8.464 -0.6372 -1.3789  2.1544
  935MOL0     H26203   9.766   1.437   8.675  1.8221  1.4932  1.1559
  935MOL0     H26204   9.828   1.535   8.562  1.1534 -5.2401  1.4565
  935MOL0     H26205   8.797   1.662   8.095  2.3780 -1.0287  0.6220
  935MOL0     H26206   8.578   1.613   8.023 -2.1362 -1.5100  0.1909
  935MOL0     H26207   8.272   1.005   8.042  3.0925  2.2237 -1.7468
  935MOL0     H26208   8.049   0.965   7.903 -6.4898  2.0899  1.9044
  935MOL0     H26209   6.022   1.163   8.639  1.4724 -1.1243  0.9777
  935MOL0     H26210   5.791   1.104   8.586 -1.2418  0.4899  0.5628
  935MOL0     H26211   5.490   0.788   8.595  2.4216 -0.1160 -1.0168
  935MOL0     H26212   5.259   0.715   8.582  0.3186 -0.0425  0.0610
  935MOL0     H26213   5.089   0.627   8.172 -3.9745 -1.5051 -1.0940
  935MOL0     H26214   5.015   0.784   8.183 -0.0195  0.7346  0.8574
  935MOL0     H26215   4.862   0.581   8.195  0.7000 -3.5412  1.2359
  935MOL0     H26216   4.840   0.709   8.306 -1.3087 -1.0038  2.2807
  935MOL0     H26217   4.796   0.508   8.412 -0.8572  2.8340 -1.4730
  935MOL0     H26218   4.945   0.558   8.477  0.9252  3.8509 -1.8333
  935MOL0     H26219   5.062   0.422   8.280 -2.6922  1.8135 -0.3312
  935MOL0     H26220   5.012   0.337   8.430  5.0170 -0.3256 -0.3672
  935MOL0     H26221   4.715   0.180   8.191 -0.2465 -0.6738  0.5916
  935MOL0     H26222   5.263   0.833   8.161  5.9702 -1.1730 -1.8414
  935MOL0     H26223   5.570   0.866   8.097 -0.3413  1.4017 -2.3567
  935MOL0     H26224   5.426   0.972   8.082 -0.7038 -1.7443  0.3953
  935MOL0     H26225   5.567   1.020   8.170  2.0176 -2.1682  1.2976
  936MOL0     O26226   5.460   0.216   6.893  0.2137  0.3316 -0.0763
  936MOL0     C26227   5.416   0.326   6.857 -0.1542 -0.4511 -0.5256
  936MOL0     O26228   5.484   0.441   6.893 -0.3318  0.2491 -0.6135
  936MOL0     C26229   5.614   0.435   6.937 -0.0038  0.8252 -1.3747
  936MOL0     C26230   5.663   0.342   7.037 -0.7219  0.3056 -0.0771
  936MOL0     C26231   5.798   0.350   7.078 -0.4354 -0.3387  0.0142
  936MOL0     C26232   5.891   0.441   7.014  0.6123  1.0633 -0.4304
  936MOL0     O26233   6.019   0.448   7.056 -0.4115  0.3474 -0.0229
  936MOL0     C26234   6.070   0.368   7.166 -0.0347  0.3821  0.3513
  936MOL0     C26235   6.223   0.350   7.146  0.2832 -0.3509  0.7596
  936MOL0     C26236   6.271   0.256   7.254  0.7316  0.2286  0.2899
  936MOL0     C26237   6.432   0.261   7.294 -0.1091  0.1289  0.0227
  936MOL0     C26238   6.490   0.124   7.346  0.2799 -0.2339  0.3157
  936MOL0     C26239   6.398   0.072   7.464  1.7288 -0.8306 -0.0741
  936MOL0     C26240   6.417  -0.079   7.495  0.2818  0.0061  0.2383
  936MOL0     C26241   6.559  -0.121   7.515 -0.9085  0.4754  0.0801
  936MOL0     N26242   6.636  -0.050   7.620  0.3877 -0.7039  0.5067
  936MOL0     C26243   6.593  -0.007   7.743  0.5239 -0.2573  0.0705
  936MOL0     C26244   6.693   0.036   7.812 -1.3848 -0.2604  0.6807
  936MOL0     C26245   6.695   0.088   7.956  0.1986  0.1017 -0.1458
  936MOL0     C26246   6.751  -0.017   8.058  0.5079 -1.1952  0.2158
  936MOL0     C26247   6.808   0.063   8.184 -0.6883  0.2847  0.8657
  936MOL0     C26248   6.842  -0.039   8.297 -0.4057 -0.0232  0.7228
  936MOL0     O26249   6.954  -0.120   8.265 -0.4362  0.3586  0.0818
  936MOL0     C26250   7.074  -0.101   8.327 -0.2431  0.9398  0.2079
  936MOL0     C26251   7.124   0.000   8.408 -0.6919 -1.1002  0.3571
  936MOL0     C26252   7.263  -0.005   8.454 -0.7047  0.4746 -0.4366
  936MOL0     C26253   7.350  -0.112   8.425 -0.5493  0.5524  0.0803
  936MOL0     C26254   7.495  -0.121   8.472 -0.3546  0.1544 -0.5162
  936MOL0     O26255   7.527  -0.028   8.565 -0.8251  0.2050  0.4317
  936MOL0     C26256   7.654  -0.041   8.620  0.1514 -0.1837 -0.2288
  936MOL0     C26257   7.659  -0.022   8.755  0.0824 -0.1019 -0.9221
  936MOL0     C26258   7.775  -0.032   8.828 -0.1866  0.4801  0.8710
  936MOL0     C26259   7.896  -0.055   8.764  0.8218  0.3601  0.2918
  936MOL0     O26260   8.011  -0.074   8.837  0.3077 -0.2814  0.1636
  936MOL0     C26261   8.130  -0.111   8.782 -0.0376 -0.2990  0.8164
  936MOL0     C26262   8.236  -0.001   8.779 -0.0177  0.0897  0.2916
  936MOL0     C26263   8.277   0.038   8.920  0.1397  0.0959 -0.1617
  936MOL0     C26264   8.395   0.131   8.927  0.6155  0.7790 -0.4836
  936MOL0     C26265   8.432   0.149   9.081 -0.2232  0.1453 -0.2111
  936MOL0     C26266   8.476   0.291   9.117 -0.6084  0.3972 -0.0874
  936MOL0     C26267   8.355   0.386   9.130  0.8733  0.0165  0.5024
  936MOL0     C26268   8.265   0.357   9.245  0.6782  0.4074 -0.0806
  936MOL0    Cl26269   8.350   0.433   9.395 -0.0010  0.2767  0.5539
  936MOL0     C26270   7.892  -0.056   8.622 -0.6140 -0.0278  0.3439
  936MOL0     C26271   7.776  -0.059   8.548  0.4169 -0.7468  0.2784
  936MOL0     O26272   7.567  -0.212   8.434  0.9804  0.0168  0.2400
  936MOL0     C26273   7.296  -0.214   8.347  0.2613  1.3098  0.5300
  936MOL0     C26274   7.163  -0.207   8.298 -0.2535 -0.6256 -0.6442
  936MOL0     N26275   6.810   0.032   7.723 -0.2963  0.6626  0.3872
  936MOL0     N26276   6.767  -0.035   7.614 -0.1786  0.3717  1.1342
  936MOL0     C26277   5.839   0.526   6.915 -0.1569  0.3386  0.0745
  936MOL0     C26278   5.706   0.529   6.882  1.0331  0.3416 -0.8021
  936MOL0     C26279   5.284   0.335   6.796 -0.2373  0.2049 -0.5187
  936MOL0     C26280   5.252   0.444   6.731 -0.3186 -0.1830 -0.3041
  936MOL0     C26281   5.125   0.461   6.676 -0.4666 -0.1816 -1.0794
  936MOL0     C26282   5.029   0.361   6.690  0.9145  0.2323  0.4280
  936MOL0     O26283   4.899   0.357   6.633  0.2308 -0.4697 -0.5658
  936MOL0     C26284   4.872   0.466   6.542  0.1869  0.4912  0.4048
  936MOL0     C26285   4.741   0.459   6.470  0.1888  0.6165 -0.1334
  936MOL0     C26286   4.743   0.340   6.366  0.4390 -0.4825  0.4083
  936MOL0     C26287   4.611   0.328   6.289 -0.4479 -0.6768 -0.4663
  936MOL0     C26288   4.505   0.278   6.381 -0.3686 -0.5765 -0.7869
  936MOL0     C26289   4.412   0.237   6.445  0.8538  0.3438  0.4981
  936MOL0     C26290   5.064   0.244   6.759 -0.2746  0.8143 -0.3675
  936MOL0     C26291   5.184   0.234   6.823 -0.1661  0.2781  0.2631
  936MOL0     C26292   5.208   0.120   6.918  0.3991 -0.4541 -0.6526
  936MOL0     H26293   5.594   0.274   7.085  0.4514 -1.0433 -0.2105
  936MOL0     H26294   5.830   0.277   7.151  1.8670  0.0149 -0.5428
  936MOL0     H26295   6.048   0.432   7.252 -1.0655  0.2812  0.1724
  936MOL0     H26296   6.018   0.272   7.174 -1.3771  1.0463 -0.2523
  936MOL0     H26297   6.273   0.446   7.155  3.2533 -1.6152 -0.8559
  936MOL0     H26298   6.257   0.307   7.052 -2.5118 -2.8030  0.7102
  936MOL0     H26299   6.240   0.155   7.224 -0.9075  0.6927  0.3433
  936MOL0     H26300   6.221   0.283   7.347 -3.7755 -5.4143  0.0873
  936MOL0     H26301   6.492   0.300   7.211 -0.1583 -0.1483 -0.1468
  936MOL0     H26302   6.461   0.332   7.371 -2.0564 -1.9971  2.9156
  936MOL0     H26303   6.497   0.050   7.266  2.4798  1.6345 -1.3525
  936MOL0     H26304   6.592   0.141   7.381 -0.2377  0.3741  1.5828
  936MOL0     H26305   6.413   0.133   7.553  1.0848 -0.0415 -0.4904
  936MOL0     H26306   6.291   0.085   7.442  1.5604 -1.1463  0.5455
  936MOL0     H26307   6.374  -0.140   7.415  2.5470 -0.7796 -0.4616
  936MOL0     H26308   6.361  -0.108   7.584  1.5827 -0.6617  0.8714
  936MOL0     H26309   6.556  -0.229   7.533  1.0424  0.0425 -1.7991
  936MOL0     H26310   6.616  -0.117   7.421 -0.2356 -0.7479  0.4167
  936MOL0     H26311   6.493  -0.016   7.783  0.3793  1.2784  0.1140
  936MOL0     H26312   6.755   0.178   7.970  0.3735  0.0239 -0.3860
  936MOL0     H26313   6.601   0.134   7.989 -0.0026  0.4734 -1.2119
  936MOL0     H26314   6.664  -0.070   8.099  0.9687 -2.8346 -0.8300
  936MOL0     H26315   6.827  -0.084   8.017  1.2909 -0.6828  0.8045
  936MOL0     H26316   6.724   0.114   8.230 -1.4810  0.8150 -1.0730
  936MOL0     H26317   6.898   0.117   8.153 -0.5744 -1.2364 -1.7722
  936MOL0     H26318   6.755  -0.105   8.304  1.2390 -2.5691 -1.2130
  936MOL0     H26319   6.855   0.019   8.388 -2.9588  1.0404  0.4987
  936MOL0     H26320   7.063   0.087   8.431 -0.3809 -0.6772 -0.3578
  936MOL0     H26321   7.299   0.082   8.508 -0.7854  0.9021 -1.0582
  936MOL0     H26322   7.559  -0.002   8.792  1.5376  2.8945  1.8665
  936MOL0     H26323   7.753  -0.057   8.932 -2.5811  0.0124  0.3180
  936MOL0     H26324   8.157  -0.200   8.840  0.6289 -0.7048 -0.0753
  936MOL0     H26325   8.119  -0.154   8.682 -2.6622  0.6483  0.6335
  936MOL0     H26326   8.323  -0.030   8.719  1.0668  2.0235  0.8403
  936MOL0     H26327   8.194   0.087   8.727  1.3998  1.4207  1.3155
  936MOL0     H26328   8.192   0.094   8.961 -0.4378  0.7553 -2.1466
  936MOL0     H26329   8.296  -0.053   8.978  1.0613  0.0818 -0.4762
  936MOL0     H26330   8.374   0.220   8.866  1.1893  1.7975  0.7455
  936MOL0     H26331   8.480   0.074   8.891  1.1077 -0.6415  2.6319
  936MOL0     H26332   8.510   0.077   9.110  1.2382  1.0932 -1.6000
  936MOL0     H26333   8.348   0.118   9.143 -2.1926  0.2630 -2.6586
  936MOL0     H26334   8.529   0.281   9.212  0.7808 -2.0497 -1.0420
  936MOL0     H26335   8.549   0.334   9.048 -0.9192  1.5813  0.2847
  936MOL0     H26336   8.290   0.376   9.042  1.3465 -1.5586  0.3024
  936MOL0     H26337   8.406   0.483   9.135 -0.0426  0.5440 -0.0291
  936MOL0     H26338   8.170   0.401   9.215  0.8993  0.1867 -1.1604
  936MOL0     H26339   8.247   0.250   9.255 -0.2772  0.3435 -2.0169
  936MOL0     H26340   7.984  -0.058   8.566 -0.9642 -1.2990 -0.2141
  936MOL0     H26341   7.781  -0.079   8.442 -2.1997 -1.1169  0.1621
  936MOL0     H26342   7.353  -0.305   8.332 -2.9539 -0.6554 -0.8121
  936MOL0     H26343   7.117  -0.294   8.253 -0.5936 -0.8828  0.1778
  936MOL0     H26344   5.906   0.598   6.869  1.7421 -1.0445  0.5696
  936MOL0     H26345   5.670   0.607   6.816  1.0333  1.2656  0.2642
  936MOL0     H26346   5.316   0.530   6.715 -0.8471  0.1703 -0.5420
  936MOL0     H26347   5.103   0.555   6.626  2.8735  0.4662 -1.5135
  936MOL0     H26348   4.959   0.481   6.478  0.1835  2.5206  0.8308
  936MOL0     H26349   4.860   0.554   6.606  0.0577 -0.2838  1.4812
  936MOL0     H26350   4.733   0.556   6.420  2.0515  0.3874 -0.9735
  936MOL0     H26351   4.664   0.452   6.547  0.7287 -0.2654  0.3488
  936MOL0     H26352   4.771   0.254   6.427  1.6590 -0.8292 -0.6032
  936MOL0     H26353   4.831   0.361   6.305  2.1062 -2.2013  2.0761
  936MOL0     H26354   4.594   0.428   6.250  5.1425  1.8050  2.3020
  936MOL0     H26355   4.627   0.256   6.208  1.3691 -1.9478  0.9260
  936MOL0     H26356   4.324   0.195   6.491  1.2153 -0.4590  0.4612
  936MOL0     H26357   4.996   0.159   6.760  0.7372 -0.1094 -2.7908
  936MOL0     H26358   5.112   0.078   6.951  0.7805  0.3311  1.6649
  936MOL0     H26359   5.259   0.034   6.874 -3.8905 -2.4222 -2.3271
  936MOL0     H26360   5.260   0.153   7.008 -1.2650  1.5218 -0.3328
  937MOL0     O26361   3.544   8.056   5.256 -0.2056  0.0549 -0.1999
  937MOL0     C26362   3.455   8.075   5.171  0.1231 -0.4563  1.0516
  937MOL0     O26363   3.467   8.056   5.037  0.4704 -0.4695 -0.3851
  937MOL0     C26364   3.594   8.039   4.978 -0.0390 -0.5268 -0.1041
  937MOL0     C26365   3.649   8.138   4.894  0.1367  0.0028 -0.1451
  937MOL0     C26366   3.780   8.121   4.850  0.5210 -0.6101  0.1059
  937MOL0     C26367   3.859   8.014   4.889 -0.5045 -0.0440 -0.7835
  937MOL0     O26368   3.979   8.014   4.824 -0.7711 -0.6470  0.8316
  937MOL0     C26369   4.032   7.885   4.779  0.2007  1.1558 -0.5770
  937MOL0     C26370   4.153   7.909   4.686  0.2749  0.8319  0.4442
  937MOL0     C26371   4.267   7.978   4.756 -0.0851  0.2160 -0.2463
  937MOL0     C26372   4.352   7.858   4.840  0.3311 -0.3229 -0.2546
  937MOL0     C26373   4.496   7.903   4.879  0.0578 -0.6717  0.3492
  937MOL0     C26374   4.501   8.018   4.973  0.2096 -0.2732 -0.0471
  937MOL0     C26375   4.636   8.052   5.029  0.1309 -0.0877 -0.2239
  937MOL0     C26376   4.730   8.080   4.921  0.2941  0.1201 -0.7844
  937MOL0     N26377   4.847   8.141   4.989  0.0250 -0.9429 -0.6596
  937MOL0     C26378   4.902   8.255   4.931  0.1460  0.5770 -0.2918
  937MOL0     C26379   5.004   8.285   5.017 -0.0332 -0.1048  0.0124
  937MOL0     C26380   5.117   8.388   5.011  0.3615 -0.6217  0.3451
  937MOL0     C26381   5.259   8.323   4.991  0.5954 -0.7444  1.2661
  937MOL0     C26382   5.361   8.404   5.061 -0.5968  0.8263 -0.1240
  937MOL0     C26383   5.494   8.371   4.977  0.4628  0.2199 -0.6720
  937MOL0     O26384   5.589   8.476   4.987 -0.2065  0.6007 -0.4427
  937MOL0     C26385   5.721   8.446   4.967  0.6793  1.0981 -0.6948
  937MOL0     C26386   5.786   8.332   5.012  0.4189  0.0955 -0.3884
  937MOL0     C26387   5.918   8.306   4.988 -0.3555 -0.3491 -0.4340
  937MOL0     C26388   5.998   8.411   4.937 -0.3156 -0.1459  0.4952
  937MOL0     C26389   6.143   8.392   4.947  0.3790  0.6633  0.5064
  937MOL0     O26390   6.192   8.345   5.072 -0.4072 -0.1319 -0.0319
  937MOL0     C26391   6.326   8.310   5.070  0.1669  0.5755 -0.4070
  937MOL0     C26392   6.355   8.180   5.099  0.1793  0.2968 -0.1449
  937MOL0     C26393   6.483   8.133   5.099 -0.3032  0.3313  0.3068
  937MOL0     C26394   6.594   8.212   5.068 -0.8974  0.1148  0.0731
  937MOL0     O26395   6.728   8.166   5.063 -0.3405 -0.6664  0.3788
  937MOL0     C26396   6.753   8.054   5.131  0.1035 -0.2989  0.2623
  937MOL0     C26397   6.904   8.037   5.142  0.3849 -0.0922  0.3167
  937MOL0     C26398   6.949   7.948   5.254 -0.1312  0.6320  0.4544
  937MOL0     C26399   7.103   7.970   5.270  0.2852 -0.0938  0.5526
  937MOL0     C26400   7.170   7.900   5.377  0.4374  0.1598 -0.4530
  937MOL0     C26401   7.318   7.923   5.385  0.7149  0.2075  0.1318
  937MOL0     C26402   7.383   7.880   5.509  0.7917  0.7086  0.5892
  937MOL0     C26403   7.534   7.862   5.487  0.2620 -0.3564 -0.6703
  937MOL0    Cl26404   7.620   7.762   5.614  0.2919 -0.2730  0.0200
  937MOL0     C26405   6.565   8.348   5.046 -0.1110  0.7826 -0.9707
  937MOL0     C26406   6.432   8.397   5.041 -0.0780 -0.9843 -0.6679
  937MOL0     O26407   6.210   8.414   4.849  0.1801  0.1336 -0.6860
  937MOL0     C26408   5.940   8.525   4.885 -0.2078  0.1027 -0.0316
  937MOL0     C26409   5.803   8.528   4.886 -0.0200 -0.5004 -0.9588
  937MOL0     N26410   5.008   8.197   5.124  0.3775 -1.4988 -0.6480
  937MOL0     N26411   4.922   8.108   5.097 -0.1003 -0.3464  0.2890
  937MOL0     C26412   3.820   7.922   4.987  0.4184  0.0400  0.2022
  937MOL0     C26413   3.683   7.942   5.025 -0.8564 -0.0493 -0.4209
  937MOL0     C26414   3.328   8.143   5.210 -0.0012 -0.0506  0.1247
  937MOL0     C26415   3.330   8.206   5.334 -0.2371  0.9620  0.0947
  937MOL0     C26416   3.219   8.269   5.386  0.4844  0.6611 -0.6140
  937MOL0     C26417   3.094   8.256   5.314  0.2353  0.9490 -0.4381
  937MOL0     O26418   2.974   8.307   5.365  0.1023 -0.3798  0.3934
  937MOL0     C26419   2.970   8.384   5.489 -0.0903  0.1287  0.1819
  937MOL0     C26420   2.823   8.371   5.528  0.0773  0.9024  0.5526
  937MOL0     C26421   2.794   8.231   5.587  0.7668 -0.2237  0.5649
  937MOL0     C26422   2.646   8.230   5.639  0.3577  0.8329  1.2673
  937MOL0     C26423   2.539   8.273   5.535 -0.6262 -0.8614 -0.6883
  937MOL0     C26424   2.474   8.293   5.437  0.1479  0.1488  0.4616
  937MOL0     C26425   3.094   8.199   5.185 -0.3955  0.5123 -0.1063
  937MOL0     C26426   3.209   8.139   5.132  1.4559 -0.6477  1.0396
  937MOL0     C26427   3.192   8.069   5.005  0.5539 -0.4979  0.3590
  937MOL0     H26428   3.584   8.216   4.856 -0.2894  0.8231  2.0898
  937MOL0     H26429   3.819   8.182   4.769  0.3868 -1.0138 -0.2732
  937MOL0     H26430   4.068   7.822   4.861 -0.9074 -0.3927 -1.2405
  937MOL0     H26431   3.954   7.824   4.733 -0.0138 -0.6328  1.9938
  937MOL0     H26432   4.125   7.974   4.602 -0.2250  1.1229  0.8266
  937MOL0     H26433   4.181   7.810   4.649  0.1160  0.7638  0.5052
  937MOL0     H26434   4.231   8.062   4.815  3.4619  1.8881 -0.2407
  937MOL0     H26435   4.338   8.015   4.682 -0.6851  0.6535 -0.6090
  937MOL0     H26436   4.293   7.844   4.931 -2.0098  3.4489 -0.9515
  937MOL0     H26437   4.354   7.762   4.788  1.6431 -0.3928 -0.1007
  937MOL0     H26438   4.548   7.823   4.933 -1.1233 -0.9511  1.1190
  937MOL0     H26439   4.555   7.921   4.789 -0.4543  0.3882  0.2172
  937MOL0     H26440   4.456   8.103   4.921  0.0908 -1.3561 -1.7960
  937MOL0     H26441   4.430   7.996   5.053 -0.0724  0.2452 -0.1474
  937MOL0     H26442   4.665   7.968   5.093 -0.8356 -0.5995 -0.4427
  937MOL0     H26443   4.617   8.141   5.090  2.3234  1.0611 -1.0929
  937MOL0     H26444   4.761   7.985   4.879  0.9883 -0.3786  0.7772
  937MOL0     H26445   4.692   8.137   4.836 -0.7164  3.2404  1.5486
  937MOL0     H26446   4.861   8.309   4.846 -2.5837 -0.8175  0.0325
  937MOL0     H26447   5.095   8.469   4.940 -1.9277 -2.8754 -1.7406
  937MOL0     H26448   5.111   8.430   5.112 -0.5482 -0.4712  0.2310
  937MOL0     H26449   5.270   8.225   5.037  0.7036 -1.4380 -0.1758
  937MOL0     H26450   5.283   8.322   4.884  3.2829 -0.0900  1.8092
  937MOL0     H26451   5.370   8.382   5.167 -2.1218  0.9244  0.0475
  937MOL0     H26452   5.331   8.508   5.049 -1.5508  0.5829  0.0001
  937MOL0     H26453   5.479   8.356   4.870 -0.7238  0.6278 -0.5728
  937MOL0     H26454   5.529   8.274   5.014  5.0839  1.7735 -0.2727
  937MOL0     H26455   5.734   8.247   5.055  2.4430 -1.5538 -1.0440
  937MOL0     H26456   5.970   8.217   5.022  1.1722  0.2584 -1.0759
  937MOL0     H26457   6.273   8.116   5.129 -0.8673  2.4379  1.8718
  937MOL0     H26458   6.493   8.028   5.125 -0.3081  0.8659  2.7025
  937MOL0     H26459   6.713   8.061   5.233  0.3048 -3.1732  0.6278
  937MOL0     H26460   6.716   7.960   5.089  4.9716 -2.1316 -0.5600
  937MOL0     H26461   6.937   8.008   5.042 -3.9720  0.8528 -1.5830
  937MOL0     H26462   6.951   8.135   5.155 -1.5556  0.8672  0.3839
  937MOL0     H26463   6.906   7.973   5.351  0.3092  0.4349  0.7040
  937MOL0     H26464   6.919   7.848   5.222 -1.0609  1.1529 -0.3313
  937MOL0     H26465   7.125   8.077   5.282 -3.6347  0.7823  1.3903
  937MOL0     H26466   7.144   7.938   5.174 -2.5236  0.8308 -1.0825
  937MOL0     H26467   7.136   7.796   5.382 -1.3621  0.7203 -0.1382
  937MOL0     H26468   7.131   7.937   5.472  2.5937 -0.4886  0.7616
  937MOL0     H26469   7.354   7.861   5.303  0.7182  2.1666 -1.4031
  937MOL0     H26470   7.331   8.027   5.353 -1.0343  0.0742 -1.0925
  937MOL0     H26471   7.338   7.783   5.532 -2.6820  2.6699  2.9129
  937MOL0     H26472   7.358   7.948   5.591  1.8901  1.1973  0.5370
  937MOL0     H26473   7.549   7.817   5.389  0.4660  0.0390 -0.8228
  937MOL0     H26474   7.580   7.961   5.484  1.0020 -0.6653  0.0309
  937MOL0     H26475   6.647   8.418   5.034  0.3964  0.4763  0.4999
  937MOL0     H26476   6.409   8.501   5.021 -0.3077 -1.1773 -1.4469
  937MOL0     H26477   6.007   8.598   4.839  0.2846  0.6461  1.5066
  937MOL0     H26478   5.760   8.618   4.843  1.3298 -0.2369 -1.7884
  937MOL0     H26479   3.891   7.843   5.012  2.2457  0.8155 -2.1370
  937MOL0     H26480   3.633   7.871   5.090 -0.8825 -0.7316 -1.1609
  937MOL0     H26481   3.415   8.193   5.400  0.8586  1.2473 -1.2124
  937MOL0     H26482   3.213   8.318   5.483 -0.0442 -1.6505  0.5754
  937MOL0     H26483   2.996   8.490   5.479 -2.1568  1.0910  3.4307
  937MOL0     H26484   3.031   8.339   5.568 -0.2959 -1.2453 -0.4042
  937MOL0     H26485   2.760   8.397   5.442 -0.8567 -1.3294  0.4932
  937MOL0     H26486   2.820   8.448   5.605  2.0848  1.3835  0.2013
  937MOL0     H26487   2.866   8.205   5.665  0.5404 -0.2547  0.7675
  937MOL0     H26488   2.805   8.163   5.502 -2.4676 -1.5124  1.0204
  937MOL0     H26489   2.626   8.132   5.685 -2.2665  0.9711  0.5783
  937MOL0     H26490   2.648   8.305   5.719  3.8501  2.4203 -0.0957
  937MOL0     H26491   2.404   8.292   5.356 -0.3435 -1.1698  0.8719
  937MOL0     H26492   2.997   8.204   5.137 -0.1023 -0.6898 -0.8546
  937MOL0     H26493   3.093   8.085   4.959  0.3221 -1.0115  0.6732
  937MOL0     H26494   3.251   8.119   4.927 -5.2622 -0.2460 -4.7337
  937MOL0     H26495   3.222   7.965   5.016  0.4319 -0.8388 -1.9958
  938MOL0     O26496   5.933   6.170   4.403  0.0469  0.4344  0.6089
  938MOL0     C26497   5.972   6.209   4.289 -0.6689 -1.1701 -0.3724
  938MOL0     O26498   6.094   6.202   4.239  0.1594  0.1416  0.0367
  938MOL0     C26499   6.202   6.171   4.325  0.2450 -0.3422 -0.5350
  938MOL0     C26500   6.290   6.062   4.297  0.0582  0.3708 -1.0052
  938MOL0     C26501   6.402   6.048   4.385 -0.0220 -0.8188  0.8454
  938MOL0     C26502   6.439   6.150   4.482 -0.1503  0.5623 -0.4931
  938MOL0     O26503   6.552   6.139   4.555  0.1165 -0.5064 -0.9316
  938MOL0     C26504   6.642   6.031   4.513  0.0116  0.4127 -0.1472
  938MOL0     C26505   6.770   6.040   4.590 -0.0455 -0.6183  0.1459
  938MOL0     C26506   6.884   5.938   4.563 -0.4894 -1.4465 -0.3886
  938MOL0     C26507   6.980   6.006   4.461  0.9239 -0.3597 -0.4491
  938MOL0     C26508   7.100   5.917   4.457  0.5810  0.7503  0.0108
  938MOL0     C26509   7.229   5.994   4.424  0.6180 -0.8059  0.5352
  938MOL0     C26510   7.292   6.052   4.553  0.0961  0.3864  1.0022
  938MOL0     C26511   7.345   5.942   4.647  0.3103  0.8091 -0.5402
  938MOL0     N26512   7.436   5.854   4.577 -0.5430  0.0656  0.8721
  938MOL0     C26513   7.558   5.880   4.519 -0.7237  0.0732 -0.0123
  938MOL0     C26514   7.607   5.760   4.484 -0.6580 -0.7282  0.7126
  938MOL0     C26515   7.732   5.725   4.402 -0.1608  0.4081 -0.7527
  938MOL0     C26516   7.862   5.695   4.482  0.6458 -1.1659 -0.5391
  938MOL0     C26517   7.937   5.820   4.519 -0.1640  0.8949  0.5677
  938MOL0     C26518   8.079   5.793   4.585 -0.4420 -0.0875 -0.4014
  938MOL0     O26519   8.170   5.765   4.475 -0.7575  0.1115 -0.1263
  938MOL0     C26520   8.294   5.701   4.497  0.4771  0.0151  0.9716
  938MOL0     C26521   8.370   5.686   4.383 -0.8445 -0.0664 -0.0181
  938MOL0     C26522   8.507   5.640   4.400 -0.5456  0.6685  0.1588
  938MOL0     C26523   8.560   5.583   4.511  1.2280 -0.1300 -0.6208
  938MOL0     C26524   8.698   5.534   4.509  0.0652  0.3469 -1.0622
  938MOL0     O26525   8.755   5.495   4.635  0.3136  0.3053  0.1483
  938MOL0     C26526   8.891   5.475   4.642  0.2727 -0.6078  1.7126
  938MOL0     C26527   8.935   5.356   4.703 -0.0984  0.0787 -0.7976
  938MOL0     C26528   9.067   5.325   4.741  0.2242 -0.8529  0.3264
  938MOL0     C26529   9.162   5.412   4.710  0.6123 -0.2363  0.5993
  938MOL0     O26530   9.290   5.396   4.749  0.2131 -0.3994  0.0746
  938MOL0     C26531   9.341   5.279   4.704 -0.1925 -0.4325  0.6328
  938MOL0     C26532   9.496   5.278   4.713 -0.5423  0.2702  0.3376
  938MOL0     C26533   9.571   5.148   4.747 -1.1024 -0.6047  0.0102
  938MOL0     C26534   9.513   5.031   4.666 -0.1764 -0.7965  0.1630
  938MOL0     C26535   9.600   4.917   4.661  1.2841  0.2014 -0.9873
  938MOL0     C26536   9.548   4.819   4.559  0.1482  0.2091  0.6831
  938MOL0     C26537   9.657   4.720   4.513  0.0208  0.3840  0.1018
  938MOL0     C26538   9.606   4.608   4.409 -0.5904  0.8855 -0.5564
  938MOL0    Cl26539   9.510   4.470   4.480  0.2966  0.1116 -0.8444
  938MOL0     C26540   9.133   5.530   4.646 -0.4104  0.5645 -0.2578
  938MOL0     C26541   8.994   5.560   4.611 -0.7952  0.0009 -0.5412
  938MOL0     O26542   8.763   5.555   4.405 -0.1850 -1.0391  0.3231
  938MOL0     C26543   8.466   5.586   4.624 -0.3880  0.1519  0.1671
  938MOL0     C26544   8.342   5.651   4.615  0.1863 -0.0759  0.0091
  938MOL0     N26545   7.524   5.657   4.521  0.2834 -0.1434  0.4272
  938MOL0     N26546   7.423   5.722   4.584  0.1262  1.1264  0.6394
  938MOL0     C26547   6.352   6.259   4.496  0.8829 -0.7614  0.3362
  938MOL0     C26548   6.233   6.268   4.425  0.1703  0.5692  0.8868
  938MOL0     C26549   5.871   6.251   4.187  0.3481 -0.6097 -1.0322
  938MOL0     C26550   5.909   6.243   4.054 -0.0040  0.1720  0.3521
  938MOL0     C26551   5.819   6.266   3.953  0.6633 -0.2243  0.1709
  938MOL0     C26552   5.688   6.304   3.980  0.6539 -0.3935 -0.3415
  938MOL0     O26553   5.607   6.343   3.872  0.4172  0.2432 -0.0533
  938MOL0     C26554   5.474   6.399   3.895  1.3634  0.1064 -1.2191
  938MOL0     C26555   5.417   6.457   3.771 -0.9378  0.4513  0.4078
  938MOL0     C26556   5.494   6.590   3.731  0.3508 -0.3352  0.7402
  938MOL0     C26557   5.424   6.657   3.608 -0.7466 -0.4291 -0.1357
  938MOL0     C26558   5.514   6.772   3.578 -0.7834 -0.2945 -0.3734
  938MOL0     C26559   5.566   6.874   3.566 -0.0691  0.0508  0.4380
  938MOL0     C26560   5.648   6.321   4.112  0.5253 -0.3270 -0.4185
  938MOL0     C26561   5.736   6.294   4.218 -0.3998  0.5213  0.1784
  938MOL0     C26562   5.708   6.341   4.358 -0.2470  1.3389  0.4759
  938MOL0     H26563   6.263   5.989   4.222  2.1410 -0.3393 -1.1377
  938MOL0     H26564   6.471   5.967   4.365  2.3699  1.4970 -0.9362
  938MOL0     H26565   6.595   5.933   4.522  0.8755  0.0248  0.3239
  938MOL0     H26566   6.676   6.038   4.409  2.4397 -0.3657  0.5255
  938MOL0     H26567   6.746   6.059   4.695 -1.6419  1.2789 -0.4924
  938MOL0     H26568   6.813   6.139   4.569  0.4677 -0.6982  0.7882
  938MOL0     H26569   6.840   5.850   4.515 -0.7654 -2.4334  1.5618
  938MOL0     H26570   6.932   5.906   4.656  1.3142  1.6116 -0.1302
  938MOL0     H26571   6.935   6.028   4.364 -1.3891 -0.9058  0.4351
  938MOL0     H26572   7.017   6.102   4.499  1.8090 -1.8647  2.8946
  938MOL0     H26573   7.119   5.861   4.549 -0.6652 -1.2763 -0.8966
  938MOL0     H26574   7.080   5.839   4.383 -5.6960 -0.4123  2.3770
  938MOL0     H26575   7.308   5.936   4.375  1.3018  0.5288 -0.0006
  938MOL0     H26576   7.204   6.087   4.373  0.5909  0.5292  2.8617
  938MOL0     H26577   7.227   6.119   4.610 -0.8514  1.9169 -1.7018
  938MOL0     H26578   7.380   6.111   4.526 -0.5543  0.8760 -0.1181
  938MOL0     H26579   7.396   5.993   4.730 -0.3782 -1.8705  1.6634
  938MOL0     H26580   7.260   5.883   4.684 -1.7121  1.6714 -3.4248
  938MOL0     H26581   7.595   5.980   4.496 -2.1583  0.6892  0.2497
  938MOL0     H26582   7.721   5.644   4.329  0.9697  1.8401 -2.6108
  938MOL0     H26583   7.748   5.811   4.336 -1.4265  1.0883 -0.1930
  938MOL0     H26584   7.837   5.644   4.575  3.7234 -1.7632  0.0670
  938MOL0     H26585   7.927   5.627   4.425 -0.2381 -1.2365 -1.4942
  938MOL0     H26586   7.889   5.888   4.590  0.5344  1.9508  0.0561
  938MOL0     H26587   7.944   5.879   4.426 -0.4810  1.5727  0.9665
  938MOL0     H26588   8.077   5.709   4.654  2.4654 -0.7385 -0.9903
  938MOL0     H26589   8.116   5.883   4.635 -1.9916 -0.9987  2.6171
  938MOL0     H26590   8.350   5.728   4.284  2.7752 -0.2007 -0.9500
  938MOL0     H26591   8.559   5.645   4.305 -2.0462  1.9320 -0.6423
  938MOL0     H26592   8.861   5.283   4.734 -0.4482  1.2203  1.2975
  938MOL0     H26593   9.083   5.234   4.797  0.5616 -0.5414  0.7401
  938MOL0     H26594   9.301   5.186   4.745  2.1536 -1.3459  0.9932
  938MOL0     H26595   9.324   5.285   4.596  2.9532  0.8653  0.1045
  938MOL0     H26596   9.539   5.326   4.625 -1.8771  1.4075  0.2760
  938MOL0     H26597   9.539   5.336   4.796 -0.0912 -1.9522  1.7496
  938MOL0     H26598   9.677   5.158   4.720 -0.5237 -0.1917  2.2738
  938MOL0     H26599   9.575   5.130   4.854  3.6493 -2.4797 -0.2284
  938MOL0     H26600   9.498   5.074   4.566 -0.5763  1.9380  1.3251
  938MOL0     H26601   9.417   5.004   4.710 -0.3222 -2.0119 -0.8394
  938MOL0     H26602   9.593   4.883   4.765 -3.0264  1.1572 -0.7944
  938MOL0     H26603   9.699   4.956   4.637  1.4967  0.7310  0.5958
  938MOL0     H26604   9.456   4.769   4.590 -0.6850 -0.5276 -2.5815
  938MOL0     H26605   9.528   4.881   4.471 -0.1005 -1.2050 -0.2941
  938MOL0     H26606   9.712   4.679   4.598 -0.6177  0.2713  0.4678
  938MOL0     H26607   9.728   4.776   4.452 -0.0180 -1.5948 -1.8897
  938MOL0     H26608   9.550   4.664   4.334 -0.0295  1.5800 -0.4595
  938MOL0     H26609   9.694   4.566   4.361 -0.1691 -0.6541  1.4032
  938MOL0     H26610   9.220   5.595   4.638  0.3464 -0.1514  1.6360
  938MOL0     H26611   8.977   5.661   4.574 -2.0407  0.8613  2.1779
  938MOL0     H26612   8.486   5.534   4.717  1.8480 -0.2565 -0.4922
  938MOL0     H26613   8.286   5.631   4.706  0.8180 -5.2771 -0.4475
  938MOL0     H26614   6.377   6.324   4.579 -0.7600 -0.1433  0.3749
  938MOL0     H26615   6.171   6.356   4.438  1.6632  1.4507  2.4355
  938MOL0     H26616   6.010   6.217   4.023  0.4069 -0.5659  2.1878
  938MOL0     H26617   5.850   6.261   3.849  1.3645 -1.3070  0.4204
  938MOL0     H26618   5.464   6.477   3.970 -4.6251 -1.0010 -0.3743
  938MOL0     H26619   5.404   6.321   3.928 -0.9721  2.0001 -1.4501
  938MOL0     H26620   5.316   6.493   3.795 -0.8107  0.9927  0.1537
  938MOL0     H26621   5.428   6.378   3.697  1.9344 -1.8043  2.9876
  938MOL0     H26622   5.600   6.563   3.722 -0.1004 -2.2670  0.6470
  938MOL0     H26623   5.496   6.666   3.809 -0.9910  1.4605 -0.8928
  938MOL0     H26624   5.409   6.593   3.520 -2.1002  2.6264 -2.2842
  938MOL0     H26625   5.334   6.708   3.642  1.4240  1.7274  2.9410
  938MOL0     H26626   5.624   6.963   3.554  1.3375 -0.5236  2.4110
  938MOL0     H26627   5.551   6.362   4.139  1.6616  0.8331  2.3052
  938MOL0     H26628   5.606   6.379   4.343 -0.7655 -1.0432 -3.1881
  938MOL0     H26629   5.721   6.255   4.424  0.5585  0.2910 -0.9866
  938MOL0     H26630   5.774   6.422   4.391  2.8449 -1.0402  0.6628
  939MOL0     O26631   6.773   6.022   8.613 -0.5948  0.2867 -0.4359
  939MOL0     C26632   6.847   5.927   8.588 -0.3709  0.1592  1.1331
  939MOL0     O26633   6.828   5.796   8.604 -0.2826 -1.1879 -0.2148
  939MOL0     C26634   6.700   5.758   8.645  0.2949  1.4172 -0.4990
  939MOL0     C26635   6.653   5.787   8.771 -0.8119 -0.0101  0.5555
  939MOL0     C26636   6.521   5.743   8.803  0.0754  0.5723  0.5669
  939MOL0     C26637   6.452   5.652   8.725 -1.3033 -0.2984 -0.0452
  939MOL0     O26638   6.330   5.608   8.781  0.6831  0.9904  1.2988
  939MOL0     C26639   6.238   5.528   8.700  0.3940 -0.3877 -0.0817
  939MOL0     C26640   6.281   5.370   8.691  0.4837 -0.6237  0.2086
  939MOL0     C26641   6.209   5.298   8.574 -0.6529  0.1005 -0.4359
  939MOL0     C26642   6.065   5.273   8.632  0.3197 -0.4389  0.4810
  939MOL0     C26643   5.952   5.205   8.545 -0.1023 -0.2182  0.6060
  939MOL0     C26644   5.937   5.276   8.405  0.4432 -0.8608 -0.9862
  939MOL0     C26645   5.922   5.430   8.425  0.3884  0.8913 -0.0825
  939MOL0     C26646   5.910   5.502   8.293  0.0597 -0.9677 -0.7830
  939MOL0     N26647   5.923   5.645   8.321  0.1263  0.2978  0.4116
  939MOL0     C26648   6.040   5.714   8.334 -0.1765  0.4188 -0.5219
  939MOL0     C26649   5.995   5.844   8.370 -0.6648  1.0296  0.0350
  939MOL0     C26650   6.071   5.972   8.391  0.0774 -0.0901 -0.4242
  939MOL0     C26651   6.167   5.954   8.508 -0.0009  0.3868 -0.1905
  939MOL0     C26652   6.249   6.078   8.546 -0.1572 -0.9511  0.0705
  939MOL0     C26653   6.360   6.125   8.455  0.1130  0.6758  0.1338
  939MOL0     O26654   6.413   6.229   8.539 -0.4916  0.5122 -1.1302
  939MOL0     C26655   6.524   6.294   8.495 -0.6617 -1.4489 -0.7232
  939MOL0     C26656   6.525   6.428   8.522 -0.1137  0.1776 -0.2771
  939MOL0     C26657   6.607   6.517   8.454  0.7360  0.2773  0.0256
  939MOL0     C26658   6.716   6.458   8.381 -0.2144 -0.3277 -0.8663
  939MOL0     C26659   6.814   6.540   8.311 -0.1480 -0.1551 -0.1654
  939MOL0     O26660   6.928   6.470   8.280 -0.5612  0.6569  0.5418
  939MOL0     C26661   7.053   6.529   8.278 -0.3607 -0.3632 -1.3534
  939MOL0     C26662   7.162   6.456   8.214 -0.3658  0.0854 -0.2920
  939MOL0     C26663   7.292   6.504   8.191 -0.4282 -0.3027 -0.2125
  939MOL0     C26664   7.312   6.640   8.244 -0.0040  0.2224 -0.3116
  939MOL0     O26665   7.433   6.710   8.219  0.1014  0.3992 -0.9870
  939MOL0     C26666   7.547   6.665   8.299 -0.2556  0.6021  0.4881
  939MOL0     C26667   7.634   6.572   8.222 -0.4957  0.9250  0.1845
  939MOL0     C26668   7.684   6.639   8.098  0.1233 -1.1325  0.3863
  939MOL0     C26669   7.803   6.741   8.128  0.7518  0.2067 -0.2430
  939MOL0     C26670   7.855   6.831   8.020  0.1642 -0.3183  0.4045
  939MOL0     C26671   7.950   6.938   8.071  0.3879 -0.7051 -0.4797
  939MOL0     C26672   8.090   6.880   8.074  0.1388 -0.6505 -0.0442
  939MOL0     C26673   8.171   6.946   8.186 -0.1225 -0.5153 -0.7154
  939MOL0    Cl26674   8.255   7.092   8.117 -0.3351 -0.2483  0.2902
  939MOL0     C26675   7.210   6.710   8.302  1.3553  0.2643 -0.4779
  939MOL0     C26676   7.089   6.651   8.334  0.7033 -0.3766 -0.0384
  939MOL0     O26677   6.799   6.662   8.291 -0.6404 -0.1314  0.3172
  939MOL0     C26678   6.718   6.318   8.365 -0.5684 -0.1851 -0.8173
  939MOL0     C26679   6.625   6.239   8.422  0.0941  0.3150 -0.0434
  939MOL0     N26680   5.857   5.839   8.380 -0.1394 -0.0979 -0.4311
  939MOL0     N26681   5.817   5.719   8.361 -0.9306  0.2524  0.2714
  939MOL0     C26682   6.503   5.609   8.601  0.5365 -0.7229  1.1765
  939MOL0     C26683   6.620   5.674   8.557  1.3182 -0.1442 -0.4344
  939MOL0     C26684   6.972   5.965   8.514 -0.1553  0.9337  0.0665
  939MOL0     C26685   6.955   6.003   8.377  0.5724 -0.1187 -0.1635
  939MOL0     C26686   7.070   6.028   8.305 -0.2509  0.1137  1.1842
  939MOL0     C26687   7.199   6.025   8.349 -0.0153  0.5058 -0.1517
  939MOL0     O26688   7.316   6.059   8.273  0.3186 -0.3889 -0.7651
  939MOL0     C26689   7.325   6.008   8.141  0.0124 -0.8311  0.3354
  939MOL0     C26690   7.418   5.892   8.129 -0.1919  0.4548  0.2427
  939MOL0     C26691   7.568   5.934   8.138 -0.3981  0.0827 -0.5427
  939MOL0     C26692   7.652   5.805   8.130  0.5317  0.8831 -0.3492
  939MOL0     C26693   7.795   5.838   8.154 -1.0596 -0.8395 -0.3308
  939MOL0     C26694   7.911   5.879   8.161  0.0683  0.8731  0.8650
  939MOL0     C26695   7.215   5.991   8.493  0.8942  1.4071 -0.7402
  939MOL0     C26696   7.101   5.963   8.571  0.3247  0.1859 -0.5322
  939MOL0     C26697   7.110   5.950   8.721  1.4438 -0.3918 -0.3839
  939MOL0     H26698   6.701   5.851   8.845 -1.2086  0.2233  0.6107
  939MOL0     H26699   6.483   5.781   8.897  1.0986  0.7735  0.9117
  939MOL0     H26700   6.141   5.533   8.749  0.1501  1.9747 -0.7062
  939MOL0     H26701   6.217   5.579   8.605 -1.2907  0.3651  0.6727
  939MOL0     H26702   6.268   5.320   8.788  1.3436  0.4241  0.8970
  939MOL0     H26703   6.385   5.361   8.660 -0.0118 -1.9989 -1.1312
  939MOL0     H26704   6.260   5.204   8.550  3.9261  2.2888 -0.2663
  939MOL0     H26705   6.212   5.363   8.485 -0.1088 -0.6076 -0.9453
  939MOL0     H26706   6.082   5.202   8.714  4.3069  1.3883  1.4644
  939MOL0     H26707   6.023   5.366   8.671  0.8306  0.2580 -0.5836
  939MOL0     H26708   5.981   5.100   8.532  1.8900  0.4943 -1.3030
  939MOL0     H26709   5.862   5.216   8.607 -1.1395 -0.8088 -0.7467
  939MOL0     H26710   6.029   5.260   8.347  0.0018  0.4770 -2.1120
  939MOL0     H26711   5.849   5.227   8.363 -3.2356  2.7458  1.7004
  939MOL0     H26712   6.016   5.465   8.470  3.2819 -1.4457 -3.7352
  939MOL0     H26713   5.834   5.450   8.487  2.0064  0.2976  2.6205
  939MOL0     H26714   5.991   5.482   8.223  0.5752  1.0764 -0.8257
  939MOL0     H26715   5.812   5.490   8.245  0.3064 -2.4986 -0.9726
  939MOL0     H26716   6.144   5.691   8.316  0.6403  1.8971  1.8760
  939MOL0     H26717   6.138   5.991   8.307  0.7375 -0.7825 -0.0675
  939MOL0     H26718   6.004   6.057   8.405  0.0190 -0.5220  3.0335
  939MOL0     H26719   6.110   5.907   8.589 -1.3363 -0.5859 -1.6213
  939MOL0     H26720   6.236   5.877   8.474 -2.5382 -1.8952 -0.5098
  939MOL0     H26721   6.286   6.062   8.648 -0.7958 -3.4654 -0.0134
  939MOL0     H26722   6.176   6.159   8.557  2.4040  1.3911  0.9911
  939MOL0     H26723   6.319   6.164   8.362  0.1741  1.4582  0.4211
  939MOL0     H26724   6.435   6.048   8.434  2.7972  2.8739  0.9540
  939MOL0     H26725   6.444   6.477   8.575  2.1649  2.2247  1.4988
  939MOL0     H26726   6.587   6.623   8.465 -1.8149  0.2415 -2.9343
  939MOL0     H26727   7.145   6.351   8.192 -0.0005  0.5243 -3.1325
  939MOL0     H26728   7.369   6.443   8.144 -0.1475 -1.8034  2.0942
  939MOL0     H26729   7.610   6.746   8.337  1.3848 -0.4771  0.1354
  939MOL0     H26730   7.499   6.610   8.380 -0.6902 -0.7994 -0.6629
  939MOL0     H26731   7.717   6.548   8.289 -1.2885 -2.7399  0.0962
  939MOL0     H26732   7.579   6.480   8.198  3.1022 -1.1898 -0.7194
  939MOL0     H26733   7.733   6.573   8.027 -0.1678  0.9345 -1.8741
  939MOL0     H26734   7.600   6.688   8.048  2.5638  0.4213 -2.5034
  939MOL0     H26735   7.888   6.679   8.157  0.1462 -0.0974  0.9394
  939MOL0     H26736   7.781   6.809   8.211  2.9788  1.2998 -0.4602
  939MOL0     H26737   7.767   6.877   7.974  0.0402 -1.7784 -0.9049
  939MOL0     H26738   7.906   6.774   7.942  1.7385 -1.0187  1.8830
  939MOL0     H26739   7.945   7.020   7.999  2.7325  0.9302  1.0593
  939MOL0     H26740   7.929   6.977   8.171  2.3721  3.0644 -1.3260
  939MOL0     H26741   8.131   6.887   7.973 -1.9032  1.7180 -0.8268
  939MOL0     H26742   8.087   6.773   8.093 -2.7016 -0.7017 -0.3579
  939MOL0     H26743   8.111   6.977   8.272  3.0264 -1.0560  1.8644
  939MOL0     H26744   8.245   6.876   8.226  0.8445  1.7560  1.8557
  939MOL0     H26745   7.242   6.806   8.340 -0.6212  1.0148 -0.6192
  939MOL0     H26746   7.018   6.709   8.391  0.3813  0.9524 -1.7108
  939MOL0     H26747   6.793   6.281   8.296 -1.8424 -1.6621 -1.4623
  939MOL0     H26748   6.642   6.132   8.411  3.2526  0.4819  1.8187
  939MOL0     H26749   6.451   5.551   8.525  1.8635  1.9774 -2.0307
  939MOL0     H26750   6.667   5.663   8.459  1.1485  0.0792 -0.5430
  939MOL0     H26751   6.854   6.009   8.339 -0.1034 -1.2584  1.3534
  939MOL0     H26752   7.050   6.058   8.202 -0.8594 -0.3328  1.1622
  939MOL0     H26753   7.352   6.087   8.070  0.2965 -0.8520  0.4198
  939MOL0     H26754   7.227   5.981   8.098 -1.1759 -0.2779  2.5526
  939MOL0     H26755   7.404   5.834   8.037  0.0320 -0.5507  0.8219
  939MOL0     H26756   7.396   5.820   8.208  1.4292 -1.0745 -0.6127
  939MOL0     H26757   7.590   5.975   8.237 -0.4842 -1.0614 -0.0321
  939MOL0     H26758   7.593   5.999   8.054  2.1800 -1.3398 -0.9821
  939MOL0     H26759   7.630   5.726   8.203  2.3737  0.6783  0.0533
  939MOL0     H26760   7.635   5.756   8.033  0.7864 -0.8389  0.4312
  939MOL0     H26761   8.012   5.914   8.148  0.2281  0.4630  0.9905
  939MOL0     H26762   7.314   5.992   8.538  0.1699  2.9218  0.9418
  939MOL0     H26763   7.093   5.848   8.757  0.6638  0.1060  0.7551
  939MOL0     H26764   7.213   5.965   8.755  2.0761 -2.3191 -1.3128
  939MOL0     H26765   7.032   6.016   8.760  0.5692 -1.4129 -0.3609
  940MOL0     O26766   4.798   4.576  11.364 -0.1522 -0.2978  0.2025
  940MOL0     C26767   4.734   4.679  11.407 -0.3034  1.6612  0.8245
  940MOL0     O26768   4.772   4.809  11.387  0.2027  0.4317  0.9060
  940MOL0     C26769   4.884   4.832  11.310  0.0415  0.1390  0.8099
  940MOL0     C26770   5.011   4.858  11.359 -0.1527 -0.6281 -0.2969
  940MOL0     C26771   5.110   4.908  11.279 -0.8868  1.0374  1.4191
  940MOL0     C26772   5.088   4.937  11.141  0.1396 -0.4072  0.5612
  940MOL0     O26773   5.174   5.018  11.064 -0.1534  0.5996 -0.1650
  940MOL0     C26774   5.315   4.990  11.092 -0.2441  0.0748 -0.2662
  940MOL0     C26775   5.407   5.033  10.971  0.0120 -0.6057 -0.2939
  940MOL0     C26776   5.550   4.986  10.993  0.0875 -0.1135  0.3189
  940MOL0     C26777   5.632   5.045  10.874 -0.0735  0.5191 -1.2771
  940MOL0     C26778   5.779   5.014  10.868 -0.3935  0.5262 -0.0396
  940MOL0     C26779   5.853   5.097  10.759  0.3623  0.0011 -0.7045
  940MOL0     C26780   6.000   5.075  10.763 -0.6567  0.5933 -0.1037
  940MOL0     C26781   6.068   5.136  10.881  0.4832 -0.5198  0.2675
  940MOL0     N26782   6.209   5.115  10.883 -0.7781 -0.0757 -0.1261
  940MOL0     C26783   6.311   5.210  10.861  0.8730  0.0768 -0.1493
  940MOL0     C26784   6.425   5.136  10.852 -0.3816  0.6946 -1.0254
  940MOL0     C26785   6.558   5.195  10.837  0.2683 -1.5665  0.0432
  940MOL0     C26786   6.570   5.322  10.924  0.2161  0.0798  0.8720
  940MOL0     C26787   6.700   5.325  10.994 -0.0147  0.1493 -0.5656
  940MOL0     C26788   6.827   5.341  10.907 -0.9732 -0.3006  0.0977
  940MOL0     O26789   6.814   5.447  10.813  1.1406  0.5574  0.1000
  940MOL0     C26790   6.912   5.541  10.799  0.1972 -0.8674  0.3164
  940MOL0     C26791   7.034   5.550  10.875 -0.0251  0.2277  0.3896
  940MOL0     C26792   7.120   5.664  10.860 -0.5653  0.2250  1.3688
  940MOL0     C26793   7.087   5.762  10.763  0.0075  0.4913  0.8290
  940MOL0     C26794   7.165   5.883  10.751 -0.1347  0.2133  0.1632
  940MOL0     O26795   7.103   5.998  10.707 -1.2533  0.4667  0.0432
  940MOL0     C26796   7.182   6.111  10.706  0.5315 -0.7422 -0.9702
  940MOL0     C26797   7.310   6.117  10.647  0.2117  0.1611 -0.5132
  940MOL0     C26798   7.380   6.238  10.631  0.5094 -0.0107 -0.1084
  940MOL0     C26799   7.324   6.362  10.671  0.0009  1.0761  0.0815
  940MOL0     O26800   7.376   6.491  10.655 -0.4957  0.3734 -0.1958
  940MOL0     C26801   7.515   6.501  10.626 -0.4841 -0.0167 -0.3716
  940MOL0     C26802   7.549   6.648  10.610 -0.4309 -0.5783  0.7831
  940MOL0     C26803   7.559   6.709  10.745 -0.6448  0.1636 -0.2189
  940MOL0     C26804   7.635   6.847  10.750 -0.4387 -0.1247  0.1696
  940MOL0     C26805   7.595   6.921  10.880 -0.5075 -0.0159  1.0606
  940MOL0     C26806   7.667   7.049  10.901 -1.2967  0.4181 -0.5228
  940MOL0     C26807   7.600   7.123  11.018  0.2127 -0.2481  0.0833
  940MOL0     C26808   7.648   7.271  11.041 -0.0500  0.4953  0.9137
  940MOL0    Cl26809   7.600   7.379  10.902  0.2462  0.1244 -0.0026
  940MOL0     C26810   7.203   6.354  10.738 -0.1863  0.0978 -0.4627
  940MOL0     C26811   7.128   6.232  10.751  0.2303 -1.0033  0.6266
  940MOL0     O26812   7.284   5.873  10.787  1.3517  0.1445 -0.1280
  940MOL0     C26813   6.967   5.749  10.694  0.1501 -0.1346 -0.6895
  940MOL0     C26814   6.877   5.642  10.710 -0.2945  0.5197 -0.6370
  940MOL0     N26815   6.390   5.003  10.862 -0.9952 -0.3600 -0.0167
  940MOL0     N26816   6.260   4.992  10.882 -0.0805 -0.5117 -0.0892
  940MOL0     C26817   4.968   4.899  11.087  0.9298  0.9049 -0.7977
  940MOL0     C26818   4.858   4.852  11.174  0.1744  0.9080  0.8308
  940MOL0     C26819   4.620   4.656  11.490 -0.2064  0.2119 -0.5913
  940MOL0     C26820   4.593   4.754  11.585 -0.2318 -0.0352 -1.0604
  940MOL0     C26821   4.489   4.738  11.674 -0.2645  0.4058  0.5148
  940MOL0     C26822   4.401   4.628  11.671  0.4832 -0.5969  0.0685
  940MOL0     O26823   4.307   4.627  11.769  0.8098  0.0909  0.1161
  940MOL0     C26824   4.188   4.569  11.739  0.5482  0.0740 -0.0461
  940MOL0     C26825   4.084   4.657  11.811  0.3260 -0.2990 -0.3100
  940MOL0     C26826   3.943   4.600  11.771 -0.2708  0.6846 -0.5273
  940MOL0     C26827   3.836   4.673  11.844  0.8150  0.2520  0.1866
  940MOL0     C26828   3.830   4.808  11.796  0.1781 -0.7195  0.2687
  940MOL0     C26829   3.834   4.922  11.758 -0.0676  0.6293  0.9991
  940MOL0     C26830   4.418   4.534  11.577 -0.4055 -0.3118 -0.0402
  940MOL0     C26831   4.531   4.542  11.485  0.2854 -0.4352  0.1755
  940MOL0     C26832   4.544   4.425  11.393 -0.5596 -0.0089 -0.1658
  940MOL0     H26833   5.017   4.839  11.466  1.0589 -1.8529 -0.5551
  940MOL0     H26834   5.201   4.919  11.337 -0.2726  2.9462  0.1846
  940MOL0     H26835   5.351   5.049  11.176 -1.2522  0.1952  0.1056
  940MOL0     H26836   5.337   4.885  11.115 -1.8530 -0.5429 -1.2587
  940MOL0     H26837   5.403   5.142  10.960 -4.3074 -0.6345 -0.8720
  940MOL0     H26838   5.360   4.989  10.882 -1.5234 -0.4844  0.4272
  940MOL0     H26839   5.541   4.877  10.997 -0.9876 -0.0425  0.0444
  940MOL0     H26840   5.581   5.029  11.089 -0.2243 -0.5337  0.6132
  940MOL0     H26841   5.580   5.005  10.786 -3.0654 -2.2539  1.4251
  940MOL0     H26842   5.620   5.153  10.883  3.2727  0.7866  3.2350
  940MOL0     H26843   5.818   5.041  10.967 -1.1092  2.9825 -0.3752
  940MOL0     H26844   5.797   4.907  10.849  0.2673  0.9030 -1.6681
  940MOL0     H26845   5.813   5.078  10.659  2.4683  1.8530 -1.9899
  940MOL0     H26846   5.835   5.203  10.777 -1.1244 -0.3617  0.0595
  940MOL0     H26847   6.044   5.126  10.677 -0.3939  3.2706  1.4982
  940MOL0     H26848   6.021   4.967  10.770  2.0661  1.0190 -0.4845
  940MOL0     H26849   6.030   5.238  10.874 -3.4993 -1.7643  1.0002
  940MOL0     H26850   6.025   5.090  10.971  0.7213 -0.9210  0.1801
  940MOL0     H26851   6.298   5.316  10.845  0.0526 -0.2044 -1.4951
  940MOL0     H26852   6.627   5.122  10.881 -1.1657 -0.1628  5.3073
  940MOL0     H26853   6.583   5.223  10.734  1.2251  3.0239  1.2783
  940MOL0     H26854   6.555   5.411  10.863  0.5668 -1.6901 -2.0012
  940MOL0     H26855   6.497   5.313  11.004 -0.8077  0.7842  0.0403
  940MOL0     H26856   6.721   5.233  11.049  0.1322  0.6885  0.2977
  940MOL0     H26857   6.714   5.408  11.064 -0.6009  0.0514 -0.3308
  940MOL0     H26858   6.843   5.243  10.861  0.9850 -0.1123  0.3233
  940MOL0     H26859   6.919   5.345  10.965 -0.6360 -2.7444 -0.1411
  940MOL0     H26860   7.072   5.478  10.947 -3.0343 -0.9755  0.9421
  940MOL0     H26861   7.213   5.655  10.915 -0.1114 -2.6540  0.2935
  940MOL0     H26862   7.370   6.033  10.613  0.7267  1.2704 -2.5113
  940MOL0     H26863   7.477   6.241  10.583 -0.1540  1.3747 -1.4241
  940MOL0     H26864   7.562   6.467  10.719  1.7419  1.5479 -0.8584
  940MOL0     H26865   7.551   6.442  10.542  0.9449  1.1981 -0.6500
  940MOL0     H26866   7.649   6.647  10.566  0.6633  1.2827  3.0475
  940MOL0     H26867   7.476   6.705  10.551  1.8613  1.2617 -0.4211
  940MOL0     H26868   7.461   6.718  10.793 -0.7736 -1.6733 -0.0744
  940MOL0     H26869   7.624   6.652  10.812 -1.6928  1.9735  2.5417
  940MOL0     H26870   7.610   6.910  10.664  0.4476 -1.2825 -0.9829
  940MOL0     H26871   7.742   6.822  10.744 -0.2065  1.1126 -2.6412
  940MOL0     H26872   7.606   6.856  10.967  0.8765  2.1222  2.5626
  940MOL0     H26873   7.490   6.949  10.866 -0.1448  1.0774  0.3707
  940MOL0     H26874   7.772   7.038  10.927 -1.2744  1.5542 -0.0355
  940MOL0     H26875   7.664   7.108  10.809 -1.7709  0.6066 -0.3920
  940MOL0     H26876   7.627   7.066  11.107 -1.3008  0.1214  0.8297
  940MOL0     H26877   7.491   7.112  11.012 -0.0471  1.6745  0.5164
  940MOL0     H26878   7.606   7.316  11.131 -0.1282 -1.9367  2.1894
  940MOL0     H26879   7.757   7.264  11.049 -0.2156 -1.4916  2.1743
  940MOL0     H26880   7.178   6.450  10.781 -1.3594 -0.4378  0.0645
  940MOL0     H26881   7.038   6.235  10.811  0.1459  0.7483  0.4665
  940MOL0     H26882   6.928   5.828  10.631  2.0643  1.5551  0.1595
  940MOL0     H26883   6.779   5.640  10.664 -0.9858 -0.2379  0.7955
  940MOL0     H26884   4.969   4.921  10.981 -3.4143 -1.6605 -1.6418
  940MOL0     H26885   4.766   4.832  11.121  0.8570 -0.0658 -0.0439
  940MOL0     H26886   4.649   4.845  11.600  0.5532 -0.6768  0.0160
  940MOL0     H26887   4.470   4.796  11.764 -0.4508  1.9166 -0.4634
  940MOL0     H26888   4.187   4.467  11.779 -0.3797  1.2113  3.1535
  940MOL0     H26889   4.173   4.562  11.631 -0.3568 -2.1272  0.1720
  940MOL0     H26890   4.102   4.759  11.774  2.2574 -0.2429  0.6468
  940MOL0     H26891   4.089   4.659  11.920 -0.5573 -0.6255 -0.2579
  940MOL0     H26892   3.931   4.497  11.806  0.1109  2.1236  4.7340
  940MOL0     H26893   3.937   4.607  11.662  1.0551 -0.4943 -0.7142
  940MOL0     H26894   3.742   4.619  11.831  0.5512  0.7208  0.1373
  940MOL0     H26895   3.849   4.668  11.952 -0.4542  1.2584  0.4118
  940MOL0     H26896   3.836   5.023  11.721 -0.1533 -0.6794 -3.0157
  940MOL0     H26897   4.348   4.451  11.585 -0.4572 -0.3844 -1.1676
  940MOL0     H26898   4.455   4.362  11.385  1.4420 -2.8612 -1.8967
  940MOL0     H26899   4.560   4.462  11.292 -2.9374  3.7303  0.6133
  940MOL0     H26900   4.626   4.361  11.428 -2.7310 -2.2765  1.1987
  941MOL0     O26901   9.766   7.994   2.293 -0.8937  0.1435  0.1422
  941MOL0     C26902   9.782   7.899   2.213  0.0686  0.8642 -0.5423
  941MOL0     O26903   9.682   7.846   2.139  0.0903  0.5331  0.0257
  941MOL0     C26904   9.555   7.914   2.141  0.2012  0.0660  0.2664
  941MOL0     C26905   9.441   7.831   2.121  0.3329  0.0657 -0.5237
  941MOL0     C26906   9.306   7.873   2.145 -0.5985 -0.4020  0.4175
  941MOL0     C26907   9.285   8.009   2.180 -0.2202  0.2054 -0.9827
  941MOL0     O26908   9.158   8.062   2.205 -0.5127 -0.6326  0.3535
  941MOL0     C26909   9.159   8.166   2.309  0.1478 -0.2290  0.3938
  941MOL0     C26910   9.012   8.182   2.346  0.4023  0.3150 -0.1725
  941MOL0     C26911   9.008   8.272   2.464  0.4922  0.2570 -1.7716
  941MOL0     C26912   8.873   8.318   2.533 -0.5838 -0.5735  0.7870
  941MOL0     C26913   8.889   8.419   2.653  0.9810  0.3475  0.8585
  941MOL0     C26914   8.757   8.506   2.669 -0.6700 -0.5519  0.2777
  941MOL0     C26915   8.651   8.435   2.767 -0.3482 -0.2221  0.0689
  941MOL0     C26916   8.507   8.481   2.763 -0.5402  0.1151  0.2605
  941MOL0     N26917   8.496   8.623   2.811 -0.1371 -0.4600 -0.1707
  941MOL0     C26918   8.504   8.668   2.945  0.6079 -0.1424  0.2577
  941MOL0     C26919   8.434   8.781   2.954 -1.5268  0.2495  0.1747
  941MOL0     C26920   8.430   8.846   3.083  0.5935  0.0523  0.5128
  941MOL0     C26921   8.513   8.970   3.091 -0.3855  0.2413 -0.0272
  941MOL0     C26922   8.661   8.948   3.098 -0.0477  0.8587 -0.4892
  941MOL0     C26923   8.735   8.969   2.977  0.4588  0.4996  0.3875
  941MOL0     O26924   8.875   8.957   2.999 -0.2998  0.4008  0.1918
  941MOL0     C26925   8.952   8.842   2.995  0.5805  0.1161 -0.4079
  941MOL0     C26926   8.903   8.713   2.960  0.0760 -0.3091  0.4860
  941MOL0     C26927   9.000   8.612   2.956  1.2433 -0.8056 -0.2054
  941MOL0     C26928   9.139   8.635   2.990  0.2151  0.8178  0.4228
  941MOL0     C26929   9.227   8.520   2.970 -0.9832  0.5302  0.4611
  941MOL0     O26930   9.360   8.544   2.919  0.9441  0.0207 -0.2229
  941MOL0     C26931   9.421   8.433   2.884 -2.1038  0.2838 -0.0569
  941MOL0     C26932   9.554   8.419   2.947 -0.4995 -0.5370  0.0076
  941MOL0     C26933   9.642   8.318   2.902 -0.0708  0.4991 -0.2433
  941MOL0     C26934   9.598   8.233   2.800  0.1416 -0.1582 -0.0200
  941MOL0     O26935   9.667   8.125   2.763 -0.3952 -0.6402 -0.2049
  941MOL0     C26936   9.812   8.139   2.777 -0.0326  0.0178  0.0854
  941MOL0     C26937   9.867   8.036   2.672 -0.0573 -0.8574  0.2686
  941MOL0     C26938  10.015   8.037   2.685 -0.6067  0.6900 -0.2467
  941MOL0     C26939  10.063   7.925   2.778  0.4891  0.7168 -0.7208
  941MOL0     C26940  10.212   7.898   2.775 -1.5234 -0.0725  0.1734
  941MOL0     C26941  10.276   7.886   2.639  0.5239 -0.5274 -0.4174
  941MOL0     C26942  10.427   7.873   2.654 -0.9201  0.4986 -0.9732
  941MOL0     C26943  10.474   7.729   2.678 -0.1228 -0.5205  0.3270
  941MOL0    Cl26944  10.649   7.709   2.727 -0.1413 -0.1756 -0.1791
  941MOL0     C26945   9.476   8.260   2.740  0.5678  0.5918 -0.7038
  941MOL0     C26946   9.385   8.353   2.772 -0.6470 -0.0389  0.3536
  941MOL0     O26947   9.177   8.408   2.990 -0.3406  0.0841  0.2503
  941MOL0     C26948   9.185   8.765   3.019  0.4894  0.0069  0.2776
  941MOL0     C26949   9.093   8.862   3.019  0.1357  0.3038  0.6507
  941MOL0     N26950   8.377   8.808   2.832 -0.2913 -0.1013 -0.3210
  941MOL0     N26951   8.404   8.715   2.752 -0.9717  0.5743  0.2066
  941MOL0     C26952   9.401   8.091   2.188  0.4497  0.2793 -1.0183
  941MOL0     C26953   9.536   8.046   2.156  0.5335 -0.0182  0.4369
  941MOL0     C26954   9.922   7.829   2.210 -0.0744 -1.2083 -0.2994
  941MOL0     C26955  10.033   7.893   2.269  0.6673 -0.0253  0.0960
  941MOL0     C26956  10.161   7.838   2.271 -1.1911 -0.9158  0.0817
  941MOL0     C26957  10.188   7.720   2.203  0.2796 -0.3334 -0.0118
  941MOL0     O26958  10.312   7.686   2.191 -0.8137 -0.0763  0.6139
  941MOL0     C26959  10.337   7.559   2.241 -0.2422  0.6087 -0.0900
  941MOL0     C26960  10.489   7.549   2.247  0.1169  0.2251  0.0099
  941MOL0     C26961  10.557   7.505   2.114 -0.2409  0.0848 -0.2668
  941MOL0     C26962  10.705   7.473   2.127  0.6054 -0.9048  0.9112
  941MOL0     C26963  10.734   7.365   2.219 -1.1282 -0.8224  0.6858
  941MOL0     C26964  10.795   7.284   2.290  0.2634 -0.6640  0.4676
  941MOL0     C26965  10.077   7.659   2.143 -0.0200  0.5289  0.5928
  941MOL0     C26966   9.947   7.710   2.137  0.7970  0.1670 -0.4369
  941MOL0     C26967   9.843   7.629   2.053  0.2910  0.4752  0.1010
  941MOL0     H26968   9.455   7.725   2.104 -0.4977 -0.1732  0.2078
  941MOL0     H26969   9.228   7.798   2.133 -1.1439 -0.0689  1.6395
  941MOL0     H26970   9.227   8.145   2.392  0.6789  0.3991  0.1288
  941MOL0     H26971   9.191   8.256   2.256 -1.4361 -0.8355 -1.7377
  941MOL0     H26972   8.971   8.081   2.356 -1.9971  1.1966 -0.6184
  941MOL0     H26973   8.966   8.223   2.256  0.8984 -2.4284 -1.7861
  941MOL0     H26974   9.074   8.356   2.438  0.4952  0.7886 -0.1539
  941MOL0     H26975   9.060   8.222   2.545 -0.6422 -0.5281 -1.5043
  941MOL0     H26976   8.830   8.375   2.450 -3.4923 -3.1876  0.3261
  941MOL0     H26977   8.809   8.234   2.558 -2.9403  1.2543  1.2731
  941MOL0     H26978   8.902   8.371   2.750  0.5648  4.2406  3.0493
  941MOL0     H26979   8.971   8.489   2.639  1.4178 -0.5173 -1.3657
  941MOL0     H26980   8.777   8.604   2.715 -3.9500  0.4174 -0.1550
  941MOL0     H26981   8.714   8.526   2.570  3.2372  0.5676 -1.3929
  941MOL0     H26982   8.684   8.453   2.870 -0.5873 -0.7954  0.2493
  941MOL0     H26983   8.648   8.331   2.733 -0.2630  1.2407 -5.3654
  941MOL0     H26984   8.468   8.462   2.662  1.9888  0.1039 -0.7860
  941MOL0     H26985   8.450   8.427   2.838  1.2280  1.7651  2.9706
  941MOL0     H26986   8.557   8.626   3.029 -2.2222 -0.5443  1.9782
  941MOL0     H26987   8.324   8.866   3.102  0.7742  2.0694 -0.3517
  941MOL0     H26988   8.468   8.794   3.171  2.6570  0.1518 -0.2623
  941MOL0     H26989   8.486   9.037   3.008 -3.3297 -1.0674 -0.2534
  941MOL0     H26990   8.480   9.022   3.181  1.1347 -0.1974  0.8164
  941MOL0     H26991   8.665   8.842   3.123 -1.9820  0.2216 -2.5724
  941MOL0     H26992   8.707   9.019   3.168  1.7006 -2.3955  1.9170
  941MOL0     H26993   8.708   9.066   2.935  0.9479 -0.4329 -2.2400
  941MOL0     H26994   8.705   8.892   2.905  0.2592 -1.9680  2.9258
  941MOL0     H26995   8.798   8.687   2.965 -0.5567  1.9388 -0.0256
  941MOL0     H26996   8.952   8.515   2.952 -0.7115  0.0126  1.6626
  941MOL0     H26997   9.583   8.481   3.031  2.6169  0.5805 -1.7097
  941MOL0     H26998   9.727   8.295   2.965 -0.5220  4.8731  2.4032
  941MOL0     H26999   9.846   8.240   2.750  1.2066 -1.1223 -3.2499
  941MOL0     H27000   9.846   8.123   2.879  1.0361 -0.5828 -0.3427
  941MOL0     H27001   9.819   7.939   2.689 -2.1503  0.0026 -0.3838
  941MOL0     H27002   9.842   8.067   2.570 -0.5552  0.5455  0.7887
  941MOL0     H27003  10.064   8.028   2.588 -0.1136  2.0844 -0.1545
  941MOL0     H27004  10.052   8.136   2.715  1.1323  0.0764 -0.2498
  941MOL0     H27005  10.011   7.832   2.753 -1.1951  1.2536  0.5377
  941MOL0     H27006  10.037   7.942   2.883  2.8179 -1.3210  0.2657
  941MOL0     H27007  10.247   7.811   2.832  2.7159 -0.0622 -2.0372
  941MOL0     H27008  10.264   7.980   2.825  0.3294 -0.1402 -1.5491
  941MOL0     H27009  10.227   7.804   2.586 -1.6922  1.3883 -1.5146
  941MOL0     H27010  10.256   7.976   2.580 -1.1570  0.1261  1.0577
  941MOL0     H27011  10.463   7.933   2.738 -2.1306 -1.8468  1.3630
  941MOL0     H27012  10.470   7.913   2.562 -0.7182  1.3757 -0.5170
  941MOL0     H27013  10.420   7.689   2.765 -2.9491  2.2000 -0.0044
  941MOL0     H27014  10.461   7.672   2.586  0.8501 -0.5243  0.1821
  941MOL0     H27015   9.440   8.182   2.674  0.4361  0.2665 -0.2579
  941MOL0     H27016   9.293   8.370   2.718  0.7806 -1.6073 -2.8663
  941MOL0     H27017   9.289   8.795   3.024  0.7286 -0.9018  1.2514
  941MOL0     H27018   9.136   8.956   3.049  5.1706  0.0784 -4.2026
  941MOL0     H27019   9.382   8.195   2.212 -0.2604 -0.2327  0.8974
  941MOL0     H27020   9.609   8.125   2.142 -0.9244  0.8923 -3.7180
  941MOL0     H27021  10.020   7.986   2.325 -0.2445 -0.9260  1.4506
  941MOL0     H27022  10.252   7.877   2.315 -2.5938  2.7197  0.0782
  941MOL0     H27023  10.297   7.478   2.180 -0.5545  2.0495 -1.8838
  941MOL0     H27024  10.301   7.552   2.344  1.1860 -0.6382  0.3606
  941MOL0     H27025  10.502   7.482   2.333  1.0743 -1.3443 -1.3009
  941MOL0     H27026  10.530   7.644   2.281  0.0898  1.1877 -2.4733
  941MOL0     H27027  10.552   7.588   2.043  2.0203 -1.8100 -2.8743
  941MOL0     H27028  10.499   7.432   2.057  0.5989  1.7738 -3.5544
  941MOL0     H27029  10.749   7.443   2.031  3.8771  0.9778  1.6737
  941MOL0     H27030  10.766   7.560   2.155  1.0308 -1.5590  2.0804
  941MOL0     H27031  10.855   7.207   2.332  0.5490  0.4773  2.2670
  941MOL0     H27032  10.089   7.567   2.086 -2.2403  1.3427 -1.3331
  941MOL0     H27033   9.883   7.538   2.007  2.2532  1.6436 -0.5789
  941MOL0     H27034   9.771   7.578   2.119 -0.9712 -0.5621 -1.9424
  941MOL0     H27035   9.790   7.689   1.978 -0.7185  1.0085  1.2103
  942MOL0     O27036   5.283  10.166  10.070  0.3733 -0.0605  0.1835
  942MOL0     C27037   5.315  10.182  10.183  0.1724  1.1818  0.2467
  942MOL0     O27038   5.432  10.233  10.224  0.3470 -0.2151 -0.0541
  942MOL0     C27039   5.526  10.257  10.129 -0.5189 -0.1276 -0.5217
  942MOL0     C27040   5.634  10.168  10.129  0.5895 -0.6578 -0.0175
  942MOL0     C27041   5.734  10.180  10.026  1.2645  0.6482 -0.4996
  942MOL0     C27042   5.728  10.287   9.932 -0.7468  1.0129  0.0883
  942MOL0     O27043   5.832  10.293   9.852 -0.6746 -0.2876 -0.8823
  942MOL0     C27044   5.893  10.420   9.836  0.1533  0.0791  0.4091
  942MOL0     C27045   6.034  10.400   9.895 -0.8924  0.3841 -0.2854
  942MOL0     C27046   6.096  10.538   9.910 -0.6469  0.3117  0.4414
  942MOL0     C27047   6.244  10.513   9.923 -0.3476 -0.0072 -0.3610
  942MOL0     C27048   6.326  10.649   9.958 -0.0332  0.7949 -0.3771
  942MOL0     C27049   6.482  10.630   9.949  0.2450  0.6383 -0.2492
  942MOL0     C27050   6.540  10.768   9.903 -0.5722  0.2585  0.1004
  942MOL0     C27051   6.686  10.771   9.945  0.5248  0.3486 -0.2147
  942MOL0     N27052   6.755  10.649   9.923 -0.3308  0.4185  1.0665
  942MOL0     C27053   6.788  10.564  10.027  0.0695  0.5662 -0.0451
  942MOL0     C27054   6.886  10.486   9.972 -1.1241  0.0698 -0.0741
  942MOL0     C27055   6.974  10.390  10.052  0.4053 -0.5526  0.9242
  942MOL0     C27056   7.118  10.440  10.060 -0.2928  0.3731  0.3945
  942MOL0     C27057   7.199  10.353  10.158  0.6107 -0.3998  0.7174
  942MOL0     C27058   7.340  10.394  10.169  0.2819  1.0573  0.0267
  942MOL0     O27059   7.402  10.307  10.263  0.0168 -0.0450  1.2644
  942MOL0     C27060   7.531  10.334  10.315  0.2179 -0.0693  0.0366
  942MOL0     C27061   7.598  10.240  10.394 -0.0370 -0.2152 -0.4860
  942MOL0     C27062   7.715  10.278  10.466 -0.3356  0.2089  0.3153
  942MOL0     C27063   7.769  10.401  10.458 -1.3762  0.3457 -0.6245
  942MOL0     C27064   7.882  10.441  10.538 -0.5593 -0.5476 -0.1851
  942MOL0     O27065   7.993  10.355  10.565  0.8118 -0.1448  0.4095
  942MOL0     C27066   8.103  10.398  10.612 -0.3682 -0.7257  0.1490
  942MOL0     C27067   8.147  10.532  10.649  0.3310 -0.0355 -0.2075
  942MOL0     C27068   8.289  10.545  10.676 -0.1971  0.8984 -0.7927
  942MOL0     C27069   8.372  10.435  10.699  0.2803 -0.0235 -0.4825
  942MOL0     O27070   8.505  10.447  10.736 -0.6211 -0.0943 -0.0708
  942MOL0     C27071   8.577  10.570  10.725 -0.0127  0.5770  0.6206
  942MOL0     C27072   8.716  10.563  10.757 -1.0329 -0.4515  0.9489
  942MOL0     C27073   8.780  10.699  10.749 -1.1444 -0.8441 -0.8237
  942MOL0     C27074   8.918  10.705  10.814 -0.0965  0.7431 -1.1297
  942MOL0     C27075   8.956  10.850  10.825 -0.8769  0.5237 -0.9172
  942MOL0     C27076   9.089  10.857  10.901  0.1694 -0.6684  0.3080
  942MOL0     C27077   9.072  10.889  11.051 -0.3194 -0.3227 -0.2232
  942MOL0     C27078   9.206  10.928  11.115  0.7175 -1.0109  0.2176
  942MOL0    Cl27079   9.311  10.779  11.098 -0.1655 -0.4212 -0.2634
  942MOL0     C27080   8.305  10.311  10.692 -0.4015 -0.0766  0.6506
  942MOL0     C27081   8.185  10.292  10.643 -0.4196  0.6808 -0.7878
  942MOL0     O27082   7.881  10.565  10.560  0.4517 -0.0247  0.2764
  942MOL0     C27083   7.710  10.492  10.370 -0.5512  0.0934  0.1577
  942MOL0     C27084   7.589  10.465  10.304 -0.3008  0.2413  0.0153
  942MOL0     N27085   6.910  10.521   9.844  0.2626 -0.7029  0.4686
  942MOL0     N27086   6.832  10.614   9.809  0.4053  0.0980  0.8560
  942MOL0     C27087   5.624  10.372   9.946  0.5527 -0.1310  0.3263
  942MOL0     C27088   5.513  10.355  10.027  0.4816  0.6366 -0.4953
  942MOL0     C27089   5.226  10.139  10.292 -0.4058  0.6113  0.3031
  942MOL0     C27090   5.284  10.134  10.416 -0.8888  0.3073 -0.1351
  942MOL0     C27091   5.214  10.078  10.530 -0.4405  0.3075  0.4793
  942MOL0     C27092   5.086  10.038  10.514  0.1936 -0.5071 -0.4747
  942MOL0     O27093   5.028   9.987  10.630  0.1004  0.3366  0.5160
  942MOL0     C27094   4.897   9.936  10.617 -0.1280  0.0858  0.4040
  942MOL0     C27095   4.819   9.916  10.744  0.0079  0.1694 -0.4576
  942MOL0     C27096   4.876   9.809  10.832 -0.3904  0.5438 -1.0936
  942MOL0     C27097   4.775   9.751  10.933  0.0623 -0.3575  0.2969
  942MOL0     C27098   4.671   9.661  10.873 -0.2712 -0.7273 -0.3096
  942MOL0     C27099   4.585   9.589  10.834 -0.6035 -0.8965  0.0139
  942MOL0     C27100   5.022  10.040  10.387  0.3884  0.0801 -1.0325
  942MOL0     C27101   5.096  10.086  10.275 -0.4849  0.2059 -0.1419
  942MOL0     C27102   5.035  10.076  10.141 -0.5644  0.3224  0.1124
  942MOL0     H27103   5.642  10.096  10.209 -4.1082  0.6449  1.8988
  942MOL0     H27104   5.809  10.101  10.016 -3.0103 -4.1486  0.7739
  942MOL0     H27105   5.900  10.458   9.734 -0.5429 -1.5233 -0.2522
  942MOL0     H27106   5.851  10.501   9.897  2.1054  1.9708 -0.5694
  942MOL0     H27107   6.087  10.325   9.836  0.4375 -0.0492  1.3879
  942MOL0     H27108   6.032  10.356   9.994 -0.2626  0.9384 -0.0162
  942MOL0     H27109   6.062  10.579  10.005  0.8046 -1.9418  2.0478
  942MOL0     H27110   6.069  10.606   9.830 -1.9445  0.5761  1.0843
  942MOL0     H27111   6.272  10.443  10.003 -1.4816  0.6023  0.5957
  942MOL0     H27112   6.294  10.477   9.832 -1.5522 -0.0803 -1.0071
  942MOL0     H27113   6.291  10.727   9.890  0.5870  0.7864 -0.7124
  942MOL0     H27114   6.295  10.674  10.060 -0.2964  2.8189 -0.9039
  942MOL0     H27115   6.512  10.615  10.053 -3.2396  3.8321  1.4402
  942MOL0     H27116   6.506  10.543   9.887  0.5106 -0.3352  1.1770
  942MOL0     H27117   6.490  10.853   9.949 -0.4612  0.6262 -0.4557
  942MOL0     H27118   6.523  10.781   9.796 -1.3413 -2.2257 -0.1608
  942MOL0     H27119   6.741  10.840   9.880  2.6275  0.8139  1.9217
  942MOL0     H27120   6.689  10.801  10.050 -2.5212  3.6767 -0.8784
  942MOL0     H27121   6.758  10.563  10.131  5.1208  3.8852  1.8136
  942MOL0     H27122   6.935  10.382  10.154  1.2130 -5.4067  1.1203
  942MOL0     H27123   6.982  10.287  10.016  2.2332 -0.3456  0.6250
  942MOL0     H27124   7.166  10.424   9.963 -1.0468  3.1220 -0.5386
  942MOL0     H27125   7.126  10.544  10.094 -1.2815 -0.6379  4.1320
  942MOL0     H27126   7.186  10.248  10.132 -0.7134 -0.6121  2.0968
  942MOL0     H27127   7.168  10.358  10.263  2.0739 -0.1716  1.1698
  942MOL0     H27128   7.339  10.494  10.212  2.1755  0.3206  1.9609
  942MOL0     H27129   7.388  10.373  10.073 -0.0306  0.4771 -0.0115
  942MOL0     H27130   7.561  10.139  10.408 -1.4038 -0.4838 -4.7052
  942MOL0     H27131   7.766  10.209  10.533 -1.0074 -1.1627 -0.5458
  942MOL0     H27132   8.090  10.623  10.641  0.4126 -0.1171 -1.9024
  942MOL0     H27133   8.316  10.648  10.698  0.7580  0.5377 -0.1947
  942MOL0     H27134   8.559  10.618  10.628  0.9116  0.1663  0.2393
  942MOL0     H27135   8.528  10.640  10.794  0.7096  0.3741  1.3559
  942MOL0     H27136   8.724  10.526  10.860 -2.0086 -0.3098  1.0827
  942MOL0     H27137   8.774  10.502  10.688  2.7658  3.9119 -0.1822
  942MOL0     H27138   8.772  10.750  10.653 -2.3976  0.8487  0.1079
  942MOL0     H27139   8.714  10.761  10.810 -1.5265 -2.2259  0.2209
  942MOL0     H27140   8.996  10.662  10.749  1.2504  4.1466 -1.9644
  942MOL0     H27141   8.913  10.654  10.910  0.4814  0.3622 -1.2953
  942MOL0     H27142   8.885  10.907  10.886  0.5809  0.6285  0.7760
  942MOL0     H27143   8.960  10.899  10.727 -1.4675  1.4949 -0.4697
  942MOL0     H27144   9.146  10.764  10.895  1.7869  0.3546 -0.8418
  942MOL0     H27145   9.152  10.936  10.860  0.2415  0.8672  3.1639
  942MOL0     H27146   9.042  10.795  11.099  1.4138 -0.0524  1.5461
  942MOL0     H27147   8.998  10.970  11.055 -1.0445 -0.9202 -1.0697
  942MOL0     H27148   9.242  11.022  11.072 -0.4557 -0.4117  0.5008
  942MOL0     H27149   9.177  10.947  11.219 -1.2685 -0.1055 -0.4427
  942MOL0     H27150   8.368  10.230  10.728  0.1849  0.9782  2.0988
  942MOL0     H27151   8.156  10.188  10.636  1.0816  0.1176  0.6880
  942MOL0     H27152   7.752  10.591  10.357 -0.4048  0.0234  0.0988
  942MOL0     H27153   7.539  10.545  10.250 -2.8392 -2.0623 -1.3183
  942MOL0     H27154   5.623  10.459   9.881  0.6493  1.7032  2.6306
  942MOL0     H27155   5.438  10.434  10.031 -0.5462 -0.2523 -1.4601
  942MOL0     H27156   5.381  10.175  10.443 -1.6013  4.0636 -2.5575
  942MOL0     H27157   5.267  10.077  10.625  1.8978  1.4502 -0.7180
  942MOL0     H27158   4.897   9.845  10.556 -0.4993 -1.9687  3.2841
  942MOL0     H27159   4.829  10.007  10.569  0.0658 -0.0307 -0.0470
  942MOL0     H27160   4.718   9.894  10.708 -0.7070  0.7206  1.1263
  942MOL0     H27161   4.797  10.001  10.808  1.1394 -1.1685  1.8551
  942MOL0     H27162   4.967   9.848  10.880  0.8864 -2.8636 -0.4419
  942MOL0     H27163   4.910   9.730  10.764 -1.2964 -0.3983 -0.4741
  942MOL0     H27164   4.819   9.696  11.017  0.1564 -1.0499 -0.2067
  942MOL0     H27165   4.735   9.842  10.979  0.5787  0.4960 -0.8859
  942MOL0     H27166   4.497   9.535  10.803  0.4414 -3.2567  0.9249
  942MOL0     H27167   4.919  10.015  10.362  0.7033 -3.0964  0.3362
  942MOL0     H27168   4.930  10.045  10.142  0.2978 -3.5253 -3.1945
  942MOL0     H27169   5.036  10.173  10.090 -2.0028  0.4592  0.3045
  942MOL0     H27170   5.083  10.000  10.079 -3.6039  0.3708 -2.5349
  943MOL0     O27171   1.078   1.840   4.154 -0.3132  0.0406  0.4005
  943MOL0     C27172   1.027   1.754   4.085  0.6073  0.0985  0.4675
  943MOL0     O27173   1.089   1.668   3.998 -0.3171 -0.5120  0.3216
  943MOL0     C27174   1.227   1.681   3.993  0.7262  0.3099 -0.0367
  943MOL0     C27175   1.284   1.720   3.872 -0.6444  0.1665  0.0034
  943MOL0     C27176   1.417   1.762   3.873 -0.0882 -0.0595 -0.5996
  943MOL0     C27177   1.502   1.755   3.980  1.0832 -0.2106 -0.0021
  943MOL0     O27178   1.631   1.783   3.964 -0.9791  0.6238 -0.7735
  943MOL0     C27179   1.672   1.912   4.017  0.9189  0.4099 -0.1418
  943MOL0     C27180   1.817   1.910   4.046  0.0300 -0.1729 -0.2822
  943MOL0     C27181   1.856   1.851   4.186  0.5374 -0.7233 -0.4238
  943MOL0     C27182   2.007   1.829   4.198  0.1423  0.2340  1.0266
  943MOL0     C27183   2.042   1.766   4.324 -0.9468 -0.4091 -0.0340
  943MOL0     C27184   2.193   1.732   4.318  0.6326 -0.0736 -0.4048
  943MOL0     C27185   2.248   1.697   4.455  0.0940  0.1801 -0.5485
  943MOL0     C27186   2.399   1.660   4.436 -1.5980 -0.1686 -0.0624
  943MOL0     N27187   2.484   1.681   4.559  0.0070  0.3185 -0.0172
  943MOL0     C27188   2.580   1.784   4.577 -0.0502  0.3251 -0.4048
  943MOL0     C27189   2.629   1.758   4.703  1.0753  0.0919 -0.5715
  943MOL0     C27190   2.724   1.842   4.783 -0.0158 -0.1361  1.5130
  943MOL0     C27191   2.873   1.849   4.740  0.0773  0.1856  0.7261
  943MOL0     C27192   2.934   1.715   4.725 -0.2935 -0.1428 -0.3158
  943MOL0     C27193   3.002   1.650   4.842 -0.6194 -0.1740  0.3552
  943MOL0     O27194   3.132   1.706   4.861  0.2183 -0.1436  0.4762
  943MOL0     C27195   3.242   1.637   4.802  0.9091 -1.0238 -0.1019
  943MOL0     C27196   3.342   1.707   4.725  0.2721  0.1896  0.2750
  943MOL0     C27197   3.461   1.647   4.688  0.3137  0.0207 -0.0819
  943MOL0     C27198   3.492   1.518   4.710 -0.5250  0.0764 -0.4822
  943MOL0     C27199   3.617   1.458   4.662 -1.0756 -0.9611 -0.3417
  943MOL0     O27200   3.647   1.331   4.704 -0.5964 -0.0896  0.8379
  943MOL0     C27201   3.768   1.264   4.690 -0.5269  0.7154 -0.0651
  943MOL0     C27202   3.770   1.125   4.704  0.7995 -0.2357 -0.7681
  943MOL0     C27203   3.888   1.053   4.668  0.8417 -0.9849  0.1329
  943MOL0     C27204   4.010   1.124   4.641 -0.2865  0.7909 -1.0990
  943MOL0     O27205   4.118   1.044   4.641  0.1846 -0.5250 -0.9228
  943MOL0     C27206   4.248   1.091   4.603  1.2521  0.5459  0.3299
  943MOL0     C27207   4.353   1.086   4.720 -0.2070  0.0970 -0.3131
  943MOL0     C27208   4.361   0.949   4.791 -0.2608  0.7419 -0.7873
  943MOL0     C27209   4.451   0.956   4.908 -0.4229  1.0700 -0.1908
  943MOL0     C27210   4.510   0.817   4.944  0.6007  0.5403 -0.5648
  943MOL0     C27211   4.402   0.710   4.983 -0.1591 -0.2110 -0.5175
  943MOL0     C27212   4.470   0.563   4.996  0.2423 -0.4127 -0.1785
  943MOL0     C27213   4.384   0.457   4.933 -0.2719  0.3293 -0.7172
  943MOL0    Cl27214   4.460   0.293   4.957  0.3858  0.3878 -0.1825
  943MOL0     C27215   4.006   1.263   4.629 -0.2481 -0.1327  0.3880
  943MOL0     C27216   3.890   1.327   4.669 -1.4206 -0.8578  0.1822
  943MOL0     O27217   3.689   1.526   4.592  0.0899 -0.9120  0.7762
  943MOL0     C27218   3.395   1.442   4.778  0.9268 -0.1916  0.1393
  943MOL0     C27219   3.275   1.506   4.833  0.8413  0.4289  0.1197
  943MOL0     N27220   2.580   1.639   4.752 -0.2474  0.7221 -0.0064
  943MOL0     N27221   2.498   1.589   4.663  0.3822  0.0617  0.5651
  943MOL0     C27222   1.446   1.696   4.096 -0.5008  0.4833  0.0765
  943MOL0     C27223   1.305   1.668   4.108 -0.2448  0.4684 -0.0663
  943MOL0     C27224   0.879   1.731   4.108  0.8040  0.2211 -0.0059
  943MOL0     C27225   0.831   1.604   4.074  0.0741 -0.2336  0.6020
  943MOL0     C27226   0.701   1.557   4.099 -0.0914 -0.7448 -0.9759
  943MOL0     C27227   0.612   1.651   4.164 -0.4390  1.2489  0.7247
  943MOL0     O27228   0.479   1.622   4.181 -0.2135 -0.6142 -0.0581
  943MOL0     C27229   0.416   1.543   4.080  0.1487 -0.9228  0.2268
  943MOL0     C27230   0.389   1.394   4.126  0.1329 -0.0237 -0.5129
  943MOL0     C27231   0.333   1.306   4.015  0.0598  0.3091 -0.5614
  943MOL0     C27232   0.201   1.362   3.951 -0.4562 -0.0534 -0.5099
  943MOL0     C27233   0.090   1.386   4.048 -0.4151 -0.8440 -0.4083
  943MOL0     C27234   0.003   1.391   4.129 -0.3981 -0.9448 -0.6239
  943MOL0     C27235   0.660   1.779   4.191  0.1031 -0.0961 -0.7270
  943MOL0     C27236   0.786   1.825   4.157  0.4727  0.0259  0.3745
  943MOL0     C27237   0.817   1.974   4.137  0.2222 -0.6451  0.0457
  943MOL0     H27238   1.225   1.720   3.781 -0.7967 -2.5636  0.0395
  943MOL0     H27239   1.459   1.801   3.780 -0.8398 -0.4084 -1.0970
  943MOL0     H27240   1.669   1.987   3.938  2.6540 -0.1513 -0.7782
  943MOL0     H27241   1.615   1.951   4.102 -0.7882 -0.4432 -0.8338
  943MOL0     H27242   1.849   2.014   4.045 -0.5801  0.0177  0.1345
  943MOL0     H27243   1.860   1.841   3.972 -0.3384 -1.5083  0.7104
  943MOL0     H27244   1.794   1.766   4.218 -0.2871  0.3682  1.0171
  943MOL0     H27245   1.840   1.939   4.250  2.3527 -0.0816 -0.8033
  943MOL0     H27246   2.028   1.771   4.107 -2.5873  0.7167 -0.0110
  943MOL0     H27247   2.064   1.921   4.181  2.3461 -1.2315  0.0216
  943MOL0     H27248   2.010   1.832   4.406 -0.2855  1.3055 -1.1086
  943MOL0     H27249   1.984   1.675   4.337 -0.3227 -0.9044 -0.6470
  943MOL0     H27250   2.215   1.648   4.252  0.9479  1.0362 -1.7807
  943MOL0     H27251   2.239   1.816   4.264 -2.0900  1.9611  0.1972
  943MOL0     H27252   2.190   1.619   4.505 -1.2964  2.0122  0.8831
  943MOL0     H27253   2.236   1.784   4.521 -0.5621  1.4932 -2.3139
  943MOL0     H27254   2.413   1.556   4.405  1.1089  0.6949 -2.1092
  943MOL0     H27255   2.430   1.720   4.350 -0.2074 -0.3869  0.2722
  943MOL0     H27256   2.608   1.875   4.525 -1.9876  1.7911  0.9407
  943MOL0     H27257   2.687   1.945   4.785 -2.0722 -0.6971 -1.3578
  943MOL0     H27258   2.725   1.799   4.884  1.1480 -3.8086  0.1372
  943MOL0     H27259   2.879   1.908   4.648  2.1273 -2.3802 -0.9248
  943MOL0     H27260   2.938   1.891   4.818  1.8786 -0.4031 -0.3967
  943MOL0     H27261   3.007   1.719   4.644 -1.1780 -1.2253 -1.2054
  943MOL0     H27262   2.858   1.643   4.692 -0.1974 -1.3670  1.9784
  943MOL0     H27263   3.008   1.543   4.819  0.8990  0.2828 -1.6944
  943MOL0     H27264   2.946   1.662   4.935  0.5099 -0.7208  1.1276
  943MOL0     H27265   3.313   1.804   4.685  2.1629  0.4011 -0.6940
  943MOL0     H27266   3.519   1.722   4.636  0.5882  0.0267  0.2351
  943MOL0     H27267   3.674   1.075   4.711 -0.0629  1.4123 -0.4621
  943MOL0     H27268   3.883   0.945   4.674  2.7555 -1.0322  3.2704
  943MOL0     H27269   4.289   1.034   4.519  1.0298  2.1531 -0.9208
  943MOL0     H27270   4.236   1.195   4.570 -1.6905  0.4721  0.9571
  943MOL0     H27271   4.450   1.114   4.678 -0.9344  0.0719 -2.1016
  943MOL0     H27272   4.323   1.167   4.787  0.2914 -0.0423  0.0843
  943MOL0     H27273   4.265   0.920   4.834  0.9329 -0.0618  1.5706
  943MOL0     H27274   4.387   0.867   4.723 -0.0577  0.8626 -0.8559
  943MOL0     H27275   4.392   1.001   4.988 -1.9559  0.9666 -1.2214
  943MOL0     H27276   4.533   1.018   4.870 -0.2390  1.3059  0.5770
  943MOL0     H27277   4.587   0.809   5.021  1.7971 -0.7330 -1.8249
  943MOL0     H27278   4.568   0.784   4.857 -1.7712 -1.4210 -1.5226
  943MOL0     H27279   4.361   0.742   5.079 -1.7688 -0.3222 -1.1434
  943MOL0     H27280   4.326   0.715   4.905  0.2832  4.5706 -0.8910
  943MOL0     H27281   4.505   0.547   5.098 -1.6025  1.8360  0.9134
  943MOL0     H27282   4.567   0.560   4.945  1.5043 -1.1104  2.1175
  943MOL0     H27283   4.284   0.473   4.976 -0.5165 -2.6023  0.0228
  943MOL0     H27284   4.386   0.478   4.825  2.7675  0.0351 -0.7990
  943MOL0     H27285   4.088   1.334   4.626  0.6969 -1.1947  0.3405
  943MOL0     H27286   3.894   1.435   4.674 -1.7971 -0.8460  0.2300
  943MOL0     H27287   3.412   1.337   4.800 -0.0122 -0.2376  0.6965
  943MOL0     H27288   3.206   1.441   4.886  0.9658 -1.1756 -1.5558
  943MOL0     H27289   1.518   1.673   4.174 -0.2035  0.7678 -0.1110
  943MOL0     H27290   1.268   1.622   4.199 -0.9980  1.2058  0.0144
  943MOL0     H27291   0.891   1.537   4.013  0.2300 -1.5402  2.1106
  943MOL0     H27292   0.660   1.462   4.066 -3.2362 -0.0969  0.6871
  943MOL0     H27293   0.476   1.551   3.989 -2.8682  3.0005 -1.7417
  943MOL0     H27294   0.323   1.595   4.055 -0.5109 -0.7118  2.7997
  943MOL0     H27295   0.350   1.378   4.227  2.8641  0.2056  0.6651
  943MOL0     H27296   0.490   1.357   4.147  0.0579  1.9012  4.4711
  943MOL0     H27297   0.312   1.203   4.047  1.7410 -0.5146 -1.9257
  943MOL0     H27298   0.418   1.298   3.946 -0.5559  1.5204 -1.4868
  943MOL0     H27299   0.226   1.453   3.895  0.9088  0.4377  0.8157
  943MOL0     H27300   0.170   1.290   3.875  1.3598 -0.1563 -1.2209
  943MOL0     H27301  -0.080   1.407   4.195  0.1006 -1.8622  0.2592
  943MOL0     H27302   0.590   1.850   4.234 -2.6655 -2.0119 -1.7243
  943MOL0     H27303   0.883   1.992   4.052  1.2479  0.2592  0.9906
  943MOL0     H27304   0.730   2.039   4.125  0.8691  0.3630  0.5932
  943MOL0     H27305   0.871   2.010   4.226 -2.9044  0.3539  1.6665
  944MOL0     O27306  11.353  10.084  11.281  0.2943 -0.0576  0.2851
  944MOL0     C27307  11.414  10.104  11.173 -0.3282 -0.2589 -0.6592
  944MOL0     O27308  11.545  10.138  11.163 -0.0657 -0.0716  1.4360
  944MOL0     C27309  11.623  10.164  11.275  1.2441 -0.3293  0.5576
  944MOL0     C27310  11.757  10.124  11.272  1.2685  0.1235  0.1689
  944MOL0     C27311  11.840  10.125  11.381 -1.2779 -0.0454  0.8273
  944MOL0     C27312  11.794  10.183  11.494  0.3997  0.3399  0.4004
  944MOL0     O27313  11.884  10.190  11.594  0.8245  0.2018 -0.2416
  944MOL0     C27314  11.844  10.247  11.722 -0.5140 -0.9458  0.7291
  944MOL0     C27315  11.977  10.239  11.795 -0.0872  1.0798 -0.8736
  944MOL0     C27316  12.001  10.091  11.843 -1.0113 -0.3799  0.9303
  944MOL0     C27317  12.117  10.029  11.758  0.4231 -0.3289  0.5547
  944MOL0     C27318  12.259  10.054  11.803 -0.3743 -0.3495 -0.2887
  944MOL0     C27319  12.346   9.975  11.704 -0.9446  0.5401 -0.3304
  944MOL0     C27320  12.500   9.969  11.749  0.5255 -0.9019 -0.3610
  944MOL0     C27321  12.567   9.841  11.761  0.0153 -0.1732 -0.5067
  944MOL0     N27322  12.518   9.752  11.869 -0.8759 -0.9603  1.1712
  944MOL0     C27323  12.492   9.783  11.992 -0.5064 -0.3034 -1.1068
  944MOL0     C27324  12.445   9.667  12.046  0.1545  0.4567 -0.7643
  944MOL0     C27325  12.403   9.667  12.193 -0.1568 -1.0835 -0.1296
  944MOL0     C27326  12.506   9.618  12.291 -0.5207  0.2505  0.1403
  944MOL0     C27327  12.470   9.645  12.441  0.6998 -0.0214 -0.0543
  944MOL0     C27328  12.568   9.600  12.560 -0.0289  0.3759 -0.3225
  944MOL0     O27329  12.699   9.655  12.549 -0.0658 -0.2328 -0.1352
  944MOL0     C27330  12.793   9.561  12.563 -0.4880  0.2550  0.8696
  944MOL0     C27331  12.854   9.488  12.459 -0.8203 -0.6069 -0.0803
  944MOL0     C27332  12.950   9.394  12.476 -0.1365 -0.5553  0.2282
  944MOL0     C27333  13.001   9.360  12.602  0.6343 -0.8778  0.1439
  944MOL0     C27334  13.100   9.247  12.625 -0.2454 -0.9059 -0.8284
  944MOL0     O27335  13.180   9.202  12.516 -0.1423  0.0647  0.1003
  944MOL0     C27336  13.290   9.124  12.543 -0.0003  1.8235 -0.4853
  944MOL0     C27337  13.286   8.984  12.497  0.9079 -0.1201 -0.6602
  944MOL0     C27338  13.401   8.903  12.519 -0.3625  0.4251 -1.0803
  944MOL0     C27339  13.507   8.949  12.592 -0.4726 -0.2958  0.4885
  944MOL0     O27340  13.606   8.862  12.626  1.0612  0.7026  0.0642
  944MOL0     C27341  13.646   8.756  12.534  1.2231  0.1747 -0.2788
  944MOL0     C27342  13.785   8.724  12.579  0.4876 -0.0028 -0.6124
  944MOL0     C27343  13.794   8.675  12.724  0.3066  0.4205  0.4485
  944MOL0     C27344  13.947   8.671  12.763  0.3800  0.0961 -0.0864
  944MOL0     C27345  13.964   8.666  12.913 -1.0627  0.3127  0.9168
  944MOL0     C27346  14.110   8.623  12.952  0.0129 -0.1232 -0.2979
  944MOL0     C27347  14.122   8.668  13.103  0.5235  0.3425 -0.6402
  944MOL0     C27348  14.271   8.690  13.138  0.3943  0.1782 -0.8358
  944MOL0    Cl27349  14.365   8.531  13.110  0.7349 -0.2224  0.2470
  944MOL0     C27350  13.515   9.087  12.634  0.0715 -0.4782 -0.6011
  944MOL0     C27351  13.398   9.165  12.613  0.3993 -0.7435  0.7234
  944MOL0     O27352  13.123   9.225  12.746 -0.6748  1.0144 -0.3551
  944MOL0     C27353  12.939   9.439  12.715  0.2327  0.6961  0.2264
  944MOL0     C27354  12.850   9.546  12.687 -0.6615 -0.2920 -0.5105
  944MOL0     N27355  12.465   9.563  11.962 -0.7391  0.2529  0.5121
  944MOL0     N27356  12.511   9.622  11.852  0.6926  0.4798 -1.2000
  944MOL0     C27357  11.664  10.234  11.502  0.0143 -0.0854 -0.4527
  944MOL0     C27358  11.582  10.220  11.397 -0.8668 -0.8936  0.9193
  944MOL0     C27359  11.344  10.064  11.046 -0.3112  0.1176  0.9086
  944MOL0     C27360  11.414  10.004  10.939 -0.4294 -0.1705 -0.4022
  944MOL0     C27361  11.361   9.955  10.820 -0.4009 -0.0181 -0.2472
  944MOL0     C27362  11.224   9.969  10.797  0.4218 -0.2358  0.0876
  944MOL0     O27363  11.168   9.926  10.677 -0.1746 -0.0745 -1.0359
  944MOL0     C27364  11.048   9.985  10.635 -0.8921 -0.3682 -0.4098
  944MOL0     C27365  11.015   9.977  10.480 -0.3567  0.2254  1.1113
  944MOL0     C27366  11.131  10.009  10.384 -0.6498  0.3991 -0.1637
  944MOL0     C27367  11.081   9.997  10.241 -0.0832 -0.1943  0.9085
  944MOL0     C27368  11.135   9.871  10.176  0.3833 -0.8213 -0.0385
  944MOL0     C27369  11.177   9.761  10.140  0.2455  0.2033 -0.8664
  944MOL0     C27370  11.149  10.032  10.901  0.5614  0.0691  0.9518
  944MOL0     C27371  11.208  10.087  11.022  0.1353  0.3912 -0.2700
  944MOL0     C27372  11.115  10.159  11.115 -0.4682 -0.9949 -0.5711
  944MOL0     H27373  11.794  10.081  11.179  1.9728 -0.5266  0.7263
  944MOL0     H27374  11.937  10.079  11.369  0.2223  2.5443  2.1707
  944MOL0     H27375  11.816  10.352  11.710  2.9841 -0.1079 -1.3218
  944MOL0     H27376  11.755  10.196  11.761 -0.1167 -1.4602  0.9744
  944MOL0     H27377  11.972  10.299  11.886  1.1967 -0.4566  0.2564
  944MOL0     H27378  12.069  10.274  11.745  0.5930 -0.8209 -1.0317
  944MOL0     H27379  11.911  10.030  11.836  0.1313 -1.9350 -2.7104
  944MOL0     H27380  12.023  10.088  11.950 -1.3787 -0.3591  1.0081
  944MOL0     H27381  12.104   9.920  11.755  0.5414 -0.3370  0.2793
  944MOL0     H27382  12.102  10.064  11.655 -0.4449  1.5390  1.2626
  944MOL0     H27383  12.297  10.157  11.809  1.8969 -1.1871  0.8093
  944MOL0     H27384  12.266  10.011  11.903  0.0061 -1.8188 -0.9148
  944MOL0     H27385  12.316   9.870  11.709 -0.1426  0.2706 -1.0008
  944MOL0     H27386  12.350  10.019  11.604 -2.4511  0.9929 -0.2200
  944MOL0     H27387  12.507  10.023  11.844  2.6864 -1.6110 -0.0657
  944MOL0     H27388  12.557  10.028  11.677 -0.4264  1.0781  0.4361
  944MOL0     H27389  12.561   9.780  11.671  0.4888  0.8143 -1.2195
  944MOL0     H27390  12.673   9.858  11.782 -0.0996 -2.4485  2.7427
  944MOL0     H27391  12.495   9.879  12.043  0.3529 -1.8394  1.9917
  944MOL0     H27392  12.365   9.766  12.219 -0.1354 -0.5923 -1.8541
  944MOL0     H27393  12.321   9.595  12.204 -0.6889 -1.1816 -3.6720
  944MOL0     H27394  12.518   9.510  12.284  0.0215  0.0689  2.6696
  944MOL0     H27395  12.598   9.672  12.269 -1.9762  2.2048 -1.5313
  944MOL0     H27396  12.370   9.606  12.462  0.2965  1.4774  0.9924
  944MOL0     H27397  12.465   9.753  12.460  0.4609  0.1633 -1.0916
  944MOL0     H27398  12.570   9.491  12.571  0.6395  0.4435  0.3013
  944MOL0     H27399  12.521   9.638  12.652 -0.9304  1.2936 -1.1280
  944MOL0     H27400  12.811   9.502  12.361 -0.0222 -1.1938 -0.5282
  944MOL0     H27401  12.984   9.346  12.385  2.1430 -2.1175  1.7865
  944MOL0     H27402  13.201   8.964  12.433  0.3378  0.6897 -0.1702
  944MOL0     H27403  13.397   8.801  12.482  0.5572 -0.2565  0.6036
  944MOL0     H27404  13.579   8.670  12.544 -0.8590  1.6560 -0.6299
  944MOL0     H27405  13.653   8.784  12.429  1.1264  0.2410 -0.2683
  944MOL0     H27406  13.810   8.650  12.502 -1.6693 -1.4400 -0.0294
  944MOL0     H27407  13.836   8.820  12.570 -1.2306  0.8564 -1.9141
  944MOL0     H27408  13.741   8.741  12.793 -2.9654 -0.0648 -1.3900
  944MOL0     H27409  13.743   8.579  12.735 -3.3625  2.0132 -0.9286
  944MOL0     H27410  14.000   8.765  12.744 -0.1203  0.6944  1.3148
  944MOL0     H27411  13.994   8.585  12.716 -3.6952 -2.4384 -0.0418
  944MOL0     H27412  13.894   8.591  12.951 -1.3588  0.0815 -0.0436
  944MOL0     H27413  13.942   8.764  12.957  2.6349  2.8232 -2.1613
  944MOL0     H27414  14.121   8.516  12.932 -0.0045  0.0763 -1.4267
  944MOL0     H27415  14.175   8.681  12.887 -1.8941  0.7760 -1.4722
  944MOL0     H27416  14.069   8.596  13.166  0.2157  2.0461  1.1321
  944MOL0     H27417  14.065   8.759  13.124  0.1075  0.3214 -1.6231
  944MOL0     H27418  14.306   8.759  13.061 -0.2168  0.5437 -0.7913
  944MOL0     H27419  14.272   8.717  13.244 -0.3473 -1.2431 -0.4355
  944MOL0     H27420  13.584   9.137  12.701  1.4640 -0.4459 -2.0172
  944MOL0     H27421  13.405   9.269  12.644 -3.0449 -0.1191 -0.2144
  944MOL0     H27422  12.970   9.409  12.815  0.9155 -0.8890 -0.4321
  944MOL0     H27423  12.811   9.604  12.770 -2.5473  0.1351 -1.6278
  944MOL0     H27424  11.624  10.272  11.596  0.8156  1.0663 -0.5511
  944MOL0     H27425  11.479  10.251  11.411 -0.7465  1.0430 -1.5915
  944MOL0     H27426  11.519   9.990  10.962 -0.5820  1.0350  1.1670
  944MOL0     H27427  11.427   9.910  10.747 -1.0535 -1.2155 -0.1176
  944MOL0     H27428  11.054  10.093  10.649  1.0541 -0.4919  0.0662
  944MOL0     H27429  10.969   9.949  10.702 -0.1511 -0.2745  0.5380
  944MOL0     H27430  10.926  10.038  10.464  0.2888  0.5464 -1.8181
  944MOL0     H27431  10.975   9.877  10.460  0.3177 -0.3140  2.3578
  944MOL0     H27432  11.221   9.955  10.414  0.3250  0.5123 -2.6439
  944MOL0     H27433  11.155  10.114  10.404 -0.6961  0.2299  0.8402
  944MOL0     H27434  10.976  10.004  10.211  0.3468 -4.3081 -2.4490
  944MOL0     H27435  11.130  10.077  10.185 -0.2806 -0.4754  0.3161
  944MOL0     H27436  11.215   9.669  10.099 -3.2177 -2.1402  0.6690
  944MOL0     H27437  11.042  10.035  10.880  0.8974  2.6949 -0.8940
  944MOL0     H27438  11.013  10.171  11.080 -0.3053 -0.7519 -0.9681
  944MOL0     H27439  11.097  10.099  11.205 -0.3704  2.6146  2.0601
  944MOL0     H27440  11.151  10.261  11.130 -0.4664 -0.8715 -1.3975
  945MOL0     O27441  10.669   6.399  10.402 -0.0786 -0.2004 -0.8134
  945MOL0     C27442  10.775   6.449  10.370  0.5943  0.1388  0.5939
  945MOL0     O27443  10.897   6.384  10.368  0.0214  0.0343 -0.8230
  945MOL0     C27444  10.893   6.259  10.415  0.1868  0.5521  0.1775
  945MOL0     C27445  10.947   6.155  10.331  1.0524 -0.2233 -0.3608
  945MOL0     C27446  10.936   6.025  10.374  0.5917  1.0552 -0.3655
  945MOL0     C27447  10.884   5.989  10.496 -0.1439 -0.1176  0.0294
  945MOL0     O27448  10.890   5.865  10.533 -0.6678  0.3540  0.5702
  945MOL0     C27449  10.918   5.763  10.442 -0.4374 -0.8053  0.2460
  945MOL0     C27450  10.877   5.635  10.513  0.7369 -0.2290  0.3639
  945MOL0     C27451  10.915   5.502  10.420 -0.0715  0.1515  0.6566
  945MOL0     C27452  10.968   5.386  10.498  0.2950 -0.2344  0.0620
  945MOL0     C27453  10.953   5.259  10.416  0.7061  0.1439  0.2172
  945MOL0     C27454  10.989   5.132  10.501  0.2879 -0.1756 -0.8452
  945MOL0     C27455  10.870   5.062  10.579  1.3425 -0.1790 -0.0422
  945MOL0     C27456  10.911   4.950  10.682  0.2732 -0.5085  0.2410
  945MOL0     N27457  10.967   4.831  10.613 -0.4760  0.2750 -0.0983
  945MOL0     C27458  11.089   4.776  10.645  0.1653 -0.6945 -0.4751
  945MOL0     C27459  11.097   4.666  10.568 -0.4918 -0.5358  0.4441
  945MOL0     C27460  11.206   4.562  10.579  0.3936 -0.1770 -0.2675
  945MOL0     C27461  11.313   4.581  10.470 -0.6254 -0.2872  0.7609
  945MOL0     C27462  11.276   4.562  10.323  0.5835  0.3048  0.2878
  945MOL0     C27463  11.403   4.575  10.239 -0.0292  0.0412  0.0847
  945MOL0     O27464  11.465   4.695  10.248 -0.3044  0.4904  0.0738
  945MOL0     C27465  11.399   4.808  10.213  0.1384  0.7411 -0.2523
  945MOL0     C27466  11.287   4.823  10.144 -0.0610 -0.0900  0.3210
  945MOL0     C27467  11.236   4.952  10.111  0.4748 -0.4740  0.9214
  945MOL0     C27468  11.296   5.071  10.169  0.4359  0.7059 -1.0942
  945MOL0     C27469  11.237   5.204  10.154 -0.7188 -0.4446  0.9590
  945MOL0     O27470  11.311   5.301  10.204 -0.6571  0.4387  0.1285
  945MOL0     C27471  11.273   5.430  10.176 -0.6737 -0.0210  0.1776
  945MOL0     C27472  11.253   5.522  10.275 -0.7563  0.3070 -0.5790
  945MOL0     C27473  11.233   5.651  10.233 -0.0574 -1.2305 -0.2468
  945MOL0     C27474  11.220   5.687  10.097 -0.6458  0.8120  0.1802
  945MOL0     O27475  11.186   5.815  10.070 -0.1691 -0.6121 -0.2022
  945MOL0     C27476  11.248   5.886   9.962 -0.0952  0.4733 -0.0919
  945MOL0     C27477  11.188   6.029   9.953  0.0889  0.3205 -1.0455
  945MOL0     C27478  11.097   6.045   9.830  0.1958  0.4969 -0.7651
  945MOL0     C27479  10.988   5.938   9.823  0.4752 -0.2051 -0.0769
  945MOL0     C27480  10.903   5.957   9.699  0.5725 -0.5692  0.2397
  945MOL0     C27481  10.978   5.924   9.558 -0.6718  0.6748  0.4858
  945MOL0     C27482  10.897   5.964   9.441  0.3313 -1.3034  0.0169
  945MOL0     C27483  10.765   5.895   9.444  0.0892 -0.0124 -0.6526
  945MOL0    Cl27484  10.689   5.901   9.281 -0.5612  0.1163 -0.2631
  945MOL0     C27485  11.227   5.585   9.997  0.0242  0.4330 -0.5660
  945MOL0     C27486  11.264   5.460  10.040  0.5130 -0.4633 -0.3325
  945MOL0     O27487  11.133   5.215  10.091 -0.3944  0.8214 -0.5744
  945MOL0     C27488  11.423   5.047  10.233 -0.3923  0.0601 -0.0793
  945MOL0     C27489  11.468   4.917  10.252 -0.0018  0.5375  0.7751
  945MOL0     N27490  10.995   4.665  10.478  0.8101  0.1562  0.3983
  945MOL0     N27491  10.909   4.766  10.512 -0.2373  0.8480 -0.0200
  945MOL0     C27492  10.840   6.095  10.579  0.3593  0.5609  0.0276
  945MOL0     C27493  10.852   6.228  10.544  0.4498  0.6605  0.4467
  945MOL0     C27494  10.776   6.598  10.345  0.3443 -0.6796 -0.7208
  945MOL0     C27495  10.898   6.664  10.358  0.1828 -0.5269 -0.6266
  945MOL0     C27496  10.912   6.803  10.343 -0.6952 -0.3276  0.5720
  945MOL0     C27497  10.796   6.878  10.300 -0.7568  0.2174 -0.9012
  945MOL0     O27498  10.783   7.009  10.271 -0.2753  0.1958  0.5718
  945MOL0     C27499  10.903   7.090  10.249  0.4014 -0.2155  0.2627
  945MOL0     C27500  10.966   7.134  10.382 -0.0506 -0.6846  0.2531
  945MOL0     C27501  11.060   7.249  10.372 -0.2512  0.0967 -0.4970
  945MOL0     C27502  11.165   7.253  10.256  0.2958 -0.0178 -0.8313
  945MOL0     C27503  11.266   7.158  10.290 -0.3964  0.2990  0.1800
  945MOL0     C27504  11.352   7.075  10.319  0.1474 -0.2199  0.0476
  945MOL0     C27505  10.676   6.822  10.297 -0.6148  0.9943 -0.1673
  945MOL0     C27506  10.659   6.680  10.310  0.7669  0.2503  0.1039
  945MOL0     C27507  10.518   6.624  10.314 -0.3598 -0.4633  0.9767
  945MOL0     H27508  10.981   6.187  10.232 -2.3404  1.0255 -1.2513
  945MOL0     H27509  10.970   5.952  10.300  3.1792  3.1278 -1.3837
  945MOL0     H27510  10.863   5.766  10.348 -2.4548  2.2791  1.3548
  945MOL0     H27511  11.026   5.766  10.423 -0.7123  1.9006 -1.4816
  945MOL0     H27512  10.770   5.638  10.536  0.6567 -1.7602  0.3436
  945MOL0     H27513  10.933   5.621  10.606  1.5284  0.8289  0.0637
  945MOL0     H27514  10.980   5.540  10.341 -2.2444  0.2318 -1.1996
  945MOL0     H27515  10.819   5.469  10.378 -0.3552 -0.7613  1.9438
  945MOL0     H27516  11.072   5.402  10.528 -0.0249  1.6936  0.3037
  945MOL0     H27517  10.916   5.373  10.594  0.1269 -0.8344 -0.1099
  945MOL0     H27518  10.849   5.245  10.386  0.9227 -1.1449 -0.0101
  945MOL0     H27519  11.020   5.261  10.329 -0.2656  0.4437 -0.5443
  945MOL0     H27520  11.032   5.054  10.438  0.3383 -1.4438  0.7034
  945MOL0     H27521  11.067   5.166  10.570 -0.4058 -0.1017 -0.0912
  945MOL0     H27522  10.789   5.027  10.515 -0.3950  1.6016  1.0733
  945MOL0     H27523  10.821   5.131  10.648 -2.7008 -1.6568 -1.1776
  945MOL0     H27524  10.971   4.994  10.762  0.3954 -0.0098 -0.1187
  945MOL0     H27525  10.821   4.918  10.735  0.9469 -1.4067  0.8952
  945MOL0     H27526  11.158   4.806  10.723 -2.3305  0.6116  1.3734
  945MOL0     H27527  11.249   4.572  10.679 -0.3878  1.6909 -0.0777
  945MOL0     H27528  11.164   4.462  10.561 -2.1622  0.5782  1.0437
  945MOL0     H27529  11.365   4.674  10.495  2.2111 -1.6128  0.2886
  945MOL0     H27530  11.392   4.506  10.479  1.1782  1.3052 -0.8835
  945MOL0     H27531  11.186   4.621  10.303 -2.3186 -2.3268  4.0121
  945MOL0     H27532  11.249   4.457  10.311 -0.0019  0.6580 -2.0381
  945MOL0     H27533  11.372   4.552  10.137  2.2959 -1.8679 -0.3026
  945MOL0     H27534  11.482   4.499  10.250  2.9115  2.5541 -1.9828
  945MOL0     H27535  11.229   4.740  10.105 -0.4892  0.6764 -0.7476
  945MOL0     H27536  11.139   4.952  10.064  0.1834  0.7358  1.4871
  945MOL0     H27537  11.274   5.494  10.378  0.3500  1.0700 -0.5893
  945MOL0     H27538  11.254   5.728  10.306 -0.4890 -2.0989  0.8178
  945MOL0     H27539  11.357   5.889   9.976 -0.0923  1.5162 -0.2593
  945MOL0     H27540  11.228   5.830   9.870  1.6842 -2.6198  1.2252
  945MOL0     H27541  11.134   6.054  10.045  0.5892 -2.3412  0.0647
  945MOL0     H27542  11.267   6.103   9.942  0.2301 -0.2201 -5.0079
  945MOL0     H27543  11.046   6.141   9.830 -1.5166 -0.3264  1.3699
  945MOL0     H27544  11.164   6.034   9.744 -0.4326  0.0270 -1.2122
  945MOL0     H27545  10.920   5.961   9.906 -0.9422 -1.0734 -0.9655
  945MOL0     H27546  11.019   5.835   9.837 -2.1513 -0.7050  3.5638
  945MOL0     H27547  10.859   6.057   9.703  0.5163 -0.5366 -0.9213
  945MOL0     H27548  10.809   5.901   9.698 -0.9187  1.7906 -1.6198
  945MOL0     H27549  11.072   5.980   9.561 -0.6491  0.5891  1.6434
  945MOL0     H27550  11.012   5.820   9.553  0.3761  1.0235  0.0226
  945MOL0     H27551  10.941   5.938   9.345 -1.3137  0.4253 -1.2794
  945MOL0     H27552  10.882   6.072   9.443  2.5264 -0.6643 -4.7804
  945MOL0     H27553  10.766   5.788   9.470 -1.4294 -0.1707 -1.1737
  945MOL0     H27554  10.699   5.942   9.518  0.4785 -0.6689  0.1275
  945MOL0     H27555  11.204   5.604   9.892  0.8834 -1.4495 -1.1398
  945MOL0     H27556  11.270   5.386   9.961  1.2003 -0.1613 -0.5679
  945MOL0     H27557  11.481   5.130  10.271  1.4226 -0.8650 -0.7431
  945MOL0     H27558  11.567   4.900  10.293  0.6686  0.0546 -0.9585
  945MOL0     H27559  10.801   6.066  10.676 -0.4371 -1.6489 -0.8917
  945MOL0     H27560  10.827   6.306  10.616 -2.5359 -0.6713  0.9936
  945MOL0     H27561  10.987   6.610  10.387 -0.9998 -1.7453  0.9200
  945MOL0     H27562  11.013   6.841  10.352  0.1184 -2.1046 -0.4405
  945MOL0     H27563  10.868   7.183  10.202  0.3144  0.0885  0.9301
  945MOL0     H27564  10.965   7.039  10.174 -0.5598  1.4663 -1.8058
  945MOL0     H27565  11.021   7.041  10.401 -0.7728 -1.9380 -2.9997
  945MOL0     H27566  10.886   7.174  10.445 -0.6745 -0.0451 -0.8928
  945MOL0     H27567  11.106   7.259  10.471 -1.0442 -2.0488  0.1362
  945MOL0     H27568  10.992   7.333  10.353 -0.8438 -0.4924 -1.0095
  945MOL0     H27569  11.121   7.226  10.160 -0.2333 -1.4461 -0.2206
  945MOL0     H27570  11.202   7.356  10.246 -0.0762  0.4140  1.6777
  945MOL0     H27571  11.439   7.013  10.335 -0.9062 -1.3672  1.5442
  945MOL0     H27572  10.597   6.892  10.273 -1.7991 -0.4911 -0.8017
  945MOL0     H27573  10.483   6.596  10.414 -1.4858 -0.2382  0.6601
  945MOL0     H27574  10.455   6.700  10.268 -0.1223 -1.5955 -1.3673
  945MOL0     H27575  10.512   6.537  10.247 -0.9553  1.8598 -2.2109
  946MOL0     O27576   8.338   9.894   5.223 -0.4100 -0.0385  0.3089
  946MOL0     C27577   8.323   9.982   5.307 -0.4248  0.5366 -0.3265
  946MOL0     O27578   8.213  10.003   5.378  0.1726  0.3607  0.0836
  946MOL0     C27579   8.104   9.927   5.356  0.7929  1.2320  0.2830
  946MOL0     C27580   8.038   9.861   5.471 -0.6163 -0.6041 -0.1880
  946MOL0     C27581   7.924   9.784   5.449  0.2306  0.6044  0.2012
  946MOL0     C27582   7.863   9.782   5.320 -0.6784  0.2270  0.6855
  946MOL0     O27583   7.747   9.710   5.306  0.1159 -0.2773  0.5476
  946MOL0     C27584   7.681   9.717   5.180  0.3969 -0.2209  0.2754
  946MOL0     C27585   7.539   9.662   5.199 -1.0159  0.0936  0.2518
  946MOL0     C27586   7.549   9.512   5.242 -0.7405  0.1113  0.0764
  946MOL0     C27587   7.401   9.467   5.271  0.4080 -0.8084 -0.5155
  946MOL0     C27588   7.404   9.318   5.306  0.0680 -0.3523 -0.8243
  946MOL0     C27589   7.268   9.256   5.329  0.7528 -0.1287  0.1163
  946MOL0     C27590   7.192   9.301   5.454 -0.3299  0.4543  0.9363
  946MOL0     C27591   7.253   9.252   5.584  0.2138  0.2572 -0.3065
  946MOL0     N27592   7.141   9.248   5.675 -0.0165  0.0066  1.5300
  946MOL0     C27593   7.066   9.131   5.694 -0.4293  0.3386 -1.0666
  946MOL0     C27594   6.998   9.158   5.810  0.0714 -0.1465 -0.9895
  946MOL0     C27595   6.920   9.058   5.876  0.4192  0.0102 -0.5655
  946MOL0     C27596   6.765   9.080   5.854 -0.9171 -0.0368  0.6022
  946MOL0     C27597   6.704   9.207   5.909  0.5601  0.1302 -0.6857
  946MOL0     C27598   6.562   9.246   5.864  0.6571  0.4166  0.0873
  946MOL0     O27599   6.476   9.156   5.933  0.5304  0.8105 -0.4280
  946MOL0     C27600   6.341   9.170   5.899  0.2948 -0.1407 -0.2879
  946MOL0     C27601   6.277   9.295   5.898 -0.4895  1.1608  0.4491
  946MOL0     C27602   6.138   9.302   5.888  0.0518 -0.4679 -0.1429
  946MOL0     C27603   6.067   9.191   5.883  0.9999  0.2811  0.6862
  946MOL0     C27604   5.923   9.195   5.881  0.4988 -0.7317  0.0754
  946MOL0     O27605   5.857   9.081   5.825  0.2388  0.1542  0.3115
  946MOL0     C27606   5.716   9.090   5.797 -0.9001 -0.3870 -0.6900
  946MOL0     C27607   5.661   9.052   5.674 -0.6775  0.0882 -0.2684
  946MOL0     C27608   5.523   9.052   5.660  0.0012 -0.7892 -0.7290
  946MOL0     C27609   5.433   9.096   5.758 -0.6540  0.5514  0.3849
  946MOL0     O27610   5.298   9.105   5.737 -0.5996 -0.2698  0.1590
  946MOL0     C27611   5.211   9.123   5.839  0.0896 -0.6750 -1.0722
  946MOL0     C27612   5.067   9.120   5.786  0.3940  0.2926 -0.2275
  946MOL0     C27613   5.004   8.978   5.787 -0.0138 -0.4039  0.3159
  946MOL0     C27614   4.883   8.964   5.692  0.0881 -0.3812 -0.2764
  946MOL0     C27615   4.819   8.824   5.712 -0.7084  1.0836 -0.0191
  946MOL0     C27616   4.756   8.793   5.857  0.3950  0.3112 -0.0519
  946MOL0     C27617   4.670   8.665   5.855  0.1505 -0.1624 -0.0381
  946MOL0     C27618   4.621   8.634   5.997 -0.6535 -1.1364  0.8567
  946MOL0    Cl27619   4.523   8.479   5.976 -0.3045  0.1013  0.0395
  946MOL0     C27620   5.490   9.124   5.884  0.0831 -0.9557  0.7230
  946MOL0     C27621   5.626   9.120   5.908  0.7109  0.3175 -0.1867
  946MOL0     O27622   5.863   9.297   5.932 -0.4127  0.4642 -0.4316
  946MOL0     C27623   6.131   9.064   5.879 -0.7720  0.9462  0.5148
  946MOL0     C27624   6.271   9.052   5.880 -0.2849  0.0350 -1.0893
  946MOL0     N27625   7.015   9.292   5.842 -0.6234 -0.0519 -0.1673
  946MOL0     N27626   7.093   9.350   5.756 -0.4588  0.5999  0.2825
  946MOL0     C27627   7.925   9.846   5.221 -0.9434 -0.3371  0.2055
  946MOL0     C27628   8.048   9.918   5.232 -0.1833  0.0912 -0.4980
  946MOL0     C27629   8.433  10.072   5.345 -0.2155  0.1538 -0.4027
  946MOL0     C27630   8.416  10.206   5.354  0.6810  0.2200 -0.1594
  946MOL0     C27631   8.522  10.296   5.397 -0.0684  0.8124  0.4638
  946MOL0     C27632   8.648  10.245   5.427 -0.1823  0.1820 -0.1954
  946MOL0     O27633   8.724  10.337   5.493  0.5699  0.3879 -0.6983
  946MOL0     C27634   8.837  10.291   5.580  0.5405 -0.3976 -0.2702
  946MOL0     C27635   8.782  10.242   5.716 -0.5719  0.2091 -0.8758
  946MOL0     C27636   8.701  10.354   5.773  0.8941  0.1235 -0.3295
  946MOL0     C27637   8.655  10.318   5.925 -0.2770  0.2415 -0.3718
  946MOL0     C27638   8.769  10.314   6.015  0.2933  0.4977 -0.2728
  946MOL0     C27639   8.853  10.301   6.101  0.2759 -0.6997  0.1887
  946MOL0     C27640   8.669  10.113   5.416 -0.1583 -0.5722 -0.1031
  946MOL0     C27641   8.564  10.025   5.370  0.1648 -0.2377 -0.3489
  946MOL0     C27642   8.590   9.883   5.353  0.4546  0.1505 -1.0292
  946MOL0     H27643   8.078   9.883   5.570 -0.8875  1.6423 -0.5285
  946MOL0     H27644   7.887   9.751   5.545  0.2933 -1.3827 -0.4036
  946MOL0     H27645   7.678   9.814   5.130  0.9391 -1.1238 -1.6090
  946MOL0     H27646   7.735   9.650   5.113  1.2558 -0.1687  0.9001
  946MOL0     H27647   7.486   9.676   5.105  3.4691  0.7814 -2.4973
  946MOL0     H27648   7.492   9.721   5.278 -1.5198  3.0951 -2.1155
  946MOL0     H27649   7.610   9.502   5.332 -1.3994 -1.2639  0.3921
  946MOL0     H27650   7.586   9.442   5.166 -0.3810 -0.0699  0.4118
  946MOL0     H27651   7.367   9.523   5.359  2.3279 -0.9191  0.3403
  946MOL0     H27652   7.335   9.471   5.183  0.1928 -1.2568 -0.3802
  946MOL0     H27653   7.453   9.261   5.226 -0.4349 -1.1459 -0.5833
  946MOL0     H27654   7.463   9.299   5.396 -2.2968 -0.2526  0.8202
  946MOL0     H27655   7.201   9.280   5.247 -0.0745  1.4412  1.2138
  946MOL0     H27656   7.279   9.147   5.332  1.4969 -0.0335  2.2640
  946MOL0     H27657   7.097   9.249   5.444  0.1208 -0.0870 -0.8119
  946MOL0     H27658   7.168   9.408   5.452  2.2993  1.0977 -0.9538
  946MOL0     H27659   7.293   9.151   5.576 -1.7798 -0.5741 -0.4409
  946MOL0     H27660   7.338   9.312   5.619  0.5507 -1.0048  1.1267
  946MOL0     H27661   7.076   9.035   5.644  1.0967  1.1600 -2.4690
  946MOL0     H27662   6.948   8.955   5.856 -1.6023 -0.1207 -3.1727
  946MOL0     H27663   6.940   9.078   5.982 -0.2362  1.6640 -0.7213
  946MOL0     H27664   6.745   9.104   5.749 -0.1367  2.1823  0.9041
  946MOL0     H27665   6.712   8.993   5.893 -3.6397  0.1416 -2.3223
  946MOL0     H27666   6.769   9.291   5.880 -1.9269  2.5277  0.1906
  946MOL0     H27667   6.701   9.210   6.018  0.8625 -0.9677 -0.6365
  946MOL0     H27668   6.548   9.225   5.758 -0.5223  0.2479  0.2628
  946MOL0     H27669   6.538   9.351   5.883  0.6105  0.0946  2.0459
  946MOL0     H27670   6.343   9.381   5.908 -1.4903  2.1590 -1.1533
  946MOL0     H27671   6.090   9.399   5.890  0.6006 -0.2125  1.4387
  946MOL0     H27672   5.727   9.005   5.601  0.2994  0.8682  0.0801
  946MOL0     H27673   5.477   9.013   5.570 -0.7843 -0.9897 -0.2445
  946MOL0     H27674   5.236   9.053   5.919  0.7682  1.3597  0.5758
  946MOL0     H27675   5.216   9.225   5.877 -1.1775 -1.0893  0.2834
  946MOL0     H27676   5.013   9.199   5.839  2.8100  0.4623  2.2092
  946MOL0     H27677   5.067   9.158   5.683  0.3509 -1.6594 -0.9865
  946MOL0     H27678   5.072   8.901   5.750 -1.1919 -0.4665 -1.9042
  946MOL0     H27679   4.977   8.954   5.890 -0.5794  0.3011  0.3376
  946MOL0     H27680   4.906   8.982   5.587 -0.5755  0.2369 -0.3199
  946MOL0     H27681   4.810   9.032   5.735  0.2521 -0.7733  0.6476
  946MOL0     H27682   4.892   8.747   5.685 -0.7581  1.9204 -2.8379
  946MOL0     H27683   4.747   8.813   5.631 -1.6436  1.5791  0.7282
  946MOL0     H27684   4.837   8.768   5.927  0.4250 -1.4640 -0.6697
  946MOL0     H27685   4.706   8.882   5.895 -1.6721 -0.1531 -1.5088
  946MOL0     H27686   4.717   8.577   5.811 -0.7714 -0.2054 -0.9939
  946MOL0     H27687   4.583   8.673   5.788 -0.9255 -2.0296  1.0605
  946MOL0     H27688   4.705   8.617   6.066 -1.1054 -1.7177  1.2683
  946MOL0     H27689   4.551   8.711   6.030 -1.0493 -1.7611  1.5246
  946MOL0     H27690   5.429   9.166   5.963  0.2428  0.0241  0.3391
  946MOL0     H27691   5.656   9.140   6.010 -3.0417  0.6562  0.9989
  946MOL0     H27692   6.078   8.969   5.871 -0.6705  1.0000 -1.2066
  946MOL0     H27693   6.327   8.961   5.893  0.5141  0.6886  0.3453
  946MOL0     H27694   7.878   9.843   5.123 -0.4992 -1.5933  0.0192
  946MOL0     H27695   8.080   9.974   5.145  0.5072  1.3144  0.4893
  946MOL0     H27696   8.319  10.251   5.335  0.6847  1.1407  1.7453
  946MOL0     H27697   8.504  10.403   5.402  0.3206  0.9131 -0.2354
  946MOL0     H27698   8.887  10.383   5.614  1.1078 -0.7811 -0.0449
  946MOL0     H27699   8.906  10.215   5.543  0.0667 -1.7469  1.4636
  946MOL0     H27700   8.863  10.226   5.789 -3.6219  0.9913  3.0392
  946MOL0     H27701   8.732  10.146   5.702 -0.4833  0.4395 -3.2153
  946MOL0     H27702   8.609  10.352   5.714 -2.9736 -1.2095  5.0018
  946MOL0     H27703   8.753  10.450   5.762  0.5805  0.2545 -0.6980
  946MOL0     H27704   8.577  10.389   5.955  0.5528  1.3391 -0.7595
  946MOL0     H27705   8.619  10.217   5.901 -3.4184  1.3845 -0.9948
  946MOL0     H27706   8.926  10.300   6.180  0.7140 -1.9913 -0.2211
  946MOL0     H27707   8.765  10.067   5.436  1.3385  2.9423  1.5234
  946MOL0     H27708   8.529   9.817   5.415  3.2248 -0.8701  0.7891
  946MOL0     H27709   8.573   9.854   5.248 -0.7613 -0.8461 -0.5806
  946MOL0     H27710   8.692   9.862   5.386 -0.4570  1.4705  3.1751
  947MOL0     O27711   6.480  10.169   9.262  0.1678 -0.5539  0.1434
  947MOL0     C27712   6.499  10.083   9.174  0.2203 -0.2408 -0.4669
  947MOL0     O27713   6.573   9.973   9.185  0.5999 -0.0900  0.5796
  947MOL0     C27714   6.624   9.930   9.300  0.6304 -0.0394  0.3582
  947MOL0     C27715   6.557   9.821   9.364 -0.1886  0.9586 -0.0244
  947MOL0     C27716   6.611   9.767   9.480 -0.3496 -0.3680  0.1311
  947MOL0     C27717   6.721   9.820   9.546 -0.2026 -0.1418  0.1975
  947MOL0     O27718   6.768   9.761   9.660 -0.1870 -0.1269  0.8454
  947MOL0     C27719   6.906   9.745   9.673 -0.1262  0.5088  0.5958
  947MOL0     C27720   6.947   9.656   9.794 -0.0792 -0.5988  1.0621
  947MOL0     C27721   7.095   9.653   9.791  0.0569  0.5164 -0.0302
  947MOL0     C27722   7.152   9.550   9.895  0.6761  0.2182  0.1837
  947MOL0     C27723   7.301   9.532   9.900  0.1342 -0.8885 -1.1790
  947MOL0     C27724   7.384   9.652   9.946 -0.8004 -0.6584 -0.2355
  947MOL0     C27725   7.541   9.621   9.940  0.1596 -0.0615 -0.5670
  947MOL0     C27726   7.634   9.740   9.963  0.3680 -0.5466 -0.0220
  947MOL0     N27727   7.638   9.776  10.108  1.3321  0.0185 -0.6292
  947MOL0     C27728   7.705   9.716  10.202 -0.3168  0.2826 -0.6347
  947MOL0     C27729   7.695   9.783  10.317  0.1262 -0.6279 -0.0676
  947MOL0     C27730   7.757   9.760  10.447  0.5779 -0.1165  0.0058
  947MOL0     C27731   7.796   9.889  10.526 -0.0956 -0.7047  0.5776
  947MOL0     C27732   7.825   9.857  10.673 -0.6638 -1.1674  0.3473
  947MOL0     C27733   7.946   9.763  10.691 -0.6622 -0.1114 -0.1031
  947MOL0     O27734   8.066   9.796  10.622  1.1196 -0.0759 -0.4480
  947MOL0     C27735   8.166   9.869  10.685 -0.6651 -0.1028 -0.3180
  947MOL0     C27736   8.298   9.833  10.659 -0.7359 -0.3682 -0.2600
  947MOL0     C27737   8.403   9.884  10.732  0.1419 -0.8644 -0.1132
  947MOL0     C27738   8.374   9.980  10.836 -0.6703  1.1668  0.1532
  947MOL0     C27739   8.490  10.038  10.911 -0.0478  0.2087 -0.2528
  947MOL0     O27740   8.463  10.147  10.988 -0.4360  0.0714 -0.0317
  947MOL0     C27741   8.562  10.196  11.066  0.0409  0.8771 -0.1892
  947MOL0     C27742   8.679  10.242  11.003  0.9066  0.1590 -0.1243
  947MOL0     C27743   8.786  10.290  11.081  0.8686  0.0108 -0.1703
  947MOL0     C27744   8.786  10.297  11.218  0.4186  0.0810 -0.4471
  947MOL0     O27745   8.893  10.344  11.295  0.2300 -0.2370 -0.0934
  947MOL0     C27746   9.026  10.312  11.253  0.2971 -0.6382 -0.3477
  947MOL0     C27747   9.087  10.450  11.291 -0.8076 -0.8105  0.8179
  947MOL0     C27748   9.247  10.452  11.280  0.7051 -0.0030  1.0046
  947MOL0     C27749   9.327  10.408  11.394  0.9560 -0.2728  1.5363
  947MOL0     C27750   9.476  10.407  11.350 -0.2842  1.7415 -0.9474
  947MOL0     C27751   9.566  10.400  11.482 -0.6522 -0.2267 -0.3496
  947MOL0     C27752   9.713  10.449  11.449  0.8666  0.0201  0.6703
  947MOL0     C27753   9.811  10.359  11.372 -0.2913  0.0012 -0.8834
  947MOL0    Cl27754   9.861  10.240  11.503  0.1189 -0.1792  0.5780
  947MOL0     C27755   8.674  10.253  11.279  0.0453  0.3385 -1.4540
  947MOL0     C27756   8.563  10.203  11.206  0.0405  0.8244 -0.3114
  947MOL0     O27757   8.599   9.983  10.899 -0.2938 -0.0511 -0.3264
  947MOL0     C27758   8.249  10.017  10.866  0.5689 -0.1183  0.4044
  947MOL0     C27759   8.140   9.963  10.785 -1.2987  0.3172 -0.6913
  947MOL0     N27760   7.600   9.882  10.285 -0.0558  0.5957 -0.3768
  947MOL0     N27761   7.572   9.877  10.157 -0.2545  0.2422 -0.7654
  947MOL0     C27762   6.782   9.930   9.476 -0.2049 -0.6102 -0.2173
  947MOL0     C27763   6.731   9.986   9.362  0.1924  0.9705 -0.0679
  947MOL0     C27764   6.416  10.099   9.058  0.4634  0.4019  1.0788
  947MOL0     C27765   6.417   9.994   8.966 -0.0154  0.3838  0.1048
  947MOL0     C27766   6.362  10.003   8.838 -0.2395 -0.2613 -0.3279
  947MOL0     C27767   6.296  10.120   8.802  0.3980  0.0143  0.6749
  947MOL0     O27768   6.240  10.160   8.683  0.3926  0.0426  0.2479
  947MOL0     C27769   6.284  10.095   8.566 -1.1003  0.5272  0.3358
  947MOL0     C27770   6.232  10.156   8.441  0.0693 -0.6399  1.3082
  947MOL0     C27771   6.083  10.130   8.422 -0.0424 -0.0195 -0.4272
  947MOL0     C27772   6.044  10.162   8.275 -0.8136  0.6979 -1.1099
  947MOL0     C27773   6.082  10.043   8.187 -0.2794 -0.1966  0.5595
  947MOL0     C27774   6.106   9.943   8.133 -0.4735  0.2681 -0.2886
  947MOL0     C27775   6.275  10.217   8.897 -0.3123  0.0975 -0.7229
  947MOL0     C27776   6.331  10.216   9.031  0.6704  0.8806 -0.4781
  947MOL0     C27777   6.299  10.334   9.120  0.3581  0.2343 -0.9343
  947MOL0     H27778   6.465   9.773   9.333  0.0063 -1.1236  2.2965
  947MOL0     H27779   6.567   9.682   9.532  0.7261 -1.3055 -0.4305
  947MOL0     H27780   6.952   9.703   9.582 -0.6250  2.5700 -0.6543
  947MOL0     H27781   6.947   9.846   9.667  4.2074 -1.0511 -3.3120
  947MOL0     H27782   6.911   9.555   9.776 -1.6401 -0.1421  1.4498
  947MOL0     H27783   6.925   9.690   9.895 -0.3942 -2.0760  1.5108
  947MOL0     H27784   7.138   9.749   9.820 -0.7769  1.0677 -0.5879
  947MOL0     H27785   7.120   9.639   9.686 -0.3727 -3.4959  0.2457
  947MOL0     H27786   7.107   9.567   9.993  0.4695 -2.0635  0.5523
  947MOL0     H27787   7.130   9.447   9.864  2.6738 -0.4721  0.8612
  947MOL0     H27788   7.330   9.448   9.963 -1.8690 -2.6958 -2.5253
  947MOL0     H27789   7.338   9.514   9.798 -0.3051 -0.9068 -1.3334
  947MOL0     H27790   7.359   9.733   9.878  0.3727  0.8069  1.0011
  947MOL0     H27791   7.351   9.686  10.045 -0.4963 -0.8161 -0.0792
  947MOL0     H27792   7.563   9.577   9.842 -0.4862 -2.2343  0.2017
  947MOL0     H27793   7.549   9.540  10.013 -4.3144  0.7008  1.0317
  947MOL0     H27794   7.734   9.701   9.942  0.8255  0.8534 -0.5324
  947MOL0     H27795   7.620   9.827   9.899 -1.4795  0.3034  1.4602
  947MOL0     H27796   7.777   9.635  10.189  0.1979  0.4885  0.7676
  947MOL0     H27797   7.685   9.715  10.515  0.7047 -1.5425 -0.7576
  947MOL0     H27798   7.846   9.696  10.441  1.8150  1.6185 -1.1051
  947MOL0     H27799   7.892   9.927  10.488  1.3874 -0.3307  4.2385
  947MOL0     H27800   7.715   9.962  10.514  0.2951  0.0930  2.3544
  947MOL0     H27801   7.742   9.807  10.723 -0.1191 -1.0959  1.3397
  947MOL0     H27802   7.842   9.959  10.708  0.4909 -0.8393 -1.0744
  947MOL0     H27803   7.917   9.670  10.643  0.3933 -0.7554  0.4800
  947MOL0     H27804   7.965   9.752  10.798 -1.9020  1.9623  0.3955
  947MOL0     H27805   8.319   9.770  10.573  1.9738  1.5037 -1.1070
  947MOL0     H27806   8.506   9.864  10.704  0.6037  2.3628 -1.1916
  947MOL0     H27807   8.685  10.246  10.895  0.1311 -1.0131 -0.2368
  947MOL0     H27808   8.881  10.316  11.036  3.1386 -2.7497  2.6260
  947MOL0     H27809   9.061  10.230  11.317 -1.2161 -0.2649  1.0157
  947MOL0     H27810   9.042  10.290  11.147  2.1621 -0.2512 -0.1800
  947MOL0     H27811   9.042  10.536  11.240  2.6686  0.8690  0.2712
  947MOL0     H27812   9.071  10.457  11.399 -1.5548 -1.2285  0.7384
  947MOL0     H27813   9.257  10.389  11.191  0.8419  1.8045 -0.3080
  947MOL0     H27814   9.273  10.556  11.259  0.6634 -0.0749  0.5955
  947MOL0     H27815   9.274  10.317  11.425 -3.9357  1.3649 -0.8844
  947MOL0     H27816   9.308  10.474  11.479  1.2986  0.2035  1.2513
  947MOL0     H27817   9.495  10.496  11.290 -5.6190  2.9438 -1.3314
  947MOL0     H27818   9.494  10.320  11.287 -0.4531  0.2147  0.9968
  947MOL0     H27819   9.522  10.477  11.545 -2.6083  1.5266 -3.5429
  947MOL0     H27820   9.559  10.302  11.531 -4.6758 -0.7083 -1.5195
  947MOL0     H27821   9.761  10.477  11.543  1.7951  0.2661  0.1439
  947MOL0     H27822   9.702  10.541  11.390  1.7545 -0.3994 -0.1895
  947MOL0     H27823   9.775  10.314  11.280 -0.1181  1.1969 -1.5588
  947MOL0     H27824   9.907  10.401  11.339  1.0835 -0.5765  2.0258
  947MOL0     H27825   8.680  10.263  11.387 -0.7962  1.9933 -1.5251
  947MOL0     H27826   8.478  10.177  11.268  1.7423 -0.2892  1.7125
  947MOL0     H27827   8.228  10.091  10.942  2.4425  1.1554 -0.2461
  947MOL0     H27828   8.039   9.988  10.815 -1.5280 -0.0089 -1.1586
  947MOL0     H27829   6.881   9.966   9.502 -0.5331  0.0675  0.1031
  947MOL0     H27830   6.791  10.052   9.301  0.6022 -2.0431 -3.2724
  947MOL0     H27831   6.465   9.902   8.998  1.6357  2.2100  3.3761
  947MOL0     H27832   6.374   9.929   8.760  0.8621 -1.9722  1.3969
  947MOL0     H27833   6.242   9.994   8.564 -2.4564  1.0727 -1.6196
  947MOL0     H27834   6.394  10.099   8.563 -1.1229  2.8147 -3.1963
  947MOL0     H27835   6.275  10.114   8.350  0.6892  0.7707  0.9215
  947MOL0     H27836   6.256  10.263   8.433  1.0213 -0.8936  0.5858
  947MOL0     H27837   6.025  10.197   8.487 -1.6257 -1.7144 -0.0211
  947MOL0     H27838   6.051  10.028   8.441  1.2070 -0.4786 -0.6574
  947MOL0     H27839   5.936  10.177   8.268 -1.0022 -0.7687 -1.6563
  947MOL0     H27840   6.104  10.247   8.240 -0.0644  0.9094  0.6190
  947MOL0     H27841   6.109   9.855   8.072  2.6058 -0.5258  0.8178
  947MOL0     H27842   6.216  10.307   8.879 -1.4001 -0.4733 -0.1010
  947MOL0     H27843   6.229  10.408   9.080 -0.7086  0.9704  1.9945
  947MOL0     H27844   6.255  10.305   9.216  2.5456 -0.9951 -0.2380
  947MOL0     H27845   6.398  10.378   9.132  1.9192 -2.5593 -2.5747
  948MOL0     O27846   6.885  10.973  11.343  0.5788  0.3648 -0.4039
  948MOL0     C27847   6.764  11.005  11.348  0.1337  0.0964  0.0653
  948MOL0     O27848   6.703  11.002  11.466  0.8521 -0.3812  0.1949
  948MOL0     C27849   6.786  11.008  11.576  0.4290 -0.1644 -0.4748
  948MOL0     C27850   6.779  10.915  11.685 -0.6071 -0.2112 -0.0217
  948MOL0     C27851   6.859  10.927  11.801  0.4773  0.0838 -0.7509
  948MOL0     C27852   6.961  11.025  11.814  0.4256 -0.1222  0.0210
  948MOL0     O27853   7.039  11.029  11.937 -0.2519 -0.6082 -0.5506
  948MOL0     C27854   7.177  11.058  11.912 -0.4999 -0.0543  1.5534
  948MOL0     C27855   7.251  11.021  12.032  0.3958 -0.6474 -1.0328
  948MOL0     C27856   7.405  11.051  12.010 -0.1257  0.2619  0.3548
  948MOL0     C27857   7.489  10.996  12.127  0.6799 -0.4174  0.3680
  948MOL0     C27858   7.638  11.021  12.105  0.0119 -0.2930  0.9890
  948MOL0     C27859   7.720  10.959  12.224 -0.0398 -0.8199  0.1702
  948MOL0     C27860   7.688  11.000  12.362  0.0563  0.2189 -0.1787
  948MOL0     C27861   7.756  11.133  12.418  0.2503  0.1025 -0.0306
  948MOL0     N27862   7.714  11.165  12.555  0.2322  0.0344  0.9548
  948MOL0     C27863   7.696  11.294  12.600 -0.7240 -0.2879 -0.2388
  948MOL0     C27864   7.634  11.273  12.725 -1.0080 -0.3149  0.9427
  948MOL0     C27865   7.590  11.388  12.818  0.0765 -0.2841 -0.3350
  948MOL0     C27866   7.701  11.473  12.879  0.0899 -0.3558  0.7577
  948MOL0     C27867   7.636  11.588  12.954  1.2311 -0.1032  0.0688
  948MOL0     C27868   7.555  11.684  12.862  1.0344  0.2974 -0.3432
  948MOL0     O27869   7.601  11.729  12.731  0.0247  0.3189 -0.0144
  948MOL0     C27870   7.703  11.817  12.722 -0.2036  0.2781 -0.4499
  948MOL0     C27871   7.733  11.859  12.590 -0.7795 -0.2432 -0.6033
  948MOL0     C27872   7.844  11.946  12.575  0.0194 -1.0089  0.1094
  948MOL0     C27873   7.920  11.992  12.684 -0.7263  0.6991  1.0755
  948MOL0     C27874   8.036  12.087  12.665  1.1576  0.2909 -0.0041
  948MOL0     O27875   8.096  12.088  12.546  0.2639  0.1452 -0.0649
  948MOL0     C27876   8.184  12.191  12.518 -0.2758 -0.2671  0.1596
  948MOL0     C27877   8.165  12.250  12.393  1.0089 -0.1134 -0.3004
  948MOL0     C27878   8.260  12.346  12.350 -0.2632  0.6006 -0.8938
  948MOL0     C27879   8.372  12.379  12.436 -0.1869 -0.9956  0.4596
  948MOL0     O27880   8.459  12.470  12.382  0.7778  0.1331  0.1980
  948MOL0     C27881   8.530  12.430  12.267 -0.4452  0.3720 -0.5834
  948MOL0     C27882   8.676  12.487  12.254 -0.3285  0.0826 -0.1811
  948MOL0     C27883   8.734  12.456  12.115  1.1334  0.4703 -0.3828
  948MOL0     C27884   8.885  12.453  12.116 -0.1895  0.5673  0.5153
  948MOL0     C27885   8.954  12.427  11.978  0.3644 -0.2877 -0.5492
  948MOL0     C27886   9.101  12.420  11.998  0.1910 -0.4588  0.0248
  948MOL0     C27887   9.195  12.434  11.868  0.4256 -0.0898  0.3268
  948MOL0     C27888   9.338  12.402  11.893 -0.0887 -0.0626 -0.9844
  948MOL0    Cl27889   9.397  12.511  12.022 -0.1172 -0.0620  0.2294
  948MOL0     C27890   8.394  12.309  12.554  0.9430 -0.4756  0.0367
  948MOL0     C27891   8.289  12.221  12.600 -0.4422  0.2524  0.4459
  948MOL0     O27892   8.072  12.145  12.765  0.0057 -0.0888  0.2187
  948MOL0     C27893   7.882  11.950  12.809 -0.0336  0.1700  0.0150
  948MOL0     C27894   7.778  11.858  12.832 -0.2108 -0.6005  0.8431
  948MOL0     N27895   7.630  11.139  12.748  0.3520  1.2720  1.1581
  948MOL0     N27896   7.684  11.071  12.653  0.5242 -0.3343 -0.7855
  948MOL0     C27897   6.970  11.114  11.704 -0.8934  0.1090 -0.0491
  948MOL0     C27898   6.873  11.114  11.602  0.5291  0.4691  0.1088
  948MOL0     C27899   6.687  11.017  11.219  0.4871 -0.6297 -0.7740
  948MOL0     C27900   6.746  10.952  11.112  0.0242 -0.1033 -0.4120
  948MOL0     C27901   6.677  10.945  10.987 -0.0972 -0.5472  0.4481
  948MOL0     C27902   6.549  11.008  10.976 -0.0862  0.2773  0.5965
  948MOL0     O27903   6.499  11.005  10.839  0.2297 -0.3253  0.1974
  948MOL0     C27904   6.354  11.016  10.834 -0.2076 -0.5010  0.5137
  948MOL0     C27905   6.295  10.967  10.695  0.7636 -0.3231 -0.3582
  948MOL0     C27906   6.140  10.972  10.702 -0.8360 -0.1879 -0.9713
  948MOL0     C27907   6.090  10.980  10.563 -0.0492 -0.8207  0.5784
  948MOL0     C27908   5.946  10.986  10.555 -0.5521 -0.8973  0.1771
  948MOL0     C27909   5.822  10.980  10.544 -0.3938  0.9914  0.4404
  948MOL0     C27910   6.485  11.056  11.093 -0.7261 -0.7282  0.6368
  948MOL0     C27911   6.557  11.053  11.212  0.6967 -0.0831 -0.3039
  948MOL0     C27912   6.484  11.106  11.339  0.1497  0.1530  0.1219
  948MOL0     H27913   6.709  10.832  11.685 -0.9698  0.0880  0.7004
  948MOL0     H27914   6.844  10.877  11.896  2.2503  0.9379  0.0218
  948MOL0     H27915   7.212  10.999  11.827  0.3144  0.0050  1.8377
  948MOL0     H27916   7.183  11.166  11.898  2.5304 -0.4586 -1.6195
  948MOL0     H27917   7.235  10.914  12.051 -0.9970  0.1042  3.2814
  948MOL0     H27918   7.221  11.083  12.117 -1.9819  0.6014 -2.6699
  948MOL0     H27919   7.426  11.156  11.987 -2.3523  0.3350 -1.7791
  948MOL0     H27920   7.442  11.005  11.918 -0.2455 -0.0260  0.4505
  948MOL0     H27921   7.465  11.044  12.222  0.3874 -3.5943  2.0361
  948MOL0     H27922   7.470  10.889  12.137  0.5506 -0.4971 -0.5793
  948MOL0     H27923   7.670  10.973  12.013 -1.4702 -2.0483  1.3147
  948MOL0     H27924   7.657  11.128  12.096 -0.3935 -0.3257 -0.4666
  948MOL0     H27925   7.701  10.852  12.231  2.6630 -1.4204 -0.6549
  948MOL0     H27926   7.828  10.968  12.213 -0.1353 -1.0682 -1.0404
  948MOL0     H27927   7.719  10.912  12.419 -0.3336 -0.6971 -1.3373
  948MOL0     H27928   7.579  11.011  12.372  0.0166  0.0789 -0.4597
  948MOL0     H27929   7.866  11.126  12.423  0.3250  1.6371  1.3457
  948MOL0     H27930   7.742  11.214  12.346  0.8344 -1.3829 -1.8871
  948MOL0     H27931   7.722  11.384  12.545 -1.2360 -0.5374 -0.9053
  948MOL0     H27932   7.526  11.447  12.752  2.9773  0.2828 -2.8870
  948MOL0     H27933   7.521  11.348  12.893 -2.7450  3.7032 -0.5089
  948MOL0     H27934   7.756  11.414  12.953 -1.0510  0.6059  2.4404
  948MOL0     H27935   7.771  11.516  12.806 -0.5715 -2.2484 -1.0610
  948MOL0     H27936   7.716  11.639  13.010  0.3244  1.8599 -0.3418
  948MOL0     H27937   7.568  11.545  13.028 -1.0856  4.3058  0.8370
  948MOL0     H27938   7.544  11.777  12.919  0.4116  0.7241 -1.1499
  948MOL0     H27939   7.458  11.645  12.828  0.9177 -0.9987  1.3280
  948MOL0     H27940   7.667  11.822  12.512 -1.6167 -1.2225  0.5302
  948MOL0     H27941   7.875  11.981  12.477  1.0762  1.1558  1.1470
  948MOL0     H27942   8.087  12.209  12.330  0.4085 -0.0081  0.3598
  948MOL0     H27943   8.253  12.375  12.245  0.3225 -1.6463 -1.6172
  948MOL0     H27944   8.530  12.321  12.264 -3.2628  0.3091 -0.4401
  948MOL0     H27945   8.477  12.455  12.175 -1.1898  5.7696  0.9434
  948MOL0     H27946   8.674  12.593  12.281  0.8244 -0.6905  3.4581
  948MOL0     H27947   8.724  12.432  12.336  1.5925  1.3455 -0.3951
  948MOL0     H27948   8.697  12.361  12.075 -0.7162  0.3918  1.3361
  948MOL0     H27949   8.710  12.539  12.049 -0.0519  1.0490  0.7227
  948MOL0     H27950   8.920  12.376  12.185  0.2016 -1.5506 -1.8974
  948MOL0     H27951   8.906  12.552  12.158 -1.1560  1.0660 -0.1498
  948MOL0     H27952   8.924  12.487  11.892 -1.1798 -1.9191 -1.1929
  948MOL0     H27953   8.914  12.328  11.956  1.8015 -0.7419 -1.2679
  948MOL0     H27954   9.135  12.483  12.081 -2.7439 -1.6005  2.2483
  948MOL0     H27955   9.124  12.319  12.034  0.0365 -0.2398  0.7531
  948MOL0     H27956   9.186  12.542  11.856  0.8073  0.2564  2.6747
  948MOL0     H27957   9.149  12.395  11.776  2.7979  0.5343 -1.2130
  948MOL0     H27958   9.345  12.300  11.931  1.7007  1.2757  2.7488
  948MOL0     H27959   9.397  12.407  11.800  0.4768 -2.0876 -0.7945
  948MOL0     H27960   8.483  12.319  12.615 -0.0010 -3.1181  2.0088
  948MOL0     H27961   8.305  12.181  12.699  0.6647 -0.4273  0.0061
  948MOL0     H27962   7.936  11.985  12.897  0.5875  0.7206 -0.5796
  948MOL0     H27963   7.746  11.842  12.934  0.4546  0.7658  1.2884
  948MOL0     H27964   7.051  11.186  11.713  0.7381 -1.8624  3.0554
  948MOL0     H27965   6.892  11.190  11.528  0.1593 -0.8156 -1.3735
  948MOL0     H27966   6.844  10.905  11.116  1.2915  2.2343 -1.4012
  948MOL0     H27967   6.716  10.889  10.903  0.7381 -1.9707  1.7330
  948MOL0     H27968   6.331  11.123  10.847 -2.1589 -0.7721 -0.2386
  948MOL0     H27969   6.303  10.953  10.908  0.3532  0.7941  2.0577
  948MOL0     H27970   6.331  10.867  10.668  1.1698 -0.0654 -0.7890
  948MOL0     H27971   6.349  11.038  10.632  1.7392  3.0676  3.8747
  948MOL0     H27972   6.106  11.060  10.757 -1.0160 -0.1600 -1.1248
  948MOL0     H27973   6.114  10.884  10.762  0.4390 -0.1654 -0.3562
  948MOL0     H27974   6.133  11.074  10.525 -2.1520 -0.6811 -1.7326
  948MOL0     H27975   6.126  10.898  10.499  0.6374 -0.9737  1.1543
  948MOL0     H27976   5.717  10.962  10.540 -0.4113 -0.4133  3.6895
  948MOL0     H27977   6.386  11.102  11.093 -1.4044 -2.1102  0.9156
  948MOL0     H27978   6.471  11.031  11.417  0.7800  1.0164  1.0715
  948MOL0     H27979   6.523  11.198  11.384 -2.3559  1.5791 -0.4286
  948MOL0     H27980   6.385  11.132  11.300 -0.5176 -0.3706  1.4108
  949MOL0     O27981  10.205   5.571  10.583 -0.0768 -0.3614 -0.2521
  949MOL0     C27982  10.117   5.508  10.518 -0.2125 -0.4223 -0.5652
  949MOL0     O27983  10.137   5.408  10.434  0.0722 -0.1324 -1.0490
  949MOL0     C27984  10.258   5.355  10.398  0.1153  0.3334 -0.3361
  949MOL0     C27985  10.386   5.413  10.419  0.6641  0.7466  0.4205
  949MOL0     C27986  10.493   5.335  10.385  0.2765  0.6994 -0.3605
  949MOL0     C27987  10.476   5.199  10.342  0.1354  0.1522  0.7975
  949MOL0     O27988  10.582   5.125  10.293  0.1087 -0.6791 -0.0379
  949MOL0     C27989  10.632   5.161  10.162 -0.3037  0.3005  0.7706
  949MOL0     C27990  10.767   5.076  10.134  0.4915  0.6096 -0.0396
  949MOL0     C27991  10.733   4.923  10.126  0.2222  0.7213 -0.1114
  949MOL0     C27992  10.860   4.838  10.116  0.8784  0.1585 -0.5041
  949MOL0     C27993  10.831   4.690  10.075 -0.2833 -0.0643  0.0976
  949MOL0     C27994  10.956   4.604  10.055 -0.4991  0.0231  0.8875
  949MOL0     C27995  10.924   4.463   9.997  0.4143  0.2410  0.4660
  949MOL0     C27996  10.842   4.460   9.874 -0.3808 -0.9046 -0.1797
  949MOL0     N27997  10.908   4.533   9.759  0.3044  0.7049 -0.1028
  949MOL0     C27998  10.985   4.474   9.656  0.2295  0.8852  0.0424
  949MOL0     C27999  11.016   4.568   9.573  0.0492 -0.9949  0.4929
  949MOL0     C28000  11.096   4.561   9.446 -0.9703  0.0000  1.1027
  949MOL0     C28001  11.212   4.664   9.450 -0.0086 -0.1209 -0.3645
  949MOL0     C28002  11.303   4.662   9.327 -0.7087 -0.1919  0.3188
  949MOL0     C28003  11.370   4.793   9.308  0.2568 -0.1975 -0.1636
  949MOL0     O28004  11.466   4.802   9.418 -0.0639  0.5052  0.7591
  949MOL0     C28005  11.529   4.921   9.435  0.0071 -0.1895  0.1398
  949MOL0     C28006  11.610   4.928   9.547  0.6346 -0.8987  0.6604
  949MOL0     C28007  11.684   5.040   9.578 -0.5374 -0.1858 -0.1907
  949MOL0     C28008  11.696   5.150   9.493 -0.2106  1.0789  0.5894
  949MOL0     C28009  11.776   5.276   9.533 -0.4680  1.1208  0.4560
  949MOL0     O28010  11.789   5.364   9.436 -0.1199  0.1815 -0.5859
  949MOL0     C28011  11.889   5.454   9.452  0.5650  0.5029 -0.5888
  949MOL0     C28012  11.871   5.562   9.543  0.4043  1.5148  0.3110
  949MOL0     C28013  11.964   5.654   9.573 -0.4783  0.1312 -0.2233
  949MOL0     C28014  12.098   5.639   9.504  0.3720 -0.0281  0.3667
  949MOL0     O28015  12.198   5.727   9.516 -0.9301  0.0162  1.7775
  949MOL0     C28016  12.215   5.795   9.639  0.3120  0.1662  0.0849
  949MOL0     C28017  12.355   5.832   9.665 -0.1960 -0.1423  0.0012
  949MOL0     C28018  12.418   5.900   9.547 -0.1023  0.3873  0.0775
  949MOL0     C28019  12.358   6.040   9.513 -1.0803 -0.7715 -0.3935
  949MOL0     C28020  12.372   6.123   9.636 -0.0191 -0.4909 -0.7704
  949MOL0     C28021  12.331   6.265   9.611  0.2003 -0.3932 -0.5684
  949MOL0     C28022  12.319   6.351   9.742 -0.5356 -0.4143 -0.3401
  949MOL0     C28023  12.373   6.497   9.722 -0.0655 -0.3485 -0.4427
  949MOL0    Cl28024  12.538   6.523   9.761  0.3182 -0.3933 -0.1736
  949MOL0     C28025  12.112   5.538   9.418 -0.7576  0.4260  0.0486
  949MOL0     C28026  12.012   5.444   9.391  0.6475  0.3714 -0.0378
  949MOL0     O28027  11.828   5.285   9.645  0.3673  0.2737  0.6460
  949MOL0     C28028  11.615   5.138   9.377  0.0457 -0.3878  0.4985
  949MOL0     C28029  11.529   5.030   9.348  0.8705  0.2699 -0.1747
  949MOL0     N28030  10.960   4.688   9.626 -1.2253 -0.1529  0.0438
  949MOL0     N28031  10.889   4.657   9.729  0.2246 -0.3078 -0.1585
  949MOL0     C28032  10.352   5.147  10.322 -0.0344  0.1064  0.3423
  949MOL0     C28033  10.243   5.223  10.353 -0.1329  1.0859  0.0043
  949MOL0     C28034   9.980   5.537  10.560  0.5132  0.7935  1.2102
  949MOL0     C28035   9.953   5.553  10.704 -0.2571  0.0340 -0.3652
  949MOL0     C28036   9.828   5.588  10.748 -0.2922 -0.2459  0.9455
  949MOL0     C28037   9.728   5.624  10.653 -0.2097 -0.5118 -0.2585
  949MOL0     O28038   9.611   5.669  10.707  0.1715  0.2200  0.1225
  949MOL0     C28039   9.518   5.743  10.634  0.0410  0.1997 -0.2395
  949MOL0     C28040   9.417   5.794  10.737  0.9964 -0.0736 -0.4258
  949MOL0     C28041   9.401   5.951  10.742  0.4220 -0.5936  0.1825
  949MOL0     C28042   9.285   5.996  10.832 -0.4945  0.5286  0.6885
  949MOL0     C28043   9.317   6.132  10.883  0.1240 -0.8992 -0.2429
  949MOL0     C28044   9.341   6.241  10.934 -1.0284 -0.3204 -0.0863
  949MOL0     C28045   9.754   5.617  10.513  0.9066 -0.2805 -0.6684
  949MOL0     C28046   9.876   5.575  10.470 -0.3334 -1.1089  0.8155
  949MOL0     C28047   9.908   5.586  10.321  0.0809 -0.4807 -0.8132
  949MOL0     H28048  10.402   5.505  10.473  0.1877  0.8842  0.3365
  949MOL0     H28049  10.598   5.358  10.398  0.0494  3.6654 -2.7184
  949MOL0     H28050  10.562   5.125  10.086 -0.6807  1.9243  0.3279
  949MOL0     H28051  10.663   5.265  10.151 -0.9744  0.3925 -0.3953
  949MOL0     H28052  10.836   5.090  10.218 -0.6471  2.0025  0.7179
  949MOL0     H28053  10.827   5.115  10.051 -0.0024 -0.5559 -0.9598
  949MOL0     H28054  10.680   4.907  10.032 -0.6618  0.0110  0.5000
  949MOL0     H28055  10.666   4.881  10.202 -0.9927  1.9402 -0.4679
  949MOL0     H28056  10.925   4.888  10.043  0.2760  3.3768  0.9875
  949MOL0     H28057  10.898   4.830  10.219 -1.2347 -2.8426  0.1508
  949MOL0     H28058  10.771   4.649  10.157  2.0747 -1.7838  1.0761
  949MOL0     H28059  10.774   4.689   9.981 -1.9407  0.1942  1.0648
  949MOL0     H28060  11.032   4.658   9.997 -1.8090  1.6045  0.5794
  949MOL0     H28061  11.005   4.587  10.151  1.6807  1.2377  0.0741
  949MOL0     H28062  10.868   4.405  10.071 -1.5425 -0.0473 -1.1483
  949MOL0     H28063  11.019   4.414   9.978 -0.8750 -2.1319 -0.2345
  949MOL0     H28064  10.839   4.353   9.855  1.7630 -1.2165  0.9627
  949MOL0     H28065  10.741   4.499   9.887 -1.2536 -1.6758 -3.6627
  949MOL0     H28066  11.006   4.369   9.638  1.1736  1.4316 -2.5557
  949MOL0     H28067  11.134   4.460   9.429 -1.9457 -0.5823  2.2363
  949MOL0     H28068  11.024   4.593   9.371 -1.2930  0.0168  1.4151
  949MOL0     H28069  11.153   4.757   9.451  3.0614  1.9645  0.3259
  949MOL0     H28070  11.272   4.653   9.540 -0.8539  1.1275  0.3947
  949MOL0     H28071  11.243   4.650   9.236 -1.2798  3.0577  0.1289
  949MOL0     H28072  11.376   4.581   9.328 -1.4419 -0.8707  1.7167
  949MOL0     H28073  11.292   4.869   9.318 -0.2233 -0.8148  1.0259
  949MOL0     H28074  11.407   4.799   9.205  0.4994 -1.9275 -0.2103
  949MOL0     H28075  11.607   4.847   9.619 -1.1434 -1.3777  0.0898
  949MOL0     H28076  11.743   5.039   9.670 -3.3080 -0.4846  1.7262
  949MOL0     H28077  11.771   5.573   9.582  0.1639  0.8987 -0.1243
  949MOL0     H28078  11.932   5.732   9.641  1.1873 -1.2210  2.2794
  949MOL0     H28079  12.148   5.881   9.636 -1.1777 -0.9759 -2.7922
  949MOL0     H28080  12.196   5.726   9.722  1.5172  0.9514  1.0527
  949MOL0     H28081  12.361   5.896   9.754 -1.4420  0.2853 -0.1964
  949MOL0     H28082  12.420   5.746   9.685  1.5894  1.3750  1.1044
  949MOL0     H28083  12.525   5.922   9.556 -0.5618  2.9141  0.1759
  949MOL0     H28084  12.421   5.832   9.462  0.7156  0.3562  0.1262
  949MOL0     H28085  12.254   6.047   9.479 -1.4349  1.9062  0.9637
  949MOL0     H28086  12.418   6.083   9.432 -0.2459 -1.0289  0.0815
  949MOL0     H28087  12.478   6.131   9.665 -0.0523 -0.7860 -0.5569
  949MOL0     H28088  12.316   6.090   9.724  1.5552 -1.3335 -0.0388
  949MOL0     H28089  12.413   6.309   9.553  1.0291 -0.9426  0.1660
  949MOL0     H28090  12.238   6.270   9.552 -0.7271 -2.8009  0.5840
  949MOL0     H28091  12.364   6.299   9.828  0.3980  1.7046  0.5127
  949MOL0     H28092  12.215   6.369   9.771  0.5348  1.3642  2.9532
  949MOL0     H28093  12.358   6.526   9.617  2.0573  0.9971 -0.4126
  949MOL0     H28094  12.327   6.571   9.788  4.5559  2.9652 -0.5092
  949MOL0     H28095  12.211   5.533   9.373 -0.9513  2.6058 -0.7408
  949MOL0     H28096  12.013   5.353   9.333 -1.1494  1.3018 -1.6274
  949MOL0     H28097  11.612   5.214   9.299  0.5024  0.7761  1.5821
  949MOL0     H28098  11.465   5.027   9.261 -0.5413 -1.3428  0.8467
  949MOL0     H28099  10.338   5.047  10.284  1.6004  1.1711 -3.6236
  949MOL0     H28100  10.147   5.173  10.353  1.5920 -2.5385  0.3162
  949MOL0     H28101  10.025   5.534  10.783 -1.1693 -1.3890  0.1636
  949MOL0     H28102   9.811   5.595  10.855  2.1101  1.6578  1.2929
  949MOL0     H28103   9.461   5.696  10.553 -0.0727  0.0297 -0.0624
  949MOL0     H28104   9.564   5.836  10.599 -0.9634  0.4791 -0.8693
  949MOL0     H28105   9.448   5.750  10.832  1.4249  1.6848  0.2837
  949MOL0     H28106   9.318   5.751  10.716  1.1111 -1.6028  1.8843
  949MOL0     H28107   9.388   5.999  10.645 -1.0457 -0.1789  0.5562
  949MOL0     H28108   9.497   5.979  10.787 -0.7604  1.7465  1.4373
  949MOL0     H28109   9.195   5.993  10.771 -0.4827 -0.6996  0.6947
  949MOL0     H28110   9.271   5.930  10.918 -0.8020 -0.3789 -0.0362
  949MOL0     H28111   9.359   6.340  10.968 -2.1344  0.1058 -0.6964
  949MOL0     H28112   9.694   5.654  10.431  2.4132 -2.7615 -3.0414
  949MOL0     H28113   9.824   5.564  10.254  2.5015  1.1403 -4.7253
  949MOL0     H28114   9.938   5.688  10.296  0.1267 -0.1127  0.6791
  949MOL0     H28115   9.992   5.521  10.299  1.6539  0.1492  2.7462
  950MOL0     O28116  10.840   4.058   9.488  0.5650 -0.8666  0.0781
  950MOL0     C28117  10.915   4.094   9.579  0.7616 -0.5943  0.0297
  950MOL0     O28118  10.876   4.104   9.712  0.0051  0.0297  0.4798
  950MOL0     C28119  10.751   4.056   9.741  1.0309  0.6904  0.0932
  950MOL0     C28120  10.731   3.920   9.752  0.0779  0.0109 -0.6758
  950MOL0     C28121  10.607   3.883   9.808 -0.2329  0.2110  0.4072
  950MOL0     C28122  10.513   3.975   9.854  0.1552 -0.2172  0.6587
  950MOL0     O28123  10.395   3.922   9.909  0.4946  0.5341 -0.2612
  950MOL0     C28124  10.377   3.943  10.055 -0.4320 -0.2780 -0.7705
  950MOL0     C28125  10.250   3.877  10.107  0.3851  0.3179  0.1953
  950MOL0     C28126  10.226   3.734  10.048 -0.7536  0.0844  1.3991
  950MOL0     C28127  10.093   3.672  10.097 -0.1483  0.3847 -0.3583
  950MOL0     C28128  10.082   3.535  10.032  0.4460 -0.4290 -0.1279
  950MOL0     C28129   9.952   3.475  10.072 -0.3311 -0.2628  0.5467
  950MOL0     C28130   9.915   3.353  10.001  0.6611  0.2646  0.4806
  950MOL0     C28131   9.846   3.388   9.877  0.2733  0.6358 -0.2170
  950MOL0     N28132   9.821   3.280   9.777  0.3335  0.1810  0.0366
  950MOL0     C28133   9.925   3.244   9.684  0.3614 -0.5472 -0.0600
  950MOL0     C28134   9.862   3.179   9.586 -0.1685  0.4452 -0.3988
  950MOL0     C28135   9.928   3.129   9.459 -0.4163 -0.0858 -0.0050
  950MOL0     C28136   9.998   3.241   9.379  0.0417 -0.4937  0.5192
  950MOL0     C28137  10.037   3.209   9.230  0.2561  0.2591  0.5976
  950MOL0     C28138  10.146   3.098   9.221 -0.0109  0.6734 -0.8022
  950MOL0     O28139  10.199   3.091   9.089  0.0799  1.1422 -0.8328
  950MOL0     C28140  10.309   3.014   9.069  0.8795 -0.7071  0.0416
  950MOL0     C28141  10.363   3.034   8.944 -0.5340 -0.4217  0.5154
  950MOL0     C28142  10.479   2.963   8.904 -0.2409 -0.3733  1.0802
  950MOL0     C28143  10.540   2.871   8.992 -0.5066  0.7780 -0.0828
  950MOL0     C28144  10.667   2.801   8.956  0.2682  0.4430  1.3429
  950MOL0     O28145  10.747   2.855   8.867 -0.2739  0.6588  0.0544
  950MOL0     C28146  10.838   2.774   8.795  0.5458  0.1336 -0.2044
  950MOL0     C28147  10.837   2.632   8.773  0.2474 -0.1382 -0.8670
  950MOL0     C28148  10.942   2.572   8.701  0.4002  0.4991 -0.6823
  950MOL0     C28149  11.045   2.644   8.646 -0.4758 -0.4516 -0.3879
  950MOL0     O28150  11.141   2.593   8.580  0.8040  0.8861 -0.0785
  950MOL0     C28151  11.265   2.651   8.536  0.1030 -0.7237  0.9459
  950MOL0     C28152  11.362   2.538   8.506 -1.0998  0.0833  1.0319
  950MOL0     C28153  11.505   2.590   8.473  1.1519  0.4280  0.0897
  950MOL0     C28154  11.592   2.470   8.433 -0.9001  0.0850  0.3683
  950MOL0     C28155  11.729   2.525   8.402  0.2983  0.2032 -0.2705
  950MOL0     C28156  11.833   2.407   8.424 -0.5269  0.1500 -0.1453
  950MOL0     C28157  11.958   2.448   8.343  0.3711  0.2858  1.0295
  950MOL0     C28158  12.078   2.358   8.341 -1.4043 -0.1891  0.3845
  950MOL0    Cl28159  12.139   2.302   8.502 -0.2398 -0.0991 -0.0604
  950MOL0     C28160  11.034   2.781   8.659 -0.1214  0.9591  0.3906
  950MOL0     C28161  10.936   2.845   8.731 -0.6831 -0.6540 -0.5949
  950MOL0     O28162  10.693   2.696   9.017  0.5095 -0.8828 -0.3449
  950MOL0     C28163  10.487   2.849   9.116 -0.5214 -0.8792  0.7343
  950MOL0     C28164  10.368   2.923   9.165  0.1485 -0.5533 -0.0083
  950MOL0     N28165   9.728   3.188   9.607  0.3710  0.0852  0.0561
  950MOL0     N28166   9.701   3.240   9.725  0.5138 -0.0187 -0.0798
  950MOL0     C28167  10.536   4.113   9.828  1.1256 -0.0377  0.7070
  950MOL0     C28168  10.653   4.154   9.769  0.1733 -0.0645 -0.4238
  950MOL0     C28169  11.056   4.129   9.558 -1.0296  0.1343 -0.1093
  950MOL0     C28170  11.156   4.086   9.652 -0.5612  0.3354 -0.3033
  950MOL0     C28171  11.291   4.116   9.634 -0.2734  0.1755 -0.1017
  950MOL0     C28172  11.337   4.171   9.512 -0.9714  1.0456 -0.5262
  950MOL0     O28173  11.468   4.196   9.501 -0.2023 -0.3527  0.1364
  950MOL0     C28174  11.527   4.300   9.587  0.2945  1.4256 -0.0993
  950MOL0     C28175  11.448   4.428   9.605 -0.1250 -0.3010 -0.2640
  950MOL0     C28176  11.520   4.522   9.705 -0.1976  0.2243 -0.3385
  950MOL0     C28177  11.449   4.527   9.847 -0.2264  0.1054  0.0904
  950MOL0     C28178  11.347   4.631   9.840  1.3873 -0.3723 -0.0968
  950MOL0     C28179  11.257   4.713   9.847 -1.3570  0.5721 -0.1968
  950MOL0     C28180  11.243   4.212   9.420 -0.1567  0.2705 -0.1256
  950MOL0     C28181  11.105   4.195   9.437 -0.5319 -0.8122  0.1616
  950MOL0     C28182  11.008   4.244   9.330  0.2551 -0.3197 -0.1119
  950MOL0     H28183  10.813   3.853   9.730 -1.3445 -1.8027 -0.6912
  950MOL0     H28184  10.588   3.776   9.806  1.1174 -0.0296 -0.3345
  950MOL0     H28185  10.465   3.908  10.109  1.4210  3.4386 -1.0583
  950MOL0     H28186  10.370   4.048  10.088 -2.1106 -0.5281 -0.2006
  950MOL0     H28187  10.165   3.940  10.078  0.0536 -0.6945 -1.1309
  950MOL0     H28188  10.263   3.862  10.215  0.7434  0.6992  0.2022
  950MOL0     H28189  10.308   3.665  10.070 -1.5055 -0.8376  1.3956
  950MOL0     H28190  10.223   3.757   9.942  0.9476  3.3916  1.9369
  950MOL0     H28191  10.087   3.668  10.206 -0.0627  0.0963 -0.3639
  950MOL0     H28192  10.016   3.745  10.070  1.8413  1.9480 -2.1965
  950MOL0     H28193  10.081   3.550   9.924 -0.7659  0.7338  0.0223
  950MOL0     H28194  10.163   3.478  10.078  0.0764  1.8393  3.8097
  950MOL0     H28195   9.958   3.444  10.177 -1.1322 -0.9247  0.3986
  950MOL0     H28196   9.873   3.550  10.074  0.9149  1.1692  3.7845
  950MOL0     H28197   9.850   3.296  10.068  0.4242 -1.1135 -0.8768
  950MOL0     H28198  10.006   3.295   9.981  0.2893 -0.5686  1.1083
  950MOL0     H28199   9.751   3.434   9.906 -0.7152 -0.8947 -0.8608
  950MOL0     H28200   9.902   3.460   9.816  1.8610 -1.2322 -1.0731
  950MOL0     H28201  10.030   3.272   9.690  0.1011  0.6105 -0.5312
  950MOL0     H28202   9.993   3.043   9.477 -2.4151 -1.9360 -1.0957
  950MOL0     H28203   9.845   3.083   9.404 -0.5926  0.4028 -0.1544
  950MOL0     H28204   9.943   3.336   9.379  1.6147  0.4884  2.4955
  950MOL0     H28205  10.082   3.260   9.446 -1.7923  1.4565  2.3923
  950MOL0     H28206  10.064   3.301   9.178  0.2048 -0.8135 -1.4313
  950MOL0     H28207   9.942   3.171   9.190  1.3748 -0.8558 -1.1353
  950MOL0     H28208  10.096   3.006   9.252  0.1748 -0.0586 -2.5849
  950MOL0     H28209  10.229   3.114   9.291  1.1592  1.1009 -2.2344
  950MOL0     H28210  10.310   3.100   8.875 -0.3949  0.3375  1.1220
  950MOL0     H28211  10.525   2.980   8.807 -2.0342  0.5372  0.3442
  950MOL0     H28212  10.762   2.562   8.809 -0.3180 -0.4497 -2.5737
  950MOL0     H28213  10.951   2.465   8.684 -0.8592  0.3012 -0.2200
  950MOL0     H28214  11.246   2.717   8.451  1.4088 -1.6061 -0.0659
  950MOL0     H28215  11.303   2.716   8.615 -0.8988 -2.0810  2.6375
  950MOL0     H28216  11.380   2.470   8.590  0.6838  1.5990  1.9689
  950MOL0     H28217  11.323   2.480   8.422 -0.1839 -0.4456  0.9541
  950MOL0     H28218  11.493   2.674   8.405 -0.9367  1.4711  1.6608
  950MOL0     H28219  11.552   2.630   8.563  1.0803 -2.8491  1.7239
  950MOL0     H28220  11.563   2.405   8.350  3.9875 -3.3808  0.9174
  950MOL0     H28221  11.600   2.401   8.518 -0.7477 -0.8275 -0.3677
  950MOL0     H28222  11.751   2.615   8.461 -0.7689  0.3712 -0.1180
  950MOL0     H28223  11.738   2.558   8.298  0.8216 -2.6795 -1.2250
  950MOL0     H28224  11.858   2.377   8.526 -1.5701 -0.3371 -0.0095
  950MOL0     H28225  11.799   2.317   8.371 -2.0111  0.3917  0.3391
  950MOL0     H28226  11.993   2.544   8.384 -2.0268  2.1820 -1.0070
  950MOL0     H28227  11.914   2.468   8.245  0.2387 -0.3775  0.9547
  950MOL0     H28228  12.045   2.274   8.280 -2.5285 -0.3586  1.2033
  950MOL0     H28229  12.160   2.407   8.287 -1.9893 -0.5904 -0.9124
  950MOL0     H28230  11.099   2.847   8.602  2.2696 -0.3300  1.4510
  950MOL0     H28231  10.925   2.952   8.742 -0.3618 -0.6728 -0.0461
  950MOL0     H28232  10.534   2.781   9.187 -3.5786 -2.7785  1.1059
  950MOL0     H28233  10.340   2.930   9.270  2.9536  1.9445  0.7198
  950MOL0     H28234  10.462   4.184   9.862  1.2821 -0.0429  1.0640
  950MOL0     H28235  10.678   4.259   9.754  0.2395 -0.0459 -0.2033
  950MOL0     H28236  11.118   4.035   9.739 -1.3860 -0.0713 -0.8832
  950MOL0     H28237  11.372   4.085   9.699  0.3219  0.3000 -0.7715
  950MOL0     H28238  11.624   4.324   9.543  1.0613  0.1953  0.8630
  950MOL0     H28239  11.542   4.250   9.683  0.1549  1.6156  0.0238
  950MOL0     H28240  11.349   4.411   9.647  0.8932 -1.1349  1.9725
  950MOL0     H28241  11.440   4.468   9.503  1.7045 -1.8789 -1.1089
  950MOL0     H28242  11.523   4.624   9.665 -0.5382  0.4782  0.2702
  950MOL0     H28243  11.620   4.483   9.725 -0.8592 -0.6303  1.6226
  950MOL0     H28244  11.411   4.426   9.864 -2.8272  0.9124 -0.5969
  950MOL0     H28245  11.511   4.542   9.936  0.9405  1.4278 -0.9069
  950MOL0     H28246  11.169   4.774   9.833 -0.8253  0.8440 -3.0487
  950MOL0     H28247  11.292   4.248   9.330 -1.6208  0.5911 -0.8181
  950MOL0     H28248  10.973   4.161   9.268 -2.1071  1.8587 -1.9317
  950MOL0     H28249  10.918   4.295   9.366  0.1430  1.8243 -3.0796
  950MOL0     H28250  11.053   4.319   9.264 -0.3480  0.0461 -0.1184
  951MOL0     O28251  10.533   6.059   0.932  0.6594  0.3685  0.3286
  951MOL0     C28252  10.601   5.984   0.869  0.4178 -0.1649 -0.6277
  951MOL0     O28253  10.563   5.874   0.805  0.2837 -0.0988  0.1932
  951MOL0     C28254  10.435   5.818   0.800  0.7480  0.5856  0.1610
  951MOL0     C28255  10.423   5.702   0.732  0.1692 -0.2361 -0.1519
  951MOL0     C28256  10.297   5.633   0.727  0.8200 -0.4225  0.0802
  951MOL0     C28257  10.176   5.688   0.769  0.2523  0.4531 -1.2331
  951MOL0     O28258  10.066   5.612   0.748  0.5359  0.3083 -0.1113
  951MOL0     C28259   9.938   5.645   0.806 -0.6440  0.2410 -0.2696
  951MOL0     C28260   9.830   5.554   0.758  0.2053 -0.5559 -0.1931
  951MOL0     C28261   9.687   5.609   0.773 -0.3045 -0.4024 -0.2547
  951MOL0     C28262   9.635   5.588   0.914 -0.2006 -0.2660 -0.2912
  951MOL0     C28263   9.485   5.594   0.922  0.0217  0.0545 -0.5994
  951MOL0     C28264   9.451   5.572   1.061  0.1067 -0.6303  0.0500
  951MOL0     C28265   9.449   5.427   1.099  0.1087 -0.1227 -0.0285
  951MOL0     C28266   9.489   5.404   1.243 -0.5806  0.0202 -0.2278
  951MOL0     N28267   9.489   5.256   1.268 -0.0661 -1.2138  0.2651
  951MOL0     C28268   9.381   5.176   1.297  0.4158 -0.3721  0.4597
  951MOL0     C28269   9.434   5.046   1.301  0.4124 -0.7096  0.1360
  951MOL0     C28270   9.367   4.921   1.305  0.5325  0.7458 -0.3915
  951MOL0     C28271   9.444   4.808   1.371 -0.1295 -0.3654  0.7137
  951MOL0     C28272   9.376   4.680   1.403  1.4877  0.9969 -0.3179
  951MOL0     C28273   9.248   4.684   1.480 -0.6685  0.1203  0.8290
  951MOL0     O28274   9.209   4.552   1.523 -0.0383 -0.3102  0.1787
  951MOL0     C28275   9.083   4.525   1.562 -0.3743 -0.8073  0.6140
  951MOL0     C28276   9.042   4.396   1.553  0.0305  0.6363  0.6870
  951MOL0     C28277   8.911   4.364   1.604 -0.2831  0.5315  0.2073
  951MOL0     C28278   8.822   4.460   1.652  0.4296 -0.9745  1.2009
  951MOL0     C28279   8.679   4.427   1.687 -0.4593  0.0915  0.1797
  951MOL0     O28280   8.654   4.305   1.733  0.1644 -0.0568  0.1451
  951MOL0     C28281   8.530   4.254   1.741  0.9223 -0.5167  0.1679
  951MOL0     C28282   8.524   4.118   1.698  0.3734 -0.4008 -0.0854
  951MOL0     C28283   8.406   4.050   1.712  0.0411  0.5913 -0.2349
  951MOL0     C28284   8.298   4.106   1.753  0.8716  0.2160 -0.7372
  951MOL0     O28285   8.177   4.032   1.745 -0.0785  0.0875  1.0759
  951MOL0     C28286   8.055   4.077   1.818  0.0230 -0.3583 -0.9997
  951MOL0     C28287   8.059   4.014   1.961 -0.9481  0.3283 -0.4920
  951MOL0     C28288   7.920   3.979   2.020  0.2351  0.4713 -0.9040
  951MOL0     C28289   7.933   3.947   2.173  0.7735  0.3847  0.7627
  951MOL0     C28290   7.816   3.860   2.219  0.2840 -0.2153  0.4681
  951MOL0     C28291   7.797   3.859   2.367  0.0162 -1.4977  0.2181
  951MOL0     C28292   7.931   3.816   2.433 -0.4172 -0.0504  0.3513
  951MOL0     C28293   7.922   3.826   2.585  0.0939  1.0502 -0.0077
  951MOL0    Cl28294   7.902   3.995   2.649  0.0809 -0.2758 -0.0963
  951MOL0     C28295   8.298   4.239   1.812 -0.6057 -1.2887  0.3545
  951MOL0     C28296   8.418   4.312   1.792 -0.1629 -0.3565  0.6774
  951MOL0     O28297   8.605   4.524   1.685  0.4197 -0.5977 -0.8321
  951MOL0     C28298   8.864   4.593   1.659 -0.3430  0.4802  0.0782
  951MOL0     C28299   8.995   4.625   1.613 -0.7114 -0.0472  0.5075
  951MOL0     N28300   9.568   5.056   1.269 -0.1203  0.2635  0.7938
  951MOL0     N28301   9.590   5.177   1.234  0.0476  0.0635 -0.4028
  951MOL0     C28302  10.181   5.818   0.837  0.2704  0.9939  0.3508
  951MOL0     C28303  10.309   5.874   0.854  0.0270  1.3165  0.0679
  951MOL0     C28304  10.741   6.005   0.868 -0.1895  0.1526  0.3056
  951MOL0     C28305  10.803   5.963   0.748 -0.3252 -0.0871 -0.2991
  951MOL0     C28306  10.942   5.987   0.724 -0.1962  0.3901 -0.6183
  951MOL0     C28307  11.018   6.040   0.821 -0.8183 -0.5860  0.7848
  951MOL0     O28308  11.149   6.066   0.784 -0.1563 -0.0416  0.2752
  951MOL0     C28309  11.242   6.134   0.873 -0.0237 -0.4975 -0.5962
  951MOL0     C28310  11.381   6.129   0.807  0.4760 -0.5806 -0.1349
  951MOL0     C28311  11.375   6.223   0.682 -0.8655  0.0132  0.4389
  951MOL0     C28312  11.380   6.374   0.710  0.1054 -0.5001  0.3513
  951MOL0     C28313  11.501   6.417   0.789  0.3895 -0.0007  0.7385
  951MOL0     C28314  11.611   6.438   0.832  0.8827 -0.3070 -1.8409
  951MOL0     C28315  10.961   6.067   0.942 -0.6745  0.8614  0.2548
  951MOL0     C28316  10.824   6.059   0.962  1.3145 -0.1194 -0.3853
  951MOL0     C28317  10.761   6.097   1.093 -0.5474 -0.4558  0.5529
  951MOL0     H28318  10.510   5.663   0.681  1.8232 -0.3174  2.5482
  951MOL0     H28319  10.294   5.539   0.673  4.7294 -0.2143 -0.7969
  951MOL0     H28320   9.937   5.632   0.915 -2.7590  2.7748  0.1257
  951MOL0     H28321   9.914   5.751   0.793 -0.6640  0.3603  0.6331
  951MOL0     H28322   9.835   5.448   0.786  1.1021 -0.8944 -1.4939
  951MOL0     H28323   9.843   5.557   0.649 -2.2410  2.5565 -0.5633
  951MOL0     H28324   9.631   5.561   0.693  0.2840 -0.7616 -0.4615
  951MOL0     H28325   9.684   5.717   0.756  0.7730 -0.1347  1.0426
  951MOL0     H28326   9.674   5.492   0.949 -0.1112  0.3250  1.3051
  951MOL0     H28327   9.685   5.656   0.984  0.0392  1.5191 -2.0989
  951MOL0     H28328   9.448   5.688   0.878  0.3090 -0.0178 -1.0054
  951MOL0     H28329   9.449   5.512   0.859 -4.1380  0.0321  1.4742
  951MOL0     H28330   9.521   5.630   1.123 -0.8029  0.4468  0.0962
  951MOL0     H28331   9.354   5.619   1.080  0.7761  1.8159 -2.1007
  951MOL0     H28332   9.519   5.378   1.031  1.5209  0.1430  1.1751
  951MOL0     H28333   9.351   5.383   1.078 -1.7948  2.4424  2.5170
  951MOL0     H28334   9.589   5.441   1.267 -1.2200  1.8060 -0.1811
  951MOL0     H28335   9.409   5.439   1.309  0.2363 -2.7638  2.4351
  951MOL0     H28336   9.279   5.207   1.318  0.5262 -0.3671  0.9876
  951MOL0     H28337   9.277   4.945   1.362 -0.1754 -0.0988 -1.1373
  951MOL0     H28338   9.350   4.899   1.200  4.4274  3.8831 -1.9389
  951MOL0     H28339   9.531   4.782   1.310 -1.2944 -3.4060  0.1738
  951MOL0     H28340   9.470   4.852   1.468 -0.9633 -2.0924  1.7681
  951MOL0     H28341   9.442   4.612   1.459  0.6995 -0.1429 -0.7258
  951MOL0     H28342   9.341   4.626   1.315 -3.8244  0.2306  1.8583
  951MOL0     H28343   9.176   4.723   1.408 -1.1042  0.4409  1.4270
  951MOL0     H28344   9.257   4.760   1.558  3.4380  0.6612  0.0326
  951MOL0     H28345   9.105   4.327   1.498 -1.3737  0.2660 -0.4840
  951MOL0     H28346   8.865   4.267   1.591 -2.9627  2.1070 -3.9998
  951MOL0     H28347   8.612   4.063   1.667  1.6818  0.0791  2.4671
  951MOL0     H28348   8.385   3.948   1.682 -0.8651  1.1600 -1.6048
  951MOL0     H28349   8.016   4.178   1.808 -2.0228 -1.0772 -0.7083
  951MOL0     H28350   7.969   4.039   1.764 -1.7381  1.0973  0.6333
  951MOL0     H28351   8.118   3.922   1.967  1.1437  1.6863  0.8942
  951MOL0     H28352   8.111   4.083   2.028  2.2610 -0.1378 -2.3106
  951MOL0     H28353   7.854   4.066   2.010  2.1838  2.4149  1.6229
  951MOL0     H28354   7.876   3.899   1.960 -0.2659  3.7589 -5.4800
  951MOL0     H28355   7.942   4.041   2.228 -1.0119  1.1482 -0.1553
  951MOL0     H28356   8.030   3.897   2.180  1.1845  0.8327 -1.1793
  951MOL0     H28357   7.831   3.758   2.184  0.8877 -0.5070  1.5367
  951MOL0     H28358   7.728   3.908   2.174 -0.9805 -2.2032  0.7009
  951MOL0     H28359   7.778   3.963   2.394 -1.0708 -2.3281  3.0189
  951MOL0     H28360   7.713   3.802   2.408  0.5793 -0.8159  2.4848
  951MOL0     H28361   8.011   3.885   2.403 -0.7238 -0.0658 -0.5214
  951MOL0     H28362   7.962   3.717   2.400 -1.0331 -0.8672  2.1148
  951MOL0     H28363   7.835   3.766   2.610  1.0687 -0.3576  0.1448
  951MOL0     H28364   8.011   3.776   2.626  0.3281 -1.1182 -2.8219
  951MOL0     H28365   8.209   4.277   1.863  0.4060 -0.6228  1.6854
  951MOL0     H28366   8.418   4.419   1.810  1.4289  0.0984 -1.5261
  951MOL0     H28367   8.810   4.672   1.709  0.2751  0.6867  0.4222
  951MOL0     H28368   9.025   4.728   1.626  0.4416 -0.7130  4.1367
  951MOL0     H28369  10.089   5.854   0.881  0.9208  3.0493  0.1386
  951MOL0     H28370  10.316   5.958   0.923  3.3081  0.5700  0.7836
  951MOL0     H28371  10.746   5.915   0.669 -0.1596  0.3945 -0.7183
  951MOL0     H28372  10.983   5.963   0.627  0.1105 -0.4501 -0.2938
  951MOL0     H28373  11.251   6.086   0.971 -1.3465  1.6919  0.6723
  951MOL0     H28374  11.199   6.230   0.901 -4.7865 -1.4076 -3.5965
  951MOL0     H28375  11.382   6.024   0.777 -3.9760 -0.4258 -1.6473
  951MOL0     H28376  11.467   6.140   0.874  0.0570 -0.2043  0.3574
  951MOL0     H28377  11.284   6.201   0.625 -1.0460  0.8449  0.3953
  951MOL0     H28378  11.455   6.191   0.615  0.7265 -2.2725  3.1891
  951MOL0     H28379  11.363   6.427   0.616  0.6262 -0.5213  0.2449
  951MOL0     H28380  11.284   6.402   0.756 -1.1644  0.1008 -2.4539
  951MOL0     H28381  11.697   6.457   0.893  0.1464 -1.8118 -0.2729
  951MOL0     H28382  11.009   6.100   1.034 -1.8858 -0.7276  1.5389
  951MOL0     H28383  10.726   6.199   1.074  0.6548 -0.2655 -0.8308
  951MOL0     H28384  10.679   6.032   1.124  0.7704 -2.2085  0.5456
  951MOL0     H28385  10.833   6.114   1.174 -0.9214  1.5954  0.5249
  952MOL0     O28386  10.392   4.450   0.072 -0.1568  0.2345  0.4644
  952MOL0     C28387  10.355   4.556   0.127 -0.3005  0.2710  0.5907
  952MOL0     O28388  10.416   4.612   0.244 -0.7260  0.3266 -0.1616
  952MOL0     C28389  10.540   4.581   0.294  0.4169  1.1716 -0.2737
  952MOL0     C28390  10.650   4.542   0.223 -0.3687  0.6890 -0.0622
  952MOL0     C28391  10.769   4.523   0.287  0.2152  0.8477  0.3770
  952MOL0     C28392  10.784   4.532   0.427 -0.1435  0.1893 -0.2402
  952MOL0     O28393  10.911   4.520   0.487  0.1434  0.1545 -0.4055
  952MOL0     C28394  11.030   4.524   0.411  0.7569  1.1538  0.0802
  952MOL0     C28395  11.154   4.526   0.512 -0.3775  0.2418  1.0751
  952MOL0     C28396  11.132   4.418   0.621  0.7259  0.2721 -0.9485
  952MOL0     C28397  11.261   4.378   0.695 -0.0459 -0.1335 -0.1805
  952MOL0     C28398  11.285   4.482   0.807  0.8164 -0.6109  0.2951
  952MOL0     C28399  11.396   4.442   0.893 -1.3200 -0.2276 -0.4152
  952MOL0     C28400  11.404   4.497   1.044  0.7669 -0.2654 -0.1182
  952MOL0     C28401  11.539   4.527   1.097  0.1359  0.3295 -0.0460
  952MOL0     N28402  11.642   4.407   1.095 -0.1657  0.2740  0.7843
  952MOL0     C28403  11.606   4.272   1.094  0.0715  0.2693 -0.4263
  952MOL0     C28404  11.727   4.202   1.079  0.6298 -0.0153 -0.5350
  952MOL0     C28405  11.728   4.058   1.064 -1.1348  0.3948 -0.0457
  952MOL0     C28406  11.724   3.994   1.209 -0.0175 -0.0071 -0.2225
  952MOL0     C28407  11.783   3.849   1.197  0.7542  0.5436  0.2201
  952MOL0     C28408  11.819   3.776   1.328  0.0680  0.1805 -0.0705
  952MOL0     O28409  11.903   3.848   1.421 -0.1747  0.3925  0.6876
  952MOL0     C28410  11.998   3.765   1.478  0.2667 -0.3635 -0.2966
  952MOL0     C28411  12.128   3.818   1.508  1.3406 -0.4340  1.1351
  952MOL0     C28412  12.221   3.742   1.579 -0.0393  1.2292 -0.7994
  952MOL0     C28413  12.195   3.617   1.630 -0.0780  0.4882  0.4890
  952MOL0     C28414  12.302   3.542   1.711 -0.3063  0.3472 -0.7929
  952MOL0     O28415  12.434   3.592   1.730  1.1045 -0.1665 -0.0975
  952MOL0     C28416  12.521   3.544   1.821 -0.6702  0.8434  0.0943
  952MOL0     C28417  12.485   3.543   1.958 -1.3242  0.3535 -0.2091
  952MOL0     C28418  12.557   3.474   2.046  0.8970 -0.1456 -0.4008
  952MOL0     C28419  12.685   3.425   2.014 -0.2919 -0.1558 -0.5850
  952MOL0     O28420  12.789   3.397   2.104  0.9567  0.4504 -1.0427
  952MOL0     C28421  12.754   3.404   2.242 -0.2017  0.3153 -0.6401
  952MOL0     C28422  12.862   3.322   2.310 -0.3414 -0.4176  0.3776
  952MOL0     C28423  12.842   3.301   2.466 -0.9029 -0.0687 -0.1198
  952MOL0     C28424  12.883   3.429   2.541  0.5471  1.2141  0.0833
  952MOL0     C28425  13.017   3.500   2.515 -0.1497  0.8431  0.7556
  952MOL0     C28426  13.063   3.588   2.632  0.7298  0.1756 -0.4810
  952MOL0     C28427  13.170   3.681   2.573 -0.4228 -0.9127 -0.8308
  952MOL0     C28428  13.243   3.755   2.680 -0.3401 -0.2602  1.0684
  952MOL0    Cl28429  13.148   3.885   2.773 -0.2526 -1.0286  0.2791
  952MOL0     C28430  12.721   3.417   1.877 -0.3042  0.2321  0.9495
  952MOL0     C28431  12.636   3.481   1.786 -0.7922  0.1520 -1.2399
  952MOL0     O28432  12.262   3.432   1.765  0.5345  0.0366 -0.1957
  952MOL0     C28433  12.062   3.569   1.604 -1.1766  0.2006 -0.3608
  952MOL0     C28434  11.974   3.638   1.524 -0.2162  0.0263 -0.2203
  952MOL0     N28435  11.823   4.302   1.057 -0.6039  0.3241 -0.4486
  952MOL0     N28436  11.778   4.421   1.073 -0.7875  0.0436  0.7160
  952MOL0     C28437  10.676   4.563   0.500 -0.5831 -0.0252  0.0176
  952MOL0     C28438  10.554   4.580   0.434 -0.0510 -0.1560  0.3340
  952MOL0     C28439  10.241   4.636   0.069  0.0253  0.2041 -0.1118
  952MOL0     C28440  10.232   4.778   0.111 -0.2081  0.4667  0.1912
  952MOL0     C28441  10.133   4.857   0.063  0.6189  0.4240  0.1334
  952MOL0     C28442  10.038   4.807  -0.031  0.1402 -0.4923  0.3316
  952MOL0     O28443   9.966   4.905  -0.090 -0.0401  0.0098  0.8524
  952MOL0     C28444   9.867   4.890  -0.184 -0.0626 -1.4525 -0.4253
  952MOL0     C28445   9.790   5.022  -0.203 -0.3416  0.7450  0.4773
  952MOL0     C28446   9.720   5.078  -0.083 -0.5845  0.1450 -0.2862
  952MOL0     C28447   9.628   5.195  -0.125  0.4628 -0.3619 -0.0481
  952MOL0     C28448   9.507   5.197  -0.037  0.0688  0.0380 -1.5565
  952MOL0     C28449   9.411   5.200   0.045 -0.3062 -0.3415 -0.0463
  952MOL0     C28450  10.048   4.673  -0.073 -0.2635 -0.0134 -0.3350
  952MOL0     C28451  10.144   4.585  -0.029 -0.4435 -0.1546  0.1060
  952MOL0     C28452  10.156   4.448  -0.090  0.1553 -0.2221 -0.4064
  952MOL0     H28453  10.643   4.533   0.115  3.6973 -1.3224 -0.3468
  952MOL0     H28454  10.833   4.476   0.214  0.1289 -1.4119  1.6764
  952MOL0     H28455  11.042   4.438   0.343  1.2036 -0.1118  1.6892
  952MOL0     H28456  11.032   4.602   0.334  1.1759 -0.6001 -1.7996
  952MOL0     H28457  11.158   4.629   0.550  0.5646  0.1291  1.2918
  952MOL0     H28458  11.249   4.508   0.462  0.5645  1.9864  2.1380
  952MOL0     H28459  11.091   4.326   0.577 -1.6587  0.1814  1.1810
  952MOL0     H28460  11.056   4.459   0.689  0.8336 -1.1352  0.0841
  952MOL0     H28461  11.257   4.277   0.736 -1.8647 -0.0847 -0.1785
  952MOL0     H28462  11.338   4.373   0.617  0.0691  2.7599 -0.3710
  952MOL0     H28463  11.296   4.578   0.755  0.2761 -0.4470  0.4821
  952MOL0     H28464  11.195   4.483   0.869  0.9733 -0.2703  0.5242
  952MOL0     H28465  11.398   4.333   0.901  0.4312 -0.0534  4.6618
  952MOL0     H28466  11.491   4.483   0.856 -1.7503  1.0416 -0.1442
  952MOL0     H28467  11.353   4.423   1.106 -1.3945  2.5575  1.7210
  952MOL0     H28468  11.346   4.590   1.048  1.1524  0.1839 -3.0334
  952MOL0     H28469  11.589   4.603   1.037  2.5159  0.4799  1.9791
  952MOL0     H28470  11.532   4.579   1.194  0.4888 -2.5580  1.6474
  952MOL0     H28471  11.518   4.212   1.113 -0.5582  0.8060 -1.5316
  952MOL0     H28472  11.642   4.027   1.004  1.0698 -2.0419 -2.1937
  952MOL0     H28473  11.815   4.029   1.003 -1.5129  0.2551 -0.5228
  952MOL0     H28474  11.792   4.048   1.275  0.8315  1.6048 -2.2941
  952MOL0     H28475  11.624   3.988   1.253  0.5333  0.8008  1.1708
  952MOL0     H28476  11.876   3.870   1.143  0.5268  1.8706  0.3073
  952MOL0     H28477  11.707   3.795   1.139  4.2993  0.6658 -5.2311
  952MOL0     H28478  11.875   3.690   1.290 -0.1283 -0.7865  1.6940
  952MOL0     H28479  11.730   3.749   1.386  1.1408 -2.6397  0.4602
  952MOL0     H28480  12.147   3.922   1.483 -0.2473 -0.4229 -0.1693
  952MOL0     H28481  12.324   3.776   1.581 -0.1968  1.7817 -1.7051
  952MOL0     H28482  12.402   3.601   1.997  0.0629 -0.2340  4.0736
  952MOL0     H28483  12.519   3.466   2.147  1.4207  3.3490  0.2104
  952MOL0     H28484  12.751   3.506   2.280 -0.2969  0.2869 -0.5714
  952MOL0     H28485  12.659   3.358   2.269  0.1277 -3.3633 -4.7406
  952MOL0     H28486  12.850   3.226   2.258  0.2003  0.0157 -0.5819
  952MOL0     H28487  12.959   3.370   2.295 -1.3744  2.1093  1.2840
  952MOL0     H28488  12.739   3.279   2.496 -1.5528  2.8348  0.1199
  952MOL0     H28489  12.908   3.224   2.508  0.3615  0.0998 -1.7068
  952MOL0     H28490  12.892   3.395   2.645 -1.8814 -1.4399 -0.4590
  952MOL0     H28491  12.805   3.504   2.531  0.6122  1.6439  2.3471
  952MOL0     H28492  13.011   3.563   2.425 -0.5113 -1.9617 -1.3225
  952MOL0     H28493  13.098   3.437   2.478 -1.3339 -0.0812 -0.3471
  952MOL0     H28494  12.978   3.631   2.686  1.6884 -0.3486  1.5373
  952MOL0     H28495  13.107   3.524   2.709  0.8939 -2.0786 -2.3392
  952MOL0     H28496  13.126   3.765   2.518 -0.3406  1.7419  2.8082
  952MOL0     H28497  13.246   3.627   2.515  2.5368  0.6711  1.2998
  952MOL0     H28498  13.289   3.684   2.748  0.6670  0.2892  0.9749
  952MOL0     H28499  13.327   3.811   2.638  0.2444  1.0629  3.7938
  952MOL0     H28500  12.822   3.386   1.851 -1.0046 -1.7422  0.3944
  952MOL0     H28501  12.670   3.477   1.683 -0.2600 -0.4478 -1.0502
  952MOL0     H28502  12.034   3.469   1.637 -0.8276  0.5424  1.0487
  952MOL0     H28503  11.871   3.604   1.518 -0.0278 -1.2500  2.1685
  952MOL0     H28504  10.677   4.551   0.607  0.5606 -0.8210 -0.0522
  952MOL0     H28505  10.459   4.600   0.483 -1.2947  1.7483 -2.5660
  952MOL0     H28506  10.305   4.820   0.180 -2.1629  1.2700  1.9002
  952MOL0     H28507  10.134   4.958   0.102  3.2409  0.3684  0.3628
  952MOL0     H28508   9.807   4.802  -0.157 -0.6279 -0.3648  2.0903
  952MOL0     H28509   9.916   4.858  -0.277  0.9841 -4.9816  1.1639
  952MOL0     H28510   9.716   4.991  -0.278  1.8557 -2.2378 -0.6288
  952MOL0     H28511   9.865   5.094  -0.238  0.2274  0.1796  0.5243
  952MOL0     H28512   9.782   5.113  -0.001  0.4126 -0.0839 -0.9311
  952MOL0     H28513   9.653   5.001  -0.045 -0.1469 -0.5794 -0.9567
  952MOL0     H28514   9.692   5.283  -0.121  1.4038 -1.0572  0.5951
  952MOL0     H28515   9.598   5.183  -0.229  0.4498  0.3872 -0.1301
  952MOL0     H28516   9.327   5.212   0.110 -2.5741 -1.1872 -2.6316
  952MOL0     H28517   9.986   4.634  -0.153 -1.5587  2.1314 -0.4422
  952MOL0     H28518  10.159   4.379  -0.005 -0.2355 -1.3188 -1.2680
  952MOL0     H28519  10.070   4.407  -0.143 -0.1900  0.3799 -0.3238
  952MOL0     H28520  10.250   4.437  -0.144  1.4850 -0.0009  1.7396
  953MOL0     O28521   8.954   4.837   5.647 -0.1280 -0.2770  0.0320
  953MOL0     C28522   8.843   4.804   5.600  0.5588 -0.1673  0.7158
  953MOL0     O28523   8.816   4.684   5.539  0.1889  0.0955 -0.0944
  953MOL0     C28524   8.899   4.576   5.540  0.9991  0.8718  0.0718
  953MOL0     C28525   8.916   4.501   5.653 -0.5704 -0.3513 -0.4440
  953MOL0     C28526   8.998   4.391   5.658 -1.1289 -0.0239  0.7005
  953MOL0     C28527   9.064   4.356   5.539 -0.0450 -0.0793 -1.1469
  953MOL0     O28528   9.130   4.238   5.542 -0.2049  0.2960 -0.1242
  953MOL0     C28529   9.248   4.229   5.627  0.6493 -0.6430 -0.9864
  953MOL0     C28530   9.337   4.108   5.598  0.4261 -0.2517 -0.1733
  953MOL0     C28531   9.447   4.102   5.700 -0.2059 -0.6919  0.1132
  953MOL0     C28532   9.556   3.999   5.660  0.1412  0.5231  0.5027
  953MOL0     C28533   9.677   4.027   5.740  0.0310  1.2749 -0.1162
  953MOL0     C28534   9.758   4.161   5.715 -0.2496 -0.2108 -0.1723
  953MOL0     C28535   9.761   4.217   5.569  0.0121  1.2178 -0.9915
  953MOL0     C28536   9.840   4.119   5.476  0.2465 -0.1616  0.1641
  953MOL0     N28537   9.799   4.158   5.339  0.6186  0.2716 -0.6645
  953MOL0     C28538   9.861   4.255   5.256  0.7882 -0.0559 -0.6943
  953MOL0     C28539   9.776   4.266   5.155  0.1000 -0.4706 -0.4761
  953MOL0     C28540   9.787   4.357   5.030  0.1561  0.5423 -0.4727
  953MOL0     C28541   9.757   4.286   4.894  0.2367  0.1690  0.5488
  953MOL0     C28542   9.750   4.387   4.774  0.4973 -0.9047  0.5361
  953MOL0     C28543   9.889   4.426   4.735  0.7294 -0.9869 -0.9273
  953MOL0     O28544   9.898   4.509   4.627 -0.4145 -0.5196  0.5467
  953MOL0     C28545  10.027   4.569   4.615  0.1175  0.3557  0.0774
  953MOL0     C28546  10.033   4.704   4.571 -1.1615  0.1619 -0.7770
  953MOL0     C28547  10.162   4.761   4.557  0.5443 -0.5935 -0.3849
  953MOL0     C28548  10.292   4.699   4.578 -0.7544 -0.0069  0.3220
  953MOL0     C28549  10.420   4.770   4.562 -0.5344 -0.1559 -0.7343
  953MOL0     O28550  10.541   4.697   4.569 -0.1490  0.8293 -0.1792
  953MOL0     C28551  10.656   4.763   4.589 -0.0416 -0.0848 -0.3446
  953MOL0     C28552  10.688   4.798   4.721  0.6923 -0.4268 -0.1555
  953MOL0     C28553  10.813   4.843   4.761 -0.0124  0.7049 -0.3589
  953MOL0     C28554  10.912   4.851   4.661 -0.1319  0.1366  0.9838
  953MOL0     O28555  11.036   4.910   4.671 -0.3210 -0.9157 -0.4106
  953MOL0     C28556  11.085   4.912   4.803  0.4113 -0.3840 -0.5399
  953MOL0     C28557  11.236   4.976   4.806  1.0376  0.7149 -0.4814
  953MOL0     C28558  11.323   4.905   4.699  0.3423 -0.8092  0.5113
  953MOL0     C28559  11.462   4.970   4.695  0.4162 -0.3392 -0.2870
  953MOL0     C28560  11.549   4.901   4.590  0.6756  0.3452  0.0463
  953MOL0     C28561  11.702   4.923   4.622 -0.9113  0.5710  0.3254
  953MOL0     C28562  11.798   4.901   4.506  0.4340  0.3984  0.2890
  953MOL0     C28563  11.947   4.898   4.546  0.1369 -0.6727 -0.3408
  953MOL0    Cl28564  11.971   5.014   4.676  0.1488 -0.2941  0.7037
  953MOL0     C28565  10.880   4.821   4.527  0.2555 -1.0411 -0.9289
  953MOL0     C28566  10.754   4.780   4.490  0.1068  0.4750  0.5840
  953MOL0     O28567  10.411   4.890   4.559  0.1516 -0.2625 -0.0489
  953MOL0     C28568  10.281   4.567   4.622  0.3137  0.0034 -0.8146
  953MOL0     C28569  10.152   4.508   4.646 -0.4499  0.5685 -0.8343
  953MOL0     N28570   9.683   4.166   5.169  0.1539  0.1789  0.3425
  953MOL0     N28571   9.702   4.103   5.273 -0.5439 -0.0065 -0.4271
  953MOL0     C28572   9.046   4.426   5.423  0.0123  0.5824  0.5618
  953MOL0     C28573   8.972   4.548   5.429  0.2259  0.2310  1.3937
  953MOL0     C28574   8.735   4.906   5.588 -0.3932 -0.3076 -0.5678
  953MOL0     C28575   8.773   5.037   5.576  0.2182  0.1254 -0.2108
  953MOL0     C28576   8.678   5.137   5.570  0.6145 -1.0413 -0.8344
  953MOL0     C28577   8.543   5.110   5.540 -0.2161 -0.2867 -0.3081
  953MOL0     O28578   8.456   5.214   5.504 -0.5866 -0.3054 -0.0490
  953MOL0     C28579   8.519   5.330   5.442  0.1328  1.1730  0.4055
  953MOL0     C28580   8.423   5.420   5.360 -0.3511 -1.3129 -0.0111
  953MOL0     C28581   8.334   5.519   5.444  0.1950 -0.0241  1.0498
  953MOL0     C28582   8.231   5.595   5.342 -0.7201  0.3606 -1.1642
  953MOL0     C28583   8.131   5.506   5.273  1.4816 -0.1543 -0.5170
  953MOL0     C28584   8.047   5.428   5.224 -0.3922 -0.8136 -0.3933
  953MOL0     C28585   8.500   4.983   5.557 -0.2258 -0.4223 -0.5661
  953MOL0     C28586   8.594   4.877   5.583 -1.2162 -0.7365  0.1731
  953MOL0     C28587   8.545   4.732   5.591  0.1611  0.2225 -0.2246
  953MOL0     H28588   8.883   4.535   5.751  5.2302  1.1188  1.3794
  953MOL0     H28589   9.025   4.337   5.748  0.0563 -1.1391 -0.2756
  953MOL0     H28590   9.302   4.324   5.619  3.5211 -1.3587  4.7003
  953MOL0     H28591   9.213   4.227   5.731  0.8690  0.1445 -0.8853
  953MOL0     H28592   9.377   4.120   5.497  0.0799 -1.8687 -0.5311
  953MOL0     H28593   9.278   4.016   5.602 -1.9381  1.2008  0.7727
  953MOL0     H28594   9.415   4.070   5.800  0.5062  0.7645  0.8316
  953MOL0     H28595   9.485   4.204   5.698 -2.0077  0.1556 -4.2295
  953MOL0     H28596   9.507   3.904   5.684 -4.4942  2.4514 -0.3083
  953MOL0     H28597   9.578   4.003   5.553 -1.6587  3.6269  0.1267
  953MOL0     H28598   9.648   4.017   5.845  2.1544 -0.2059  0.4011
  953MOL0     H28599   9.756   3.952   5.726  0.1728  1.5227 -0.6800
  953MOL0     H28600   9.716   4.241   5.777 -1.5684 -0.7348 -0.3767
  953MOL0     H28601   9.861   4.154   5.750 -0.2556  1.6149  0.3177
  953MOL0     H28602   9.810   4.314   5.570  1.8717  0.3689  1.6617
  953MOL0     H28603   9.662   4.232   5.525  0.2425 -0.0441 -2.0007
  953MOL0     H28604   9.948   4.105   5.490  0.4159  0.4976 -0.4446
  953MOL0     H28605   9.798   4.018   5.489 -0.1917  0.3044  3.1312
  953MOL0     H28606   9.946   4.313   5.291  1.4539 -1.4291  0.0271
  953MOL0     H28607   9.718   4.440   5.046  1.5824  1.5003  0.9772
  953MOL0     H28608   9.890   4.393   5.028  0.4520 -0.2656 -0.2723
  953MOL0     H28609   9.829   4.205   4.877 -1.8096 -1.5751 -0.2533
  953MOL0     H28610   9.660   4.236   4.897 -0.3121  1.2261  1.3380
  953MOL0     H28611   9.694   4.476   4.803 -2.0080 -2.6508  1.4112
  953MOL0     H28612   9.706   4.334   4.689 -4.2406  1.3719  1.2242
  953MOL0     H28613   9.940   4.335   4.701  1.0195 -0.9549 -0.5881
  953MOL0     H28614   9.927   4.473   4.826 -4.3011  2.1777 -0.1253
  953MOL0     H28615   9.949   4.770   4.557 -0.4944  1.6155  1.5607
  953MOL0     H28616  10.156   4.866   4.529 -0.5681  0.5170  3.5184
  953MOL0     H28617  10.614   4.778   4.798 -0.7178  0.5225 -1.2344
  953MOL0     H28618  10.825   4.874   4.864  0.0838  0.4126 -0.2797
  953MOL0     H28619  11.028   4.973   4.873  2.0822  0.1635  0.4190
  953MOL0     H28620  11.105   4.814   4.848 -0.9640 -0.4570 -0.0450
  953MOL0     H28621  11.213   5.082   4.792 -4.4070 -0.1999 -0.8530
  953MOL0     H28622  11.274   4.970   4.908 -0.2555  1.3938  0.0626
  953MOL0     H28623  11.341   4.799   4.721 -0.3246 -1.0078  0.1360
  953MOL0     H28624  11.275   4.911   4.601 -1.0053 -2.3779  1.0202
  953MOL0     H28625  11.504   4.975   4.796 -1.9124 -0.6584  0.7480
  953MOL0     H28626  11.459   5.078   4.674  1.8179 -0.4540 -1.1983
  953MOL0     H28627  11.533   4.938   4.488  3.4847 -1.2373 -1.0483
  953MOL0     H28628  11.530   4.794   4.597  0.4408  0.4436  0.9756
  953MOL0     H28629  11.717   5.025   4.659 -1.2474 -0.1759  2.7048
  953MOL0     H28630  11.729   4.855   4.702  1.3121  2.2891  1.1378
  953MOL0     H28631  11.790   4.976   4.426 -0.6194 -0.2358 -0.2221
  953MOL0     H28632  11.769   4.811   4.450  0.1210 -0.3951  1.6827
  953MOL0     H28633  11.969   4.798   4.585  1.9146 -0.6143 -1.0617
  953MOL0     H28634  12.016   4.922   4.465  0.6429  1.8550  0.7410
  953MOL0     H28635  10.957   4.839   4.454 -1.0492 -2.2646 -2.6771
  953MOL0     H28636  10.728   4.761   4.386  0.7818  1.0216  0.3039
  953MOL0     H28637  10.375   4.513   4.613 -0.1243 -0.4357 -3.5081
  953MOL0     H28638  10.160   4.408   4.686  1.4388  0.7292 -0.7140
  953MOL0     H28639   9.078   4.392   5.325  2.6523  2.5123  0.6662
  953MOL0     H28640   8.968   4.603   5.335  0.8771 -4.0935 -1.4690
  953MOL0     H28641   8.881   5.052   5.577  0.7277 -2.8704 -0.9438
  953MOL0     H28642   8.721   5.237   5.573  0.9039 -1.1713  1.3594
  953MOL0     H28643   8.600   5.295   5.377 -0.8987 -0.7070  0.0525
  953MOL0     H28644   8.559   5.395   5.520  0.2337 -1.9245  3.1361
  953MOL0     H28645   8.363   5.363   5.289 -1.1310  1.7251 -1.9522
  953MOL0     H28646   8.484   5.485   5.297  1.7719 -2.7887  0.4177
  953MOL0     H28647   8.394   5.595   5.495 -1.2770  0.1638  2.6171
  953MOL0     H28648   8.280   5.461   5.519 -0.8579 -1.8074 -0.9792
  953MOL0     H28649   8.180   5.663   5.411 -0.1463 -0.6734  0.3429
  953MOL0     H28650   8.284   5.665   5.277 -1.0074  1.0724 -0.6431
  953MOL0     H28651   7.978   5.356   5.184  1.3673 -1.7196 -1.9954
  953MOL0     H28652   8.394   4.963   5.544 -0.1967 -0.7810 -0.2747
  953MOL0     H28653   8.580   4.676   5.678  3.2792 -0.0200 -1.5173
  953MOL0     H28654   8.437   4.720   5.576  0.0161 -2.2692  1.9417
  953MOL0     H28655   8.587   4.683   5.503 -2.2732 -1.3593 -0.6251
  954MOL0     O28656   6.155  10.842   0.225 -1.0876  0.1748  0.0772
  954MOL0     C28657   6.081  10.783   0.138  0.5536  0.3392 -0.3581
  954MOL0     O28658   6.103  10.654   0.090  0.3827  0.5839  0.0696
  954MOL0     C28659   6.212  10.586   0.128 -0.0461  0.2140  0.0728
  954MOL0     C28660   6.197  10.472   0.204 -0.7805  0.9657  0.3554
  954MOL0     C28661   6.310  10.390   0.236  0.0319 -1.4497 -0.6121
  954MOL0     C28662   6.432  10.447   0.215  0.0176 -0.6305 -0.1830
  954MOL0     O28663   6.544  10.384   0.250  0.3294  0.5903 -0.0059
  954MOL0     C28664   6.561  10.332   0.385 -0.0768 -1.0614 -0.0233
  954MOL0     C28665   6.643  10.434   0.462  1.3339 -0.9318  0.3003
  954MOL0     C28666   6.791  10.404   0.443  0.1065 -0.7218  0.7202
  954MOL0     C28667   6.875  10.517   0.500  0.5949  0.2980 -0.4588
  954MOL0     C28668   7.028  10.512   0.465 -0.1971  0.0962  0.5403
  954MOL0     C28669   7.097  10.632   0.531 -0.4279 -0.6548  0.0231
  954MOL0     C28670   7.249  10.632   0.499  0.1520  0.3312 -0.3372
  954MOL0     C28671   7.317  10.500   0.549 -0.5100 -0.8888  0.0830
  954MOL0     N28672   7.461  10.510   0.584 -0.3819  0.8646  0.4582
  954MOL0     C28673   7.572  10.540   0.502  0.4298 -0.8528  0.2369
  954MOL0     C28674   7.678  10.504   0.579  0.1483  0.5540 -0.2644
  954MOL0     C28675   7.816  10.540   0.526  0.6837 -0.6237  0.9243
  954MOL0     C28676   7.867  10.676   0.551  0.7035 -0.2588  0.3818
  954MOL0     C28677   7.998  10.704   0.486  0.1568 -0.3191 -0.1587
  954MOL0     C28678   8.120  10.626   0.538 -0.2212 -0.4036 -1.1984
  954MOL0     O28679   8.244  10.690   0.496 -0.2464 -0.1711 -0.2802
  954MOL0     C28680   8.360  10.616   0.503  0.0922  0.0099 -0.1146
  954MOL0     C28681   8.382  10.477   0.481  1.2111 -0.4485  0.0731
  954MOL0     C28682   8.508  10.420   0.515 -0.2554 -0.1087 -0.2999
  954MOL0     C28683   8.615  10.504   0.555 -0.6880 -0.2850 -0.4486
  954MOL0     C28684   8.745  10.443   0.579 -0.1288 -0.2429 -0.0902
  954MOL0     O28685   8.760  10.310   0.567  0.2234  0.3022  0.1514
  954MOL0     C28686   8.884  10.263   0.569 -0.7188  0.1740  0.0656
  954MOL0     C28687   8.950  10.268   0.695  0.2741 -0.6052  0.6138
  954MOL0     C28688   9.076  10.217   0.699 -0.0431  0.0395 -0.6925
  954MOL0     C28689   9.153  10.199   0.581 -0.8265 -0.5460 -0.2196
  954MOL0     O28690   9.285  10.160   0.577  0.7373 -0.8473  0.0901
  954MOL0     C28691   9.339  10.111   0.697 -0.3179  0.7922  0.5004
  954MOL0     C28692   9.485  10.062   0.667 -0.1324 -0.3653  0.3949
  954MOL0     C28693   9.537   9.991   0.794 -0.3415  0.1987 -0.1659
  954MOL0     C28694   9.690   9.970   0.764  0.4116  0.4837 -0.5757
  954MOL0     C28695   9.765   9.873   0.854  0.0100 -0.9871  1.1761
  954MOL0     C28696   9.925   9.885   0.834  0.1768  0.0591  0.6041
  954MOL0     C28697   9.975   9.867   0.695  0.2285 -0.5930 -0.4720
  954MOL0     C28698  10.121   9.837   0.692 -0.1907 -0.6243 -0.6392
  954MOL0    Cl28699  10.169   9.686   0.765 -0.0918  0.3124  0.0724
  954MOL0     C28700   9.084  10.203   0.458  0.6862 -0.9282 -0.0698
  954MOL0     C28701   8.944  10.217   0.454 -0.4151 -0.5625 -0.0368
  954MOL0     O28702   8.839  10.521   0.582  0.7062 -0.0433  0.3359
  954MOL0     C28703   8.589  10.634   0.566 -0.2635 -0.6445 -0.2232
  954MOL0     C28704   8.461  10.696   0.547 -0.7655 -0.3568 -1.0480
  954MOL0     N28705   7.644  10.458   0.700  0.2250 -0.1378 -0.7144
  954MOL0     N28706   7.518  10.468   0.698 -0.1306  0.3319 -0.8544
  954MOL0     C28707   6.453  10.559   0.134 -0.0625 -0.4025 -0.7608
  954MOL0     C28708   6.342  10.628   0.088  1.2827 -0.1620 -0.1148
  954MOL0     C28709   5.955  10.849   0.093  0.2189  0.7762  0.0822
  954MOL0     C28710   5.860  10.775   0.019  0.5152 -0.0477 -0.1892
  954MOL0     C28711   5.735  10.834  -0.017  0.5501 -0.3477 -0.4760
  954MOL0     C28712   5.715  10.970   0.001 -0.7617 -0.0503 -0.0835
  954MOL0     O28713   5.612  11.033  -0.059  0.1185  0.3256  0.1075
  954MOL0     C28714   5.477  11.009  -0.009 -0.2795  0.0938  0.7407
  954MOL0     C28715   5.387  11.035  -0.130  0.9889 -0.1666 -0.6701
  954MOL0     C28716   5.342  11.181  -0.134 -0.5225 -0.2381 -0.0012
  954MOL0     C28717   5.239  11.190  -0.238  0.0388  0.7227  0.5920
  954MOL0     C28718   5.174  11.326  -0.232  0.5835  1.1555  0.5090
  954MOL0     C28719   5.124  11.432  -0.200  0.1607  0.1847  0.3642
  954MOL0     C28720   5.811  11.043   0.076  0.6766  0.1400  0.1598
  954MOL0     C28721   5.926  10.983   0.127  0.3092 -0.6472  0.3074
  954MOL0     C28722   6.013  11.080   0.208 -0.4366 -0.1538 -0.3431
  954MOL0     H28723   6.097  10.435   0.222 -1.1628  1.0680 -1.4204
  954MOL0     H28724   6.302  10.296   0.290  1.6941 -1.2044  0.1067
  954MOL0     H28725   6.467  10.311   0.437 -0.7378  2.0092  0.2209
  954MOL0     H28726   6.614  10.236   0.386 -0.8076 -1.4846 -0.9670
  954MOL0     H28727   6.617  10.421   0.568 -0.1082 -0.9764 -0.0340
  954MOL0     H28728   6.614  10.529   0.417 -0.7074 -1.3106  0.7103
  954MOL0     H28729   6.808  10.407   0.335  2.5966 -0.2250  1.0554
  954MOL0     H28730   6.826  10.306   0.477  1.2151 -1.6871 -2.7520
  954MOL0     H28731   6.829  10.609   0.462  0.4619  0.1789 -0.5897
  954MOL0     H28732   6.869  10.516   0.609 -0.8022 -0.1100 -0.5175
  954MOL0     H28733   7.069  10.425   0.516  1.5370  1.7162  2.0415
  954MOL0     H28734   7.047  10.516   0.357  2.2677 -1.0360  0.8784
  954MOL0     H28735   7.047  10.727   0.506  0.6973  0.4286  1.7024
  954MOL0     H28736   7.079  10.616   0.638 -1.2214  2.9888  0.5897
  954MOL0     H28737   7.294  10.720   0.545 -1.1915  0.6793  0.3595
  954MOL0     H28738   7.258  10.628   0.390  1.6405  0.8123 -0.2623
  954MOL0     H28739   7.257  10.466   0.633  0.3751 -2.6346  0.0697
  954MOL0     H28740   7.316  10.423   0.471 -1.6167 -0.6126 -0.1852
  954MOL0     H28741   7.579  10.585   0.404  2.7240  3.3719  2.1102
  954MOL0     H28742   7.894  10.473   0.564  0.6271 -3.1859 -2.8931
  954MOL0     H28743   7.818  10.529   0.417  2.7828 -1.9148  1.0206
  954MOL0     H28744   7.784  10.735   0.509  0.5130 -0.7806  0.0168
  954MOL0     H28745   7.868  10.685   0.660  2.9742 -1.7646  0.5336
  954MOL0     H28746   8.026  10.809   0.499 -4.1922  1.1382 -0.8405
  954MOL0     H28747   7.995  10.685   0.378  3.6895 -2.1977 -0.0782
  954MOL0     H28748   8.122  10.521   0.509 -0.0455 -0.4407 -1.0565
  954MOL0     H28749   8.120  10.640   0.647  2.1602  4.0202 -1.5036
  954MOL0     H28750   8.293  10.419   0.460  0.3621  0.8958 -0.2235
  954MOL0     H28751   8.512  10.313   0.501  0.6892  0.0319 -1.2173
  954MOL0     H28752   8.896  10.292   0.785 -0.0092  1.0734  0.0236
  954MOL0     H28753   9.117  10.209   0.799  0.2621  0.5833 -0.7713
  954MOL0     H28754   9.331  10.173   0.787  2.8135  0.0476  1.4155
  954MOL0     H28755   9.286  10.018   0.720  1.9375 -1.2641 -1.9904
  954MOL0     H28756   9.493   9.992   0.583 -2.7144  0.2944 -0.5009
  954MOL0     H28757   9.552  10.148   0.664 -1.3628  0.6103 -0.7841
  954MOL0     H28758   9.528  10.059   0.880  0.7980 -1.7718  1.5974
  954MOL0     H28759   9.485   9.895   0.803 -0.2855 -0.0135 -1.8197
  954MOL0     H28760   9.729  10.070   0.784 -0.0405  0.4446  0.5561
  954MOL0     H28761   9.698   9.930   0.662 -4.6357  0.1528 -1.0787
  954MOL0     H28762   9.725   9.772   0.840  0.2074 -0.9543  0.3354
  954MOL0     H28763   9.743   9.889   0.960 -0.7530 -0.6045  0.9664
  954MOL0     H28764   9.955   9.985   0.866 -2.2427  1.9814 -2.5052
  954MOL0     H28765   9.966   9.808   0.901  0.1203  0.7589  1.4557
  954MOL0     H28766   9.954   9.950   0.627  0.5689 -0.2637 -0.1834
  954MOL0     H28767   9.929   9.778   0.652 -3.1598  0.1148  1.2945
  954MOL0     H28768  10.149   9.839   0.586 -1.4233 -1.1131 -0.9821
  954MOL0     H28769  10.158   9.925   0.745 -1.1938 -0.0526 -0.8813
  954MOL0     H28770   9.142  10.180   0.369 -0.2826  1.5345 -1.4393
  954MOL0     H28771   8.879  10.221   0.367 -0.1039  2.2364 -0.2589
  954MOL0     H28772   8.671  10.693   0.604  1.6700 -3.6753  0.6748
  954MOL0     H28773   8.441  10.801   0.566  4.2806  0.2096  3.5641
  954MOL0     H28774   6.553  10.588   0.106  1.6048 -2.9128  2.0599
  954MOL0     H28775   6.353  10.708   0.015 -1.1726  0.3744  0.0273
  954MOL0     H28776   5.890  10.674  -0.006 -0.1932 -0.1917 -0.4855
  954MOL0     H28777   5.663  10.770  -0.067 -0.2645  1.2143 -1.3794
  954MOL0     H28778   5.454  11.084   0.068  0.8214  1.0553  0.1716
  954MOL0     H28779   5.456  10.905   0.016 -3.8337  0.6729  0.7419
  954MOL0     H28780   5.293  10.981  -0.112  0.0560  2.0126  1.6116
  954MOL0     H28781   5.437  11.000  -0.221 -0.1748  0.6216 -1.6576
  954MOL0     H28782   5.432  11.240  -0.151  1.5033 -2.6250  1.8151
  954MOL0     H28783   5.302  11.216  -0.038 -1.7582 -1.3560 -0.0836
  954MOL0     H28784   5.276  11.182  -0.340 -0.7236  1.6437  0.2314
  954MOL0     H28785   5.166  11.109  -0.229  2.0321 -1.2316 -0.0317
  954MOL0     H28786   5.080  11.525  -0.169  0.7999  1.6085 -2.7020
  954MOL0     H28787   5.796  11.150   0.090 -0.4952 -0.2227  1.9731
  954MOL0     H28788   5.960  11.174   0.228  1.1898  0.4367  1.3996
  954MOL0     H28789   6.042  11.029   0.300 -1.5948 -0.5412 -0.1722
  954MOL0     H28790   6.104  11.101   0.152  0.5271 -1.4763  0.6790
  955MOL0     O28791   8.521   2.199   2.176  0.2861  0.0926 -0.7866
  955MOL0     C28792   8.618   2.182   2.249 -0.8880  0.2369 -1.1417
  955MOL0     O28793   8.621   2.111   2.373  0.0801 -0.3011  0.8022
  955MOL0     C28794   8.505   2.063   2.415 -0.2172  0.4220 -0.2244
  955MOL0     C28795   8.408   2.152   2.458 -0.5295 -0.3998 -0.1184
  955MOL0     C28796   8.284   2.101   2.502  0.2474 -0.3699  0.3848
  955MOL0     C28797   8.256   1.962   2.494 -0.5468 -0.2145 -0.1335
  955MOL0     O28798   8.137   1.910   2.526  0.3406 -0.4866  0.1730
  955MOL0     C28799   8.025   1.976   2.487 -0.2620  0.1009 -0.1201
  955MOL0     C28800   7.992   1.928   2.343 -0.0038 -0.0654 -0.4813
  955MOL0     C28801   7.951   1.788   2.350  0.1745  0.3330  0.2387
  955MOL0     C28802   7.918   1.727   2.209 -0.9043 -0.0867  0.3233
  955MOL0     C28803   7.837   1.606   2.240 -0.1027 -0.0400 -0.3260
  955MOL0     C28804   7.835   1.508   2.110  0.5981  0.5185 -0.2282
  955MOL0     C28805   7.696   1.453   2.105  0.4021  0.1472 -0.7271
  955MOL0     C28806   7.668   1.348   1.996  1.2292  0.3052  0.3444
  955MOL0     N28807   7.713   1.212   2.022 -1.3942  0.0172  0.1049
  955MOL0     C28808   7.844   1.172   2.018 -0.2674 -0.2784 -0.0789
  955MOL0     C28809   7.843   1.040   2.031  0.0850 -0.1314 -1.0508
  955MOL0     C28810   7.967   0.948   2.046 -0.9153 -0.4037 -0.2693
  955MOL0     C28811   7.970   0.880   2.186  0.2874  0.7106  0.3458
  955MOL0     C28812   8.072   0.763   2.189  0.0236  0.0261 -0.0722
  955MOL0     C28813   8.183   0.795   2.284 -0.2388  0.4320 -0.3215
  955MOL0     O28814   8.295   0.706   2.256 -0.5921  0.5229 -0.2717
  955MOL0     C28815   8.419   0.760   2.244  0.1904  0.6382  0.6209
  955MOL0     C28816   8.454   0.801   2.119 -0.2232 -0.5272  0.4751
  955MOL0     C28817   8.587   0.839   2.086 -0.3620  0.5598  0.4736
  955MOL0     C28818   8.685   0.835   2.184 -0.8174  0.4148 -0.5781
  955MOL0     C28819   8.828   0.864   2.158 -0.4843 -0.7950  0.4496
  955MOL0     O28820   8.928   0.814   2.237  0.1579 -0.3747 -0.4046
  955MOL0     C28821   9.047   0.874   2.220 -1.2755  0.8164  0.3411
  955MOL0     C28822   9.075   0.999   2.278 -0.6631  0.5300 -0.5107
  955MOL0     C28823   9.201   1.055   2.274 -0.1005  0.9121 -0.2404
  955MOL0     C28824   9.312   0.987   2.216  0.3440  0.6170  0.8736
  955MOL0     O28825   9.426   1.052   2.222  0.2913  0.6473 -0.4277
  955MOL0     C28826   9.535   0.987   2.294 -0.0063  1.4883  0.0673
  955MOL0     C28827   9.654   0.949   2.206 -0.1721  0.1859 -1.0802
  955MOL0     C28828   9.728   1.074   2.162 -0.5457 -0.2928  0.1776
  955MOL0     C28829   9.817   1.150   2.257  0.0754  0.1212 -0.6756
  955MOL0     C28830   9.905   1.258   2.189 -0.5049  0.4396 -0.3789
  955MOL0     C28831   9.827   1.346   2.087  0.3064  0.4802  0.0965
  955MOL0     C28832   9.921   1.469   2.056 -0.2944 -0.6106  0.4186
  955MOL0     C28833   9.840   1.581   1.988  0.6210 -0.4623 -0.8455
  955MOL0    Cl28834   9.955   1.684   1.902 -0.1423  0.1140 -0.2290
  955MOL0     C28835   9.290   0.860   2.150 -0.7438  1.1225  0.3473
  955MOL0     C28836   9.159   0.805   2.149 -0.2024  0.3559 -0.0156
  955MOL0     O28837   8.850   0.963   2.081 -0.3209 -0.3130  0.2136
  955MOL0     C28838   8.645   0.790   2.316  0.7949 -0.5520 -0.3974
  955MOL0     C28839   8.508   0.761   2.347  0.0537 -0.7565 -0.0375
  955MOL0     N28840   7.708   0.996   2.031  0.6854 -0.5457 -0.3555
  955MOL0     N28841   7.631   1.101   2.020 -0.8730 -0.4004  0.4444
  955MOL0     C28842   8.355   1.871   2.453 -0.4487 -0.3108  0.2512
  955MOL0     C28843   8.476   1.928   2.405  0.1961  0.5342 -0.1317
  955MOL0     C28844   8.744   2.238   2.198 -0.3999 -0.3345  0.1143
  955MOL0     C28845   8.858   2.166   2.225 -0.2666  0.8029  0.7345
  955MOL0     C28846   8.983   2.214   2.209 -0.5273 -0.1544 -0.0565
  955MOL0     C28847   9.007   2.342   2.148 -0.1590  0.2894  0.9878
  955MOL0     O28848   9.135   2.386   2.116 -0.4947 -0.7828 -0.3396
  955MOL0     C28849   9.239   2.296   2.130 -0.0018  0.4129 -0.9158
  955MOL0     C28850   9.352   2.385   2.087  0.2224 -0.4920 -0.2340
  955MOL0     C28851   9.397   2.510   2.167  0.2244 -0.4731 -1.3672
  955MOL0     C28852   9.538   2.554   2.123  0.0479 -0.1561  0.0840
  955MOL0     C28853   9.638   2.455   2.162 -0.6598 -0.5070 -0.5143
  955MOL0     C28854   9.738   2.399   2.210  0.2636 -0.0411  0.7449
  955MOL0     C28855   8.890   2.415   2.109  0.5684  0.5890  0.8084
  955MOL0     C28856   8.757   2.369   2.148 -1.1057  0.6773  0.5596
  955MOL0     C28857   8.643   2.469   2.129 -0.0984  0.4616 -0.3134
  955MOL0     H28858   8.438   2.256   2.453 -4.4602  0.9988  1.3501
  955MOL0     H28859   8.210   2.170   2.540 -1.7952 -0.9721 -2.2002
  955MOL0     H28860   7.957   1.939   2.564  2.6693 -2.3141  1.5241
  955MOL0     H28861   8.027   2.084   2.503  0.6859 -0.3236  3.2764
  955MOL0     H28862   8.084   1.927   2.283 -0.1961 -0.1924 -0.7713
  955MOL0     H28863   7.905   1.985   2.310 -0.8207  0.1477  1.8715
  955MOL0     H28864   7.868   1.778   2.421 -2.6095  0.7575 -2.6790
  955MOL0     H28865   8.031   1.720   2.381  0.1461 -0.6490 -1.6899
  955MOL0     H28866   7.861   1.803   2.154  0.1232  1.8091  1.7819
  955MOL0     H28867   8.017   1.704   2.167 -1.1817 -0.3066 -0.2301
  955MOL0     H28868   7.876   1.540   2.318 -1.6649 -0.3207  0.2507
  955MOL0     H28869   7.738   1.648   2.262 -1.5832 -1.8009 -3.0259
  955MOL0     H28870   7.850   1.567   2.019  0.3486  0.9386  0.0008
  955MOL0     H28871   7.910   1.429   2.113 -1.5887 -1.8779 -2.9423
  955MOL0     H28872   7.619   1.526   2.079 -0.6100 -0.5412  0.2397
  955MOL0     H28873   7.668   1.400   2.197  2.0270  0.8415  0.2087
  955MOL0     H28874   7.561   1.337   1.977  1.1649  0.5125  0.5734
  955MOL0     H28875   7.716   1.388   1.906  1.5303 -1.1081 -0.1440
  955MOL0     H28876   7.932   1.235   2.022 -0.0354 -0.5942 -0.1325
  955MOL0     H28877   7.966   0.882   1.959  0.0974 -0.0228 -0.5825
  955MOL0     H28878   8.054   1.013   2.063  0.1452 -2.2522  2.0089
  955MOL0     H28879   7.996   0.950   2.267  0.5768 -0.0773  0.9454
  955MOL0     H28880   7.874   0.831   2.201  1.4917 -2.7109 -1.9551
  955MOL0     H28881   8.121   0.755   2.091  0.7212 -0.1791  0.2848
  955MOL0     H28882   8.028   0.667   2.216 -1.7752  0.5183 -1.1229
  955MOL0     H28883   8.157   0.800   2.390  1.3690  1.2759  0.0760
  955MOL0     H28884   8.208   0.897   2.255 -3.6479  1.9225  1.4099
  955MOL0     H28885   8.377   0.791   2.043 -0.2637 -1.9455  0.6855
  955MOL0     H28886   8.629   0.866   1.990 -0.9480 -3.6580 -1.1726
  955MOL0     H28887   8.990   1.056   2.316 -0.6009  1.3035 -1.5035
  955MOL0     H28888   9.219   1.147   2.329 -0.4898  0.4285  0.7172
  955MOL0     H28889   9.575   1.051   2.374  2.5747 -0.3400  0.3575
  955MOL0     H28890   9.484   0.899   2.335  2.1823  0.7958  1.4815
  955MOL0     H28891   9.703   0.870   2.264 -1.0818 -0.7261 -1.5299
  955MOL0     H28892   9.618   0.898   2.116 -0.7515 -1.7004  0.1609
  955MOL0     H28893   9.791   1.046   2.077  0.4390  1.2010  0.3747
  955MOL0     H28894   9.645   1.138   2.131 -3.3528 -3.2578  0.9913
  955MOL0     H28895   9.888   1.085   2.308  1.1411 -0.1121 -2.3925
  955MOL0     H28896   9.746   1.199   2.325 -2.6274 -1.8448 -1.9152
  955MOL0     H28897   9.993   1.213   2.141  0.6908  0.2874  1.8443
  955MOL0     H28898   9.949   1.330   2.258 -0.3457  4.3435 -4.1297
  955MOL0     H28899   9.801   1.291   1.997 -2.4906  0.4807  0.8042
  955MOL0     H28900   9.730   1.382   2.125  0.1040  1.1243 -0.9997
  955MOL0     H28901  10.005   1.442   1.992 -0.6058  0.8760 -0.6586
  955MOL0     H28902   9.958   1.502   2.153 -1.6206  1.5446  0.2564
  955MOL0     H28903   9.760   1.543   1.924 -0.8314 -0.7873  1.0628
  955MOL0     H28904   9.791   1.628   2.074  1.2122 -3.5586  1.3456
  955MOL0     H28905   9.373   0.809   2.103 -1.6660 -0.5322  0.4351
  955MOL0     H28906   9.135   0.713   2.095  1.2667  0.8496 -1.6308
  955MOL0     H28907   8.709   0.798   2.403  2.2911 -2.7319 -1.2135
  955MOL0     H28908   8.474   0.751   2.449  2.8595  1.1893  1.2121
  955MOL0     H28909   8.334   1.765   2.445 -0.0840 -0.2743 -1.8812
  955MOL0     H28910   8.542   1.864   2.348 -2.5132 -0.9782 -1.7866
  955MOL0     H28911   8.856   2.067   2.270  0.7760  0.2326 -0.4076
  955MOL0     H28912   9.059   2.143   2.241 -1.5243 -0.0151  2.9911
  955MOL0     H28913   9.231   2.213   2.060 -0.6680 -0.0091 -0.3556
  955MOL0     H28914   9.241   2.265   2.235  1.5743  1.5054 -0.5785
  955MOL0     H28915   9.343   2.418   1.983  0.7637  1.5707  0.3190
  955MOL0     H28916   9.435   2.315   2.099  0.9522 -0.0528 -2.2869
  955MOL0     H28917   9.389   2.485   2.274 -0.2719  3.0903 -0.4316
  955MOL0     H28918   9.331   2.593   2.143  0.4278 -0.3999 -1.6828
  955MOL0     H28919   9.544   2.586   2.019 -2.0546  0.4748  0.1091
  955MOL0     H28920   9.568   2.647   2.172 -0.1741  0.6394 -1.2515
  955MOL0     H28921   9.827   2.349   2.243 -0.8884 -1.2758  2.1598
  955MOL0     H28922   8.896   2.513   2.062 -1.9141 -0.2586 -1.5365
  955MOL0     H28923   8.626   2.485   2.022  0.0074 -0.0776 -0.4148
  955MOL0     H28924   8.549   2.425   2.165  0.7752  0.5301  2.2086
  955MOL0     H28925   8.655   2.560   2.187 -1.0295  0.9911 -0.9199
  956MOL0     O28926   1.797   8.039   6.405 -0.7511 -0.7317 -0.4423
  956MOL0     C28927   1.827   7.921   6.390 -0.1576 -0.5119  0.4364
  956MOL0     O28928   1.941   7.862   6.435 -0.2910  1.0413 -0.2253
  956MOL0     C28929   2.041   7.926   6.505  0.5268 -0.4654 -0.8775
  956MOL0     C28930   2.090   8.053   6.474 -0.7590 -1.2642  0.3494
  956MOL0     C28931   2.202   8.105   6.532  0.1325 -0.0324  0.4099
  956MOL0     C28932   2.263   8.034   6.629 -1.5215  1.0316 -1.3428
  956MOL0     O28933   2.380   8.087   6.686  0.2049 -1.0417 -0.6629
  956MOL0     C28934   2.438   8.020   6.802 -0.4917  0.6634 -0.1679
  956MOL0     C28935   2.547   8.111   6.858 -0.1873 -0.0450  0.0905
  956MOL0     C28936   2.629   8.045   6.966  0.5300 -0.7093 -0.8161
  956MOL0     C28937   2.769   8.100   6.974  0.3900 -0.4198  0.9026
  956MOL0     C28938   2.837   8.073   7.110  0.5715 -0.1107  0.3679
  956MOL0     C28939   2.784   8.170   7.216 -0.8169  0.5201 -0.5339
  956MOL0     C28940   2.829   8.144   7.357 -0.8917  0.1178  1.0531
  956MOL0     C28941   2.861   8.000   7.396 -0.3473  0.2712  0.4937
  956MOL0     N28942   2.752   7.905   7.377 -0.0976  0.6258 -0.8235
  956MOL0     C28943   2.619   7.938   7.367  0.3343 -1.1995 -0.4441
  956MOL0     C28944   2.567   7.827   7.303 -0.1993 -0.2099  0.3819
  956MOL0     C28945   2.424   7.812   7.268  0.5261 -0.7105  0.0601
  956MOL0     C28946   2.402   7.721   7.149 -0.0622 -0.3723  0.6706
  956MOL0     C28947   2.251   7.690   7.138 -0.0655 -0.2031 -0.2491
  956MOL0     C28948   2.154   7.813   7.128  0.6980 -0.0633  0.0544
  956MOL0     O28949   2.012   7.794   7.129  0.1166 -0.9535 -0.0779
  956MOL0     C28950   1.934   7.736   7.028  0.0834  0.5683  0.4492
  956MOL0     C28951   1.988   7.688   6.911 -0.1691 -0.2499  0.2700
  956MOL0     C28952   1.902   7.627   6.823 -0.2005 -0.0227  0.1187
  956MOL0     C28953   1.771   7.614   6.853  0.6887  0.0280 -0.6149
  956MOL0     C28954   1.688   7.545   6.754 -0.3638  0.6924  0.0637
  956MOL0     O28955   1.551   7.521   6.783  0.8999  0.1067  0.7782
  956MOL0     C28956   1.478   7.407   6.733 -0.3569 -0.0715 -0.5707
  956MOL0     C28957   1.521   7.325   6.630  0.5126  0.5271 -0.8980
  956MOL0     C28958   1.435   7.228   6.595  0.1596 -1.7452  0.4969
  956MOL0     C28959   1.305   7.210   6.641  0.2140  0.0573  0.5967
  956MOL0     O28960   1.228   7.118   6.574  0.2438 -0.5903 -0.3469
  956MOL0     C28961   1.100   7.089   6.634  1.5847  0.8888 -0.5538
  956MOL0     C28962   1.024   7.002   6.536 -0.3953 -0.1664 -0.9304
  956MOL0     C28963   0.883   6.957   6.599  0.1437  0.1071  0.4478
  956MOL0     C28964   0.792   6.894   6.492 -0.0748  0.0574 -0.8696
  956MOL0     C28965   0.714   6.993   6.404  0.1611 -1.0667  0.6771
  956MOL0     C28966   0.625   6.932   6.291 -0.2526 -0.1804  0.3654
  956MOL0     C28967   0.567   7.040   6.194 -0.2020  0.3679  0.2367
  956MOL0     C28968   0.440   6.989   6.117 -1.4257  0.0620  0.4351
  956MOL0    Cl28969   0.325   6.945   6.234 -0.3393  0.1853 -0.4191
  956MOL0     C28970   1.265   7.289   6.746  0.6316 -0.5882 -1.0257
  956MOL0     C28971   1.342   7.392   6.789 -0.4318  0.5225 -0.0368
  956MOL0     O28972   1.746   7.516   6.652  0.0675  0.0409 -0.3478
  956MOL0     C28973   1.713   7.673   6.964 -0.5774 -0.2340 -0.0818
  956MOL0     C28974   1.799   7.737   7.056  0.2577  0.2128 -0.4969
  956MOL0     N28975   2.668   7.725   7.289  0.6528  0.2242  0.1442
  956MOL0     N28976   2.777   7.780   7.334  0.7743  0.6472  0.2466
  956MOL0     C28977   2.215   7.905   6.668  0.2220  0.0880 -0.7078
  956MOL0     C28978   2.102   7.855   6.607 -0.8814  0.4550 -0.1046
  956MOL0     C28979   1.734   7.826   6.324 -0.2669 -0.6040  0.0401
  956MOL0     C28980   1.715   7.696   6.384 -0.2605  0.2541 -0.3345
  956MOL0     C28981   1.598   7.623   6.348 -0.5013 -0.4347  0.2872
  956MOL0     C28982   1.528   7.647   6.231 -0.3487  0.2300 -0.6810
  956MOL0     O28983   1.428   7.575   6.184 -0.2789  0.6000  0.1724
  956MOL0     C28984   1.370   7.462   6.259  0.0137  0.4726  0.1644
  956MOL0     C28985   1.279   7.371   6.177 -1.0020 -0.0106 -0.5790
  956MOL0     C28986   1.232   7.257   6.264 -1.3119  0.0256  0.0209
  956MOL0     C28987   1.125   7.159   6.202 -0.5980 -0.5838 -0.1046
  956MOL0     C28988   1.005   7.232   6.152  0.0376  0.5293  0.1524
  956MOL0     C28989   0.910   7.293   6.095  0.2963  0.4760  0.6179
  956MOL0     C28990   1.557   7.766   6.163  0.2804  0.1554  0.1327
  956MOL0     C28991   1.654   7.858   6.208 -0.0520  0.0617 -0.3367
  956MOL0     C28992   1.688   7.987   6.125  0.8409  0.4069  1.4873
  956MOL0     H28993   2.049   8.118   6.397 -1.8170  0.0247  1.9455
  956MOL0     H28994   2.234   8.206   6.506 -0.1869 -0.6819 -2.9562
  956MOL0     H28995   2.364   7.981   6.873  0.6209 -2.7764 -0.6845
  956MOL0     H28996   2.485   7.927   6.766 -1.5246 -0.8871  2.1997
  956MOL0     H28997   2.504   8.201   6.902  1.2314  0.0008  1.5008
  956MOL0     H28998   2.613   8.146   6.777 -0.4888  1.3541  0.4344
  956MOL0     H28999   2.642   7.939   6.944 -2.6300 -1.4622  0.3795
  956MOL0     H29000   2.576   8.054   7.062 -0.1317 -2.1445 -1.0230
  956MOL0     H29001   2.828   8.052   6.895 -0.8680 -1.1778  0.4067
  956MOL0     H29002   2.765   8.207   6.949 -1.3125 -0.0605  2.5104
  956MOL0     H29003   2.816   7.968   7.130 -0.0689 -0.1804 -0.5998
  956MOL0     H29004   2.944   8.090   7.101  0.6290  0.5526  1.9213
  956MOL0     H29005   2.818   8.265   7.174  2.5207  0.2061  1.0917
  956MOL0     H29006   2.676   8.154   7.219 -0.5355 -3.1601 -3.0077
  956MOL0     H29007   2.755   8.182   7.429 -1.1418  1.9337 -0.0988
  956MOL0     H29008   2.924   8.196   7.371 -0.7869 -0.0966  1.1446
  956MOL0     H29009   2.946   7.972   7.333  2.3605  0.9869  3.5872
  956MOL0     H29010   2.904   7.991   7.496  3.2288  2.0935 -0.7319
  956MOL0     H29011   2.582   8.038   7.387  3.8669  0.1121  0.2740
  956MOL0     H29012   2.373   7.778   7.359 -2.0603 -3.1802 -2.1148
  956MOL0     H29013   2.390   7.912   7.242  0.6986 -0.9195 -1.0138
  956MOL0     H29014   2.443   7.774   7.062 -1.8377 -1.6451 -1.0187
  956MOL0     H29015   2.457   7.627   7.162 -0.8709 -1.5424 -3.1058
  956MOL0     H29016   2.223   7.633   7.228  1.8117  0.1133  0.6000
  956MOL0     H29017   2.239   7.639   7.042 -0.7229 -0.2060 -0.1674
  956MOL0     H29018   2.180   7.862   7.033  0.8266 -2.0379 -0.9907
  956MOL0     H29019   2.174   7.888   7.205 -1.5390  1.8680 -1.0837
  956MOL0     H29020   2.095   7.701   6.899 -0.3709  0.6633 -0.6712
  956MOL0     H29021   1.952   7.585   6.736  0.5850 -0.2164  0.6500
  956MOL0     H29022   1.619   7.333   6.586  0.8584  0.7817 -0.1010
  956MOL0     H29023   1.473   7.153   6.526  1.0810 -1.5785  0.8107
  956MOL0     H29024   1.112   7.044   6.734 -1.7203  2.2375  0.6058
  956MOL0     H29025   1.035   7.174   6.655  0.4135  0.3473 -1.8625
  956MOL0     H29026   0.995   7.058   6.447 -0.0801  0.4919 -0.6199
  956MOL0     H29027   1.091   6.922   6.502  2.1404  1.3544  0.2217
  956MOL0     H29028   0.912   6.890   6.680  6.4956  2.5921  0.7817
  956MOL0     H29029   0.829   7.049   6.626 -1.6088  0.1891 -2.8230
  956MOL0     H29030   0.721   6.829   6.544  0.0825  0.4316 -0.1737
  956MOL0     H29031   0.853   6.833   6.425 -0.4802 -2.5340  0.9393
  956MOL0     H29032   0.785   7.061   6.354 -1.6220 -1.1890 -2.2852
  956MOL0     H29033   0.652   7.057   6.467  0.4672  0.0817 -0.1550
  956MOL0     H29034   0.676   6.856   6.231  3.0987  0.4572  2.1829
  956MOL0     H29035   0.544   6.881   6.343  1.4697 -2.8761  0.5750
  956MOL0     H29036   0.649   7.071   6.128 -1.1699  0.4667 -0.9555
  956MOL0     H29037   0.541   7.132   6.247  0.3147  0.5246  0.2194
  956MOL0     H29038   0.407   7.060   6.040 -0.3618  0.0738 -0.0185
  956MOL0     H29039   0.462   6.894   6.067  3.5576  0.9168  0.5659
  956MOL0     H29040   1.173   7.279   6.803 -0.6104  2.8602 -2.1577
  956MOL0     H29041   1.325   7.452   6.877  1.3492 -0.2301  0.8815
  956MOL0     H29042   1.607   7.660   6.986 -0.3777  0.0845  1.1236
  956MOL0     H29043   1.748   7.788   7.137  0.4283 -0.0944 -0.1958
  956MOL0     H29044   2.269   7.848   6.743 -1.5096 -1.3623 -0.5014
  956MOL0     H29045   2.075   7.754   6.634  1.1135  0.0670  0.5343
  956MOL0     H29046   1.781   7.654   6.459 -1.6521 -0.4355  0.5343
  956MOL0     H29047   1.570   7.530   6.396 -1.6705 -0.4129 -0.3368
  956MOL0     H29048   1.322   7.510   6.345  0.5995  0.8390  0.2935
  956MOL0     H29049   1.444   7.390   6.294  1.2265  0.5365 -2.0720
  956MOL0     H29050   1.335   7.332   6.092 -0.8022 -0.9712 -0.0341
  956MOL0     H29051   1.195   7.433   6.144 -2.2132 -0.8265  0.8397
  956MOL0     H29052   1.190   7.300   6.356  0.4515  3.0052 -0.4218
  956MOL0     H29053   1.318   7.197   6.295  0.0516  2.4928  1.3246
  956MOL0     H29054   1.168   7.107   6.116 -0.5911 -2.5181  1.0093
  956MOL0     H29055   1.105   7.070   6.263  0.9540 -1.2823 -0.5766
  956MOL0     H29056   0.828   7.338   6.043 -0.4689  0.4585  1.7625
  956MOL0     H29057   1.504   7.773   6.069  1.2982 -0.0124 -0.4738
  956MOL0     H29058   1.619   8.071   6.139  2.7282  3.0736 -2.9821
  956MOL0     H29059   1.788   8.031   6.129  0.0160  2.7301 -0.7470
  956MOL0     H29060   1.669   7.951   6.023 -1.2215 -0.1970  2.0308
  957MOL0     O29061   6.163   1.514   6.444 -0.1931 -0.6626  0.5994
  957MOL0     C29062   6.077   1.508   6.365  0.8281 -0.1620 -0.1924
  957MOL0     O29063   6.081   1.557   6.237  0.4548  0.3862  0.9469
  957MOL0     C29064   6.184   1.637   6.189 -0.1618 -1.1302 -0.9213
  957MOL0     C29065   6.260   1.729   6.256  0.6786  0.3693 -0.7622
  957MOL0     C29066   6.358   1.811   6.190 -0.4118  0.9607 -0.3376
  957MOL0     C29067   6.382   1.794   6.052 -1.3053 -0.4361  0.7024
  957MOL0     O29068   6.481   1.865   5.980 -0.4400  0.2757  0.3229
  957MOL0     C29069   6.533   1.992   6.015 -0.1813  0.4136 -0.5790
  957MOL0     C29070   6.618   2.051   5.907 -0.3482  0.0380 -0.2798
  957MOL0     C29071   6.753   1.981   5.887 -0.4855  0.2660  0.5379
  957MOL0     C29072   6.813   2.011   5.748 -0.0709  0.5899  0.4703
  957MOL0     C29073   6.945   1.934   5.735 -0.2041  0.2413  0.1269
  957MOL0     C29074   7.035   2.001   5.622 -0.4968 -0.2382  0.4673
  957MOL0     C29075   7.146   1.905   5.587 -0.1897  0.4850 -0.0328
  957MOL0     C29076   7.086   1.787   5.519  0.6459  0.0608  0.4042
  957MOL0     N29077   7.186   1.716   5.435 -0.6318  0.5759  0.0631
  957MOL0     C29078   7.218   1.578   5.431  0.3055 -0.3365  0.1636
  957MOL0     C29079   7.310   1.568   5.326 -0.5884 -0.8374 -0.9826
  957MOL0     C29080   7.370   1.439   5.277 -0.4756  0.0321 -0.8703
  957MOL0     C29081   7.443   1.444   5.148 -0.7159  0.1708 -0.0793
  957MOL0     C29082   7.494   1.301   5.124 -0.5523 -0.8955 -0.1965
  957MOL0     C29083   7.585   1.313   4.996  0.6578  0.3442  1.0238
  957MOL0     O29084   7.710   1.379   5.011 -0.2432 -0.0632 -0.6099
  957MOL0     C29085   7.816   1.327   4.949 -1.1419  0.1473 -0.3353
  957MOL0     C29086   7.938   1.349   5.010  0.5556 -0.0416 -0.4080
  957MOL0     C29087   8.057   1.325   4.936  0.4129 -0.4520 -0.2731
  957MOL0     C29088   8.062   1.267   4.820  0.7201  0.1757  0.1986
  957MOL0     C29089   8.185   1.228   4.755 -0.9420 -0.0933 -0.4177
  957MOL0     O29090   8.181   1.207   4.624  0.2812 -0.0570 -0.3312
  957MOL0     C29091   8.302   1.199   4.558 -0.5630  0.0105 -0.4846
  957MOL0     C29092   8.359   1.082   4.511  0.3561 -0.2535 -0.0601
  957MOL0     C29093   8.482   1.080   4.439 -0.1256  0.6034 -0.1310
  957MOL0     C29094   8.546   1.201   4.418 -0.3442  0.3887 -0.6215
  957MOL0     O29095   8.654   1.216   4.343 -0.3803 -0.3009 -0.4374
  957MOL0     C29096   8.742   1.104   4.315  0.6299 -0.0610  0.7794
  957MOL0     C29097   8.873   1.162   4.269  0.1677 -0.5606 -0.3448
  957MOL0     C29098   8.974   1.055   4.232 -0.3599  0.7326  0.1284
  957MOL0     C29099   9.114   1.105   4.238  0.1490 -0.3457  0.4764
  957MOL0     C29100   9.216   0.997   4.204 -0.3960 -0.1312  0.7530
  957MOL0     C29101   9.351   1.052   4.249 -0.3862 -0.7372 -0.3363
  957MOL0     C29102   9.456   0.944   4.246 -0.1973  0.4844 -0.0280
  957MOL0     C29103   9.599   0.991   4.277  0.2724 -0.3694 -0.7922
  957MOL0    Cl29104   9.651   1.124   4.179  0.2715 -0.0339  0.3707
  957MOL0     C29105   8.482   1.315   4.450 -0.0636  0.2127  0.0111
  957MOL0     C29106   8.361   1.318   4.516 -0.3212  0.9546  0.2060
  957MOL0     O29107   8.287   1.224   4.827 -0.1602 -0.0231  0.1056
  957MOL0     C29108   7.939   1.238   4.757  0.9745  0.2441 -0.8654
  957MOL0     C29109   7.815   1.269   4.816 -0.8118  0.8117 -0.1948
  957MOL0     N29110   7.331   1.692   5.281 -0.4745 -0.2978  0.3294
  957MOL0     N29111   7.263   1.779   5.344 -0.1576  0.6170 -0.1996
  957MOL0     C29112   6.322   1.689   5.991  0.5477 -0.3966 -0.5503
  957MOL0     C29113   6.223   1.609   6.062 -0.0194  0.2332 -0.4302
  957MOL0     C29114   5.948   1.441   6.397 -1.6619  0.0144  0.4158
  957MOL0     C29115   5.871   1.414   6.283  0.7874 -0.1916 -0.1945
  957MOL0     C29116   5.747   1.340   6.295 -0.2309  0.1771 -0.6176
  957MOL0     C29117   5.698   1.304   6.420  0.6187 -0.4511  0.4252
  957MOL0     O29118   5.594   1.220   6.452  0.1226  0.5153  0.3163
  957MOL0     C29119   5.477   1.210   6.357  0.1903 -0.0319  0.0875
  957MOL0     C29120   5.385   1.330   6.362  0.2428  0.0725 -0.6709
  957MOL0     C29121   5.300   1.333   6.494 -0.3422  0.2886 -0.2579
  957MOL0     C29122   5.245   1.480   6.521  0.0672 -0.0130 -0.2271
  957MOL0     C29123   5.147   1.475   6.632 -1.3024  0.1876 -0.6798
  957MOL0     C29124   5.062   1.480   6.718  0.6890 -0.8893  0.6426
  957MOL0     C29125   5.775   1.335   6.530 -0.4292 -0.2386  1.0570
  957MOL0     C29126   5.900   1.405   6.525  0.3081 -0.2933 -0.2688
  957MOL0     C29127   5.969   1.449   6.656  0.5710  0.6761 -0.4130
  957MOL0     H29128   6.243   1.769   6.356  1.2161  3.5254 -1.8160
  957MOL0     H29129   6.414   1.880   6.253 -0.7681  1.6157 -0.7283
  957MOL0     H29130   6.448   2.054   6.042 -2.5837 -3.5367  2.0694
  957MOL0     H29131   6.596   1.984   6.104 -2.4478  3.0611  1.4155
  957MOL0     H29132   6.626   2.154   5.943 -0.4095 -0.2910  0.7093
  957MOL0     H29133   6.556   2.043   5.817  0.5744 -0.3018 -0.8950
  957MOL0     H29134   6.733   1.873   5.889  1.8011 -0.2075  0.7740
  957MOL0     H29135   6.827   2.010   5.962  0.6156 -1.1187  0.0162
  957MOL0     H29136   6.737   1.967   5.682 -1.6872  0.1009  2.5537
  957MOL0     H29137   6.826   2.118   5.733  1.2456  0.1968 -1.6469
  957MOL0     H29138   6.998   1.924   5.830 -0.5356 -0.8659  0.2038
  957MOL0     H29139   6.910   1.834   5.710 -0.6583 -0.2439  2.4653
  957MOL0     H29140   6.973   2.030   5.537 -0.9875 -1.1619  0.5006
  957MOL0     H29141   7.089   2.089   5.658 -1.8009  0.6706  0.2692
  957MOL0     H29142   7.185   1.872   5.683  0.4661 -1.1508 -0.8258
  957MOL0     H29143   7.223   1.954   5.526 -1.7293  2.1323 -0.7460
  957MOL0     H29144   7.042   1.714   5.586 -0.6626  1.2179  0.8566
  957MOL0     H29145   6.993   1.806   5.465 -1.0648 -4.2046  1.5116
  957MOL0     H29146   7.190   1.499   5.501 -0.5817 -1.1904 -1.1087
  957MOL0     H29147   7.440   1.399   5.351 -0.6701  1.3244  0.0566
  957MOL0     H29148   7.302   1.354   5.271  3.0029 -3.1710  0.7526
  957MOL0     H29149   7.378   1.484   5.070 -2.9243 -1.2384  0.9394
  957MOL0     H29150   7.529   1.511   5.160 -0.6190 -0.0856  0.7141
  957MOL0     H29151   7.408   1.235   5.107 -1.8167  0.4770  0.6100
  957MOL0     H29152   7.558   1.269   5.207 -0.0561  1.9495  0.6071
  957MOL0     H29153   7.533   1.338   4.903  0.0194 -0.0845  1.2606
  957MOL0     H29154   7.605   1.207   4.979  3.5874  1.1473 -1.5220
  957MOL0     H29155   7.938   1.406   5.102  2.0333  0.8708 -0.9364
  957MOL0     H29156   8.154   1.343   4.982  1.2287  0.4389 -2.2260
  957MOL0     H29157   8.308   0.989   4.534  1.7760 -1.0472 -0.0412
  957MOL0     H29158   8.529   0.986   4.412  0.2372  0.7394  0.0287
  957MOL0     H29159   8.752   1.040   4.403  3.7123 -0.5830  0.1421
  957MOL0     H29160   8.702   1.044   4.233  3.0656 -0.1188 -0.4453
  957MOL0     H29161   8.855   1.229   4.185 -3.0362 -1.2431 -0.3240
  957MOL0     H29162   8.911   1.216   4.356  0.4121 -0.3875 -0.5533
  957MOL0     H29163   8.975   0.977   4.308  1.6375  0.8457  0.2756
  957MOL0     H29164   8.963   1.012   4.132 -2.5547  1.2226  0.1067
  957MOL0     H29165   9.125   1.129   4.344  4.1405 -2.7362  0.8226
  957MOL0     H29166   9.131   1.187   4.167  2.9978 -1.6033 -0.4522
  957MOL0     H29167   9.222   0.974   4.097 -0.4499  2.1521  0.2232
  957MOL0     H29168   9.182   0.916   4.271 -2.0764  0.4537  0.6632
  957MOL0     H29169   9.384   1.142   4.198  1.5517  0.1420  2.2977
  957MOL0     H29170   9.338   1.099   4.347  0.5561  3.3854 -1.9954
  957MOL0     H29171   9.453   0.902   4.145  0.7858  1.2043 -0.3683
  957MOL0     H29172   9.430   0.865   4.318 -2.8994 -0.4796 -1.9317
  957MOL0     H29173   9.625   1.019   4.379  1.4828  0.4631 -1.2951
  957MOL0     H29174   9.664   0.908   4.247  1.4054  0.3958 -0.5170
  957MOL0     H29175   8.538   1.407   4.441 -1.0389  1.1496  2.5018
  957MOL0     H29176   8.301   1.407   4.529 -1.1366  0.4396  0.0613
  957MOL0     H29177   7.941   1.190   4.659 -2.0715  1.2142 -1.4972
  957MOL0     H29178   7.729   1.236   4.759 -1.5727 -0.2293  1.4843
  957MOL0     H29179   6.331   1.666   5.886  1.4964 -1.9107 -0.1777
  957MOL0     H29180   6.174   1.525   6.013  0.8876  0.4017 -1.6991
  957MOL0     H29181   5.886   1.439   6.178 -3.8048 -0.6447 -1.1539
  957MOL0     H29182   5.688   1.335   6.204 -1.0121 -0.0396 -0.1116
  957MOL0     H29183   5.425   1.117   6.384  1.0233 -0.8231 -0.9317
  957MOL0     H29184   5.509   1.182   6.256  3.3141 -0.4972  1.1158
  957MOL0     H29185   5.320   1.331   6.274 -1.7024 -0.5743  0.6918
  957MOL0     H29186   5.450   1.418   6.371  0.9620 -0.5248  0.2245
  957MOL0     H29187   5.370   1.299   6.571 -0.0713 -0.1869 -0.7097
  957MOL0     H29188   5.220   1.261   6.509 -0.5912  0.6602  0.2407
  957MOL0     H29189   5.330   1.546   6.545  2.2125 -2.7059  0.0755
  957MOL0     H29190   5.202   1.514   6.426  1.1456 -1.8269 -1.4394
  957MOL0     H29191   4.996   1.501   6.800  0.8961  3.5921 -0.0913
  957MOL0     H29192   5.745   1.298   6.628  0.8416 -3.8142  0.2257
  957MOL0     H29193   5.930   1.398   6.745  0.3129  1.1841 -0.2325
  957MOL0     H29194   6.076   1.426   6.668  0.1383 -1.9422 -1.0509
  957MOL0     H29195   5.959   1.558   6.660  2.8177  1.0013 -1.7236
  958MOL0     O29196   7.602   4.175   9.787 -0.2557  0.6193  0.0652
  958MOL0     C29197   7.547   4.146   9.677 -0.0311 -0.9668  0.8591
  958MOL0     O29198   7.612   4.131   9.559  0.0252 -0.1788  0.2779
  958MOL0     C29199   7.747   4.107   9.555 -0.4145  0.1256  0.7618
  958MOL0     C29200   7.811   3.982   9.525 -0.1405  0.8510  0.5431
  958MOL0     C29201   7.943   3.958   9.533 -0.0602 -0.5750 -0.9732
  958MOL0     C29202   8.027   4.068   9.550 -0.0438  0.0424 -0.0212
  958MOL0     O29203   8.165   4.042   9.560 -0.2481 -0.5737 -0.5097
  958MOL0     C29204   8.257   4.153   9.540  0.6377 -0.2845  0.5750
  958MOL0     C29205   8.409   4.111   9.552  0.6013  0.6337  1.0237
  958MOL0     C29206   8.433   4.002   9.450 -0.2762 -0.1040  0.3152
  958MOL0     C29207   8.578   3.965   9.449 -0.3134  0.0304  0.1353
  958MOL0     C29208   8.610   3.859   9.337 -0.0235 -0.1946 -0.0014
  958MOL0     C29209   8.595   3.896   9.191  0.2793  0.5164  0.3053
  958MOL0     C29210   8.699   3.990   9.137 -0.3968  0.7482 -0.9778
  958MOL0     C29211   8.715   3.976   8.993 -0.7766 -0.8335  0.4661
  958MOL0     N29212   8.596   4.024   8.929  0.0296 -0.1314 -0.1951
  958MOL0     C29213   8.562   4.159   8.908 -0.1224 -0.1171 -0.4911
  958MOL0     C29214   8.431   4.159   8.872 -1.1829 -0.8915 -0.7095
  958MOL0     C29215   8.362   4.279   8.831  0.7031 -0.0341  0.2786
  958MOL0     C29216   8.203   4.282   8.854 -0.7605  1.3173 -0.0587
  958MOL0     C29217   8.150   4.421   8.877 -0.2107 -0.0719  0.0362
  958MOL0     C29218   7.999   4.413   8.906  0.2800  1.2670  0.2254
  958MOL0     O29219   7.950   4.541   8.914 -0.3703  0.5749  0.6685
  958MOL0     C29220   7.816   4.561   8.937  0.2975  1.3238  0.5344
  958MOL0     C29221   7.779   4.692   8.974 -0.3019  0.6786 -0.2576
  958MOL0     C29222   7.645   4.722   8.986 -0.1246  0.4602 -0.6369
  958MOL0     C29223   7.543   4.627   8.979 -0.8255  0.0354 -0.7883
  958MOL0     C29224   7.408   4.668   9.022 -0.4183  0.8819 -0.2846
  958MOL0     O29225   7.396   4.779   9.103  0.1907 -0.5615 -0.4615
  958MOL0     C29226   7.270   4.834   9.126 -0.1215  0.8132 -0.6971
  958MOL0     C29227   7.255   4.964   9.082  0.1510 -0.4292  0.9061
  958MOL0     C29228   7.135   5.025   9.107 -0.1777 -0.6528  0.0421
  958MOL0     C29229   7.028   4.965   9.177  0.3459  0.0908 -0.1441
  958MOL0     O29230   6.918   5.042   9.212 -0.0762 -0.1418  0.1399
  958MOL0     C29231   6.838   4.991   9.323 -1.2902  0.2717  0.4448
  958MOL0     C29232   6.735   5.101   9.364  0.4842  0.1324  1.1017
  958MOL0     C29233   6.808   5.233   9.414 -0.1200  1.1954 -1.0873
  958MOL0     C29234   6.697   5.308   9.493 -1.2148 -0.2997 -0.2996
  958MOL0     C29235   6.743   5.431   9.561  0.1269  0.0222 -0.1825
  958MOL0     C29236   6.633   5.518   9.622  0.1503 -1.0887 -0.1321
  958MOL0     C29237   6.692   5.632   9.707 -0.1851 -0.2607 -0.0549
  958MOL0     C29238   6.769   5.726   9.629  0.5131 -0.8487  0.1325
  958MOL0    Cl29239   6.824   5.869   9.731  0.1475  0.2039  0.3366
  958MOL0     C29240   7.046   4.832   9.217  0.2988 -0.3967  0.8059
  958MOL0     C29241   7.160   4.764   9.184  0.0282  0.5391 -0.7123
  958MOL0     O29242   7.316   4.604   8.987  0.6462  0.0702 -0.4164
  958MOL0     C29243   7.585   4.492   8.949  0.7389 -0.0556 -0.5685
  958MOL0     C29244   7.717   4.468   8.921  0.2906  0.9580 -1.2622
  958MOL0     N29245   8.398   4.026   8.854  0.0539  0.5883 -1.3388
  958MOL0     N29246   8.488   3.944   8.896 -0.4945  0.7397 -0.2666
  958MOL0     C29247   7.969   4.199   9.580 -0.0130 -0.2358 -1.4375
  958MOL0     C29248   7.825   4.215   9.573  0.2682  0.3025 -0.0714
  958MOL0     C29249   7.395   4.146   9.676  0.7443  0.2467 -0.1086
  958MOL0     C29250   7.329   4.106   9.559 -0.2307  0.2170  1.5078
  958MOL0     C29251   7.190   4.097   9.552  0.3429 -0.3227 -0.0925
  958MOL0     C29252   7.111   4.138   9.668  0.8328  0.2148  0.9110
  958MOL0     O29253   6.973   4.134   9.657  0.3039  0.7547 -0.8246
  958MOL0     C29254   6.908   4.073   9.768  0.1098  0.5135 -0.2635
  958MOL0     C29255   6.759   4.075   9.746  0.1383 -0.1331  0.6341
  958MOL0     C29256   6.681   4.209   9.738 -0.0195 -0.5843 -0.8692
  958MOL0     C29257   6.648   4.256   9.882  1.0377 -0.3858  0.3837
  958MOL0     C29258   6.598   4.390   9.879  1.2965 -1.0370 -0.3010
  958MOL0     C29259   6.558   4.509   9.884  0.2314  0.1830 -0.0147
  958MOL0     C29260   7.172   4.187   9.774  0.0306  0.8033 -1.0617
  958MOL0     C29261   7.315   4.190   9.781 -0.4530 -0.7911 -0.7910
  958MOL0     C29262   7.366   4.236   9.918  0.5907  0.4769  0.1931
  958MOL0     H29263   7.742   3.898   9.512 -2.2435  2.5507  0.1687
  958MOL0     H29264   7.984   3.858   9.520  3.3450  0.6206 -0.4645
  958MOL0     H29265   8.251   4.211   9.447  1.9044  0.0067  0.6542
  958MOL0     H29266   8.242   4.222   9.623 -1.3835 -1.3049  1.1167
  958MOL0     H29267   8.425   4.069   9.652 -1.3870  1.4359  1.7316
  958MOL0     H29268   8.468   4.202   9.541  0.9542  0.5057  1.8144
  958MOL0     H29269   8.395   4.043   9.357  0.6256  0.1000  0.0298
  958MOL0     H29270   8.384   3.912   9.489  2.1859 -2.2063 -1.1150
  958MOL0     H29271   8.635   4.057   9.431 -0.0270 -0.1481  0.1123
  958MOL0     H29272   8.610   3.923   9.544  1.4462  0.2328 -0.3236
  958MOL0     H29273   8.708   3.815   9.357 -0.8108 -1.7404  0.6586
  958MOL0     H29274   8.534   3.780   9.342 -2.1914  1.8563  2.8255
  958MOL0     H29275   8.602   3.802   9.136 -1.0354  0.3096  0.4768
  958MOL0     H29276   8.492   3.930   9.176  0.0368 -0.3107  0.0451
  958MOL0     H29277   8.796   3.959   9.176 -0.0637  2.0680 -0.7100
  958MOL0     H29278   8.677   4.093   9.166  0.1239  0.1424  1.9684
  958MOL0     H29279   8.796   4.041   8.959 -2.7285  3.9106  3.7983
  958MOL0     H29280   8.734   3.871   8.967  1.4344 -0.5461  0.7795
  958MOL0     H29281   8.628   4.244   8.922  1.0254 -1.2066  1.1346
  958MOL0     H29282   8.399   4.357   8.897 -1.4732  1.4326 -0.1258
  958MOL0     H29283   8.399   4.298   8.730  1.3792 -0.9540  0.3457
  958MOL0     H29284   8.144   4.243   8.770  0.2203  0.5320 -0.3948
  958MOL0     H29285   8.181   4.222   8.942  0.5648 -1.4732 -1.4814
  958MOL0     H29286   8.177   4.487   8.793 -3.8163  1.2293 -0.2819
  958MOL0     H29287   8.197   4.466   8.965 -1.8446  1.9667 -0.0415
  958MOL0     H29288   7.976   4.347   8.990 -1.9796  3.7353  1.7288
  958MOL0     H29289   7.964   4.371   8.811 -2.0532 -1.7376  2.2083
  958MOL0     H29290   7.855   4.768   8.979  0.3621  0.0459 -0.6043
  958MOL0     H29291   7.607   4.822   9.005 -3.1012 -0.8933  1.3837
  958MOL0     H29292   7.348   5.013   9.055  2.5999 -4.9048  0.1482
  958MOL0     H29293   7.131   5.131   9.082  2.9912 -1.2310 -4.1288
  958MOL0     H29294   6.782   4.903   9.289  0.4885 -0.4936 -0.6560
  958MOL0     H29295   6.905   4.968   9.406  1.5623  1.2315 -1.4119
  958MOL0     H29296   6.666   5.137   9.287  0.1900 -1.2015  0.7291
  958MOL0     H29297   6.677   5.045   9.437 -0.1821  1.1991  1.4125
  958MOL0     H29298   6.899   5.213   9.472 -1.5797 -1.8859  0.3918
  958MOL0     H29299   6.835   5.299   9.332  0.7392  4.4413  1.5736
  958MOL0     H29300   6.651   5.243   9.567 -2.1327  0.0827 -0.5254
  958MOL0     H29301   6.622   5.345   9.422  0.0186 -0.9306 -2.0139
  958MOL0     H29302   6.796   5.492   9.487  2.0426 -2.7771 -1.3090
  958MOL0     H29303   6.812   5.399   9.641 -0.0438  1.9748  0.8075
  958MOL0     H29304   6.573   5.567   9.544  3.7502  2.1719 -1.1956
  958MOL0     H29305   6.580   5.456   9.695  1.2419 -0.3735  1.3132
  958MOL0     H29306   6.751   5.595   9.791  1.9484  1.6099 -0.6347
  958MOL0     H29307   6.609   5.687   9.752 -0.0189  1.6953 -1.9650
  958MOL0     H29308   6.849   5.673   9.577  0.3117  0.7883 -1.9846
  958MOL0     H29309   6.711   5.756   9.542  0.0697 -2.2907 -0.0966
  958MOL0     H29310   6.961   4.774   9.250  0.3013 -0.1066  1.3418
  958MOL0     H29311   7.170   4.659   9.209 -0.6594  0.3804 -1.0906
  958MOL0     H29312   7.517   4.407   8.945 -2.0015  2.0128 -2.9411
  958MOL0     H29313   7.752   4.369   8.893 -2.3073 -0.5006  0.2537
  958MOL0     H29314   8.030   4.289   9.588 -1.3055  0.5406  0.3335
  958MOL0     H29315   7.781   4.312   9.592  3.3127  1.7990  0.0551
  958MOL0     H29316   7.377   4.069   9.469  0.8778  1.0776  1.7193
  958MOL0     H29317   7.140   4.066   9.461 -0.0075  2.4184 -0.9282
  958MOL0     H29318   6.925   4.117   9.866  3.0321  2.0754 -1.3486
  958MOL0     H29319   6.929   3.966   9.765  0.1289  0.5317 -1.0377
  958MOL0     H29320   6.703   4.019   9.821 -2.0768  0.4811 -0.4950
  958MOL0     H29321   6.744   4.024   9.650 -1.0841  0.3531  0.5471
  958MOL0     H29322   6.590   4.199   9.678 -1.3899 -0.8934  1.1395
  958MOL0     H29323   6.744   4.286   9.695 -1.4554  0.9904 -0.2772
  958MOL0     H29324   6.576   4.183   9.921 -0.9147  0.6002 -1.2134
  958MOL0     H29325   6.736   4.254   9.947  0.9244  0.2318  0.5690
  958MOL0     H29326   6.524   4.610   9.886 -2.6904 -0.7111 -0.2219
  958MOL0     H29327   7.123   4.196   9.871  1.7042  1.0688 -0.2070
  958MOL0     H29328   7.277   4.249   9.981  0.0815  0.2095 -0.4543
  958MOL0     H29329   7.436   4.160   9.955 -0.9640 -1.3784 -0.4411
  958MOL0     H29330   7.415   4.333   9.921 -1.5319  1.6611 -1.0609
  959MOL0     O29331   6.983   0.692   3.207 -0.7683  0.3286 -0.1623
  959MOL0     C29332   6.905   0.724   3.293 -0.3067 -0.0592 -0.1937
  959MOL0     O29333   6.939   0.731   3.428 -0.6554  0.5656 -0.1328
  959MOL0     C29334   7.062   0.684   3.469  0.0853 -1.1479  0.2300
  959MOL0     C29335   7.067   0.563   3.535 -0.0459  0.5727  0.3166
  959MOL0     C29336   7.186   0.521   3.584  0.0017 -1.0136  0.4707
  959MOL0     C29337   7.308   0.588   3.559 -0.0880  0.2823  0.1701
  959MOL0     O29338   7.437   0.550   3.601  1.1999  0.6730  0.3082
  959MOL0     C29339   7.455   0.410   3.630 -0.3574 -0.7761 -0.1463
  959MOL0     C29340   7.598   0.389   3.657 -0.9650  1.1884  0.1468
  959MOL0     C29341   7.654   0.481   3.753 -0.2466 -1.0741 -0.0383
  959MOL0     C29342   7.800   0.442   3.774 -0.7203 -0.6605 -1.0569
  959MOL0     C29343   7.893   0.518   3.674 -0.2926 -0.1911  0.6017
  959MOL0     C29344   8.031   0.477   3.696 -0.2544 -0.1646 -0.0766
  959MOL0     C29345   8.131   0.560   3.620  0.2763 -0.7169  0.5154
  959MOL0     C29346   8.145   0.515   3.470 -0.1449  0.1791 -0.4863
  959MOL0     N29347   8.243   0.601   3.405  0.4526 -0.5176 -0.4429
  959MOL0     C29348   8.372   0.629   3.445  0.3475  0.4225  0.7055
  959MOL0     C29349   8.424   0.700   3.344 -0.6958 -0.2673  0.0196
  959MOL0     C29350   8.566   0.753   3.326 -0.1705  0.8933  0.2929
  959MOL0     C29351   8.652   0.639   3.290 -0.0416 -0.4685  0.4740
  959MOL0     C29352   8.805   0.653   3.317 -0.2177  0.0451 -0.0970
  959MOL0     C29353   8.884   0.737   3.221 -1.1943  0.2104  0.7040
  959MOL0     O29354   9.001   0.767   3.297  0.1919  0.2840  0.5408
  959MOL0     C29355   9.117   0.818   3.234 -0.2144 -1.7938  0.1518
  959MOL0     C29356   9.237   0.823   3.304  0.3645  0.1168  0.1038
  959MOL0     C29357   9.356   0.876   3.244  0.7809 -0.4701  0.4319
  959MOL0     C29358   9.359   0.926   3.110 -0.1140  0.3014 -0.4374
  959MOL0     C29359   9.482   0.972   3.044 -0.3817  0.3611 -0.3556
  959MOL0     O29360   9.483   0.947   2.913 -0.0783 -0.0082  0.3457
  959MOL0     C29361   9.597   0.947   2.847 -0.1540  0.6634  0.8669
  959MOL0     C29362   9.696   0.854   2.873 -0.0172  0.1182  0.0450
  959MOL0     C29363   9.804   0.847   2.788  0.6500 -0.2960 -0.2372
  959MOL0     C29364   9.838   0.948   2.692  0.8633  0.2037  0.0052
  959MOL0     O29365   9.951   0.938   2.616 -0.0182  1.2102 -0.2532
  959MOL0     C29366  10.057   0.975   2.695 -0.4407  0.3797  0.2941
  959MOL0     C29367  10.187   0.904   2.657 -0.6164  0.0892  0.0791
  959MOL0     C29368  10.187   0.761   2.696 -0.0961  0.4697 -0.6174
  959MOL0     C29369  10.234   0.739   2.839 -0.2700 -0.2270 -0.8060
  959MOL0     C29370  10.198   0.603   2.893 -0.4352 -0.0776 -0.2283
  959MOL0     C29371  10.261   0.575   3.038  0.5148  0.6077 -0.2949
  959MOL0     C29372  10.150   0.530   3.141 -0.5159  0.0623  0.5902
  959MOL0     C29373  10.217   0.506   3.278 -0.2853 -0.4607 -0.1587
  959MOL0    Cl29374  10.268   0.675   3.336 -0.0995  0.0226 -0.0624
  959MOL0     C29375   9.743   1.046   2.670  0.6617 -0.1785 -0.9509
  959MOL0     C29376   9.621   1.046   2.744 -0.1404  0.3894  0.0003
  959MOL0     O29377   9.566   1.022   3.120  0.4366  0.5229 -0.0220
  959MOL0     C29378   9.232   0.935   3.047  0.6784 -0.3609 -0.2898
  959MOL0     C29379   9.111   0.883   3.109 -1.1361 -0.7208  0.8473
  959MOL0     N29380   8.332   0.715   3.244  0.8923 -0.4003  0.4593
  959MOL0     N29381   8.227   0.657   3.279 -0.5404  0.3268 -0.0533
  959MOL0     C29382   7.300   0.706   3.489  0.2039 -0.0732  0.2390
  959MOL0     C29383   7.179   0.752   3.437 -0.3635 -0.0244 -0.4230
  959MOL0     C29384   6.763   0.744   3.263 -0.4859  0.5557  0.5514
  959MOL0     C29385   6.662   0.697   3.353  0.2576 -0.7313 -0.2732
  959MOL0     C29386   6.523   0.723   3.327  0.8080 -0.3659  0.4613
  959MOL0     C29387   6.480   0.802   3.213 -0.7591  0.6021 -1.2459
  959MOL0     O29388   6.348   0.836   3.203 -0.2455  0.4788 -0.7933
  959MOL0     C29389   6.291   0.870   3.074  0.2138  0.5585  0.2113
  959MOL0     C29390   6.140   0.833   3.062 -0.6681  0.1308  0.0162
  959MOL0     C29391   6.065   0.885   3.184  0.4398  0.2867 -0.1533
  959MOL0     C29392   5.972   1.006   3.159 -0.9409 -0.5208 -1.0181
  959MOL0     C29393   6.042   1.126   3.158  0.1470  0.0911  0.0003
  959MOL0     C29394   6.080   1.240   3.175  0.0918 -0.1572 -0.1876
  959MOL0     C29395   6.585   0.846   3.126 -0.3956  0.2881  0.0151
  959MOL0     C29396   6.723   0.809   3.148 -0.2400 -0.5720 -0.3038
  959MOL0     C29397   6.819   0.867   3.048 -0.3404 -0.2490 -0.6204
  959MOL0     H29398   6.980   0.500   3.549 -1.6949  1.8594 -3.0344
  959MOL0     H29399   7.187   0.434   3.649 -2.5483  0.3674  2.5467
  959MOL0     H29400   7.395   0.385   3.718 -1.1360  2.6257  0.4458
  959MOL0     H29401   7.405   0.354   3.550  0.3463 -1.1857 -0.3029
  959MOL0     H29402   7.654   0.396   3.564  2.8744  0.6390  2.2086
  959MOL0     H29403   7.612   0.289   3.698  2.0424  1.8255  0.9953
  959MOL0     H29404   7.597   0.465   3.846 -1.4836  0.5321 -0.4553
  959MOL0     H29405   7.628   0.585   3.730 -3.6702 -1.1560  2.5221
  959MOL0     H29406   7.827   0.482   3.872  0.1423  3.0014 -2.6341
  959MOL0     H29407   7.807   0.334   3.760 -1.2603 -1.1462  1.7719
  959MOL0     H29408   7.871   0.487   3.572  3.0837 -0.8823 -0.0300
  959MOL0     H29409   7.880   0.626   3.681  1.6598  0.1314 -0.1742
  959MOL0     H29410   8.049   0.483   3.804  0.9298  0.6424 -0.3001
  959MOL0     H29411   8.038   0.372   3.667  0.3487 -0.8145  2.2445
  959MOL0     H29412   8.228   0.570   3.669  0.6811 -1.0101 -0.2139
  959MOL0     H29413   8.092   0.662   3.612 -1.0909 -1.2383  0.2762
  959MOL0     H29414   8.179   0.411   3.461 -1.5433 -0.2933 -0.6596
  959MOL0     H29415   8.048   0.520   3.418 -1.0510  0.3093  1.1593
  959MOL0     H29416   8.425   0.607   3.538  0.4654  2.6445  1.2079
  959MOL0     H29417   8.563   0.838   3.257 -2.4266  3.7196  3.5560
  959MOL0     H29418   8.600   0.803   3.417 -3.3993  1.8153  1.1245
  959MOL0     H29419   8.611   0.554   3.344 -3.8219 -0.7874 -2.4510
  959MOL0     H29420   8.641   0.595   3.190  1.8749 -0.9708  0.4410
  959MOL0     H29421   8.835   0.548   3.315 -1.1452 -0.2415 -2.6280
  959MOL0     H29422   8.812   0.680   3.422 -1.5400 -0.7817  0.2274
  959MOL0     H29423   8.830   0.830   3.201 -2.6849 -0.0881  3.0087
  959MOL0     H29424   8.903   0.672   3.135 -0.2473 -0.4916  1.4280
  959MOL0     H29425   9.247   0.787   3.406 -0.1245 -0.4356 -0.0364
  959MOL0     H29426   9.448   0.866   3.300  0.7955  5.2628  2.1042
  959MOL0     H29427   9.673   0.781   2.950  0.0725  0.6995  0.6367
  959MOL0     H29428   9.861   0.756   2.805 -1.7134 -1.3910  2.6407
  959MOL0     H29429  10.066   1.084   2.698 -0.6565  0.4624 -1.2089
  959MOL0     H29430  10.037   0.943   2.798  0.4075 -2.9249 -0.4277
  959MOL0     H29431  10.196   0.913   2.548  0.0795  0.4426  0.1616
  959MOL0     H29432  10.274   0.958   2.696 -1.8462  2.5186 -0.3714
  959MOL0     H29433  10.093   0.708   2.679 -0.9206  0.6027  2.7783
  959MOL0     H29434  10.250   0.719   2.617 -1.0141 -1.0289 -0.5913
  959MOL0     H29435  10.190   0.810   2.909  3.4235  0.1124  1.4287
  959MOL0     H29436  10.342   0.755   2.844  0.3136 -3.6645  0.3512
  959MOL0     H29437  10.256   0.534   2.830 -0.9457 -0.1135 -0.6647
  959MOL0     H29438  10.094   0.572   2.903 -0.1994 -0.0733  3.3514
  959MOL0     H29439  10.335   0.494   3.033  1.7452  1.7105 -0.2848
  959MOL0     H29440  10.310   0.668   3.069  0.5751  0.2730  0.6449
  959MOL0     H29441  10.097   0.438   3.113 -2.2213  1.1064  0.2491
  959MOL0     H29442  10.074   0.608   3.154  0.9453  1.6258  0.0845
  959MOL0     H29443  10.155   0.466   3.359  1.3769  1.0494  1.9875
  959MOL0     H29444  10.312   0.452   3.274 -1.0058 -1.8776  0.9718
  959MOL0     H29445   9.755   1.114   2.586 -2.3957  0.2881 -1.1466
  959MOL0     H29446   9.538   1.113   2.724  0.3841  0.8796 -0.5740
  959MOL0     H29447   9.233   0.997   2.958  0.2967 -1.2628 -0.9429
  959MOL0     H29448   9.017   0.880   3.056 -0.6603  0.9090 -0.1780
  959MOL0     H29449   7.388   0.762   3.462  0.8754 -1.4686 -0.6308
  959MOL0     H29450   7.185   0.839   3.373  4.8466 -0.2638 -0.7481
  959MOL0     H29451   6.695   0.648   3.444  2.2007 -0.0036 -0.5499
  959MOL0     H29452   6.438   0.703   3.392 -0.3155 -1.2020 -1.1794
  959MOL0     H29453   6.346   0.821   2.994 -1.8115 -1.2375 -0.1543
  959MOL0     H29454   6.304   0.976   3.050 -0.6921  0.2756 -1.6547
  959MOL0     H29455   6.126   0.726   3.074  0.0987  0.0994  0.7772
  959MOL0     H29456   6.101   0.869   2.967 -2.7385 -2.1302 -0.0784
  959MOL0     H29457   6.124   0.908   3.273 -1.3181  0.5396  0.9985
  959MOL0     H29458   5.989   0.814   3.218 -2.0137  2.8764  0.1109
  959MOL0     H29459   5.918   0.978   3.068  1.4943 -1.6940 -2.2113
  959MOL0     H29460   5.904   1.005   3.244 -1.3924 -1.7608 -1.3602
  959MOL0     H29461   6.092   1.346   3.185  0.5519 -0.1040 -1.1924
  959MOL0     H29462   6.553   0.893   3.034  3.5785  1.0432 -1.1864
  959MOL0     H29463   6.769   0.942   2.988 -0.7734 -0.4970 -0.5691
  959MOL0     H29464   6.902   0.914   3.102  0.0429 -0.7744 -0.7332
  959MOL0     H29465   6.859   0.785   2.987  3.1609  1.3195 -0.6772
  960MOL0     O29466   8.840   5.832   5.373  0.0423  0.4770 -0.5913
  960MOL0     C29467   8.717   5.819   5.378 -0.3726 -1.2331  0.5109
  960MOL0     O29468   8.652   5.703   5.413 -0.4315 -0.4801  0.9890
  960MOL0     C29469   8.728   5.596   5.438 -0.5305  0.1747  0.5331
  960MOL0     C29470   8.766   5.568   5.573  0.0347  0.1194  0.6705
  960MOL0     C29471   8.859   5.475   5.602 -0.2910  0.3070 -0.5928
  960MOL0     C29472   8.925   5.407   5.500  0.5996 -1.3921  0.1408
  960MOL0     O29473   9.038   5.330   5.534 -0.0988  0.1258 -0.5584
  960MOL0     C29474   9.081   5.229   5.449  0.7928 -0.0228 -0.4469
  960MOL0     C29475   9.189   5.140   5.513 -0.5569  0.2560 -0.2953
  960MOL0     C29476   9.335   5.186   5.485  0.8179  0.2588  0.1380
  960MOL0     C29477   9.428   5.105   5.566 -0.0831 -0.1559  0.7426
  960MOL0     C29478   9.573   5.098   5.498 -0.0069 -0.2508  0.1497
  960MOL0     C29479   9.672   5.029   5.593  0.9851 -0.2486 -0.3780
  960MOL0     C29480   9.820   5.019   5.533  0.1716 -0.4501 -0.9965
  960MOL0     C29481   9.874   4.881   5.543 -0.2733  0.5628 -0.3740
  960MOL0     N29482  10.018   4.870   5.509 -0.7484  0.2944  0.3404
  960MOL0     C29483  10.119   4.866   5.603  0.8585 -0.4000 -0.2216
  960MOL0     C29484  10.234   4.847   5.534  0.7117 -0.4241 -0.5844
  960MOL0     C29485  10.366   4.851   5.610  0.4081  1.1735  0.0677
  960MOL0     C29486  10.410   4.985   5.632  0.1112 -0.3380  0.7857
  960MOL0     C29487  10.494   5.035   5.509 -0.1226 -0.6661  0.9210
  960MOL0     C29488  10.521   5.183   5.515  0.6251 -0.5076 -0.5905
  960MOL0     O29489  10.635   5.188   5.600 -0.2981 -0.0669  0.2614
  960MOL0     C29490  10.758   5.199   5.543  0.5480 -0.2487  0.5329
  960MOL0     C29491  10.845   5.293   5.612  0.6269  0.3408  0.0124
  960MOL0     C29492  10.971   5.299   5.570 -0.1905  0.6844 -0.0470
  960MOL0     C29493  11.018   5.214   5.469 -0.7922 -0.5287  0.4596
  960MOL0     C29494  11.161   5.216   5.426  1.0690 -0.6791 -0.8548
  960MOL0     O29495  11.237   5.314   5.486 -0.0542  0.9786 -0.1936
  960MOL0     C29496  11.350   5.262   5.541  0.5222  0.2210 -0.1247
  960MOL0     C29497  11.460   5.329   5.502 -0.4178  0.0376 -0.1473
  960MOL0     C29498  11.585   5.289   5.553 -0.1011  0.0467 -0.8009
  960MOL0     C29499  11.599   5.188   5.656  0.0028  0.0660  1.0416
  960MOL0     O29500  11.712   5.169   5.728 -0.2705  0.3771 -0.6281
  960MOL0     C29501  11.847   5.196   5.678  1.0390 -0.5748 -0.1078
  960MOL0     C29502  11.938   5.073   5.706  0.4645  0.0083  1.0173
  960MOL0     C29503  12.084   5.109   5.688  0.0031 -0.3880 -0.2826
  960MOL0     C29504  12.161   4.980   5.712 -0.3244 -1.1334 -0.6870
  960MOL0     C29505  12.318   5.013   5.723 -0.0281 -0.3575 -0.1120
  960MOL0     C29506  12.359   5.126   5.818  0.2646  0.0892 -0.6266
  960MOL0     C29507  12.514   5.117   5.820  0.0537 -0.5857  0.0322
  960MOL0     C29508  12.561   5.237   5.898 -0.9598  0.1490  0.3507
  960MOL0    Cl29509  12.730   5.205   5.945 -0.1799 -0.0961 -0.0369
  960MOL0     C29510  11.484   5.118   5.694  0.4141 -0.8539  0.3018
  960MOL0     C29511  11.361   5.150   5.637 -0.1347 -0.8335 -0.1075
  960MOL0     O29512  11.201   5.113   5.374 -1.3013 -0.1738  0.2125
  960MOL0     C29513  10.930   5.149   5.396 -0.3372 -1.0206  0.7867
  960MOL0     C29514  10.802   5.138   5.436  0.8408 -0.4503  0.4441
  960MOL0     N29515  10.203   4.842   5.400  0.4502  0.7852  0.7142
  960MOL0     N29516  10.072   4.845   5.385  0.5672  0.0319 -0.4212
  960MOL0     C29517   8.893   5.443   5.367 -0.4098  1.1017 -0.2335
  960MOL0     C29518   8.788   5.532   5.333  0.1893  0.5756 -0.0525
  960MOL0     C29519   8.641   5.941   5.344 -0.2911 -0.1549  0.3556
  960MOL0     C29520   8.509   5.921   5.294 -0.8679 -0.0708  0.9252
  960MOL0     C29521   8.424   6.024   5.257  0.5957 -0.4309 -0.0349
  960MOL0     C29522   8.470   6.157   5.272  0.0007 -0.2428  0.6128
  960MOL0     O29523   8.402   6.265   5.215 -0.4044 -0.0876  0.3874
  960MOL0     C29524   8.472   6.389   5.185 -0.1570  0.0252 -0.4254
  960MOL0     C29525   8.571   6.362   5.081  0.5982  0.9362  0.7599
  960MOL0     C29526   8.507   6.295   4.958  0.8875 -0.1741 -0.9650
  960MOL0     C29527   8.574   6.169   4.911  0.0385 -0.7623  0.1664
  960MOL0     C29528   8.516   6.135   4.782 -0.6276 -0.2420  0.9512
  960MOL0     C29529   8.480   6.068   4.683 -0.5797 -0.4317 -0.2869
  960MOL0     C29530   8.592   6.179   5.337 -0.0871 -0.0147 -0.3039
  960MOL0     C29531   8.681   6.075   5.372  0.1451  0.2601  0.2989
  960MOL0     C29532   8.814   6.109   5.431  0.2830  0.4869  0.0048
  960MOL0     H29533   8.710   5.619   5.650 -3.2071 -0.4596 -1.0949
  960MOL0     H29534   8.903   5.474   5.702  0.2633  1.2374 -0.8177
  960MOL0     H29535   8.993   5.169   5.423  0.0123  1.2863 -0.9329
  960MOL0     H29536   9.134   5.261   5.360  1.8019 -2.5269 -0.8335
  960MOL0     H29537   9.173   5.040   5.471  2.4981  0.2896 -1.7884
  960MOL0     H29538   9.178   5.135   5.622 -0.4886  0.5866 -0.2710
  960MOL0     H29539   9.342   5.290   5.517  0.1451 -0.0968  1.5632
  960MOL0     H29540   9.365   5.187   5.380  0.2458  0.1655 -0.0311
  960MOL0     H29541   9.442   5.147   5.666  0.3495  0.4125  0.4520
  960MOL0     H29542   9.393   5.001   5.568 -1.8445  0.2298 -2.9290
  960MOL0     H29543   9.568   5.039   5.405  2.4761  0.0405 -0.2407
  960MOL0     H29544   9.596   5.200   5.468  2.7821 -1.0118 -0.6305
  960MOL0     H29545   9.661   5.079   5.689 -0.1841 -2.1159  0.5212
  960MOL0     H29546   9.624   4.931   5.599 -1.7711  1.0638  0.7706
  960MOL0     H29547   9.885   5.083   5.593 -1.3336 -0.4203  0.6943
  960MOL0     H29548   9.817   5.060   5.432  3.3468  0.6615 -0.7507
  960MOL0     H29549   9.859   4.848   5.646  2.1455  2.5624  0.7576
  960MOL0     H29550   9.818   4.815   5.477 -2.4841  0.8637  1.1074
  960MOL0     H29551  10.116   4.891   5.708 -3.0124 -2.9044  0.4343
  960MOL0     H29552  10.354   4.794   5.703 -1.2725  0.9858 -0.2176
  960MOL0     H29553  10.446   4.801   5.555  1.3493  1.7159  0.9237
  960MOL0     H29554  10.323   5.051   5.634 -0.0952 -0.4155 -1.8296
  960MOL0     H29555  10.466   4.996   5.725 -1.5922  3.1212  1.5433
  960MOL0     H29556  10.437   5.011   5.419  0.8331 -1.2835  0.4596
  960MOL0     H29557  10.590   4.982   5.502  0.0600 -0.2955  0.5419
  960MOL0     H29558  10.436   5.245   5.546  0.9118  0.3199 -1.4022
  960MOL0     H29559  10.544   5.213   5.412 -1.3857 -0.8902 -1.2019
  960MOL0     H29560  10.818   5.330   5.710  2.7722 -0.4065  0.9669
  960MOL0     H29561  11.048   5.356   5.619 -0.5222 -0.4896  1.9744
  960MOL0     H29562  11.448   5.423   5.450 -0.0804 -0.0943 -0.4628
  960MOL0     H29563  11.670   5.348   5.521 -3.0531  4.9649 -0.5476
  960MOL0     H29564  11.851   5.227   5.573  1.8704  2.1302  0.6215
  960MOL0     H29565  11.886   5.275   5.743 -1.7367  0.5947  0.2592
  960MOL0     H29566  11.919   5.029   5.804 -1.6357 -2.8899 -0.5459
  960MOL0     H29567  11.914   4.991   5.638 -0.0994 -2.1522  3.6506
  960MOL0     H29568  12.095   5.148   5.587  1.9022  0.7782  0.3160
  960MOL0     H29569  12.097   5.184   5.766 -2.3870  1.3384 -1.4351
  960MOL0     H29570  12.146   4.919   5.623  0.2899 -2.5751  0.1488
  960MOL0     H29571  12.121   4.920   5.795 -1.1066 -0.9013 -0.8925
  960MOL0     H29572  12.349   5.055   5.627 -1.5116 -0.2701 -0.5896
  960MOL0     H29573  12.369   4.917   5.740 -1.9671 -1.6657 -1.1871
  960MOL0     H29574  12.324   5.225   5.785 -0.1193 -0.8212 -3.1078
  960MOL0     H29575  12.325   5.110   5.921  1.6713  3.6732  0.5830
  960MOL0     H29576  12.550   5.114   5.716 -4.1825 -1.7889 -1.6281
  960MOL0     H29577  12.548   5.028   5.874  3.3016  0.3551 -0.2484
  960MOL0     H29578  12.554   5.327   5.835 -2.3086  0.0219  0.2976
  960MOL0     H29579  12.502   5.251   5.989 -0.3025  1.4812  0.5947
  960MOL0     H29580  11.499   5.048   5.775  3.4637 -1.3351 -0.5520
  960MOL0     H29581  11.273   5.100   5.674  0.1270 -0.6117  0.8320
  960MOL0     H29582  10.965   5.108   5.301 -0.7904  1.9431 -0.7877
  960MOL0     H29583  10.737   5.072   5.379  0.1920 -0.4376  1.1447
  960MOL0     H29584   8.938   5.400   5.279 -2.3520 -1.7271  0.0006
  960MOL0     H29585   8.772   5.558   5.228  0.6228  1.4259  0.0816
  960MOL0     H29586   8.479   5.819   5.274 -1.3229  0.2683 -0.2340
  960MOL0     H29587   8.335   6.018   5.197  0.0815  0.1836  0.6508
  960MOL0     H29588   8.521   6.424   5.276 -1.5650 -1.0668  0.8045
  960MOL0     H29589   8.401   6.464   5.150 -1.8299 -1.2085  0.1717
  960MOL0     H29590   8.656   6.305   5.118  0.1494 -0.0343  0.3337
  960MOL0     H29591   8.604   6.463   5.054  0.4652  0.7777 -0.0424
  960MOL0     H29592   8.509   6.371   4.879 -0.8287  2.0901  1.0004
  960MOL0     H29593   8.401   6.274   4.977  0.3871  2.1883 -0.7679
  960MOL0     H29594   8.681   6.189   4.911 -0.4773  2.5543 -0.4178
  960MOL0     H29595   8.547   6.082   4.972 -4.5634 -0.0946 -0.5526
  960MOL0     H29596   8.468   6.008   4.595  0.6150  0.5061 -1.1242
  960MOL0     H29597   8.625   6.274   5.376  0.2556 -0.1376 -0.2968
  960MOL0     H29598   8.870   6.147   5.344 -2.1039  2.3594 -0.8397
  960MOL0     H29599   8.798   6.193   5.499 -0.4894 -1.7671  2.7624
  960MOL0     H29600   8.859   6.029   5.489 -0.2210 -0.0473 -0.3295
  961MOL0     O29601   1.713   8.926   2.477  0.1678  0.2431  0.1448
  961MOL0     C29602   1.816   8.897   2.410  0.1442 -0.1504 -0.9170
  961MOL0     O29603   1.808   8.835   2.290  0.6361 -0.0217 -0.1159
  961MOL0     C29604   1.680   8.802   2.245 -0.0856  0.2742 -0.8090
  961MOL0     C29605   1.627   8.853   2.129  0.1211  0.3112  0.0384
  961MOL0     C29606   1.501   8.815   2.087 -0.1317  0.7001  0.5588
  961MOL0     C29607   1.414   8.753   2.171  0.0136  0.7995  0.0484
  961MOL0     O29608   1.284   8.754   2.130  0.1687  0.5336  0.0191
  961MOL0     C29609   1.176   8.753   2.231  0.1008  0.0312 -0.5525
  961MOL0     C29610   1.040   8.741   2.154 -0.9190  0.8402 -1.4368
  961MOL0     C29611   0.921   8.759   2.254  0.0586 -0.3151  0.5203
  961MOL0     C29612   0.901   8.641   2.345 -0.3183  0.3194 -0.3519
  961MOL0     C29613   0.816   8.665   2.468 -0.3269 -0.5214 -0.0137
  961MOL0     C29614   0.669   8.665   2.447  0.2318  1.0088  0.6699
  961MOL0     C29615   0.602   8.679   2.587  0.2650  0.3630  0.2540
  961MOL0     C29616   0.564   8.545   2.662 -0.9522  0.9427 -0.4780
  961MOL0     N29617   0.437   8.563   2.734 -0.1911  0.3171 -0.1530
  961MOL0     C29618   0.322   8.601   2.659  0.0642  0.4451 -0.6089
  961MOL0     C29619   0.226   8.626   2.744 -0.0095 -0.1675  0.0068
  961MOL0     C29620   0.092   8.682   2.715  0.2698  0.3854  0.6067
  961MOL0     C29621  -0.006   8.633   2.836  0.6958 -0.3806  0.7994
  961MOL0     C29622  -0.028   8.741   2.944  0.1362  0.9317  0.4748
  961MOL0     C29623  -0.100   8.866   2.881 -0.0802 -1.0727  0.7777
  961MOL0     O29624  -0.231   8.848   2.821  0.8960  0.2278 -0.1856
  961MOL0     C29625  -0.301   8.946   2.766 -0.7469 -0.1121  1.1508
  961MOL0     C29626  -0.437   8.942   2.777 -0.3958  0.3152 -0.6010
  961MOL0     C29627  -0.517   9.025   2.695 -0.0929 -0.0106 -0.1879
  961MOL0     C29628  -0.453   9.116   2.609 -0.4053 -0.0177 -0.8081
  961MOL0     C29629  -0.540   9.198   2.513 -0.4079  0.3972 -0.6420
  961MOL0     O29630  -0.675   9.184   2.534  0.4788 -0.0879  0.2266
  961MOL0     C29631  -0.765   9.258   2.456  0.7474  0.1392 -0.1104
  961MOL0     C29632  -0.895   9.230   2.480 -0.6933  1.0736  0.1142
  961MOL0     C29633  -0.996   9.291   2.407 -0.4115 -0.1784 -0.0448
  961MOL0     C29634  -0.970   9.398   2.317  0.4623  0.9020  0.4109
  961MOL0     O29635  -1.079   9.430   2.243  0.1690 -0.3675  0.7476
  961MOL0     C29636  -1.054   9.473   2.108 -0.3387  0.7558 -1.0252
  961MOL0     C29637  -1.181   9.455   2.029  0.5763  0.2409  0.0788
  961MOL0     C29638  -1.233   9.305   2.020  0.2945 -0.6150 -0.4291
  961MOL0     C29639  -1.344   9.277   1.920 -0.1550 -0.5415 -0.0884
  961MOL0     C29640  -1.315   9.133   1.871  0.9217  0.7768  0.0154
  961MOL0     C29641  -1.446   9.068   1.812 -0.3155  0.8348  0.3799
  961MOL0     C29642  -1.457   9.101   1.662  0.2626  1.0383  0.8756
  961MOL0     C29643  -1.538   9.009   1.565 -1.0698 -0.2757 -0.6142
  961MOL0    Cl29644  -1.497   8.837   1.595  0.4029 -0.1281 -0.1562
  961MOL0     C29645  -0.838   9.436   2.298  0.3861  0.1574 -0.2858
  961MOL0     C29646  -0.739   9.372   2.372 -0.1323  0.3981  0.2546
  961MOL0     O29647  -0.478   9.262   2.432  0.6697  0.0486 -0.4536
  961MOL0     C29648  -0.317   9.125   2.607 -0.7162 -1.0498  0.2472
  961MOL0     C29649  -0.236   9.048   2.688  0.7299 -0.5619  0.6298
  961MOL0     N29650   0.281   8.613   2.866  0.1260 -0.3147  0.0981
  961MOL0     N29651   0.401   8.572   2.861  0.4166  0.3024  0.3829
  961MOL0     C29652   1.463   8.691   2.284  0.5207 -0.8494  0.4831
  961MOL0     C29653   1.601   8.716   2.317  0.3237 -0.2629 -0.2883
  961MOL0     C29654   1.957   8.932   2.461 -0.1772  0.8908 -0.2566
  961MOL0     C29655   2.018   8.861   2.572 -0.3925  0.7369  0.1841
  961MOL0     C29656   2.129   8.907   2.640 -0.2928 -0.3195  0.3117
  961MOL0     C29657   2.185   9.026   2.591  1.1311  0.5263 -0.4081
  961MOL0     O29658   2.306   9.055   2.651  0.6632  0.8533  0.5461
  961MOL0     C29659   2.355   9.194   2.630  0.6695 -0.3224  0.4167
  961MOL0     C29660   2.464   9.220   2.732 -0.6058 -0.0527 -0.6119
  961MOL0     C29661   2.577   9.123   2.700 -0.7767  0.2939 -0.0947
  961MOL0     C29662   2.700   9.131   2.796  0.0268  0.7405 -0.6557
  961MOL0     C29663   2.758   9.259   2.812  0.2549 -0.4061 -0.0133
  961MOL0     C29664   2.820   9.359   2.834 -0.2468 -1.4201 -0.2268
  961MOL0     C29665   2.137   9.098   2.477 -0.1614 -0.2209 -0.1065
  961MOL0     C29666   2.020   9.052   2.420  0.0510 -0.7097 -0.0286
  961MOL0     C29667   1.957   9.147   2.316  0.4214  0.2901  0.6262
  961MOL0     H29668   1.680   8.919   2.061  1.1280  1.8010  2.1931
  961MOL0     H29669   1.451   8.860   2.002 -1.4016 -2.2425 -0.3422
  961MOL0     H29670   1.194   8.673   2.304 -1.5928  0.9050  0.9097
  961MOL0     H29671   1.193   8.846   2.287  0.6498 -0.4849  0.1461
  961MOL0     H29672   1.033   8.638   2.117 -5.3137 -0.1298  1.3041
  961MOL0     H29673   1.040   8.812   2.071 -2.2991  2.1198 -0.3839
  961MOL0     H29674   0.830   8.784   2.198  2.6219  1.1916 -3.3731
  961MOL0     H29675   0.952   8.845   2.315 -0.5623  0.6152 -0.4536
  961MOL0     H29676   0.875   8.548   2.293 -0.7218  1.5193 -2.3864
  961MOL0     H29677   0.999   8.622   2.390 -1.3878 -2.8920  0.9557
  961MOL0     H29678   0.850   8.584   2.533 -0.2424 -1.5482 -1.3078
  961MOL0     H29679   0.854   8.760   2.509 -3.1714  0.7994 -0.2381
  961MOL0     H29680   0.645   8.741   2.371 -2.2227 -1.9755 -1.8439
  961MOL0     H29681   0.637   8.570   2.404 -0.6781 -0.0765  3.5224
  961MOL0     H29682   0.517   8.744   2.567  0.9314  1.6766  1.4111
  961MOL0     H29683   0.664   8.732   2.661 -0.3629 -1.6383  2.3341
  961MOL0     H29684   0.544   8.471   2.585 -1.1429 -2.8874  2.9473
  961MOL0     H29685   0.642   8.508   2.728 -1.1795 -0.2919 -0.8880
  961MOL0     H29686   0.307   8.602   2.551 -1.9869 -2.5300 -0.4759
  961MOL0     H29687   0.102   8.789   2.693 -1.3401 -0.0323 -2.8230
  961MOL0     H29688   0.065   8.627   2.624  1.5108  1.3827 -0.4123
  961MOL0     H29689  -0.103   8.614   2.789  1.8217 -2.3735 -0.8598
  961MOL0     H29690   0.032   8.545   2.890  0.9441 -0.5597  0.3379
  961MOL0     H29691   0.067   8.770   2.989  0.9662 -0.0217 -0.5987
  961MOL0     H29692  -0.098   8.707   3.021 -0.6902  2.4483  0.4363
  961MOL0     H29693  -0.026   8.915   2.816  2.4274 -0.3071  3.9183
  961MOL0     H29694  -0.118   8.934   2.965 -0.3203 -1.1558  0.7934
  961MOL0     H29695  -0.486   8.862   2.832  0.0241  0.5893  0.1691
  961MOL0     H29696  -0.623   9.031   2.716  0.3296  1.0182  1.9051
  961MOL0     H29697  -0.923   9.161   2.559 -2.2632 -0.8779 -2.0456
  961MOL0     H29698  -1.098   9.264   2.432 -0.1355 -2.0581 -0.8053
  961MOL0     H29699  -1.021   9.575   2.088  0.4363  0.4872 -1.1378
  961MOL0     H29700  -0.977   9.410   2.063 -1.1854 -2.1464  1.2605
  961MOL0     H29701  -1.254   9.520   2.078  2.1953  1.5885  0.8314
  961MOL0     H29702  -1.165   9.492   1.927 -1.5118 -0.9785 -0.7431
  961MOL0     H29703  -1.150   9.235   2.003  0.3139 -0.4653 -0.9494
  961MOL0     H29704  -1.269   9.285   2.122  1.0941 -3.6037 -0.6387
  961MOL0     H29705  -1.335   9.352   1.841  0.3806 -0.5842 -0.0700
  961MOL0     H29706  -1.444   9.293   1.960 -0.8709  1.3524 -2.4132
  961MOL0     H29707  -1.282   9.082   1.962  0.1412 -0.5537 -0.4082
  961MOL0     H29708  -1.230   9.130   1.803 -0.7721 -1.7494 -2.2033
  961MOL0     H29709  -1.434   8.960   1.822  1.6168  1.0742  0.9347
  961MOL0     H29710  -1.529   9.110   1.871 -0.1132  3.1548 -0.8342
  961MOL0     H29711  -1.357   9.098   1.619  0.4927 -1.6038  1.4049
  961MOL0     H29712  -1.512   9.194   1.646 -1.1818  0.5169  2.4617
  961MOL0     H29713  -1.646   9.017   1.577 -0.9325  1.0137 -0.0126
  961MOL0     H29714  -1.519   9.026   1.459 -1.3742 -0.4199 -0.6898
  961MOL0     H29715  -0.807   9.513   2.228  0.1288  0.9165  0.4188
  961MOL0     H29716  -0.641   9.411   2.349  1.2292 -3.7726 -2.0542
  961MOL0     H29717  -0.269   9.185   2.530 -1.2170 -2.8671 -1.5965
  961MOL0     H29718  -0.132   9.061   2.659  0.2875  1.9688 -0.0625
  961MOL0     H29719   1.395   8.634   2.347  0.2663 -0.3559  0.6631
  961MOL0     H29720   1.636   8.664   2.405  1.6143  0.2768 -0.4611
  961MOL0     H29721   1.971   8.770   2.606  2.6548 -1.5481 -1.3125
  961MOL0     H29722   2.172   8.851   2.722 -1.4885 -0.5322  0.8100
  961MOL0     H29723   2.276   9.269   2.648  0.9139  1.1296 -3.5033
  961MOL0     H29724   2.385   9.209   2.526 -0.5994  2.7478  0.3836
  961MOL0     H29725   2.425   9.202   2.833 -0.7723  0.4012 -0.5937
  961MOL0     H29726   2.491   9.326   2.739 -1.0950 -0.0096  1.3330
  961MOL0     H29727   2.621   9.129   2.600 -1.0868  1.9111 -0.1675
  961MOL0     H29728   2.538   9.022   2.710 -1.0024  0.3858 -0.0460
  961MOL0     H29729   2.672   9.102   2.898  0.7886  3.3480  0.3547
  961MOL0     H29730   2.780   9.063   2.764 -0.3266  0.8119 -1.7555
  961MOL0     H29731   2.872   9.450   2.859 -1.0353 -1.7517  3.0414
  961MOL0     H29732   2.192   9.184   2.441 -1.4865 -0.3540 -2.7017
  961MOL0     H29733   1.989   9.249   2.338  0.4458  0.6536 -1.0418
  961MOL0     H29734   1.991   9.114   2.218 -1.2546  0.3229  0.0081
  961MOL0     H29735   1.848   9.141   2.325  0.6137 -2.7526  2.3750
  962MOL0     O29736   2.969   1.100   6.601  0.4706 -0.3543  0.0597
  962MOL0     C29737   2.862   1.054   6.645 -0.9108  0.4864  1.0627
  962MOL0     O29738   2.851   1.024   6.767 -0.0509 -0.5593  0.0846
  962MOL0     C29739   2.891   1.100   6.874 -0.6224 -0.4972  0.0053
  962MOL0     C29740   2.882   1.038   7.001 -0.2845  0.6676  0.7425
  962MOL0     C29741   2.914   1.103   7.117  0.1771 -0.7168 -0.5455
  962MOL0     C29742   2.946   1.239   7.115  0.5084 -1.3989  0.3047
  962MOL0     O29743   2.991   1.301   7.232 -0.6200 -0.0364 -0.2802
  962MOL0     C29744   2.926   1.420   7.266  0.2178  0.8899  0.0534
  962MOL0     C29745   2.942   1.454   7.416  1.1018 -0.7960 -0.1397
  962MOL0     C29746   2.849   1.358   7.491 -0.1578 -0.1661  0.1357
  962MOL0     C29747   2.836   1.403   7.629  0.3424  0.7082 -0.1961
  962MOL0     C29748   2.719   1.334   7.705 -0.7903  0.8100  0.1039
  962MOL0     C29749   2.705   1.395   7.846 -0.9954  0.1417 -0.0589
  962MOL0     C29750   2.790   1.312   7.942 -0.4358  0.6063  0.7092
  962MOL0     C29751   2.837   1.387   8.065  1.1772 -0.4704 -0.4657
  962MOL0     N29752   2.953   1.464   8.024  0.0400  0.0174  0.1034
  962MOL0     C29753   3.078   1.413   8.019 -0.4215  0.5594  0.0802
  962MOL0     C29754   3.151   1.500   7.949  0.0178 -0.2748  0.7794
  962MOL0     C29755   3.303   1.526   7.921  0.0210 -0.8410 -0.1946
  962MOL0     C29756   3.356   1.439   7.809  0.2206  0.0646 -0.4575
  962MOL0     C29757   3.306   1.482   7.673 -0.7522 -0.0826  0.4255
  962MOL0     C29758   3.416   1.545   7.579  0.9562  0.7484 -0.5467
  962MOL0     O29759   3.542   1.472   7.581  0.3022  1.8542 -0.2035
  962MOL0     C29760   3.634   1.505   7.493  0.7995  0.7202  0.2396
  962MOL0     C29761   3.630   1.612   7.404  0.2283 -0.4352  0.3296
  962MOL0     C29762   3.736   1.648   7.324  0.9524 -0.1072 -0.3554
  962MOL0     C29763   3.849   1.571   7.318  0.0502  0.3442 -0.1325
  962MOL0     C29764   3.961   1.612   7.231  0.0999  0.9281  0.7075
  962MOL0     O29765   4.082   1.544   7.253 -0.5623  0.4067  0.6864
  962MOL0     C29766   4.187   1.556   7.170 -0.3179  0.9989  0.1124
  962MOL0     C29767   4.173   1.562   7.027 -0.2031 -0.4015  0.0212
  962MOL0     C29768   4.286   1.554   6.940 -0.2012  0.0039  0.4572
  962MOL0     C29769   4.419   1.551   6.998  0.5115  0.1254  0.4788
  962MOL0     O29770   4.518   1.572   6.914  0.0780  0.7637  0.0935
  962MOL0     C29771   4.620   1.478   6.913 -0.3215  0.7219  0.1557
  962MOL0     C29772   4.658   1.444   6.766  0.6113  0.5391  0.3799
  962MOL0     C29773   4.712   1.564   6.705  0.0095  0.9673 -0.5574
  962MOL0     C29774   4.755   1.539   6.559 -0.5365  0.9757  0.2233
  962MOL0     C29775   4.828   1.654   6.505 -0.1655  0.3768  0.0736
  962MOL0     C29776   4.848   1.646   6.354  0.2956 -0.5065 -0.2289
  962MOL0     C29777   4.945   1.757   6.308  0.7917 -0.4725  0.4874
  962MOL0     C29778   5.006   1.717   6.175  0.9042 -0.2667  0.9960
  962MOL0    Cl29779   5.155   1.813   6.136  0.2973 -0.5595 -0.3114
  962MOL0     C29780   4.429   1.534   7.137  0.2076 -0.5626 -0.4992
  962MOL0     C29781   4.318   1.539   7.218 -0.9545  0.0489 -0.6162
  962MOL0     O29782   3.944   1.701   7.151  0.5317 -0.1844  0.0304
  962MOL0     C29783   3.856   1.455   7.407 -0.5051  0.2952  0.0506
  962MOL0     C29784   3.756   1.432   7.506 -0.3273  0.0412 -0.4674
  962MOL0     N29785   3.060   1.595   7.898  0.2233  0.0295  0.0042
  962MOL0     N29786   2.946   1.574   7.943 -1.2284  0.2896 -0.2317
  962MOL0     C29787   2.960   1.303   6.993  0.0832  0.4591 -0.3235
  962MOL0     C29788   2.937   1.236   6.869 -0.6045  1.2675 -0.5310
  962MOL0     C29789   2.748   1.049   6.560 -0.5719  0.2500 -0.1930
  962MOL0     C29790   2.617   1.035   6.621 -0.0271  0.4903 -0.1183
  962MOL0     C29791   2.503   1.019   6.545  0.4243 -1.1589  0.7907
  962MOL0     C29792   2.514   1.016   6.402  1.1757 -0.8382 -0.0742
  962MOL0     O29793   2.397   1.011   6.325  0.6095 -0.0886 -0.2347
  962MOL0     C29794   2.419   1.042   6.184  0.3074  0.1542  0.0359
  962MOL0     C29795   2.288   1.059   6.110  1.1807  0.5184  0.9567
  962MOL0     C29796   2.205   0.931   6.111  0.6422 -0.1044  1.1800
  962MOL0     C29797   2.060   0.955   6.059  0.0036 -0.0062 -0.5535
  962MOL0     C29798   1.980   1.050   6.138  0.3046 -0.0742  0.8554
  962MOL0     C29799   1.918   1.138   6.199 -0.3782 -0.8387 -0.5091
  962MOL0     C29800   2.639   1.021   6.346  0.5265  1.0885 -0.5390
  962MOL0     C29801   2.757   1.044   6.419  0.0748 -0.1919  0.3617
  962MOL0     C29802   2.888   1.020   6.343 -0.1106 -0.2851 -1.5898
  962MOL0     H29803   2.840   0.939   7.014  0.6256  0.5637  3.6975
  962MOL0     H29804   2.904   1.062   7.217  0.4155  2.9935  1.1789
  962MOL0     H29805   2.950   1.501   7.196 -3.0891  1.1635 -0.9677
  962MOL0     H29806   2.818   1.414   7.246 -0.1764  0.3449  2.1417
  962MOL0     H29807   2.907   1.556   7.435 -0.0946 -0.3917 -3.7233
  962MOL0     H29808   3.048   1.447   7.442  1.5130 -0.6127 -1.6780
  962MOL0     H29809   2.886   1.256   7.502  0.9967  0.4926  4.8049
  962MOL0     H29810   2.751   1.360   7.443 -1.0941 -0.8049  1.9249
  962MOL0     H29811   2.933   1.396   7.678  0.3936 -2.5259 -0.5018
  962MOL0     H29812   2.798   1.506   7.628 -4.4338 -0.7894 -0.4399
  962MOL0     H29813   2.628   1.343   7.645 -1.3305  0.1515  0.8079
  962MOL0     H29814   2.738   1.226   7.714 -1.5197  0.6646 -0.0969
  962MOL0     H29815   2.727   1.502   7.849 -3.8572  0.8288 -1.0707
  962MOL0     H29816   2.603   1.392   7.885 -1.7725  1.3474 -1.8723
  962MOL0     H29817   2.875   1.257   7.899  0.2012  1.9222  0.2502
  962MOL0     H29818   2.721   1.235   7.977 -2.2989  2.2711  0.8408
  962MOL0     H29819   2.757   1.447   8.108 -0.3499 -0.7231 -2.7808
  962MOL0     H29820   2.875   1.312   8.135  4.5168  2.9945  1.7764
  962MOL0     H29821   3.104   1.320   8.070  0.2834  0.2641 -0.7884
  962MOL0     H29822   3.313   1.632   7.893  0.7001  0.1330  3.2899
  962MOL0     H29823   3.366   1.502   8.007 -1.7411 -0.0388  1.3942
  962MOL0     H29824   3.465   1.449   7.804  0.4041  0.0521  2.0929
  962MOL0     H29825   3.339   1.333   7.829  0.7945  0.1610  0.6568
  962MOL0     H29826   3.225   1.554   7.678  1.4783  2.7125 -1.0724
  962MOL0     H29827   3.258   1.390   7.638  0.4019 -1.1466  1.5433
  962MOL0     H29828   3.448   1.647   7.603 -0.4815  1.6061 -2.0975
  962MOL0     H29829   3.374   1.551   7.479 -1.1131  2.3563  0.3268
  962MOL0     H29830   3.539   1.663   7.373  0.5332 -1.1642 -1.9233
  962MOL0     H29831   3.716   1.731   7.256 -0.5959  0.7123  1.0356
  962MOL0     H29832   4.070   1.559   6.992 -0.3946  0.8341  0.4249
  962MOL0     H29833   4.272   1.571   6.834 -1.4973 -2.1535  0.2124
  962MOL0     H29834   4.709   1.526   6.955 -0.7558 -0.1011  2.1279
  962MOL0     H29835   4.583   1.388   6.963 -2.8857  2.4750  1.6616
  962MOL0     H29836   4.739   1.371   6.755 -0.1129 -0.1290 -0.6934
  962MOL0     H29837   4.566   1.406   6.721  1.2160 -1.5615  0.7803
  962MOL0     H29838   4.649   1.653   6.716  0.5087  1.1266  1.1948
  962MOL0     H29839   4.797   1.595   6.767  0.5274  0.6183 -1.0845
  962MOL0     H29840   4.665   1.539   6.497 -1.6229  0.5439  1.7483
  962MOL0     H29841   4.792   1.436   6.554 -4.6309 -1.0402  4.2133
  962MOL0     H29842   4.927   1.657   6.551 -0.4229 -2.9618  1.1319
  962MOL0     H29843   4.790   1.749   6.542  2.5778  0.3580  3.4159
  962MOL0     H29844   4.888   1.548   6.325  1.0419 -0.0319 -0.8501
  962MOL0     H29845   4.752   1.644   6.301  0.6378  1.5137 -1.0027
  962MOL0     H29846   5.022   1.767   6.386  0.4681  1.4126  0.6102
  962MOL0     H29847   4.904   1.857   6.294 -0.4779 -1.2895 -2.1922
  962MOL0     H29848   5.045   1.615   6.177 -0.6594 -1.2432 -4.0377
  962MOL0     H29849   4.922   1.715   6.105 -1.4499 -2.2330  3.6447
  962MOL0     H29850   4.526   1.539   7.186 -0.7036  1.1134  1.2295
  962MOL0     H29851   4.326   1.540   7.327  0.9979 -0.1564 -0.7163
  962MOL0     H29852   3.945   1.395   7.397  1.1572  2.9315 -2.4393
  962MOL0     H29853   3.766   1.350   7.577 -2.5011  0.3347  0.2746
  962MOL0     H29854   2.998   1.405   6.992  1.4459 -0.0293 -0.3499
  962MOL0     H29855   2.974   1.277   6.776  1.2747 -1.8413 -1.3116
  962MOL0     H29856   2.595   1.026   6.727 -0.4642 -3.2212 -0.3863
  962MOL0     H29857   2.403   1.022   6.587 -0.2432  0.1947 -0.7633
  962MOL0     H29858   2.466   0.958   6.132 -2.3258 -0.5671 -1.4035
  962MOL0     H29859   2.477   1.134   6.172  0.3942  0.3285  1.6404
  962MOL0     H29860   2.303   1.090   6.006  0.5478  0.7711  0.9383
  962MOL0     H29861   2.229   1.136   6.160 -0.3082  1.0175 -1.4167
  962MOL0     H29862   2.192   0.889   6.211 -0.4527 -2.1233  0.2324
  962MOL0     H29863   2.253   0.857   6.047 -1.5533 -0.3849 -0.2518
  962MOL0     H29864   2.076   0.998   5.960  1.6198  0.1446 -0.2561
  962MOL0     H29865   1.998   0.865   6.057  0.9311 -0.6798  0.0545
  962MOL0     H29866   1.868   1.217   6.251 -0.7544 -0.7367 -1.0112
  962MOL0     H29867   2.652   1.008   6.239  1.0501  1.3012 -0.5043
  962MOL0     H29868   2.954   0.954   6.400  0.8389 -0.5857 -3.0046
  962MOL0     H29869   2.855   0.984   6.246 -3.0091  0.3161 -0.9200
  962MOL0     H29870   2.940   1.115   6.324 -1.2759  0.6293 -0.4400
  963MOL0     O29871   5.514   0.977  10.084 -0.0877  0.5923  0.4322
  963MOL0     C29872   5.561   0.945   9.973 -0.0988 -0.0960 -0.0356
  963MOL0     O29873   5.604   0.826   9.934  0.1558  0.3829  0.4844
  963MOL0     C29874   5.596   0.732  10.026  1.4447  0.3562  0.2684
  963MOL0     C29875   5.703   0.697  10.112  0.5364 -0.4009 -0.5485
  963MOL0     C29876   5.698   0.595  10.205  1.0242  0.2549  0.9613
  963MOL0     C29877   5.583   0.521  10.211  0.3775  0.8287 -0.3678
  963MOL0     O29878   5.575   0.407  10.293 -0.3470  0.1695 -0.4015
  963MOL0     C29879   5.468   0.405  10.378 -0.3625 -0.5675  0.1821
  963MOL0     C29880   5.434   0.256  10.374 -0.7268 -0.5737  0.2384
  963MOL0     C29881   5.542   0.165  10.440 -0.9034  0.5941 -0.5174
  963MOL0     C29882   5.537   0.019  10.390 -0.7605 -0.2660  0.6902
  963MOL0     C29883   5.659  -0.071  10.425  0.0141 -0.6895  0.2137
  963MOL0     C29884   5.786  -0.020  10.347  0.5656 -0.1411  0.2446
  963MOL0     C29885   5.888  -0.129  10.364  0.4906  0.8064 -0.2286
  963MOL0     C29886   6.014  -0.060  10.302  1.5643  0.4824  0.4654
  963MOL0     N29887   6.135  -0.131  10.349 -1.0336  0.1301  0.3274
  963MOL0     C29888   6.194  -0.226  10.266 -0.0291 -1.2408 -0.4705
  963MOL0     C29889   6.324  -0.235  10.315  0.0920 -0.2182 -0.3698
  963MOL0     C29890   6.429  -0.340  10.294 -0.8894 -0.8530  0.3628
  963MOL0     C29891   6.574  -0.273  10.276  0.3610  0.2198  0.9399
  963MOL0     C29892   6.656  -0.384  10.219  0.9719 -1.3782 -0.4326
  963MOL0     C29893   6.804  -0.356  10.261  0.4173  0.2792  0.2657
  963MOL0     O29894   6.865  -0.477  10.213  0.8267  0.0869 -0.3961
  963MOL0     C29895   7.007  -0.485  10.210  0.4649  0.4752  0.5208
  963MOL0     C29896   7.060  -0.599  10.154 -0.1832  0.6987  0.0882
  963MOL0     C29897   7.195  -0.613  10.159 -1.0601 -0.1341  0.0456
  963MOL0     C29898   7.287  -0.516  10.213  0.3033 -0.0356 -0.0107
  963MOL0     C29899   7.431  -0.531  10.244  0.6819 -0.2811  0.5649
  963MOL0     O29900   7.496  -0.421  10.293 -0.7562 -0.6172 -1.1532
  963MOL0     C29901   7.626  -0.425  10.339 -0.6433  0.4010 -0.9225
  963MOL0     C29902   7.692  -0.533  10.401  0.7511  0.1295 -0.7575
  963MOL0     C29903   7.823  -0.515  10.457  0.2389  1.0519  0.1170
  963MOL0     C29904   7.897  -0.401  10.432  0.2325  0.6371 -0.7126
  963MOL0     O29905   8.032  -0.392  10.464  0.1407  0.5403  0.2361
  963MOL0     C29906   8.084  -0.433  10.589  0.1732 -1.3101 -0.2801
  963MOL0     C29907   8.201  -0.336  10.639  1.2194  0.1608  0.4102
  963MOL0     C29908   8.296  -0.395  10.746  0.3696  0.0713 -0.4128
  963MOL0     C29909   8.434  -0.327  10.753 -1.1090  0.1209 -0.0564
  963MOL0     C29910   8.534  -0.350  10.637  0.8867 -0.4707 -0.7704
  963MOL0     C29911   8.679  -0.367  10.677  0.4302  0.1433 -0.5409
  963MOL0     C29912   8.718  -0.235  10.742 -0.9260  0.2828 -0.0450
  963MOL0     C29913   8.871  -0.222  10.742 -0.0788 -0.3764  0.4886
  963MOL0    Cl29914   8.894  -0.067  10.815  0.1228  0.2901  0.1348
  963MOL0     C29915   7.834  -0.293  10.370 -0.5151  0.4966  0.2739
  963MOL0     C29916   7.704  -0.311  10.322  0.4442 -0.7631 -0.0274
  963MOL0     O29917   7.483  -0.636  10.210 -0.5572  0.9853  0.2693
  963MOL0     C29918   7.223  -0.402  10.268  0.2490 -0.8369  0.6356
  963MOL0     C29919   7.085  -0.382  10.260 -0.2781  0.3035 -0.1618
  963MOL0     N29920   6.345  -0.132  10.400  0.3376 -0.1798 -0.4184
  963MOL0     N29921   6.232  -0.076  10.427 -0.4410 -0.1917 -0.6769
  963MOL0     C29922   5.468   0.552  10.136 -0.0619 -0.0525  0.7655
  963MOL0     C29923   5.475   0.657  10.048  0.0818  0.0305  0.3093
  963MOL0     C29924   5.549   1.058   9.886  0.5056 -0.4098  1.4522
  963MOL0     C29925   5.640   1.163   9.894  0.2214 -1.1505 -0.1815
  963MOL0     C29926   5.625   1.273   9.805  0.6166  0.3411  0.3420
  963MOL0     C29927   5.513   1.282   9.712 -0.3099  0.2873 -0.7510
  963MOL0     O29928   5.494   1.397   9.634  0.7474  0.5674 -0.4046
  963MOL0     C29929   5.425   1.384   9.502 -0.1176  0.2981  0.1146
  963MOL0     C29930   5.510   1.308   9.387  0.0692 -0.1466  0.1880
  963MOL0     C29931   5.651   1.370   9.372  0.1759 -0.5711 -0.5101
  963MOL0     C29932   5.747   1.352   9.489  0.2255  0.4075  0.1073
  963MOL0     C29933   5.886   1.350   9.445  0.0023  0.5539 -0.2880
  963MOL0     C29934   6.007   1.345   9.415 -0.2696 -0.5221  0.6914
  963MOL0     C29935   5.418   1.184   9.721 -0.2648  0.5053  0.0743
  963MOL0     C29936   5.432   1.071   9.798  0.0360  0.4672 -0.1245
  963MOL0     C29937   5.319   0.960   9.787 -0.4307 -0.1877 -0.0141
  963MOL0     H29938   5.789   0.762  10.102  0.4857 -0.0902  0.7773
  963MOL0     H29939   5.784   0.569  10.267  1.4802  0.9669  0.6460
  963MOL0     H29940   5.499   0.436  10.478  0.3486 -1.9753  0.4310
  963MOL0     H29941   5.379   0.455  10.338 -0.3857 -1.0220 -0.3509
  963MOL0     H29942   5.413   0.222  10.273  1.6923 -0.1977 -0.4556
  963MOL0     H29943   5.343   0.252  10.435 -0.5883  1.2208  0.6071
  963MOL0     H29944   5.531   0.164  10.549 -0.3895 -0.2578 -0.4652
  963MOL0     H29945   5.634   0.218  10.413  0.2540 -1.3856 -0.6234
  963MOL0     H29946   5.439  -0.025  10.409 -0.7143 -2.3060 -2.8877
  963MOL0     H29947   5.538   0.026  10.281  2.6245  1.3267  0.6752
  963MOL0     H29948   5.688  -0.078  10.530  2.9026 -1.4151 -0.5546
  963MOL0     H29949   5.637  -0.174  10.395  1.1993 -0.7167 -0.6587
  963MOL0     H29950   5.755  -0.011  10.243  5.4663 -1.4854 -1.5696
  963MOL0     H29951   5.818   0.083  10.366 -0.2779  0.1710  0.0038
  963MOL0     H29952   5.864  -0.227  10.323  0.1926 -1.0688  3.9509
  963MOL0     H29953   5.909  -0.150  10.469 -2.9667 -0.3320  0.3719
  963MOL0     H29954   5.992  -0.066  10.195  0.7687  0.8658  0.5946
  963MOL0     H29955   6.034   0.047  10.307 -0.1558  0.9720 -1.7603
  963MOL0     H29956   6.142  -0.277  10.185  0.1617  0.6567 -1.8427
  963MOL0     H29957   6.429  -0.401  10.385 -1.8334 -0.5541  0.5842
  963MOL0     H29958   6.391  -0.386  10.203 -1.1842 -0.7177  0.4133
  963MOL0     H29959   6.566  -0.195  10.200  3.1964 -1.4480 -1.3241
  963MOL0     H29960   6.620  -0.233  10.367 -1.2032  1.8958  1.0406
  963MOL0     H29961   6.634  -0.402  10.114 -0.0322 -0.8145 -0.3377
  963MOL0     H29962   6.630  -0.478  10.270  1.2274 -0.1567  2.1264
  963MOL0     H29963   6.802  -0.354  10.371  0.7830  1.8711  0.2635
  963MOL0     H29964   6.842  -0.263  10.219  1.0443  0.4383  1.1505
  963MOL0     H29965   6.991  -0.675  10.118  0.7838 -0.8547  1.3630
  963MOL0     H29966   7.257  -0.698  10.134  1.8243  2.1426 -1.0371
  963MOL0     H29967   7.647  -0.631  10.416 -1.2253  1.0841 -0.1276
  963MOL0     H29968   7.855  -0.603  10.512 -3.5801 -2.9722 -3.3925
  963MOL0     H29969   7.996  -0.435  10.653 -0.8790 -0.7048 -1.6482
  963MOL0     H29970   8.112  -0.539  10.585  0.9458 -1.2270  2.0598
  963MOL0     H29971   8.254  -0.309  10.547 -1.1117  0.7680 -0.8396
  963MOL0     H29972   8.152  -0.243  10.670  1.2805 -0.1983  1.6044
  963MOL0     H29973   8.247  -0.381  10.843  0.0188  0.2993 -0.6181
  963MOL0     H29974   8.322  -0.501  10.737  1.7349  0.1264  2.0043
  963MOL0     H29975   8.478  -0.365  10.845 -1.3805  0.7020  0.3262
  963MOL0     H29976   8.414  -0.219  10.763  2.1120  0.5919  3.3028
  963MOL0     H29977   8.518  -0.263  10.573 -0.7024  0.4473  0.7846
  963MOL0     H29978   8.500  -0.442  10.588 -2.2464 -0.8320  1.7266
  963MOL0     H29979   8.695  -0.453  10.742  1.0808  2.5590  2.7289
  963MOL0     H29980   8.745  -0.378  10.590  1.3032 -0.3785  0.1776
  963MOL0     H29981   8.693  -0.251  10.848  4.5212 -2.8360  1.1614
  963MOL0     H29982   8.674  -0.144  10.701  1.7051  0.6585 -2.2814
  963MOL0     H29983   8.928  -0.305  10.784 -0.2187 -0.7140  0.0247
  963MOL0     H29984   8.907  -0.225  10.639 -1.6931  0.3508 -0.1354
  963MOL0     H29985   7.877  -0.195  10.353  2.9716 -1.0214 -0.5187
  963MOL0     H29986   7.656  -0.232  10.266 -1.3943 -2.0795 -0.4002
  963MOL0     H29987   7.282  -0.324  10.316  1.4570 -1.4158  0.1270
  963MOL0     H29988   7.049  -0.285  10.295 -0.3187  0.0504  0.5121
  963MOL0     H29989   5.376   0.497  10.121  0.5329 -0.8267 -0.1853
  963MOL0     H29990   5.397   0.675   9.975  2.6835 -0.8996 -2.9067
  963MOL0     H29991   5.718   1.168   9.970  2.1552 -0.1271 -2.1107
  963MOL0     H29992   5.687   1.361   9.816 -0.1796  0.7840  1.3753
  963MOL0     H29993   5.408   1.483   9.460  0.2343  0.1107 -0.4808
  963MOL0     H29994   5.327   1.337   9.520 -1.4383  2.7872 -0.1622
  963MOL0     H29995   5.450   1.307   9.295  1.3838 -4.9910 -0.9133
  963MOL0     H29996   5.526   1.201   9.401 -0.9808 -0.1682  1.4770
  963MOL0     H29997   5.649   1.477   9.351  0.2633 -0.6542 -0.9632
  963MOL0     H29998   5.698   1.318   9.288 -2.6212 -1.7911 -1.4615
  963MOL0     H29999   5.732   1.441   9.552  3.2737  0.0350  1.5042
  963MOL0     H30000   5.720   1.257   9.536 -1.3622  0.9722  0.4227
  963MOL0     H30001   6.104   1.341   9.369  0.4457  2.7994  1.6247
  963MOL0     H30002   5.341   1.183   9.645 -0.8016  1.5690  0.5893
  963MOL0     H30003   5.347   0.855   9.800 -0.4316  0.1091  3.1634
  963MOL0     H30004   5.250   0.975   9.871 -1.1704 -4.0774  0.2846
  963MOL0     H30005   5.260   0.962   9.695 -1.5408  0.3610  0.6888
  964MOL0     O30006  10.624   2.784   7.483 -1.0911 -0.2342 -0.3855
  964MOL0     C30007  10.575   2.846   7.394 -0.1581 -0.8090  0.3377
  964MOL0     O30008  10.618   2.847   7.267 -0.3556  0.4477  0.4746
  964MOL0     C30009  10.725   2.769   7.237 -0.0427 -0.4171 -0.2059
  964MOL0     C30010  10.837   2.831   7.186 -0.5012 -0.8941 -0.9681
  964MOL0     C30011  10.969   2.764   7.191  0.6321 -0.9732  0.8460
  964MOL0     C30012  10.972   2.625   7.199 -0.0084 -0.4798  0.8713
  964MOL0     O30013  11.084   2.544   7.189 -0.4219 -0.2161  0.6606
  964MOL0     C30014  11.202   2.594   7.258 -0.5389 -0.5746  0.1765
  964MOL0     C30015  11.266   2.463   7.306  0.4002  0.1219 -0.1038
  964MOL0     C30016  11.389   2.481   7.383  0.2801  1.2665 -0.8751
  964MOL0     C30017  11.495   2.571   7.327 -0.5255 -0.9094  0.2904
  964MOL0     C30018  11.606   2.574   7.427 -0.3963 -1.4031 -0.0465
  964MOL0     C30019  11.732   2.637   7.368  0.4459 -0.2334  0.3369
  964MOL0     C30020  11.726   2.797   7.392 -0.2392  0.2233  0.3704
  964MOL0     C30021  11.797   2.854   7.270  0.2237  0.1080 -0.1641
  964MOL0     N30022  11.803   2.998   7.278  0.3731 -1.1299 -0.4927
  964MOL0     C30023  11.707   3.077   7.225  1.5037 -0.5006  0.4257
  964MOL0     C30024  11.760   3.200   7.217  0.3452  0.1203 -1.0811
  964MOL0     C30025  11.710   3.320   7.149 -0.1140 -0.1163  0.5492
  964MOL0     C30026  11.827   3.371   7.068  1.0348 -0.0962  0.0930
  964MOL0     C30027  11.784   3.502   7.003 -0.6342 -0.5523 -0.8172
  964MOL0     C30028  11.875   3.532   6.886 -0.2185  0.1488  0.1788
  964MOL0     O30029  11.810   3.638   6.808 -0.3018  0.0565  0.0158
  964MOL0     C30030  11.886   3.691   6.703  0.4448 -0.1380 -0.0470
  964MOL0     C30031  11.826   3.769   6.605  0.7539  0.3663 -0.7822
  964MOL0     C30032  11.888   3.812   6.493 -0.7543 -0.0267 -0.3068
  964MOL0     C30033  12.026   3.778   6.469 -0.4991 -0.0312  0.5112
  964MOL0     C30034  12.112   3.835   6.358  0.7804  0.1914  0.3744
  964MOL0     O30035  12.045   3.913   6.269 -0.4261 -0.3917 -0.5352
  964MOL0     C30036  12.126   3.980   6.178 -0.0063  0.0208  0.0224
  964MOL0     C30037  12.136   3.911   6.057 -0.4240  0.3580 -0.6892
  964MOL0     C30038  12.207   3.962   5.956 -0.6063 -0.7872 -0.0731
  964MOL0     C30039  12.265   4.092   5.967  0.0056 -0.4193 -0.5057
  964MOL0     O30040  12.351   4.148   5.871 -0.0538 -0.4669 -0.0013
  964MOL0     C30041  12.288   4.188   5.744 -0.8112 -0.8016  0.1339
  964MOL0     C30042  12.351   4.322   5.692  1.0827  0.8301 -0.2918
  964MOL0     C30043  12.497   4.297   5.652  0.0372 -0.4172  0.0405
  964MOL0     C30044  12.581   4.429   5.643  0.7790  0.1492 -0.1803
  964MOL0     C30045  12.519   4.529   5.546 -0.6026 -0.5428 -0.1387
  964MOL0     C30046  12.557   4.500   5.395 -1.0060 -0.0328 -0.7894
  964MOL0     C30047  12.580   4.628   5.312  0.5673 -0.0578 -0.3297
  964MOL0     C30048  12.666   4.589   5.189 -0.1285  0.0511  1.0724
  964MOL0    Cl30049  12.761   4.734   5.135 -0.3825 -0.0828 -0.2075
  964MOL0     C30050  12.253   4.158   6.088 -0.3735 -0.1786  0.0530
  964MOL0     C30051  12.180   4.108   6.193 -1.1872 -0.3429 -0.1730
  964MOL0     O30052  12.229   3.824   6.357  0.2923 -0.1834 -0.5290
  964MOL0     C30053  12.093   3.707   6.571  0.7188 -0.3206  0.0097
  964MOL0     C30054  12.023   3.655   6.678 -0.0485  0.4518 -0.1728
  964MOL0     N30055  11.882   3.204   7.289 -0.1346  0.5253 -0.2916
  964MOL0     N30056  11.905   3.071   7.327  0.1133 -0.8887  1.0184
  964MOL0     C30057  10.854   2.554   7.231  0.2565  0.4719 -0.3246
  964MOL0     C30058  10.734   2.624   7.265  0.3221 -0.9396  0.3841
  964MOL0     C30059  10.448   2.920   7.415 -0.8044 -0.2123  0.3372
  964MOL0     C30060  10.432   3.054   7.374  0.5715 -0.1764  0.5228
  964MOL0     C30061  10.326   3.131   7.413  0.6067  0.2986  0.1240
  964MOL0     C30062  10.221   3.068   7.469 -0.6601  0.2162 -0.9387
  964MOL0     O30063  10.102   3.122   7.490 -0.5185 -0.1950  0.2400
  964MOL0     C30064  10.071   3.262   7.502  0.0425  0.1634 -0.6288
  964MOL0     C30065   9.927   3.274   7.540 -0.0906 -0.0725  0.5109
  964MOL0     C30066   9.886   3.200   7.666 -0.4444 -0.1034  0.6868
  964MOL0     C30067   9.739   3.183   7.684 -0.2561  0.2824  0.2985
  964MOL0     C30068   9.678   3.318   7.704 -1.0403 -0.8719 -0.3437
  964MOL0     C30069   9.629   3.427   7.718  0.0351  0.2059 -0.3074
  964MOL0     C30070  10.228   2.933   7.504 -0.6427  1.1620 -0.0643
  964MOL0     C30071  10.347   2.862   7.495  0.5658 -0.5877 -0.1749
  964MOL0     C30072  10.353   2.721   7.548 -0.8671  0.2739  0.4374
  964MOL0     H30073  10.843   2.939   7.186  0.9538 -0.8979 -3.0786
  964MOL0     H30074  11.060   2.814   7.159  0.9425 -1.9903  0.0964
  964MOL0     H30075  11.263   2.644   7.182  0.0221 -3.2801 -1.2995
  964MOL0     H30076  11.178   2.658   7.343 -1.4796  0.7894 -1.0634
  964MOL0     H30077  11.274   2.403   7.215 -1.0759 -0.5577  0.1906
  964MOL0     H30078  11.191   2.410   7.364  1.3195 -1.0172  0.0813
  964MOL0     H30079  11.430   2.380   7.397  1.8111  2.2224  2.9138
  964MOL0     H30080  11.361   2.515   7.483  0.2165  1.9339 -1.1122
  964MOL0     H30081  11.515   2.538   7.225 -2.7737 -2.4449  0.2857
  964MOL0     H30082  11.459   2.675   7.320 -0.7272 -1.0678 -2.0462
  964MOL0     H30083  11.583   2.630   7.518 -0.0740  0.9442 -1.3231
  964MOL0     H30084  11.628   2.471   7.456  1.4075 -0.4951  2.1714
  964MOL0     H30085  11.813   2.587   7.422  1.2531  1.7641  1.0777
  964MOL0     H30086  11.754   2.604   7.266  0.4353  0.3422  0.1472
  964MOL0     H30087  11.785   2.829   7.478 -0.8674  1.4570  0.3572
  964MOL0     H30088  11.624   2.831   7.412 -0.8677 -1.0769 -0.4911
  964MOL0     H30089  11.899   2.817   7.262  0.8881  1.0392  2.8527
  964MOL0     H30090  11.736   2.836   7.180 -0.6790  1.8140  0.0591
  964MOL0     H30091  11.624   3.054   7.158  3.0284  2.4193 -2.8372
  964MOL0     H30092  11.618   3.300   7.093 -0.3261 -1.9634  1.4627
  964MOL0     H30093  11.691   3.393   7.228 -0.5877 -0.9252  1.2073
  964MOL0     H30094  11.923   3.393   7.117  2.4217  1.4208 -3.0336
  964MOL0     H30095  11.851   3.303   6.986 -1.8500 -0.4968 -0.5140
  964MOL0     H30096  11.789   3.583   7.076  3.1082 -0.6026 -0.8390
  964MOL0     H30097  11.679   3.499   6.972 -0.8929  0.2812 -0.0509
  964MOL0     H30098  11.892   3.447   6.819  2.0216  0.1238  0.6878
  964MOL0     H30099  11.975   3.561   6.922 -0.3317  0.6695  0.0817
  964MOL0     H30100  11.720   3.793   6.612  1.1523  1.8349  0.8018
  964MOL0     H30101  11.826   3.846   6.410 -0.4667 -2.2333 -1.5241
  964MOL0     H30102  12.081   3.818   6.053  1.5369 -0.9254  0.8335
  964MOL0     H30103  12.216   3.907   5.863  0.1184  1.7189 -1.5856
  964MOL0     H30104  12.287   4.116   5.662 -0.5701 -1.1596  0.4399
  964MOL0     H30105  12.182   4.204   5.768 -0.0947  0.1970  3.1669
  964MOL0     H30106  12.286   4.361   5.613 -0.7622 -0.3824  0.5715
  964MOL0     H30107  12.345   4.402   5.766 -2.6025  2.8636 -2.4667
  964MOL0     H30108  12.543   4.229   5.725 -3.1979 -0.2657  2.4267
  964MOL0     H30109  12.492   4.253   5.552 -1.3498 -1.2247  0.4341
  964MOL0     H30110  12.684   4.415   5.607  0.0832 -0.6748 -1.9213
  964MOL0     H30111  12.565   4.478   5.740  2.6160  1.0752 -0.2832
  964MOL0     H30112  12.561   4.629   5.563 -0.7955 -0.2653 -1.2279
  964MOL0     H30113  12.410   4.530   5.555 -0.7001 -0.7907 -1.1367
  964MOL0     H30114  12.644   4.434   5.399 -1.7608 -1.1897 -2.2938
  964MOL0     H30115  12.481   4.441   5.342  0.3516 -1.5696 -1.1138
  964MOL0     H30116  12.617   4.717   5.363 -3.8572  1.3831  0.7672
  964MOL0     H30117  12.484   4.653   5.265 -0.4970 -3.6805 -0.4044
  964MOL0     H30118  12.746   4.518   5.209  1.3218  1.5800  0.9398
  964MOL0     H30119  12.606   4.544   5.109  1.2737 -1.5951  0.9011
  964MOL0     H30120  12.298   4.256   6.106 -1.1652  0.0056  1.0809
  964MOL0     H30121  12.157   4.176   6.274  0.6756  1.1517 -0.8133
  964MOL0     H30122  12.201   3.692   6.572  1.0907  1.9281  0.5121
  964MOL0     H30123  12.079   3.594   6.747 -0.2673  1.1647  0.6661
  964MOL0     H30124  10.859   2.448   7.253 -0.5476  0.7389  1.2836
  964MOL0     H30125  10.651   2.564   7.302  2.0152 -1.2859  4.0790
  964MOL0     H30126  10.510   3.100   7.314 -1.7385  1.1404 -1.6989
  964MOL0     H30127  10.313   3.233   7.378  0.3197  0.1578 -0.1936
  964MOL0     H30128  10.086   3.315   7.407 -3.7002  1.8264 -0.4729
  964MOL0     H30129  10.138   3.299   7.580  2.8987  2.5709 -3.9197
  964MOL0     H30130   9.874   3.231   7.454  4.8356  1.4433 -3.8102
  964MOL0     H30131   9.898   3.378   7.556 -1.2247 -0.4495  1.0010
  964MOL0     H30132   9.916   3.241   7.763  1.0990 -2.3253  1.2299
  964MOL0     H30133   9.942   3.106   7.659 -3.7999 -2.1203 -1.9836
  964MOL0     H30134   9.688   3.136   7.599  0.4745 -0.2726  0.1500
  964MOL0     H30135   9.716   3.124   7.773 -0.1408 -0.0778  0.0957
  964MOL0     H30136   9.575   3.519   7.733  0.1932  0.6898 -2.3431
  964MOL0     H30137  10.141   2.889   7.551 -0.7306 -1.6279 -2.5100
  964MOL0     H30138  10.254   2.682   7.574 -1.3203  0.3311 -1.1269
  964MOL0     H30139  10.408   2.648   7.487  0.7303 -0.7879  2.9655
  964MOL0     H30140  10.398   2.730   7.648  0.5175 -0.0557 -0.1331
  965MOL0     O30141   3.862   2.113   3.127 -0.0256 -0.2761  0.5463
  965MOL0     C30142   3.885   2.117   3.247 -0.4682 -0.2231 -0.8264
  965MOL0     O30143   3.799   2.059   3.345  0.0843 -0.0231  0.1202
  965MOL0     C30144   3.663   2.057   3.308 -0.9855 -0.3033  0.6065
  965MOL0     C30145   3.601   1.935   3.249 -0.7320  0.1310  0.1374
  965MOL0     C30146   3.471   1.939   3.199 -0.2362 -0.2631 -0.2770
  965MOL0     C30147   3.397   2.061   3.210  1.6910  0.9071 -0.3731
  965MOL0     O30148   3.268   2.047   3.154 -0.9176 -0.5510  0.1471
  965MOL0     C30149   3.238   2.176   3.102  0.4320  0.1784 -0.3086
  965MOL0     C30150   3.103   2.158   3.018  0.9288  0.1088  0.0299
  965MOL0     C30151   3.118   2.068   2.902 -0.4856 -0.6034 -0.6727
  965MOL0     C30152   2.984   2.034   2.837  0.2574  0.4161  0.4126
  965MOL0     C30153   2.911   2.151   2.769 -0.3275 -0.2192  0.2871
  965MOL0     C30154   2.838   2.085   2.646 -0.9793 -0.4337  0.3814
  965MOL0     C30155   2.768   2.183   2.552 -0.5080  0.6394 -0.4081
  965MOL0     C30156   2.635   2.230   2.603 -0.4619  0.1399  0.0475
  965MOL0     N30157   2.627   2.278   2.747  0.0812 -0.8676  0.7177
  965MOL0     C30158   2.676   2.401   2.791  0.0363  0.0597  0.2730
  965MOL0     C30159   2.659   2.402   2.928 -0.5435 -0.0531 -0.6759
  965MOL0     C30160   2.706   2.523   3.012 -0.3369  0.0080 -0.9412
  965MOL0     C30161   2.855   2.503   3.055  0.2830 -0.5827  0.9373
  965MOL0     C30162   2.889   2.620   3.146 -1.1213 -0.1100 -0.1390
  965MOL0     C30163   3.031   2.608   3.215 -0.3775 -0.5235 -0.0157
  965MOL0     O30164   3.016   2.513   3.318 -0.5053  0.6317  0.0078
  965MOL0     C30165   3.139   2.486   3.385 -0.1597  0.1727 -0.1027
  965MOL0     C30166   3.256   2.562   3.380 -0.1845 -0.1180  0.7385
  965MOL0     C30167   3.364   2.536   3.464 -0.3321 -0.1694 -0.4187
  965MOL0     C30168   3.368   2.416   3.529  0.0366  0.1497  0.7847
  965MOL0     C30169   3.484   2.372   3.593  0.2575  0.3040 -0.5385
  965MOL0     O30170   3.465   2.262   3.678  0.3959 -0.6823  0.0037
  965MOL0     C30171   3.570   2.205   3.747  1.1329  0.2602  0.7050
  965MOL0     C30172   3.684   2.165   3.678  0.5735  0.0812 -0.5618
  965MOL0     C30173   3.787   2.089   3.751 -0.8941 -0.3603  0.3287
  965MOL0     C30174   3.766   2.045   3.886  1.0134 -0.3787  0.2092
  965MOL0     O30175   3.857   1.982   3.962 -0.3924  0.0436 -0.9205
  965MOL0     C30176   3.976   1.937   3.898  0.0443  0.6927 -0.2863
  965MOL0     C30177   3.943   1.798   3.832 -0.3457 -0.6735  0.6795
  965MOL0     C30178   3.952   1.794   3.683  0.4748  0.3528  0.7931
  965MOL0     C30179   4.096   1.844   3.637  0.9830 -0.1043 -0.1686
  965MOL0     C30180   4.121   1.814   3.485 -1.4186 -0.2590  0.1803
  965MOL0     C30181   4.266   1.844   3.434  0.9191 -0.1182 -0.8764
  965MOL0     C30182   4.286   1.779   3.302  0.0369 -0.4719  0.7327
  965MOL0     C30183   4.422   1.801   3.232  0.7034  0.5528  0.0927
  965MOL0    Cl30184   4.547   1.727   3.331 -0.2473 -0.4652 -0.1512
  965MOL0     C30185   3.648   2.081   3.947  0.1732 -0.0907 -0.6512
  965MOL0     C30186   3.549   2.159   3.878  0.1815 -0.4176 -0.4736
  965MOL0     O30187   3.587   2.425   3.558 -0.2650  0.0490 -0.0398
  965MOL0     C30188   3.259   2.333   3.523  0.3514  0.1529  0.7921
  965MOL0     C30189   3.140   2.379   3.463  0.5417  0.2102  0.6034
  965MOL0     N30190   2.590   2.282   2.960  0.5118  0.1116  0.1704
  965MOL0     N30191   2.563   2.210   2.857 -0.4579  0.8755  0.6073
  965MOL0     C30192   3.453   2.171   3.268 -1.1340  0.1332 -0.2402
  965MOL0     C30193   3.582   2.168   3.323  0.4145 -0.2598  0.4376
  965MOL0     C30194   4.010   2.179   3.295  0.2954  0.5020 -0.3587
  965MOL0     C30195   4.011   2.244   3.423  0.3505  0.0077  0.2878
  965MOL0     C30196   4.127   2.309   3.465 -0.2505 -0.2257 -1.2044
  965MOL0     C30197   4.248   2.297   3.401  0.0607 -0.3590  0.0682
  965MOL0     O30198   4.369   2.348   3.440  0.3620 -0.1047 -0.2794
  965MOL0     C30199   4.377   2.428   3.567 -0.0278 -0.1519 -0.3200
  965MOL0     C30200   4.530   2.470   3.600 -0.5667 -0.3082 -0.5751
  965MOL0     C30201   4.527   2.556   3.723  0.7574 -0.0449 -0.1144
  965MOL0     C30202   4.661   2.549   3.806  0.1051  0.0767 -0.0975
  965MOL0     C30203   4.694   2.413   3.851  0.3261 -0.9482 -0.0405
  965MOL0     C30204   4.731   2.303   3.881  0.0603 -0.9951  0.4886
  965MOL0     C30205   4.237   2.247   3.273 -0.6612  0.2992 -0.5703
  965MOL0     C30206   4.128   2.177   3.223 -0.6253 -0.1341  0.7540
  965MOL0     C30207   4.147   2.119   3.084  0.1482  0.7754  0.5236
  965MOL0     H30208   3.663   1.847   3.241 -0.5741  0.0795  1.5843
  965MOL0     H30209   3.414   1.854   3.162  0.6168 -1.0691  0.2205
  965MOL0     H30210   3.206   2.240   3.185 -3.4865 -0.9624 -0.7089
  965MOL0     H30211   3.319   2.215   3.040  0.7924  0.3791  0.2840
  965MOL0     H30212   3.071   2.256   2.982  1.4792  0.6033  0.8562
  965MOL0     H30213   3.022   2.117   3.079 -1.0837  0.7517 -2.0278
  965MOL0     H30214   3.159   1.971   2.935 -0.4450 -0.0324  1.0275
  965MOL0     H30215   3.188   2.115   2.832  1.3469 -0.8722  0.8955
  965MOL0     H30216   3.014   1.959   2.763  1.2602  2.7241 -1.6408
  965MOL0     H30217   2.918   1.991   2.913  1.2465 -0.9508  0.5511
  965MOL0     H30218   2.837   2.201   2.831  0.5181  2.4031 -0.6890
  965MOL0     H30219   2.985   2.229   2.748 -1.2373  0.6166  0.1259
  965MOL0     H30220   2.912   2.036   2.582  0.2257  0.6089  0.9349
  965MOL0     H30221   2.763   2.016   2.687 -0.8613  0.9689  3.1779
  965MOL0     H30222   2.748   2.138   2.454 -3.4100  2.4305 -0.7789
  965MOL0     H30223   2.830   2.271   2.537  0.4306 -0.0204 -0.4532
  965MOL0     H30224   2.618   2.321   2.544  0.9989  1.4928  1.5875
  965MOL0     H30225   2.555   2.161   2.573 -1.7950  1.2678  0.8998
  965MOL0     H30226   2.725   2.483   2.740 -2.9974  1.5500 -0.4427
  965MOL0     H30227   2.686   2.615   2.956 -0.0780  1.8843  1.8508
  965MOL0     H30228   2.650   2.525   3.107 -2.1220 -1.0635 -1.9112
  965MOL0     H30229   2.869   2.417   3.120  0.7534  0.4559  2.2658
  965MOL0     H30230   2.925   2.496   2.971  1.1131  3.3621  1.0885
  965MOL0     H30231   2.810   2.633   3.220 -1.8528 -3.4420 -0.1770
  965MOL0     H30232   2.897   2.707   3.080 -0.8761 -0.7683 -0.9890
  965MOL0     H30233   3.062   2.701   3.264 -1.3434 -0.1009 -0.1806
  965MOL0     H30234   3.100   2.573   3.138 -2.7505 -2.0414 -1.5861
  965MOL0     H30235   3.271   2.652   3.321 -0.7580 -1.1637 -1.0739
  965MOL0     H30236   3.441   2.611   3.478 -0.0843 -0.3080 -1.0238
  965MOL0     H30237   3.701   2.187   3.573 -2.6966 -1.4547 -1.5403
  965MOL0     H30238   3.859   2.055   3.678 -1.9404 -0.7293 -0.5636
  965MOL0     H30239   4.021   2.014   3.835  2.5580  0.3812  1.0182
  965MOL0     H30240   4.057   1.915   3.967  0.8553 -0.4373 -1.5482
  965MOL0     H30241   4.023   1.734   3.869 -0.5032 -2.0927 -1.2845
  965MOL0     H30242   3.845   1.759   3.863 -0.4744 -3.9618 -3.0618
  965MOL0     H30243   3.937   1.689   3.660 -2.2216  1.2327 -2.1898
  965MOL0     H30244   3.870   1.854   3.642 -0.6816 -1.2140  0.7252
  965MOL0     H30245   4.166   1.782   3.693 -1.0222 -2.1686  0.2202
  965MOL0     H30246   4.100   1.952   3.654 -0.7448 -0.2289  1.3169
  965MOL0     H30247   4.062   1.883   3.424  0.7464 -0.9260 -2.9206
  965MOL0     H30248   4.090   1.714   3.457  2.8316 -2.1794  1.4646
  965MOL0     H30249   4.284   1.952   3.430  0.3083  0.0820  0.8544
  965MOL0     H30250   4.326   1.787   3.506 -2.2055 -4.7805 -1.5387
  965MOL0     H30251   4.203   1.810   3.238  0.5769 -0.9872 -0.2362
  965MOL0     H30252   4.269   1.671   3.298 -1.2857 -0.3391 -4.6110
  965MOL0     H30253   4.426   1.752   3.134 -1.3306  2.6264 -1.1079
  965MOL0     H30254   4.437   1.908   3.219  0.2632  0.5151 -0.7673
  965MOL0     H30255   3.631   2.055   4.051  1.9372  0.5637 -0.1610
  965MOL0     H30256   3.472   2.209   3.936  2.5757 -0.2982  2.9296
  965MOL0     H30257   3.250   2.227   3.546 -1.3169  0.0344 -0.2166
  965MOL0     H30258   3.048   2.323   3.466  1.0638 -0.6275  1.4895
  965MOL0     H30259   3.401   2.265   3.284  0.5754  0.6430  3.5066
  965MOL0     H30260   3.619   2.257   3.373  1.6240 -2.3247  3.5503
  965MOL0     H30261   3.928   2.241   3.493  0.2212  1.3403  0.2031
  965MOL0     H30262   4.118   2.358   3.561 -2.7020 -0.7656 -1.1044
  965MOL0     H30263   4.334   2.369   3.648  1.5724 -2.2477 -0.9092
  965MOL0     H30264   4.311   2.513   3.544 -0.9298 -0.4275  1.1043
  965MOL0     H30265   4.562   2.529   3.514 -0.6234  1.9703  0.8920
  965MOL0     H30266   4.595   2.383   3.612  0.0595  0.2189 -0.1178
  965MOL0     H30267   4.442   2.520   3.782 -0.1364 -0.6413 -1.7064
  965MOL0     H30268   4.497   2.656   3.690 -1.3424 -0.3378  0.7054
  965MOL0     H30269   4.743   2.586   3.743 -2.0268  1.4913 -2.2474
  965MOL0     H30270   4.647   2.609   3.896  1.0515  0.3884 -0.1518
  965MOL0     H30271   4.754   2.201   3.901 -0.7046 -1.2087  0.3088
  965MOL0     H30272   4.330   2.244   3.218  0.6203  2.2372  1.3620
  965MOL0     H30273   4.251   2.143   3.061  0.3931 -0.3759  0.3681
  965MOL0     H30274   4.132   2.011   3.090  1.5439  0.4665 -0.8670
  965MOL0     H30275   4.083   2.168   3.009 -1.9455  0.0406  1.7432
  966MOL0     O30276   2.134   2.367   0.863  0.1053  0.3403 -0.1453
  966MOL0     C30277   2.141   2.414   0.748  0.2066  0.6561  0.0997
  966MOL0     O30278   2.156   2.549   0.722  0.1393 -0.4248 -1.0579
  966MOL0     C30279   2.285   2.585   0.681 -0.3841 -0.1177 -1.1968
  966MOL0     C30280   2.317   2.660   0.571  0.9371  0.1349 -0.9122
  966MOL0     C30281   2.451   2.682   0.539  0.2179  0.4532  0.1307
  966MOL0     C30282   2.556   2.639   0.624 -0.1576  0.4952 -0.3977
  966MOL0     O30283   2.689   2.673   0.607  0.4017  0.8320  0.9357
  966MOL0     C30284   2.737   2.682   0.475 -1.1262  0.2274 -0.1157
  966MOL0     C30285   2.881   2.692   0.473 -0.3238 -0.0761 -0.1404
  966MOL0     C30286   2.935   2.718   0.342  0.1596 -0.3950 -0.4368
  966MOL0     C30287   3.087   2.737   0.365  1.2786  0.5285 -0.3550
  966MOL0     C30288   3.162   2.761   0.240 -0.5209  0.7424  0.4057
  966MOL0     C30289   3.314   2.746   0.267 -0.5380  0.3202 -0.4862
  966MOL0     C30290   3.388   2.716   0.141  0.3522  0.1216  0.3980
  966MOL0     C30291   3.536   2.706   0.165  0.4433  0.2292  0.6948
  966MOL0     N30292   3.611   2.678   0.036  0.2718  0.4082 -0.2331
  966MOL0     C30293   3.728   2.747   0.022  0.5674  0.2065 -0.0512
  966MOL0     C30294   3.772   2.697  -0.100  0.5479 -0.4498  0.6235
  966MOL0     C30295   3.889   2.747  -0.176  0.2110  0.0559  0.0416
  966MOL0     C30296   3.980   2.860  -0.111  0.0300  0.7510  0.4764
  966MOL0     C30297   4.084   2.888  -0.218 -0.7032 -0.6816  0.2296
  966MOL0     C30298   4.208   2.808  -0.195  0.0088 -0.1793 -0.1268
  966MOL0     O30299   4.302   2.880  -0.110 -0.0120 -0.0822  0.1469
  966MOL0     C30300   4.390   2.959  -0.178  0.6915 -0.5932  0.2076
  966MOL0     C30301   4.386   3.001  -0.313  0.1973  0.1342 -0.1620
  966MOL0     C30302   4.492   3.087  -0.364  0.6738  0.6862  0.0126
  966MOL0     C30303   4.596   3.138  -0.278  0.3085  0.5959 -0.0356
  966MOL0     C30304   4.699   3.228  -0.333 -0.2934 -0.9754  0.0734
  966MOL0     O30305   4.768   3.292  -0.237  0.6181 -0.5404 -0.5314
  966MOL0     C30306   4.856   3.400  -0.263  0.8639  0.2936 -0.6390
  966MOL0     C30307   4.982   3.377  -0.324  0.6428 -0.3555 -1.0624
  966MOL0     C30308   5.078   3.480  -0.330 -0.3614  1.0048 -1.1218
  966MOL0     C30309   5.048   3.601  -0.264 -0.1387 -0.3477  0.2016
  966MOL0     O30310   5.148   3.693  -0.266 -0.2734  0.8178  0.1699
  966MOL0     C30311   5.138   3.802  -0.180  0.3577 -0.0224  0.1417
  966MOL0     C30312   5.062   3.921  -0.246  0.2310  0.8520 -0.0652
  966MOL0     C30313   5.146   3.993  -0.355  0.1960  1.1007  0.3741
  966MOL0     C30314   5.267   4.064  -0.293  0.1523 -0.0233  0.6146
  966MOL0     C30315   5.362   4.114  -0.404  0.3900 -0.4980 -0.7964
  966MOL0     C30316   5.306   4.226  -0.494 -0.2811 -0.7793  0.2639
  966MOL0     C30317   5.415   4.259  -0.602 -0.2143 -0.6564  1.0426
  966MOL0     C30318   5.465   4.158  -0.701  0.3079  0.3976 -0.1242
  966MOL0    Cl30319   5.321   4.120  -0.795 -0.0610 -0.0313 -0.7225
  966MOL0     C30320   4.921   3.626  -0.217 -0.8371 -0.1486  0.8520
  966MOL0     C30321   4.816   3.527  -0.220 -0.0136 -0.2490 -0.4539
  966MOL0     O30322   4.719   3.234  -0.453 -0.0259 -0.2794 -0.1685
  966MOL0     C30323   4.594   3.097  -0.143  0.2225  0.0587 -0.1168
  966MOL0     C30324   4.486   3.013  -0.105  0.3748 -0.2662  0.7118
  966MOL0     N30325   3.683   2.606  -0.134 -0.5621  1.0765 -0.1952
  966MOL0     N30326   3.585   2.584  -0.055  0.1815  0.1077 -0.0037
  966MOL0     C30327   2.521   2.575   0.741  0.3589 -0.6436  0.2269
  966MOL0     C30328   2.391   2.551   0.772 -0.1765  0.5130  0.6387
  966MOL0     C30329   2.109   2.328   0.636  0.9838  0.0887 -0.2963
  966MOL0     C30330   2.050   2.393   0.523 -0.2157  0.1219  0.0479
  966MOL0     C30331   2.015   2.323   0.408 -0.8075 -0.1403 -1.2194
  966MOL0     C30332   2.038   2.183   0.408  0.0883  0.5926 -0.3713
  966MOL0     O30333   2.006   2.108   0.292 -0.4272  0.5866 -0.6967
  966MOL0     C30334   1.947   2.175   0.181  0.1970 -0.0134  0.2087
  966MOL0     C30335   1.900   2.073   0.075 -0.1486  0.3397  1.4121
  966MOL0     C30336   1.810   1.970   0.143 -0.3826  0.4002 -0.1918
  966MOL0     C30337   1.751   1.857   0.064  0.4039  0.0556  0.6044
  966MOL0     C30338   1.665   1.912  -0.048 -0.7534  0.6076  0.7973
  966MOL0     C30339   1.594   1.945  -0.147  0.3208  0.4729  0.2309
  966MOL0     C30340   2.093   2.118   0.517 -0.6088 -0.0106  0.1859
  966MOL0     C30341   2.129   2.189   0.635  0.2609 -0.5509 -0.5975
  966MOL0     C30342   2.192   2.121   0.745 -0.2876 -0.2487  0.1228
  966MOL0     H30343   2.239   2.700   0.507 -0.7794 -2.6067 -0.7330
  966MOL0     H30344   2.470   2.737   0.448 -2.0195  2.0642  0.5822
  966MOL0     H30345   2.705   2.601   0.407 -0.1376 -1.3307  1.1963
  966MOL0     H30346   2.696   2.772   0.430 -1.2631 -0.0161 -0.4882
  966MOL0     H30347   2.927   2.603   0.518  0.3893  0.1102 -0.4871
  966MOL0     H30348   2.910   2.774   0.539  0.9591 -1.1094  0.6334
  966MOL0     H30349   2.884   2.794   0.282 -1.3031 -1.2524 -0.3278
  966MOL0     H30350   2.935   2.630   0.277  2.5158 -1.7784  1.3021
  966MOL0     H30351   3.086   2.827   0.427 -3.8560  0.5510  0.0184
  966MOL0     H30352   3.131   2.652   0.418 -1.9034 -0.1466  1.4801
  966MOL0     H30353   3.132   2.698   0.155 -0.0941 -0.1071  0.8771
  966MOL0     H30354   3.129   2.862   0.214  0.8536  0.8942 -0.8918
  966MOL0     H30355   3.348   2.836   0.320 -4.3385  0.5298  2.0207
  966MOL0     H30356   3.330   2.666   0.340 -0.3718  1.2368  0.5045
  966MOL0     H30357   3.365   2.774   0.051 -0.1284 -0.3865  0.1869
  966MOL0     H30358   3.343   2.622   0.109  0.3276 -0.3871  1.8472
  966MOL0     H30359   3.575   2.794   0.217  1.8096  0.9027 -1.3029
  966MOL0     H30360   3.556   2.621   0.231 -2.3309  0.0669  1.4476
  966MOL0     H30361   3.775   2.825   0.082  2.0034 -1.5671  1.2912
  966MOL0     H30362   3.959   2.663  -0.181 -0.6887 -0.6260 -2.3268
  966MOL0     H30363   3.856   2.760  -0.279 -1.4306  3.4948  0.8502
  966MOL0     H30364   3.928   2.954  -0.093 -0.3266  0.5523  0.4792
  966MOL0     H30365   4.028   2.832  -0.016 -1.1012 -0.6239  0.6747
  966MOL0     H30366   4.112   2.994  -0.213 -2.1332 -0.2592 -0.2806
  966MOL0     H30367   4.051   2.864  -0.320 -1.5067  2.6873 -0.4452
  966MOL0     H30368   4.253   2.782  -0.291  2.6249 -1.3574  1.2884
  966MOL0     H30369   4.177   2.716  -0.145  1.1376  0.0186  0.9895
  966MOL0     H30370   4.303   2.974  -0.378 -1.9998  0.1520  2.4495
  966MOL0     H30371   4.485   3.124  -0.465 -1.8473  0.5292  0.0670
  966MOL0     H30372   4.996   3.276  -0.359 -4.1121 -2.4208  1.9786
  966MOL0     H30373   5.176   3.455  -0.368  0.1894  0.7842  0.3752
  966MOL0     H30374   5.095   3.776  -0.083 -2.3752  1.3006 -0.6250
  966MOL0     H30375   5.238   3.822  -0.140 -0.4396  1.3764  1.5403
  966MOL0     H30376   4.973   3.887  -0.298  0.4854 -0.7509  0.4832
  966MOL0     H30377   5.032   3.990  -0.166 -0.2598 -0.4396  0.8968
  966MOL0     H30378   5.167   3.920  -0.434 -1.4578 -1.6033  2.2815
  966MOL0     H30379   5.080   4.067  -0.401 -0.5800 -0.5285 -1.2644
  966MOL0     H30380   5.320   3.994  -0.227 -2.2494 -1.9543  0.6416
  966MOL0     H30381   5.245   4.151  -0.232  0.7543  0.0006  0.8112
  966MOL0     H30382   5.391   4.024  -0.459  1.1511 -1.6295  1.3377
  966MOL0     H30383   5.459   4.148  -0.366  1.3985 -0.7497 -2.9476
  966MOL0     H30384   5.216   4.201  -0.549  1.8325 -3.4816 -2.2710
  966MOL0     H30385   5.289   4.308  -0.424 -0.7668 -0.0032 -0.7410
  966MOL0     H30386   5.501   4.300  -0.548  0.5968 -1.1590  0.1656
  966MOL0     H30387   5.369   4.338  -0.663 -3.1605 -3.1804 -0.2600
  966MOL0     H30388   5.542   4.191  -0.771 -2.4742 -0.0317 -3.6822
  966MOL0     H30389   5.506   4.071  -0.649 -0.6059  0.1547  0.2092
  966MOL0     H30390   4.881   3.719  -0.176 -0.3964 -0.1399  1.2657
  966MOL0     H30391   4.720   3.534  -0.170  0.0012 -1.8740 -0.1264
  966MOL0     H30392   4.663   3.131  -0.067 -1.9624  0.3637  1.8280
  966MOL0     H30393   4.487   2.974  -0.004  1.6521 -0.5965  0.5933
  966MOL0     H30394   2.592   2.543   0.817 -0.5193 -0.4684  1.1421
  966MOL0     H30395   2.361   2.518   0.871 -3.9913  0.1949 -0.4668
  966MOL0     H30396   2.028   2.498   0.539  1.1612  0.3205  0.7964
  966MOL0     H30397   1.968   2.374   0.325 -1.4130  1.4983  0.0868
  966MOL0     H30398   2.013   2.241   0.125 -1.8941  1.2060 -0.9523
  966MOL0     H30399   1.861   2.235   0.210 -1.4410 -1.9884 -0.3333
  966MOL0     H30400   1.987   2.016   0.040 -2.0056 -0.8274 -1.7363
  966MOL0     H30401   1.857   2.113  -0.017  0.3456 -3.7568 -0.8123
  966MOL0     H30402   1.737   2.020   0.207  1.4577  0.9241  1.6043
  966MOL0     H30403   1.870   1.910   0.213  2.9160 -1.5425 -4.2564
  966MOL0     H30404   1.837   1.804   0.022  0.4461  0.7140 -0.1570
  966MOL0     H30405   1.691   1.783   0.119 -1.1404 -1.3070 -2.5857
  966MOL0     H30406   1.534   1.983  -0.228 -2.1860 -2.6857  0.4251
  966MOL0     H30407   2.119   2.013   0.511 -2.0687 -0.3570 -0.4983
  966MOL0     H30408   2.273   2.182   0.787 -0.0296 -0.6185  0.1636
  966MOL0     H30409   2.116   2.083   0.814  0.6440 -0.5009  1.0220
  966MOL0     H30410   2.240   2.036   0.696 -3.1499 -1.2386 -1.2063
  967MOL0     O30411   0.829   8.550  11.212 -0.3025 -0.3343  0.1310
  967MOL0     C30412   0.950   8.557  11.200  0.2579 -0.1696 -0.2687
  967MOL0     O30413   1.034   8.562  11.316  0.1991  0.6419  0.1891
  967MOL0     C30414   0.992   8.541  11.442 -0.5117  0.4853  0.9470
  967MOL0     C30415   0.897   8.441  11.477  0.4207 -0.3148  0.7968
  967MOL0     C30416   0.853   8.434  11.612  0.0399 -0.1836  0.4987
  967MOL0     C30417   0.913   8.521  11.713  0.3375  0.2951  0.0253
  967MOL0     O30418   0.867   8.500  11.841 -0.2548  0.6284 -0.2915
  967MOL0     C30419   0.890   8.597  11.945  1.0340 -0.5393 -0.7516
  967MOL0     C30420   0.824   8.525  12.070 -0.8891 -0.0331 -1.5025
  967MOL0     C30421   0.875   8.578  12.209 -1.1162  0.0602 -0.2022
  967MOL0     C30422   0.804   8.502  12.326  0.4335 -1.5995  1.0699
  967MOL0     C30423   0.870   8.365  12.353  0.3994 -0.2814 -0.1243
  967MOL0     C30424   1.025   8.359  12.357  0.8300 -0.6274 -0.1548
  967MOL0     C30425   1.092   8.254  12.453  0.2906 -0.0598 -0.0208
  967MOL0     C30426   1.242   8.261  12.466  0.1961 -0.1718 -0.1042
  967MOL0     N30427   1.297   8.373  12.549  0.6538 -0.4455  0.0744
  967MOL0     C30428   1.304   8.509  12.504 -0.4263  0.4296 -1.0204
  967MOL0     C30429   1.380   8.572  12.603  0.3282  0.0399  0.8194
  967MOL0     C30430   1.432   8.712  12.617 -0.9696  0.3722 -0.9101
  967MOL0     C30431   1.583   8.700  12.665 -1.0367  1.0625 -0.2345
  967MOL0     C30432   1.640   8.841  12.688 -0.4391  0.0790  0.0360
  967MOL0     C30433   1.781   8.827  12.748 -0.5402  0.0829 -0.4921
  967MOL0     O30434   1.752   8.808  12.889 -0.2641  0.2285 -0.3810
  967MOL0     C30435   1.851   8.815  12.985  0.3523  0.2686 -0.7462
  967MOL0     C30436   1.802   8.819  13.114 -0.6725  0.8134 -0.4207
  967MOL0     C30437   1.897   8.820  13.212  1.2110 -0.4509 -0.5083
  967MOL0     C30438   2.039   8.813  13.189 -0.9168  0.1313 -0.3130
  967MOL0     C30439   2.134   8.816  13.307  0.0152 -0.5311 -0.0739
  967MOL0     O30440   2.257   8.849  13.291 -0.0785  0.6048 -0.4439
  967MOL0     C30441   2.344   8.883  13.390  0.2236  0.0927 -1.0297
  967MOL0     C30442   2.318   8.918  13.521 -0.1494  0.3709 -0.4204
  967MOL0     C30443   2.424   8.950  13.599  0.3951 -0.1536 -0.7194
  967MOL0     C30444   2.551   8.928  13.556 -0.3719  0.0460 -0.0061
  967MOL0     O30445   2.652   8.988  13.628  0.1962  0.4393  0.2420
  967MOL0     C30446   2.780   8.923  13.623  0.0222  1.0200 -0.3257
  967MOL0     C30447   2.832   8.902  13.765  0.6491 -0.1577  0.0989
  967MOL0     C30448   2.870   9.049  13.819 -0.3508 -0.4059  0.5378
  967MOL0     C30449   3.004   9.049  13.900 -0.3182 -0.4874 -0.4022
  967MOL0     C30450   3.046   9.195  13.903 -0.3626  1.1397  0.4015
  967MOL0     C30451   3.194   9.204  13.971  0.5904 -0.0402 -0.7820
  967MOL0     C30452   3.240   9.354  13.991  0.2389  0.2428  0.1748
  967MOL0     C30453   3.373   9.359  14.073  0.1002 -0.2701  1.0406
  967MOL0    Cl30454   3.313   9.343  14.247 -0.0545  0.1204  0.1255
  967MOL0     C30455   2.576   8.883  13.427 -0.3025  0.0216 -0.0550
  967MOL0     C30456   2.468   8.872  13.336 -0.0014  0.6637  0.2726
  967MOL0     O30457   2.082   8.776  13.412 -1.1116  0.1176 -0.3073
  967MOL0     C30458   2.086   8.804  13.062 -0.2907  0.7782  0.1752
  967MOL0     C30459   1.992   8.815  12.962  1.0448  0.3414  0.9624
  967MOL0     N30460   1.420   8.478  12.691  0.6688 -0.3591  0.2121
  967MOL0     N30461   1.367   8.363  12.664 -0.3932  0.3760  0.0634
  967MOL0     C30462   1.002   8.620  11.670 -0.5097 -0.2720 -0.5358
  967MOL0     C30463   1.041   8.624  11.538  0.1520 -0.6747 -0.0763
  967MOL0     C30464   1.013   8.574  11.062 -0.1870 -0.0253 -0.1390
  967MOL0     C30465   1.121   8.660  11.046 -0.2128 -0.4105  0.5915
  967MOL0     C30466   1.187   8.674  10.923 -0.6831  0.5924  0.7068
  967MOL0     C30467   1.148   8.589  10.818  0.9584  0.6083  0.2407
  967MOL0     O30468   1.193   8.602  10.693  0.6880  0.0982 -0.2217
  967MOL0     C30469   1.122   8.700  10.610 -0.4245  0.0075  0.1945
  967MOL0     C30470   1.153   8.851  10.634 -0.9181  0.5624  0.1188
  967MOL0     C30471   1.301   8.888  10.609  0.7590 -0.0297 -0.3315
  967MOL0     C30472   1.331   9.033  10.652  1.0807 -0.4797 -0.1185
  967MOL0     C30473   1.308   9.065  10.793  0.3620 -0.1443  0.1774
  967MOL0     C30474   1.283   9.089  10.908 -0.6360 -0.6036 -0.3268
  967MOL0     C30475   1.050   8.495  10.832  0.7548  0.7945 -0.5927
  967MOL0     C30476   0.977   8.489  10.954 -0.4491  0.0612 -0.0126
  967MOL0     C30477   0.888   8.372  10.965  0.1768  0.0158  0.3071
  967MOL0     H30478   0.858   8.374  11.402 -1.1291  3.3988 -2.0525
  967MOL0     H30479   0.787   8.359  11.656 -3.0925  1.4379 -1.0882
  967MOL0     H30480   0.994   8.617  11.971  0.8147  0.9229 -0.9290
  967MOL0     H30481   0.849   8.695  11.919  1.6954  0.1206  0.5467
  967MOL0     H30482   0.834   8.416  12.064 -0.7245 -0.0640 -0.7591
  967MOL0     H30483   0.722   8.561  12.052  0.0175  3.4921 -0.4261
  967MOL0     H30484   0.856   8.685  12.210 -2.8561 -0.2107 -0.2925
  967MOL0     H30485   0.984   8.577  12.222 -1.2311 -1.5514  1.0806
  967MOL0     H30486   0.817   8.573  12.408 -0.4121 -1.6713  1.2681
  967MOL0     H30487   0.697   8.493  12.304  0.1960  1.2878  0.6281
  967MOL0     H30488   0.850   8.324  12.453  6.2629 -1.0861  1.0537
  967MOL0     H30489   0.827   8.294  12.281 -0.5916  1.5972 -1.4531
  967MOL0     H30490   1.066   8.347  12.256 -0.9194  3.2603 -1.5528
  967MOL0     H30491   1.056   8.461  12.380  0.6855 -0.4527 -0.6987
  967MOL0     H30492   1.060   8.161  12.405  0.6288 -0.2258  0.0675
  967MOL0     H30493   1.048   8.266  12.552 -0.1440  1.5908 -0.3791
  967MOL0     H30494   1.266   8.168  12.519 -1.2596 -1.2532 -1.2897
  967MOL0     H30495   1.282   8.254  12.364 -2.0432 -1.2687 -0.9677
  967MOL0     H30496   1.274   8.565  12.416 -2.5138  1.0680  0.0257
  967MOL0     H30497   1.437   8.780  12.531  0.3625  0.0646 -1.1070
  967MOL0     H30498   1.379   8.759  12.700  0.2280  0.1171  0.0385
  967MOL0     H30499   1.591   8.641  12.756 -0.1438  0.4477 -0.6884
  967MOL0     H30500   1.639   8.650  12.585 -1.7637  2.7238 -1.8601
  967MOL0     H30501   1.568   8.892  12.752  0.8698  0.5792  1.1599
  967MOL0     H30502   1.640   8.902  12.597 -2.3513  3.2129  1.9626
  967MOL0     H30503   1.840   8.919  12.735 -0.4992 -0.3527 -4.1637
  967MOL0     H30504   1.834   8.741  12.706 -0.5124 -1.7148  2.8615
  967MOL0     H30505   1.701   8.833  13.151 -0.3477 -1.0971  1.4023
  967MOL0     H30506   1.853   8.834  13.311 -1.0188  0.2373 -1.5231
  967MOL0     H30507   2.215   8.929  13.553  0.0496  2.4851 -0.3580
  967MOL0     H30508   2.411   8.985  13.701  3.3851 -2.1654  0.4998
  967MOL0     H30509   2.780   8.824  13.577  0.7040  0.1017  1.5436
  967MOL0     H30510   2.851   8.989  13.573  0.5552 -1.6725 -3.4385
  967MOL0     H30511   2.757   8.861  13.833  1.5805 -3.1654 -0.5531
  967MOL0     H30512   2.920   8.838  13.778  1.1446  0.4786 -0.0729
  967MOL0     H30513   2.875   9.126  13.741  0.3012 -0.9135  0.0636
  967MOL0     H30514   2.789   9.101  13.871 -1.5421 -0.0168 -1.5795
  967MOL0     H30515   3.070   8.979  13.848 -0.7626 -0.7370 -0.6383
  967MOL0     H30516   2.985   9.011  14.001  1.3837 -0.6666 -0.1167
  967MOL0     H30517   2.975   9.250  13.965 -0.7636 -0.1917  1.1677
  967MOL0     H30518   3.047   9.238  13.802 -0.8780 -0.8284 -0.4871
  967MOL0     H30519   3.184   9.156  14.070 -1.8897 -0.4766 -1.1893
  967MOL0     H30520   3.271   9.153  13.912  1.4547  0.0592  0.2180
  967MOL0     H30521   3.167   9.396  14.061 -1.5882  0.1072 -1.5561
  967MOL0     H30522   3.238   9.412  13.899 -3.1605 -0.0740 -0.1016
  967MOL0     H30523   3.445   9.285  14.040 -0.1104 -0.1952  0.3995
  967MOL0     H30524   3.421   9.457  14.060  2.1822 -1.1726  1.6665
  967MOL0     H30525   2.677   8.858  13.394  0.2300 -0.5283  1.8538
  967MOL0     H30526   2.482   8.842  13.233 -3.5149  1.3007 -0.5032
  967MOL0     H30527   2.193   8.791  13.052 -0.1459  2.3058 -0.4359
  967MOL0     H30528   2.024   8.818  12.858  1.1627  4.2165  0.9752
  967MOL0     H30529   1.042   8.688  11.745 -0.2006 -1.5726  0.5141
  967MOL0     H30530   1.124   8.686  11.507  0.2686  0.7278  2.7253
  967MOL0     H30531   1.147   8.718  11.134  2.3907 -1.6116  0.6855
  967MOL0     H30532   1.277   8.734  10.925  0.4323 -0.5723 -3.5266
  967MOL0     H30533   1.016   8.697  10.633 -0.1770  3.7113  2.7860
  967MOL0     H30534   1.128   8.661  10.508 -1.7632 -1.0523  0.4951
  967MOL0     H30535   1.127   8.865  10.739 -2.7139 -1.1917 -0.0603
  967MOL0     H30536   1.084   8.916  10.579  0.6755  3.9239  1.7507
  967MOL0     H30537   1.331   8.878  10.504 -0.1295  0.3940 -0.6374
  967MOL0     H30538   1.365   8.822  10.669 -0.6001 -2.1575 -1.1070
  967MOL0     H30539   1.440   9.043  10.645  1.1455  0.8789  1.9759
  967MOL0     H30540   1.289   9.113  10.590 -3.7009 -0.4744  2.6432
  967MOL0     H30541   1.259   9.110  11.010 -0.0615  0.5038 -0.4066
  967MOL0     H30542   1.032   8.427  10.749  0.8181  0.4453 -0.3231
  967MOL0     H30543   0.894   8.326  11.064  2.8731 -1.5999 -0.4855
  967MOL0     H30544   0.786   8.409  10.957  0.8073  2.0769  1.1671
  967MOL0     H30545   0.903   8.291  10.894 -1.1884 -0.0503  0.0810
  968MOL0     O30546  10.536   7.698   9.863  0.5754 -0.4075 -0.4987
  968MOL0     C30547  10.505   7.752   9.753 -0.4747 -0.1930 -1.0383
  968MOL0     O30548  10.551   7.721   9.633 -0.1303 -1.0789 -0.5010
  968MOL0     C30549  10.689   7.707   9.625  0.2147 -0.0981  0.2216
  968MOL0     C30550  10.775   7.780   9.712 -0.2761  0.0488 -0.2894
  968MOL0     C30551  10.913   7.772   9.698  0.7268 -0.6103 -0.4491
  968MOL0     C30552  10.972   7.693   9.600 -0.7450 -0.3283  0.0040
  968MOL0     O30553  11.107   7.687   9.574 -0.1569 -0.2382 -0.1057
  968MOL0     C30554  11.203   7.744   9.661 -0.4940 -0.5443 -0.5609
  968MOL0     C30555  11.335   7.728   9.588  0.5280 -0.6423  0.0487
  968MOL0     C30556  11.433   7.625   9.655  0.1518  0.7446  1.0792
  968MOL0     C30557  11.564   7.609   9.569 -0.9957  0.9234 -0.3369
  968MOL0     C30558  11.640   7.486   9.626  0.1607 -0.6607 -0.0405
  968MOL0     C30559  11.763   7.455   9.544 -0.7444 -0.0616 -0.0242
  968MOL0     C30560  11.833   7.336   9.594 -0.4406  0.1202  0.4759
  968MOL0     C30561  11.903   7.361   9.722 -1.7752  0.0309 -0.2826
  968MOL0     N30562  12.032   7.285   9.711 -0.0408  1.1149  0.6256
  968MOL0     C30563  12.046   7.154   9.755  0.6120 -0.5429  0.1648
  968MOL0     C30564  12.178   7.123   9.738 -0.4240  0.5830  0.1830
  968MOL0     C30565  12.241   6.994   9.772 -0.7076  0.1460 -0.1091
  968MOL0     C30566  12.318   6.986   9.901  0.3397  0.1921 -0.3236
  968MOL0     C30567  12.443   7.066   9.891  0.4302 -1.0763  0.8798
  968MOL0     C30568  12.542   7.044  10.007 -0.1087  0.9931 -0.1751
  968MOL0     O30569  12.580   6.903  10.011 -0.1501  0.3101 -0.3409
  968MOL0     C30570  12.691   6.865  10.087 -0.3879 -0.3289  0.6566
  968MOL0     C30571  12.759   6.948  10.170  0.0109 -0.2224 -0.5850
  968MOL0     C30572  12.883   6.914  10.219  0.2623  0.3338  0.6675
  968MOL0     C30573  12.928   6.785  10.209 -0.9181  0.9407  1.4222
  968MOL0     C30574  13.067   6.760  10.269  0.1482 -0.1016 -0.2953
  968MOL0     O30575  13.127   6.856  10.347 -0.3364 -0.1485 -0.0610
  968MOL0     C30576  13.256   6.826  10.387  0.4889  0.8416  0.8044
  968MOL0     C30577  13.286   6.773  10.506  0.4117 -0.2436 -0.8240
  968MOL0     C30578  13.422   6.769  10.538  0.8527  0.4349 -0.3533
  968MOL0     C30579  13.524   6.801  10.453  0.0261 -0.9363 -0.9079
  968MOL0     O30580  13.656   6.799  10.487  0.0155 -0.0963  1.3342
  968MOL0     C30581  13.695   6.697  10.572  0.2808  0.0915  0.7825
  968MOL0     C30582  13.847   6.704  10.583  0.2292 -0.0452  0.0162
  968MOL0     C30583  13.899   6.839  10.629  0.2040 -0.2318 -0.1996
  968MOL0     C30584  13.836   6.883  10.757 -0.8075 -0.2864 -0.5386
  968MOL0     C30585  13.885   7.026  10.805 -0.3850 -0.1023 -0.0310
  968MOL0     C30586  13.790   7.099  10.909 -0.4809 -0.4840  1.4351
  968MOL0     C30587  13.774   7.035  11.041  0.5537  0.2071 -0.7571
  968MOL0     C30588  13.904   7.007  11.123 -0.1695 -0.4455 -0.5980
  968MOL0    Cl30589  13.977   7.156  11.188 -0.1064  0.2513  0.0052
  968MOL0     C30590  13.494   6.866  10.336  0.6611  0.0225  0.0041
  968MOL0     C30591  13.356   6.877  10.303 -0.3479 -0.2734  0.0944
  968MOL0     O30592  13.120   6.646  10.246  0.1894 -0.6352  0.7068
  968MOL0     C30593  12.862   6.695  10.125 -0.5885 -0.5878 -0.6038
  968MOL0     C30594  12.748   6.738  10.061 -0.7554  0.1502 -0.3095
  968MOL0     N30595  12.236   7.236   9.675  0.0304  0.4205 -0.8202
  968MOL0     N30596  12.150   7.332   9.666 -0.6436  0.5387 -0.5611
  968MOL0     C30597  10.888   7.627   9.512  1.2551  0.4307  0.7887
  968MOL0     C30598  10.744   7.634   9.522  0.5169  0.4024  0.0517
  968MOL0     C30599  10.405   7.861   9.757 -0.3389  0.4384 -0.4355
  968MOL0     C30600  10.417   7.967   9.665 -0.0631 -0.9346  0.0491
  968MOL0     C30601  10.317   8.069   9.653  0.4669  0.6126  0.0330
  968MOL0     C30602  10.211   8.067   9.750 -0.4113 -0.0255  0.5453
  968MOL0     O30603  10.112   8.164   9.761  0.2706 -0.2688 -0.0179
  968MOL0     C30604  10.121   8.295   9.695  0.4881 -1.5293 -0.2764
  968MOL0     C30605  10.042   8.412   9.766 -0.3967 -0.0097  0.4448
  968MOL0     C30606  10.095   8.432   9.906 -0.1482  0.1901 -0.4584
  968MOL0     C30607  10.236   8.501   9.924  0.3482  0.0554 -0.7731
  968MOL0     C30608  10.345   8.414   9.890  1.2147  0.2579  0.3850
  968MOL0     C30609  10.436   8.331   9.856  0.3099 -0.1612 -0.5352
  968MOL0     C30610  10.203   7.964   9.837 -0.2983 -0.5286 -0.2988
  968MOL0     C30611  10.294   7.859   9.850  0.0125 -0.2424 -0.3690
  968MOL0     C30612  10.261   7.752   9.956  0.6860  0.2920 -0.1941
  968MOL0     H30613  10.737   7.841   9.793 -1.5731  1.4689 -1.9084
  968MOL0     H30614  10.970   7.828   9.772 -3.2977  0.5303  2.1545
  968MOL0     H30615  11.186   7.851   9.676  0.6833 -0.4485  0.2265
  968MOL0     H30616  11.210   7.686   9.753 -0.1680  0.3386 -0.0232
  968MOL0     H30617  11.399   7.817   9.584 -1.0489  0.4719 -1.9246
  968MOL0     H30618  11.301   7.683   9.495 -3.6140 -0.7045  1.3857
  968MOL0     H30619  11.383   7.529   9.671  2.3253 -1.5810 -3.9144
  968MOL0     H30620  11.473   7.657   9.752  3.3959  0.9710 -0.2039
  968MOL0     H30621  11.531   7.567   9.474  0.8049 -1.4468 -0.0151
  968MOL0     H30622  11.619   7.703   9.566 -1.6943  1.3061 -2.7746
  968MOL0     H30623  11.665   7.512   9.729 -0.9925  0.6021 -0.0520
  968MOL0     H30624  11.583   7.392   9.629 -1.1055  0.0768 -0.2782
  968MOL0     H30625  11.721   7.414   9.452 -0.8671  0.2304 -0.0991
  968MOL0     H30626  11.839   7.533   9.532  0.1590 -0.9499 -0.2773
  968MOL0     H30627  11.902   7.311   9.513 -2.6820 -0.1831 -1.4174
  968MOL0     H30628  11.767   7.250   9.608  1.3449 -1.6055 -1.0648
  968MOL0     H30629  11.934   7.464   9.744  0.7335 -1.4274  4.2345
  968MOL0     H30630  11.840   7.323   9.802  0.3522 -0.4616  1.2408
  968MOL0     H30631  11.969   7.095   9.804  1.1923 -0.6002  1.0235
  968MOL0     H30632  12.166   6.915   9.777 -1.0097  0.4805  0.9372
  968MOL0     H30633  12.316   6.982   9.693  1.3106 -1.0075  1.8471
  968MOL0     H30634  12.255   7.012   9.986 -0.5735 -1.5423 -0.4252
  968MOL0     H30635  12.332   6.879   9.915 -4.2410 -0.3823  1.6060
  968MOL0     H30636  12.417   7.171   9.899  2.9041 -0.4459  1.6002
  968MOL0     H30637  12.488   7.045   9.793 -0.5950  1.2545 -0.1727
  968MOL0     H30638  12.510   7.082  10.105  0.2215  0.3001  0.2137
  968MOL0     H30639  12.632   7.102   9.990  2.4078 -2.7127 -0.8038
  968MOL0     H30640  12.722   7.047  10.196  3.1404  0.7858  0.4920
  968MOL0     H30641  12.938   6.993  10.271  1.8772  0.0295 -0.4780
  968MOL0     H30642  13.208   6.733  10.570 -0.0190  2.4334  0.4378
  968MOL0     H30643  13.440   6.714  10.630 -1.5565 -1.0677 -0.6684
  968MOL0     H30644  13.666   6.717  10.676  1.3148  4.9996  0.3613
  968MOL0     H30645  13.669   6.596  10.536  0.3218  0.6862 -1.0230
  968MOL0     H30646  13.868   6.625  10.655 -0.9843  0.0437  0.5000
  968MOL0     H30647  13.898   6.679  10.490 -1.6296 -0.3974 -0.9568
  968MOL0     H30648  14.008   6.834  10.643  0.2407 -0.6159 -0.6074
  968MOL0     H30649  13.881   6.915  10.553  1.4282  0.9805  0.6686
  968MOL0     H30650  13.854   6.815  10.841  0.8073  0.8336  0.0588
  968MOL0     H30651  13.729   6.903  10.741 -0.8920 -1.6689 -2.0431
  968MOL0     H30652  13.895   7.089  10.717 -1.5555  0.3992  0.1733
  968MOL0     H30653  13.982   7.013  10.853  0.1496 -0.9565 -1.2946
  968MOL0     H30654  13.836   7.197  10.920 -1.7862  1.0731 -3.9395
  968MOL0     H30655  13.693   7.112  10.860 -0.1291  1.2461  1.1313
  968MOL0     H30656  13.714   6.944  11.033  0.6623  0.0131  0.4637
  968MOL0     H30657  13.709   7.100  11.100  2.5800  1.2507  0.4490
  968MOL0     H30658  13.885   6.942  11.209 -1.4706 -1.9164 -1.9396
  968MOL0     H30659  13.979   6.944  11.073  2.0793  0.7034  1.1275
  968MOL0     H30660  13.582   6.893  10.279 -1.2729  0.0617 -3.1963
  968MOL0     H30661  13.334   6.910  10.202  1.4780 -0.5224 -0.4229
  968MOL0     H30662  12.903   6.595  10.112  0.5884 -0.5678  2.2257
  968MOL0     H30663  12.694   6.679   9.987 -0.1629 -0.9485  0.1147
  968MOL0     H30664  10.925   7.579   9.421 -1.1114  2.2573 -1.2771
  968MOL0     H30665  10.672   7.581   9.461 -1.4148 -0.4756  2.9264
  968MOL0     H30666  10.501   7.960   9.596  0.2481  1.2685  0.1295
  968MOL0     H30667  10.316   8.141   9.572 -0.6095  0.4690 -0.1033
  968MOL0     H30668  10.078   8.292   9.594  1.4811  0.6564 -0.8431
  968MOL0     H30669  10.227   8.315   9.679  0.8845 -2.5980  0.8641
  968MOL0     H30670   9.938   8.385   9.785 -0.3580 -0.7806 -0.3930
  968MOL0     H30671  10.051   8.498   9.698 -0.5198 -2.5529 -3.0449
  968MOL0     H30672  10.093   8.338   9.961  2.6884  0.3962  0.1685
  968MOL0     H30673  10.020   8.489   9.960  0.3729 -2.0756  2.9496
  968MOL0     H30674  10.226   8.584   9.853  1.5750  1.1405  0.2772
  968MOL0     H30675  10.247   8.549  10.022  0.1909 -0.7421 -0.3606
  968MOL0     H30676  10.507   8.254   9.834  1.4165  1.5147 -3.5422
  968MOL0     H30677  10.121   7.950   9.906 -1.3216 -1.6717 -1.6747
  968MOL0     H30678  10.240   7.662   9.897  1.3533  0.3267 -0.4967
  968MOL0     H30679  10.337   7.722  10.029 -1.5398 -1.7173  1.4575
  968MOL0     H30680  10.169   7.782  10.006  0.4519  2.1853 -1.6424
  969MOL0     O30681   7.617   7.369   7.799 -0.6468 -0.1139 -0.5119
  969MOL0     C30682   7.520   7.425   7.744  0.2868  0.1113  0.0249
  969MOL0     O30683   7.524   7.493   7.625 -0.7671 -0.3098  0.3294
  969MOL0     C30684   7.637   7.552   7.592 -0.9561 -0.1907  0.2189
  969MOL0     C30685   7.720   7.501   7.490  0.3282  0.0923 -0.1667
  969MOL0     C30686   7.849   7.568   7.470  0.8412  0.0798  0.3778
  969MOL0     C30687   7.897   7.668   7.563  0.6167  0.8446  0.8700
  969MOL0     O30688   8.033   7.695   7.552  0.0395  0.4644  0.5233
  969MOL0     C30689   8.086   7.808   7.611 -0.5472  0.2429 -0.9306
  969MOL0     C30690   8.236   7.830   7.568  0.3434 -0.6116  0.6823
  969MOL0     C30691   8.271   7.975   7.599 -0.3672 -0.3546  0.6747
  969MOL0     C30692   8.411   8.021   7.540  0.4517  0.5569 -0.8514
  969MOL0     C30693   8.459   8.162   7.603 -0.2816  0.4332  0.1148
  969MOL0     C30694   8.378   8.282   7.544  1.0774 -0.4232  0.8158
  969MOL0     C30695   8.422   8.335   7.408  0.3625 -0.1435  0.5070
  969MOL0     C30696   8.299   8.396   7.328 -0.7188 -0.6435 -0.3820
  969MOL0     N30697   8.212   8.304   7.269 -0.2193 -0.3182 -0.2584
  969MOL0     C30698   8.225   8.238   7.152 -0.1430 -0.1436  0.4422
  969MOL0     C30699   8.124   8.154   7.135 -0.2266 -0.5601  0.0106
  969MOL0     C30700   8.088   8.054   7.031  0.0472  0.1801  0.5386
  969MOL0     C30701   8.171   7.927   7.036  0.1556 -0.4822  0.9529
  969MOL0     C30702   8.136   7.858   7.174  0.1117  0.1824  0.7161
  969MOL0     C30703   8.028   7.756   7.175  0.7558 -0.3735 -0.4890
  969MOL0     O30704   8.094   7.644   7.119 -0.3233  0.8058  0.2032
  969MOL0     C30705   8.039   7.527   7.075  0.0184  0.1999  0.6396
  969MOL0     C30706   8.116   7.431   7.007 -0.4861 -0.3320  0.7729
  969MOL0     C30707   8.068   7.302   6.988  1.4205 -0.0562  0.8386
  969MOL0     C30708   7.937   7.269   7.027  0.5009 -0.1878 -0.4687
  969MOL0     C30709   7.882   7.128   7.024  0.0522 -0.8731 -0.8037
  969MOL0     O30710   7.755   7.106   7.067 -0.9867  0.7162  0.4460
  969MOL0     C30711   7.690   6.989   7.055 -0.1250 -0.1389 -0.1036
  969MOL0     C30712   7.562   7.004   6.997  0.2430  0.2613  0.9218
  969MOL0     C30713   7.476   6.896   6.991 -0.2379  0.3042  0.2735
  969MOL0     C30714   7.530   6.767   7.025 -0.2513  0.0372  0.0715
  969MOL0     O30715   7.471   6.645   6.991 -0.0461 -0.0814 -0.0235
  969MOL0     C30716   7.329   6.631   6.981  0.1021 -0.4377 -0.6181
  969MOL0     C30717   7.275   6.493   6.962 -1.2215  0.5442 -0.5812
  969MOL0     C30718   7.309   6.394   7.074 -0.5181  0.1096 -0.1473
  969MOL0     C30719   7.216   6.278   7.085 -0.6047  0.2630  0.5114
  969MOL0     C30720   7.263   6.189   7.194  1.0693 -0.2036  0.0153
  969MOL0     C30721   7.198   6.051   7.183 -0.3307  0.4953  0.0900
  969MOL0     C30722   7.042   6.067   7.167 -0.2312  0.0442 -0.0700
  969MOL0     C30723   6.975   6.139   7.275  0.2642  0.6648  0.2091
  969MOL0    Cl30724   7.024   6.098   7.435 -0.0744 -0.0781  0.8109
  969MOL0     C30725   7.659   6.758   7.082  0.6119 -0.5169  0.0236
  969MOL0     C30726   7.731   6.871   7.108 -0.2954  0.4029  0.1926
  969MOL0     O30727   7.965   7.042   6.990  0.1622 -0.0530 -0.5296
  969MOL0     C30728   7.848   7.374   7.070 -0.1406  0.2475  0.5856
  969MOL0     C30729   7.903   7.495   7.102  0.1380  0.5191  0.2058
  969MOL0     N30730   8.045   8.180   7.255 -0.6843  0.2944  0.3439
  969MOL0     N30731   8.098   8.271   7.323  0.2030 -1.2361 -0.0951
  969MOL0     C30732   7.813   7.717   7.658  0.5676 -0.1603 -0.9930
  969MOL0     C30733   7.686   7.657   7.672 -0.3657 -0.3073 -0.7686
  969MOL0     C30734   7.381   7.415   7.805  0.5640  0.1404  0.3842
  969MOL0     C30735   7.276   7.436   7.718 -0.6371  0.5298 -0.1537
  969MOL0     C30736   7.149   7.446   7.762 -0.3233 -0.1410 -0.2931
  969MOL0     C30737   7.111   7.418   7.894 -0.0547 -0.7583 -0.0219
  969MOL0     O30738   6.979   7.422   7.909  0.1056  0.6624  0.0247
  969MOL0     C30739   6.925   7.387   8.043  0.1058  1.2863  0.2406
  969MOL0     C30740   6.773   7.350   8.034 -0.4202 -0.0782 -0.2445
  969MOL0     C30741   6.689   7.484   8.041 -0.8433  0.0268 -0.1800
  969MOL0     C30742   6.543   7.450   8.031 -0.4438  0.6883  0.2766
  969MOL0     C30743   6.452   7.555   7.982 -0.1025 -0.1577 -0.4466
  969MOL0     C30744   6.384   7.642   7.936  0.3884  0.1588  0.0521
  969MOL0     C30745   7.217   7.385   7.988 -0.0363  0.8014  0.2626
  969MOL0     C30746   7.350   7.399   7.945  0.8523  0.2954  0.1470
  969MOL0     C30747   7.454   7.377   8.048 -0.1260  0.2289  0.5231
  969MOL0     H30748   7.681   7.431   7.416 -0.4056  0.1516  0.1558
  969MOL0     H30749   7.910   7.544   7.384 -1.5252 -0.1915 -1.3340
  969MOL0     H30750   8.026   7.896   7.586  0.4762  1.3323  0.3369
  969MOL0     H30751   8.095   7.793   7.719 -0.2009  1.6962 -0.7319
  969MOL0     H30752   8.259   7.817   7.462  2.0121 -2.5091  1.2218
  969MOL0     H30753   8.301   7.760   7.621  0.6716 -0.6679  0.2134
  969MOL0     H30754   8.269   7.988   7.707  0.5045  3.2182  0.3954
  969MOL0     H30755   8.205   8.048   7.549  0.1329 -1.5544 -1.9321
  969MOL0     H30756   8.485   7.949   7.576 -0.4569  0.9602  2.1179
  969MOL0     H30757   8.401   8.019   7.431 -1.0440 -1.9321 -0.7374
  969MOL0     H30758   8.439   8.149   7.710 -2.3378  2.6352  0.0776
  969MOL0     H30759   8.566   8.176   7.588 -0.4666  0.5471 -1.2832
  969MOL0     H30760   8.276   8.245   7.528  1.8457 -1.4298 -2.5395
  969MOL0     H30761   8.372   8.363   7.617  1.1123  0.0879  0.2574
  969MOL0     H30762   8.482   8.268   7.345  1.1896  1.3695 -0.3595
  969MOL0     H30763   8.491   8.416   7.433 -1.0992  1.0975  0.6955
  969MOL0     H30764   8.239   8.462   7.392 -0.2170 -1.9134  1.4692
  969MOL0     H30765   8.335   8.462   7.248 -0.1130  0.8579  1.0596
  969MOL0     H30766   8.296   8.263   7.075 -1.1981  0.3998 -0.3813
  969MOL0     H30767   7.986   8.019   7.049 -0.0627  0.8028  1.1750
  969MOL0     H30768   8.103   8.098   6.932 -0.5872  0.3127  0.4982
  969MOL0     H30769   8.148   7.864   6.949 -3.8255  2.0273 -0.1101
  969MOL0     H30770   8.278   7.947   7.027  0.2385 -1.8182 -3.0346
  969MOL0     H30771   8.105   7.932   7.248 -1.3842  0.4983 -0.1859
  969MOL0     H30772   8.229   7.812   7.207  0.0984 -1.8372 -1.7288
  969MOL0     H30773   7.938   7.794   7.126 -0.3303 -3.0090 -0.7199
  969MOL0     H30774   8.002   7.742   7.280 -0.3688  2.8494 -0.2222
  969MOL0     H30775   8.222   7.445   6.986 -1.2478  2.7040 -1.8137
  969MOL0     H30776   8.137   7.226   6.953  1.1204  0.1750 -0.2985
  969MOL0     H30777   7.527   7.099   6.960 -3.3478 -0.7717  1.3068
  969MOL0     H30778   7.385   6.897   6.932 -0.7545 -2.0069  0.9285
  969MOL0     H30779   7.289   6.667   7.076 -1.4830 -1.6988 -0.7734
  969MOL0     H30780   7.293   6.701   6.905  1.2650  0.2226 -0.5884
  969MOL0     H30781   7.166   6.490   6.953 -1.0414 -1.2093 -3.2884
  969MOL0     H30782   7.316   6.445   6.873  0.1867 -3.7287  2.0803
  969MOL0     H30783   7.412   6.360   7.056 -0.9984 -1.0967 -0.7790
  969MOL0     H30784   7.317   6.442   7.171  3.9743  0.6165 -0.5442
  969MOL0     H30785   7.215   6.221   6.992 -3.2584  1.0660 -0.0277
  969MOL0     H30786   7.111   6.309   7.093 -2.5021 -4.6338 -1.7613
  969MOL0     H30787   7.224   6.230   7.288 -1.3286 -1.4912 -0.3329
  969MOL0     H30788   7.372   6.191   7.188  1.1363  3.1844  0.2529
  969MOL0     H30789   7.242   5.991   7.103  0.7563 -0.6420  1.4946
  969MOL0     H30790   7.229   5.996   7.272  1.5690 -1.6257 -1.7668
  969MOL0     H30791   7.014   5.962   7.165  3.6205 -1.2760  2.6847
  969MOL0     H30792   7.011   6.123   7.078  0.4613  0.2240 -0.2101
  969MOL0     H30793   6.976   6.248   7.265 -1.4663  0.7065  0.1455
  969MOL0     H30794   6.868   6.115   7.268  0.7427 -1.7477  0.3725
  969MOL0     H30795   7.689   6.658   7.112 -0.3010 -0.9989 -0.6225
  969MOL0     H30796   7.832   6.857   7.146  0.9501  2.3445 -2.1090
  969MOL0     H30797   7.741   7.358   7.079 -0.0752 -1.0773 -0.6347
  969MOL0     H30798   7.854   7.579   7.150 -0.8667 -0.9262  1.8338
  969MOL0     H30799   7.848   7.796   7.724  1.1107 -0.0718 -1.3737
  969MOL0     H30800   7.623   7.689   7.755  0.9743 -2.8403  1.4097
  969MOL0     H30801   7.291   7.443   7.611 -0.6672 -0.9917 -0.2753
  969MOL0     H30802   7.070   7.467   7.691 -1.3122 -1.4466  0.3722
  969MOL0     H30803   6.947   7.468   8.114  4.0144  1.7943 -1.3060
  969MOL0     H30804   6.983   7.303   8.083  1.9062  2.4687  0.2280
  969MOL0     H30805   6.748   7.273   8.108  0.8658 -0.0313  0.2669
  969MOL0     H30806   6.760   7.305   7.936 -0.3691  1.4671 -0.9883
  969MOL0     H30807   6.722   7.544   7.957 -0.8480  2.8214  1.6807
  969MOL0     H30808   6.710   7.548   8.127 -0.4774  1.8407 -1.5649
  969MOL0     H30809   6.528   7.368   7.960  2.3595  1.4399 -1.3419
  969MOL0     H30810   6.511   7.413   8.129  1.1310  1.0333  0.9509
  969MOL0     H30811   6.321   7.719   7.897 -0.4354 -0.7353 -0.4003
  969MOL0     H30812   7.202   7.369   8.094 -0.2065 -2.6676 -0.1819
  969MOL0     H30813   7.504   7.282   8.029  1.6430  0.8174  1.8981
  969MOL0     H30814   7.542   7.440   8.036  1.8118 -2.5754 -1.0752
  969MOL0     H30815   7.419   7.378   8.152 -0.7783  1.8955  0.3136
  970MOL0     O30816   7.895   0.908   3.765 -0.1882 -0.6864 -0.2102
  970MOL0     C30817   7.882   0.930   3.882  1.0369  0.1517 -0.4354
  970MOL0     O30818   7.989   0.933   3.969  0.2244 -0.2541 -0.7708
  970MOL0     C30819   8.109   0.884   3.929  0.2803  0.6495  0.2152
  970MOL0     C30820   8.198   0.960   3.854 -0.2300  0.1513 -0.1610
  970MOL0     C30821   8.322   0.897   3.818 -0.3971  0.3939  0.3123
  970MOL0     C30822   8.353   0.769   3.852 -0.5251 -0.0573 -0.0354
  970MOL0     O30823   8.473   0.714   3.803 -0.0227 -0.3053 -0.4294
  970MOL0     C30824   8.595   0.786   3.808  0.0114 -0.2154  0.5230
  970MOL0     C30825   8.703   0.690   3.850  0.0611 -0.5049  0.3622
  970MOL0     C30826   8.847   0.748   3.814 -0.4629  0.3660 -0.8546
  970MOL0     C30827   8.930   0.729   3.942 -0.3417  0.2843  0.6760
  970MOL0     C30828   9.066   0.805   3.944 -0.2187  0.4649  1.0316
  970MOL0     C30829   9.166   0.728   3.857  0.0422  0.1341  0.3007
  970MOL0     C30830   9.281   0.819   3.812  0.3318 -0.2283  0.5797
  970MOL0     C30831   9.399   0.748   3.756 -0.3403  0.2000  0.9513
  970MOL0     N30832   9.481   0.679   3.858  0.1745 -0.5574  0.3902
  970MOL0     C30833   9.580   0.741   3.937 -0.1443 -0.1733 -0.0426
  970MOL0     C30834   9.614   0.646   4.030 -0.1371  0.8299 -0.2202
  970MOL0     C30835   9.716   0.646   4.125 -0.1334 -0.3713 -0.0989
  970MOL0     C30836   9.817   0.537   4.093 -1.0399 -0.6280  0.1512
  970MOL0     C30837   9.914   0.522   4.220 -0.3275  0.5642 -0.3495
  970MOL0     C30838  10.009   0.632   4.244  0.3623  0.1938  0.4816
  970MOL0     O30839  10.095   0.601   4.353  0.2792 -0.7654 -0.3008
  970MOL0     C30840  10.193   0.687   4.384 -1.4208  0.3084  0.1774
  970MOL0     C30841  10.298   0.710   4.286  0.2367  0.6919 -0.7616
  970MOL0     C30842  10.400   0.801   4.308 -0.6058 -0.4868  0.2515
  970MOL0     C30843  10.417   0.878   4.430 -0.4561  0.6118  0.0903
  970MOL0     C30844  10.535   0.974   4.451  0.2852 -0.5403  0.3490
  970MOL0     O30845  10.546   1.041   4.572 -0.7778  0.1153  0.2833
  970MOL0     C30846  10.633   1.147   4.591  0.8383 -0.6870 -0.1673
  970MOL0     C30847  10.662   1.242   4.498 -0.3092 -0.1570  0.9585
  970MOL0     C30848  10.750   1.340   4.539 -0.9148  0.4569 -0.4942
  970MOL0     C30849  10.802   1.345   4.674  0.1522  1.1834 -0.4509
  970MOL0     O30850  10.871   1.448   4.724 -0.3641 -0.2971  0.1908
  970MOL0     C30851  10.814   1.578   4.690 -0.3572 -0.3462  0.3686
  970MOL0     C30852  10.886   1.679   4.788 -0.1469 -1.1286 -0.3036
  970MOL0     C30853  10.828   1.820   4.792 -0.3891  0.1414  0.8275
  970MOL0     C30854  10.872   1.917   4.906 -0.6038  0.8900  0.2467
  970MOL0     C30855  10.796   2.039   4.911 -0.9504  0.1683 -0.7338
  970MOL0     C30856  10.855   2.130   5.030  0.3480 -0.2028  0.7778
  970MOL0     C30857  10.779   2.259   5.010 -0.1088 -0.5077  0.2777
  970MOL0     C30858  10.818   2.370   5.099  0.2012 -0.0990  0.0650
  970MOL0    Cl30859  10.983   2.412   5.047 -0.1259  0.2236 -0.3709
  970MOL0     C30860  10.780   1.236   4.754 -0.7824 -0.0423  0.1394
  970MOL0     C30861  10.702   1.135   4.707  0.3657 -1.4274  0.3712
  970MOL0     O30862  10.623   0.975   4.364  1.0466 -0.4834 -0.1330
  970MOL0     C30863  10.308   0.857   4.517 -0.3407  0.8674 -0.3140
  970MOL0     C30864  10.209   0.763   4.508  0.0635 -0.3048  0.3892
  970MOL0     N30865   9.520   0.543   4.020  0.1337  0.4559 -0.5420
  970MOL0     N30866   9.453   0.563   3.911  0.2641  0.7808 -0.2567
  970MOL0     C30867   8.260   0.690   3.912 -0.2315 -0.6284  0.0991
  970MOL0     C30868   8.139   0.751   3.951  0.4593  0.5639 -0.2161
  970MOL0     C30869   7.759   0.957   3.945  0.5413 -0.6059  0.5292
  970MOL0     C30870   7.708   1.092   3.967 -0.0609  0.1613  0.3386
  970MOL0     C30871   7.594   1.117   4.045 -0.2112 -0.2796 -0.3505
  970MOL0     C30872   7.523   1.014   4.096  0.3085  1.0628 -0.2081
  970MOL0     O30873   7.407   1.029   4.173 -1.4995 -0.3735  0.2149
  970MOL0     C30874   7.380   1.166   4.212  0.8450 -0.4836  0.5280
  970MOL0     C30875   7.280   1.156   4.319  1.0126  0.9330  1.2172
  970MOL0     C30876   7.305   1.059   4.430  0.1661  0.4496  0.2616
  970MOL0     C30877   7.447   1.045   4.485  0.5558 -0.8042 -0.2814
  970MOL0     C30878   7.488   1.173   4.535  0.1121  0.0791 -0.1978
  970MOL0     C30879   7.497   1.284   4.581 -0.5501  0.2096  0.0487
  970MOL0     C30880   7.569   0.882   4.082  0.0840 -0.2469 -0.1686
  970MOL0     C30881   7.684   0.844   4.005  0.0686  0.6900 -0.2472
  970MOL0     C30882   7.740   0.698   4.001 -0.6491 -0.9525 -0.8043
  970MOL0     H30883   8.169   1.064   3.839  0.9648  0.8828  2.1268
  970MOL0     H30884   8.383   0.950   3.745 -0.8142  1.3352  0.6347
  970MOL0     H30885   8.620   0.838   3.715 -0.3504 -0.5112  0.2565
  970MOL0     H30886   8.577   0.859   3.888 -4.8968  0.6501 -1.0668
  970MOL0     H30887   8.706   0.605   3.781  2.2927  0.7965 -1.2721
  970MOL0     H30888   8.692   0.655   3.953  2.4990  0.8220  1.1384
  970MOL0     H30889   8.852   0.856   3.797  0.2602  0.5752  0.5054
  970MOL0     H30890   8.903   0.698   3.735 -0.0617 -3.3818  1.5449
  970MOL0     H30891   8.867   0.764   4.025  0.6034  1.0728  1.0880
  970MOL0     H30892   8.954   0.623   3.945 -0.2644  0.1300 -2.5365
  970MOL0     H30893   9.048   0.903   3.900 -1.7411 -0.9426 -1.7835
  970MOL0     H30894   9.100   0.810   4.048 -0.3768  1.4440  1.0464
  970MOL0     H30895   9.195   0.640   3.915 -2.4451  1.1160  3.3438
  970MOL0     H30896   9.133   0.687   3.761  1.1771 -1.2554  0.4694
  970MOL0     H30897   9.322   0.886   3.888  1.7688 -1.5300  0.9800
  970MOL0     H30898   9.240   0.877   3.728  1.6587  0.0236  0.0823
  970MOL0     H30899   9.361   0.673   3.685  0.0525 -1.8621  2.7955
  970MOL0     H30900   9.474   0.809   3.706  0.3366 -0.1346  1.5387
  970MOL0     H30901   9.623   0.838   3.911 -0.8314 -0.2932 -1.7927
  970MOL0     H30902   9.782   0.734   4.116 -0.2356 -0.4864 -2.7007
  970MOL0     H30903   9.662   0.641   4.220 -0.5743  5.3011  0.3430
  970MOL0     H30904   9.779   0.435   4.078  4.0388 -2.5522 -1.8831
  970MOL0     H30905   9.881   0.566   4.009  0.2789  1.1928  1.6964
  970MOL0     H30906   9.980   0.436   4.207  1.2531  1.4977  1.0257
  970MOL0     H30907   9.841   0.510   4.301 -1.8594  1.4468 -1.5435
  970MOL0     H30908   9.955   0.717   4.287 -2.3482 -2.5982  3.0823
  970MOL0     H30909  10.056   0.654   4.147 -2.1970  2.8603 -0.3164
  970MOL0     H30910  10.310   0.655   4.193 -0.3902 -0.6569 -0.0799
  970MOL0     H30911  10.474   0.811   4.229 -0.3890 -0.5845  0.4394
  970MOL0     H30912  10.635   1.242   4.393  0.2216 -1.1751  0.8172
  970MOL0     H30913  10.785   1.414   4.468 -0.4979 -0.3886 -1.1943
  970MOL0     H30914  10.829   1.613   4.588  0.6383  0.5244  0.7985
  970MOL0     H30915  10.708   1.576   4.715 -0.3387 -6.5767  1.4874
  970MOL0     H30916  10.871   1.633   4.886 -0.8982 -1.4503 -0.5666
  970MOL0     H30917  10.993   1.697   4.770 -0.8472  2.7926 -1.5193
  970MOL0     H30918  10.848   1.867   4.695 -2.7649 -0.0241  0.1746
  970MOL0     H30919  10.719   1.806   4.789 -0.5001  1.1050 -1.2945
  970MOL0     H30920  10.973   1.949   4.876 -1.1075  1.1675 -1.2713
  970MOL0     H30921  10.869   1.867   5.003 -0.8461 -1.7846 -1.0520
  970MOL0     H30922  10.693   2.016   4.942 -1.4617  2.2958 -0.6330
  970MOL0     H30923  10.796   2.090   4.814 -1.7032 -1.0474 -1.3938
  970MOL0     H30924  10.845   2.090   5.131  0.7535 -0.6402  0.6453
  970MOL0     H30925  10.963   2.143   5.018  0.7516 -1.9511  2.0449
  970MOL0     H30926  10.673   2.240   5.030 -0.7010  3.1861  1.2868
  970MOL0     H30927  10.797   2.294   4.908 -0.6782  2.1586  1.0108
  970MOL0     H30928  10.761   2.461   5.081 -0.8850 -0.5748  0.9578
  970MOL0     H30929  10.800   2.341   5.204 -1.5218  0.5446 -0.0246
  970MOL0     H30930  10.831   1.227   4.849 -2.2514  0.1791  0.9909
  970MOL0     H30931  10.659   1.057   4.770 -3.0826 -0.0500 -0.0351
  970MOL0     H30932  10.296   0.909   4.612 -2.9674  0.8089 -0.5428
  970MOL0     H30933  10.132   0.756   4.584  0.3264  1.5259  0.8707
  970MOL0     H30934   8.304   0.594   3.937  0.4621 -1.0052 -2.3488
  970MOL0     H30935   8.058   0.694   3.996 -0.7526  2.0425 -0.4166
  970MOL0     H30936   7.769   1.175   3.934  0.3690 -0.2678  0.0375
  970MOL0     H30937   7.571   1.223   4.049 -1.6797 -0.6321  1.6304
  970MOL0     H30938   7.329   1.220   4.131  1.3491  0.9152  1.0988
  970MOL0     H30939   7.473   1.219   4.237  1.3645 -0.3874 -1.4319
  970MOL0     H30940   7.187   1.124   4.272  1.3922 -0.4208  1.3551
  970MOL0     H30941   7.255   1.255   4.358 -1.5760  0.4543  0.9047
  970MOL0     H30942   7.268   0.961   4.399  0.1525  0.5357  0.0005
  970MOL0     H30943   7.232   1.075   4.510  0.5091  0.5594  0.5531
  970MOL0     H30944   7.449   0.963   4.558 -0.7467 -2.7653 -2.3126
  970MOL0     H30945   7.525   1.014   4.415  1.6323  1.8294 -0.3740
  970MOL0     H30946   7.490   1.380   4.628 -4.0104  1.3897 -2.4701
  970MOL0     H30947   7.512   0.816   4.146  2.6061  0.6013  3.2063
  970MOL0     H30948   7.828   0.690   3.937 -0.0231  3.1783 -0.7524
  970MOL0     H30949   7.776   0.660   4.096 -1.4462  0.9409  0.3110
  970MOL0     H30950   7.655   0.637   3.967 -0.6091 -1.2336 -0.4031
  971MOL0     O30951  10.945   1.778   2.505  0.8030  0.8148  1.2833
  971MOL0     C30952  10.951   1.893   2.474 -0.3984  0.0631 -0.2057
  971MOL0     O30953  11.027   1.950   2.372  0.3858 -0.1935 -0.1985
  971MOL0     C30954  11.103   1.879   2.279  1.0386 -0.2469  0.8188
  971MOL0     C30955  11.107   1.744   2.240 -0.6872 -0.7437 -0.9179
  971MOL0     C30956  11.194   1.703   2.139 -1.0710  0.8098  0.2481
  971MOL0     C30957  11.294   1.795   2.087  0.2113 -0.0972 -0.5388
  971MOL0     O30958  11.401   1.771   2.008 -0.6044  0.6917 -0.1405
  971MOL0     C30959  11.457   1.638   2.003 -0.0595 -0.6837 -0.0939
  971MOL0     C30960  11.593   1.629   1.938  0.0516 -0.2013  0.0294
  971MOL0     C30961  11.600   1.674   1.797  2.0454 -0.1202  0.0327
  971MOL0     C30962  11.734   1.648   1.731  0.4839 -0.4375 -0.1214
  971MOL0     C30963  11.856   1.695   1.796 -0.6962 -1.0172 -0.2176
  971MOL0     C30964  11.985   1.675   1.702  0.1461 -0.4552 -0.4742
  971MOL0     C30965  12.118   1.685   1.773  0.3613  0.7719  0.1979
  971MOL0     C30966  12.234   1.682   1.680 -0.5233 -0.5386 -0.2082
  971MOL0     N30967  12.336   1.702   1.779  0.4874 -0.1062 -0.4722
  971MOL0     C30968  12.394   1.607   1.857 -0.1186  0.6846 -0.4860
  971MOL0     C30969  12.495   1.676   1.926 -0.6917  0.3458 -0.3883
  971MOL0     C30970  12.589   1.613   2.036 -0.1108 -0.4475 -0.5893
  971MOL0     C30971  12.740   1.644   1.989 -0.3205 -0.2266 -0.9739
  971MOL0     C30972  12.775   1.580   1.854  0.7240  0.2889  0.2387
  971MOL0     C30973  12.746   1.429   1.862 -0.3236 -0.7849 -0.4014
  971MOL0     O30974  12.826   1.386   1.759  0.5158 -0.0873  0.0908
  971MOL0     C30975  12.918   1.291   1.784  0.5449  0.4998  0.9764
  971MOL0     C30976  13.049   1.315   1.803  0.1003  0.6204 -0.1319
  971MOL0     C30977  13.130   1.217   1.868  0.0876 -0.2459  0.7167
  971MOL0     C30978  13.078   1.083   1.888 -0.0143 -0.9010 -0.5037
  971MOL0     C30979  13.150   0.968   1.932  0.4673 -0.4433 -1.2857
  971MOL0     O30980  13.272   0.986   1.990 -1.0001 -0.2547  0.7975
  971MOL0     C30981  13.364   0.886   2.013  0.6895 -0.4326  0.8717
  971MOL0     C30982  13.387   0.786   1.914  0.2923  0.8443 -0.7098
  971MOL0     C30983  13.489   0.688   1.938 -0.1086 -0.2933 -0.1250
  971MOL0     C30984  13.549   0.677   2.064  0.9499 -0.1893 -0.3060
  971MOL0     O30985  13.645   0.579   2.108 -0.3206  0.1828 -0.1044
  971MOL0     C30986  13.674   0.485   2.001 -0.5288  0.1272 -0.4683
  971MOL0     C30987  13.763   0.370   2.050 -0.4934 -0.1383  0.6841
  971MOL0     C30988  13.829   0.275   1.951  0.4329 -0.2958 -0.0014
  971MOL0     C30989  13.861   0.139   2.030 -0.2765  0.6002  0.3219
  971MOL0     C30990  13.926   0.027   1.935 -0.4963 -0.2577  0.5133
  971MOL0     C30991  13.900  -0.118   1.979  0.4366  0.0396  0.4622
  971MOL0     C30992  14.018  -0.211   1.971 -0.4837 -0.3687  0.1219
  971MOL0     C30993  13.981  -0.349   2.036  0.9606  0.3702 -0.2590
  971MOL0    Cl30994  13.949  -0.319   2.214 -0.3808 -0.2917  0.0687
  971MOL0     C30995  13.528   0.773   2.161  0.0228 -0.1530  0.2045
  971MOL0     C30996  13.428   0.875   2.132  0.0632 -0.6719 -0.1161
  971MOL0     O30997  13.101   0.856   1.906  0.1888 -0.6853 -0.3406
  971MOL0     C30998  12.948   1.057   1.842 -0.4315 -0.0880 -0.6836
  971MOL0     C30999  12.871   1.159   1.787 -0.4423 -0.2003 -0.3183
  971MOL0     N31000  12.494   1.810   1.880  0.5400 -1.0392 -0.4497
  971MOL0     N31001  12.399   1.821   1.795 -0.1006 -0.5217  0.7174
  971MOL0     C31002  11.296   1.927   2.135  0.3088  0.5572  1.0017
  971MOL0     C31003  11.195   1.968   2.216  1.1499  0.9432  0.3134
  971MOL0     C31004  10.888   1.979   2.572  0.2624  0.1036  0.8122
  971MOL0     C31005  10.903   2.117   2.541  0.2547  0.1616 -0.0116
  971MOL0     C31006  10.828   2.210   2.612  0.4094 -1.7845 -0.1650
  971MOL0     C31007  10.747   2.178   2.721 -0.4042 -0.1641  0.3999
  971MOL0     O31008  10.680   2.274   2.793  1.2432 -0.0710  0.3338
  971MOL0     C31009  10.758   2.345   2.892 -0.4277 -0.2548 -0.9958
  971MOL0     C31010  10.733   2.294   3.030 -0.2112 -0.3711 -1.0237
  971MOL0     C31011  10.619   2.373   3.110 -0.8797  0.6288  0.2838
  971MOL0     C31012  10.560   2.268   3.204 -0.1310  0.9684 -0.5318
  971MOL0     C31013  10.463   2.184   3.137  0.9678 -0.3640  0.4348
  971MOL0     C31014  10.387   2.097   3.096 -0.2385 -0.1463 -0.0784
  971MOL0     C31015  10.740   2.046   2.760  0.8805  0.5996 -0.1704
  971MOL0     C31016  10.804   1.943   2.688 -0.4283  0.8205  0.3544
  971MOL0     C31017  10.790   1.808   2.743 -0.5760 -0.1700  0.9709
  971MOL0     H31018  11.037   1.674   2.284  1.9353 -1.2998  2.8013
  971MOL0     H31019  11.203   1.602   2.101  2.0614  1.3760 -0.8353
  971MOL0     H31020  11.466   1.600   2.105 -0.7183  1.0163  0.6337
  971MOL0     H31021  11.396   1.584   1.930 -0.6800  2.5149 -2.1452
  971MOL0     H31022  11.619   1.523   1.940  1.5188  0.1175 -0.4820
  971MOL0     H31023  11.658   1.687   2.005  0.7702 -0.3138 -0.5492
  971MOL0     H31024  11.576   1.781   1.799  2.4176 -0.0382  0.8113
  971MOL0     H31025  11.516   1.630   1.744  1.1730  1.3961  0.0905
  971MOL0     H31026  11.745   1.544   1.698 -0.3174 -0.4316 -0.4130
  971MOL0     H31027  11.724   1.710   1.642  0.5277 -0.1246  0.0891
  971MOL0     H31028  11.838   1.802   1.812  0.9438 -0.7255 -0.1519
  971MOL0     H31029  11.881   1.644   1.890  1.6853 -1.4519 -1.0025
  971MOL0     H31030  11.983   1.572   1.666  1.7128 -1.3499  1.7491
  971MOL0     H31031  11.972   1.745   1.620  1.0520 -0.3309 -0.5214
  971MOL0     H31032  12.120   1.602   1.845 -2.0361 -1.0271 -1.6392
  971MOL0     H31033  12.124   1.774   1.837 -1.8802  1.4892 -0.5109
  971MOL0     H31034  12.246   1.586   1.628 -2.3578  0.8750 -3.6167
  971MOL0     H31035  12.235   1.760   1.603  1.7646  0.1351  0.4520
  971MOL0     H31036  12.363   1.504   1.867 -2.0757  1.4569  2.8219
  971MOL0     H31037  12.573   1.675   2.125 -1.6280 -0.4141 -0.8621
  971MOL0     H31038  12.557   1.511   2.057 -0.4351  0.3085  3.2484
  971MOL0     H31039  12.744   1.753   1.975 -0.2458  0.2073  1.7766
  971MOL0     H31040  12.812   1.612   2.064  0.4913 -0.7873 -1.9738
  971MOL0     H31041  12.880   1.588   1.823  0.6495 -2.7076 -1.1555
  971MOL0     H31042  12.715   1.625   1.774  1.8061  0.6772 -0.3748
  971MOL0     H31043  12.645   1.391   1.849 -0.6272 -0.0439 -0.2588
  971MOL0     H31044  12.777   1.386   1.957  0.2621 -1.3618 -0.8426
  971MOL0     H31045  13.087   1.410   1.767 -0.0581  1.3402  1.5459
  971MOL0     H31046  13.232   1.249   1.885  0.5973 -0.4943 -1.5788
  971MOL0     H31047  13.338   0.792   1.818 -1.4383 -0.4024  0.0275
  971MOL0     H31048  13.527   0.637   1.850 -2.5932 -0.4884 -1.1534
  971MOL0     H31049  13.585   0.450   1.949 -0.5607 -1.0523  0.3526
  971MOL0     H31050  13.744   0.536   1.934  0.6959 -1.1877 -0.2471
  971MOL0     H31051  13.839   0.418   2.112  0.0330 -1.1309  0.8310
  971MOL0     H31052  13.702   0.319   2.125 -1.2296  1.5933  1.3305
  971MOL0     H31053  13.749   0.260   1.878 -0.7956  0.8641  1.0532
  971MOL0     H31054  13.917   0.324   1.909 -0.5342  1.4375 -0.0952
  971MOL0     H31055  13.768   0.096   2.066 -0.5706  1.3335  0.4548
  971MOL0     H31056  13.924   0.169   2.114  0.9367  0.7722 -0.6044
  971MOL0     H31057  14.034   0.042   1.942  0.1077 -4.1347  1.4938
  971MOL0     H31058  13.893   0.054   1.834 -3.3004  0.6867  1.5557
  971MOL0     H31059  13.864  -0.112   2.082 -0.3750  1.2778  0.1302
  971MOL0     H31060  13.822  -0.156   1.913  1.2265 -1.1318  0.1815
  971MOL0     H31061  14.103  -0.162   2.019 -1.1071  0.7417  0.1436
  971MOL0     H31062  14.046  -0.214   1.866 -1.2087 -1.4562 -0.0657
  971MOL0     H31063  13.895  -0.395   1.986  0.8874 -0.1938  0.3781
  971MOL0     H31064  14.066  -0.417   2.030  2.4109  1.9190  1.3006
  971MOL0     H31065  13.571   0.757   2.259 -0.4578 -2.4498  0.0983
  971MOL0     H31066  13.407   0.949   2.209 -1.9589 -2.3631  1.0651
  971MOL0     H31067  12.904   0.959   1.854  2.4810 -1.3224  1.1279
  971MOL0     H31068  12.768   1.149   1.754 -0.5563  0.8334 -0.2967
  971MOL0     H31069  11.362   1.998   2.086 -1.0357  0.7948 -0.5712
  971MOL0     H31070  11.197   2.075   2.234  0.6791  1.5225 -2.5300
  971MOL0     H31071  10.974   2.149   2.465  0.7861 -5.0382 -2.1229
  971MOL0     H31072  10.817   2.316   2.591 -1.5783 -1.5701  1.6703
  971MOL0     H31073  10.732   2.451   2.882 -4.4273 -0.7369  1.6840
  971MOL0     H31074  10.863   2.329   2.868  0.4907 -3.3569  3.7655
  971MOL0     H31075  10.819   2.314   3.095  0.1058  2.7618 -2.2202
  971MOL0     H31076  10.709   2.189   3.014 -1.2000 -0.8260  2.5225
  971MOL0     H31077  10.541   2.414   3.045 -2.2144 -2.3123 -0.1509
  971MOL0     H31078  10.678   2.455   3.153 -0.6067  2.2718 -2.9473
  971MOL0     H31079  10.643   2.208   3.243 -1.1558 -0.6386 -0.7393
  971MOL0     H31080  10.520   2.321   3.291 -3.5170  0.6739 -1.7961
  971MOL0     H31081  10.324   2.023   3.049  0.6114 -1.2436  0.4521
  971MOL0     H31082  10.678   2.023   2.846  3.0412  2.3006  2.0025
  971MOL0     H31083  10.890   1.779   2.775 -1.2876 -2.4149  1.2995
  971MOL0     H31084  10.729   1.811   2.834 -0.4603 -1.2535  1.0896
  971MOL0     H31085  10.749   1.743   2.665  3.4114  1.4496 -2.8766
  972MOL0     O31086   0.248   9.710   3.732 -0.0754 -0.2577  0.0941
  972MOL0     C31087   0.149   9.680   3.668  0.1244  0.6528  0.9183
  972MOL0     O31088   0.135   9.573   3.580 -0.4687 -0.2430  0.5234
  972MOL0     C31089   0.252   9.502   3.543  0.4613  0.5861  1.3340
  972MOL0     C31090   0.371   9.564   3.511  0.1688 -0.7066  0.0408
  972MOL0     C31091   0.469   9.483   3.459 -0.5253 -0.5668 -0.0682
  972MOL0     C31092   0.462   9.342   3.451 -0.5500 -0.2124  0.4539
  972MOL0     O31093   0.559   9.266   3.387 -0.4722 -0.5041 -0.6232
  972MOL0     C31094   0.690   9.255   3.446  1.2851  0.0438 -0.0474
  972MOL0     C31095   0.786   9.226   3.345 -0.7066 -0.3441  0.2129
  972MOL0     C31096   0.925   9.208   3.411 -1.1867 -0.4133 -0.8736
  972MOL0     C31097   1.035   9.217   3.301 -0.1375  0.1200  0.4404
  972MOL0     C31098   1.170   9.188   3.351 -1.0053  0.7531  1.0887
  972MOL0     C31099   1.252   9.120   3.247 -1.1924 -0.2434  0.5212
  972MOL0     C31100   1.286   8.974   3.281 -0.4495  0.4064 -0.1896
  972MOL0     C31101   1.376   8.943   3.411  0.1022  0.0411 -0.5678
  972MOL0     N31102   1.496   9.028   3.414 -0.3131 -0.0457 -0.4395
  972MOL0     C31103   1.615   9.004   3.352 -0.8632  0.5820 -0.1842
  972MOL0     C31104   1.691   9.115   3.373 -0.5530  0.4820 -1.1179
  972MOL0     C31105   1.829   9.154   3.332  0.0761 -0.2453 -0.2406
  972MOL0     C31106   1.845   9.163   3.171 -0.3575  0.5194 -0.5292
  972MOL0     C31107   1.759   9.274   3.106  0.4173 -0.4943 -0.4799
  972MOL0     C31108   1.621   9.222   3.069 -0.2950  0.2711  1.2252
  972MOL0     O31109   1.538   9.336   3.016 -0.1339 -0.3722  0.7447
  972MOL0     C31110   1.423   9.297   2.953  0.2062  0.1161  0.9608
  972MOL0     C31111   1.390   9.173   2.902  0.1551 -1.0925  0.0782
  972MOL0     C31112   1.257   9.140   2.864  0.2933 -0.0525 -0.0384
  972MOL0     C31113   1.160   9.237   2.879 -0.5223  0.9480 -0.2845
  972MOL0     C31114   1.025   9.207   2.847 -0.0334  0.3377  0.1714
  972MOL0     O31115   0.941   9.309   2.861  0.2962  0.2133  1.1897
  972MOL0     C31116   0.804   9.276   2.829 -0.9614  0.4120 -0.2355
  972MOL0     C31117   0.738   9.198   2.921  0.9292  0.0477  0.3167
  972MOL0     C31118   0.603   9.164   2.909 -0.6405  0.3736  0.0006
  972MOL0     C31119   0.534   9.214   2.801 -1.3592 -0.1226  0.2390
  972MOL0     O31120   0.403   9.191   2.787 -0.1663  0.6160 -0.0149
  972MOL0     C31121   0.310   9.250   2.881  0.5456  0.6002  0.0722
  972MOL0     C31122   0.214   9.133   2.924  0.2360 -0.9671  0.4615
  972MOL0     C31123   0.262   9.015   3.010 -0.1591 -0.5241  0.3770
  972MOL0     C31124   0.298   9.060   3.157 -1.1357 -0.2384  0.6488
  972MOL0     C31125   0.364   8.947   3.233 -0.0137  0.1049  0.7403
  972MOL0     C31126   0.272   8.822   3.239 -0.4790  0.2620  0.5646
  972MOL0     C31127   0.337   8.716   3.323 -0.5894  0.8806 -0.5222
  972MOL0     C31128   0.250   8.592   3.337  0.4067 -0.0080 -0.4856
  972MOL0    Cl31129   0.320   8.493   3.468  0.0470  0.0848 -0.0917
  972MOL0     C31130   0.598   9.290   2.701  0.8218  0.1557 -0.7965
  972MOL0     C31131   0.734   9.323   2.718  0.6428 -0.3593 -0.7114
  972MOL0     O31132   0.996   9.097   2.797 -0.1406  0.1097  0.2187
  972MOL0     C31133   1.196   9.372   2.940  0.3108  0.5540 -0.6481
  972MOL0     C31134   1.329   9.395   2.959  1.0000 -0.6272  0.3517
  972MOL0     N31135   1.622   9.197   3.450  1.1815 -0.6754 -0.6258
  972MOL0     N31136   1.503   9.146   3.472  0.6442  0.3640 -0.2144
  972MOL0     C31137   0.349   9.285   3.483 -0.3092 -0.3898 -0.0040
  972MOL0     C31138   0.236   9.358   3.537 -0.1218 -0.5667  1.4887
  972MOL0     C31139   0.026   9.765   3.688  0.0326  0.1108 -0.5448
  972MOL0     C31140  -0.093   9.698   3.695 -0.8109 -0.6121  0.2017
  972MOL0     C31141  -0.210   9.758   3.743 -0.1177 -1.0104 -0.3759
  972MOL0     C31142  -0.212   9.894   3.783  1.1719 -0.2083  0.0438
  972MOL0     O31143  -0.308   9.964   3.849  0.0767  0.3336 -0.3931
  972MOL0     C31144  -0.428   9.893   3.884  0.1598  0.3864  1.3196
  972MOL0     C31145  -0.522   9.991   3.946 -0.7840  0.3294 -0.2061
  972MOL0     C31146  -0.572  10.081   3.843 -0.4694  0.7889 -0.4173
  972MOL0     C31147  -0.651  10.194   3.894 -0.3243 -0.2992 -0.9695
  972MOL0     C31148  -0.758  10.147   3.982 -0.1811 -0.4519  0.0380
  972MOL0     C31149  -0.855  10.117   4.038 -0.7961  1.1704 -0.8713
  972MOL0     C31150  -0.098   9.961   3.750 -0.0667  0.5879  0.7524
  972MOL0     C31151   0.015   9.899   3.692 -1.1773 -0.9830  0.7915
  972MOL0     C31152   0.133   9.978   3.645 -0.3720 -1.1795 -0.1113
  972MOL0     H31153   0.374   9.672   3.520 -6.6029 -0.0644 -0.1029
  972MOL0     H31154   0.564   9.528   3.432 -0.8992  0.1802 -0.1614
  972MOL0     H31155   0.711   9.353   3.491  2.4379 -0.7704  1.2428
  972MOL0     H31156   0.683   9.167   3.511  1.6656 -0.0195 -0.0862
  972MOL0     H31157   0.796   9.315   3.281 -2.6981 -1.2353 -1.4478
  972MOL0     H31158   0.755   9.142   3.282 -0.9736 -1.7698  2.1615
  972MOL0     H31159   0.927   9.110   3.459 -1.6849 -0.6213 -1.2732
  972MOL0     H31160   0.949   9.299   3.467 -2.1482 -0.0471 -1.0428
  972MOL0     H31161   1.007   9.146   3.222 -1.0763 -0.4669  1.2709
  972MOL0     H31162   1.028   9.312   3.248 -2.1791 -0.2274 -0.0068
  972MOL0     H31163   1.224   9.274   3.394 -1.0386  1.0788  0.4846
  972MOL0     H31164   1.156   9.117   3.433  0.9675 -1.3535 -0.2961
  972MOL0     H31165   1.203   9.110   3.150  0.9863  1.6907 -0.8963
  972MOL0     H31166   1.345   9.178   3.239 -1.8767  1.0952  1.6763
  972MOL0     H31167   1.350   8.926   3.206  0.2189 -2.3115  1.9260
  972MOL0     H31168   1.192   8.918   3.280 -0.8719  0.9635 -3.6229
  972MOL0     H31169   1.316   8.976   3.496 -1.0006 -2.5326 -0.2293
  972MOL0     H31170   1.395   8.837   3.431 -2.0892 -0.2514  0.2787
  972MOL0     H31171   1.643   8.914   3.299 -1.2503 -0.4369  1.2770
  972MOL0     H31172   1.841   9.253   3.378 -1.5494 -1.0625  2.0901
  972MOL0     H31173   1.907   9.094   3.379  0.8460  1.8701  1.3776
  972MOL0     H31174   1.949   9.188   3.147  0.4660  0.6425  2.7150
  972MOL0     H31175   1.821   9.060   3.145 -3.2254  0.8626  0.4443
  972MOL0     H31176   1.803   9.307   3.011  0.3110  0.6644 -0.1396
  972MOL0     H31177   1.754   9.358   3.175  0.0351 -0.9443  0.0463
  972MOL0     H31178   1.576   9.173   3.156  1.2218  0.3011  2.0559
  972MOL0     H31179   1.633   9.149   2.988 -0.4768  3.4541 -1.9461
  972MOL0     H31180   1.469   9.099   2.891  2.2167  1.2371 -2.2759
  972MOL0     H31181   1.248   9.042   2.818  3.1320  0.3788 -1.7243
  972MOL0     H31182   0.785   9.162   3.012 -0.1075 -0.8938  0.5007
  972MOL0     H31183   0.550   9.093   2.973  2.9404 -2.0472  0.5601
  972MOL0     H31184   0.351   9.299   2.970  3.2717 -1.2001 -0.1004
  972MOL0     H31185   0.250   9.325   2.827 -0.1509  0.7416  1.0135
  972MOL0     H31186   0.122   9.173   2.969  0.7538  0.8180  0.0287
  972MOL0     H31187   0.168   9.095   2.832 -0.8707 -0.6137  0.8491
  972MOL0     H31188   0.184   8.939   3.010 -1.0992  0.4212  0.1180
  972MOL0     H31189   0.356   8.975   2.970  1.0026  3.0019 -0.8883
  972MOL0     H31190   0.202   9.096   3.197 -0.7262  0.2752  1.1906
  972MOL0     H31191   0.363   9.147   3.140 -1.4005 -0.5993 -2.6994
  972MOL0     H31192   0.389   8.986   3.332  0.1950  1.2995  0.2446
  972MOL0     H31193   0.452   8.922   3.173 -0.8123  1.7343 -1.2605
  972MOL0     H31194   0.177   8.848   3.286 -0.4335 -0.7191  1.2437
  972MOL0     H31195   0.237   8.777   3.146  1.9885 -0.2450 -0.1925
  972MOL0     H31196   0.364   8.761   3.419 -1.5040 -1.2948  0.8583
  972MOL0     H31197   0.433   8.684   3.282 -0.6163 -1.0837  0.7564
  972MOL0     H31198   0.149   8.627   3.361  1.3030  1.4198  1.4595
  972MOL0     H31199   0.236   8.538   3.243 -1.9313 -0.0100 -0.1762
  972MOL0     H31200   0.543   9.320   2.613 -0.3877 -1.5019 -0.6438
  972MOL0     H31201   0.785   9.374   2.637  0.8064 -0.8481 -0.9154
  972MOL0     H31202   1.123   9.448   2.963  4.2726  5.8998 -3.5831
  972MOL0     H31203   1.363   9.493   2.992  4.9442 -1.2205 -1.4352
  972MOL0     H31204   0.337   9.177   3.474 -1.4351 -0.1809 -1.3443
  972MOL0     H31205   0.140   9.315   3.561  0.7737 -1.4046  3.7909
  972MOL0     H31206  -0.084   9.590   3.696  0.0769 -0.6157 -2.0473
  972MOL0     H31207  -0.300   9.699   3.759 -0.7348  0.5161  2.4063
  972MOL0     H31208  -0.401   9.810   3.950 -3.2941 -0.8584  1.3556
  972MOL0     H31209  -0.482   9.865   3.793  0.1529  2.5991  0.5817
  972MOL0     H31210  -0.480  10.038   4.036 -1.0294 -0.8150  0.5390
  972MOL0     H31211  -0.606   9.931   3.981  0.1939 -0.2663  1.2468
  972MOL0     H31212  -0.637  10.026   3.774 -1.1660  0.8682  0.1617
  972MOL0     H31213  -0.494  10.128   3.783 -1.0121  2.0183 -0.1939
  972MOL0     H31214  -0.583  10.257   3.951  0.8579 -2.3525 -0.0092
  972MOL0     H31215  -0.684  10.255   3.809 -3.1099 -0.6371 -0.2439
  972MOL0     H31216  -0.938  10.068   4.085  1.1804 -1.8656 -0.2011
  972MOL0     H31217  -0.097  10.069   3.763  2.2826  0.7940 -0.4488
  972MOL0     H31218   0.115  10.085   3.628  1.6613 -0.3340  2.3778
  972MOL0     H31219   0.211   9.964   3.720 -2.7057 -3.1495  2.1232
  972MOL0     H31220   0.167   9.932   3.552  0.5602 -2.2667  0.7389
  973MOL0     O31221   2.227   3.806   2.291 -0.3299  0.6414 -0.0653
  973MOL0     C31222   2.202   3.773   2.403  0.5737 -0.2761  1.0629
  973MOL0     O31223   2.206   3.867   2.510  0.2637 -0.4162 -0.1109
  973MOL0     C31224   2.261   3.992   2.477  0.5256  0.5962 -0.4590
  973MOL0     C31225   2.189   4.089   2.412 -0.2660  0.2520  0.0832
  973MOL0     C31226   2.252   4.208   2.377  0.4651 -0.6787  0.6213
  973MOL0     C31227   2.378   4.235   2.419  0.4938 -0.7643  0.6511
  973MOL0     O31228   2.446   4.358   2.401 -0.5818  0.3938 -0.2579
  973MOL0     C31229   2.378   4.479   2.432  0.1731 -0.7051 -0.1091
  973MOL0     C31230   2.468   4.597   2.460  0.2664  0.6143  0.1459
  973MOL0     C31231   2.558   4.626   2.337 -1.1741 -0.3099  0.8101
  973MOL0     C31232   2.703   4.676   2.384  0.0969  0.0906  0.0344
  973MOL0     C31233   2.814   4.569   2.373 -0.1314  0.8766  0.3454
  973MOL0     C31234   2.790   4.466   2.481  0.0539 -0.8683  0.2140
  973MOL0     C31235   2.909   4.377   2.504 -0.3858 -0.2687 -0.3153
  973MOL0     C31236   3.024   4.461   2.556 -0.4026  0.1637 -0.4005
  973MOL0     N31237   3.148   4.381   2.594  0.4998 -0.5136 -1.3749
  973MOL0     C31238   3.241   4.342   2.506 -0.1690  0.9470 -0.9650
  973MOL0     C31239   3.334   4.276   2.583  1.0761  0.5709  1.0328
  973MOL0     C31240   3.454   4.214   2.521 -0.3958  0.2281 -0.7745
  973MOL0     C31241   3.541   4.311   2.452  0.3130  0.2200 -0.1459
  973MOL0     C31242   3.663   4.230   2.412  0.2823  0.4779  0.8385
  973MOL0     C31243   3.789   4.309   2.353  0.2091  0.1099  0.3434
  973MOL0     O31244   3.871   4.212   2.289 -0.7410  0.0789  0.2308
  973MOL0     C31245   4.006   4.240   2.282 -0.0870 -0.5354 -0.2860
  973MOL0     C31246   4.053   4.375   2.263  0.3659  0.3967 -0.0307
  973MOL0     C31247   4.186   4.389   2.247 -0.4385 -1.0792  0.6546
  973MOL0     C31248   4.273   4.286   2.233 -0.7952  0.2325 -0.3152
  973MOL0     C31249   4.416   4.314   2.197  0.5703  0.0783 -0.7090
  973MOL0     O31250   4.488   4.211   2.164 -0.1246  0.1487 -0.1000
  973MOL0     C31251   4.624   4.222   2.159 -0.2108  0.3140 -0.9157
  973MOL0     C31252   4.696   4.322   2.091  0.3740 -0.2419 -0.6389
  973MOL0     C31253   4.833   4.332   2.089  0.0404  0.5801 -0.2656
  973MOL0     C31254   4.900   4.223   2.151 -0.6184 -0.4270  0.2956
  973MOL0     O31255   5.035   4.212   2.159  0.6030  0.2963 -0.7581
  973MOL0     C31256   5.112   4.317   2.102 -1.4569  0.4894  0.6187
  973MOL0     C31257   5.264   4.272   2.110 -0.0176 -0.3579  0.7748
  973MOL0     C31258   5.357   4.393   2.093 -0.1867  0.9554 -0.5154
  973MOL0     C31259   5.501   4.336   2.092 -0.2984  0.4541 -0.5083
  973MOL0     C31260   5.596   4.449   2.060  0.4776  0.0715  0.2328
  973MOL0     C31261   5.732   4.425   2.133  0.5564  0.6682  0.2219
  973MOL0     C31262   5.795   4.295   2.108  0.2620 -0.5524 -0.0634
  973MOL0     C31263   5.940   4.298   2.162  0.4449  0.7105  0.3480
  973MOL0    Cl31264   6.041   4.404   2.066  0.6936 -0.3615 -0.0670
  973MOL0     C31265   4.826   4.120   2.218 -0.2847 -0.4367 -0.4480
  973MOL0     C31266   4.688   4.124   2.223 -0.0628 -0.6637 -0.1101
  973MOL0     O31267   4.458   4.429   2.224  0.1866  0.2885 -0.2155
  973MOL0     C31268   4.226   4.156   2.232 -0.6853  0.3366 -0.1543
  973MOL0     C31269   4.091   4.130   2.254 -0.1827 -0.0369 -0.8228
  973MOL0     N31270   3.300   4.288   2.718  0.3787 -0.3716  1.1967
  973MOL0     N31271   3.188   4.364   2.725 -0.7175  0.1791 -0.4046
  973MOL0     C31272   2.451   4.136   2.486 -0.0701 -0.0216  0.7112
  973MOL0     C31273   2.396   4.002   2.501  0.1767  0.1703  0.4402
  973MOL0     C31274   2.145   3.633   2.413 -0.0319  0.1495  0.2107
  973MOL0     C31275   2.102   3.559   2.297 -1.4700  0.5923 -0.1009
  973MOL0     C31276   2.059   3.424   2.303 -0.1281  0.1721  1.1961
  973MOL0     C31277   2.049   3.364   2.428 -0.1735  1.4795 -0.2751
  973MOL0     O31278   1.994   3.234   2.441  0.0971  0.3137 -0.8715
  973MOL0     C31279   1.945   3.154   2.332 -0.4458 -0.3670 -0.2972
  973MOL0     C31280   1.860   3.041   2.394  0.3562 -0.2243 -0.4942
  973MOL0     C31281   1.761   2.967   2.299 -0.6667  0.1855  0.2956
  973MOL0     C31282   1.834   2.892   2.190 -0.3613  0.3194  0.2650
  973MOL0     C31283   1.919   2.777   2.237  0.4078  0.0847  0.1720
  973MOL0     C31284   1.980   2.674   2.269 -0.2965 -0.7126  0.2207
  973MOL0     C31285   2.077   3.442   2.542 -0.9184 -0.6837 -0.0891
  973MOL0     C31286   2.137   3.567   2.541  0.7344 -0.6920 -0.2288
  973MOL0     C31287   2.178   3.634   2.676 -0.0872 -0.2251  0.3817
  973MOL0     H31288   2.084   4.075   2.388 -0.7954  3.6523 -0.0437
  973MOL0     H31289   2.190   4.281   2.325  0.1320  0.6230  2.7335
  973MOL0     H31290   2.319   4.512   2.347  2.2998  0.1607 -1.3429
  973MOL0     H31291   2.315   4.459   2.519  2.4016 -1.1787  1.5171
  973MOL0     H31292   2.540   4.571   2.537  2.3227  4.1816 -0.3341
  973MOL0     H31293   2.404   4.680   2.493 -2.7343 -2.6758  3.5222
  973MOL0     H31294   2.507   4.709   2.287  2.6067  2.3412  0.9466
  973MOL0     H31295   2.571   4.542   2.267 -2.0253  0.2346 -0.0346
  973MOL0     H31296   2.733   4.759   2.320 -3.4498 -0.1456 -2.1357
  973MOL0     H31297   2.704   4.713   2.487 -2.0568 -0.0170  0.1392
  973MOL0     H31298   2.806   4.509   2.282 -4.7679  0.2603  0.9592
  973MOL0     H31299   2.914   4.612   2.359  1.7380 -2.9755  0.3168
  973MOL0     H31300   2.766   4.519   2.574  2.0300  0.3949  0.0622
  973MOL0     H31301   2.704   4.401   2.459 -0.3544 -0.4025  0.4020
  973MOL0     H31302   2.929   4.332   2.406 -1.9036 -1.4551 -0.1068
  973MOL0     H31303   2.885   4.299   2.577 -0.1021  0.4137  0.5245
  973MOL0     H31304   3.050   4.544   2.491 -0.1876  1.3654  1.1496
  973MOL0     H31305   2.998   4.510   2.651  1.1256 -1.1078  0.7424
  973MOL0     H31306   3.245   4.344   2.398  2.8396  1.8379 -0.9244
  973MOL0     H31307   3.508   4.159   2.599 -1.9055  1.3595  1.1800
  973MOL0     H31308   3.413   4.133   2.459  0.4875 -0.9586  0.1384
  973MOL0     H31309   3.484   4.350   2.368 -2.4812  0.7336  1.8621
  973MOL0     H31310   3.563   4.398   2.514 -1.0320 -0.2060  0.9830
  973MOL0     H31311   3.624   4.165   2.333 -0.1077  0.3208  1.1583
  973MOL0     H31312   3.706   4.176   2.496  3.2827  2.4440  0.7397
  973MOL0     H31313   3.852   4.352   2.432 -1.5188 -0.0395  1.8546
  973MOL0     H31314   3.759   4.394   2.291  2.9082  1.5723  0.8741
  973MOL0     H31315   3.982   4.457   2.260  0.1596  0.2327  0.3084
  973MOL0     H31316   4.221   4.490   2.229  0.4270 -2.1108 -5.8012
  973MOL0     H31317   4.653   4.387   2.016  5.5439  1.1396 -2.8633
  973MOL0     H31318   4.881   4.414   2.036 -1.5609  0.8577 -1.3460
  973MOL0     H31319   5.093   4.340   1.996  3.6857  1.1738 -0.4044
  973MOL0     H31320   5.112   4.411   2.156  3.4852  1.2532 -0.1937
  973MOL0     H31321   5.275   4.236   2.213 -0.4900 -1.8268  0.3396
  973MOL0     H31322   5.269   4.191   2.037  1.3868 -0.1895  0.6623
  973MOL0     H31323   5.333   4.456   2.007  1.3063  0.3620 -1.3947
  973MOL0     H31324   5.340   4.446   2.188 -0.2600 -0.5045  0.3264
  973MOL0     H31325   5.507   4.260   2.014 -0.3979 -0.1624  0.0757
  973MOL0     H31326   5.505   4.290   2.191 -4.1479  0.5413 -0.1333
  973MOL0     H31327   5.548   4.534   2.110 -0.2480  0.1179 -0.5205
  973MOL0     H31328   5.597   4.469   1.952 -4.5106  3.0291  0.4246
  973MOL0     H31329   5.799   4.504   2.098  0.3109 -0.2115 -2.5148
  973MOL0     H31330   5.731   4.433   2.242  1.2361 -1.4167  0.4313
  973MOL0     H31331   5.796   4.279   2.000  1.2629 -1.2683  0.0423
  973MOL0     H31332   5.733   4.220   2.157  0.8775 -2.1736 -1.6620
  973MOL0     H31333   5.928   4.318   2.269 -1.9666 -1.8487  0.6837
  973MOL0     H31334   5.974   4.194   2.158  1.7418  1.1536 -0.8816
  973MOL0     H31335   4.876   4.032   2.258  0.7723 -0.3696 -1.5728
  973MOL0     H31336   4.645   4.051   2.290  2.4008 -0.5466  1.7566
  973MOL0     H31337   4.296   4.076   2.210 -1.1080  0.0566 -0.4863
  973MOL0     H31338   4.054   4.030   2.239  2.0346 -0.8630 -1.1154
  973MOL0     H31339   2.557   4.144   2.504  0.0522  0.1461 -0.0333
  973MOL0     H31340   2.453   3.922   2.547  0.5904 -1.7777 -3.1414
  973MOL0     H31341   2.099   3.612   2.203  1.3229  0.4813 -0.3428
  973MOL0     H31342   2.016   3.392   2.209 -1.2260  1.8858  1.0787
  973MOL0     H31343   2.018   3.123   2.258  0.9076  1.9800 -0.0383
  973MOL0     H31344   1.866   3.212   2.282 -1.4474 -0.5843  0.9552
  973MOL0     H31345   1.796   3.091   2.468  2.9482  0.5704  1.3523
  973MOL0     H31346   1.925   2.973   2.449 -2.1639 -1.9772  0.5276
  973MOL0     H31347   1.701   3.036   2.239  3.3531  3.2164 -0.6538
  973MOL0     H31348   1.697   2.896   2.353  0.9562 -0.7819  1.0025
  973MOL0     H31349   1.765   2.871   2.108 -1.3367  1.9771  0.6033
  973MOL0     H31350   1.898   2.967   2.143 -2.7642  2.1177 -0.3745
  973MOL0     H31351   2.046   2.595   2.297 -0.3529  0.3297  3.9095
  973MOL0     H31352   2.067   3.396   2.639 -1.0049  0.3395  0.4065
  973MOL0     H31353   2.186   3.556   2.752 -0.7032 -0.4814  0.1892
  973MOL0     H31354   2.278   3.675   2.659  0.3914 -2.0581 -1.6598
  973MOL0     H31355   2.104   3.711   2.701 -0.6943 -0.5089 -0.5052
  974MOL0     O31356   0.650   2.193   6.184 -0.3382 -0.4585 -0.0306
  974MOL0     C31357   0.633   2.307   6.140 -0.2412  0.1136  0.7483
  974MOL0     O31358   0.670   2.424   6.203 -0.0515  0.3861 -0.4548
  974MOL0     C31359   0.721   2.425   6.330  0.8624  0.7222  0.2319
  974MOL0     C31360   0.640   2.428   6.445  0.3521 -0.0756 -0.3370
  974MOL0     C31361   0.684   2.424   6.575 -0.3109 -0.3047 -0.4751
  974MOL0     C31362   0.831   2.441   6.592  0.5428  0.0999  0.0477
  974MOL0     O31363   0.896   2.449   6.713 -0.6563 -0.0958  0.0393
  974MOL0     C31364   0.823   2.457   6.831  0.2110 -0.5208  0.3705
  974MOL0     C31365   0.767   2.597   6.879 -0.7504 -0.7507 -0.5904
  974MOL0     C31366   0.691   2.602   7.004  0.4049  0.4751 -0.4952
  974MOL0     C31367   0.764   2.548   7.124  0.3743  0.0531 -0.0632
  974MOL0     C31368   0.692   2.593   7.255  0.3695 -0.2311 -0.0570
  974MOL0     C31369   0.772   2.527   7.366 -0.0494  0.0243  0.2122
  974MOL0     C31370   0.703   2.551   7.497 -0.3216  0.0577  0.4413
  974MOL0     C31371   0.699   2.698   7.549  0.4730 -0.4395 -0.0365
  974MOL0     N31372   0.833   2.746   7.585  0.3420  0.2127  0.4486
  974MOL0     C31373   0.911   2.830   7.510  0.1472 -0.1590 -1.0139
  974MOL0     C31374   0.996   2.887   7.599 -0.0724 -0.0272  1.0574
  974MOL0     C31375   1.091   3.007   7.575  0.4785  0.5134  0.3564
  974MOL0     C31376   1.019   3.129   7.520  0.6697 -0.9060 -0.3568
  974MOL0     C31377   1.101   3.257   7.525  0.3245 -0.5282 -0.6569
  974MOL0     C31378   1.082   3.346   7.405 -0.3376  0.5318  0.0143
  974MOL0     O31379   1.150   3.469   7.422 -0.3547  0.1406  0.1284
  974MOL0     C31380   1.121   3.572   7.339 -0.7263  0.4848  0.3332
  974MOL0     C31381   1.170   3.700   7.372 -0.8510  0.3186 -0.8617
  974MOL0     C31382   1.152   3.808   7.276  0.0516 -0.4407 -0.4764
  974MOL0     C31383   1.087   3.778   7.154  0.0761  0.5310 -0.4746
  974MOL0     C31384   1.066   3.882   7.049 -0.3415 -0.3812  0.4621
  974MOL0     O31385   0.988   3.863   6.936  0.2088 -0.3731  0.4394
  974MOL0     C31386   0.971   3.969   6.843  0.0376 -1.2791 -0.0796
  974MOL0     C31387   0.926   4.100   6.886 -0.3439  0.6256 -0.1208
  974MOL0     C31388   0.902   4.212   6.806 -0.0405  1.3654  1.4727
  974MOL0     C31389   0.934   4.189   6.668 -0.5821 -0.4070 -0.5523
  974MOL0     O31390   0.924   4.283   6.570  0.5002  0.0274  0.7579
  974MOL0     C31391   0.903   4.421   6.606 -0.2339  0.4364  0.6149
  974MOL0     C31392   0.891   4.492   6.464  0.0565 -0.0068  0.2150
  974MOL0     C31393   1.012   4.479   6.365 -0.3993 -0.0652 -0.5731
  974MOL0     C31394   0.977   4.543   6.235 -0.4739 -0.0574 -0.8322
  974MOL0     C31395   0.986   4.700   6.233  0.7650  0.5262  0.2626
  974MOL0     C31396   1.130   4.753   6.224 -0.9074  0.0948  0.8355
  974MOL0     C31397   1.126   4.902   6.203 -0.6536  0.2998  0.1729
  974MOL0     C31398   1.109   4.990   6.338 -0.6846  0.8740 -0.3788
  974MOL0    Cl31399   1.158   5.155   6.287 -0.2052  0.0699  0.2697
  974MOL0     C31400   0.956   4.054   6.626 -0.1841  0.2719  0.3154
  974MOL0     C31401   0.969   3.947   6.708 -0.5268 -0.0940 -0.1819
  974MOL0     O31402   1.118   3.992   7.070 -0.2614  0.1243 -0.3559
  974MOL0     C31403   1.037   3.653   7.127  0.1254 -0.2377  0.3429
  974MOL0     C31404   1.063   3.551   7.217 -0.9281 -1.1569 -0.0851
  974MOL0     N31405   0.988   2.818   7.714 -0.3768  0.4033 -0.0052
  974MOL0     N31406   0.890   2.730   7.708  0.3218  0.4647  0.0048
  974MOL0     C31407   0.915   2.445   6.482  0.6755 -1.0833  0.3275
  974MOL0     C31408   0.862   2.432   6.353  0.6274 -0.0512 -1.3735
  974MOL0     C31409   0.572   2.320   6.007 -0.5232  0.8309 -0.1191
  974MOL0     C31410   0.631   2.427   5.926 -1.1464  0.0210 -0.0241
  974MOL0     C31411   0.594   2.456   5.784 -0.6440  0.5029 -0.0733
  974MOL0     C31412   0.503   2.373   5.730 -0.2366  1.2274  0.0342
  974MOL0     O31413   0.458   2.381   5.599  0.3130  0.3305  0.0055
  974MOL0     C31414   0.479   2.499   5.518 -0.5781  0.0626 -0.3236
  974MOL0     C31415   0.342   2.514   5.447 -0.2067  0.0761  0.3479
  974MOL0     C31416   0.209   2.571   5.517 -0.8216  0.4114  0.5890
  974MOL0     C31417   0.156   2.481   5.626  0.3887 -0.4206 -0.2486
  974MOL0     C31418   0.018   2.523   5.676  0.2157  0.7762 -0.3539
  974MOL0     C31419  -0.090   2.536   5.720 -0.0721  0.0165 -0.4199
  974MOL0     C31420   0.451   2.265   5.805  0.9558 -0.1332  0.1302
  974MOL0     C31421   0.479   2.240   5.941  0.5203  0.6431  0.2789
  974MOL0     C31422   0.393   2.136   6.019 -0.2067 -0.3338  1.2656
  974MOL0     H31423   0.535   2.438   6.420  0.7165  0.3418 -1.8316
  974MOL0     H31424   0.622   2.418   6.664 -1.3475  1.9904 -0.9741
  974MOL0     H31425   0.739   2.388   6.847 -0.6871  0.7208  1.2536
  974MOL0     H31426   0.893   2.424   6.908 -0.3703  0.2166  1.2386
  974MOL0     H31427   0.718   2.645   6.793  0.5971  2.0520  0.1109
  974MOL0     H31428   0.854   2.661   6.896 -0.0782 -1.6795 -0.4429
  974MOL0     H31429   0.606   2.534   6.995  0.6439 -0.2580  1.9405
  974MOL0     H31430   0.650   2.700   7.028  0.2000  0.0179  1.1384
  974MOL0     H31431   0.790   2.442   7.122  1.1663  0.0841  3.4003
  974MOL0     H31432   0.862   2.596   7.121 -0.2440  1.3535 -0.1950
  974MOL0     H31433   0.687   2.702   7.247 -2.8907 -0.4169 -2.7810
  974MOL0     H31434   0.590   2.556   7.263  0.1136  0.3546 -0.5250
  974MOL0     H31435   0.776   2.419   7.355  0.9698 -0.5144  4.1787
  974MOL0     H31436   0.873   2.563   7.389  0.1044 -2.0387  3.3274
  974MOL0     H31437   0.760   2.489   7.566 -1.1670 -0.9146  0.3015
  974MOL0     H31438   0.599   2.520   7.484  0.1081 -1.1553 -0.2301
  974MOL0     H31439   0.665   2.770   7.474 -0.0305  1.2832  1.7549
  974MOL0     H31440   0.645   2.712   7.642  0.9439 -3.3273  0.7760
  974MOL0     H31441   0.929   2.846   7.404  2.7456  1.1663 -0.4471
  974MOL0     H31442   1.137   3.023   7.673  1.4151 -1.3651  0.2612
  974MOL0     H31443   1.175   2.987   7.508  0.1529  1.3689 -0.3325
  974MOL0     H31444   0.989   3.102   7.419  0.5059 -0.4800 -0.4204
  974MOL0     H31445   0.926   3.153   7.572 -0.7676 -0.0886 -3.1302
  974MOL0     H31446   1.208   3.236   7.525  0.9817  2.2272 -2.2275
  974MOL0     H31447   1.084   3.312   7.618 -0.2791  0.4780 -1.3316
  974MOL0     H31448   0.976   3.374   7.407  0.0613  2.6423 -2.4682
  974MOL0     H31449   1.115   3.296   7.313  3.8506  0.1373  1.5259
  974MOL0     H31450   1.226   3.724   7.462  0.5235 -0.8504 -1.3747
  974MOL0     H31451   1.189   3.905   7.306 -0.0779 -0.8395  1.0297
  974MOL0     H31452   0.917   4.125   6.991  3.2866 -0.2556  0.5177
  974MOL0     H31453   0.864   4.305   6.846  0.0596  1.9312  0.2714
  974MOL0     H31454   0.812   4.444   6.662  0.1115  2.6851  0.3286
  974MOL0     H31455   0.990   4.456   6.662 -1.6999  0.8027  2.7756
  974MOL0     H31456   0.804   4.446   6.417  0.3846 -1.7868  1.2575
  974MOL0     H31457   0.880   4.600   6.477  1.1525  0.5401 -2.7765
  974MOL0     H31458   1.100   4.522   6.414 -1.2876  0.7527  0.3485
  974MOL0     H31459   1.030   4.373   6.345 -0.6529 -0.2660  0.2337
  974MOL0     H31460   0.882   4.511   6.191 -1.3818  0.8038  0.4237
  974MOL0     H31461   1.055   4.511   6.167  0.1229  0.0937 -0.2284
  974MOL0     H31462   0.937   4.740   6.322 -1.3392  1.6598 -1.3102
  974MOL0     H31463   0.935   4.731   6.141  0.9846  2.1047  0.6446
  974MOL0     H31464   1.191   4.731   6.312  2.0065  0.0283 -1.0909
  974MOL0     H31465   1.179   4.700   6.142 -0.0101  0.7492  0.9409
  974MOL0     H31466   1.047   4.921   6.130 -0.6731  2.6772  0.7253
  974MOL0     H31467   1.223   4.921   6.155  0.4809 -2.1666  1.2923
  974MOL0     H31468   1.008   4.981   6.377 -2.0248  3.8343 -2.7552
  974MOL0     H31469   1.172   4.963   6.424 -1.2522  1.1137  0.1186
  974MOL0     H31470   0.951   4.038   6.519 -0.5117 -3.3212  0.7531
  974MOL0     H31471   0.985   3.844   6.677 -2.4211 -0.6271  0.4958
  974MOL0     H31472   0.985   3.638   7.033 -1.1002  2.3766  0.5120
  974MOL0     H31473   1.032   3.452   7.184 -0.5954 -0.9076 -1.1700
  974MOL0     H31474   1.023   2.458   6.485  0.4872  0.4375  1.4949
  974MOL0     H31475   0.927   2.434   6.266  0.3122  1.7639 -1.6053
  974MOL0     H31476   0.716   2.484   5.961  0.4230 -1.3774 -1.3936
  974MOL0     H31477   0.646   2.536   5.731  1.2918 -0.7518 -0.1649
  974MOL0     H31478   0.549   2.477   5.436  1.0052  3.4428 -0.0782
  974MOL0     H31479   0.511   2.594   5.563 -0.6822 -0.9045  1.9313
  974MOL0     H31480   0.324   2.409   5.420  1.9489 -0.5515  1.1256
  974MOL0     H31481   0.360   2.574   5.358 -0.6636 -2.0353 -1.2659
  974MOL0     H31482   0.134   2.575   5.438 -1.9092  1.6625  1.6439
  974MOL0     H31483   0.230   2.669   5.561 -0.4325  0.8626 -0.5685
  974MOL0     H31484   0.139   2.378   5.593  1.0107 -0.8352  0.6676
  974MOL0     H31485   0.217   2.473   5.717  1.3784 -0.8573 -0.9229
  974MOL0     H31486  -0.187   2.566   5.753 -1.1592 -0.3636 -3.0490
  974MOL0     H31487   0.377   2.195   5.767  0.1523  1.8988 -2.3288
  974MOL0     H31488   0.357   2.060   5.949  3.0424  0.0207 -0.9768
  974MOL0     H31489   0.454   2.091   6.097  2.3206  0.3991 -0.1687
  974MOL0     H31490   0.309   2.181   6.074 -2.8661 -3.5192  0.1481
  975MOL0     O31491   4.092   8.301   3.337  0.3950  0.8654  1.3049
  975MOL0     C31492   4.083   8.268   3.221  0.5904 -0.1653  0.7292
  975MOL0     O31493   3.969   8.259   3.153  0.2029  0.5066  1.6798
  975MOL0     C31494   3.840   8.269   3.206  0.2806 -0.2746 -1.0584
  975MOL0     C31495   3.738   8.190   3.153  0.6821 -0.9742 -0.4228
  975MOL0     C31496   3.607   8.219   3.190  0.0078  0.4090 -0.9242
  975MOL0     C31497   3.572   8.299   3.296 -0.0267  0.9383  0.0420
  975MOL0     O31498   3.433   8.322   3.301 -0.1128 -0.0058 -0.4043
  975MOL0     C31499   3.383   8.428   3.392 -0.3005 -0.1033  0.2996
  975MOL0     C31500   3.239   8.467   3.345  0.5606 -1.2479  0.3371
  975MOL0     C31501   3.159   8.556   3.441 -0.4680  0.1753 -0.9326
  975MOL0     C31502   3.021   8.583   3.393 -0.2003 -0.4352  0.0444
  975MOL0     C31503   2.963   8.683   3.480 -0.0224 -0.6387  0.3277
  975MOL0     C31504   2.918   8.636   3.619  0.0120  0.6845 -0.5457
  975MOL0     C31505   2.899   8.748   3.726  0.1815  0.5272 -0.1901
  975MOL0     C31506   3.026   8.809   3.783  0.4910 -0.0284 -0.2324
  975MOL0     N31507   3.128   8.707   3.814 -0.1134  0.3786 -0.3449
  975MOL0     C31508   3.127   8.620   3.918 -0.0299 -0.0108  0.0276
  975MOL0     C31509   3.249   8.554   3.910  0.0572 -0.2337 -0.3952
  975MOL0     C31510   3.283   8.449   4.014 -0.0275 -0.3987 -0.8711
  975MOL0     C31511   3.385   8.491   4.126  0.7566  0.3781  0.3963
  975MOL0     C31512   3.326   8.604   4.219 -0.7637 -0.3699  0.4750
  975MOL0     C31513   3.268   8.539   4.349  0.3100 -0.5618 -0.5839
  975MOL0     O31514   3.369   8.499   4.443  0.1795 -0.4747 -0.3354
  975MOL0     C31515   3.451   8.588   4.510  0.5598 -0.9783  0.6464
  975MOL0     C31516   3.559   8.552   4.590  0.9114  0.8469  0.0754
  975MOL0     C31517   3.644   8.636   4.663 -0.3391 -0.1054 -0.1043
  975MOL0     C31518   3.618   8.775   4.656 -0.0092  0.3373 -0.1021
  975MOL0     C31519   3.717   8.877   4.707  0.6634  0.7984 -0.0640
  975MOL0     O31520   3.829   8.828   4.781  0.5732  0.4423 -0.3601
  975MOL0     C31521   3.887   8.897   4.885  0.2842 -0.2556 -0.5246
  975MOL0     C31522   3.825   9.005   4.950 -0.1265 -0.2275  0.1322
  975MOL0     C31523   3.891   9.060   5.063 -0.5826 -0.0003  0.1321
  975MOL0     C31524   4.014   9.018   5.096 -0.0505 -0.2651 -0.4356
  975MOL0     O31525   4.091   9.080   5.190  0.3370 -0.0555  0.8103
  975MOL0     C31526   4.101   9.219   5.165 -0.3149  0.2549 -0.4342
  975MOL0     C31527   4.250   9.251   5.178  0.1914 -0.2130 -0.0356
  975MOL0     C31528   4.342   9.194   5.063 -0.8406 -0.2007 -0.0866
  975MOL0     C31529   4.492   9.183   5.121  1.0014 -0.8093  0.0906
  975MOL0     C31530   4.595   9.140   5.012  0.4316 -0.2911  0.5381
  975MOL0     C31531   4.606   9.232   4.886 -0.3901 -1.1553  0.0351
  975MOL0     C31532   4.700   9.173   4.782 -0.5660  0.0290  0.2640
  975MOL0     C31533   4.648   9.196   4.636  0.0974  0.8611  0.5244
  975MOL0    Cl31534   4.773   9.162   4.515  0.1975 -0.2338 -0.2923
  975MOL0     C31535   4.079   8.914   5.031  0.9800  1.0782 -0.6698
  975MOL0     C31536   4.011   8.851   4.926  0.1544 -0.6691 -1.5216
  975MOL0     O31537   3.699   8.994   4.682 -1.2486  0.1321 -0.1387
  975MOL0     C31538   3.508   8.819   4.592  0.8198  0.1807  0.1263
  975MOL0     C31539   3.430   8.726   4.520  0.8793  0.3913  0.1158
  975MOL0     N31540   3.325   8.610   3.814 -0.6286 -0.6646 -0.1928
  975MOL0     N31541   3.248   8.701   3.753  0.0306 -0.2541  0.5197
  975MOL0     C31542   3.676   8.376   3.345  0.0934 -0.0125 -0.5162
  975MOL0     C31543   3.806   8.365   3.307 -0.2803 -0.9165 -0.2845
  975MOL0     C31544   4.205   8.251   3.144 -0.1401 -0.7311 -0.0952
  975MOL0     C31545   4.237   8.335   3.032 -0.4809 -0.0958  0.2970
  975MOL0     C31546   4.359   8.310   2.965 -0.2723  0.3346  0.2919
  975MOL0     C31547   4.459   8.219   3.009  0.1481  0.3583  0.7093
  975MOL0     O31548   4.573   8.227   2.937  0.3072 -1.1903 -0.5700
  975MOL0     C31549   4.693   8.165   2.988  0.2122  1.5495 -0.5543
  975MOL0     C31550   4.814   8.233   2.914  0.2573 -0.0804 -0.5932
  975MOL0     C31551   4.938   8.167   2.974 -0.0377  0.7025 -0.5216
  975MOL0     C31552   5.008   8.067   2.886 -0.1543  0.6207  0.1984
  975MOL0     C31553   5.154   8.078   2.892 -0.5935 -0.1393  0.2717
  975MOL0     C31554   5.274   8.107   2.900  0.3185 -0.3913  0.2705
  975MOL0     C31555   4.429   8.130   3.108  0.5489  0.3642  1.2147
  975MOL0     C31556   4.313   8.153   3.177  0.0548 -0.5203 -0.8357
  975MOL0     C31557   4.298   8.053   3.290  0.5232 -0.2453  0.2354
  975MOL0     H31558   3.769   8.122   3.074 -0.1308 -1.8108 -0.0334
  975MOL0     H31559   3.532   8.175   3.124 -2.6647 -0.1855  2.2764
  975MOL0     H31560   3.366   8.393   3.495 -1.0614  2.2530  1.0321
  975MOL0     H31561   3.447   8.516   3.382 -3.0434  1.8286 -1.5751
  975MOL0     H31562   3.179   8.379   3.324  0.9622 -1.7222  1.1296
  975MOL0     H31563   3.241   8.529   3.255 -2.8315  1.2047  1.6966
  975MOL0     H31564   3.214   8.649   3.460  1.2812 -0.6745 -1.6602
  975MOL0     H31565   3.167   8.504   3.537  0.5770 -0.6601 -1.4449
  975MOL0     H31566   3.026   8.621   3.290  1.2465 -0.5256  0.0613
  975MOL0     H31567   2.963   8.492   3.407 -0.9709  0.1067  0.4383
  975MOL0     H31568   3.038   8.763   3.484  0.2248 -0.8768  0.4897
  975MOL0     H31569   2.880   8.726   3.423  3.6397  1.9471 -3.7108
  975MOL0     H31570   2.821   8.587   3.607  0.4216 -0.1765 -0.4652
  975MOL0     H31571   2.993   8.565   3.657 -1.1991  0.5509  1.7552
  975MOL0     H31572   2.850   8.703   3.813 -0.5936  0.7481 -0.5064
  975MOL0     H31573   2.831   8.821   3.682 -0.8315 -1.5884 -2.2928
  975MOL0     H31574   3.083   8.878   3.720 -0.1248 -0.4394 -1.2617
  975MOL0     H31575   2.993   8.869   3.869  0.5136 -1.7954  1.0557
  975MOL0     H31576   3.042   8.588   3.977 -1.5539  2.6742 -0.5578
  975MOL0     H31577   3.186   8.419   4.057 -0.5419  1.4469 -0.6478
  975MOL0     H31578   3.329   8.367   3.959  1.1239 -0.5800  0.3046
  975MOL0     H31579   3.419   8.405   4.186  0.9755  0.7141  0.7586
  975MOL0     H31580   3.461   8.534   4.061  1.8210 -2.2204 -0.2109
  975MOL0     H31581   3.245   8.659   4.170 -1.8849  0.3995  3.0140
  975MOL0     H31582   3.402   8.680   4.239  0.3338 -1.4083  0.3560
  975MOL0     H31583   3.209   8.453   4.317  0.2197 -0.7270  0.0150
  975MOL0     H31584   3.201   8.612   4.397 -1.0706 -3.8325  2.9643
  975MOL0     H31585   3.579   8.446   4.603  1.1177  0.9998  1.1269
  975MOL0     H31586   3.722   8.591   4.724 -0.3802 -0.2946 -0.1885
  975MOL0     H31587   3.730   9.055   4.932 -0.5680  0.0730  2.8663
  975MOL0     H31588   3.864   9.140   5.131  2.7607  0.7014  0.7789
  975MOL0     H31589   4.066   9.252   5.067  0.9821  0.3263 -0.8942
  975MOL0     H31590   4.036   9.264   5.241 -1.5765 -2.9355  0.5483
  975MOL0     H31591   4.264   9.358   5.194  0.7106 -0.2130 -0.4680
  975MOL0     H31592   4.290   9.203   5.268  0.6309  0.7151  0.2860
  975MOL0     H31593   4.327   9.087   5.044  3.1933 -1.3778  2.1312
  975MOL0     H31594   4.332   9.252   4.970 -0.6844 -1.6225 -1.0286
  975MOL0     H31595   4.509   9.107   5.198  2.7049 -0.2952  0.2628
  975MOL0     H31596   4.524   9.275   5.170 -0.4602 -1.1517  1.7733
  975MOL0     H31597   4.567   9.048   4.961 -1.9963  2.0419 -2.8209
  975MOL0     H31598   4.697   9.143   5.051  0.5933  0.9812  0.0701
  975MOL0     H31599   4.504   9.244   4.847 -0.5709  1.4660  1.1400
  975MOL0     H31600   4.620   9.337   4.912 -4.6753 -0.8540  1.9275
  975MOL0     H31601   4.704   9.064   4.789 -1.6039 -0.0093  0.3867
  975MOL0     H31602   4.798   9.221   4.796  0.6213 -2.4230  1.0848
  975MOL0     H31603   4.564   9.130   4.613  2.4827 -1.3476 -2.7213
  975MOL0     H31604   4.608   9.298   4.635 -1.3024  0.3736 -2.2119
  975MOL0     H31605   4.179   8.883   5.057  0.8917  1.1661 -0.2236
  975MOL0     H31606   4.055   8.763   4.879  2.6845 -2.1663  2.9831
  975MOL0     H31607   3.483   8.924   4.591 -0.5783 -0.1000  1.5308
  975MOL0     H31608   3.341   8.762   4.468  1.3805 -1.7912 -2.4873
  975MOL0     H31609   3.656   8.452   3.420  1.1718  0.2942 -0.5110
  975MOL0     H31610   3.884   8.429   3.347 -0.0678 -0.7543 -0.9300
  975MOL0     H31611   4.161   8.404   2.995 -0.6160  0.2730  1.2234
  975MOL0     H31612   4.382   8.356   2.869 -1.9408  0.7120  0.0379
  975MOL0     H31613   4.685   8.058   2.966  2.1956  1.1698  0.2952
  975MOL0     H31614   4.687   8.181   3.096 -1.1134  0.0779 -0.3725
  975MOL0     H31615   4.811   8.340   2.935 -1.6575 -0.0153 -0.9779
  975MOL0     H31616   4.807   8.220   2.805 -0.7318  1.4482 -0.7381
  975MOL0     H31617   4.914   8.121   3.070  0.4939 -1.3612 -1.3205
  975MOL0     H31618   5.006   8.252   2.985  0.3846  0.5742 -1.8931
  975MOL0     H31619   4.987   7.966   2.922  2.4241  0.2237  0.7761
  975MOL0     H31620   4.981   8.088   2.782 -2.0782  2.9591  1.0721
  975MOL0     H31621   5.377   8.134   2.886  0.6640 -0.8346  1.7949
  975MOL0     H31622   4.510   8.066   3.142  0.1038 -0.9153 -0.0431
  975MOL0     H31623   4.397   8.008   3.304  2.3630  2.3930 -2.8373
  975MOL0     H31624   4.268   8.115   3.375 -1.2646  1.0362 -1.2355
  975MOL0     H31625   4.218   7.985   3.258 -0.9459  0.8173  1.5372
  976MOL0     O31626   5.775   5.817   0.434 -0.1724 -0.0247  0.8799
  976MOL0     C31627   5.846   5.737   0.488  0.6481  0.1640 -0.1770
  976MOL0     O31628   5.973   5.760   0.537  0.1513 -0.2956  0.5546
  976MOL0     C31629   6.029   5.884   0.530  0.1392 -0.2477 -0.2321
  976MOL0     C31630   5.993   5.995   0.460  0.3834  0.1621  1.1264
  976MOL0     C31631   6.064   6.113   0.467  0.1051  0.5598 -0.1196
  976MOL0     C31632   6.165   6.135   0.554 -0.5688  0.3239 -0.1265
  976MOL0     O31633   6.209   6.264   0.578 -0.3085  0.8017  0.3881
  976MOL0     C31634   6.338   6.280   0.627  0.0614 -0.1543  0.6564
  976MOL0     C31635   6.382   6.412   0.585 -0.6047  1.0409 -0.6679
  976MOL0     C31636   6.530   6.423   0.621 -0.1319  0.0650  0.3514
  976MOL0     C31637   6.601   6.540   0.551  0.7419 -0.0407 -1.2960
  976MOL0     C31638   6.550   6.683   0.568 -0.7290 -0.0883 -0.1008
  976MOL0     C31639   6.535   6.732   0.709  0.1197  0.4304 -0.1823
  976MOL0     C31640   6.444   6.855   0.719 -0.7261 -0.2398 -0.8391
  976MOL0     C31641   6.370   6.879   0.852  0.6841 -0.8012  0.7990
  976MOL0     N31642   6.446   6.935   0.963 -0.9110  0.2409 -0.6509
  976MOL0     C31643   6.505   6.859   1.065 -0.3114 -0.2325  0.0139
  976MOL0     C31644   6.577   6.948   1.145  0.0713  1.1500 -0.3232
  976MOL0     C31645   6.665   6.908   1.262 -0.2906  0.1952  0.1453
  976MOL0     C31646   6.591   6.938   1.400  0.6116  0.3522 -0.4034
  976MOL0     C31647   6.563   7.085   1.412  0.6419  0.1101 -0.7411
  976MOL0     C31648   6.532   7.100   1.563  0.6892 -0.2259 -1.0524
  976MOL0     O31649   6.433   6.999   1.608  0.9318  0.0307  0.6573
  976MOL0     C31650   6.295   7.016   1.608  0.4893 -0.0515 -0.2553
  976MOL0     C31651   6.222   6.896   1.597  0.9935  0.1007  0.0065
  976MOL0     C31652   6.084   6.891   1.585  0.3548  0.0879 -0.2156
  976MOL0     C31653   6.015   7.016   1.590 -0.1784  0.0442 -0.7124
  976MOL0     C31654   5.869   7.029   1.607  1.0178  0.7892 -0.2110
  976MOL0     O31655   5.814   7.146   1.627  0.0445 -0.3835  0.0439
  976MOL0     C31656   5.680   7.150   1.656  0.0387  0.3876 -1.0326
  976MOL0     C31657   5.579   7.138   1.565 -0.3778  0.8601 -0.4140
  976MOL0     C31658   5.449   7.151   1.602 -0.4841  0.6667 -0.4609
  976MOL0     C31659   5.406   7.154   1.735  0.4239  0.7984 -0.3570
  976MOL0     O31660   5.270   7.149   1.762 -0.8401  0.3058  0.3165
  976MOL0     C31661   5.222   7.028   1.821 -0.4127 -0.2650 -0.5124
  976MOL0     C31662   5.073   7.039   1.861 -1.0633  0.7780  0.4784
  976MOL0     C31663   4.975   7.071   1.742 -0.0711  0.2929  0.6080
  976MOL0     C31664   4.900   7.200   1.760  0.7866 -0.5859 -0.5370
  976MOL0     C31665   4.811   7.240   1.636  1.2245 -0.2628 -0.3997
  976MOL0     C31666   4.717   7.353   1.669 -0.2695 -0.3470  0.7716
  976MOL0     C31667   4.645   7.364   1.531  0.2418 -0.7105 -0.1253
  976MOL0     C31668   4.525   7.459   1.543  0.1492 -0.2325  0.7347
  976MOL0    Cl31669   4.564   7.634   1.543 -0.0606 -0.2411  0.0714
  976MOL0     C31670   5.509   7.154   1.837 -0.4791  0.9302 -0.4318
  976MOL0     C31671   5.642   7.148   1.797 -0.4173 -0.6612  0.1072
  976MOL0     O31672   5.808   6.920   1.607 -0.3678  0.5071  0.7335
  976MOL0     C31673   6.086   7.138   1.593 -0.2610 -0.4245 -0.0092
  976MOL0     C31674   6.232   7.131   1.602  0.5468 -0.5800  0.5362
  976MOL0     N31675   6.555   7.071   1.088  0.8962 -0.3262 -0.3307
  976MOL0     N31676   6.478   7.061   0.986  0.4630  0.1301  0.0040
  976MOL0     C31677   6.204   6.023   0.631 -0.0720 -0.3516 -1.1115
  976MOL0     C31678   6.139   5.894   0.617  0.5119 -0.0618  0.2177
  976MOL0     C31679   5.790   5.598   0.474 -0.8868  0.2893 -0.8715
  976MOL0     C31680   5.890   5.500   0.479  0.0395 -0.3700  0.0630
  976MOL0     C31681   5.870   5.364   0.446 -0.3976  0.8086 -0.1731
  976MOL0     C31682   5.740   5.323   0.419  0.4609 -0.0453  0.0235
  976MOL0     O31683   5.708   5.191   0.373 -0.2522 -0.3582  0.1861
  976MOL0     C31684   5.816   5.114   0.317  0.1600  0.4377 -0.3085
  976MOL0     C31685   5.752   4.996   0.224 -0.4623  0.0736  1.6584
  976MOL0     C31686   5.856   4.883   0.193  0.1552 -0.2092  0.6174
  976MOL0     C31687   5.789   4.775   0.119 -0.0212  0.0988 -0.3907
  976MOL0     C31688   5.890   4.681   0.070 -0.2957  0.4004 -0.2499
  976MOL0     C31689   5.980   4.614   0.013  0.3463  0.0687 -0.3655
  976MOL0     C31690   5.633   5.413   0.427 -0.2268 -0.7383  0.5293
  976MOL0     C31691   5.657   5.555   0.444 -0.3195 -0.9233  0.1366
  976MOL0     C31692   5.533   5.655   0.443 -0.6948  0.2990  0.1709
  976MOL0     H31693   5.906   6.010   0.397  1.6789  0.4558 -0.6720
  976MOL0     H31694   6.032   6.196   0.404 -1.4914  0.7880  0.9312
  976MOL0     H31695   6.338   6.263   0.735  2.9172  0.5782  0.8535
  976MOL0     H31696   6.396   6.205   0.574  0.3422  0.5804 -0.1074
  976MOL0     H31697   6.323   6.490   0.634  0.1887  0.0127  2.1057
  976MOL0     H31698   6.372   6.415   0.476  0.2152 -0.8679 -0.8224
  976MOL0     H31699   6.582   6.332   0.590 -0.3117  0.7749 -2.2258
  976MOL0     H31700   6.541   6.433   0.730 -0.7581  0.6176  0.3661
  976MOL0     H31701   6.710   6.536   0.562  0.7821  0.1458 -1.5966
  976MOL0     H31702   6.597   6.500   0.449 -1.0544 -3.2672 -0.1111
  976MOL0     H31703   6.629   6.746   0.527 -1.1754  0.6329  0.1285
  976MOL0     H31704   6.456   6.695   0.514 -0.8744  0.7562  0.3271
  976MOL0     H31705   6.489   6.647   0.761 -0.1559 -0.8240 -2.3443
  976MOL0     H31706   6.630   6.753   0.759  1.0427 -1.1946 -1.1588
  976MOL0     H31707   6.379   6.873   0.633  0.5831  1.5259 -1.5133
  976MOL0     H31708   6.522   6.931   0.710 -0.9451  0.1046  0.0406
  976MOL0     H31709   6.292   6.949   0.819 -0.4551 -3.8208 -3.9104
  976MOL0     H31710   6.315   6.792   0.889 -2.2179  0.0480 -1.1323
  976MOL0     H31711   6.507   6.754   1.092  2.8256  0.5789  3.9904
  976MOL0     H31712   6.687   6.803   1.238 -4.0341 -1.0407  1.3706
  976MOL0     H31713   6.753   6.973   1.262 -0.3266  0.2447  0.8019
  976MOL0     H31714   6.496   6.885   1.403  1.1430 -0.8668 -2.6644
  976MOL0     H31715   6.658   6.898   1.476  0.5645 -0.7471 -0.9146
  976MOL0     H31716   6.474   7.117   1.356 -0.3284  0.9854  1.2119
  976MOL0     H31717   6.642   7.154   1.383 -2.5004  2.7500 -3.9599
  976MOL0     H31718   6.495   7.201   1.582 -0.3957 -0.9009  0.5923
  976MOL0     H31719   6.621   7.090   1.627 -0.7836 -0.9141  0.9841
  976MOL0     H31720   6.283   6.806   1.597  1.3168  0.2782 -2.0609
  976MOL0     H31721   6.032   6.796   1.579  1.7483 -0.7090 -0.1177
  976MOL0     H31722   5.611   7.129   1.462  3.7154 -1.7182  0.8387
  976MOL0     H31723   5.364   7.138   1.535 -0.7323 -1.0534  0.1578
  976MOL0     H31724   5.229   6.948   1.747  0.9795 -1.1363  0.5012
  976MOL0     H31725   5.280   7.011   1.913 -2.6077 -1.5763  0.7127
  976MOL0     H31726   5.042   6.939   1.892 -1.9038  0.9555  0.2301
  976MOL0     H31727   5.066   7.107   1.946 -1.5021  1.0925  0.1929
  976MOL0     H31728   5.015   7.072   1.640 -1.7889  1.2107 -0.1042
  976MOL0     H31729   4.901   6.990   1.742 -1.2869  1.2737 -1.9954
  976MOL0     H31730   4.974   7.279   1.775  0.4853 -0.4396  0.2237
  976MOL0     H31731   4.838   7.190   1.849  1.0509 -1.8224 -0.4770
  976MOL0     H31732   4.744   7.155   1.619  0.1096  0.9186 -2.2352
  976MOL0     H31733   4.864   7.252   1.541  1.9553 -2.6529 -0.3697
  976MOL0     H31734   4.644   7.325   1.745 -1.6170  1.5175  0.2538
  976MOL0     H31735   4.773   7.443   1.694  1.2248 -1.0907  0.2085
  976MOL0     H31736   4.621   7.262   1.500 -1.0827 -1.0416  1.8114
  976MOL0     H31737   4.711   7.416   1.461  1.6765  0.1795  1.8027
  976MOL0     H31738   4.468   7.446   1.451  0.9758 -0.4508  0.2349
  976MOL0     H31739   4.463   7.431   1.628 -0.1013 -1.4485  0.1735
  976MOL0     H31740   5.482   7.153   1.942 -2.5873  3.0643 -0.8890
  976MOL0     H31741   5.723   7.148   1.869 -0.1099 -1.4007 -0.2334
  976MOL0     H31742   6.042   7.237   1.587 -0.6579 -0.3227  3.0049
  976MOL0     H31743   6.282   7.227   1.602 -1.5610  0.6023  2.1014
  976MOL0     H31744   6.285   6.025   0.703  0.4745 -1.5692 -1.6574
  976MOL0     H31745   6.173   5.804   0.667 -1.4664 -1.1938 -0.3801
  976MOL0     H31746   5.994   5.531   0.481 -0.5222  1.7001 -0.4237
  976MOL0     H31747   5.944   5.289   0.469 -1.6807 -0.9616 -1.5245
  976MOL0     H31748   5.873   5.059   0.392  1.4707 -0.3376 -1.8296
  976MOL0     H31749   5.870   5.186   0.255  0.1967 -0.4954 -1.3973
  976MOL0     H31750   5.720   5.052   0.135  2.8622  0.8608  0.8159
  976MOL0     H31751   5.668   4.947   0.275 -0.7198 -2.2147 -0.7521
  976MOL0     H31752   5.911   4.846   0.280 -1.1222 -2.7297  0.4538
  976MOL0     H31753   5.933   4.932   0.131 -0.5133 -0.5449 -0.5072
  976MOL0     H31754   5.718   4.737   0.193  0.1725  0.5314  0.0240
  976MOL0     H31755   5.724   4.806   0.037  0.2571 -3.0537 -1.9487
  976MOL0     H31756   6.041   4.537  -0.030 -2.0270 -1.2246 -1.6177
  976MOL0     H31757   5.534   5.377   0.403 -0.8527  0.9228  0.4690
  976MOL0     H31758   5.512   5.699   0.541  0.6793 -1.5082  1.3365
  976MOL0     H31759   5.541   5.728   0.363  1.3720  0.3663  0.3995
  976MOL0     H31760   5.447   5.590   0.422  0.4892 -1.4207  0.4480
  977MOL0     O31761   9.636   1.899   1.484 -0.3537 -0.6837  0.0548
  977MOL0     C31762   9.588   1.789   1.502  0.0634 -0.6012  0.9253
  977MOL0     O31763   9.653   1.678   1.477 -0.3822 -0.2942  0.2767
  977MOL0     C31764   9.767   1.677   1.402  0.0327  0.1833  0.3288
  977MOL0     C31765   9.757   1.683   1.259 -1.2558 -0.0729  0.3771
  977MOL0     C31766   9.876   1.684   1.185  0.1493 -0.0171  0.1609
  977MOL0     C31767   9.998   1.669   1.240 -0.2040 -0.3624 -0.2329
  977MOL0     O31768  10.115   1.664   1.163  0.2835  0.1869 -0.5872
  977MOL0     C31769  10.125   1.748   1.050 -0.9797  0.2906 -0.7757
  977MOL0     C31770  10.271   1.745   0.995  0.0023 -0.7350  1.2157
  977MOL0     C31771  10.327   1.606   0.951  0.2728  0.0036 -0.3240
  977MOL0     C31772  10.441   1.618   0.845  0.5259 -0.1972 -0.0976
  977MOL0     C31773  10.473   1.485   0.778  0.7864 -0.0351 -0.3416
  977MOL0     C31774  10.608   1.481   0.723 -0.1720  0.0371 -0.0792
  977MOL0     C31775  10.647   1.341   0.682  0.2833 -0.5095 -0.5028
  977MOL0     C31776  10.782   1.341   0.616 -0.8725  0.5405  0.8210
  977MOL0     N31777  10.893   1.319   0.711 -0.6165 -0.4553 -0.7241
  977MOL0     C31778  10.913   1.202   0.780  0.8765  0.1236 -0.1254
  977MOL0     C31779  11.009   1.236   0.872 -0.1807  0.2447 -0.1327
  977MOL0     C31780  11.082   1.154   0.982  0.2037  0.4818  0.2804
  977MOL0     C31781  11.110   1.016   0.929 -0.8940 -0.6646 -0.1798
  977MOL0     C31782  11.217   0.941   1.003  0.3229  0.1716  0.1821
  977MOL0     C31783  11.357   0.989   0.980 -0.7243 -0.0137 -0.6926
  977MOL0     O31784  11.460   0.892   1.000  0.4754  0.1492 -0.0585
  977MOL0     C31785  11.582   0.943   1.030  0.2535 -0.2639  0.3951
  977MOL0     C31786  11.686   0.868   1.077  0.1475  0.5113  0.5875
  977MOL0     C31787  11.823   0.894   1.064 -0.3343 -0.2941 -0.8717
  977MOL0     C31788  11.864   1.011   0.994  1.1920 -0.2439 -0.9021
  977MOL0     C31789  12.000   1.053   0.989 -0.0123 -0.0890 -0.1571
  977MOL0     O31790  12.019   1.188   0.961  0.5322  0.1373  0.5583
  977MOL0     C31791  12.141   1.221   0.937  0.4469 -0.2497 -0.0367
  977MOL0     C31792  12.196   1.176   0.818 -0.2821  0.4155  0.3457
  977MOL0     C31793  12.327   1.226   0.775  0.4387  0.2117 -0.7409
  977MOL0     C31794  12.386   1.313   0.862 -0.4291 -0.9648 -0.1651
  977MOL0     O31795  12.505   1.372   0.820 -0.0461  0.3477  0.0780
  977MOL0     C31796  12.624   1.320   0.887  0.0823 -0.0957 -0.6258
  977MOL0     C31797  12.753   1.356   0.812 -0.4336  1.1268  0.1600
  977MOL0     C31798  12.750   1.344   0.651 -0.3670  0.1438  0.0739
  977MOL0     C31799  12.704   1.473   0.587 -0.0381 -0.3036  0.2786
  977MOL0     C31800  12.699   1.479   0.431  0.1338 -0.8079  0.0289
  977MOL0     C31801  12.609   1.367   0.369  0.0151  0.5081  0.9018
  977MOL0     C31802  12.463   1.401   0.399  0.7462 -0.2855 -0.8628
  977MOL0     C31803  12.367   1.297   0.342 -0.0568  0.0965  0.7855
  977MOL0    Cl31804  12.238   1.366   0.246 -0.3185  0.3779  0.1652
  977MOL0     C31805  12.337   1.346   0.989  0.5038 -0.0745  0.1720
  977MOL0     C31806  12.209   1.308   1.025 -0.9355  0.3602  0.4154
  977MOL0     O31807  12.083   0.966   1.017  0.8618  0.0158 -0.7006
  977MOL0     C31808  11.759   1.101   0.959 -0.0068 -1.1072 -0.6787
  977MOL0     C31809  11.618   1.068   0.971 -0.5934  0.3787 -0.3114
  977MOL0     N31810  11.035   1.373   0.858  0.1554 -0.4491  0.7714
  977MOL0     N31811  10.972   1.422   0.753 -0.2113  0.1938 -0.6043
  977MOL0     C31812  10.004   1.661   1.382 -0.0519 -0.5329 -0.3995
  977MOL0     C31813   9.892   1.660   1.470  0.1309  0.1532  0.0878
  977MOL0     C31814   9.462   1.782   1.564 -0.9560  0.0339  0.4670
  977MOL0     C31815   9.356   1.829   1.492  0.5002  1.0370  0.7895
  977MOL0     C31816   9.222   1.826   1.546 -0.6224 -0.3199  0.1226
  977MOL0     C31817   9.202   1.768   1.669 -0.5453  0.4164 -0.3778
  977MOL0     O31818   9.075   1.745   1.724  0.1971 -0.5634 -0.2015
  977MOL0     C31819   8.960   1.812   1.668 -0.0629  0.0226  0.1062
  977MOL0     C31820   8.843   1.736   1.707  0.3913 -0.2061  0.4292
  977MOL0     C31821   8.825   1.704   1.856  0.0304  0.1158  0.1200
  977MOL0     C31822   8.820   1.830   1.944  0.2592 -0.7323  0.0944
  977MOL0     C31823   8.690   1.867   1.994  0.6041  0.2804  0.2254
  977MOL0     C31824   8.571   1.896   2.019 -0.4293 -0.6350  0.1768
  977MOL0     C31825   9.317   1.718   1.737 -0.1124 -0.4562 -0.0616
  977MOL0     C31826   9.452   1.726   1.692 -0.1861  0.1513  0.3850
  977MOL0     C31827   9.567   1.668   1.778 -0.2262 -0.2593  0.0250
  977MOL0     H31828   9.663   1.716   1.215 -1.1927  3.0688  2.2364
  977MOL0     H31829   9.877   1.691   1.076 -0.9940 -0.2821  0.1141
  977MOL0     H31830  10.068   1.711   0.964  1.1631  2.0473 -3.1501
  977MOL0     H31831  10.109   1.854   1.070  1.2303  0.4645  0.3407
  977MOL0     H31832  10.339   1.783   1.073 -0.5530 -1.1200  1.9010
  977MOL0     H31833  10.271   1.815   0.911 -2.8471 -3.2626 -1.1119
  977MOL0     H31834  10.241   1.559   0.903  0.5749  0.6151 -1.4831
  977MOL0     H31835  10.361   1.546   1.036  2.7074  1.0537 -0.4650
  977MOL0     H31836  10.411   1.696   0.774  0.9216  1.3255  1.3299
  977MOL0     H31837  10.532   1.652   0.895 -0.3212  2.2301 -0.0803
  977MOL0     H31838  10.446   1.401   0.843  0.9886  0.9032  0.9998
  977MOL0     H31839  10.407   1.478   0.691  1.8067  3.1551 -1.4820
  977MOL0     H31840  10.607   1.543   0.633  1.4661 -1.4734 -1.2014
  977MOL0     H31841  10.678   1.514   0.800 -3.5516  1.6476  2.6211
  977MOL0     H31842  10.567   1.299   0.620  0.3113  0.0229 -0.9069
  977MOL0     H31843  10.645   1.280   0.773  2.0969  3.1021  2.1978
  977MOL0     H31844  10.789   1.254   0.549 -2.1387 -0.1087  1.4907
  977MOL0     H31845  10.804   1.433   0.561 -0.3950  0.1582  0.3638
  977MOL0     H31846  10.857   1.114   0.753  2.6764 -1.7486  1.7680
  977MOL0     H31847  11.178   1.204   0.993  0.7505 -0.6258  0.6478
  977MOL0     H31848  11.032   1.151   1.079  0.9766  0.1223  0.6765
  977MOL0     H31849  11.022   0.952   0.946 -0.8128 -0.3699  1.5076
  977MOL0     H31850  11.139   1.021   0.824 -1.8379  0.3334 -0.4123
  977MOL0     H31851  11.208   0.841   0.960  0.5604  0.8645 -1.5661
  977MOL0     H31852  11.194   0.933   1.109 -2.5718 -2.6621 -0.5176
  977MOL0     H31853  11.373   1.072   1.049 -1.6440  0.3130 -0.8611
  977MOL0     H31854  11.362   1.028   0.878 -0.8407  0.7073 -0.4253
  977MOL0     H31855  11.657   0.772   1.118  1.6331 -0.1234  0.1856
  977MOL0     H31856  11.901   0.829   1.102  3.0398  3.7652 -0.0519
  977MOL0     H31857  12.148   1.104   0.752  0.4765 -0.6996  0.9764
  977MOL0     H31858  12.384   1.189   0.691  1.0028 -0.9298  0.1160
  977MOL0     H31859  12.627   1.366   0.987  0.5467  1.8016 -1.4528
  977MOL0     H31860  12.621   1.213   0.905  2.2593  0.1055  1.4973
  977MOL0     H31861  12.776   1.462   0.826 -2.1863  1.5322  0.1883
  977MOL0     H31862  12.826   1.280   0.839 -1.5505 -0.2619 -0.6052
  977MOL0     H31863  12.854   1.343   0.617 -1.2142 -3.3105 -3.1348
  977MOL0     H31864  12.693   1.253   0.629 -0.4484  0.6551 -2.0491
  977MOL0     H31865  12.770   1.554   0.618  1.3979 -1.1988 -0.3722
  977MOL0     H31866  12.602   1.489   0.625 -0.8983 -0.2019 -1.9069
  977MOL0     H31867  12.796   1.476   0.381 -0.8698  0.7288 -2.1719
  977MOL0     H31868  12.660   1.577   0.403 -1.7521 -0.6640  2.7043
  977MOL0     H31869  12.620   1.363   0.260 -4.0468  0.7176  0.3280
  977MOL0     H31870  12.628   1.275   0.424 -2.6061 -0.2057  0.7385
  977MOL0     H31871  12.430   1.483   0.335 -1.9385  1.3550  2.3460
  977MOL0     H31872  12.440   1.438   0.499 -0.2373 -1.8963 -0.4481
  977MOL0     H31873  12.426   1.234   0.274  1.0601  1.5393  0.3724
  977MOL0     H31874  12.337   1.226   0.420  0.4513  1.2027  2.0291
  977MOL0     H31875  12.401   1.397   1.060 -0.8741  0.7124  0.8929
  977MOL0     H31876  12.161   1.338   1.118  1.5403 -3.2886  3.1320
  977MOL0     H31877  11.790   1.201   0.930 -2.1652  0.6377  2.4538
  977MOL0     H31878  11.550   1.138   0.923 -0.4238  0.5434 -0.3129
  977MOL0     H31879  10.101   1.658   1.432  0.7410  0.4579 -1.7985
  977MOL0     H31880   9.907   1.636   1.575  1.6033 -1.0769 -0.3694
  977MOL0     H31881   9.364   1.880   1.397  0.2439  1.0394  0.7685
  977MOL0     H31882   9.139   1.857   1.484  1.9987  2.6086 -2.2240
  977MOL0     H31883   8.956   1.838   1.561 -2.7623  3.5859  0.9068
  977MOL0     H31884   8.962   1.914   1.706  2.0516  1.9781 -4.4039
  977MOL0     H31885   8.844   1.647   1.643 -2.2087 -0.5742  0.7633
  977MOL0     H31886   8.755   1.790   1.671  1.2970  0.1207 -1.3811
  977MOL0     H31887   8.910   1.642   1.886 -0.7601 -0.4340  1.3172
  977MOL0     H31888   8.737   1.643   1.876 -0.5807  0.6158 -0.9349
  977MOL0     H31889   8.872   1.802   2.037  0.4001 -2.7026 -0.5300
  977MOL0     H31890   8.872   1.913   1.896 -0.3754 -0.8842 -0.8937
  977MOL0     H31891   8.471   1.921   2.046  0.8733  1.7411  3.4380
  977MOL0     H31892   9.286   1.664   1.825  0.2057 -1.8816 -0.7910
  977MOL0     H31893   9.647   1.739   1.799  0.4065 -1.3603  1.4829
  977MOL0     H31894   9.540   1.638   1.879  3.5618 -0.6845  1.0620
  977MOL0     H31895   9.611   1.586   1.719 -1.4738 -0.2042 -1.0326
  978MOL0     O31896   1.970   9.242   1.934  0.1675  0.9385 -0.0647
  978MOL0     C31897   1.904   9.266   1.832 -0.3283 -0.2853  0.1356
  978MOL0     O31898   1.941   9.370   1.734 -0.5018 -0.3939  0.4781
  978MOL0     C31899   2.060   9.431   1.751 -0.0261 -0.2116  0.2397
  978MOL0     C31900   2.068   9.569   1.771  0.6261  0.4434  1.1474
  978MOL0     C31901   2.193   9.638   1.791 -0.1393  0.0139 -0.8316
  978MOL0     C31902   2.306   9.565   1.793  0.4596  0.6892 -0.5055
  978MOL0     O31903   2.425   9.634   1.812 -0.7949 -0.5392  0.7337
  978MOL0     C31904   2.549   9.570   1.817 -0.3968  0.1322 -0.3798
  978MOL0     C31905   2.603   9.570   1.673 -0.5878  0.7038  0.1593
  978MOL0     C31906   2.754   9.516   1.668  0.7779 -1.0079 -0.1525
  978MOL0     C31907   2.805   9.547   1.529 -0.2770  0.1068 -0.2163
  978MOL0     C31908   2.946   9.479   1.521  0.4474 -0.0551  0.4381
  978MOL0     C31909   3.011   9.511   1.392 -0.2173  0.3518 -0.9749
  978MOL0     C31910   3.082   9.648   1.406  0.3040 -0.2070  0.6607
  978MOL0     C31911   3.167   9.683   1.279 -0.3824 -0.5999  0.6759
  978MOL0     N31912   3.098   9.655   1.149 -0.2975  0.0905  0.6504
  978MOL0     C31913   3.005   9.735   1.094 -0.2457  0.0087  0.4692
  978MOL0     C31914   2.967   9.669   0.987 -0.3181  0.2983  0.9920
  978MOL0     C31915   2.845   9.710   0.917 -0.5982 -0.8691  0.1920
  978MOL0     C31916   2.884   9.774   0.785  1.0071 -0.5078 -0.4051
  978MOL0     C31917   2.962   9.675   0.685 -0.3903 -0.5775  0.1015
  978MOL0     C31918   3.000   9.748   0.552  0.1268  0.3773 -1.1648
  978MOL0     O31919   3.128   9.801   0.563 -0.6159  0.6743 -0.0943
  978MOL0     C31920   3.172   9.887   0.474 -0.2077  0.0355  0.4541
  978MOL0     C31921   3.118   9.898   0.342 -0.2705 -0.8486  0.0561
  978MOL0     C31922   3.181   9.990   0.250 -1.3079  0.7586 -0.3467
  978MOL0     C31923   3.294  10.071   0.295  0.7554 -1.3251  0.2916
  978MOL0     C31924   3.347  10.172   0.204  0.1375 -0.3952  0.0063
  978MOL0     O31925   3.405  10.283   0.263 -0.2198 -0.0843 -0.1300
  978MOL0     C31926   3.461  10.371   0.175 -1.3491 -0.1211  0.6124
  978MOL0     C31927   3.416  10.497   0.148 -0.2379  0.5293  0.2807
  978MOL0     C31928   3.491  10.592   0.079 -0.0703 -0.4232  0.3915
  978MOL0     C31929   3.614  10.555   0.029  0.3535  0.6154 -0.8663
  978MOL0     O31930   3.691  10.644  -0.030  0.0379  0.2568 -0.2264
  978MOL0     C31931   3.831  10.656   0.000  0.3276 -0.1258 -0.3014
  978MOL0     C31932   3.856  10.803   0.046 -1.0112  0.0173 -0.5841
  978MOL0     C31933   3.832  10.812   0.202  0.1253  0.0023  0.4088
  978MOL0     C31934   3.919  10.921   0.251  0.5435  0.0052  0.1601
  978MOL0     C31935   3.884  10.957   0.394  0.7008  0.8336 -0.6183
  978MOL0     C31936   3.942  11.092   0.447 -0.6872  0.5029  0.5377
  978MOL0     C31937   3.926  11.214   0.357 -0.2822 -0.6617  0.1584
  978MOL0     C31938   4.016  11.335   0.417  0.5378 -0.8359 -0.9513
  978MOL0    Cl31939   3.939  11.481   0.399 -0.2989  0.2940 -0.3240
  978MOL0     C31940   3.660  10.427   0.040  0.5326  1.1177 -0.0993
  978MOL0     C31941   3.587  10.340   0.118 -1.0342 -0.4145 -1.0169
  978MOL0     O31942   3.329  10.156   0.079 -0.1481 -0.3517 -0.4643
  978MOL0     C31943   3.341  10.055   0.424  0.8098 -0.6030 -0.6299
  978MOL0     C31944   3.279   9.969   0.516  0.3320 -1.1310  0.3874
  978MOL0     N31945   3.018   9.544   0.981 -0.5146  0.0811  0.1074
  978MOL0     N31946   3.111   9.543   1.077  0.5805  0.3334 -1.1758
  978MOL0     C31947   2.299   9.433   1.750  0.3016  0.4897 -0.2608
  978MOL0     C31948   2.180   9.361   1.735  0.6403 -0.8760 -0.8301
  978MOL0     C31949   1.782   9.203   1.793  0.5534  0.1476 -0.4246
  978MOL0     C31950   1.762   9.141   1.668  0.2509 -0.3004  0.0678
  978MOL0     C31951   1.647   9.089   1.633  1.0363  0.2534  0.8426
  978MOL0     C31952   1.543   9.072   1.720 -0.5581 -0.2487  0.8404
  978MOL0     O31953   1.438   8.992   1.702 -0.1160 -0.3877 -0.2284
  978MOL0     C31954   1.423   8.924   1.571 -0.3024 -0.3329 -0.4912
  978MOL0     C31955   1.304   8.840   1.571  0.1290  0.0368 -0.3461
  978MOL0     C31956   1.310   8.748   1.697 -0.6328  1.3917 -0.5749
  978MOL0     C31957   1.212   8.635   1.701  0.4684 -0.3030 -0.2253
  978MOL0     C31958   1.070   8.677   1.723 -0.9963 -0.4124 -0.2380
  978MOL0     C31959   0.955   8.705   1.747  0.1015 -0.1669  0.2114
  978MOL0     C31960   1.562   9.112   1.845  0.7751 -0.2346 -0.0091
  978MOL0     C31961   1.674   9.188   1.889  0.2937  0.6464 -0.1753
  978MOL0     C31962   1.681   9.223   2.036 -0.4545 -0.4511 -0.0092
  978MOL0     H31963   1.970   9.615   1.775 -0.0969 -1.1248  3.2221
  978MOL0     H31964   2.191   9.746   1.804  0.3607  0.5748 -4.3423
  978MOL0     H31965   2.607   9.629   1.889 -0.2464  0.7716 -1.0166
  978MOL0     H31966   2.549   9.466   1.853  2.1219 -0.2035 -1.1670
  978MOL0     H31967   2.596   9.672   1.634  0.7296  2.2280  3.4718
  978MOL0     H31968   2.535   9.506   1.617 -2.0144  1.8355  0.5398
  978MOL0     H31969   2.760   9.408   1.678  0.3151 -1.6224 -4.5760
  978MOL0     H31970   2.818   9.580   1.730 -1.3520 -1.5496  2.8582
  978MOL0     H31971   2.742   9.512   1.447  0.4821 -1.0551 -0.3162
  978MOL0     H31972   2.822   9.655   1.524 -0.1319  0.3384  3.0856
  978MOL0     H31973   3.012   9.511   1.603 -0.1156 -0.9960  1.2867
  978MOL0     H31974   2.950   9.371   1.537 -1.3920 -0.0550  1.0591
  978MOL0     H31975   3.085   9.433   1.369  0.9473  0.7234  1.2382
  978MOL0     H31976   2.949   9.520   1.302  1.2724 -2.3503 -2.4220
  978MOL0     H31977   3.146   9.639   1.494  3.7878 -2.0725 -1.8232
  978MOL0     H31978   3.003   9.723   1.416  0.4593 -0.0649  0.8308
  978MOL0     H31979   3.196   9.789   1.279  3.8181 -1.4897 -2.0319
  978MOL0     H31980   3.265   9.634   1.288 -0.3207 -0.3189  1.6932
  978MOL0     H31981   2.963   9.825   1.138  1.5621 -0.1900  2.7635
  978MOL0     H31982   2.775   9.627   0.906 -4.7119  2.4110 -0.7359
  978MOL0     H31983   2.799   9.788   0.977 -2.0182  0.5536 -2.5807
  978MOL0     H31984   2.796   9.825   0.743  1.5264  0.5833 -0.2133
  978MOL0     H31985   2.949   9.860   0.804 -0.2737  0.5333 -0.5378
  978MOL0     H31986   2.896   9.591   0.661  0.2878 -1.2354  0.5039
  978MOL0     H31987   3.050   9.639   0.739  0.1642 -1.3714 -1.2713
  978MOL0     H31988   2.918   9.818   0.537 -1.4530 -0.6284  2.0000
  978MOL0     H31989   3.008   9.669   0.477  1.1969 -1.9568  1.2426
  978MOL0     H31990   3.046   9.826   0.304 -1.1859  1.6512 -3.3936
  978MOL0     H31991   3.151   9.996   0.146 -1.0922  0.4685 -0.4227
  978MOL0     H31992   3.314  10.524   0.174 -1.6141 -2.4509 -1.5047
  978MOL0     H31993   3.464  10.697   0.067  1.0427 -0.0301  1.1180
  978MOL0     H31994   3.858  10.593   0.086  0.8126  1.7645  1.0149
  978MOL0     H31995   3.901  10.635  -0.081  0.6230  5.5546 -1.9691
  978MOL0     H31996   3.958  10.835   0.022 -0.1679  0.4699  3.0604
  978MOL0     H31997   3.792  10.873  -0.008 -0.4099  1.1933  0.1670
  978MOL0     H31998   3.724  10.821   0.217  0.1946 -0.8295  1.5022
  978MOL0     H31999   3.857  10.721   0.258  0.0433  0.0004  0.4435
  978MOL0     H32000   3.879  11.007   0.197 -0.2969  0.3817  1.3253
  978MOL0     H32001   4.021  10.891   0.226  0.0108 -2.0712  0.2883
  978MOL0     H32002   3.914  10.881   0.466 -1.5444  0.3011 -0.1852
  978MOL0     H32003   3.776  10.959   0.409  0.8937  0.8310  0.9389
  978MOL0     H32004   3.895  11.116   0.543 -1.0391 -0.5261  0.6307
  978MOL0     H32005   4.045  11.067   0.474 -0.9692 -3.5550 -1.3918
  978MOL0     H32006   3.822  11.245   0.363 -0.6639 -1.8727  0.2259
  978MOL0     H32007   3.966  11.206   0.255 -1.4601  1.6843 -0.5594
  978MOL0     H32008   4.032  11.313   0.523 -0.3180  0.9763 -0.4052
  978MOL0     H32009   4.114  11.336   0.368  1.2587  0.7121  0.4179
  978MOL0     H32010   3.755  10.393  -0.001 -0.9510 -2.6940 -0.7938
  978MOL0     H32011   3.616  10.237   0.139 -1.3636 -0.3198 -0.0501
  978MOL0     H32012   3.409  10.129   0.465  0.3957 -0.1316 -0.7816
  978MOL0     H32013   3.317   9.962   0.618  0.8101 -1.5048  0.1878
  978MOL0     H32014   2.389   9.374   1.735  1.3964  1.8899  0.5437
  978MOL0     H32015   2.160   9.256   1.717  0.6890 -0.7042 -1.9673
  978MOL0     H32016   1.850   9.124   1.607 -0.6452  0.7868 -1.6017
  978MOL0     H32017   1.643   9.057   1.530  1.6333 -0.3092  0.9846
  978MOL0     H32018   1.512   8.863   1.553 -0.5921 -1.1320  0.6183
  978MOL0     H32019   1.412   9.004   1.498 -3.0290  1.0976  1.3200
  978MOL0     H32020   1.278   8.787   1.480  1.7041 -0.1121 -0.7439
  978MOL0     H32021   1.222   8.911   1.580  1.3338  1.8510 -2.5324
  978MOL0     H32022   1.304   8.812   1.785  1.0299 -0.0881  0.6849
  978MOL0     H32023   1.401   8.687   1.694 -0.7871  1.0528  0.7306
  978MOL0     H32024   1.211   8.581   1.606  2.2674 -0.8907  0.0558
  978MOL0     H32025   1.240   8.577   1.790  0.8610  1.0611  0.5742
  978MOL0     H32026   0.852   8.725   1.771  0.3025  0.2473  0.7680
  978MOL0     H32027   1.473   9.096   1.906  0.5214  0.3923 -0.2067
  978MOL0     H32028   1.580   9.257   2.062  0.4030  1.0842  1.4842
  978MOL0     H32029   1.717   9.153   2.112  1.6097  0.6778  0.1097
  978MOL0     H32030   1.751   9.306   2.044  0.3747 -1.0770 -0.6021
  979MOL0     O32031   2.090  10.705   1.149  0.5517  0.2027  0.2780
  979MOL0     C32032   2.032  10.597   1.172  0.1095  0.2707 -0.2284
  979MOL0     O32033   2.085  10.497   1.263  0.2683 -0.0543 -0.0935
  979MOL0     C32034   2.201  10.512   1.334 -0.7931 -0.7075 -0.0993
  979MOL0     C32035   2.294  10.409   1.336 -0.0823  0.0101  0.3109
  979MOL0     C32036   2.417  10.420   1.400  0.4877  0.6837 -0.5671
  979MOL0     C32037   2.460  10.544   1.456 -0.1151  0.1643 -0.0124
  979MOL0     O32038   2.582  10.586   1.494  0.5369  0.5404  0.0884
  979MOL0     C32039   2.640  10.534   1.617  0.2039  0.5240 -0.3902
  979MOL0     C32040   2.732  10.411   1.588  0.2570  0.3526  1.4120
  979MOL0     C32041   2.871  10.450   1.557 -0.1332 -0.9106  0.5121
  979MOL0     C32042   2.885  10.482   1.415  0.1399 -1.1640  0.5164
  979MOL0     C32043   3.028  10.515   1.365 -0.0717 -0.1931  0.5132
  979MOL0     C32044   3.008  10.533   1.199  0.0203 -0.1237 -0.0021
  979MOL0     C32045   3.141  10.585   1.136  0.0124  0.3535 -0.6402
  979MOL0     C32046   3.114  10.627   0.990  0.3337  0.2638  0.2666
  979MOL0     N32047   3.080  10.515   0.912  0.6536  0.1409  0.3411
  979MOL0     C32048   2.956  10.473   0.870  0.1557  0.3641 -1.1195
  979MOL0     C32049   2.984  10.387   0.774 -1.0131  0.3345 -1.0153
  979MOL0     C32050   2.882  10.308   0.696  0.4357 -0.6313  0.2702
  979MOL0     C32051   2.808  10.404   0.605  0.7478 -0.3275  0.0803
  979MOL0     C32052   2.704  10.332   0.516 -0.4967 -0.1946  0.4246
  979MOL0     C32053   2.631  10.449   0.442  0.1500 -0.2842 -0.2637
  979MOL0     O32054   2.485  10.441   0.467 -0.8759  0.4651 -0.2472
  979MOL0     C32055   2.404  10.348   0.415  0.3377  0.4816  0.1997
  979MOL0     C32056   2.434  10.240   0.328  0.7428 -0.1619  0.4908
  979MOL0     C32057   2.342  10.137   0.308 -0.1710 -0.8413  1.0421
  979MOL0     C32058   2.215  10.133   0.357 -0.1288 -1.1079  1.2920
  979MOL0     C32059   2.122  10.026   0.308 -0.4688  0.4740  0.4598
  979MOL0     O32060   2.165   9.936   0.211 -0.6595 -0.2311 -0.6997
  979MOL0     C32061   2.087   9.825   0.198 -0.1982  0.8155 -0.5281
  979MOL0     C32062   2.077   9.728   0.296 -0.6696  0.2249 -0.0308
  979MOL0     C32063   2.000   9.612   0.269 -0.2387 -0.0437 -0.4418
  979MOL0     C32064   1.940   9.598   0.149  0.4024  0.4923  0.3199
  979MOL0     O32065   1.848   9.499   0.118 -0.5395 -0.2702 -0.6777
  979MOL0     C32066   1.796   9.397   0.216  0.1452 -0.0742  0.1975
  979MOL0     C32067   1.736   9.290   0.121 -0.2573 -0.7463  0.3822
  979MOL0     C32068   1.626   9.353   0.034  0.5943  0.4143 -0.1199
  979MOL0     C32069   1.575   9.251  -0.069  0.1350 -1.1519  0.4213
  979MOL0     C32070   1.440   9.302  -0.133 -0.2285 -0.4262 -0.8685
  979MOL0     C32071   1.468   9.372  -0.263 -0.0558 -0.4283  0.8941
  979MOL0     C32072   1.349   9.417  -0.348  0.0573  0.8686  0.0726
  979MOL0     C32073   1.393   9.498  -0.471  0.4368 -0.2633 -0.0250
  979MOL0    Cl32074   1.463   9.391  -0.596 -0.1561  0.1434  0.1150
  979MOL0     C32075   1.940   9.704   0.056 -0.3679 -0.5847  0.3506
  979MOL0     C32076   2.020   9.819   0.079  1.2684 -0.2062  0.6593
  979MOL0     O32077   2.009  10.027   0.349  0.0707 -0.1741 -0.7923
  979MOL0     C32078   2.177  10.240   0.430  0.5413  0.8934  0.3422
  979MOL0     C32079   2.270  10.349   0.464 -0.0646  0.5858  0.3717
  979MOL0     N32080   3.123  10.367   0.774  0.2222 -0.0324 -0.0962
  979MOL0     N32081   3.183  10.444   0.857  0.0974 -0.7650 -0.5867
  979MOL0     C32082   2.356  10.640   1.462 -0.0129 -0.2340 -0.1175
  979MOL0     C32083   2.226  10.633   1.407 -0.4154  0.6659 -0.5721
  979MOL0     C32084   1.886  10.567   1.118  0.6474 -0.2233 -0.4723
  979MOL0     C32085   1.828  10.441   1.160 -1.0454  0.2060  1.0063
  979MOL0     C32086   1.700  10.398   1.127  1.3382  0.0019 -0.0140
  979MOL0     C32087   1.621  10.483   1.050  0.7371 -0.4676  0.4742
  979MOL0     O32088   1.492  10.458   1.019 -0.0396 -0.3107  0.5304
  979MOL0     C32089   1.386  10.550   1.002 -1.2291 -0.3539 -2.1001
  979MOL0     C32090   1.351  10.624   1.131 -0.5496  0.5710  0.4377
  979MOL0     C32091   1.235  10.725   1.124  0.9584  0.7211 -0.9465
  979MOL0     C32092   1.117  10.680   1.207 -0.5459 -0.3446 -0.4613
  979MOL0     C32093   1.064  10.562   1.140  0.3059  0.2524  0.0160
  979MOL0     C32094   1.024  10.456   1.090  0.4249 -0.2501 -0.3796
  979MOL0     C32095   1.675  10.605   0.997  0.0844  1.1382 -0.5521
  979MOL0     C32096   1.809  10.641   1.030 -0.0545 -1.4474 -0.4890
  979MOL0     C32097   1.865  10.776   0.978 -0.2031  0.5806  1.0190
  979MOL0     H32098   2.247  10.315   1.309 -0.5778 -0.4640  2.6328
  979MOL0     H32099   2.477  10.330   1.388 -2.7918 -1.3902 -3.3315
  979MOL0     H32100   2.683  10.610   1.682 -2.0584  0.5389  1.2020
  979MOL0     H32101   2.559  10.492   1.678  0.1753 -0.3371 -0.9918
  979MOL0     H32102   2.681  10.351   1.512  2.0428 -1.3728  1.5080
  979MOL0     H32103   2.738  10.355   1.682  1.1405 -0.7949  0.6973
  979MOL0     H32104   2.932  10.364   1.587  2.8758  1.5410  2.0300
  979MOL0     H32105   2.911  10.533   1.616  1.6780 -0.1327 -1.6285
  979MOL0     H32106   2.845  10.396   1.359 -1.0842 -0.8506  0.8860
  979MOL0     H32107   2.815  10.565   1.399 -1.2837 -2.2944  0.6272
  979MOL0     H32108   3.077  10.602   1.412  0.3515  0.1402 -0.5236
  979MOL0     H32109   3.088  10.425   1.379  0.9457  0.2103 -1.0185
  979MOL0     H32110   2.971  10.441   1.153  0.0714  0.7737 -1.9561
  979MOL0     H32111   2.936  10.610   1.171  2.0280  0.9838 -2.5875
  979MOL0     H32112   3.224  10.515   1.135  0.5051  0.5871  3.9874
  979MOL0     H32113   3.169  10.672   1.196 -0.6967  0.1963 -0.0651
  979MOL0     H32114   3.047  10.713   0.984 -0.4687 -0.3569  0.1754
  979MOL0     H32115   3.210  10.663   0.953 -0.5017  2.2323 -0.1008
  979MOL0     H32116   2.860  10.517   0.898  0.6262  2.8612 -3.0719
  979MOL0     H32117   2.927  10.232   0.632  0.0742 -1.6487  1.1926
  979MOL0     H32118   2.819  10.247   0.762  0.7150 -1.7511 -0.4763
  979MOL0     H32119   2.755  10.484   0.659  0.4765 -0.8628  0.6230
  979MOL0     H32120   2.876  10.458   0.539  0.9861  0.2669  0.7964
  979MOL0     H32121   2.632  10.282   0.582 -0.9331 -2.9772 -1.9670
  979MOL0     H32122   2.740  10.258   0.444 -0.5367 -0.5476  0.7629
  979MOL0     H32123   2.638  10.444   0.333 -0.6360 -2.3569 -0.2543
  979MOL0     H32124   2.666  10.548   0.472  1.3331 -1.4339  2.5531
  979MOL0     H32125   2.534  10.218   0.292  0.3870  0.7024 -1.1305
  979MOL0     H32126   2.375  10.065   0.233  3.0120  1.2266  0.2476
  979MOL0     H32127   2.136   9.745   0.386 -0.4078  3.0896 -0.6555
  979MOL0     H32128   1.996   9.532   0.343  0.2129 -0.6238 -1.0297
  979MOL0     H32129   1.880   9.359   0.275 -0.6472  1.5518  2.5399
  979MOL0     H32130   1.717   9.433   0.282  2.1103 -0.1942  2.7614
  979MOL0     H32131   1.818   9.257   0.057  0.6786 -1.1249  1.7294
  979MOL0     H32132   1.703   9.217   0.195 -2.6004  0.1048  0.2890
  979MOL0     H32133   1.540   9.386   0.094  0.8194  1.5632 -0.4013
  979MOL0     H32134   1.676   9.426  -0.029  2.5137 -0.5979  0.1565
  979MOL0     H32135   1.566   9.155  -0.019  1.1369 -2.1394 -1.1986
  979MOL0     H32136   1.652   9.225  -0.142  1.0139  1.6468  0.2297
  979MOL0     H32137   1.390   9.371  -0.064  1.5087  1.0379 -1.0234
  979MOL0     H32138   1.375   9.219  -0.164  3.5394 -3.4126 -1.4677
  979MOL0     H32139   1.524   9.463  -0.239 -0.1982 -0.3677  1.0024
  979MOL0     H32140   1.533   9.306  -0.320 -0.1528  0.1220  0.1320
  979MOL0     H32141   1.272   9.460  -0.283 -0.6430  0.7712 -0.6679
  979MOL0     H32142   1.314   9.318  -0.382  2.8776 -0.1555 -0.0848
  979MOL0     H32143   1.305   9.550  -0.510  0.9483 -0.8066 -2.0325
  979MOL0     H32144   1.461   9.579  -0.440  2.8951 -1.0949 -2.7782
  979MOL0     H32145   1.893   9.698  -0.042  1.7141  0.9852 -0.8369
  979MOL0     H32146   2.021   9.891  -0.002 -0.9743  0.5011  1.2067
  979MOL0     H32147   2.076  10.246   0.469 -0.7673 -2.8916 -1.8791
  979MOL0     H32148   2.246  10.426   0.537 -1.3285  1.5497 -1.0237
  979MOL0     H32149   2.391  10.729   1.514  0.6851  0.3059 -1.4551
  979MOL0     H32150   2.155  10.715   1.418  1.7460  2.6604 -0.6595
  979MOL0     H32151   1.890  10.365   1.207  0.0074  1.6948  2.1444
  979MOL0     H32152   1.644  10.307   1.148  0.9443 -0.2556 -1.9655
  979MOL0     H32153   1.301  10.487   0.977 -1.1560 -0.8726 -1.1011
  979MOL0     H32154   1.405  10.632   0.933 -0.5619  1.1348 -0.2453
  979MOL0     H32155   1.443  10.671   1.167  1.3972 -2.0738 -0.7470
  979MOL0     H32156   1.321  10.548   1.204 -1.4709 -0.3437 -0.8456
  979MOL0     H32157   1.215  10.744   1.018  0.4460  0.6484 -0.8675
  979MOL0     H32158   1.271  10.817   1.170  3.2417 -0.8738  0.7009
  979MOL0     H32159   1.143  10.668   1.312 -0.0245  1.1584 -0.3994
  979MOL0     H32160   1.038  10.755   1.218  1.3421  1.5975  0.5415
  979MOL0     H32161   0.999  10.370   1.030 -2.2668  0.3933 -0.3061
  979MOL0     H32162   1.605  10.670   0.945 -2.8447 -0.0407  1.6532
  979MOL0     H32163   1.974  10.787   0.971  0.0078 -1.8086 -0.6235
  979MOL0     H32164   1.817  10.790   0.881  2.1595 -2.7720 -0.8469
  979MOL0     H32165   1.829  10.849   1.050 -0.7356  2.0244 -0.6654
  980MOL0     O32166   4.456   6.851   5.345 -0.2904  0.2167  0.4606
  980MOL0     C32167   4.424   6.761   5.425 -0.3729  1.0819  0.5979
  980MOL0     O32168   4.504   6.726   5.531  0.0122  0.6119  0.1341
  980MOL0     C32169   4.628   6.781   5.539  0.4777 -0.1072  0.6364
  980MOL0     C32170   4.730   6.718   5.472 -0.3670 -0.4711 -0.1903
  980MOL0     C32171   4.860   6.771   5.486 -0.0417 -0.0246 -0.0699
  980MOL0     C32172   4.889   6.888   5.560 -1.4044  1.0797  0.3750
  980MOL0     O32173   5.014   6.944   5.573 -0.0159  0.1054 -0.1647
  980MOL0     C32174   5.132   6.881   5.522 -0.3021 -0.0473  0.1117
  980MOL0     C32175   5.261   6.973   5.526  0.1602  0.3984 -0.6430
  980MOL0     C32176   5.390   6.911   5.486  0.3905 -0.6397 -0.2774
  980MOL0     C32177   5.488   7.021   5.436 -0.2545  0.0880  0.4471
  980MOL0     C32178   5.609   6.949   5.379  0.4911 -0.0869 -0.8035
  980MOL0     C32179   5.713   7.048   5.340  0.7732 -0.1985 -0.4612
  980MOL0     C32180   5.817   6.978   5.243  0.1989  0.2575 -0.4068
  980MOL0     C32181   5.898   6.849   5.298 -0.0428 -0.6608  0.6392
  980MOL0     N32182   6.001   6.819   5.194 -0.4703 -0.5255  0.1535
  980MOL0     C32183   6.106   6.913   5.172 -0.3377 -0.1204 -0.4512
  980MOL0     C32184   6.191   6.837   5.089  0.6764 -0.2347  0.1849
  980MOL0     C32185   6.326   6.875   5.048 -0.5028 -0.0282  0.2290
  980MOL0     C32186   6.351   7.028   5.069  0.4442  0.4341  0.5551
  980MOL0     C32187   6.492   7.081   5.027  0.7061 -0.5894  0.5662
  980MOL0     C32188   6.520   7.030   4.878 -0.3349  0.5482  0.5945
  980MOL0     O32189   6.589   7.134   4.823 -0.8511 -0.1741  0.0135
  980MOL0     C32190   6.729   7.135   4.824  0.3183 -0.0133  0.2876
  980MOL0     C32191   6.809   7.071   4.918  0.1010  0.1578 -0.6671
  980MOL0     C32192   6.955   7.088   4.926 -0.1838  0.8151 -0.4745
  980MOL0     C32193   7.017   7.182   4.845 -0.0848 -0.1283 -0.3223
  980MOL0     C32194   7.163   7.204   4.841 -0.1805  0.7550  0.0786
  980MOL0     O32195   7.221   7.279   4.732  0.3204  0.2711  0.2408
  980MOL0     C32196   7.356   7.286   4.716 -0.0730  0.8251 -0.2460
  980MOL0     C32197   7.457   7.191   4.759  0.5960 -0.7074  0.7131
  980MOL0     C32198   7.598   7.217   4.737  0.2359  1.3929  0.5205
  980MOL0     C32199   7.631   7.334   4.671  0.5276  1.3686  1.5619
  980MOL0     O32200   7.762   7.361   4.649 -0.7971 -0.6644 -0.4062
  980MOL0     C32201   7.811   7.492   4.617  1.0129 -1.0342  0.1809
  980MOL0     C32202   7.954   7.519   4.646  0.1721 -0.7432 -0.0539
  980MOL0     C32203   8.039   7.450   4.551 -0.1589 -0.2319  0.0828
  980MOL0     C32204   8.178   7.520   4.548  0.8566  0.5210 -0.8743
  980MOL0     C32205   8.241   7.522   4.406 -0.4499 -1.2222 -0.2659
  980MOL0     C32206   8.393   7.572   4.395 -0.2040 -0.3235  0.3467
  980MOL0     C32207   8.439   7.558   4.256  0.4723  0.1369  0.0711
  980MOL0     C32208   8.594   7.568   4.250 -0.5224 -0.3142 -0.0608
  980MOL0    Cl32209   8.677   7.405   4.269 -0.1209  0.1758  0.0579
  980MOL0     C32210   7.535   7.410   4.607 -0.1234  0.2815  0.0408
  980MOL0     C32211   7.402   7.386   4.631  1.0075  0.2954  0.8358
  980MOL0     O32212   7.226   7.157   4.939  0.3470 -0.0678  0.2120
  980MOL0     C32213   6.934   7.252   4.758  1.0672 -0.1656 -0.1372
  980MOL0     C32214   6.797   7.234   4.751  0.0365  0.9398 -0.9979
  980MOL0     N32215   6.131   6.713   5.061  0.0774 -0.1605  0.5586
  980MOL0     N32216   6.017   6.708   5.126 -0.2121 -0.0773 -0.4740
  980MOL0     C32217   4.777   6.956   5.620 -0.8695  0.2961 -0.1867
  980MOL0     C32218   4.647   6.899   5.616 -0.5583 -0.3437 -0.4150
  980MOL0     C32219   4.304   6.685   5.396 -0.2158 -0.1568  0.4479
  980MOL0     C32220   4.249   6.692   5.268  0.4474 -1.1799  0.5836
  980MOL0     C32221   4.140   6.620   5.214 -0.1870 -0.6777  0.9731
  980MOL0     C32222   4.066   6.546   5.311  0.0634  0.4008 -0.0896
  980MOL0     O32223   3.958   6.472   5.285  0.7684  0.3833  0.2635
  980MOL0     C32224   3.901   6.461   5.154 -0.0996  0.7981 -0.3811
  980MOL0     C32225   3.751   6.436   5.181 -1.1697  0.9669 -0.2423
  980MOL0     C32226   3.681   6.449   5.042  0.3560 -0.7418  0.7599
  980MOL0     C32227   3.534   6.470   5.053  0.2723  0.0370  0.4438
  980MOL0     C32228   3.496   6.549   4.934 -0.1630  0.6197  0.6961
  980MOL0     C32229   3.468   6.606   4.830  0.4924  0.2530  0.2002
  980MOL0     C32230   4.113   6.545   5.442 -0.2351 -0.7074  0.1459
  980MOL0     C32231   4.233   6.610   5.489 -0.3074  0.5183 -0.0540
  980MOL0     C32232   4.261   6.596   5.635 -0.6234  0.7998  0.0574
  980MOL0     H32233   4.701   6.633   5.411 -0.4209 -1.6226  1.3643
  980MOL0     H32234   4.941   6.719   5.436 -2.3110 -1.5609 -2.3958
  980MOL0     H32235   5.149   6.786   5.574  0.4222 -0.1334 -0.2674
  980MOL0     H32236   5.114   6.846   5.420 -0.0937  0.4002 -0.0812
  980MOL0     H32237   5.280   7.011   5.627  2.9762 -1.1054 -0.4974
  980MOL0     H32238   5.248   7.055   5.454  1.0305  1.0531 -0.0798
  980MOL0     H32239   5.365   6.828   5.420 -2.2160 -1.1045  1.1579
  980MOL0     H32240   5.415   6.862   5.581  1.0625 -0.7101 -0.4823
  980MOL0     H32241   5.433   7.087   5.368 -4.5216 -2.2645  1.2953
  980MOL0     H32242   5.509   7.084   5.523  2.4752  2.3816 -1.6744
  980MOL0     H32243   5.665   6.883   5.446 -0.2026 -1.5434 -1.6149
  980MOL0     H32244   5.560   6.891   5.300 -0.2663 -0.1285 -0.3179
  980MOL0     H32245   5.663   7.122   5.277 -0.9201 -1.8945 -1.2303
  980MOL0     H32246   5.751   7.089   5.434  1.7356  3.0329 -2.1331
  980MOL0     H32247   5.895   7.049   5.216  0.1045 -0.5916 -3.1776
  980MOL0     H32248   5.766   6.956   5.148 -0.0814  3.0022 -0.9663
  980MOL0     H32249   5.950   6.870   5.393  1.4109  2.5464 -0.7113
  980MOL0     H32250   5.836   6.759   5.308 -0.6482 -0.3079  0.1191
  980MOL0     H32251   6.135   7.007   5.217  3.3362 -0.7606 -1.1773
  980MOL0     H32252   6.397   6.826   5.115 -1.8577 -0.4041  1.4604
  980MOL0     H32253   6.349   6.841   4.947  1.1974 -1.5746  1.0705
  980MOL0     H32254   6.275   7.068   5.001  0.6749  0.0385  0.0585
  980MOL0     H32255   6.334   7.055   5.173 -3.0133 -0.6607  0.3869
  980MOL0     H32256   6.565   7.037   5.095 -0.0929 -4.5295 -0.8860
  980MOL0     H32257   6.503   7.190   5.038 -2.7048  0.3761 -2.9917
  980MOL0     H32258   6.435   7.019   4.810  0.2027  0.0658 -0.0168
  980MOL0     H32259   6.565   6.930   4.870  0.2411  0.9425 -1.8604
  980MOL0     H32260   6.783   6.991   4.987 -2.3148  1.1810 -0.2973
  980MOL0     H32261   7.019   7.026   4.987 -0.8083 -1.5395 -2.0941
  980MOL0     H32262   7.429   7.108   4.822  1.5075 -0.2838  1.7201
  980MOL0     H32263   7.674   7.154   4.782 -1.7449 -1.1663  0.5266
  980MOL0     H32264   7.787   7.525   4.515  1.2907  2.1816  1.0224
  980MOL0     H32265   7.757   7.561   4.682 -0.8384 -1.6502 -0.6304
  980MOL0     H32266   7.968   7.627   4.635  1.1884 -0.7587  0.9212
  980MOL0     H32267   7.981   7.495   4.749  2.2498 -1.0362 -0.6181
  980MOL0     H32268   8.048   7.344   4.578 -0.4528 -0.4218 -0.5477
  980MOL0     H32269   7.996   7.468   4.452  1.2099  0.1117 -0.4594
  980MOL0     H32270   8.245   7.460   4.610 -2.9304 -1.7414  1.4461
  980MOL0     H32271   8.171   7.621   4.587  2.4094 -0.1109  1.1944
  980MOL0     H32272   8.183   7.592   4.345  1.6432  1.0419  0.2060
  980MOL0     H32273   8.223   7.424   4.360  1.9511 -0.7394 -2.4658
  980MOL0     H32274   8.393   7.679   4.422 -1.1597 -0.3885  0.6390
  980MOL0     H32275   8.472   7.528   4.457 -0.4397 -1.8577 -0.4143
  980MOL0     H32276   8.388   7.628   4.189  0.0224  0.8012  1.0743
  980MOL0     H32277   8.416   7.459   4.217 -3.0721  1.5385 -1.8556
  980MOL0     H32278   8.625   7.614   4.156  1.5685 -2.8448 -0.7184
  980MOL0     H32279   8.607   7.642   4.330 -2.4050 -0.7747  0.7110
  980MOL0     H32280   7.570   7.489   4.541 -1.3966  0.6973 -0.1497
  980MOL0     H32281   7.330   7.455   4.590  1.6659  0.9804  0.8018
  980MOL0     H32282   6.980   7.325   4.692 -1.9398  3.0269  0.9927
  980MOL0     H32283   6.738   7.297   4.685  1.0503  1.6896 -1.2182
  980MOL0     H32284   4.793   7.050   5.672 -1.5483  0.5886 -0.4995
  980MOL0     H32285   4.569   6.943   5.676  0.7868  0.0263  1.1285
  980MOL0     H32286   4.302   6.749   5.192  1.2150  0.0155  1.9613
  980MOL0     H32287   4.111   6.616   5.109  1.4280 -0.7609  0.5073
  980MOL0     H32288   3.943   6.378   5.096  0.5455  1.9245 -1.5723
  980MOL0     H32289   3.918   6.555   5.101  1.4657  2.0336  2.1504
  980MOL0     H32290   3.705   6.519   5.236 -0.5873  1.1210  0.0181
  980MOL0     H32291   3.746   6.344   5.240 -0.8864  1.8950  1.2934
  980MOL0     H32292   3.699   6.355   4.990  0.0653 -1.6004  2.1544
  980MOL0     H32293   3.720   6.534   4.986  0.9403 -1.4412  0.0797
  980MOL0     H32294   3.475   6.378   5.056  2.4168 -1.4012  1.3340
  980MOL0     H32295   3.500   6.528   5.139  1.5866  2.4495 -0.5597
  980MOL0     H32296   3.434   6.650   4.738 -1.3256 -0.3281  0.5505
  980MOL0     H32297   4.062   6.495   5.524 -2.0951  0.9045  0.0510
  980MOL0     H32298   4.338   6.666   5.670  2.0224 -1.9711  0.2455
  980MOL0     H32299   4.170   6.611   5.694 -1.8267 -1.0048 -1.2408
  980MOL0     H32300   4.289   6.493   5.657 -1.2238  0.6009 -0.0994
  981MOL0     O32301  10.307  10.078   8.549  0.6852  0.2680 -0.2091
  981MOL0     C32302  10.196  10.119   8.505  0.0284  0.9058 -0.1154
  981MOL0     O32303  10.190  10.185   8.390  0.0106  0.0516 -0.9231
  981MOL0     C32304  10.307  10.217   8.322  0.3232 -0.3463 -0.2536
  981MOL0     C32305  10.414  10.286   8.378  0.3099  0.1308 -0.3790
  981MOL0     C32306  10.527  10.329   8.303 -0.7469  0.0939 -0.5572
  981MOL0     C32307  10.534  10.301   8.168 -0.0405 -0.0954 -0.0433
  981MOL0     O32308  10.650  10.337   8.105 -0.7809 -0.3360  0.9583
  981MOL0     C32309  10.692  10.237   8.008  0.2819 -0.2211  0.0281
  981MOL0     C32310  10.829  10.277   7.969 -0.1730 -0.2872 -0.0144
  981MOL0     C32311  10.929  10.276   8.094  0.9568 -0.1881  0.6370
  981MOL0     C32312  11.070  10.295   8.045  0.8943  0.3158  1.1099
  981MOL0     C32313  11.160  10.320   8.159  0.3409  0.0513  0.3199
  981MOL0     C32314  11.253  10.198   8.167  0.3473 -0.0373  0.3477
  981MOL0     C32315  11.326  10.189   8.292 -0.0939 -0.7264  0.1909
  981MOL0     C32316  11.389  10.312   8.351  0.0975  0.5703  0.1510
  981MOL0     N32317  11.493  10.378   8.268 -0.1190  0.5143  1.4628
  981MOL0     C32318  11.603  10.316   8.218 -0.4910 -0.4216 -0.1901
  981MOL0     C32319  11.661  10.418   8.145  1.0105 -0.7512 -0.2236
  981MOL0     C32320  11.793  10.386   8.073  1.1473  0.4262  0.4303
  981MOL0     C32321  11.922  10.464   8.115  1.2298 -0.6809 -0.5022
  981MOL0     C32322  11.967  10.433   8.258  0.7376 -0.0224  0.7250
  981MOL0     C32323  12.116  10.456   8.292  0.3132 -1.1793  0.6008
  981MOL0     O32324  12.129  10.462   8.426  0.5276  0.3034 -0.3714
  981MOL0     C32325  12.256  10.445   8.465 -0.3858 -0.1801 -0.2053
  981MOL0     C32326  12.337  10.551   8.510 -0.6644  0.2811  0.0021
  981MOL0     C32327  12.473  10.523   8.545 -0.6254  0.0811 -0.6288
  981MOL0     C32328  12.523  10.390   8.542 -0.3511  0.0920  0.1595
  981MOL0     C32329  12.664  10.365   8.591 -0.5524 -1.2212  1.0332
  981MOL0     O32330  12.686  10.232   8.598  0.3819  0.4879 -0.4812
  981MOL0     C32331  12.796  10.172   8.659  0.0790  0.3415  0.3657
  981MOL0     C32332  12.831  10.042   8.622  0.2209 -0.0321 -1.0788
  981MOL0     C32333  12.956   9.985   8.647  0.0104 -0.2822 -0.6879
  981MOL0     C32334  13.049  10.052   8.727 -0.7741 -0.9167  0.5143
  981MOL0     O32335  13.176  10.009   8.749  0.2463 -0.5657 -0.4902
  981MOL0     C32336  13.252   9.970   8.638 -0.6901  0.1646  0.3677
  981MOL0     C32337  13.398  10.007   8.665 -0.0201  0.3042  0.9829
  981MOL0     C32338  13.429  10.127   8.750 -0.4707  0.1702 -0.3877
  981MOL0     C32339  13.569  10.193   8.733 -0.1050  1.0885 -0.3663
  981MOL0     C32340  13.602  10.316   8.808 -0.9359 -0.8892 -0.3426
  981MOL0     C32341  13.732  10.393   8.779 -1.4378  0.0319 -0.5563
  981MOL0     C32342  13.857  10.353   8.855 -0.5136 -0.9444  0.2387
  981MOL0     C32343  13.968  10.461   8.828 -0.5953  0.4344  0.3991
  981MOL0    Cl32344  14.121  10.390   8.886  0.1300 -0.1906 -0.4752
  981MOL0     C32345  13.007  10.175   8.788  0.3354 -0.0697  0.1731
  981MOL0     C32346  12.894  10.233   8.748  0.2502  0.8147  0.4153
  981MOL0     O32347  12.747  10.458   8.611  0.7935  0.3397  0.0182
  981MOL0     C32348  12.433  10.282   8.495 -0.8378 -0.0745 -0.4709
  981MOL0     C32349  12.312  10.310   8.463  1.0913 -1.0787 -0.9563
  981MOL0     N32350  11.594  10.535   8.155  0.8932 -0.1518 -0.8041
  981MOL0     N32351  11.492  10.512   8.231  1.2917 -0.0734 -0.9636
  981MOL0     C32352  10.420  10.245   8.104  0.2581  0.3097  0.0009
  981MOL0     C32353  10.308  10.205   8.186  0.7533 -0.3560 -0.8960
  981MOL0     C32354  10.073  10.082   8.572  0.0697  0.1304  0.3152
  981MOL0     C32355  10.065  10.098   8.706 -0.8140  0.8953  0.0636
  981MOL0     C32356   9.960  10.050   8.778  0.2890 -1.1689  0.8008
  981MOL0     C32357   9.843  10.000   8.715  0.2273  0.0890 -1.2108
  981MOL0     O32358   9.732   9.961   8.779  0.8049 -0.1608 -0.0396
  981MOL0     C32359   9.733   9.959   8.920  0.6079 -0.5667  0.0036
  981MOL0     C32360   9.593   9.927   8.973  0.3063  1.1305 -0.1642
  981MOL0     C32361   9.485  10.026   8.950  0.4689  0.1374 -0.6385
  981MOL0     C32362   9.416   9.977   8.822  0.9452 -0.0889 -0.6542
  981MOL0     C32363   9.335  10.085   8.766  0.3823 -0.1489  0.2008
  981MOL0     C32364   9.269  10.177   8.722 -0.3389  0.5805  0.3098
  981MOL0     C32365   9.847   9.994   8.576  0.0584  0.2294  0.1535
  981MOL0     C32366   9.955  10.028   8.501 -1.1068 -0.2584  0.0098
  981MOL0     C32367   9.952  10.001   8.355  0.4648 -0.5196 -0.1213
  981MOL0     H32368  10.403  10.311   8.483 -0.1712  1.1335 -0.6578
  981MOL0     H32369  10.608  10.388   8.344 -0.8795  1.3060 -1.9963
  981MOL0     H32370  10.689  10.143   8.063 -1.8230  0.6633  1.5623
  981MOL0     H32371  10.630  10.228   7.918 -0.5622  1.0144  0.4619
  981MOL0     H32372  10.825  10.380   7.931 -1.0951  0.7355  2.5947
  981MOL0     H32373  10.867  10.204   7.898 -0.0327 -2.6787  2.3534
  981MOL0     H32374  10.917  10.179   8.144 -2.1549  0.6035  1.7055
  981MOL0     H32375  10.896  10.361   8.155  0.5274  0.8802 -1.0135
  981MOL0     H32376  11.090  10.203   7.988 -0.1153 -1.0425  2.8631
  981MOL0     H32377  11.069  10.380   7.976 -0.9798  1.4189  2.4072
  981MOL0     H32378  11.224  10.403   8.130  2.7312 -2.7823 -3.4232
  981MOL0     H32379  11.107  10.340   8.253  1.7645 -2.4428  1.7847
  981MOL0     H32380  11.204  10.101   8.159 -0.0722  0.2465 -0.6282
  981MOL0     H32381  11.340  10.201   8.101  0.3090 -4.7089 -0.2658
  981MOL0     H32382  11.417  10.129   8.281  1.6131  1.6583  0.4912
  981MOL0     H32383  11.267  10.137   8.368 -1.0813 -0.5917 -0.4667
  981MOL0     H32384  11.318  10.393   8.369  0.6890  0.9445  0.8838
  981MOL0     H32385  11.422  10.278   8.450 -1.4228  0.2056  0.5546
  981MOL0     H32386  11.634  10.213   8.234  0.8370 -0.3923 -2.2736
  981MOL0     H32387  11.817  10.286   8.109 -2.0778 -1.4712 -2.1786
  981MOL0     H32388  11.775  10.389   7.965 -1.3967 -0.8606  0.7379
  981MOL0     H32389  11.996  10.407   8.058  0.0453 -1.3807 -1.4097
  981MOL0     H32390  11.928  10.571   8.095  1.1909 -1.0385 -2.6325
  981MOL0     H32391  11.945  10.330   8.288 -1.0095  1.1798  3.9838
  981MOL0     H32392  11.904  10.493   8.324 -0.0608  0.5678 -0.5415
  981MOL0     H32393  12.147  10.553   8.250 -1.4233 -1.1864 -0.8525
  981MOL0     H32394  12.174  10.373   8.253 -0.9954 -1.8603  0.0291
  981MOL0     H32395  12.289  10.648   8.516  1.3874  1.4184 -0.9378
  981MOL0     H32396  12.536  10.606   8.575  2.3094 -1.8615 -0.9674
  981MOL0     H32397  12.760   9.991   8.557 -2.1273 -0.3990  1.5775
  981MOL0     H32398  12.975   9.890   8.598 -1.1165 -0.0334 -1.6691
  981MOL0     H32399  13.251   9.862   8.624  2.1152 -0.0461  1.1893
  981MOL0     H32400  13.220  10.012   8.542 -1.5836 -2.0684 -0.3678
  981MOL0     H32401  13.449   9.928   8.720  0.7250 -0.7644 -1.1647
  981MOL0     H32402  13.445  10.021   8.567  2.7075  0.7947  2.2728
  981MOL0     H32403  13.346  10.199   8.742  0.8144  1.6474 -1.0969
  981MOL0     H32404  13.438  10.106   8.857  4.1784  0.1216 -0.6036
  981MOL0     H32405  13.601  10.204   8.629  0.0604 -2.6820 -0.8322
  981MOL0     H32406  13.642  10.116   8.760  0.1035  0.8919 -1.4670
  981MOL0     H32407  13.615  10.292   8.914  2.1138 -0.8348 -0.6058
  981MOL0     H32408  13.521  10.385   8.784  0.0476 -0.5583 -3.1389
  981MOL0     H32409  13.759  10.396   8.672  0.8228  4.2108 -0.1242
  981MOL0     H32410  13.710  10.500   8.791 -0.8361  0.0137  0.8970
  981MOL0     H32411  13.877  10.254   8.813  0.4724 -0.2066 -1.1102
  981MOL0     H32412  13.833  10.350   8.962 -1.6768 -0.4097  0.0123
  981MOL0     H32413  13.976  10.474   8.720  1.8198 -2.0768  0.1582
  981MOL0     H32414  13.947  10.555   8.879 -0.8797  2.2744 -2.8453
  981MOL0     H32415  13.070  10.230   8.857 -0.5043 -0.5724  1.3728
  981MOL0     H32416  12.885  10.334   8.786  0.5281  1.3094 -0.7953
  981MOL0     H32417  12.478  10.183   8.486  3.3542  1.7064 -1.7196
  981MOL0     H32418  12.250  10.231   8.420 -1.2819  0.4681 -0.5719
  981MOL0     H32419  10.399  10.219   8.001 -0.2440  0.4232  0.0692
  981MOL0     H32420  10.220  10.165   8.135 -0.3331  2.6309 -1.5668
  981MOL0     H32421  10.147  10.137   8.767 -0.0649  2.2087 -1.6906
  981MOL0     H32422   9.960  10.064   8.885  1.4448 -0.3715  0.7178
  981MOL0     H32423   9.771  10.049   8.970  0.6646 -1.5635  1.8097
  981MOL0     H32424   9.797   9.875   8.947 -2.3540 -2.4615  1.5950
  981MOL0     H32425   9.596   9.915   9.082 -0.7586 -2.5896 -0.4168
  981MOL0     H32426   9.570   9.827   8.936 -2.6875  1.4392  0.6643
  981MOL0     H32427   9.523  10.127   8.941 -2.5010  1.3256 -1.2094
  981MOL0     H32428   9.413  10.022   9.033 -0.1336 -1.5677 -1.1828
  981MOL0     H32429   9.495   9.943   8.755  2.3607 -2.7157  2.0866
  981MOL0     H32430   9.359   9.885   8.837  3.8374 -1.9431 -0.3125
  981MOL0     H32431   9.206  10.259   8.698  0.3879  1.6887  2.0103
  981MOL0     H32432   9.749   9.983   8.531  0.3073  1.1212 -0.6587
  981MOL0     H32433  10.040   9.943   8.327  1.4446  0.3496  1.0307
  981MOL0     H32434   9.862   9.945   8.326 -0.1720 -0.2419  1.2433
  981MOL0     H32435   9.953  10.091   8.293 -3.1351 -1.0415 -1.1786
  982MOL0     O32436   7.384   5.818   2.251  0.6451  0.0947 -0.6178
  982MOL0     C32437   7.397   5.872   2.141 -0.4499 -0.7953 -0.2835
  982MOL0     O32438   7.320   5.981   2.100 -0.1187  0.2319  0.5727
  982MOL0     C32439   7.216   6.013   2.184 -0.1511 -0.3036 -0.1186
  982MOL0     C32440   7.091   5.948   2.159 -0.1368 -0.3173  0.1164
  982MOL0     C32441   6.978   6.003   2.218 -0.5814 -0.3981  0.7982
  982MOL0     C32442   6.979   6.116   2.308 -0.3277 -0.5928  0.2594
  982MOL0     O32443   6.861   6.162   2.362  0.2169  0.3876 -0.6770
  982MOL0     C32444   6.846   6.261   2.470 -1.1096 -0.3764  0.1779
  982MOL0     C32445   6.703   6.321   2.479  0.6052  0.0001  0.4125
  982MOL0     C32446   6.601   6.207   2.499  0.1698 -1.1368 -0.1302
  982MOL0     C32447   6.454   6.261   2.507  0.6485 -0.6026  0.3693
  982MOL0     C32448   6.358   6.142   2.547  0.1339  0.7097  0.1493
  982MOL0     C32449   6.209   6.168   2.535 -0.1752 -0.2077  0.1612
  982MOL0     C32450   6.130   6.041   2.554  0.0845  0.0412 -0.5592
  982MOL0     C32451   5.987   6.091   2.509  0.0851  0.6593  1.0288
  982MOL0     N32452   5.877   6.000   2.559  0.2828  0.1116 -0.2536
  982MOL0     C32453   5.851   5.976   2.690  1.9514 -0.0080 -0.3541
  982MOL0     C32454   5.725   5.910   2.685  0.3109 -0.3050  0.0388
  982MOL0     C32455   5.650   5.854   2.808 -1.0924 -0.6276  0.1039
  982MOL0     C32456   5.711   5.728   2.874  0.3733 -0.5242  0.3944
  982MOL0     C32457   5.714   5.606   2.781  0.0503  0.5854 -0.2503
  982MOL0     C32458   5.805   5.492   2.830  0.2591 -0.7250 -0.1251
  982MOL0     O32459   5.767   5.440   2.958  0.6012  0.3300  0.2253
  982MOL0     C32460   5.648   5.369   2.963 -0.1708  0.1884  0.1135
  982MOL0     C32461   5.581   5.389   3.079 -0.8338 -0.7406  0.6035
  982MOL0     C32462   5.457   5.336   3.097  0.5403 -0.1373  0.5643
  982MOL0     C32463   5.383   5.276   2.987 -0.5133 -0.4043  0.1881
  982MOL0     C32464   5.244   5.233   3.002  0.1695 -0.3243 -0.0733
  982MOL0     O32465   5.189   5.217   3.128 -0.3770 -0.4981 -0.2097
  982MOL0     C32466   5.074   5.154   3.126  0.3252  0.1125 -0.2379
  982MOL0     C32467   5.044   5.030   3.066  0.2460 -0.3031 -0.9286
  982MOL0     C32468   4.919   4.968   3.093  0.7267 -0.4368 -0.6871
  982MOL0     C32469   4.820   5.036   3.161 -0.3367  0.7869 -0.0819
  982MOL0     O32470   4.705   4.977   3.207  0.0455 -0.7925 -0.0586
  982MOL0     C32471   4.696   4.836   3.193  0.6382 -0.9314  0.4812
  982MOL0     C32472   4.559   4.795   3.260 -0.0474 -0.1767  0.1695
  982MOL0     C32473   4.432   4.877   3.214 -0.1852 -0.1558 -0.9675
  982MOL0     C32474   4.420   4.874   3.064  0.5217  0.5159  0.4953
  982MOL0     C32475   4.279   4.941   3.026  0.3341 -0.0475  0.2596
  982MOL0     C32476   4.159   4.843   3.015 -0.1132 -0.1046 -0.7039
  982MOL0     C32477   4.042   4.921   3.004  0.1097  0.2380  0.3495
  982MOL0     C32478   3.920   4.852   2.947  0.4139 -0.2844 -0.5499
  982MOL0    Cl32479   3.776   4.956   2.929 -0.5709 -0.3663 -0.4700
  982MOL0     C32480   4.844   5.168   3.205  0.6844  0.5093 -0.1510
  982MOL0     C32481   4.973   5.219   3.193  0.1334  0.5460 -0.4292
  982MOL0     O32482   5.189   5.209   2.896  0.2186  0.9878  0.1578
  982MOL0     C32483   5.456   5.259   2.869 -0.9284  0.7394 -0.0027
  982MOL0     C32484   5.585   5.297   2.862 -1.0138  0.1258  0.3985
  982MOL0     N32485   5.687   5.899   2.553  0.6539 -0.0868 -0.1187
  982MOL0     N32486   5.780   5.951   2.477 -0.1434  1.0484 -0.8279
  982MOL0     C32487   7.106   6.174   2.332 -0.6801  0.6850 -0.5133
  982MOL0     C32488   7.222   6.125   2.270  0.2961 -0.7579  0.4803
  982MOL0     C32489   7.514   5.832   2.049 -0.4905  0.1059 -0.1769
  982MOL0     C32490   7.560   5.932   1.963  0.2906 -1.5304  0.3228
  982MOL0     C32491   7.668   5.910   1.878 -0.9881 -0.0352 -0.5056
  982MOL0     C32492   7.732   5.787   1.876  0.8970  1.1054 -0.2255
  982MOL0     O32493   7.843   5.749   1.803 -0.0032 -0.1725  0.2740
  982MOL0     C32494   7.906   5.838   1.718 -0.5530 -0.7061 -0.6504
  982MOL0     C32495   8.006   5.771   1.623  0.6450  0.4431 -0.6505
  982MOL0     C32496   8.107   5.672   1.690  0.2055  0.2375 -0.5213
  982MOL0     C32497   8.224   5.749   1.753 -1.0827 -0.4007  0.3183
  982MOL0     C32498   8.329   5.656   1.807 -0.3806  0.3189  0.1140
  982MOL0     C32499   8.393   5.563   1.863  0.2850 -0.0741 -0.1826
  982MOL0     C32500   7.684   5.682   1.957  0.0172 -0.4297  0.2610
  982MOL0     C32501   7.579   5.702   2.046  0.7400  0.8718 -0.2884
  982MOL0     C32502   7.525   5.586   2.136  1.2302  0.2106 -0.1825
  982MOL0     H32503   7.086   5.857   2.100  0.7526 -1.2765  1.4640
  982MOL0     H32504   6.882   5.956   2.200 -0.0664 -1.4483  0.6957
  982MOL0     H32505   6.877   6.219   2.566  0.9595  0.0088 -0.2614
  982MOL0     H32506   6.919   6.343   2.461 -1.5980  0.2272  1.4234
  982MOL0     H32507   6.686   6.361   2.378 -0.1676 -3.3542 -0.9338
  982MOL0     H32508   6.698   6.390   2.563 -0.3735 -1.0511  1.2490
  982MOL0     H32509   6.630   6.173   2.599  2.4617 -1.1861 -0.7491
  982MOL0     H32510   6.599   6.128   2.423 -0.0949 -0.0497 -1.2854
  982MOL0     H32511   6.444   6.352   2.567  1.7239 -1.2849  1.6163
  982MOL0     H32512   6.426   6.301   2.409 -0.7067 -0.8547  0.6327
  982MOL0     H32513   6.383   6.059   2.481 -2.9094 -2.2941  2.4290
  982MOL0     H32514   6.375   6.113   2.651 -0.0431 -0.3555 -0.1060
  982MOL0     H32515   6.189   6.247   2.609 -1.1489 -1.0249  0.7984
  982MOL0     H32516   6.180   6.212   2.439 -0.6046  0.9918  0.8184
  982MOL0     H32517   6.117   6.011   2.658 -3.1567  2.4406 -0.0966
  982MOL0     H32518   6.165   5.957   2.494  0.3351 -0.5631  0.4225
  982MOL0     H32519   5.971   6.194   2.544 -0.4890  1.2659 -0.9031
  982MOL0     H32520   5.972   6.089   2.401 -2.9852 -2.3626  1.3337
  982MOL0     H32521   5.909   6.010   2.775 -0.0134  1.6949  0.3801
  982MOL0     H32522   5.642   5.942   2.872 -1.4157  0.9232 -1.9754
  982MOL0     H32523   5.548   5.826   2.781 -1.0273 -0.9694  0.2071
  982MOL0     H32524   5.814   5.765   2.877  0.5244 -0.9322  0.2432
  982MOL0     H32525   5.672   5.704   2.973 -1.7897  1.1296  0.0224
  982MOL0     H32526   5.759   5.643   2.688  2.0522  1.0766  0.8564
  982MOL0     H32527   5.611   5.568   2.780  0.5719 -1.0087  1.7568
  982MOL0     H32528   5.909   5.525   2.836  0.6818 -1.7854 -1.1270
  982MOL0     H32529   5.800   5.405   2.764  2.5333 -2.3306  1.6527
  982MOL0     H32530   5.619   5.452   3.159  1.3921  0.9213 -1.5761
  982MOL0     H32531   5.419   5.330   3.199 -1.5301 -1.2927 -0.2300
  982MOL0     H32532   5.112   4.980   2.999  0.1078  0.7577 -1.8997
  982MOL0     H32533   4.896   4.870   3.054  0.4087 -0.2462 -0.9847
  982MOL0     H32534   4.689   4.805   3.089 -2.7647 -2.2986  0.9693
  982MOL0     H32535   4.772   4.780   3.247 -0.0369 -1.5901  0.7713
  982MOL0     H32536   4.535   4.691   3.236 -0.5621  0.0240 -0.1987
  982MOL0     H32537   4.582   4.798   3.367  2.8740 -0.6097 -0.3634
  982MOL0     H32538   4.340   4.843   3.262 -1.4237  1.6645 -1.9092
  982MOL0     H32539   4.424   4.983   3.241 -1.7167  0.1189 -2.3827
  982MOL0     H32540   4.429   4.777   3.015 -1.5599 -0.1087  1.2582
  982MOL0     H32541   4.489   4.945   3.017  1.5498  0.4482  1.8291
  982MOL0     H32542   4.298   5.000   2.936 -1.4529 -0.1643 -0.2300
  982MOL0     H32543   4.270   5.011   3.111  2.7829 -0.9482  1.3562
  982MOL0     H32544   4.180   4.782   2.927  0.1918 -0.1367 -0.6091
  982MOL0     H32545   4.160   4.785   3.107  0.2301  1.2597  0.1829
  982MOL0     H32546   4.057   5.005   2.935 -2.5267 -0.6157 -1.4501
  982MOL0     H32547   4.016   4.965   3.101 -0.7524  1.6844 -0.5010
  982MOL0     H32548   3.945   4.796   2.856  1.0106  0.5502 -0.9095
  982MOL0     H32549   3.884   4.783   3.024 -2.3539  2.0338  0.3994
  982MOL0     H32550   4.753   5.209   3.246  1.9180  1.6024  1.6762
  982MOL0     H32551   4.983   5.316   3.241 -3.9389  0.6834  0.5209
  982MOL0     H32552   5.416   5.221   2.775  1.3051  3.0724 -2.0450
  982MOL0     H32553   5.627   5.283   2.763 -2.3150 -0.9166 -0.0380
  982MOL0     H32554   7.113   6.262   2.395 -3.2567  0.5342  0.0751
  982MOL0     H32555   7.315   6.179   2.287 -0.5327  0.3716  1.6549
  982MOL0     H32556   7.515   6.031   1.960  4.1602  0.4062  0.2134
  982MOL0     H32557   7.702   5.996   1.820 -0.1808 -0.7614 -1.1335
  982MOL0     H32558   7.963   5.913   1.774 -0.8986 -0.1234 -1.0689
  982MOL0     H32559   7.825   5.886   1.663 -2.6427 -0.6045  2.2461
  982MOL0     H32560   8.066   5.848   1.571 -0.5691 -0.4137 -3.5027
  982MOL0     H32561   7.954   5.716   1.544 -0.6697 -0.5944  0.8954
  982MOL0     H32562   8.142   5.593   1.623  3.5507  2.7990 -2.0490
  982MOL0     H32563   8.061   5.625   1.777  2.5558  0.7485  1.0764
  982MOL0     H32564   8.270   5.805   1.670 -6.1727  3.0569 -0.6701
  982MOL0     H32565   8.181   5.818   1.826 -2.6504 -2.5464  1.5232
  982MOL0     H32566   8.450   5.504   1.932  0.6100  1.5366  0.9725
  982MOL0     H32567   7.745   5.594   1.943  3.4588  1.6189  1.0216
  982MOL0     H32568   7.532   5.488   2.088  0.5619  0.6395 -1.1785
  982MOL0     H32569   7.583   5.577   2.228 -0.5984 -3.5359  0.7836
  982MOL0     H32570   7.423   5.591   2.174  1.4801 -0.0173  0.5252
  983MOL0     O32571   3.880   1.772  11.387  0.2749 -0.0864  0.0214
  983MOL0     C32572   3.949   1.691  11.445 -0.3068 -0.2158  0.4018
  983MOL0     O32573   3.918   1.566  11.477 -0.3747 -0.3565 -0.3670
  983MOL0     C32574   3.791   1.526  11.441  0.0456  0.4442  0.2374
  983MOL0     C32575   3.673   1.587  11.467  1.0146  0.2673  0.2847
  983MOL0     C32576   3.549   1.540  11.423 -0.0866  0.8070 -0.1718
  983MOL0     C32577   3.536   1.420  11.349 -0.1761 -0.2796  0.4965
  983MOL0     O32578   3.406   1.384  11.318  0.6546 -0.1303  0.9464
  983MOL0     C32579   3.369   1.243  11.312 -1.0192 -0.7133 -0.3415
  983MOL0     C32580   3.210   1.226  11.320 -0.3831  0.4650  0.2237
  983MOL0     C32581   3.173   1.077  11.319  0.2108 -0.6583  0.4193
  983MOL0     C32582   3.035   1.069  11.277 -0.0068 -0.4294 -0.5509
  983MOL0     C32583   2.987   0.929  11.263  0.9625 -0.1129  0.5048
  983MOL0     C32584   2.837   0.913  11.235 -1.0944  0.8547  0.6513
  983MOL0     C32585   2.799   0.761  11.215 -1.2928 -1.1257 -0.0201
  983MOL0     C32586   2.808   0.680  11.340  0.0720  1.2781 -0.1328
  983MOL0     N32587   2.717   0.713  11.450 -1.6869  1.0233 -0.7750
  983MOL0     C32588   2.753   0.700  11.583 -0.8481 -0.1237  0.8975
  983MOL0     C32589   2.659   0.777  11.644 -0.4949  1.3600 -0.4483
  983MOL0     C32590   2.646   0.801  11.790  0.3113  0.8491 -0.5018
  983MOL0     C32591   2.781   0.838  11.854  0.1655 -0.7721  0.6021
  983MOL0     C32592   2.781   0.903  11.986  0.5295 -0.2883 -0.7160
  983MOL0     C32593   2.915   0.857  12.067  0.6962  0.3548  0.4348
  983MOL0     O32594   2.920   0.720  12.109 -0.5893 -0.1961  0.3991
  983MOL0     C32595   3.024   0.694  12.201  0.4013 -1.0114  0.2578
  983MOL0     C32596   3.016   0.575  12.266 -0.3031 -0.0949 -0.6118
  983MOL0     C32597   3.102   0.540  12.380 -0.0433 -0.3104 -0.0048
  983MOL0     C32598   3.197   0.633  12.420  0.6248  0.3882  0.3382
  983MOL0     C32599   3.267   0.601  12.556 -0.5500 -0.9983  0.4659
  983MOL0     O32600   3.364   0.687  12.596  0.1784  0.3223 -0.7148
  983MOL0     C32601   3.446   0.654  12.696 -0.1332  0.6253 -0.3970
  983MOL0     C32602   3.445   0.710  12.827 -0.0771  0.2849  0.6171
  983MOL0     C32603   3.542   0.684  12.922  0.0054  0.6007 -1.7050
  983MOL0     C32604   3.627   0.574  12.903 -0.5271  0.6156 -1.0801
  983MOL0     O32605   3.716   0.534  13.011 -0.5923  0.0746  0.3688
  983MOL0     C32606   3.844   0.487  12.998  0.5402  0.1568  0.0383
  983MOL0     C32607   3.918   0.481  13.130 -1.4095 -0.2060 -0.0944
  983MOL0     C32608   4.068   0.441  13.101 -0.0958 -0.2160 -0.0968
  983MOL0     C32609   4.160   0.431  13.224  0.0324  0.4720 -0.4046
  983MOL0     C32610   4.292   0.387  13.154  0.3712 -0.1843  0.2173
  983MOL0     C32611   4.412   0.382  13.254  0.0253  0.2473 -0.1628
  983MOL0     C32612   4.536   0.338  13.184 -0.6269 -0.0468  0.0483
  983MOL0     C32613   4.654   0.309  13.284  0.6671  0.2462  0.2452
  983MOL0    Cl32614   4.619   0.180  13.402 -0.4399 -0.4190 -0.0024
  983MOL0     C32615   3.624   0.516  12.772 -0.7600  0.9405  0.1060
  983MOL0     C32616   3.537   0.558  12.670 -0.7892 -0.5297 -0.6304
  983MOL0     O32617   3.224   0.497  12.623 -0.2804  0.4000  0.1499
  983MOL0     C32618   3.207   0.752  12.355  0.2339  0.5331 -0.4758
  983MOL0     C32619   3.125   0.785  12.240 -0.4904  0.7068  0.4969
  983MOL0     N32620   2.555   0.806  11.548 -0.5178  0.8283 -0.7317
  983MOL0     N32621   2.600   0.774  11.438 -0.7829 -0.7495  0.9725
  983MOL0     C32622   3.658   1.353  11.331 -0.0216 -0.4542  0.4593
  983MOL0     C32623   3.785   1.406  11.369  0.4517 -0.4559 -0.1054
  983MOL0     C32624   4.082   1.745  11.498 -0.3546  0.3913  0.0328
  983MOL0     C32625   4.079   1.876  11.556 -0.6944  0.3258  0.2881
  983MOL0     C32626   4.195   1.924  11.615  0.0804 -0.4793 -0.0475
  983MOL0     C32627   4.314   1.863  11.604 -0.2068  0.7067 -0.0158
  983MOL0     O32628   4.434   1.918  11.637 -0.3729  0.5774 -0.1584
  983MOL0     C32629   4.497   1.980  11.521  0.5641 -0.2786 -0.3473
  983MOL0     C32630   4.585   2.091  11.559 -0.1790 -0.1079  0.5525
  983MOL0     C32631   4.506   2.197  11.647 -1.1500 -0.0380 -0.4996
  983MOL0     C32632   4.555   2.328  11.653 -0.6211 -0.1505  0.3531
  983MOL0     C32633   4.701   2.328  11.670  0.6035 -0.1518  0.3021
  983MOL0     C32634   4.823   2.319  11.695  0.1390 -0.0738  0.7188
  983MOL0     C32635   4.322   1.742  11.535 -0.0716 -0.0685 -0.1063
  983MOL0     C32636   4.200   1.677  11.487 -0.4076 -0.4488 -0.7207
  983MOL0     C32637   4.221   1.553  11.404 -0.6794  0.3114 -0.9826
  983MOL0     H32638   3.661   1.677  11.527 -1.5836 -1.0956  1.9673
  983MOL0     H32639   3.462   1.598  11.451 -1.6326 -0.7384 -1.4749
  983MOL0     H32640   3.405   1.198  11.219 -0.5251 -2.6551  0.7336
  983MOL0     H32641   3.431   1.195  11.388  2.3413 -0.2136 -2.5363
  983MOL0     H32642   3.177   1.273  11.227  0.5710 -1.3116 -1.0792
  983MOL0     H32643   3.183   1.275  11.414  2.8177 -0.9774  2.0929
  983MOL0     H32644   3.205   1.032  11.414  1.5244 -0.3986  0.1183
  983MOL0     H32645   3.231   1.038  11.235  0.0484 -1.1804  0.5424
  983MOL0     H32646   2.972   1.112  11.355  0.6837 -0.6024  0.1096
  983MOL0     H32647   3.025   1.119  11.180  0.0338 -2.9162 -1.9050
  983MOL0     H32648   3.042   0.896  11.175  1.5807  0.4752  0.6615
  983MOL0     H32649   3.022   0.878  11.353  1.2260  2.5543  2.0241
  983MOL0     H32650   2.772   0.945  11.317  1.0078 -0.9552  3.2382
  983MOL0     H32651   2.818   0.967  11.142 -0.1992  0.8977  0.4790
  983MOL0     H32652   2.866   0.720  11.138  0.8147  1.6483  0.1597
  983MOL0     H32653   2.694   0.767  11.187 -1.3787 -0.4140  0.4257
  983MOL0     H32654   2.784   0.575  11.323  2.9689 -0.1114  3.1172
  983MOL0     H32655   2.913   0.684  11.369  0.3780 -0.3792 -0.9068
  983MOL0     H32656   2.837   0.648  11.626  1.3916  1.2164 -1.5732
  983MOL0     H32657   2.567   0.876  11.798 -1.6869 -1.2807  0.9196
  983MOL0     H32658   2.601   0.718  11.845 -0.0673  0.9856 -0.6032
  983MOL0     H32659   2.841   0.746  11.863  2.4307  0.3074 -2.1300
  983MOL0     H32660   2.835   0.905  11.786  1.0206 -0.5353  1.4737
  983MOL0     H32661   2.692   0.871  12.041  1.5071 -3.0840 -0.6113
  983MOL0     H32662   2.780   1.011  11.969  3.0108  0.0676  0.9240
  983MOL0     H32663   2.932   0.926  12.150  0.1775  2.0484 -0.7970
  983MOL0     H32664   2.997   0.861  11.994 -1.2094  2.0759 -1.7947
  983MOL0     H32665   2.936   0.506  12.242 -1.5535  1.5242 -1.2976
  983MOL0     H32666   3.092   0.441  12.423 -0.3528 -0.5225 -0.5561
  983MOL0     H32667   3.376   0.793  12.843  1.0618  0.8842  3.1038
  983MOL0     H32668   3.543   0.741  13.014  0.2576 -1.2417 -0.5005
  983MOL0     H32669   3.835   0.385  12.958  2.2915  0.5896 -1.5723
  983MOL0     H32670   3.906   0.549  12.933  2.0535 -0.3886  0.8928
  983MOL0     H32671   3.908   0.582  13.170 -2.6376 -0.2388 -0.2911
  983MOL0     H32672   3.891   0.397  13.195 -0.2704  1.5986  2.8919
  983MOL0     H32673   4.067   0.346  13.047  4.4463 -0.4949 -0.0383
  983MOL0     H32674   4.104   0.524  13.040  0.6794 -1.4946 -1.4233
  983MOL0     H32675   4.132   0.361  13.303  1.6233  1.1341  0.8078
  983MOL0     H32676   4.181   0.531  13.263  1.4572 -0.6140  1.8001
  983MOL0     H32677   4.324   0.452  13.073 -0.0028 -3.7116 -3.0397
  983MOL0     H32678   4.274   0.291  13.103  1.7353  1.2078 -3.1590
  983MOL0     H32679   4.438   0.483  13.283 -0.5095  0.6828 -1.1293
  983MOL0     H32680   4.382   0.326  13.343 -1.2483  1.2681  0.0889
  983MOL0     H32681   4.562   0.409  13.106  1.8489 -2.0347 -1.0766
  983MOL0     H32682   4.520   0.245  13.128  2.2923  0.5526 -1.9884
  983MOL0     H32683   4.736   0.283  13.216 -1.2072  0.5023 -2.2822
  983MOL0     H32684   4.678   0.402  13.336  0.5906  1.4832 -1.8015
  983MOL0     H32685   3.694   0.436  12.747 -1.3771 -0.0054  1.2816
  983MOL0     H32686   3.527   0.503  12.577 -0.2454 -1.4518 -0.1582
  983MOL0     H32687   3.296   0.807  12.382  0.5589  0.4742 -1.3930
  983MOL0     H32688   3.144   0.868  12.173 -2.8308 -0.8139 -2.2699
  983MOL0     H32689   3.648   1.263  11.271  0.6753 -0.5199  0.4309
  983MOL0     H32690   3.873   1.351  11.338  0.5734  0.6903 -1.9359
  983MOL0     H32691   3.991   1.939  11.552 -0.8436  0.0611 -0.8896
  983MOL0     H32692   4.174   2.018  11.664 -0.5820  0.7879 -2.5745
  983MOL0     H32693   4.416   2.004  11.452 -0.3734 -0.5757  0.6155
  983MOL0     H32694   4.552   1.897  11.476 -1.1281 -1.1684 -0.8682
  983MOL0     H32695   4.620   2.148  11.472 -0.7782 -1.5282 -0.6699
  983MOL0     H32696   4.671   2.055  11.617  0.1493  1.2063  0.9112
  983MOL0     H32697   4.515   2.157  11.749  0.6536 -1.9125 -1.3063
  983MOL0     H32698   4.401   2.199  11.616 -0.8517 -3.8359 -2.3315
  983MOL0     H32699   4.547   2.380  11.557  4.3128 -0.8410 -0.6670
  983MOL0     H32700   4.515   2.385  11.738 -0.5582  0.1067  0.2124
  983MOL0     H32701   4.927   2.304  11.718 -0.0653 -1.0822  1.0131
  983MOL0     H32702   4.418   1.693  11.521 -1.4661 -2.6651 -1.1091
  983MOL0     H32703   4.259   1.582  11.305  2.2510  2.8133  0.7252
  983MOL0     H32704   4.294   1.492  11.457  0.3819  3.3558  1.3300
  983MOL0     H32705   4.137   1.483  11.402 -1.4036  0.9747  1.9642
  984MOL0     O32706   0.660   1.867   6.892  0.4519 -0.7597 -0.3151
  984MOL0     C32707   0.681   1.834   6.778  0.4300 -0.6301 -0.1731
  984MOL0     O32708   0.618   1.727   6.724  0.3056  0.5800 -0.0967
  984MOL0     C32709   0.565   1.623   6.803 -0.2186  1.2611  0.4099
  984MOL0     C32710   0.433   1.624   6.848  0.2914 -0.1544 -0.5493
  984MOL0     C32711   0.378   1.520   6.929 -0.0018  0.4849  0.0454
  984MOL0     C32712   0.462   1.417   6.966  0.9867  0.0314 -0.7695
  984MOL0     O32713   0.411   1.333   7.062  0.1116  0.0436  0.8105
  984MOL0     C32714   0.471   1.203   7.066 -0.7549  1.4962  0.1393
  984MOL0     C32715   0.371   1.115   7.138 -0.2853  0.2093  0.3813
  984MOL0     C32716   0.350   1.151   7.284 -0.7127  0.4837  0.2690
  984MOL0     C32717   0.445   1.107   7.386 -0.0410 -0.0270  0.0067
  984MOL0     C32718   0.395   1.121   7.535  0.1814  0.0276 -0.1388
  984MOL0     C32719   0.494   1.056   7.638 -0.0074  0.1443 -0.0664
  984MOL0     C32720   0.625   1.160   7.651  0.2818  1.4758 -0.2103
  984MOL0     C32721   0.654   1.196   7.793  0.5023  0.0621  0.2834
  984MOL0     N32722   0.748   1.308   7.810 -0.1819 -0.2594 -0.2243
  984MOL0     C32723   0.880   1.330   7.775  0.4355 -0.4251  0.4519
  984MOL0     C32724   0.931   1.432   7.836  0.7767  0.3326  0.1767
  984MOL0     C32725   1.075   1.482   7.816  0.6650 -0.9736 -0.5109
  984MOL0     C32726   1.106   1.534   7.677  0.7644 -0.4177  0.2046
  984MOL0     C32727   1.168   1.431   7.576 -0.0218 -0.6090 -0.0918
  984MOL0     C32728   1.303   1.370   7.603  1.8340 -0.0045 -0.6876
  984MOL0     O32729   1.288   1.273   7.719  0.3027 -0.0700 -0.5432
  984MOL0     C32730   1.397   1.187   7.745  0.1882  0.6384 -0.9290
  984MOL0     C32731   1.368   1.082   7.832 -0.0199 -0.5809  0.3671
  984MOL0     C32732   1.467   0.980   7.848 -0.3675  0.0905 -0.3865
  984MOL0     C32733   1.597   0.987   7.786 -0.6498 -0.3396 -0.6889
  984MOL0     C32734   1.704   0.896   7.802 -0.0679 -0.0526  0.1001
  984MOL0     O32735   1.826   0.938   7.770 -0.0994 -0.1325 -0.1200
  984MOL0     C32736   1.924   0.844   7.774 -0.1389  0.4624  0.1424
  984MOL0     C32737   1.929   0.740   7.674 -0.0843  0.0343 -0.2182
  984MOL0     C32738   2.042   0.659   7.661  0.2040 -0.4775  0.2393
  984MOL0     C32739   2.155   0.673   7.751 -0.4226  0.5729  0.6562
  984MOL0     O32740   2.279   0.605   7.749 -0.4135  0.4513  0.5174
  984MOL0     C32741   2.309   0.508   7.649 -0.3499  0.7905  0.2758
  984MOL0     C32742   2.404   0.400   7.704 -0.2086  0.4959  0.4556
  984MOL0     C32743   2.346   0.318   7.823 -0.2505 -0.2375  0.3368
  984MOL0     C32744   2.449   0.210   7.855  0.1013  0.4081 -0.1582
  984MOL0     C32745   2.410   0.102   7.959  0.3732 -0.1112  0.1246
  984MOL0     C32746   2.312   0.001   7.906 -0.1863 -1.0689 -0.7475
  984MOL0     C32747   2.290  -0.114   8.015  0.9420 -0.1828  0.3140
  984MOL0     C32748   2.187  -0.213   7.963 -0.1648  0.1585 -0.4404
  984MOL0    Cl32749   2.230  -0.277   7.804 -0.1050  0.4337 -0.0781
  984MOL0     C32750   2.134   0.767   7.860 -0.3697  0.3569 -0.4869
  984MOL0     C32751   2.021   0.855   7.866  0.4365 -0.6546  0.3031
  984MOL0     O32752   1.678   0.790   7.851  0.1645  0.4353  0.1377
  984MOL0     C32753   1.623   1.100   7.701  0.0167 -1.4550  0.2174
  984MOL0     C32754   1.523   1.194   7.683  0.7623 -0.2240 -0.0267
  984MOL0     N32755   0.829   1.487   7.905  0.2810 -0.5161 -0.8940
  984MOL0     N32756   0.723   1.415   7.890 -0.0007  0.3129 -0.2167
  984MOL0     C32757   0.595   1.413   6.924  0.2963 -0.4502 -0.4845
  984MOL0     C32758   0.647   1.514   6.841  0.3919 -0.5437  0.4797
  984MOL0     C32759   0.767   1.907   6.686  0.2935  1.2880 -0.2310
  984MOL0     C32760   0.757   1.883   6.547  0.3263 -0.5535  1.2243
  984MOL0     C32761   0.838   1.954   6.457 -0.2638  0.9040 -0.6217
  984MOL0     C32762   0.928   2.055   6.499  0.4562  0.5575 -0.5772
  984MOL0     O32763   1.030   2.108   6.424 -0.2730 -0.1463  0.4013
  984MOL0     C32764   1.050   2.066   6.285  0.2646 -0.4372 -0.2133
  984MOL0     C32765   1.090   1.920   6.264 -0.5656  0.9834  0.4456
  984MOL0     C32766   1.190   1.858   6.373  0.0556  0.3590 -0.0915
  984MOL0     C32767   1.220   1.717   6.328  0.5554 -0.3241  1.1012
  984MOL0     C32768   1.101   1.637   6.356  0.5027 -0.2683  0.2183
  984MOL0     C32769   0.998   1.571   6.376  0.1804 -1.1155  0.2404
  984MOL0     C32770   0.937   2.077   6.634 -0.1498  1.6927  0.0849
  984MOL0     C32771   0.863   1.998   6.724  0.1196  0.2751 -0.0899
  984MOL0     C32772   0.900   2.038   6.872  0.6253 -0.0600  0.0086
  984MOL0     H32773   0.385   1.720   6.831 -0.4309  0.1962  2.8576
  984MOL0     H32774   0.285   1.527   6.984 -1.5172  0.2568 -2.3750
  984MOL0     H32775   0.490   1.172   6.963 -0.1668 -1.3569  1.0467
  984MOL0     H32776   0.562   1.192   7.125 -2.9474 -3.3272  3.2773
  984MOL0     H32777   0.412   1.014   7.133 -0.2586  0.1898  0.8934
  984MOL0     H32778   0.278   1.114   7.081  1.3862  1.0707 -2.5261
  984MOL0     H32779   0.256   1.099   7.305  0.1970 -0.2718  2.9296
  984MOL0     H32780   0.347   1.261   7.285  1.9845  0.7385  4.3889
  984MOL0     H32781   0.477   1.005   7.363 -3.7775 -1.1235 -0.9076
  984MOL0     H32782   0.535   1.168   7.375 -0.0061  0.2817  1.7298
  984MOL0     H32783   0.389   1.228   7.559 -1.6956 -0.1746  0.4162
  984MOL0     H32784   0.295   1.078   7.541  0.2381  0.0536  1.5238
  984MOL0     H32785   0.443   1.047   7.734  0.2813  2.2413  0.3381
  984MOL0     H32786   0.520   0.959   7.595 -1.2694 -0.3924  0.3516
  984MOL0     H32787   0.610   1.256   7.600  1.1626  0.3620 -2.7141
  984MOL0     H32788   0.703   1.098   7.606 -2.2285 -0.8346 -1.6852
  984MOL0     H32789   0.563   1.235   7.840  1.4754  0.7936  1.6497
  984MOL0     H32790   0.673   1.104   7.847 -1.6871 -0.8311 -0.3624
  984MOL0     H32791   0.940   1.275   7.702 -0.9805 -0.6429 -0.5801
  984MOL0     H32792   1.100   1.565   7.883  3.8844 -1.0268 -1.4907
  984MOL0     H32793   1.143   1.402   7.847  2.2838 -0.3496 -2.3065
  984MOL0     H32794   1.010   1.566   7.637  1.8581  1.1145 -1.3165
  984MOL0     H32795   1.171   1.622   7.681 -1.5806  1.5137 -1.6053
  984MOL0     H32796   1.180   1.482   7.480  2.1507 -0.4127  0.2237
  984MOL0     H32797   1.097   1.350   7.557  0.9151 -1.6842  0.8850
  984MOL0     H32798   1.371   1.450   7.633  1.6922  1.0162 -2.9008
  984MOL0     H32799   1.336   1.323   7.510  0.9687  1.0442 -1.5628
  984MOL0     H32800   1.275   1.074   7.887  1.1965  0.9492  2.8409
  984MOL0     H32801   1.445   0.897   7.914 -2.2733  0.6630 -0.2219
  984MOL0     H32802   1.842   0.732   7.610 -0.9868  1.1151  0.8212
  984MOL0     H32803   2.049   0.580   7.587 -1.8278 -0.0423 -0.4730
  984MOL0     H32804   2.223   0.457   7.604  0.7527 -1.2502  0.3322
  984MOL0     H32805   2.358   0.550   7.561 -0.3850  0.5973  0.1629
  984MOL0     H32806   2.432   0.334   7.621 -0.6541  1.0115 -0.1151
  984MOL0     H32807   2.494   0.452   7.739 -0.4523 -0.6447  2.8982
  984MOL0     H32808   2.359   0.390   7.904  3.1817  0.8628 -0.9781
  984MOL0     H32809   2.247   0.278   7.802 -0.7922  0.8299  0.8018
  984MOL0     H32810   2.542   0.258   7.885  0.4780 -0.3279 -0.1270
  984MOL0     H32811   2.469   0.153   7.764  0.6630  2.1116 -1.1392
  984MOL0     H32812   2.367   0.161   8.041  2.9991  1.3341  0.5531
  984MOL0     H32813   2.497   0.042   7.986  0.0480 -2.4910 -3.4251
  984MOL0     H32814   2.223   0.062   7.891  1.4804  1.2975 -1.4793
  984MOL0     H32815   2.357  -0.032   7.812  1.8952  0.3478 -0.3295
  984MOL0     H32816   2.248  -0.066   8.104  3.2766 -1.2813  2.1079
  984MOL0     H32817   2.376  -0.176   8.040  1.9751  0.7279 -0.9008
  984MOL0     H32818   2.197  -0.291   8.039  0.6684  2.8573  2.4254
  984MOL0     H32819   2.087  -0.172   7.980  1.2166  3.5108  0.4830
  984MOL0     H32820   2.215   0.769   7.932 -2.3014  0.5454  1.8192
  984MOL0     H32821   2.001   0.936   7.935 -3.3184 -1.0817 -0.0253
  984MOL0     H32822   1.716   1.130   7.653 -0.0045  1.9324  1.9951
  984MOL0     H32823   1.545   1.268   7.607  1.8605 -0.0821  0.4159
  984MOL0     H32824   0.664   1.340   6.965 -0.8068 -1.2949 -0.1051
  984MOL0     H32825   0.748   1.517   6.800  0.0843  1.7126 -0.2497
  984MOL0     H32826   0.680   1.816   6.509  1.5016  0.0640 -2.7333
  984MOL0     H32827   0.818   1.936   6.352 -2.9030  0.8792 -0.1867
  984MOL0     H32828   1.135   2.125   6.248  1.0223 -0.1260  1.8821
  984MOL0     H32829   0.964   2.084   6.222  0.7597  0.2720 -0.6979
  984MOL0     H32830   1.134   1.897   6.166 -2.7977 -1.8947 -0.0107
  984MOL0     H32831   0.995   1.866   6.261  1.6764 -3.3743  0.0995
  984MOL0     H32832   1.136   1.859   6.468  1.0798 -0.4797  0.5150
  984MOL0     H32833   1.277   1.922   6.392 -1.1607  2.4590 -1.1941
  984MOL0     H32834   1.255   1.707   6.225  2.6281  0.2039  1.7096
  984MOL0     H32835   1.289   1.670   6.399 -0.0912  0.9253  2.6222
  984MOL0     H32836   0.912   1.510   6.395  1.3831 -2.6397  0.9367
  984MOL0     H32837   1.012   2.151   6.657  2.1774 -1.0389  1.9528
  984MOL0     H32838   0.906   1.948   6.934 -1.5132 -0.4509 -0.2557
  984MOL0     H32839   0.992   2.096   6.877  1.3360 -0.9339 -1.8630
  984MOL0     H32840   0.821   2.100   6.916 -0.0161 -0.3561 -0.6977
  985MOL0     O32841   9.556  11.142   5.519  0.1199  0.1442 -0.2242
  985MOL0     C32842   9.554  11.038   5.588 -1.0211 -0.1555 -1.2868
  985MOL0     O32843   9.653  11.001   5.676  0.7388  0.1051 -0.1941
  985MOL0     C32844   9.773  11.068   5.677  0.5302 -0.2952  0.6388
  985MOL0     C32845   9.837  11.086   5.555 -1.0093  0.0889  0.5780
  985MOL0     C32846   9.978  11.112   5.539 -0.4829  0.5032 -0.4962
  985MOL0     C32847  10.045  11.152   5.660 -0.5478 -0.6816  0.8816
  985MOL0     O32848  10.173  11.189   5.647  0.5664 -0.4589  0.5791
  985MOL0     C32849  10.190  11.325   5.619 -0.9145  0.5032 -0.2571
  985MOL0     C32850  10.197  11.410   5.737 -0.1853 -0.1545 -0.3355
  985MOL0     C32851  10.349  11.429   5.770 -0.1543 -0.4088  0.0220
  985MOL0     C32852  10.415  11.558   5.717  0.4733 -0.5035 -0.1376
  985MOL0     C32853  10.563  11.549   5.717  0.3363 -0.1002 -0.1014
  985MOL0     C32854  10.618  11.674   5.637  0.5380  0.6040 -0.5042
  985MOL0     C32855  10.756  11.726   5.663  0.5327  0.0350 -0.3970
  985MOL0     C32856  10.785  11.759   5.809 -0.8175 -0.2373  0.6296
  985MOL0     N32857  10.927  11.774   5.841  0.4490 -0.3044 -0.4441
  985MOL0     C32858  11.018  11.839   5.761 -0.8739 -0.9330 -0.0758
  985MOL0     C32859  11.128  11.832   5.844 -0.1302 -0.4828  0.4586
  985MOL0     C32860  11.253  11.910   5.799  0.4732  0.8801 -0.6039
  985MOL0     C32861  11.319  11.829   5.688 -0.8039  0.7845  1.1559
  985MOL0     C32862  11.466  11.882   5.654 -0.1516 -0.2546 -0.2126
  985MOL0     C32863  11.537  11.797   5.551  0.2251  0.9757 -0.3162
  985MOL0     O32864  11.660  11.851   5.512 -0.8987 -0.4124  0.6393
  985MOL0     C32865  11.781  11.814   5.563  0.9946  0.0562  0.2560
  985MOL0     C32866  11.804  11.709   5.664  1.1111 -0.3303 -0.1754
  985MOL0     C32867  11.935  11.688   5.708 -0.4586 -0.3321  0.0105
  985MOL0     C32868  12.048  11.749   5.654  0.5078 -0.0040  0.3403
  985MOL0     C32869  12.182  11.753   5.720 -0.0086  0.1045  0.2214
  985MOL0     O32870  12.277  11.850   5.689 -0.6964 -0.7878  0.5365
  985MOL0     C32871  12.403  11.841   5.741 -0.4471 -0.8224  0.5244
  985MOL0     C32872  12.507  11.833   5.654  0.9621 -0.7273  0.4665
  985MOL0     C32873  12.630  11.803   5.696 -0.4086 -0.0132 -0.3270
  985MOL0     C32874  12.652  11.782   5.839  0.3079 -0.5326  0.1138
  985MOL0     O32875  12.774  11.744   5.893  0.3745  0.3493 -0.0226
  985MOL0     C32876  12.889  11.750   5.807 -0.2631 -0.3024 -0.2830
  985MOL0     C32877  12.926  11.902   5.801  0.1891  0.6506 -0.6019
  985MOL0     C32878  12.966  11.954   5.931 -0.4984  0.2548  0.3228
  985MOL0     C32879  13.111  11.913   5.953 -0.7927  0.0626 -0.7375
  985MOL0     C32880  13.165  11.959   6.096  0.0387 -0.7846 -0.3842
  985MOL0     C32881  13.292  12.042   6.091  0.5070 -0.1819 -0.0644
  985MOL0     C32882  13.320  12.078   6.238  0.3239 -0.2613  0.4606
  985MOL0     C32883  13.232  12.200   6.292 -0.2921  0.4056  0.2067
  985MOL0    Cl32884  13.305  12.257   6.440  0.1458  0.2128 -0.1307
  985MOL0     C32885  12.545  11.808   5.932  1.0373  0.0144  0.9788
  985MOL0     C32886  12.419  11.845   5.884 -0.0504 -0.2392 -0.6306
  985MOL0     O32887  12.193  11.673   5.808  0.3397  0.0751  0.5129
  985MOL0     C32888  12.029  11.841   5.553 -0.3241  1.3375 -0.0321
  985MOL0     C32889  11.900  11.868   5.507 -0.6859 -0.3007 -0.8955
  985MOL0     N32890  11.108  11.765   5.961 -0.5764 -0.2420  0.5350
  985MOL0     N32891  10.978  11.740   5.967 -0.1799 -0.2332  1.0506
  985MOL0     C32892   9.981  11.150   5.782 -0.0653  0.4678  1.2896
  985MOL0     C32893   9.849  11.099   5.787 -0.4996 -0.0191 -1.2235
  985MOL0     C32894   9.455  10.939   5.551 -0.3248  0.3065 -1.1729
  985MOL0     C32895   9.344  10.982   5.480  0.6751  0.4552  0.9981
  985MOL0     C32896   9.240  10.903   5.431 -0.6052  0.2009  0.6812
  985MOL0     C32897   9.252  10.768   5.464 -0.0876  0.7027  0.4439
  985MOL0     O32898   9.145  10.684   5.454  0.0205 -0.5025 -0.0939
  985MOL0     C32899   9.027  10.718   5.523  0.3708  0.4648 -0.2672
  985MOL0     C32900   8.912  10.748   5.417  0.6019 -0.0077 -0.0661
  985MOL0     C32901   8.851  10.883   5.456  0.0329 -0.4481  0.4904
  985MOL0     C32902   8.772  10.873   5.591 -0.8310 -0.3357  0.5237
  985MOL0     C32903   8.688  10.758   5.585 -1.4120 -0.3633 -0.4563
  985MOL0     C32904   8.604  10.682   5.587  0.1754 -0.3080 -0.5803
  985MOL0     C32905   9.366  10.712   5.528  0.8496 -0.3846  1.0588
  985MOL0     C32906   9.468  10.799   5.573  0.4143 -0.6795  0.4467
  985MOL0     C32907   9.583  10.742   5.638 -0.7186 -0.4078 -0.3727
  985MOL0     H32908   9.791  11.054   5.462  1.4130  2.2410 -1.5453
  985MOL0     H32909  10.025  11.114   5.441 -0.8994  0.8219 -0.6936
  985MOL0     H32910  10.286  11.327   5.566  0.9308  0.8091  2.8379
  985MOL0     H32911  10.114  11.367   5.553  0.7090  3.2381 -0.5312
  985MOL0     H32912  10.163  11.352   5.823  2.1654 -1.7839 -0.4281
  985MOL0     H32913  10.139  11.502   5.728 -0.1694 -0.2057 -1.0725
  985MOL0     H32914  10.404  11.342   5.733 -1.1248 -1.9176  1.9400
  985MOL0     H32915  10.360  11.429   5.879 -0.2047 -3.3954  0.1273
  985MOL0     H32916  10.367  11.566   5.618 -0.6228 -0.1499  0.4048
  985MOL0     H32917  10.379  11.640   5.778  3.1684  0.5237  0.1973
  985MOL0     H32918  10.597  11.543   5.820 -1.8634  0.0855  0.6827
  985MOL0     H32919  10.606  11.463   5.665  1.1342  1.7159 -2.6720
  985MOL0     H32920  10.623  11.639   5.533 -1.6904 -0.2409 -0.3788
  985MOL0     H32921  10.548  11.757   5.656 -0.8854 -0.6092 -0.2548
  985MOL0     H32922  10.783  11.811   5.598 -0.5554  0.7305  0.0413
  985MOL0     H32923  10.819  11.644   5.627 -2.6964 -2.1781 -1.3615
  985MOL0     H32924  10.730  11.850   5.833  0.6231  0.7009  0.4890
  985MOL0     H32925  10.745  11.686   5.879 -1.7106  0.9180  1.3559
  985MOL0     H32926  11.012  11.882   5.661  2.1343  0.3243  0.1743
  985MOL0     H32927  11.235  12.005   5.748  2.9825  0.9907 -1.4124
  985MOL0     H32928  11.310  11.935   5.888 -2.5839 -1.3203  2.2206
  985MOL0     H32929  11.317  11.720   5.697 -1.2274  0.3501 -2.6315
  985MOL0     H32930  11.265  11.840   5.593  0.3668  0.1712  0.4080
  985MOL0     H32931  11.532  11.883   5.741  0.0421  2.0492 -0.3379
  985MOL0     H32932  11.450  11.985   5.622  0.4083 -0.1120 -0.0441
  985MOL0     H32933  11.477  11.800   5.459  2.1985  1.8180 -1.6528
  985MOL0     H32934  11.550  11.696   5.592  2.9862  1.9660  1.4663
  985MOL0     H32935  11.721  11.664   5.717  1.2146 -2.1825 -1.5196
  985MOL0     H32936  11.956  11.622   5.792 -0.9665  0.8758  1.1139
  985MOL0     H32937  12.499  11.854   5.548 -1.0751 -1.0568  0.5082
  985MOL0     H32938  12.713  11.804   5.626 -0.6006 -0.5686 -0.5691
  985MOL0     H32939  12.974  11.695   5.849  0.5920  1.1167 -0.1169
  985MOL0     H32940  12.869  11.712   5.706  3.2247 -0.4980 -1.0184
  985MOL0     H32941  12.993  11.934   5.720 -2.4108  2.1078 -2.3253
  985MOL0     H32942  12.835  11.960   5.781 -1.6650 -0.9324  2.5142
  985MOL0     H32943  12.959  12.063   5.927 -1.6027  0.1892  0.1333
  985MOL0     H32944  12.909  11.922   6.019  0.6156  3.2684  2.2967
  985MOL0     H32945  13.173  11.948   5.870 -0.3163 -0.8149 -0.7641
  985MOL0     H32946  13.118  11.804   5.945 -0.2262  0.1839 -2.2118
  985MOL0     H32947  13.189  11.872   6.157 -0.7635  0.5320  1.9042
  985MOL0     H32948  13.079  12.005   6.144 -0.9589 -3.6903  0.8357
  985MOL0     H32949  13.378  11.980   6.061  1.6156 -0.3043  2.9942
  985MOL0     H32950  13.273  12.123   6.021  0.4767  1.8157  2.1207
  985MOL0     H32951  13.426  12.103   6.242  0.5500 -1.2722  1.2917
  985MOL0     H32952  13.301  11.994   6.305  0.1475 -0.3951  0.2476
  985MOL0     H32953  13.237  12.287   6.226  2.6210 -0.4598 -0.8618
  985MOL0     H32954  13.132  12.158   6.307  1.3447 -3.8367  0.5936
  985MOL0     H32955  12.565  11.801   6.038  1.0764  0.1501  0.9815
  985MOL0     H32956  12.337  11.843   5.955  0.2941  1.4283 -0.1460
  985MOL0     H32957  12.116  11.902   5.531  0.9997 -0.5286 -0.1085
  985MOL0     H32958  11.894  11.945   5.431  0.7049  3.0085  2.0218
  985MOL0     H32959  10.046  11.158   5.868  0.0620  0.8045  1.1625
  985MOL0     H32960   9.796  11.087   5.881  0.9510  3.4144  0.1991
  985MOL0     H32961   9.334  11.089   5.466 -2.0605 -0.0166 -1.5475
  985MOL0     H32962   9.149  10.944   5.387 -1.7645 -5.1224 -2.7747
  985MOL0     H32963   9.043  10.808   5.582 -0.8334  0.3661  0.2596
  985MOL0     H32964   8.995  10.633   5.585  3.8388  0.1979  1.3905
  985MOL0     H32965   8.834  10.672   5.424 -1.0505  1.6652  0.7020
  985MOL0     H32966   8.954  10.753   5.316 -3.3801 -0.1837 -1.9329
  985MOL0     H32967   8.796  10.919   5.368 -0.9883  1.2103  1.7353
  985MOL0     H32968   8.927  10.962   5.466 -0.9456  0.8342 -1.3795
  985MOL0     H32969   8.851  10.854   5.665  2.8458  0.5839 -2.8196
  985MOL0     H32970   8.716  10.962   5.622 -0.9964  0.6889 -2.4259
  985MOL0     H32971   8.525  10.610   5.591 -1.7128  1.5557 -1.8395
  985MOL0     H32972   9.369  10.607   5.554 -1.4957 -0.3307  1.7657
  985MOL0     H32973   9.675  10.753   5.580 -0.9817 -0.1901 -0.7506
  985MOL0     H32974   9.589  10.789   5.737  1.1069  0.6353 -0.9316
  985MOL0     H32975   9.578  10.633   5.651  2.0610 -0.6563 -0.7229
  986MOL0     O32976   9.499   3.104   5.531 -0.0729 -0.3755 -0.1728
  986MOL0     C32977   9.469   3.000   5.583  0.7806  0.1497 -1.0390
  986MOL0     O32978   9.557   2.914   5.636  0.0427  0.2282  0.3424
  986MOL0     C32979   9.678   2.966   5.672 -0.4665 -0.2630  0.2403
  986MOL0     C32980   9.693   3.017   5.804  0.3366 -0.7493 -0.3119
  986MOL0     C32981   9.816   3.078   5.839 -0.1989 -0.6544  1.1681
  986MOL0     C32982   9.918   3.098   5.747 -0.5970  0.6292  0.2974
  986MOL0     O32983  10.049   3.148   5.773 -0.2108 -0.1319  0.1382
  986MOL0     C32984  10.053   3.225   5.895  0.2177 -0.2977 -1.3299
  986MOL0     C32985  10.199   3.271   5.922  0.6229  0.2630  0.5122
  986MOL0     C32986  10.266   3.361   5.815  0.0869 -0.3440  0.5112
  986MOL0     C32987  10.405   3.418   5.862  0.8323  0.5322 -0.3816
  986MOL0     C32988  10.462   3.529   5.773 -0.4464  0.1936  0.4998
  986MOL0     C32989  10.475   3.498   5.618  0.1477  0.1466 -0.2885
  986MOL0     C32990  10.564   3.598   5.537 -1.0595  0.0040 -0.9232
  986MOL0     C32991  10.709   3.556   5.526  0.2966  0.1321  0.1132
  986MOL0     N32992  10.788   3.675   5.505 -0.1878 -0.2834  0.5035
  986MOL0     C32993  10.808   3.754   5.395  0.3740  0.1171  1.2611
  986MOL0     C32994  10.868   3.871   5.439  0.0205 -0.2383 -0.6784
  986MOL0     C32995  10.911   3.982   5.341  1.1516  0.1704 -0.5411
  986MOL0     C32996  11.054   3.966   5.295 -0.8114  0.2027 -0.2572
  986MOL0     C32997  11.067   3.850   5.192 -1.0820  1.0106  0.7545
  986MOL0     C32998  11.207   3.836   5.154 -0.3881  0.0245 -0.2087
  986MOL0     O32999  11.249   3.939   5.068 -0.5852 -0.5032 -0.4042
  986MOL0     C33000  11.380   3.947   5.034  0.1022  0.0974 -0.0218
  986MOL0     C33001  11.488   3.877   5.085 -1.0759 -0.7980  0.0837
  986MOL0     C33002  11.612   3.890   5.032  0.0475 -0.9414 -1.3389
  986MOL0     C33003  11.630   3.975   4.924 -1.7128 -0.2921 -0.3086
  986MOL0     C33004  11.768   3.998   4.874 -0.4215 -0.0111 -0.5101
  986MOL0     O33005  11.879   3.961   4.942  0.0566 -0.0573 -0.0961
  986MOL0     C33006  12.008   3.956   4.899  0.5915  0.5156  0.2167
  986MOL0     C33007  12.106   3.957   4.998  0.3429 -0.0194  0.2838
  986MOL0     C33008  12.242   3.929   4.968 -0.5181  0.0283  0.0159
  986MOL0     C33009  12.280   3.910   4.829  0.4607 -0.8485 -0.0834
  986MOL0     O33010  12.404   3.865   4.802  0.4140  0.5152 -0.0846
  986MOL0     C33011  12.510   3.936   4.866 -0.0224  0.1048  0.5275
  986MOL0     C33012  12.631   3.844   4.872 -1.2383  0.3155  0.2558
  986MOL0     C33013  12.752   3.916   4.926  0.0960  1.2805 -0.4034
  986MOL0     C33014  12.858   3.821   4.972  0.3624  0.5004  0.1474
  986MOL0     C33015  12.989   3.878   5.014  0.3927  0.1911 -0.1902
  986MOL0     C33016  12.989   3.949   5.144  0.3799  0.0126  0.2203
  986MOL0     C33017  13.119   4.039   5.147 -0.5849 -0.1155  1.3802
  986MOL0     C33018  13.249   3.966   5.162 -0.1084 -0.3953  0.5123
  986MOL0    Cl33019  13.389   4.078   5.163 -0.3971 -0.3187 -0.0383
  986MOL0     C33020  12.178   3.910   4.732  0.0735 -0.3752  0.5166
  986MOL0     C33021  12.047   3.930   4.763  0.9542 -0.9209  0.0168
  986MOL0     O33022  11.775   4.053   4.765  0.2754  0.0011  0.0489
  986MOL0     C33023  11.525   4.048   4.865  0.0878 -0.0118 -0.9089
  986MOL0     C33024  11.403   4.031   4.922  0.3736 -0.2481  0.6637
  986MOL0     N33025  10.883   3.859   5.576 -0.2889  0.3353  0.5022
  986MOL0     N33026  10.831   3.747   5.608  1.0752 -0.5544  0.9379
  986MOL0     C33027   9.900   3.053   5.617  0.4489  0.0451  0.1655
  986MOL0     C33028   9.783   2.986   5.583 -0.4298 -0.4338  0.0229
  986MOL0     C33029   9.327   2.955   5.610 -0.0766  0.0353 -1.1125
  986MOL0     C33030   9.303   2.821   5.592 -0.0822  0.7468  0.8362
  986MOL0     C33031   9.183   2.759   5.638 -1.1327 -0.6019  1.5366
  986MOL0     C33032   9.080   2.838   5.692  0.5143  0.2239  0.0664
  986MOL0     O33033   8.972   2.784   5.761 -0.0657 -0.2476 -0.4403
  986MOL0     C33034   8.889   2.870   5.842  0.4212 -0.2875  0.6263
  986MOL0     C33035   8.791   2.787   5.924 -0.1380  0.7205  0.0871
  986MOL0     C33036   8.669   2.734   5.843 -0.3958 -0.6974  0.3831
  986MOL0     C33037   8.598   2.619   5.902  0.0704 -0.9204  0.5909
  986MOL0     C33038   8.455   2.622   5.866  0.8229  0.6137 -0.0647
  986MOL0     C33039   8.343   2.623   5.818  0.2648  1.0379  0.4462
  986MOL0     C33040   9.104   2.976   5.686  0.2355  1.2108 -0.1789
  986MOL0     C33041   9.223   3.038   5.654 -0.4420 -0.2982 -0.2086
  986MOL0     C33042   9.254   3.181   5.674  0.5758  0.3207 -0.5786
  986MOL0     H33043   9.607   3.027   5.869  0.6911  2.4391 -0.1484
  986MOL0     H33044   9.817   3.113   5.942 -1.1802 -0.0216  0.9729
  986MOL0     H33045   9.988   3.313   5.901 -0.6035 -0.9713  3.8806
  986MOL0     H33046  10.015   3.166   5.979 -1.1787  0.5441 -1.3313
  986MOL0     H33047  10.261   3.181   5.928  0.9854  0.5306  0.8403
  986MOL0     H33048  10.211   3.317   6.021  0.3137  3.0809 -0.6749
  986MOL0     H33049  10.206   3.452   5.801  2.8549  1.4948 -0.1305
  986MOL0     H33050  10.284   3.304   5.723  2.3246 -1.9638  1.8673
  986MOL0     H33051  10.394   3.453   5.965  1.4185 -0.0102 -0.1221
  986MOL0     H33052  10.471   3.330   5.868 -1.1743 -1.1316 -1.4627
  986MOL0     H33053  10.410   3.623   5.791  2.2225  1.4255  2.5117
  986MOL0     H33054  10.567   3.543   5.800 -0.5272  0.2009  0.8113
  986MOL0     H33055  10.515   3.397   5.605  0.8466  0.6157 -1.9421
  986MOL0     H33056  10.376   3.509   5.571 -0.6660  2.7644  1.7687
  986MOL0     H33057  10.553   3.698   5.580 -2.7301 -1.6440  2.9020
  986MOL0     H33058  10.519   3.597   5.438 -2.3768 -1.3806 -0.3509
  986MOL0     H33059  10.737   3.509   5.620 -2.3780  0.0956  0.9796
  986MOL0     H33060  10.724   3.478   5.451  0.0026 -0.2462  0.4463
  986MOL0     H33061  10.788   3.735   5.290  2.7086  0.8286  0.6421
  986MOL0     H33062  10.845   3.971   5.255 -0.3386 -0.1363  0.6052
  986MOL0     H33063  10.894   4.074   5.398  0.3995 -1.1385  1.5003
  986MOL0     H33064  11.084   4.055   5.239 -0.3927 -0.2632 -0.7878
  986MOL0     H33065  11.122   3.951   5.380 -1.8948  0.0048  0.5955
  986MOL0     H33066  11.010   3.869   5.101  0.0705 -3.6796 -1.2581
  986MOL0     H33067  11.043   3.751   5.232 -0.6046  0.9774  0.9767
  986MOL0     H33068  11.223   3.751   5.087  1.4953  1.5454 -1.8062
  986MOL0     H33069  11.267   3.837   5.245 -1.2691  1.8827  0.4090
  986MOL0     H33070  11.480   3.824   5.179  4.0083 -1.1008  0.6116
  986MOL0     H33071  11.691   3.836   5.082  1.0772  1.6173 -0.0171
  986MOL0     H33072  12.073   3.974   5.100 -0.5907  3.5969 -0.4813
  986MOL0     H33073  12.312   3.907   5.047  1.7673  1.9946 -1.3090
  986MOL0     H33074  12.525   4.022   4.800 -0.5032 -0.8092 -0.8366
  986MOL0     H33075  12.480   3.969   4.965 -7.8995 -1.1771 -0.7999
  986MOL0     H33076  12.604   3.762   4.939  2.3482 -0.4651  0.9761
  986MOL0     H33077  12.659   3.807   4.773 -1.4235  1.8105 -0.3756
  986MOL0     H33078  12.791   3.982   4.848 -1.5212  0.5218 -1.9070
  986MOL0     H33079  12.722   3.985   5.006 -1.3219  2.5109 -1.9188
  986MOL0     H33080  12.871   3.748   4.891 -3.0965  0.5994 -0.6210
  986MOL0     H33081  12.821   3.763   5.057 -1.6431  0.9729 -0.3736
  986MOL0     H33082  13.040   3.937   4.937  0.5905  0.1398 -0.1012
  986MOL0     H33083  13.063   3.800   5.036  1.6799  1.6492  0.9001
  986MOL0     H33084  12.900   4.012   5.138  0.1534 -0.3806 -0.5986
  986MOL0     H33085  12.975   3.890   5.235 -0.9108  1.5477  1.0683
  986MOL0     H33086  13.118   4.114   5.226 -2.9328  1.0328  0.3347
  986MOL0     H33087  13.120   4.099   5.056  2.2790 -4.8375 -2.2381
  986MOL0     H33088  13.248   3.911   5.256 -2.4135 -0.5885  0.4411
  986MOL0     H33089  13.272   3.901   5.077  0.8855  1.6689 -0.8887
  986MOL0     H33090  12.194   3.867   4.634  1.4812 -1.4632  1.1934
  986MOL0     H33091  11.967   3.925   4.690  2.1082  0.4046 -1.4157
  986MOL0     H33092  11.545   4.112   4.780 -1.3856 -1.5530 -2.4761
  986MOL0     H33093  11.315   4.073   4.873  1.3669  1.2381  0.0814
  986MOL0     H33094   9.984   3.059   5.549  0.1353  0.1345 -0.2174
  986MOL0     H33095   9.791   2.953   5.480 -1.8282  1.9450 -0.9330
  986MOL0     H33096   9.383   2.756   5.559  0.7388  2.2323 -0.2252
  986MOL0     H33097   9.176   2.651   5.630  1.0657 -0.6904  0.0616
  986MOL0     H33098   8.840   2.944   5.777  1.8437  1.5645  1.5551
  986MOL0     H33099   8.962   2.924   5.903 -0.7025  1.3311  0.6010
  986MOL0     H33100   8.747   2.849   6.003  2.1926  0.2563  1.8467
  986MOL0     H33101   8.844   2.701   5.966  0.4614  0.8113 -0.4850
  986MOL0     H33102   8.702   2.698   5.745  1.3378 -2.7089  1.6119
  986MOL0     H33103   8.607   2.824   5.834  1.3551  0.4158 -1.1547
  986MOL0     H33104   8.639   2.520   5.879 -0.1532 -1.2801  1.6913
  986MOL0     H33105   8.601   2.616   6.011 -0.1309  1.3259  0.7022
  986MOL0     H33106   8.251   2.615   5.763 -0.0133  0.0380  1.0186
  986MOL0     H33107   9.018   3.039   5.707  0.1114  1.2572 -0.8276
  986MOL0     H33108   9.347   3.176   5.731 -0.4469  1.0456  1.2333
  986MOL0     H33109   9.263   3.241   5.583 -0.0682 -0.4892 -1.2003
  986MOL0     H33110   9.173   3.218   5.738  0.3377 -3.7237  1.7949
  987MOL0     O33111  10.808   0.330   1.628 -0.7591 -0.1407  0.1239
  987MOL0     C33112  10.765   0.313   1.744 -0.3676 -0.9070  0.3674
  987MOL0     O33113  10.771   0.408   1.845  0.0205 -0.0032 -0.1930
  987MOL0     C33114  10.868   0.507   1.869 -0.1335 -0.4460 -0.3529
  987MOL0     C33115  10.863   0.589   1.984  0.5575  0.5062 -0.3919
  987MOL0     C33116  10.963   0.673   2.013  0.0965 -0.2460 -0.2780
  987MOL0     C33117  11.074   0.685   1.930 -0.4187 -0.5163  0.4072
  987MOL0     O33118  11.171   0.769   1.962 -0.0738 -0.2375  0.5585
  987MOL0     C33119  11.259   0.812   1.857 -0.4423  0.4442  0.7378
  987MOL0     C33120  11.330   0.931   1.918 -0.5602 -0.8256 -0.0250
  987MOL0     C33121  11.405   1.015   1.815 -0.4901  0.3249 -0.3634
  987MOL0     C33122  11.486   1.127   1.873 -0.4425  0.0605 -0.0652
  987MOL0     C33123  11.630   1.112   1.899 -0.2705 -0.8135 -0.1945
  987MOL0     C33124  11.695   1.245   1.938  0.4528  1.0848 -0.3621
  987MOL0     C33125  11.845   1.232   1.912  0.4686 -0.1098  0.0938
  987MOL0     C33126  11.930   1.349   1.962  0.5375 -0.6150  0.1581
  987MOL0     N33127  12.066   1.320   1.978  0.1966 -0.3978 -0.0530
  987MOL0     C33128  12.121   1.292   2.101  0.1297  0.0551 -0.6684
  987MOL0     C33129  12.243   1.255   2.072  0.5082  0.1906 -0.0463
  987MOL0     C33130  12.337   1.168   2.153 -0.3310  0.3940  0.1489
  987MOL0     C33131  12.488   1.171   2.117  0.8297 -0.5233  0.5283
  987MOL0     C33132  12.567   1.060   2.182 -0.4734  0.4834 -0.6791
  987MOL0     C33133  12.717   1.056   2.142 -0.2955  0.2436 -0.0399
  987MOL0     O33134  12.755   1.181   2.201 -0.3607 -1.0047  0.0775
  987MOL0     C33135  12.885   1.213   2.228 -0.8078 -0.1272  0.0536
  987MOL0     C33136  12.924   1.351   2.227 -0.1570 -0.0652 -1.1064
  987MOL0     C33137  13.060   1.387   2.232 -0.7934  0.6958  0.1131
  987MOL0     C33138  13.157   1.283   2.247  0.1519 -0.2358 -0.0394
  987MOL0     C33139  13.300   1.319   2.251  0.0880  0.7724  1.0423
  987MOL0     O33140  13.349   1.423   2.177 -0.3145 -0.7325 -0.2030
  987MOL0     C33141  13.466   1.485   2.209 -0.1259 -0.3279  0.9822
  987MOL0     C33142  13.565   1.501   2.110  0.2872 -0.2359 -0.0803
  987MOL0     C33143  13.698   1.543   2.139  0.8180  0.6021 -0.5284
  987MOL0     C33144  13.725   1.573   2.280  0.0827  0.0716  0.0974
  987MOL0     O33145  13.856   1.604   2.311 -0.2034  0.5478 -0.0830
  987MOL0     C33146  13.876   1.743   2.355 -0.5969 -0.2268 -0.7245
  987MOL0     C33147  14.000   1.785   2.439 -0.1610  1.2201 -0.6851
  987MOL0     C33148  14.004   1.731   2.580  0.7665 -0.4043 -0.2500
  987MOL0     C33149  14.018   1.581   2.586  0.7354 -0.0425 -0.9421
  987MOL0     C33150  14.087   1.531   2.712  0.2706 -0.3903  0.0029
  987MOL0     C33151  14.103   1.373   2.716 -0.1028 -0.3096  0.2562
  987MOL0     C33152  14.221   1.332   2.804 -0.1168 -0.5625  0.3632
  987MOL0     C33153  14.258   1.185   2.811 -0.4018  0.2368 -0.5605
  987MOL0    Cl33154  14.389   1.154   2.673 -0.1903 -0.2050  0.2394
  987MOL0     C33155  13.624   1.576   2.379 -0.4103 -0.3064 -0.0304
  987MOL0     C33156  13.496   1.517   2.337  0.7290 -0.3023 -0.4515
  987MOL0     O33157  13.374   1.239   2.316  0.4866 -0.0372  0.2418
  987MOL0     C33158  13.115   1.147   2.262 -0.8469  0.1032  0.7115
  987MOL0     C33159  12.987   1.114   2.257  0.0758 -0.5843 -0.1438
  987MOL0     N33160  12.272   1.296   1.937 -0.3672 -0.0061  0.6309
  987MOL0     N33161  12.161   1.329   1.878 -0.0460  0.4818  0.1396
  987MOL0     C33162  11.073   0.610   1.814 -0.4810  0.4809  0.0404
  987MOL0     C33163  10.972   0.522   1.781 -0.0796  0.2959 -0.1852
  987MOL0     C33164  10.698   0.187   1.777 -0.7107 -0.1800 -0.8949
  987MOL0     C33165  10.730   0.118   1.894  0.5284  0.3877 -0.0950
  987MOL0     C33166  10.684  -0.009   1.920  0.6843 -0.6189  0.8245
  987MOL0     C33167  10.583  -0.060   1.846  0.5498  0.5840  0.1794
  987MOL0     O33168  10.556  -0.190   1.869 -0.3901  0.9210 -0.7639
  987MOL0     C33169  10.431  -0.257   1.839 -0.9414  0.4202  0.6028
  987MOL0     C33170  10.318  -0.197   1.919  0.7753 -0.0856 -0.2608
  987MOL0     C33171  10.333  -0.220   2.070  0.4299  0.7412 -0.4378
  987MOL0     C33172  10.219  -0.151   2.156 -0.1362 -0.1734  0.5098
  987MOL0     C33173  10.272  -0.130   2.287 -0.4963 -0.4599  0.5860
  987MOL0     C33174  10.333  -0.106   2.393 -0.2810 -0.5461  0.9796
  987MOL0     C33175  10.542   0.012   1.732 -0.1890 -0.3356 -0.1298
  987MOL0     C33176  10.602   0.127   1.692  0.2591 -0.8949  0.1869
  987MOL0     C33177  10.539   0.192   1.577 -0.4535  0.6620 -0.0931
  987MOL0     H33178  10.771   0.593   2.040 -0.6490 -2.6865 -1.8692
  987MOL0     H33179  10.958   0.739   2.098 -0.6300 -0.9367  0.2276
  987MOL0     H33180  11.335   0.738   1.828 -2.6706 -1.8047  0.2900
  987MOL0     H33181  11.210   0.851   1.767 -0.3302 -0.4189  0.2943
  987MOL0     H33182  11.391   0.899   2.002 -0.7391 -0.1756  0.3553
  987MOL0     H33183  11.249   0.991   1.961 -0.3211 -1.0164  0.6903
  987MOL0     H33184  11.329   1.052   1.746  0.5447  0.4929 -1.4405
  987MOL0     H33185  11.482   0.954   1.768 -0.5483  1.2104 -1.6661
  987MOL0     H33186  11.475   1.218   1.814 -2.5415  0.4233  0.7992
  987MOL0     H33187  11.435   1.151   1.966 -1.2787  2.0138 -0.9666
  987MOL0     H33188  11.644   1.036   1.977 -2.2263  0.4170  1.4538
  987MOL0     H33189  11.676   1.068   1.810  0.0745  0.8023 -0.8355
  987MOL0     H33190  11.648   1.327   1.882 -4.3397 -0.1631  1.3681
  987MOL0     H33191  11.666   1.264   2.042  1.7562  3.0919 -0.3093
  987MOL0     H33192  11.857   1.238   1.804  1.6103  0.8962  0.2629
  987MOL0     H33193  11.893   1.140   1.947 -1.1597 -1.0965 -0.1588
  987MOL0     H33194  11.919   1.417   1.877 -1.5813 -1.5419 -0.3493
  987MOL0     H33195  11.889   1.388   2.056  1.4864 -1.5723  1.0011
  987MOL0     H33196  12.064   1.272   2.191 -0.6172  2.0024 -0.6734
  987MOL0     H33197  12.318   1.192   2.258  1.2968 -0.4258  0.6651
  987MOL0     H33198  12.315   1.062   2.137 -0.9802  0.5591 -0.1050
  987MOL0     H33199  12.502   1.163   2.009 -2.4149 -1.2812  0.0456
  987MOL0     H33200  12.519   1.271   2.148 -1.3945  1.7713 -3.7693
  987MOL0     H33201  12.531   0.971   2.130  0.5432 -0.5415  0.3199
  987MOL0     H33202  12.554   1.054   2.291  0.0261 -1.9374 -0.6858
  987MOL0     H33203  12.725   1.040   2.034  0.1553 -0.3644  0.0758
  987MOL0     H33204  12.763   0.980   2.205 -0.2252 -0.3002 -0.7383
  987MOL0     H33205  12.838   1.417   2.227 -1.5705 -1.7572  0.6925
  987MOL0     H33206  13.084   1.491   2.212 -2.2697  0.5925 -2.6574
  987MOL0     H33207  13.538   1.473   2.009 -1.8485 -0.0493  0.3819
  987MOL0     H33208  13.775   1.535   2.064  1.9022 -1.1452  0.6807
  987MOL0     H33209  13.885   1.808   2.268  2.7156 -0.0723 -0.3711
  987MOL0     H33210  13.790   1.772   2.417  0.2359 -0.2822  0.4851
  987MOL0     H33211  14.086   1.744   2.384 -0.3061 -0.1273  0.0569
  987MOL0     H33212  14.009   1.894   2.443 -0.8771  1.2660  2.5477
  987MOL0     H33213  14.085   1.781   2.635 -0.5548 -1.3023  2.7076
  987MOL0     H33214  13.912   1.760   2.631  1.5874  1.2296  0.3848
  987MOL0     H33215  14.060   1.548   2.491  0.4435  1.9121 -1.7941
  987MOL0     H33216  13.920   1.534   2.598  1.1047 -0.5607  0.2547
  987MOL0     H33217  14.025   1.555   2.799  2.7427 -0.7143  1.9515
  987MOL0     H33218  14.182   1.584   2.720 -1.7097  3.9203 -1.9198
  987MOL0     H33219  14.012   1.324   2.749 -0.1571 -0.2084  0.2588
  987MOL0     H33220  14.137   1.339   2.618  1.7472 -4.2815  2.0721
  987MOL0     H33221  14.198   1.368   2.905  1.0705  0.1798  0.3815
  987MOL0     H33222  14.308   1.390   2.773  0.0667 -1.2958 -0.5406
  987MOL0     H33223  14.289   1.149   2.910 -0.8976 -0.9126 -0.8059
  987MOL0     H33224  14.161   1.139   2.792 -1.5953  1.5380  1.8208
  987MOL0     H33225  13.652   1.611   2.478 -0.0069  0.7864 -0.5228
  987MOL0     H33226  13.431   1.507   2.424 -2.3897  1.1473 -2.4442
  987MOL0     H33227  13.189   1.076   2.296 -1.8371 -0.9138  0.7945
  987MOL0     H33228  12.959   1.010   2.274 -0.3462 -0.4454  0.0261
  987MOL0     H33229  11.160   0.601   1.749 -2.0508 -1.2210 -1.9815
  987MOL0     H33230  10.985   0.480   1.682 -1.2891 -1.6335  0.4330
  987MOL0     H33231  10.801   0.167   1.960 -0.1881  0.0448  0.9544
  987MOL0     H33232  10.705  -0.049   2.018 -0.8731 -0.9895  1.0381
  987MOL0     H33233  10.447  -0.359   1.874  0.5176  0.8609  1.3192
  987MOL0     H33234  10.414  -0.247   1.731  1.1965  2.2849  0.3377
  987MOL0     H33235  10.225  -0.239   1.880  0.6718  0.1022 -0.2152
  987MOL0     H33236  10.310  -0.090   1.895  0.2607  0.6904  2.9201
  987MOL0     H33237  10.431  -0.186   2.105  0.5147  2.1618 -1.9362
  987MOL0     H33238  10.315  -0.326   2.089  1.3648  0.7581  0.6465
  987MOL0     H33239  10.193  -0.060   2.101 -1.7680 -0.8075  0.1647
  987MOL0     H33240  10.133  -0.218   2.161 -1.4106  1.4688  1.5892
  987MOL0     H33241  10.396  -0.093   2.478  0.5226 -0.7267  0.4253
  987MOL0     H33242  10.456  -0.026   1.678  1.3963 -4.3316 -0.2271
  987MOL0     H33243  10.614   0.202   1.498  0.3000 -0.0585  0.5059
  987MOL0     H33244  10.453   0.137   1.538  0.3799 -0.5946 -0.2202
  987MOL0     H33245  10.498   0.286   1.616  2.2294  0.9228  2.4839
  988MOL0     O33246   3.837   8.819   0.730 -0.2892  0.5034 -0.6056
  988MOL0     C33247   3.807   8.723   0.796 -0.5619  0.4294 -0.0153
  988MOL0     O33248   3.706   8.718   0.890 -0.2629  0.0895 -0.8143
  988MOL0     C33249   3.668   8.831   0.959 -0.6391  0.1646 -0.4942
  988MOL0     C33250   3.670   8.967   0.921 -0.0311  0.4964 -0.6023
  988MOL0     C33251   3.611   9.070   0.995 -0.4610 -0.4630  0.2554
  988MOL0     C33252   3.568   9.038   1.126  0.1431 -1.1390 -0.1979
  988MOL0     O33253   3.512   9.138   1.194  0.3458 -0.3774  0.1975
  988MOL0     C33254   3.456   9.125   1.317  0.8211  0.3013  0.2103
  988MOL0     C33255   3.414   9.274   1.358 -0.3333 -0.5181 -0.5079
  988MOL0     C33256   3.369   9.273   1.505 -0.0894 -0.2840  1.1715
  988MOL0     C33257   3.338   9.415   1.551  0.0887  0.8982  0.0154
  988MOL0     C33258   3.358   9.441   1.702 -0.8355 -0.4476 -0.1932
  988MOL0     C33259   3.257   9.361   1.784 -0.2096 -0.2616  0.5729
  988MOL0     C33260   3.268   9.391   1.935 -0.1853  0.0872  0.1970
  988MOL0     C33261   3.173   9.299   2.011  0.1637 -0.2530 -0.3358
  988MOL0     N33262   3.040   9.357   2.012  0.9537 -0.2838 -0.7430
  988MOL0     C33263   2.932   9.280   2.034  0.1225  0.4110 -0.4423
  988MOL0     C33264   2.822   9.364   2.028 -1.5085 -0.3755  0.1812
  988MOL0     C33265   2.694   9.324   2.072 -0.8920 -0.5508 -0.4141
  988MOL0     C33266   2.678   9.382   2.219 -0.9734  1.1862  0.3649
  988MOL0     C33267   2.554   9.343   2.286  0.2769 -0.1945  0.4108
  988MOL0     C33268   2.427   9.390   2.216  0.3242 -0.0321  0.7003
  988MOL0     O33269   2.323   9.395   2.317  0.3012  0.2739 -0.1005
  988MOL0     C33270   2.208   9.457   2.282 -0.0357 -1.4865 -0.3169
  988MOL0     C33271   2.138   9.519   2.385  0.5133 -0.2965  0.3610
  988MOL0     C33272   2.006   9.563   2.375  0.7886  0.5134  2.0260
  988MOL0     C33273   1.941   9.553   2.251  0.4285  0.4016 -0.2698
  988MOL0     C33274   1.790   9.585   2.230 -1.6535 -0.3211  0.9544
  988MOL0     O33275   1.716   9.600   2.344  0.3771 -0.7035  0.1524
  988MOL0     C33276   1.574   9.623   2.334 -1.2033  0.1082  1.1030
  988MOL0     C33277   1.508   9.510   2.273 -0.4517 -0.2867 -0.7250
  988MOL0     C33278   1.371   9.520   2.243 -0.2328  0.7107  0.4302
  988MOL0     C33279   1.292   9.628   2.275  0.4823 -0.1465 -0.5263
  988MOL0     O33280   1.158   9.651   2.259  0.0997 -0.4282 -0.1180
  988MOL0     C33281   1.082   9.535   2.222 -0.2506  0.8610 -0.0841
  988MOL0     C33282   0.931   9.544   2.242  0.0908 -0.1992 -0.8700
  988MOL0     C33283   0.882   9.521   2.388 -0.7510  0.1284  0.5958
  988MOL0     C33284   0.731   9.546   2.404 -1.1603 -0.1070  0.1847
  988MOL0     C33285   0.655   9.436   2.333  0.1558  1.0130 -0.1231
  988MOL0     C33286   0.505   9.470   2.364 -0.1190 -0.5426 -0.2537
  988MOL0     C33287   0.415   9.350   2.357 -0.3466 -0.0506  0.1661
  988MOL0     C33288   0.393   9.301   2.214  0.6823  0.0009  0.5428
  988MOL0    Cl33289   0.289   9.423   2.131 -0.3141  0.4753 -0.0037
  988MOL0     C33290   1.364   9.734   2.335  0.8953  0.2055 -0.8425
  988MOL0     C33291   1.499   9.735   2.354  0.6358  0.2145 -0.0980
  988MOL0     O33292   1.749   9.591   2.114 -0.0496 -0.5730 -0.4656
  988MOL0     C33293   2.016   9.506   2.139  0.2407 -0.8085  0.0574
  988MOL0     C33294   2.148   9.458   2.154  0.1238 -0.5591  0.0601
  988MOL0     N33295   2.867   9.487   1.996 -1.1400  0.1841  0.0038
  988MOL0     N33296   2.996   9.487   1.994  0.6537 -0.2691  0.5056
  988MOL0     C33297   3.566   8.909   1.164  0.2171  0.2195 -0.5561
  988MOL0     C33298   3.602   8.802   1.078  0.1045 -0.4257 -0.2321
  988MOL0     C33299   3.867   8.597   0.752 -0.5884  0.2446  0.6038
  988MOL0     C33300   3.780   8.488   0.764  1.0679 -0.4103 -0.0744
  988MOL0     C33301   3.817   8.362   0.734 -0.0035  0.5654  0.2804
  988MOL0     C33302   3.950   8.331   0.694 -0.6761 -0.3669 -0.0460
  988MOL0     O33303   3.979   8.202   0.653  0.2038 -0.0803 -0.5028
  988MOL0     C33304   4.119   8.164   0.683 -0.0505 -0.3305  0.6652
  988MOL0     C33305   4.139   8.017   0.658  0.1781  0.1566 -0.3104
  988MOL0     C33306   4.132   7.979   0.506  0.5560  0.2705 -0.3927
  988MOL0     C33307   3.989   7.976   0.452 -0.7106 -0.5012  0.5355
  988MOL0     C33308   3.970   8.066   0.333  0.6412 -0.3501 -0.5544
  988MOL0     C33309   3.980   8.141   0.234  0.7008 -0.0500 -0.3167
  988MOL0     C33310   4.038   8.441   0.686 -0.6652 -0.4088 -0.3442
  988MOL0     C33311   3.999   8.573   0.717 -0.2197  0.8688  0.6413
  988MOL0     C33312   4.108   8.687   0.698  0.2850 -0.0109 -0.1480
  988MOL0     H33313   3.701   8.977   0.818 -1.5510 -1.0605 -1.2564
  988MOL0     H33314   3.597   9.170   0.955 -2.2497 -0.8113 -0.1011
  988MOL0     H33315   3.366   9.064   1.318  0.8491  0.1894 -1.2269
  988MOL0     H33316   3.525   9.085   1.392 -0.3245  0.9391  1.6571
  988MOL0     H33317   3.335   9.328   1.306  0.8363  1.7571 -0.0674
  988MOL0     H33318   3.511   9.325   1.354  0.9488 -2.6895  0.7127
  988MOL0     H33319   3.446   9.230   1.570  0.7924 -0.4017  0.0859
  988MOL0     H33320   3.278   9.213   1.515 -0.2645 -0.1450  0.4500
  988MOL0     H33321   3.401   9.488   1.499 -0.6365  0.8184 -1.0030
  988MOL0     H33322   3.235   9.439   1.523  0.4974  2.4234 -0.2633
  988MOL0     H33323   3.461   9.437   1.738 -0.5209 -0.6258 -1.1016
  988MOL0     H33324   3.338   9.547   1.718 -0.1685 -0.2218 -0.7964
  988MOL0     H33325   3.156   9.385   1.749 -0.7936 -2.7482  0.3679
  988MOL0     H33326   3.287   9.258   1.764  0.8815  0.2562 -0.5172
  988MOL0     H33327   3.259   9.498   1.955 -0.1526  0.6467 -2.4942
  988MOL0     H33328   3.364   9.363   1.981 -1.4109 -0.5764  2.5037
  988MOL0     H33329   3.172   9.201   1.963  0.5336 -0.8898  0.9369
  988MOL0     H33330   3.191   9.285   2.118 -1.2402 -1.2057 -0.1993
  988MOL0     H33331   2.939   9.177   2.067  0.6050  0.6756  0.3166
  988MOL0     H33332   2.620   9.362   2.000  0.1709  1.7666 -0.3831
  988MOL0     H33333   2.690   9.216   2.084  1.8004 -0.5007  1.9496
  988MOL0     H33334   2.767   9.346   2.272  2.1096  2.4312 -3.4764
  988MOL0     H33335   2.696   9.489   2.229  0.7990  0.8438  1.2422
  988MOL0     H33336   2.544   9.396   2.382 -2.5961  0.7647 -0.3222
  988MOL0     H33337   2.533   9.237   2.301 -2.9846  0.5592  2.2493
  988MOL0     H33338   2.399   9.328   2.130  3.5849  2.1833 -2.2409
  988MOL0     H33339   2.431   9.494   2.183  0.0002 -1.0616 -3.1535
  988MOL0     H33340   2.199   9.520   2.474  1.6788  3.7719 -0.2747
  988MOL0     H33341   1.944   9.597   2.458 -0.1978  0.4053  1.3530
  988MOL0     H33342   1.565   9.424   2.238  0.6354  0.8786 -1.9831
  988MOL0     H33343   1.326   9.443   2.181  2.0115  0.3135 -0.7851
  988MOL0     H33344   1.098   9.525   2.114 -0.9840  2.0671 -0.3231
  988MOL0     H33345   1.120   9.441   2.264  0.7821  2.5764  3.1229
  988MOL0     H33346   0.898   9.636   2.194 -3.1383 -0.6680  0.2019
  988MOL0     H33347   0.902   9.458   2.180 -0.2906  0.9075 -2.2652
  988MOL0     H33348   0.911   9.418   2.412 -0.7583 -0.0696 -0.1985
  988MOL0     H33349   0.932   9.597   2.447  0.5203  1.3361 -1.8974
  988MOL0     H33350   0.715   9.645   2.359  4.0065  1.0824  0.3508
  988MOL0     H33351   0.720   9.545   2.512  2.1475 -3.7450  0.6903
  988MOL0     H33352   0.692   9.342   2.377  1.6392  1.1425 -1.0377
  988MOL0     H33353   0.694   9.441   2.232  1.7843 -3.2566  0.0715
  988MOL0     H33354   0.506   9.523   2.460  2.5474 -0.9598  0.0306
  988MOL0     H33355   0.475   9.535   2.282  0.2016 -2.0885 -1.6451
  988MOL0     H33356   0.319   9.367   2.406  0.0065 -1.0136  1.2184
  988MOL0     H33357   0.468   9.274   2.415  1.8802  0.0626 -1.5507
  988MOL0     H33358   0.484   9.293   2.153  1.9581 -2.4009  2.5577
  988MOL0     H33359   0.348   9.202   2.219 -0.6132  0.6325  2.8737
  988MOL0     H33360   1.303   9.820   2.360 -0.2966 -1.0588  0.8122
  988MOL0     H33361   1.548   9.825   2.390 -0.9274  1.1923 -0.3234
  988MOL0     H33362   1.980   9.490   2.038 -2.2206  2.7911  0.1804
  988MOL0     H33363   2.195   9.415   2.067 -0.8389 -2.7924  0.5699
  988MOL0     H33364   3.533   8.886   1.264 -2.8521 -0.4646 -1.6114
  988MOL0     H33365   3.603   8.697   1.106 -0.8253 -0.0349  1.4292
  988MOL0     H33366   3.682   8.505   0.808  1.3493  2.1066 -0.2729
  988MOL0     H33367   3.748   8.280   0.752 -1.2713  1.2865 -1.0432
  988MOL0     H33368   4.140   8.178   0.789  3.6145  0.1687  0.0187
  988MOL0     H33369   4.190   8.220   0.621 -0.0737 -0.3109  0.6568
  988MOL0     H33370   4.055   7.962   0.700 -1.3366  0.4802 -2.7220
  988MOL0     H33371   4.231   7.979   0.703 -1.0289 -1.7485  0.6991
  988MOL0     H33372   4.188   7.885   0.510  0.7301  0.3781 -0.2819
  988MOL0     H33373   4.185   8.047   0.438 -1.4195  0.9134 -1.3738
  988MOL0     H33374   3.965   7.874   0.421 -3.3106 -0.5540  2.3566
  988MOL0     H33375   3.914   8.002   0.527  1.3787  0.6043  2.3369
  988MOL0     H33376   3.971   8.187   0.137  0.2025 -1.0034 -0.7481
  988MOL0     H33377   4.130   8.439   0.628 -0.3775 -0.8477  0.1202
  988MOL0     H33378   4.079   8.773   0.760  0.6259  1.2017 -1.6122
  988MOL0     H33379   4.212   8.655   0.707  0.6232  0.7490 -1.2396
  988MOL0     H33380   4.106   8.724   0.595  0.2823 -1.5850 -0.7371
  989MOL0     O33381   6.485   1.783   4.067  0.1594  0.1252 -0.2296
  989MOL0     C33382   6.370   1.739   4.042  0.2005  0.1367 -0.0738
  989MOL0     O33383   6.346   1.633   3.962  0.3192 -0.1472 -0.2177
  989MOL0     C33384   6.459   1.587   3.895  0.1655  0.3396 -1.3751
  989MOL0     C33385   6.526   1.474   3.950 -0.1716  0.4462 -0.2125
  989MOL0     C33386   6.648   1.438   3.888 -1.1795  0.4845  0.4319
  989MOL0     C33387   6.687   1.508   3.765 -0.3362  0.3109 -0.4794
  989MOL0     O33388   6.806   1.462   3.713 -0.3956  0.4095 -0.1289
  989MOL0     C33389   6.817   1.471   3.570  0.4638  0.0529 -0.3142
  989MOL0     C33390   6.949   1.430   3.525 -0.9917  0.5616  0.5445
  989MOL0     C33391   7.052   1.535   3.555  0.5339 -0.0457 -0.2358
  989MOL0     C33392   7.186   1.498   3.501 -0.7572  0.3146  0.2418
  989MOL0     C33393   7.292   1.611   3.495  0.2391 -0.8081  0.9120
  989MOL0     C33394   7.341   1.647   3.638  0.0767 -0.1081  1.0657
  989MOL0     C33395   7.448   1.754   3.636  0.4069  0.0791  0.4771
  989MOL0     C33396   7.548   1.755   3.749  0.5104 -0.1126  0.6397
  989MOL0     N33397   7.638   1.636   3.736 -0.6245  0.5708 -0.0869
  989MOL0     C33398   7.742   1.628   3.637  0.8583  0.6679 -0.7876
  989MOL0     C33399   7.796   1.501   3.655  0.5145  0.9553 -0.1257
  989MOL0     C33400   7.930   1.437   3.603 -0.4200 -0.6669 -0.2435
  989MOL0     C33401   8.056   1.520   3.632  0.5684  1.1621  0.1916
  989MOL0     C33402   8.079   1.524   3.778  0.3369  0.1280  0.4524
  989MOL0     C33403   8.194   1.620   3.809 -0.8843 -0.6236  0.1847
  989MOL0     O33404   8.316   1.594   3.749 -0.2597  0.0704  0.0906
  989MOL0     C33405   8.418   1.683   3.741  0.1806 -0.1446 -0.8198
  989MOL0     C33406   8.535   1.626   3.694  0.1768  0.2671  0.1230
  989MOL0     C33407   8.657   1.704   3.689  0.1678  0.0661 -0.6203
  989MOL0     C33408   8.664   1.841   3.717 -0.8641  0.0021 -0.8860
  989MOL0     C33409   8.787   1.921   3.694  1.0915  0.5969  0.0136
  989MOL0     O33410   8.903   1.852   3.702  0.3169  0.0110 -0.3603
  989MOL0     C33411   9.016   1.913   3.660 -0.4947  0.2860 -0.0705
  989MOL0     C33412   9.026   2.002   3.545 -0.3106  0.3176 -0.4571
  989MOL0     C33413   9.147   2.065   3.525  0.0172  0.0604  0.1929
  989MOL0     C33414   9.260   2.026   3.599 -0.0387 -0.0853  0.4133
  989MOL0     O33415   9.387   2.062   3.576 -0.5975  0.2423 -0.0665
  989MOL0     C33416   9.423   2.105   3.440 -0.5425  0.6925 -0.9436
  989MOL0     C33417   9.576   2.071   3.423  0.2962  1.2778  0.2558
  989MOL0     C33418   9.620   2.078   3.280 -0.6394 -0.3360  0.1747
  989MOL0     C33419   9.586   1.953   3.196 -0.0550 -0.7912  0.3461
  989MOL0     C33420   9.636   1.819   3.259 -0.2747 -0.2531  0.5192
  989MOL0     C33421   9.783   1.816   3.271 -0.1010  0.4197 -0.3015
  989MOL0     C33422   9.817   1.754   3.402  0.2965 -0.4463  0.4039
  989MOL0     C33423   9.962   1.707   3.406 -0.1483 -0.2844  0.1581
  989MOL0    Cl33424  10.084   1.838   3.412 -0.0173 -0.4651  0.0858
  989MOL0     C33425   9.247   1.934   3.707 -0.1455 -0.3285  0.5868
  989MOL0     C33426   9.125   1.880   3.733 -0.4879  0.4219 -0.2050
  989MOL0     O33427   8.775   2.040   3.685 -0.1027  0.2213  0.4300
  989MOL0     C33428   8.542   1.900   3.750  0.4469 -0.0478 -0.4535
  989MOL0     C33429   8.430   1.820   3.772  0.3878 -0.7242  0.1796
  989MOL0     N33430   7.724   1.444   3.764 -0.2152 -0.3858  0.3137
  989MOL0     N33431   7.633   1.527   3.812 -0.3797 -0.1579 -0.3194
  989MOL0     C33432   6.597   1.599   3.706 -0.0159 -0.2868  0.3843
  989MOL0     C33433   6.484   1.637   3.771  0.8444  0.2364 -0.7748
  989MOL0     C33434   6.253   1.812   4.107  0.1727  0.1165 -0.0670
  989MOL0     C33435   6.277   1.939   4.158  0.0664 -0.0269 -1.3348
  989MOL0     C33436   6.175   2.013   4.224 -0.3673 -0.5407  0.1463
  989MOL0     C33437   6.043   1.973   4.231  0.4505  0.4236  0.2342
  989MOL0     O33438   5.945   2.060   4.287  0.3351 -0.3637  0.4336
  989MOL0     C33439   5.817   2.010   4.314  0.2310  0.3034 -0.5140
  989MOL0     C33440   5.715   2.117   4.321 -0.7819 -0.3814 -0.1625
  989MOL0     C33441   5.577   2.056   4.350 -0.3813 -0.3506  0.2477
  989MOL0     C33442   5.476   2.171   4.319  0.4262  0.9584 -0.7701
  989MOL0     C33443   5.492   2.291   4.406  0.0847  0.8301  0.7072
  989MOL0     C33444   5.486   2.378   4.486 -0.1578 -0.7765 -0.2272
  989MOL0     C33445   6.015   1.842   4.172  0.4304  0.0007  0.4211
  989MOL0     C33446   6.116   1.759   4.116 -0.8151  0.2751  0.3829
  989MOL0     C33447   6.077   1.618   4.076 -0.1645 -0.4606  0.3802
  989MOL0     H33448   6.498   1.443   4.050  0.2440  1.2675  0.1621
  989MOL0     H33449   6.712   1.361   3.930  1.7160  2.2406 -0.4477
  989MOL0     H33450   6.729   1.417   3.535 -2.5231  1.6707  3.8442
  989MOL0     H33451   6.798   1.575   3.541 -0.6545  0.8031  2.7441
  989MOL0     H33452   6.948   1.408   3.418  0.4007 -0.9284  0.7865
  989MOL0     H33453   6.981   1.339   3.577  0.6771  1.6816  1.5806
  989MOL0     H33454   7.065   1.551   3.662 -1.4069  3.8350 -0.3899
  989MOL0     H33455   7.010   1.630   3.519 -0.4437 -0.6972 -0.8926
  989MOL0     H33456   7.227   1.421   3.567  0.3247  1.9453  1.5492
  989MOL0     H33457   7.168   1.454   3.402  1.3882 -0.5733  0.1925
  989MOL0     H33458   7.382   1.582   3.440 -0.1501 -0.2417 -0.0546
  989MOL0     H33459   7.249   1.702   3.451  0.7422 -1.3267 -0.7520
  989MOL0     H33460   7.264   1.679   3.710  2.4938  2.2780  2.7911
  989MOL0     H33461   7.382   1.552   3.675 -0.8011 -0.4689  1.1612
  989MOL0     H33462   7.386   1.844   3.635  0.0477 -0.1350 -2.3632
  989MOL0     H33463   7.504   1.740   3.543  0.5042 -2.0807  0.8242
  989MOL0     H33464   7.606   1.848   3.755 -2.5106  1.9568 -0.1769
  989MOL0     H33465   7.478   1.749   3.832 -0.7275 -1.3551 -0.4538
  989MOL0     H33466   7.773   1.700   3.562 -0.2025  0.1205 -1.7743
  989MOL0     H33467   7.944   1.342   3.655 -1.5487 -0.6969  0.0350
  989MOL0     H33468   7.928   1.428   3.494  0.6410  0.4474 -0.3782
  989MOL0     H33469   8.145   1.479   3.584 -1.7763 -3.1948 -0.9152
  989MOL0     H33470   8.045   1.619   3.586  0.2502  1.5563  1.0974
  989MOL0     H33471   8.104   1.428   3.822  3.8744  1.2495  1.2937
  989MOL0     H33472   7.982   1.558   3.814  0.7170 -0.1824  1.8018
  989MOL0     H33473   8.211   1.631   3.917  0.4863 -1.4063  0.0728
  989MOL0     H33474   8.161   1.718   3.772  0.4663 -0.4513 -0.6227
  989MOL0     H33475   8.536   1.522   3.663 -0.6786  0.1348  0.5258
  989MOL0     H33476   8.740   1.658   3.636  0.5146  0.9511 -0.8663
  989MOL0     H33477   8.942   2.022   3.479 -0.3505  0.7394 -0.2840
  989MOL0     H33478   9.148   2.140   3.447 -0.5265  1.8505  1.8152
  989MOL0     H33479   9.360   2.063   3.361 -2.2872  0.3939  0.5290
  989MOL0     H33480   9.403   2.212   3.432  0.6573  0.9222 -1.1177
  989MOL0     H33481   9.628   2.142   3.487  0.2078  2.3154 -0.7927
  989MOL0     H33482   9.598   1.971   3.462 -0.2261  1.1690  0.2788
  989MOL0     H33483   9.577   2.168   3.235  0.4339 -0.1111 -0.4444
  989MOL0     H33484   9.729   2.090   3.277 -0.5243 -1.4228 -0.7660
  989MOL0     H33485   9.625   1.953   3.094 -1.0821 -1.6819 -0.0682
  989MOL0     H33486   9.477   1.944   3.191 -0.0041 -0.6920 -1.7380
  989MOL0     H33487   9.608   1.738   3.191 -1.2375 -0.0514  0.6602
  989MOL0     H33488   9.588   1.787   3.352  2.0526 -0.1208  1.8488
  989MOL0     H33489   9.820   1.759   3.185 -2.9930  0.4199 -1.6383
  989MOL0     H33490   9.820   1.919   3.266 -5.5570  2.6500 -2.0144
  989MOL0     H33491   9.753   1.669   3.430  0.4385 -0.6561  0.0917
  989MOL0     H33492   9.806   1.819   3.489 -0.6119 -0.4257  0.2854
  989MOL0     H33493   9.966   1.644   3.496 -0.5710 -0.6091 -0.0466
  989MOL0     H33494   9.987   1.652   3.314 -0.7085 -1.4173  0.6583
  989MOL0     H33495   9.342   1.909   3.753 -0.1213  0.7881  1.1865
  989MOL0     H33496   9.134   1.800   3.807  1.7217  0.5396 -0.2835
  989MOL0     H33497   8.543   2.008   3.759  3.4433 -0.0943  1.3865
  989MOL0     H33498   8.345   1.879   3.805 -0.6865 -0.9800 -1.9154
  989MOL0     H33499   6.623   1.659   3.619  2.4499 -2.1019 -0.2406
  989MOL0     H33500   6.419   1.715   3.733 -0.0306  0.3067  0.7725
  989MOL0     H33501   6.377   1.980   4.158  0.8724 -1.8749 -0.4047
  989MOL0     H33502   6.199   2.112   4.259 -2.5682  0.0605  0.1191
  989MOL0     H33503   5.818   1.947   4.403 -0.5869  3.2435  1.7355
  989MOL0     H33504   5.785   1.942   4.234 -0.5669 -0.2488  0.2537
  989MOL0     H33505   5.710   2.162   4.222 -1.1165  0.6941  0.3278
  989MOL0     H33506   5.752   2.184   4.399 -0.3143  0.3250 -0.9784
  989MOL0     H33507   5.567   2.015   4.452  0.1206 -3.2306 -0.7483
  989MOL0     H33508   5.559   1.980   4.273  3.1257 -2.2350  1.0465
  989MOL0     H33509   5.501   2.199   4.217  1.5794  2.0712 -0.1991
  989MOL0     H33510   5.370   2.144   4.316  0.7997 -0.8056  0.2378
  989MOL0     H33511   5.476   2.464   4.549  0.6720 -0.2734 -0.7617
  989MOL0     H33512   5.911   1.810   4.167 -0.3187  2.2244  0.5774
  989MOL0     H33513   5.987   1.577   4.123  0.1532 -2.6821 -0.8381
  989MOL0     H33514   6.042   1.629   3.973  1.9360 -0.6335 -0.4069
  989MOL0     H33515   6.164   1.553   4.087  0.0929 -0.2103 -0.1499
  990MOL0     O33516   5.824   5.260   3.391  0.0894 -1.4291 -0.5015
  990MOL0     C33517   5.757   5.162   3.357 -0.7780 -0.1553  0.1468
  990MOL0     O33518   5.811   5.064   3.272 -0.9289  0.5172  0.8823
  990MOL0     C33519   5.937   5.068   3.222 -0.1915  0.1074  0.0018
  990MOL0     C33520   5.988   5.189   3.170 -0.2451 -0.2863 -0.3388
  990MOL0     C33521   6.125   5.192   3.132  0.7523 -0.2500  0.2978
  990MOL0     C33522   6.211   5.080   3.148 -0.4517  1.0588  0.0977
  990MOL0     O33523   6.340   5.086   3.097 -0.9307  0.6789  0.0343
  990MOL0     C33524   6.416   4.969   3.031  0.6046 -0.0837  0.1276
  990MOL0     C33525   6.341   4.900   2.923 -0.6623  0.6193 -0.4761
  990MOL0     C33526   6.431   4.847   2.804  0.3750 -0.0169 -0.3379
  990MOL0     C33527   6.477   4.968   2.718  0.2956 -0.2842  0.3261
  990MOL0     C33528   6.601   4.942   2.636 -0.8467  0.4530 -1.0769
  990MOL0     C33529   6.580   4.823   2.539  0.8454 -0.3690 -0.1687
  990MOL0     C33530   6.449   4.835   2.452  0.1460  0.2864 -0.6083
  990MOL0     C33531   6.440   4.963   2.377 -0.8581  0.1314  0.6288
  990MOL0     N33532   6.546   4.987   2.267  0.1022 -0.4577  0.2184
  990MOL0     C33533   6.629   4.884   2.215  0.0772 -0.0224  0.0960
  990MOL0     C33534   6.677   4.935   2.097 -0.3458  0.7729  0.6040
  990MOL0     C33535   6.769   4.875   1.988  0.8611  0.1201 -0.1126
  990MOL0     C33536   6.877   4.965   1.944 -0.5119  0.3298 -0.6868
  990MOL0     C33537   6.967   5.033   2.057 -0.0382 -0.3611  0.2027
  990MOL0     C33538   7.026   4.933   2.175  0.7591  0.5629  0.6237
  990MOL0     O33539   7.122   4.839   2.118 -0.3027  1.1494  0.1964
  990MOL0     C33540   7.249   4.864   2.090 -0.1727 -0.8465  0.0871
  990MOL0     C33541   7.316   4.988   2.077  0.3074 -1.2853  0.1994
  990MOL0     C33542   7.452   4.989   2.028  0.9996  0.5597  0.4363
  990MOL0     C33543   7.524   4.878   1.995  0.9244  0.8211 -0.3399
  990MOL0     C33544   7.655   4.888   1.942  0.1057  0.4222  0.4760
  990MOL0     O33545   7.687   5.016   1.907 -0.6142 -0.4917  0.2389
  990MOL0     C33546   7.805   5.042   1.846  0.4718  0.0193  1.3049
  990MOL0     C33547   7.876   5.157   1.889 -0.5323 -0.2221  0.0795
  990MOL0     C33548   7.999   5.191   1.830 -0.3052  0.0977 -0.7322
  990MOL0     C33549   8.055   5.118   1.734  0.0515 -0.9287  0.4665
  990MOL0     O33550   8.177   5.166   1.700 -0.8315  0.2191 -0.0198
  990MOL0     C33551   8.278   5.071   1.651 -0.3638 -0.4433  0.1632
  990MOL0     C33552   8.420   5.134   1.662 -0.4232  0.1485  0.6957
  990MOL0     C33553   8.440   5.253   1.567 -0.1752 -0.2173 -0.7937
  990MOL0     C33554   8.582   5.294   1.599 -0.7154  0.8502  0.8968
  990MOL0     C33555   8.589   5.440   1.554 -0.0911 -0.6712 -1.0203
  990MOL0     C33556   8.721   5.499   1.599  0.9114 -0.0633 -0.2378
  990MOL0     C33557   8.744   5.641   1.542 -0.3007 -0.3210  0.4484
  990MOL0     C33558   8.680   5.752   1.630  0.2345  0.1228 -0.2250
  990MOL0    Cl33559   8.743   5.915   1.573  0.0842  0.4997 -0.0246
  990MOL0     C33560   7.991   4.995   1.692  0.6355 -0.0833  0.3022
  990MOL0     C33561   7.865   4.967   1.747  0.2064 -0.1203  0.7702
  990MOL0     O33562   7.726   4.790   1.936 -1.1624  0.2215  0.1796
  990MOL0     C33563   7.457   4.754   2.003 -0.3621 -0.3985 -0.9812
  990MOL0     C33564   7.319   4.745   2.055  0.1700 -0.4981  0.6661
  990MOL0     N33565   6.638   5.065   2.085  0.4463  0.0755 -0.4917
  990MOL0     N33566   6.558   5.093   2.187 -0.3097 -0.2640  0.5967
  990MOL0     C33567   6.158   4.957   3.198 -0.2229  0.0580  0.1434
  990MOL0     C33568   6.022   4.958   3.233  0.1662 -0.4346 -0.0703
  990MOL0     C33569   5.629   5.126   3.418 -0.4530  0.1903 -0.2476
  990MOL0     C33570   5.526   5.070   3.334  0.1048  0.0662 -1.3661
  990MOL0     C33571   5.399   5.055   3.373  0.3448 -0.7024 -0.2523
  990MOL0     C33572   5.370   5.091   3.506 -0.3565  0.5815 -0.0757
  990MOL0     O33573   5.244   5.084   3.568  0.3761 -0.7642 -0.2832
  990MOL0     C33574   5.128   5.067   3.483 -0.6131  0.9625  0.2366
  990MOL0     C33575   5.091   4.922   3.446  0.5764  0.4092  0.0162
  990MOL0     C33576   5.094   4.839   3.568  0.6303  0.7241 -0.4136
  990MOL0     C33577   4.993   4.873   3.681 -0.9051 -0.2848 -0.2167
  990MOL0     C33578   4.865   4.813   3.639  0.1809 -0.3515  0.3445
  990MOL0     C33579   4.751   4.796   3.621  0.0187 -0.2615  0.6671
  990MOL0     C33580   5.468   5.148   3.591  0.3267  0.6140 -0.6562
  990MOL0     C33581   5.598   5.157   3.549 -0.7381  0.0837  0.6236
  990MOL0     C33582   5.690   5.222   3.644  0.3231  0.6302 -0.5272
  990MOL0     H33583   5.928   5.274   3.138 -0.0682 -0.7554 -2.0345
  990MOL0     H33584   6.158   5.282   3.082  0.5425 -0.3527 -0.0379
  990MOL0     H33585   6.503   5.021   2.989  0.8843 -0.7333 -0.1069
  990MOL0     H33586   6.445   4.898   3.109  0.7720  0.0118  0.1526
  990MOL0     H33587   6.280   4.979   2.878  0.2808  2.3601  1.1334
  990MOL0     H33588   6.283   4.821   2.972  1.3390 -0.0605  0.9014
  990MOL0     H33589   6.380   4.767   2.749  0.4495 -2.4041  2.7655
  990MOL0     H33590   6.520   4.796   2.843 -1.9401 -0.7103  4.9338
  990MOL0     H33591   6.394   5.000   2.655  1.4432 -0.8433 -1.5493
  990MOL0     H33592   6.501   5.052   2.785 -1.1551 -0.6993  1.4182
  990MOL0     H33593   6.627   5.037   2.589  0.7011  1.1719  1.0918
  990MOL0     H33594   6.687   4.920   2.700 -2.3872  1.6444  1.5489
  990MOL0     H33595   6.666   4.830   2.471  1.3891  2.3507  0.6923
  990MOL0     H33596   6.578   4.727   2.592 -2.1599 -0.8461 -0.9892
  990MOL0     H33597   6.359   4.828   2.514  1.1639 -2.5132  0.7272
  990MOL0     H33598   6.436   4.746   2.389 -0.7400 -0.1771  0.2007
  990MOL0     H33599   6.348   4.957   2.318 -0.0804 -2.0955 -0.4632
  990MOL0     H33600   6.420   5.048   2.443 -2.8612  0.3559 -0.1955
  990MOL0     H33601   6.637   4.783   2.254  2.0121  1.3768  3.8567
  990MOL0     H33602   6.813   4.785   2.033 -1.4254 -1.5072 -0.9120
  990MOL0     H33603   6.704   4.843   1.906 -0.7235 -0.7563  1.4063
  990MOL0     H33604   6.938   4.911   1.871 -1.2877 -0.1118 -1.0236
  990MOL0     H33605   6.826   5.041   1.884 -0.2332  0.6053 -0.5759
  990MOL0     H33606   6.905   5.111   2.103  0.9128  1.5778 -1.6055
  990MOL0     H33607   7.049   5.096   2.020 -1.7240  1.9348  0.1135
  990MOL0     H33608   6.949   4.873   2.224  0.7424  2.1894  2.7398
  990MOL0     H33609   7.066   4.993   2.257  2.2126 -2.1261  2.0317
  990MOL0     H33610   7.273   5.086   2.097  0.7090 -0.3749 -2.8949
  990MOL0     H33611   7.496   5.088   2.031 -1.3473  1.6543  0.8023
  990MOL0     H33612   7.843   5.218   1.971  1.3137  1.1511 -0.1294
  990MOL0     H33613   8.054   5.275   1.871 -0.1491 -0.8804  1.2058
  990MOL0     H33614   8.262   4.976   1.703 -0.3759 -1.0871 -0.9761
  990MOL0     H33615   8.258   5.042   1.547 -0.1576 -2.6997  0.6944
  990MOL0     H33616   8.441   5.171   1.762 -1.0925  1.5032  0.3661
  990MOL0     H33617   8.482   5.062   1.609  0.1913  0.7345  0.5965
  990MOL0     H33618   8.413   5.233   1.463  0.5750  3.0773 -1.7677
  990MOL0     H33619   8.368   5.332   1.590 -1.4440 -1.0555 -1.7420
  990MOL0     H33620   8.646   5.233   1.535  0.5394  2.5973  0.3975
  990MOL0     H33621   8.608   5.275   1.704  0.7256  1.2992  0.6495
  990MOL0     H33622   8.509   5.495   1.605 -0.2017 -1.0194 -0.8165
  990MOL0     H33623   8.567   5.439   1.447 -2.0838  1.5109 -0.7279
  990MOL0     H33624   8.739   5.501   1.707  2.1080  2.8277 -0.3974
  990MOL0     H33625   8.804   5.445   1.553  1.8065 -0.5181  1.8340
  990MOL0     H33626   8.697   5.648   1.443 -1.9307 -1.4649  1.1021
  990MOL0     H33627   8.850   5.663   1.524 -0.0950 -0.9762  0.8496
  990MOL0     H33628   8.571   5.751   1.618  0.1765  0.0546  0.2907
  990MOL0     H33629   8.700   5.722   1.734 -0.5667  0.3205 -0.0095
  990MOL0     H33630   8.025   4.928   1.615  0.6790 -0.8632  0.9883
  990MOL0     H33631   7.806   4.885   1.706  1.5790 -0.5071 -0.5398
  990MOL0     H33632   7.497   4.658   1.970 -0.8770 -1.1318  0.4361
  990MOL0     H33633   7.259   4.655   2.051  0.7857 -0.8751 -2.1166
  990MOL0     H33634   6.212   4.866   3.220  2.3441  1.7942  1.6678
  990MOL0     H33635   5.980   4.868   3.276  0.3109 -0.1385  0.6985
  990MOL0     H33636   5.550   5.058   3.229  1.1783 -0.2239 -1.0986
  990MOL0     H33637   5.324   5.027   3.301  2.2517  1.7630 -3.4520
  990MOL0     H33638   5.138   5.108   3.382  0.0755  0.1030 -0.0587
  990MOL0     H33639   5.043   5.114   3.533 -0.0912  1.7928  0.3475
  990MOL0     H33640   5.173   4.892   3.381 -0.1107 -0.1274 -0.6194
  990MOL0     H33641   4.993   4.921   3.397  0.8229 -1.7593 -0.5651
  990MOL0     H33642   5.196   4.836   3.608  0.7455  1.0053 -0.6813
  990MOL0     H33643   5.080   4.734   3.543 -0.8256 -0.1634  3.3816
  990MOL0     H33644   5.031   4.838   3.777  1.2244  0.0646 -0.8764
  990MOL0     H33645   4.975   4.981   3.680 -1.8143 -0.4096  0.6679
  990MOL0     H33646   4.646   4.794   3.596  0.5398 -0.1470 -1.8194
  990MOL0     H33647   5.440   5.195   3.685 -3.5594  2.4868 -2.5101
  990MOL0     H33648   5.789   5.176   3.648  1.8564  3.3484 -3.1043
  990MOL0     H33649   5.694   5.321   3.597 -2.4700  1.1808  0.1786
  990MOL0     H33650   5.641   5.227   3.742  1.2963  2.3095 -0.0814
  991MOL0     O33651   4.925   3.241   8.568  0.8962 -0.6037  0.1274
  991MOL0     C33652   4.880   3.230   8.452 -0.4519  0.3404 -0.5618
  991MOL0     O33653   4.953   3.251   8.340  0.4049  0.0692  0.2797
  991MOL0     C33654   5.089   3.229   8.338 -0.2285 -1.1538  0.2381
  991MOL0     C33655   5.158   3.302   8.236  0.5052  0.5610  0.1015
  991MOL0     C33656   5.298   3.318   8.244 -0.3653 -0.4554 -0.2091
  991MOL0     C33657   5.365   3.268   8.354 -0.0994  0.0521 -0.6133
  991MOL0     O33658   5.492   3.305   8.353 -0.8269  0.2533 -0.3195
  991MOL0     C33659   5.592   3.198   8.389 -0.2606 -0.5609 -0.6379
  991MOL0     C33660   5.728   3.246   8.339  0.0004  0.1871 -0.9647
  991MOL0     C33661   5.720   3.301   8.186  0.9490 -0.5018 -0.4711
  991MOL0     C33662   5.847   3.273   8.097  0.3611 -0.4496 -0.1264
  991MOL0     C33663   5.974   3.360   8.137  0.3082 -0.9374  0.4932
  991MOL0     C33664   6.097   3.317   8.056 -0.0467 -0.5253 -0.7152
  991MOL0     C33665   6.212   3.401   8.107 -0.0671 -0.2320 -0.1140
  991MOL0     C33666   6.345   3.347   8.102  0.2503 -0.0051 -0.2119
  991MOL0     N33667   6.354   3.221   8.179 -0.2307 -0.1819  0.2359
  991MOL0     C33668   6.354   3.213   8.316 -0.3162 -0.3514 -0.0112
  991MOL0     C33669   6.357   3.078   8.345  0.2291 -0.8155 -1.4342
  991MOL0     C33670   6.346   3.026   8.490 -0.0749  0.7635 -0.0350
  991MOL0     C33671   6.492   2.984   8.544  0.3184  1.2521  0.9940
  991MOL0     C33672   6.553   2.865   8.468 -0.4771  0.3929  0.2401
  991MOL0     C33673   6.691   2.835   8.519  0.0695 -0.0021  0.8713
  991MOL0     O33674   6.790   2.929   8.468 -0.6227  0.3693  0.3815
  991MOL0     C33675   6.919   2.927   8.516 -0.3610  0.8153 -0.0280
  991MOL0     C33676   7.002   3.021   8.465 -0.8943  0.4634  0.8071
  991MOL0     C33677   7.142   3.031   8.504  0.1596  0.2918 -0.0007
  991MOL0     C33678   7.182   2.946   8.604 -0.7101  0.7979  0.1290
  991MOL0     C33679   7.325   2.960   8.650  0.2335  0.5968 -0.1478
  991MOL0     O33680   7.410   3.029   8.566 -0.2755  0.2480 -0.0715
  991MOL0     C33681   7.539   3.033   8.608 -0.5083 -0.8276 -0.2726
  991MOL0     C33682   7.577   3.099   8.734 -0.1150  0.0942  0.5674
  991MOL0     C33683   7.708   3.105   8.775 -0.0090  0.6538 -0.7830
  991MOL0     C33684   7.800   3.045   8.690  0.1431  0.3086  0.0649
  991MOL0     O33685   7.930   3.034   8.722  0.7424 -0.6355 -0.1530
  991MOL0     C33686   7.983   3.086   8.843  0.2585  0.1262 -0.0049
  991MOL0     C33687   8.126   3.041   8.862  0.0736 -0.1636  0.3417
  991MOL0     C33688   8.131   2.891   8.901 -0.1672 -0.2515  0.5644
  991MOL0     C33689   8.157   2.794   8.772  0.5166  0.8016 -0.1061
  991MOL0     C33690   8.177   2.651   8.813 -0.2039  0.0653 -0.3884
  991MOL0     C33691   8.139   2.557   8.699  0.8084 -0.6356  0.5247
  991MOL0     C33692   8.144   2.410   8.757 -0.2274 -0.4780  0.2992
  991MOL0     C33693   8.097   2.318   8.648 -0.0783  0.6826  0.1945
  991MOL0    Cl33694   8.089   2.147   8.689  0.2988  0.2195 -0.1862
  991MOL0     C33695   7.776   2.983   8.566 -0.7984 -0.0901 -0.6729
  991MOL0     C33696   7.640   2.984   8.527 -0.4963  0.0339 -0.2381
  991MOL0     O33697   7.364   2.884   8.740  0.3291  0.1388  0.7736
  991MOL0     C33698   7.101   2.850   8.659  0.8938 -0.7588 -0.9770
  991MOL0     C33699   6.969   2.842   8.619  0.2335  0.3489 -0.4748
  991MOL0     N33700   6.357   3.006   8.226  0.2266 -0.1889 -0.4509
  991MOL0     N33701   6.353   3.097   8.127 -0.5318  0.7201 -0.7263
  991MOL0     C33702   5.304   3.182   8.446 -0.3146 -0.4721  0.5757
  991MOL0     C33703   5.158   3.172   8.438  0.3958  0.4396  0.0832
  991MOL0     C33704   4.744   3.189   8.433  0.7569 -0.2485 -0.2891
  991MOL0     C33705   4.706   3.137   8.305  0.1985  0.1987 -0.4656
  991MOL0     C33706   4.573   3.119   8.270 -0.0423 -0.0043  0.2905
  991MOL0     C33707   4.471   3.141   8.360 -1.0904  0.2252 -0.1870
  991MOL0     O33708   4.342   3.125   8.333 -0.1729 -0.1861 -0.5202
  991MOL0     C33709   4.293   3.189   8.212 -0.0937 -0.3860 -0.8848
  991MOL0     C33710   4.293   3.099   8.085  0.2031 -0.7760  1.0678
  991MOL0     C33711   4.199   3.176   7.987 -0.1001 -0.9260 -0.0290
  991MOL0     C33712   4.138   3.103   7.865 -0.3944  0.5069 -0.1626
  991MOL0     C33713   4.047   3.185   7.789  0.9224 -0.2070 -0.0326
  991MOL0     C33714   3.970   3.277   7.741 -0.5446 -0.3672 -0.9868
  991MOL0     C33715   4.512   3.169   8.494  0.7143  0.4539 -0.6149
  991MOL0     C33716   4.642   3.188   8.529 -0.6548  0.6869  0.2914
  991MOL0     C33717   4.673   3.228   8.679 -0.2108  0.3937  0.9449
  991MOL0     H33718   5.115   3.349   8.148  1.4886 -0.5575 -1.0145
  991MOL0     H33719   5.352   3.367   8.164 -1.1327 -3.5144 -2.7851
  991MOL0     H33720   5.592   3.183   8.497  0.2328 -0.0753 -0.5632
  991MOL0     H33721   5.581   3.103   8.337  0.7110 -0.3607 -1.2339
  991MOL0     H33722   5.802   3.165   8.329  0.5920  0.5370  0.4666
  991MOL0     H33723   5.778   3.309   8.412  4.5783 -2.3505 -1.4819
  991MOL0     H33724   5.688   3.405   8.175  2.5596  0.0968  0.1698
  991MOL0     H33725   5.637   3.249   8.138 -0.4563  0.2917  1.0455
  991MOL0     H33726   5.870   3.166   8.102  1.8715 -0.2462 -1.7035
  991MOL0     H33727   5.824   3.305   7.995 -0.2649  3.5100  1.0523
  991MOL0     H33728   5.960   3.468   8.134 -0.3458 -1.0075 -2.4184
  991MOL0     H33729   5.999   3.338   8.241  1.0764  0.3463  0.6057
  991MOL0     H33730   6.109   3.214   8.091  0.0220 -0.8385 -1.6362
  991MOL0     H33731   6.077   3.323   7.948  1.2960 -4.4470 -1.3632
  991MOL0     H33732   6.198   3.417   8.214  0.5653 -0.3289 -0.0132
  991MOL0     H33733   6.222   3.499   8.060  0.8771  0.1075  0.7715
  991MOL0     H33734   6.356   3.321   7.996 -1.4039  0.3784 -0.4924
  991MOL0     H33735   6.427   3.409   8.139  2.4567 -3.0086  0.3649
  991MOL0     H33736   6.356   3.296   8.385 -0.8684 -0.1124 -0.2785
  991MOL0     H33737   6.298   3.102   8.552  1.0117  2.6176 -1.3205
  991MOL0     H33738   6.280   2.940   8.495  2.0158 -0.9023  0.3648
  991MOL0     H33739   6.551   3.075   8.533  0.1676  1.0382 -2.7265
  991MOL0     H33740   6.482   2.958   8.650 -0.0041 -2.1875  0.2479
  991MOL0     H33741   6.563   2.883   8.361  0.9487 -1.3281  0.0312
  991MOL0     H33742   6.491   2.775   8.474 -0.5231  0.4322  0.3551
  991MOL0     H33743   6.716   2.733   8.487 -0.9564  0.2887 -0.9954
  991MOL0     H33744   6.685   2.843   8.628 -2.9438  0.5767  0.7253
  991MOL0     H33745   6.980   3.099   8.392  1.6962  3.7623  3.2568
  991MOL0     H33746   7.219   3.093   8.459  0.2175  1.2675  1.4073
  991MOL0     H33747   7.501   3.143   8.798 -1.3727 -0.1570 -0.7274
  991MOL0     H33748   7.738   3.137   8.875  0.9110 -0.4389 -0.6875
  991MOL0     H33749   7.981   3.195   8.835 -0.9391  0.0792 -0.6412
  991MOL0     H33750   7.926   3.044   8.926  1.9818 -1.7295  0.3069
  991MOL0     H33751   8.184   3.069   8.774 -1.2540  1.2019 -0.1402
  991MOL0     H33752   8.160   3.100   8.947  0.0510 -0.3320  0.4681
  991MOL0     H33753   8.215   2.880   8.970  0.7237 -0.6029 -0.5366
  991MOL0     H33754   8.042   2.856   8.953 -3.3898  2.4640 -2.6332
  991MOL0     H33755   8.247   2.825   8.718  1.4894 -0.0553  0.9527
  991MOL0     H33756   8.071   2.799   8.706  0.7269 -1.5147 -0.6591
  991MOL0     H33757   8.111   2.629   8.897  2.6685  1.1172  2.3099
  991MOL0     H33758   8.280   2.632   8.845 -0.6133  0.5659  1.3050
  991MOL0     H33759   8.038   2.584   8.665  1.3686  1.7422  0.5622
  991MOL0     H33760   8.214   2.565   8.620  0.0167 -0.8041 -0.2615
  991MOL0     H33761   8.079   2.399   8.844  0.5751 -0.9105  0.8576
  991MOL0     H33762   8.250   2.395   8.779  0.4347 -1.7245 -3.0241
  991MOL0     H33763   7.997   2.355   8.624 -0.5625 -0.0123  1.0786
  991MOL0     H33764   8.172   2.331   8.570 -2.9784  1.5493 -2.6723
  991MOL0     H33765   7.849   2.926   8.511  1.7280 -0.2600  2.5173
  991MOL0     H33766   7.611   2.931   8.437 -3.1134  1.2874 -0.2199
  991MOL0     H33767   7.139   2.792   8.743  0.9970  0.4609 -0.1599
  991MOL0     H33768   6.912   2.778   8.685 -2.3285  2.8353 -0.0988
  991MOL0     H33769   5.338   3.141   8.541  1.5610  0.1932  0.2403
  991MOL0     H33770   5.110   3.118   8.519  1.2846 -2.1628 -1.0101
  991MOL0     H33771   4.782   3.103   8.235 -1.6252 -2.1111 -1.4937
  991MOL0     H33772   4.538   3.072   8.179  1.4254 -1.2169  0.3078
  991MOL0     H33773   4.355   3.276   8.189  1.6405 -1.4369 -0.3821
  991MOL0     H33774   4.187   3.216   8.223 -0.8748 -2.1527 -3.1513
  991MOL0     H33775   4.256   2.997   8.093 -1.9779 -0.1510 -0.2698
  991MOL0     H33776   4.395   3.088   8.045 -0.8478 -1.3603 -1.7003
  991MOL0     H33777   4.237   3.273   7.952 -4.0054  0.0826 -2.1518
  991MOL0     H33778   4.115   3.209   8.049 -0.9099 -3.0843  0.1149
  991MOL0     H33779   4.214   3.070   7.793 -0.1621  0.4496  0.1098
  991MOL0     H33780   4.086   3.014   7.900  2.6194 -1.2757  0.1490
  991MOL0     H33781   3.893   3.341   7.703 -0.1671  1.0463  0.4934
  991MOL0     H33782   4.441   3.179   8.575  1.5540 -2.3933  0.5707
  991MOL0     H33783   4.756   3.171   8.723 -0.0754 -0.6255 -0.5538
  991MOL0     H33784   4.700   3.334   8.672 -3.3908  1.7310  4.8463
  991MOL0     H33785   4.583   3.238   8.740 -0.1447  2.6096  0.7610
  992MOL0     O33786   5.038   2.457   6.066 -0.3418  0.1977 -0.0985
  992MOL0     C33787   4.969   2.367   6.018  0.4493 -0.5629 -0.0174
  992MOL0     O33788   4.977   2.322   5.886 -0.5147  0.4043  0.0704
  992MOL0     C33789   5.072   2.366   5.805 -0.2645  0.1353  0.6574
  992MOL0     C33790   5.208   2.329   5.825 -0.8277 -1.1251 -0.6521
  992MOL0     C33791   5.305   2.391   5.745 -0.1143  0.1034 -0.7250
  992MOL0     C33792   5.268   2.452   5.632  0.2745 -0.6265  0.2144
  992MOL0     O33793   5.365   2.513   5.560 -0.6218 -0.0599 -0.6511
  992MOL0     C33794   5.358   2.660   5.556  0.0593 -0.4293 -0.1920
  992MOL0     C33795   5.332   2.704   5.409 -0.0398 -0.1503 -0.6576
  992MOL0     C33796   5.333   2.859   5.382  0.5063 -0.4248  0.1485
  992MOL0     C33797   5.312   2.899   5.226 -0.6938 -0.1075 -0.2047
  992MOL0     C33798   5.170   2.861   5.168  0.5117  0.2334 -0.5103
  992MOL0     C33799   5.044   2.920   5.238 -0.0312 -0.0318  0.0277
  992MOL0     C33800   4.916   2.880   5.150 -0.2066  0.2351 -0.4367
  992MOL0     C33801   4.845   2.744   5.185  0.2451  1.0729  0.3195
  992MOL0     N33802   4.826   2.720   5.332 -0.0861 -0.0713 -0.0103
  992MOL0     C33803   4.726   2.786   5.400  0.1256  0.4000 -0.6998
  992MOL0     C33804   4.738   2.734   5.525 -0.1515  0.1772 -0.5406
  992MOL0     C33805   4.655   2.781   5.642 -0.0018  0.8702 -0.1368
  992MOL0     C33806   4.747   2.843   5.745  0.2591 -1.0003 -0.5817
  992MOL0     C33807   4.659   2.922   5.843  0.7246 -0.2562  0.1908
  992MOL0     C33808   4.764   2.983   5.944 -0.1772 -0.1842  0.3078
  992MOL0     O33809   4.866   2.888   5.997  0.4721 -0.6582 -0.0985
  992MOL0     C33810   4.992   2.874   5.956  0.5740  0.6568  0.3380
  992MOL0     C33811   5.034   2.746   5.937 -0.3633 -1.0848  0.7324
  992MOL0     C33812   5.181   2.723   5.922 -0.5486 -0.5688  0.2770
  992MOL0     C33813   5.279   2.831   5.929  0.6068 -0.3883  0.6487
  992MOL0     C33814   5.427   2.809   5.905 -0.5679 -0.4463  1.0328
  992MOL0     O33815   5.482   2.693   5.926  0.1525 -0.7167  0.0067
  992MOL0     C33816   5.613   2.665   5.895 -0.3666 -0.0626  0.1909
  992MOL0     C33817   5.672   2.716   5.775 -0.0669 -0.4799  0.4802
  992MOL0     C33818   5.806   2.709   5.771 -0.5518 -0.0608  0.3173
  992MOL0     C33819   5.882   2.633   5.856 -0.3022  1.3092  0.6268
  992MOL0     O33820   6.015   2.618   5.849  0.4719  0.0402  0.1847
  992MOL0     C33821   6.082   2.665   5.730  0.3393 -0.3517  0.4791
  992MOL0     C33822   6.225   2.625   5.768  0.1849  0.0074 -0.5542
  992MOL0     C33823   6.323   2.675   5.672  0.0955  0.1259 -0.6730
  992MOL0     C33824   6.446   2.580   5.679 -0.3531 -0.3234 -0.2191
  992MOL0     C33825   6.569   2.636   5.595  0.8863  0.3081  0.6069
  992MOL0     C33826   6.564   2.624   5.442  0.0584 -0.6171  1.3337
  992MOL0     C33827   6.618   2.484   5.414 -0.1697  0.0952  0.8170
  992MOL0     C33828   6.605   2.453   5.260 -0.5439  0.4106 -0.0752
  992MOL0    Cl33829   6.435   2.432   5.210  0.1949 -0.3910  0.0668
  992MOL0     C33830   5.824   2.565   5.964  0.5215  0.5904  1.1360
  992MOL0     C33831   5.686   2.584   5.983  0.2790  0.4247  0.4792
  992MOL0     O33832   5.491   2.911   5.875  0.0443  0.1392 -0.8599
  992MOL0     C33833   5.226   2.958   5.942 -0.2354  0.3215  0.1700
  992MOL0     C33834   5.088   2.973   5.963 -0.3640  0.2299 -0.9005
  992MOL0     N33835   4.837   2.638   5.529 -0.6145  0.6217  0.3668
  992MOL0     N33836   4.894   2.643   5.413 -0.5362  0.4864 -0.2467
  992MOL0     C33837   5.135   2.465   5.594 -0.1193  0.3610  0.0973
  992MOL0     C33838   5.038   2.428   5.687 -0.5584 -0.0704 -0.4803
  992MOL0     C33839   4.870   2.311   6.112  0.8542  0.0904  0.6289
  992MOL0     C33840   4.783   2.400   6.181  0.1374  0.1054 -0.2606
  992MOL0     C33841   4.684   2.338   6.269  0.1379 -0.8220  0.5301
  992MOL0     C33842   4.670   2.203   6.281 -0.1099 -0.0827  0.3037
  992MOL0     O33843   4.587   2.153   6.378 -0.2870  0.2203  0.8130
  992MOL0     C33844   4.593   2.017   6.412  0.2204  0.6092 -0.8467
  992MOL0     C33845   4.485   1.940   6.335  0.3966 -0.6786 -0.1595
  992MOL0     C33846   4.466   1.802   6.395 -0.9941  0.4763  1.0046
  992MOL0     C33847   4.459   1.782   6.548  0.1883  0.0157 -0.6449
  992MOL0     C33848   4.330   1.813   6.606 -1.0113 -0.7697 -0.4130
  992MOL0     C33849   4.225   1.839   6.659  0.3576  0.4812 -0.3470
  992MOL0     C33850   4.746   2.124   6.195  0.0705 -0.5548 -0.1900
  992MOL0     C33851   4.841   2.177   6.102 -0.6735 -0.4731  0.3583
  992MOL0     C33852   4.905   2.073   6.012 -0.2136 -0.1986  0.1095
  992MOL0     H33853   5.240   2.261   5.903 -0.3069  1.7709  1.8212
  992MOL0     H33854   5.411   2.379   5.765 -0.4679  1.3503  2.4405
  992MOL0     H33855   5.276   2.700   5.616 -0.6598 -2.3582  0.2009
  992MOL0     H33856   5.456   2.701   5.582 -0.9274  0.5807  2.2841
  992MOL0     H33857   5.232   2.666   5.382 -1.0093 -0.0619  2.4367
  992MOL0     H33858   5.415   2.654   5.359  0.8791 -0.9732  1.5879
  992MOL0     H33859   5.428   2.907   5.407 -0.1572  2.5320 -2.3180
  992MOL0     H33860   5.252   2.904   5.440 -0.9455 -2.6869  0.0027
  992MOL0     H33861   5.319   3.008   5.224 -3.4798  0.1486 -1.0134
  992MOL0     H33862   5.395   2.861   5.167 -0.9247 -0.9284 -0.0154
  992MOL0     H33863   5.166   2.893   5.064 -1.2437 -0.2840 -0.6419
  992MOL0     H33864   5.160   2.752   5.171  2.5752 -0.0527 -2.0888
  992MOL0     H33865   5.029   2.865   5.332  0.2170 -1.7416 -0.8830
  992MOL0     H33866   5.050   3.028   5.253 -2.5176  0.0429  0.9014
  992MOL0     H33867   4.965   2.867   5.054  3.8328 -0.1224  1.4621
  992MOL0     H33868   4.841   2.959   5.160  0.5714  1.0815 -1.1985
  992MOL0     H33869   4.752   2.730   5.129 -1.4813  1.9438  2.7881
  992MOL0     H33870   4.916   2.667   5.152 -0.3201  0.1402  1.2149
  992MOL0     H33871   4.664   2.869   5.369  0.0029  1.1876  1.5396
  992MOL0     H33872   4.585   2.858   5.610  3.6643  4.5248 -0.1217
  992MOL0     H33873   4.598   2.696   5.683  3.6933 -0.3623  3.0888
  992MOL0     H33874   4.810   2.769   5.796 -1.3026 -1.7968  0.2791
  992MOL0     H33875   4.811   2.916   5.694  2.1955 -2.1468  0.1139
  992MOL0     H33876   4.597   2.855   5.903  1.0414 -0.9485 -0.2454
  992MOL0     H33877   4.596   3.000   5.800 -0.5436 -0.3370  1.8000
  992MOL0     H33878   4.699   3.017   6.024 -1.8545  1.4627 -1.6514
  992MOL0     H33879   4.817   3.070   5.904 -1.5901  0.0381 -1.1756
  992MOL0     H33880   4.960   2.667   5.932  0.9327 -2.7065  3.7055
  992MOL0     H33881   5.215   2.624   5.894 -0.3903 -0.3514 -0.3176
  992MOL0     H33882   5.617   2.772   5.700  1.5990 -0.9382 -1.1553
  992MOL0     H33883   5.852   2.768   5.692  0.6909 -1.6484 -0.2004
  992MOL0     H33884   6.049   2.612   5.640  2.8447 -1.5503  0.1973
  992MOL0     H33885   6.076   2.774   5.715 -1.3962 -0.6937 -1.8206
  992MOL0     H33886   6.227   2.671   5.867 -1.1406 -2.2661  0.6091
  992MOL0     H33887   6.238   2.516   5.774  2.2044  0.2604  0.7078
  992MOL0     H33888   6.282   2.675   5.570  0.8542  0.4937 -0.9895
  992MOL0     H33889   6.342   2.781   5.690  1.5414 -0.3193  0.5699
  992MOL0     H33890   6.421   2.483   5.634  1.3345 -2.6699  3.4925
  992MOL0     H33891   6.482   2.558   5.780 -0.2347 -2.8351 -0.7302
  992MOL0     H33892   6.654   2.579   5.634 -0.6222 -1.4034  1.5475
  992MOL0     H33893   6.577   2.741   5.624  0.7092  0.3338  0.5625
  992MOL0     H33894   6.460   2.634   5.410  0.3304 -0.4570  0.4824
  992MOL0     H33895   6.627   2.702   5.399 -0.4623 -1.1779 -0.5142
  992MOL0     H33896   6.565   2.414   5.479 -1.3839  0.1966 -0.0173
  992MOL0     H33897   6.720   2.492   5.450  0.0946  1.0454 -0.0938
  992MOL0     H33898   6.651   2.523   5.189 -0.9467 -1.6071 -2.4762
  992MOL0     H33899   6.651   2.354   5.248  1.8783  1.6402 -1.9032
  992MOL0     H33900   5.875   2.488   6.020 -0.1634 -0.0528  0.8956
  992MOL0     H33901   5.649   2.521   6.063  2.5589  0.4091  1.5825
  992MOL0     H33902   5.285   3.048   5.931 -3.6348  2.7643  0.1932
  992MOL0     H33903   5.051   3.071   5.991  0.7993  0.2086  0.8562
  992MOL0     H33904   5.106   2.513   5.501  1.8567  1.2967 -0.0959
  992MOL0     H33905   4.934   2.446   5.660 -0.6601 -2.1848 -1.7695
  992MOL0     H33906   4.810   2.504   6.197  2.1756 -0.3526 -0.4593
  992MOL0     H33907   4.638   2.413   6.332 -0.5589 -0.4087 -0.4449
  992MOL0     H33908   4.570   2.011   6.519 -2.9928  2.0538 -1.3635
  992MOL0     H33909   4.692   1.971   6.404  1.1970  2.3962  0.2336
  992MOL0     H33910   4.506   1.929   6.228  0.4470 -1.8589 -0.0350
  992MOL0     H33911   4.387   1.989   6.343  0.8877  0.0176  2.2327
  992MOL0     H33912   4.551   1.748   6.351 -0.0714  3.2490 -0.8943
  992MOL0     H33913   4.371   1.765   6.357 -1.6306  1.7303  1.3330
  992MOL0     H33914   4.458   1.676   6.577 -0.4327  0.7201  2.1535
  992MOL0     H33915   4.539   1.834   6.601  0.7442  0.5876 -2.0058
  992MOL0     H33916   4.127   1.851   6.701  0.0735 -0.5197 -0.6892
  992MOL0     H33917   4.735   2.016   6.186 -1.9400 -0.2324 -4.0439
  992MOL0     H33918   4.887   1.973   6.053 -0.2627 -1.1371 -2.0475
  992MOL0     H33919   4.869   2.080   5.909  1.3034 -1.6385 -0.5576
  992MOL0     H33920   5.013   2.084   6.006  0.1366 -0.2259  3.9523
  993MOL0     O33921   9.864  10.494  11.068  0.1937  0.0894  0.0361
  993MOL0     C33922   9.758  10.546  11.031  0.1193  0.1263  0.4139
  993MOL0     O33923   9.710  10.666  11.079  0.0581  0.0633  0.3098
  993MOL0     C33924   9.794  10.749  11.142 -1.0259  0.2216 -0.3998
  993MOL0     C33925   9.749  10.829  11.247 -0.1299 -0.7614 -0.2334
  993MOL0     C33926   9.841  10.919  11.307 -0.2244 -0.8748 -0.0321
  993MOL0     C33927   9.975  10.919  11.273  0.1729 -0.9061  0.1807
  993MOL0     O33928  10.052  11.024  11.317  0.0096  0.1741  0.2457
  993MOL0     C33929  10.135  10.970  11.427  0.3979 -0.3979  1.1147
  993MOL0     C33930  10.161  11.076  11.534  0.5925 -1.0060  0.7683
  993MOL0     C33931  10.083  11.076  11.664  0.2833 -0.6142  0.0963
  993MOL0     C33932   9.933  11.064  11.642 -0.3528 -0.3060 -0.4113
  993MOL0     C33933   9.869  11.034  11.783 -0.0128 -0.7710  0.1989
  993MOL0     C33934   9.716  11.056  11.796  0.0644  0.1844  0.0371
  993MOL0     C33935   9.635  10.932  11.740 -0.5416  0.5792  0.0948
  993MOL0     C33936   9.504  10.994  11.677  0.5406  0.1384 -0.5104
  993MOL0     N33937   9.528  11.068  11.549 -1.0123  0.0890 -0.8941
  993MOL0     C33938   9.537  11.202  11.538 -0.4358  1.1727 -0.3289
  993MOL0     C33939   9.534  11.222  11.401  0.1048  0.0910  0.5172
  993MOL0     C33940   9.599  11.346  11.331  0.5691  0.3250 -0.6562
  993MOL0     C33941   9.670  11.307  11.195 -0.2537  0.4141 -0.9607
  993MOL0     C33942   9.825  11.276  11.225  0.3005  0.4167 -0.2292
  993MOL0     C33943   9.896  11.411  11.245  0.5082 -0.9157  0.4682
  993MOL0     O33944  10.035  11.383  11.257 -0.5383 -0.1215  0.0456
  993MOL0     C33945  10.134  11.466  11.212 -0.0598 -0.4397 -0.2081
  993MOL0     C33946  10.262  11.438  11.251 -0.6596  0.9874 -0.1224
  993MOL0     C33947  10.365  11.524  11.249  0.0733  0.7515 -0.1736
  993MOL0     C33948  10.354  11.649  11.190  0.4347  0.0301 -0.5390
  993MOL0     C33949  10.457  11.745  11.181 -0.6331  0.0098  0.0695
  993MOL0     O33950  10.431  11.860  11.115 -0.6327 -0.1578  0.1173
  993MOL0     C33951  10.525  11.944  11.077 -0.1597 -0.2823  0.2707
  993MOL0     C33952  10.501  12.085  11.077  0.4443 -0.9192  0.1813
  993MOL0     C33953  10.600  12.170  11.032 -0.4970  0.2319  0.8473
  993MOL0     C33954  10.727  12.122  10.987  1.0011  0.6927 -0.0872
  993MOL0     O33955  10.834  12.191  10.950 -0.7699 -0.1485  0.2588
  993MOL0     C33956  10.846  12.326  11.009 -0.2957  0.0376 -0.4495
  993MOL0     C33957  10.988  12.394  10.972  0.4813  0.5997  0.3324
  993MOL0     C33958  10.968  12.547  10.961 -0.5463  0.7184  0.5660
  993MOL0     C33959  10.899  12.609  11.089  0.6636 -0.3812  0.2462
  993MOL0     C33960  10.938  12.753  11.114 -0.3686 -0.2668 -0.8185
  993MOL0     C33961  10.921  12.846  11.000  0.4815  0.7581  0.6556
  993MOL0     C33962  10.775  12.876  10.953  0.3386  0.2629 -0.1381
  993MOL0     C33963  10.778  12.975  10.839  0.8244  0.6773  0.3456
  993MOL0    Cl33964  10.808  12.912  10.678 -0.3035  0.5193 -0.7793
  993MOL0     C33965  10.745  11.987  10.984  0.6307 -0.8588  0.1224
  993MOL0     C33966  10.642  11.902  11.020 -0.3296  0.0478 -0.6745
  993MOL0     O33967  10.563  11.715  11.235  0.0547 -0.1143 -0.0234
  993MOL0     C33968  10.219  11.677  11.141 -0.0644  0.0518  0.3115
  993MOL0     C33969  10.110  11.592  11.156  0.2435  0.3227 -0.7430
  993MOL0     N33970   9.527  11.096  11.341  0.2659 -0.4102  0.4405
  993MOL0     N33971   9.527  11.004  11.429  0.5364  0.1005  0.3068
  993MOL0     C33972  10.023  10.838  11.177  0.0771  0.2595 -0.3015
  993MOL0     C33973   9.933  10.756  11.108  0.0575  0.3080  0.4246
  993MOL0     C33974   9.669  10.470  10.935 -0.2508  0.5068  0.2816
  993MOL0     C33975   9.536  10.508  10.911  0.2912 -0.4199 -0.4660
  993MOL0     C33976   9.440  10.444  10.827 -1.1893 -0.2268  0.6306
  993MOL0     C33977   9.493  10.343  10.748  0.4806 -0.5392  0.0538
  993MOL0     O33978   9.401  10.282  10.661  0.7948 -0.0964 -0.0863
  993MOL0     C33979   9.455  10.212  10.541  1.1215  1.0759  0.2392
  993MOL0     C33980   9.353  10.155  10.435 -0.0539 -0.1864  0.1245
  993MOL0     C33981   9.263  10.053  10.490  0.2847  0.2439 -0.0151
  993MOL0     C33982   9.174   9.994  10.384  0.5810 -0.3185  0.8897
  993MOL0     C33983   9.102   9.870  10.428 -1.1606 -0.3472 -0.4416
  993MOL0     C33984   9.036   9.769  10.456 -0.0662 -0.4742 -0.1438
  993MOL0     C33985   9.628  10.307  10.766  0.3332  0.0883 -0.2532
  993MOL0     C33986   9.715  10.365  10.853  0.1236  0.1597  0.3288
  993MOL0     C33987   9.851  10.299  10.870 -1.1230  0.5855 -0.1469
  993MOL0     H33988   9.644  10.827  11.276  0.3539 -1.2734  1.6203
  993MOL0     H33989   9.803  10.989  11.381 -0.1607 -1.4060  0.5109
  993MOL0     H33990  10.083  10.884  11.469  0.9925 -0.8030  1.0327
  993MOL0     H33991  10.232  10.940  11.387  0.9933  4.2750 -1.6870
  993MOL0     H33992  10.127  11.170  11.488  0.4749 -1.2840  0.2814
  993MOL0     H33993  10.267  11.085  11.559  1.0816 -0.7156 -1.2750
  993MOL0     H33994  10.100  11.174  11.710 -1.7418  0.1555 -0.6517
  993MOL0     H33995  10.117  10.995  11.730 -1.0796 -0.8871  0.5034
  993MOL0     H33996   9.897  11.161  11.605 -0.2078  0.3071  0.9811
  993MOL0     H33997   9.915  10.983  11.572 -2.0854 -1.3148  1.1195
  993MOL0     H33998   9.899  10.936  11.821  2.0710 -0.7244 -1.1387
  993MOL0     H33999   9.907  11.108  11.854 -0.8082 -1.8811  1.8232
  993MOL0     H34000   9.695  11.061  11.903  1.1890  1.3707  0.2250
  993MOL0     H34001   9.679  11.154  11.763 -0.2709  0.2330  0.5566
  993MOL0     H34002   9.616  10.869  11.827 -0.3708  2.8766  1.8985
  993MOL0     H34003   9.702  10.881  11.670 -0.2245 -1.4616  1.8178
  993MOL0     H34004   9.428  10.922  11.646  0.1268  2.1724 -4.9396
  993MOL0     H34005   9.456  11.049  11.759 -1.8014 -0.2265 -1.5800
  993MOL0     H34006   9.549  11.272  11.620 -4.0256  2.6526 -0.9214
  993MOL0     H34007   9.521  11.422  11.316 -1.1235 -0.9777  1.0155
  993MOL0     H34008   9.672  11.385  11.402  1.6072 -4.3168  1.2081
  993MOL0     H34009   9.629  11.218  11.147 -1.8816  0.2107  0.7230
  993MOL0     H34010   9.655  11.391  11.126 -3.1215  0.8845  0.1064
  993MOL0     H34011   9.876  11.221  11.145  1.1601  0.5951  0.1775
  993MOL0     H34012   9.833  11.222  11.320  3.7255  2.2280  0.6936
  993MOL0     H34013   9.868  11.453  11.342  0.8858  1.0181 -0.2209
  993MOL0     H34014   9.854  11.483  11.175 -1.8203 -0.0991  2.5521
  993MOL0     H34015  10.278  11.344  11.302 -0.6080  2.2198  2.2740
  993MOL0     H34016  10.454  11.484  11.296  0.7557  0.1726 -1.8960
  993MOL0     H34017  10.411  12.136  11.112  1.3887  1.0223 -0.0787
  993MOL0     H34018  10.581  12.275  11.048  1.5761  0.6917  0.6382
  993MOL0     H34019  10.754  12.377  10.977  0.2312  0.1999 -1.7834
  993MOL0     H34020  10.835  12.331  11.117  0.8439  0.5302 -0.3419
  993MOL0     H34021  11.055  12.363  11.053  0.5043 -0.4001 -0.0556
  993MOL0     H34022  11.022  12.355  10.875  1.6167  0.7440  0.6550
  993MOL0     H34023  11.071  12.580  10.947  0.6433 -2.2200  1.6976
  993MOL0     H34024  10.909  12.572  10.872  0.7585 -2.6319 -1.4120
  993MOL0     H34025  10.930  12.560  11.182 -2.0003  2.7749  3.0424
  993MOL0     H34026  10.792  12.605  11.068  0.6431 -1.0208  0.4525
  993MOL0     H34027  11.039  12.770  11.153 -0.4926 -1.0938 -0.0969
  993MOL0     H34028  10.870  12.796  11.188  0.5094 -0.0055 -0.1418
  993MOL0     H34029  10.967  12.944  11.015  0.4316  0.8735  0.0996
  993MOL0     H34030  10.964  12.798  10.912 -0.1689  1.8951 -0.3198
  993MOL0     H34031  10.726  12.924  11.039 -1.5042 -4.2938  1.7111
  993MOL0     H34032  10.710  12.789  10.936  1.4331 -1.0437  1.9490
  993MOL0     H34033  10.682  13.028  10.840 -0.0908 -0.8695 -0.8543
  993MOL0     H34034  10.858  13.049  10.854  1.1205  0.5180 -0.3798
  993MOL0     H34035  10.841  11.952  10.946  0.0536 -0.7402 -1.5279
  993MOL0     H34036  10.656  11.796  11.005 -0.2801  0.2430 -2.1694
  993MOL0     H34037  10.190  11.767  11.088 -1.4445  1.3810  3.1141
  993MOL0     H34038  10.010  11.621  11.123 -0.6988 -0.7124  1.0337
  993MOL0     H34039  10.130  10.839  11.155  1.0593  2.1916  3.6847
  993MOL0     H34040   9.970  10.700  11.022  1.1550  0.7358  0.6090
  993MOL0     H34041   9.493  10.590  10.966  0.1323  0.0782 -1.3091
  993MOL0     H34042   9.337  10.473  10.810 -0.6301  0.9980 -0.8676
  993MOL0     H34043   9.517  10.130  10.580 -3.0262 -1.5703  1.9363
  993MOL0     H34044   9.521  10.283  10.489  0.1183  2.9600  1.4279
  993MOL0     H34045   9.414  10.111  10.356  1.4081 -0.6276  1.4517
  993MOL0     H34046   9.297  10.237  10.388 -0.4273 -0.8176 -0.5533
  993MOL0     H34047   9.193  10.090  10.565  0.1775 -3.6030  1.9961
  993MOL0     H34048   9.323   9.972  10.533 -0.8917 -0.7676 -0.2151
  993MOL0     H34049   9.107  10.071  10.346 -0.1752 -1.4967 -0.2640
  993MOL0     H34050   9.228   9.952  10.299  1.1639 -1.0424  1.5924
  993MOL0     H34051   8.968   9.689  10.479 -0.9526  0.5220  0.8249
  993MOL0     H34052   9.669  10.233  10.697 -1.9423 -0.8039 -0.7128
  993MOL0     H34053   9.858  10.211  10.805 -2.5768  0.2018  0.1701
  993MOL0     H34054   9.929  10.368  10.839 -3.0718  2.7163 -0.5745
  993MOL0     H34055   9.871  10.267  10.973  0.5811 -0.1215 -0.6601
  994MOL0     O34056   2.498   8.743   8.515  0.0705  0.4255  0.1602
  994MOL0     C34057   2.540   8.633   8.503 -0.1037 -0.4607  0.6369
  994MOL0     O34058   2.672   8.607   8.479 -0.3396 -0.1186 -0.7243
  994MOL0     C34059   2.765   8.694   8.529 -0.7367 -0.1633  0.2903
  994MOL0     C34060   2.810   8.798   8.440 -0.4445  0.2048 -0.2245
  994MOL0     C34061   2.906   8.894   8.488 -0.5337 -0.6906  0.3415
  994MOL0     C34062   2.973   8.869   8.611  0.3269  0.7740  0.0891
  994MOL0     O34063   3.059   8.951   8.658  0.2422 -1.2276 -0.1218
  994MOL0     C34064   3.169   8.910   8.746  0.3331 -0.8774  0.9591
  994MOL0     C34065   3.275   8.861   8.656  0.2440 -0.2115  0.3642
  994MOL0     C34066   3.348   8.970   8.573  1.1096 -0.5787  0.6329
  994MOL0     C34067   3.474   8.933   8.494  0.4197 -0.1120  0.5829
  994MOL0     C34068   3.502   9.032   8.371  0.1590 -0.1355  0.1235
  994MOL0     C34069   3.588   9.147   8.412  0.1614 -0.6681  0.7465
  994MOL0     C34070   3.605   9.260   8.304 -0.1169 -0.0050 -0.1044
  994MOL0     C34071   3.472   9.335   8.263 -1.7410  0.3312  0.6832
  994MOL0     N34072   3.494   9.456   8.182  0.0960 -0.1649  1.1474
  994MOL0     C34073   3.609   9.545   8.200 -0.0630 -0.7487 -0.0520
  994MOL0     C34074   3.589   9.632   8.095  0.1575  0.0604  0.4569
  994MOL0     C34075   3.690   9.735   8.050  0.1698  0.6107  0.1834
  994MOL0     C34076   3.798   9.678   7.957 -0.7243 -0.8971 -0.0112
  994MOL0     C34077   3.892   9.784   7.919 -0.6960 -0.1434 -0.4187
  994MOL0     C34078   3.981   9.738   7.811 -0.0450 -0.2252 -0.1587
  994MOL0     O34079   4.059   9.631   7.859  0.1371  0.0592  0.3643
  994MOL0     C34080   4.170   9.609   7.786 -0.0443  0.2440 -0.2880
  994MOL0     C34081   4.234   9.492   7.830 -0.5639  0.6892  0.9756
  994MOL0     C34082   4.358   9.451   7.770 -0.7016  0.1990  0.2263
  994MOL0     C34083   4.419   9.540   7.667  0.8813  0.9709  0.3271
  994MOL0     C34084   4.542   9.504   7.611 -0.7764 -0.6929 -0.1589
  994MOL0     O34085   4.592   9.379   7.616 -0.4988  0.1222 -0.1215
  994MOL0     C34086   4.725   9.359   7.658 -0.2985  0.5098  0.0008
  994MOL0     C34087   4.829   9.351   7.567  0.1078 -0.3906  0.7016
  994MOL0     C34088   4.947   9.296   7.606  0.8477  0.5243 -0.4043
  994MOL0     C34089   4.960   9.246   7.735 -0.1756  0.0574  0.5865
  994MOL0     O34090   5.079   9.177   7.760 -0.6545 -0.1939  0.3589
  994MOL0     C34091   5.211   9.245   7.737 -0.5703 -0.0871 -0.4258
  994MOL0     C34092   5.324   9.192   7.824  0.7475 -0.0752 -0.3077
  994MOL0     C34093   5.331   9.263   7.958 -0.6134  0.5362  0.0215
  994MOL0     C34094   5.464   9.239   8.019 -0.5897  0.4018 -0.0122
  994MOL0     C34095   5.578   9.331   7.975  0.0061  0.5908 -0.2014
  994MOL0     C34096   5.713   9.302   8.021 -0.9695 -0.4042 -0.5001
  994MOL0     C34097   5.804   9.427   8.003  0.2432 -0.0742  0.4682
  994MOL0     C34098   5.942   9.392   7.948  0.2085  0.5681 -0.0284
  994MOL0    Cl34099   6.047   9.536   7.919  0.6275 -0.0545  0.2536
  994MOL0     C34100   4.856   9.244   7.831 -0.2153 -0.9668  0.4975
  994MOL0     C34101   4.743   9.303   7.786 -0.1948 -0.2804 -0.7407
  994MOL0     O34102   4.605   9.598   7.553  0.0245 -0.0760 -0.1416
  994MOL0     C34103   4.362   9.660   7.640  0.2083 -0.6900 -0.3242
  994MOL0     C34104   4.244   9.692   7.702  0.2512  0.0036  0.3773
  994MOL0     N34105   3.473   9.606   8.026 -0.4389  0.0919  0.6831
  994MOL0     N34106   3.424   9.493   8.067  0.0499 -0.4662 -0.0158
  994MOL0     C34107   2.922   8.767   8.699 -1.0047 -1.0842 -0.0410
  994MOL0     C34108   2.818   8.684   8.658  0.1852 -0.8182  0.1087
  994MOL0     C34109   2.440   8.528   8.486 -0.3421 -0.1993 -0.6628
  994MOL0     C34110   2.489   8.410   8.420  0.6608 -0.7204 -0.9591
  994MOL0     C34111   2.396   8.306   8.387  0.1811  0.5240  0.2557
  994MOL0     C34112   2.264   8.309   8.428  0.0215  0.5083  0.9588
  994MOL0     O34113   2.179   8.205   8.400  0.6522 -0.0615  0.7507
  994MOL0     C34114   2.242   8.072   8.393  0.2528 -0.5197  0.4874
  994MOL0     C34115   2.134   7.976   8.343  0.2724  0.7921  0.4994
  994MOL0     C34116   2.007   7.968   8.438 -1.2469  0.8338 -0.4554
  994MOL0     C34117   1.905   7.871   8.381  0.2103  0.2807 -0.1483
  994MOL0     C34118   1.835   7.933   8.265  0.7492 -1.1532  0.2887
  994MOL0     C34119   1.773   7.989   8.182 -0.8232 -0.3341 -0.3637
  994MOL0     C34120   2.208   8.421   8.495  0.2162  1.1729 -0.1379
  994MOL0     C34121   2.296   8.531   8.525 -0.2757  0.2662  0.1918
  994MOL0     C34122   2.237   8.643   8.599  0.4565  0.8250  0.4430
  994MOL0     H34123   2.758   8.813   8.346 -0.1724 -1.4313 -0.6680
  994MOL0     H34124   2.949   8.974   8.429  2.4105 -1.5529  1.1400
  994MOL0     H34125   3.204   9.000   8.797 -0.0695 -0.3663  0.3575
  994MOL0     H34126   3.143   8.829   8.814 -1.2826 -1.8241 -0.7084
  994MOL0     H34127   3.239   8.780   8.591  0.9211 -2.1223  2.2326
  994MOL0     H34128   3.345   8.812   8.725 -0.9281 -1.7103  0.5575
  994MOL0     H34129   3.384   9.050   8.638 -1.1396  1.0766 -0.0175
  994MOL0     H34130   3.271   9.015   8.509  0.0120 -3.0099  0.1408
  994MOL0     H34131   3.562   8.919   8.557 -0.1894 -2.4865  1.0225
  994MOL0     H34132   3.462   8.839   8.439  0.5464  0.7849 -1.0440
  994MOL0     H34133   3.556   8.978   8.293  2.7295  1.8817  0.3720
  994MOL0     H34134   3.410   9.072   8.328  0.0245 -1.4055 -0.8170
  994MOL0     H34135   3.565   9.201   8.504  2.3168  1.2803  0.2471
  994MOL0     H34136   3.690   9.111   8.424  0.0369 -1.0910  0.5364
  994MOL0     H34137   3.649   9.206   8.219 -2.2544  2.1878 -2.7994
  994MOL0     H34138   3.668   9.345   8.330 -1.0561  2.1232 -4.0814
  994MOL0     H34139   3.412   9.267   8.201 -1.6253  0.7397  0.1190
  994MOL0     H34140   3.432   9.355   8.363  0.2673  1.5828  1.2765
  994MOL0     H34141   3.692   9.551   8.269  0.1471 -2.3312 -0.1157
  994MOL0     H34142   3.646   9.821   7.998 -0.1342 -1.1476 -2.6621
  994MOL0     H34143   3.749   9.775   8.134  2.4327  0.7671 -1.3808
  994MOL0     H34144   3.851   9.607   8.022 -0.5569 -0.3608  0.4406
  994MOL0     H34145   3.740   9.639   7.873 -5.2569 -0.0844  2.4271
  994MOL0     H34146   3.952   9.816   8.004 -1.5615  1.5329 -0.3954
  994MOL0     H34147   3.831   9.869   7.885 -0.6415  0.3869  0.7747
  994MOL0     H34148   4.038   9.828   7.785  0.0252  0.6541  2.7098
  994MOL0     H34149   3.923   9.712   7.721 -0.4574  0.1226  0.0027
  994MOL0     H34150   4.186   9.438   7.912  1.9375  0.0852  2.1668
  994MOL0     H34151   4.405   9.360   7.806 -1.6997 -0.6791 -0.6041
  994MOL0     H34152   4.816   9.384   7.465 -0.3413 -0.9066  0.5833
  994MOL0     H34153   5.036   9.302   7.543  1.2581  2.8820  0.2732
  994MOL0     H34154   5.251   9.229   7.636  1.8988 -0.6730  0.5705
  994MOL0     H34155   5.203   9.353   7.747  0.0252 -0.1671  1.2571
  994MOL0     H34156   5.311   9.084   7.834 -1.0276 -0.1034 -2.1228
  994MOL0     H34157   5.412   9.218   7.765 -0.0822 -0.4625 -1.7685
  994MOL0     H34158   5.306   9.370   7.951  0.7468  0.7670 -2.7573
  994MOL0     H34159   5.255   9.218   8.022  2.1254 -1.8686  1.8076
  994MOL0     H34160   5.496   9.135   8.003 -3.0551 -0.1983 -1.5768
  994MOL0     H34161   5.457   9.244   8.128  1.7946 -4.1826  0.6255
  994MOL0     H34162   5.558   9.434   8.006  2.5176  2.3022 -3.7276
  994MOL0     H34163   5.598   9.339   7.868  2.3094  1.5648  0.2457
  994MOL0     H34164   5.715   9.275   8.127  4.2159 -1.3434 -0.5592
  994MOL0     H34165   5.759   9.223   7.961  0.6384  1.6781 -2.1571
  994MOL0     H34166   5.828   9.463   8.103  2.4638  0.3867 -0.1687
  994MOL0     H34167   5.752   9.503   7.943 -0.6472 -1.4940 -0.6143
  994MOL0     H34168   5.981   9.317   8.018 -2.3756  0.2363  1.1770
  994MOL0     H34169   5.935   9.347   7.848 -2.0373 -0.9386  0.7207
  994MOL0     H34170   4.865   9.208   7.933  2.7715 -0.3888  0.5164
  994MOL0     H34171   4.661   9.313   7.856  1.4913  0.2452  1.2688
  994MOL0     H34172   4.396   9.745   7.581  0.5601  1.6418  2.9497
  994MOL0     H34173   4.204   9.784   7.661  0.8268 -0.9360 -2.4859
  994MOL0     H34174   2.957   8.767   8.802  0.3839  3.0674 -0.3336
  994MOL0     H34175   2.763   8.608   8.713 -0.4896 -1.6902 -1.6949
  994MOL0     H34176   2.589   8.399   8.378  0.6038 -1.5507 -0.9047
  994MOL0     H34177   2.440   8.221   8.336  0.5525  0.9989 -0.2191
  994MOL0     H34178   2.279   8.043   8.492  1.6557  1.7710  0.7021
  994MOL0     H34179   2.318   8.066   8.315  0.3134 -3.7636  0.6436
  994MOL0     H34180   2.181   7.877   8.337  1.1926  1.1863  0.9811
  994MOL0     H34181   2.104   8.003   8.241  3.1457  0.7764 -0.4505
  994MOL0     H34182   1.963   8.068   8.438 -2.2707  0.4203 -1.9949
  994MOL0     H34183   2.028   7.929   8.538 -4.4349  2.2027  0.8809
  994MOL0     H34184   1.940   7.769   8.360 -2.6262 -1.5922  3.1811
  994MOL0     H34185   1.834   7.843   8.459  1.7784 -2.2662  0.5121
  994MOL0     H34186   1.710   8.049   8.121  2.0470  2.9017 -0.4676
  994MOL0     H34187   2.099   8.424   8.504 -0.1569  1.9330 -3.5347
  994MOL0     H34188   2.313   8.676   8.670  2.2075 -0.6334 -0.6679
  994MOL0     H34189   2.214   8.730   8.536  0.3130  0.4143 -0.0737
  994MOL0     H34190   2.142   8.606   8.640  1.1897 -0.1487  1.3126
  995MOL0     O34191   1.827   6.719   1.304 -0.1831  1.0079 -0.0926
  995MOL0     C34192   1.815   6.621   1.230  0.5066 -0.4483  0.3700
  995MOL0     O34193   1.896   6.602   1.125 -0.1304 -0.1522 -0.4189
  995MOL0     C34194   1.998   6.689   1.097  0.6935  0.5508 -0.9100
  995MOL0     C34195   2.019   6.698   0.957  0.6888  0.4115 -0.1493
  995MOL0     C34196   2.122   6.775   0.906  0.5833  0.4683 -0.3951
  995MOL0     C34197   2.206   6.846   0.988 -0.2310 -0.4224  0.1573
  995MOL0     O34198   2.303   6.921   0.933  0.8042  0.0860  0.1078
  995MOL0     C34199   2.256   7.048   0.881  0.1405 -0.0798 -0.1945
  995MOL0     C34200   2.370   7.145   0.921  0.0645 -1.5758  0.8571
  995MOL0     C34201   2.503   7.113   0.843 -0.1827 -0.0320 -0.9274
  995MOL0     C34202   2.594   7.236   0.868  0.1909  0.3037  0.2767
  995MOL0     C34203   2.725   7.203   0.792 -0.0667  0.2344 -0.8661
  995MOL0     C34204   2.815   7.326   0.757 -0.1623  0.6285  0.5155
  995MOL0     C34205   2.904   7.291   0.631  0.2193 -0.3293  0.2881
  995MOL0     C34206   3.021   7.386   0.590 -0.9310 -0.0931  0.7079
  995MOL0     N34207   3.145   7.378   0.672 -0.6083 -0.9711  0.1668
  995MOL0     C34208   3.161   7.429   0.792 -0.1373 -0.4472 -0.8348
  995MOL0     C34209   3.276   7.384   0.838  0.2811  0.3367 -0.3991
  995MOL0     C34210   3.317   7.394   0.986 -0.0312  0.1349  0.6991
  995MOL0     C34211   3.400   7.516   1.012  0.8658 -0.3861 -0.4180
  995MOL0     C34212   3.432   7.511   1.154 -1.2617  0.3802  0.1181
  995MOL0     C34213   3.558   7.603   1.187 -0.1790 -0.2518 -0.2942
  995MOL0     O34214   3.568   7.630   1.328  0.1390 -1.2017  1.3860
  995MOL0     C34215   3.626   7.743   1.377 -0.8018  0.5100  0.1540
  995MOL0     C34216   3.613   7.755   1.516  0.2852  0.0114  1.2339
  995MOL0     C34217   3.663   7.864   1.586  0.7884  0.0733 -0.5212
  995MOL0     C34218   3.710   7.979   1.521 -0.4611  0.2097 -0.1915
  995MOL0     C34219   3.745   8.102   1.587 -0.0359 -0.9045  0.5424
  995MOL0     O34220   3.758   8.102   1.719 -0.0592  0.1747 -0.0144
  995MOL0     C34221   3.774   8.225   1.781 -0.1186  0.7497  0.5820
  995MOL0     C34222   3.890   8.255   1.856  0.6535  0.5627  0.0500
  995MOL0     C34223   3.918   8.392   1.888  0.3027  0.4285  0.6808
  995MOL0     C34224   3.817   8.490   1.877  0.3174 -0.6462 -1.4199
  995MOL0     O34225   3.830   8.617   1.932  0.5951  1.0785 -0.4655
  995MOL0     C34226   3.970   8.664   1.952  0.1898  0.2912  0.0995
  995MOL0     C34227   4.034   8.682   1.812 -0.0487 -0.3569 -0.7821
  995MOL0     C34228   4.170   8.747   1.829  0.0576  0.4584  0.1421
  995MOL0     C34229   4.222   8.774   1.685 -0.1666 -0.0336 -0.4116
  995MOL0     C34230   4.375   8.794   1.680  0.4979 -0.2342 -1.2792
  995MOL0     C34231   4.413   8.938   1.708 -0.1348 -1.0661  0.4966
  995MOL0     C34232   4.560   8.965   1.682  0.1724  0.2733 -0.9740
  995MOL0     C34233   4.598   9.100   1.732  0.1005  0.3005  0.4190
  995MOL0    Cl34234   4.521   9.227   1.635  0.1138  0.5372 -0.6762
  995MOL0     C34235   3.705   8.453   1.814 -0.0692 -0.2835 -0.4728
  995MOL0     C34236   3.684   8.330   1.759 -0.0453  0.5684 -0.3027
  995MOL0     O34237   3.764   8.199   1.508 -0.2006 -0.1546 -0.3508
  995MOL0     C34238   3.715   7.973   1.377  0.1721  0.3271  0.3039
  995MOL0     C34239   3.687   7.855   1.306  0.0061  0.1426  0.3617
  995MOL0     N34240   3.336   7.317   0.736 -0.2261  0.0034 -0.0633
  995MOL0     N34241   3.254   7.302   0.643 -0.4786 -0.0381 -0.4780
  995MOL0     C34242   2.187   6.852   1.123  0.2558  0.3633 -0.0986
  995MOL0     C34243   2.083   6.765   1.183  0.2599 -0.3151 -0.0879
  995MOL0     C34244   1.700   6.520   1.258 -0.8912  0.4256 -0.6026
  995MOL0     C34245   1.708   6.403   1.176  0.1461 -0.9560 -0.2925
  995MOL0     C34246   1.629   6.296   1.205  0.0109 -0.1709  0.4082
  995MOL0     C34247   1.526   6.307   1.300  0.4603  1.3779 -0.1876
  995MOL0     O34248   1.441   6.202   1.310 -0.1261  0.0620 -0.1251
  995MOL0     C34249   1.304   6.226   1.345 -0.6829  0.3300 -0.9823
  995MOL0     C34250   1.242   6.322   1.243  0.3641  0.1612 -0.3621
  995MOL0     C34251   1.094   6.333   1.270  0.4991 -0.1053 -0.1559
  995MOL0     C34252   1.021   6.429   1.173 -0.0043  0.3481 -0.0729
  995MOL0     C34253   0.997   6.353   1.050 -0.0534  0.3024 -0.5353
  995MOL0     C34254   0.949   6.299   0.952 -0.0590 -0.0108 -0.8151
  995MOL0     C34255   1.529   6.417   1.377  0.2074  0.2504 -0.1758
  995MOL0     C34256   1.603   6.530   1.356  0.7383  0.4458 -0.3496
  995MOL0     C34257   1.581   6.642   1.446  0.4287 -0.1184 -0.2768
  995MOL0     H34258   1.959   6.659   0.875  2.5331 -4.4606  0.4767
  995MOL0     H34259   2.133   6.781   0.798 -2.7807 -0.7411 -0.9203
  995MOL0     H34260   2.234   7.046   0.774 -2.2104  0.4321  0.2189
  995MOL0     H34261   2.165   7.098   0.917 -0.8136 -1.0014 -1.2313
  995MOL0     H34262   2.374   7.148   1.030  1.2129  0.3088  0.8056
  995MOL0     H34263   2.337   7.246   0.893  4.9018  0.1954  0.6309
  995MOL0     H34264   2.474   7.100   0.739 -0.2156 -2.0428 -0.7059
  995MOL0     H34265   2.545   7.017   0.873 -1.7785 -0.3347  0.4864
  995MOL0     H34266   2.542   7.325   0.830  2.0597  0.4772 -2.1274
  995MOL0     H34267   2.615   7.251   0.974 -0.3528  0.9646  0.3021
  995MOL0     H34268   2.783   7.134   0.854 -0.7179 -0.2919 -0.8402
  995MOL0     H34269   2.701   7.158   0.695  0.9592 -0.0329 -1.0066
  995MOL0     H34270   2.747   7.405   0.723 -0.5038  0.8539  1.6727
  995MOL0     H34271   2.860   7.377   0.843 -0.7044 -2.0995  2.5578
  995MOL0     H34272   2.839   7.294   0.543 -0.2136 -0.6287  0.5932
  995MOL0     H34273   2.954   7.194   0.640  1.1229  0.0140 -0.7983
  995MOL0     H34274   3.057   7.352   0.493 -0.6228 -2.0036  1.4443
  995MOL0     H34275   2.979   7.486   0.578 -1.8071 -0.3324  1.6436
  995MOL0     H34276   3.082   7.483   0.844  1.4943  3.0345 -1.6312
  995MOL0     H34277   3.231   7.387   1.054 -1.3845 -1.0124 -1.0241
  995MOL0     H34278   3.379   7.312   1.022  0.6549  0.8022  1.0572
  995MOL0     H34279   3.482   7.516   0.940  0.4964 -1.5895 -0.8611
  995MOL0     H34280   3.334   7.602   0.994  1.2936 -0.6318 -3.6801
  995MOL0     H34281   3.468   7.411   1.180  0.0029  1.1657  1.5300
  995MOL0     H34282   3.348   7.536   1.219  0.3493  0.9250  2.1085
  995MOL0     H34283   3.559   7.692   1.123 -0.5428 -1.2685 -1.7778
  995MOL0     H34284   3.652   7.550   1.164 -0.0407 -0.4099  0.6172
  995MOL0     H34285   3.589   7.667   1.573 -3.8260 -0.1920 -0.4341
  995MOL0     H34286   3.663   7.875   1.694  1.7131 -0.4179 -0.4616
  995MOL0     H34287   3.964   8.179   1.881 -1.8317 -1.7294  1.0205
  995MOL0     H34288   4.013   8.415   1.936  0.4918  0.7571  0.1480
  995MOL0     H34289   3.968   8.757   2.009  2.5019  0.2158  0.4040
  995MOL0     H34290   4.034   8.606   2.019 -0.3014  0.4487  0.7146
  995MOL0     H34291   4.044   8.593   1.750  0.1226  0.1939 -1.5524
  995MOL0     H34292   3.980   8.760   1.759 -0.7669 -1.7125 -2.1216
  995MOL0     H34293   4.163   8.839   1.886  0.8254  2.7460 -3.1613
  995MOL0     H34294   4.238   8.679   1.880 -1.0689 -1.2362 -0.5129
  995MOL0     H34295   4.173   8.853   1.628 -1.7903 -0.8888 -0.2519
  995MOL0     H34296   4.202   8.690   1.617  1.0906 -1.4897  0.9317
  995MOL0     H34297   4.421   8.762   1.586  0.4507 -1.5473 -0.8764
  995MOL0     H34298   4.430   8.734   1.753  0.0555  1.1145  0.1982
  995MOL0     H34299   4.350   9.003   1.647  3.1334  2.2337  0.2935
  995MOL0     H34300   4.399   8.968   1.812  0.1152  1.2991 -0.1128
  995MOL0     H34301   4.582   8.947   1.577 -0.3712 -0.6569 -0.9403
  995MOL0     H34302   4.618   8.888   1.735  0.1434 -0.4574 -1.9806
  995MOL0     H34303   4.582   9.108   1.839  0.8055 -1.3196  0.6768
  995MOL0     H34304   4.706   9.106   1.713  0.3570 -1.8608  0.8892
  995MOL0     H34305   3.627   8.528   1.806 -0.3753 -0.6649 -1.1227
  995MOL0     H34306   3.600   8.301   1.696  1.7314 -2.0353 -1.6680
  995MOL0     H34307   3.748   8.057   1.317  2.9680 -2.4286 -2.3646
  995MOL0     H34308   3.717   7.860   1.202  2.5219 -2.9603  0.8009
  995MOL0     H34309   2.251   6.911   1.187 -1.1379 -0.4463  2.1892
  995MOL0     H34310   2.068   6.739   1.287 -1.5609 -2.7849 -0.8746
  995MOL0     H34311   1.762   6.396   1.082 -2.3206 -2.9715 -1.7016
  995MOL0     H34312   1.619   6.209   1.141 -1.9691  1.2692 -1.3904
  995MOL0     H34313   1.293   6.269   1.445  3.5081  0.5081 -0.4321
  995MOL0     H34314   1.245   6.133   1.338  1.1638 -1.3497  2.7054
  995MOL0     H34315   1.262   6.291   1.140 -0.1816  2.8789 -1.3904
  995MOL0     H34316   1.268   6.428   1.255  0.4843  0.2613 -1.3992
  995MOL0     H34317   1.085   6.385   1.366  0.4861  0.2352 -0.3376
  995MOL0     H34318   1.053   6.233   1.283  0.0672  0.3388  2.5109
  995MOL0     H34319   0.924   6.462   1.211 -0.9082 -0.9876 -1.1091
  995MOL0     H34320   1.089   6.512   1.154 -0.3330  0.4816 -0.6746
  995MOL0     H34321   0.901   6.246   0.872 -1.3784 -0.2372  0.0922
  995MOL0     H34322   1.464   6.421   1.464  3.0244 -0.7496  2.1120
  995MOL0     H34323   1.506   6.623   1.524 -0.8441 -1.8584 -1.8275
  995MOL0     H34324   1.673   6.665   1.500 -0.6221  2.4039  0.6075
  995MOL0     H34325   1.556   6.727   1.382  0.9290 -0.5786 -1.0964
  996MOL0     O34326   5.295   9.292   8.922  0.0710  0.0656 -0.2261
  996MOL0     C34327   5.241   9.393   8.868  0.7944 -0.2474  0.9791
  996MOL0     O34328   5.108   9.394   8.832 -0.7619  0.6085 -0.4499
  996MOL0     C34329   5.042   9.273   8.825 -0.2774  0.1560  0.0536
  996MOL0     C34330   4.919   9.256   8.879  0.4995 -0.6537 -0.3414
  996MOL0     C34331   4.853   9.135   8.864  0.3425 -0.0394  0.7959
  996MOL0     C34332   4.900   9.028   8.778  0.2144 -0.3849 -0.4610
  996MOL0     O34333   4.832   8.913   8.757 -0.3341  0.2212 -0.4975
  996MOL0     C34334   4.900   8.810   8.835  0.6036  0.8851  0.5024
  996MOL0     C34335   4.917   8.686   8.752 -0.5538  0.7807  0.3018
  996MOL0     C34336   4.994   8.586   8.837 -0.2579  0.1830 -0.2531
  996MOL0     C34337   5.030   8.462   8.758  0.0272 -0.0166  0.0133
  996MOL0     C34338   5.144   8.375   8.807 -0.2089 -0.2361 -0.9845
  996MOL0     C34339   5.104   8.225   8.775 -0.0528 -0.7841 -0.3721
  996MOL0     C34340   5.217   8.123   8.799 -0.3109 -0.2704 -0.3078
  996MOL0     C34341   5.326   8.123   8.701 -0.6629  0.1067 -0.8253
  996MOL0     N34342   5.290   8.070   8.570 -0.2807 -0.4978 -0.1443
  996MOL0     C34343   5.245   7.947   8.544  0.0587  0.0866  0.1830
  996MOL0     C34344   5.243   7.928   8.412  0.4817 -0.0020  0.3980
  996MOL0     C34345   5.236   7.804   8.330  0.3683 -0.4091 -0.0636
  996MOL0     C34346   5.103   7.778   8.267  0.1523  0.1516  0.0061
  996MOL0     C34347   5.000   7.754   8.381  0.4253  0.4883 -0.3087
  996MOL0     C34348   4.857   7.736   8.334 -0.6234 -0.2284 -0.9542
  996MOL0     O34349   4.844   7.608   8.282  0.8929 -0.5201 -0.0372
  996MOL0     C34350   4.727   7.579   8.221  0.7429  0.3947 -0.1686
  996MOL0     C34351   4.704   7.450   8.165  0.5308 -0.6613 -0.1266
  996MOL0     C34352   4.578   7.432   8.098 -0.6376 -0.6274 -1.0290
  996MOL0     C34353   4.476   7.524   8.089 -0.0057 -0.8042  0.4701
  996MOL0     C34354   4.350   7.489   8.027 -0.1883 -0.0225  0.2121
  996MOL0     O34355   4.341   7.368   7.963 -0.0127 -0.5904 -0.3092
  996MOL0     C34356   4.230   7.313   7.915 -0.3444  0.8471 -0.6483
  996MOL0     C34357   4.104   7.369   7.939  0.7018  0.9163  0.4289
  996MOL0     C34358   3.994   7.301   7.890  0.2469  0.4250  0.5348
  996MOL0     C34359   4.000   7.179   7.813 -0.3652 -0.1171  1.1617
  996MOL0     O34360   3.883   7.121   7.776  0.0721 -0.9601 -0.7709
  996MOL0     C34361   3.886   7.002   7.695 -0.6723  0.1288  0.0335
  996MOL0     C34362   3.875   7.045   7.552 -0.7232  0.1239  1.1146
  996MOL0     C34363   3.912   6.934   7.448 -0.2311  0.3612 -0.5691
  996MOL0     C34364   3.826   6.957   7.325 -0.4008  0.1511  0.1859
  996MOL0     C34365   3.888   6.868   7.213  0.3146  0.3533 -0.0492
  996MOL0     C34366   3.844   6.725   7.239  0.4487  0.1170  1.2584
  996MOL0     C34367   3.905   6.637   7.120 -0.2365  1.0134  1.2605
  996MOL0     C34368   3.826   6.506   7.113 -0.1716 -0.1262  0.3527
  996MOL0    Cl34369   3.683   6.540   7.028 -0.0241 -0.4548 -0.1551
  996MOL0     C34370   4.131   7.127   7.786 -0.5907  0.5335 -0.5389
  996MOL0     C34371   4.242   7.205   7.828 -0.3022 -0.0479 -0.0077
  996MOL0     O34372   4.272   7.588   8.022 -0.0656  0.0806 -0.0399
  996MOL0     C34373   4.494   7.647   8.156  0.0209 -0.8069  0.0816
  996MOL0     C34374   4.615   7.665   8.222  0.2703  0.3959  0.1779
  996MOL0     N34375   5.289   8.040   8.352  0.6570  0.0734  0.1538
  996MOL0     N34376   5.317   8.121   8.448  0.2533 -0.4962  0.5076
  996MOL0     C34377   5.025   9.053   8.717  1.2930  0.3586 -0.0446
  996MOL0     C34378   5.096   9.168   8.740  0.8437 -0.2300 -1.0942
  996MOL0     C34379   5.314   9.521   8.835 -0.6073  0.0641  0.7359
  996MOL0     C34380   5.247   9.624   8.758 -0.5425 -0.3910  0.7783
  996MOL0     C34381   5.316   9.740   8.725 -0.8944 -0.1069 -0.0892
  996MOL0     C34382   5.446   9.768   8.764  0.1845 -0.8821  0.2070
  996MOL0     O34383   5.507   9.887   8.719 -0.5898 -0.7091 -0.2142
  996MOL0     C34384   5.627   9.931   8.775 -0.0798 -0.2433  0.7483
  996MOL0     C34385   5.643  10.085   8.773 -0.3348 -0.5988 -0.0165
  996MOL0     C34386   5.771  10.140   8.843 -0.2530  0.8353 -0.0779
  996MOL0     C34387   5.771  10.291   8.825  0.2707 -1.3944 -0.2059
  996MOL0     C34388   5.802  10.345   8.696  0.8930 -0.0936  0.0973
  996MOL0     C34389   5.826  10.359   8.580 -0.0956 -0.5620 -0.6629
  996MOL0     C34390   5.513   9.661   8.834  0.7052 -0.1714  0.2427
  996MOL0     C34391   5.446   9.545   8.874  0.9890 -0.2268 -0.7029
  996MOL0     C34392   5.534   9.441   8.937  0.9327  0.6006 -0.7895
  996MOL0     H34393   4.887   9.338   8.941  1.3531 -0.1317 -0.5602
  996MOL0     H34394   4.755   9.119   8.908  0.0477 -0.6655 -0.0753
  996MOL0     H34395   5.001   8.830   8.872  0.9901  0.4640 -0.2929
  996MOL0     H34396   4.828   8.787   8.914 -1.0562 -2.9190 -1.8236
  996MOL0     H34397   4.977   8.703   8.663  0.2846 -0.9168  0.5017
  996MOL0     H34398   4.825   8.630   8.735  0.0698 -0.8949  2.0348
  996MOL0     H34399   4.940   8.566   8.929  0.9488 -0.8488  0.2485
  996MOL0     H34400   5.087   8.636   8.866 -2.3694  2.8227  2.6738
  996MOL0     H34401   4.938   8.403   8.759  0.4464 -0.6806  1.1390
  996MOL0     H34402   5.039   8.497   8.655 -0.5550  0.2083  0.0325
  996MOL0     H34403   5.235   8.403   8.753  0.3316 -1.5306 -0.7850
  996MOL0     H34404   5.165   8.382   8.914 -2.7364  1.0087 -0.4963
  996MOL0     H34405   5.017   8.205   8.839 -0.8143 -0.6804 -1.3589
  996MOL0     H34406   5.073   8.221   8.671  0.1273  1.6691 -0.5912
  996MOL0     H34407   5.186   8.018   8.800 -0.4369 -0.2408 -0.7029
  996MOL0     H34408   5.246   8.144   8.902 -0.9315 -0.1160 -0.1626
  996MOL0     H34409   5.362   8.225   8.686  0.5789  0.1047  1.6164
  996MOL0     H34410   5.412   8.072   8.744 -2.2546 -1.7503  0.3140
  996MOL0     H34411   5.217   7.876   8.622  1.2533 -2.1005 -1.2716
  996MOL0     H34412   5.306   7.817   8.247 -2.3506 -1.4141 -2.7137
  996MOL0     H34413   5.266   7.709   8.375  1.4629 -0.5892 -1.1350
  996MOL0     H34414   5.066   7.855   8.199  1.5313 -0.9516 -2.0840
  996MOL0     H34415   5.117   7.690   8.204 -1.2305  0.0125 -0.1319
  996MOL0     H34416   5.000   7.841   8.447  0.2907  0.6682 -0.5445
  996MOL0     H34417   5.032   7.664   8.435 -2.3055  0.0670  0.7570
  996MOL0     H34418   4.829   7.813   8.262  0.8333 -2.5776 -4.2788
  996MOL0     H34419   4.798   7.738   8.427 -0.2270 -1.8889 -0.6239
  996MOL0     H34420   4.785   7.377   8.161  4.9220  3.6892 -1.8381
  996MOL0     H34421   4.562   7.341   8.041 -0.3429 -0.7436 -0.9266
  996MOL0     H34422   4.094   7.464   7.990  1.7559  0.7244  1.0149
  996MOL0     H34423   3.896   7.347   7.900 -1.8442 -3.3183 -0.8673
  996MOL0     H34424   3.970   6.934   7.713 -0.1285  1.2288  1.8704
  996MOL0     H34425   3.794   6.944   7.711 -0.9320  0.4514 -0.2764
  996MOL0     H34426   3.768   7.067   7.546 -0.9815 -1.4285 -1.6883
  996MOL0     H34427   3.923   7.137   7.516 -0.5029 -1.1594 -2.2319
  996MOL0     H34428   4.020   6.931   7.434 -0.5343 -0.0966 -3.7127
  996MOL0     H34429   3.877   6.844   7.500 -0.1191 -0.1583 -1.3684
  996MOL0     H34430   3.851   7.061   7.301  0.0505  0.1850  0.7583
  996MOL0     H34431   3.718   6.949   7.343 -0.6371  2.4809  0.1161
  996MOL0     H34432   3.997   6.862   7.219  0.1759 -2.1795  1.9058
  996MOL0     H34433   3.856   6.895   7.112  0.4234 -0.9204 -0.4387
  996MOL0     H34434   3.881   6.698   7.339 -0.4896  1.9140  2.1330
  996MOL0     H34435   3.735   6.731   7.239  0.4311  1.8421 -1.8825
  996MOL0     H34436   4.003   6.616   7.164 -0.1399 -1.7540 -0.0671
  996MOL0     H34437   3.917   6.691   7.026 -1.3589  2.8234  2.1186
  996MOL0     H34438   3.882   6.436   7.051 -1.1833  1.0610 -2.0498
  996MOL0     H34439   3.808   6.463   7.212  1.7552 -1.6014  0.1218
  996MOL0     H34440   4.150   7.032   7.738  0.7780 -0.5602  2.0311
  996MOL0     H34441   4.344   7.171   7.812 -0.4998 -0.7459  0.1898
  996MOL0     H34442   4.423   7.728   8.163  2.6958  1.7994 -1.0070
  996MOL0     H34443   4.612   7.759   8.277 -1.4206 -0.2159  1.2060
  996MOL0     H34444   5.070   8.977   8.653  1.7788 -0.0370  0.7462
  996MOL0     H34445   5.185   9.193   8.684  0.9251 -0.5653 -1.1188
  996MOL0     H34446   5.147   9.607   8.719  0.0345 -3.3596  0.4049
  996MOL0     H34447   5.259   9.806   8.660 -3.8507 -3.4252 -1.1821
  996MOL0     H34448   5.702   9.894   8.705  0.4814  0.7991  0.7890
  996MOL0     H34449   5.645   9.896   8.877 -0.8468  1.4886  1.5193
  996MOL0     H34450   5.555  10.128   8.822 -0.4296  1.1597 -1.6010
  996MOL0     H34451   5.649  10.115   8.668  1.5650 -3.6552 -0.8905
  996MOL0     H34452   5.862  10.092   8.805 -1.4279  0.9469 -3.4138
  996MOL0     H34453   5.786  10.115   8.948  3.5438  1.8774 -0.2045
  996MOL0     H34454   5.682  10.345   8.858  0.3332 -1.9480  0.9046
  996MOL0     H34455   5.858  10.317   8.887 -0.2266 -1.8309  0.6979
  996MOL0     H34456   5.840  10.381   8.476 -1.9670  0.3278 -0.7717
  996MOL0     H34457   5.618   9.674   8.858  0.7773 -1.1600  0.5074
  996MOL0     H34458   5.627   9.491   8.965 -0.7764  2.5033  1.9042
  996MOL0     H34459   5.495   9.394   9.028  0.6893 -0.8499 -1.5993
  996MOL0     H34460   5.548   9.351   8.876  0.9916  2.1213 -3.1636
  997MOL0     O34461   1.103   3.407   8.406 -0.5828 -0.3989  0.3089
  997MOL0     C34462   1.083   3.356   8.513  0.4475  0.0114  0.9931
  997MOL0     O34463   1.175   3.308   8.602  0.2484 -0.4014 -0.5685
  997MOL0     C34464   1.299   3.345   8.574 -0.2715 -0.0072  0.9499
  997MOL0     C34465   1.374   3.281   8.479 -0.4268 -0.2103 -0.2988
  997MOL0     C34466   1.499   3.318   8.454 -0.8592 -0.1876  0.0446
  997MOL0     C34467   1.555   3.432   8.512  0.8136 -0.3676  0.3729
  997MOL0     O34468   1.683   3.467   8.493  0.1660 -0.9836 -0.1886
  997MOL0     C34469   1.726   3.510   8.368  0.7055  0.0006  0.2480
  997MOL0     C34470   1.769   3.661   8.377  0.6917  0.1435  0.1321
  997MOL0     C34471   1.846   3.712   8.256  0.7416 -0.6688  0.0135
  997MOL0     C34472   1.981   3.645   8.222  0.9211  0.2612 -0.0211
  997MOL0     C34473   2.078   3.752   8.176 -0.0533 -0.3072  0.4718
  997MOL0     C34474   2.219   3.691   8.173 -0.4463 -0.0536  0.3599
  997MOL0     C34475   2.332   3.773   8.121 -0.2089 -1.5281  0.4503
  997MOL0     C34476   2.470   3.716   8.167 -0.0466 -0.2495  0.3293
  997MOL0     N34477   2.497   3.585   8.121  0.6820  0.0333 -0.5373
  997MOL0     C34478   2.456   3.470   8.175 -0.9605 -0.7073 -0.6484
  997MOL0     C34479   2.502   3.374   8.094  0.2590 -0.0774  0.8238
  997MOL0     C34480   2.473   3.218   8.108  0.0542  0.0980  0.0678
  997MOL0     C34481   2.585   3.137   8.056 -1.1339  0.3700 -0.5762
  997MOL0     C34482   2.563   2.983   8.051 -0.3149 -0.4419 -0.1292
  997MOL0     C34483   2.432   2.958   7.976 -0.1012  0.8472 -0.0115
  997MOL0     O34484   2.428   2.816   7.950 -0.8297 -0.5431  0.8058
  997MOL0     C34485   2.313   2.760   7.902 -0.4471  0.3086  0.0055
  997MOL0     C34486   2.310   2.624   7.916  0.5171 -0.3893  0.1575
  997MOL0     C34487   2.197   2.542   7.874 -0.4633  0.2494 -0.2827
  997MOL0     C34488   2.080   2.605   7.833 -0.3198 -0.0279 -0.1136
  997MOL0     C34489   1.963   2.523   7.780  0.3396  0.0945  0.9771
  997MOL0     O34490   1.975   2.384   7.752 -0.8140  0.3578  0.8302
  997MOL0     C34491   1.866   2.306   7.718 -0.2643 -0.2151 -0.8708
  997MOL0     C34492   1.831   2.278   7.590  0.4321  0.2747  0.6964
  997MOL0     C34493   1.724   2.192   7.561 -0.7469  0.2750 -0.8964
  997MOL0     C34494   1.641   2.137   7.658  0.8633 -0.6777 -0.1080
  997MOL0     O34495   1.536   2.054   7.642 -0.2565  0.2884 -1.0012
  997MOL0     C34496   1.488   2.035   7.510 -0.5545  0.2429  0.0285
  997MOL0     C34497   1.344   1.966   7.519  0.3539  0.1274  0.0255
  997MOL0     C34498   1.290   1.893   7.386  0.0325 -0.0238  0.2165
  997MOL0     C34499   1.184   1.786   7.410 -0.2919  0.6395 -0.1661
  997MOL0     C34500   1.126   1.738   7.282 -0.3011 -0.3803 -0.1422
  997MOL0     C34501   0.998   1.653   7.296  0.7890 -0.5196  0.5566
  997MOL0     C34502   0.947   1.604   7.164 -0.0243 -0.2175 -0.0965
  997MOL0     C34503   0.810   1.550   7.204  0.0774 -0.9371 -0.0367
  997MOL0    Cl34504   0.800   1.408   7.304  0.1545  0.4578 -0.2045
  997MOL0     C34505   1.677   2.163   7.790 -1.0628 -0.3329  0.1903
  997MOL0     C34506   1.787   2.249   7.815  0.7564 -0.3915 -0.6641
  997MOL0     O34507   1.851   2.575   7.778 -0.1019  0.6610 -0.3763
  997MOL0     C34508   2.090   2.746   7.806 -0.5133  0.7389 -0.6109
  997MOL0     C34509   2.208   2.819   7.836  0.1402  0.1127 -0.0401
  997MOL0     N34510   2.571   3.433   7.987 -0.3323 -0.8111 -1.1084
  997MOL0     N34511   2.563   3.556   8.003  0.5169  0.7229  0.3804
  997MOL0     C34512   1.477   3.496   8.603  0.0686 -0.0505  0.2421
  997MOL0     C34513   1.347   3.457   8.639  0.3243 -1.0108  0.2201
  997MOL0     C34514   0.942   3.335   8.570 -0.1540 -0.8684 -1.1523
  997MOL0     C34515   0.920   3.313   8.709 -1.1956 -0.2623  0.2205
  997MOL0     C34516   0.794   3.285   8.760  0.3321  0.4735  0.8594
  997MOL0     C34517   0.685   3.291   8.673 -0.0044 -0.5309  0.4220
  997MOL0     O34518   0.558   3.275   8.710 -0.2528 -0.2741  0.0881
  997MOL0     C34519   0.523   3.264   8.849 -0.9033 -0.6687  1.1771
  997MOL0     C34520   0.372   3.234   8.869 -0.0306 -0.2352  0.2838
  997MOL0     C34521   0.276   3.334   8.804 -0.0236 -0.2385  0.8011
  997MOL0     C34522   0.134   3.314   8.865 -0.0102  0.4765 -0.4722
  997MOL0     C34523   0.053   3.436   8.865  0.7316 -0.7848 -0.0969
  997MOL0     C34524  -0.012   3.535   8.847  0.8424  0.6689 -0.4591
  997MOL0     C34525   0.706   3.301   8.535  0.3745  0.4147 -0.6463
  997MOL0     C34526   0.831   3.319   8.477 -0.1242  0.0342  0.8083
  997MOL0     C34527   0.849   3.328   8.323  0.3904 -0.2501 -0.3044
  997MOL0     H34528   1.340   3.193   8.424  0.5820  0.4443 -2.0569
  997MOL0     H34529   1.559   3.256   8.388  2.3952  2.8262 -0.1285
  997MOL0     H34530   1.819   3.454   8.351 -0.7304 -3.2910  2.2715
  997MOL0     H34531   1.670   3.490   8.276  3.4343 -1.1787 -1.2934
  997MOL0     H34532   1.830   3.667   8.467  0.5775  0.2134  0.2044
  997MOL0     H34533   1.672   3.711   8.386  0.9718  0.6014  0.5716
  997MOL0     H34534   1.863   3.814   8.290  0.8118 -0.6648 -0.0332
  997MOL0     H34535   1.782   3.714   8.168 -1.4536  0.5021  1.5344
  997MOL0     H34536   2.014   3.608   8.320  0.1838 -1.5034 -0.4015
  997MOL0     H34537   1.969   3.557   8.158 -0.1785  1.6761 -1.8614
  997MOL0     H34538   2.038   3.779   8.078 -0.2141 -0.4523  0.4981
  997MOL0     H34539   2.082   3.840   8.241  0.4133 -0.6040  0.8525
  997MOL0     H34540   2.238   3.658   8.275 -2.7295  0.4485  1.0011
  997MOL0     H34541   2.216   3.596   8.119  1.8982 -0.7979  1.4174
  997MOL0     H34542   2.316   3.876   8.154 -1.6844 -1.3635 -0.6691
  997MOL0     H34543   2.340   3.790   8.013 -0.5904  1.8954  0.8594
  997MOL0     H34544   2.545   3.784   8.127 -3.1997  2.3930 -1.6948
  997MOL0     H34545   2.480   3.721   8.276 -1.0228  3.2832  0.3884
  997MOL0     H34546   2.390   3.455   8.260 -1.4394  3.6275 -0.0302
  997MOL0     H34547   2.447   3.192   8.210 -1.2168 -1.4768 -0.6119
  997MOL0     H34548   2.382   3.195   8.051 -0.9229  1.9532  0.7704
  997MOL0     H34549   2.631   3.179   7.966 -1.1259 -1.6866 -1.5934
  997MOL0     H34550   2.662   3.151   8.133  0.4189 -1.4015 -1.7064
  997MOL0     H34551   2.562   2.954   8.156 -0.8403  1.4751  0.4392
  997MOL0     H34552   2.646   2.943   7.993  0.4686  1.3330 -0.2887
  997MOL0     H34553   2.454   3.014   7.884  0.7148  1.5287  0.5788
  997MOL0     H34554   2.340   2.991   8.024  0.0013 -0.7942  1.4322
  997MOL0     H34555   2.400   2.583   7.962  0.8006  0.9001  0.7929
  997MOL0     H34556   2.216   2.435   7.880  3.1985  0.7115 -1.2655
  997MOL0     H34557   1.887   2.319   7.507 -3.1032  1.9671 -1.0638
  997MOL0     H34558   1.710   2.165   7.457  1.7932  3.9643 -2.4188
  997MOL0     H34559   1.469   2.134   7.468 -0.6706  0.9990  1.7633
  997MOL0     H34560   1.560   1.977   7.453 -0.0670 -0.5363  1.3914
  997MOL0     H34561   1.348   1.894   7.601 -1.5631  0.3856  0.3967
  997MOL0     H34562   1.280   2.053   7.538 -0.3301 -0.4126  0.2402
  997MOL0     H34563   1.242   1.973   7.330  1.3368 -0.4724 -1.6133
  997MOL0     H34564   1.375   1.856   7.329 -0.5844 -0.4641 -0.4401
  997MOL0     H34565   1.107   1.835   7.470  0.3742 -0.6193  1.8324
  997MOL0     H34566   1.227   1.703   7.467  0.6430  0.3311 -1.2810
  997MOL0     H34567   1.195   1.665   7.237 -0.8304  0.2567 -2.1147
  997MOL0     H34568   1.114   1.822   7.212  0.3259 -2.2098 -2.6115
  997MOL0     H34569   1.012   1.562   7.354  0.0705 -0.8503  0.2144
  997MOL0     H34570   0.927   1.720   7.346  0.1680  2.6082 -3.9019
  997MOL0     H34571   1.002   1.516   7.131 -0.7392 -0.3811 -0.8881
  997MOL0     H34572   0.946   1.675   7.081 -0.9952  0.8485  0.7698
  997MOL0     H34573   0.747   1.633   7.238 -1.8002 -2.4723  0.4373
  997MOL0     H34574   0.762   1.521   7.110  1.2159  1.6529 -1.5019
  997MOL0     H34575   1.623   2.112   7.869 -0.9444 -3.1761 -1.3894
  997MOL0     H34576   1.823   2.272   7.915  0.6912  0.6165 -0.8622
  997MOL0     H34577   2.003   2.797   7.767 -1.8252 -0.0871  1.0753
  997MOL0     H34578   2.207   2.927   7.828 -0.6956  0.1363  0.3231
  997MOL0     H34579   1.535   3.578   8.646  0.4816 -0.5618  0.6713
  997MOL0     H34580   1.281   3.506   8.710  1.6354 -1.2641  1.6454
  997MOL0     H34581   0.993   3.315   8.790 -1.3819 -1.5287  0.4517
  997MOL0     H34582   0.778   3.265   8.865 -1.7620  0.8705  0.6751
  997MOL0     H34583   0.562   3.354   8.897  2.2600 -0.8383 -0.7935
  997MOL0     H34584   0.578   3.179   8.891 -0.1190  0.9911  3.6846
  997MOL0     H34585   0.361   3.197   8.971 -0.7596 -0.3982  0.1507
  997MOL0     H34586   0.364   3.141   8.813 -1.7587  0.3343 -0.4609
  997MOL0     H34587   0.264   3.331   8.695  0.7852  0.1812  0.6890
  997MOL0     H34588   0.314   3.435   8.824  2.0777 -0.7365 -0.3436
  997MOL0     H34589   0.089   3.241   8.797  1.9072  2.0921 -3.6943
  997MOL0     H34590   0.143   3.265   8.963 -3.4671  0.1581 -0.1748
  997MOL0     H34591  -0.077   3.619   8.831 -2.0661 -1.4015 -0.4337
  997MOL0     H34592   0.619   3.305   8.471  0.1480 -0.1896 -0.3901
  997MOL0     H34593   0.766   3.294   8.260  0.2471 -1.6575  0.6002
  997MOL0     H34594   0.870   3.433   8.301 -3.3918  1.4059  2.7464
  997MOL0     H34595   0.935   3.269   8.291  1.0121  1.0025 -1.0003
  998MOL0     O34596   8.385   8.743   7.823 -0.2135  0.1094  0.2513
  998MOL0     C34597   8.370   8.671   7.727 -1.1569  0.6072  0.8279
  998MOL0     O34598   8.472   8.606   7.657 -0.3599 -0.2121 -0.8995
  998MOL0     C34599   8.600   8.642   7.694  0.4042  0.2216  0.1779
  998MOL0     C34600   8.680   8.689   7.588 -0.0812  0.1414 -0.2719
  998MOL0     C34601   8.808   8.738   7.615  0.4728  0.3480  0.4649
  998MOL0     C34602   8.859   8.730   7.746  0.1644  0.1373  0.9410
  998MOL0     O34603   8.993   8.756   7.775 -0.2497 -0.2914 -0.6828
  998MOL0     C34604   9.077   8.810   7.676 -0.2251 -0.3378  0.0234
  998MOL0     C34605   9.208   8.902   7.718  1.2120  0.0623  0.6113
  998MOL0     C34606   9.193   8.959   7.862  1.2445  0.3661 -0.3000
  998MOL0     C34607   9.268   9.092   7.875 -0.7432  0.5656  0.0093
  998MOL0     C34608   9.420   9.070   7.872  0.2568 -0.0074  0.9004
  998MOL0     C34609   9.498   9.193   7.892  0.0453 -0.4868  0.3518
  998MOL0     C34610   9.645   9.187   7.880 -0.0277 -0.4895  0.1825
  998MOL0     C34611   9.713   9.327   7.842 -0.4337  0.1146 -0.1820
  998MOL0     N34612   9.693   9.430   7.942 -0.3030 -0.9666  0.0770
  998MOL0     C34613   9.721   9.421   8.081  0.5866 -0.1705 -0.6404
  998MOL0     C34614   9.698   9.546   8.125 -0.5984 -0.7927  0.5897
  998MOL0     C34615   9.712   9.593   8.263  0.1853  0.1079 -0.7437
  998MOL0     C34616   9.848   9.665   8.274 -0.3399 -0.5300 -0.8300
  998MOL0     C34617   9.963   9.573   8.255  0.2238 -0.2047  0.0904
  998MOL0     C34618  10.087   9.644   8.266 -0.7014 -0.5941 -0.1104
  998MOL0     O34619  10.101   9.748   8.161  0.5931  0.0287 -1.0668
  998MOL0     C34620  10.235   9.744   8.117 -0.0463 -0.2494  0.2083
  998MOL0     C34621  10.329   9.842   8.168  0.1109  0.4748 -0.7394
  998MOL0     C34622  10.465   9.847   8.124 -0.2394 -0.0037 -0.0034
  998MOL0     C34623  10.510   9.745   8.041  0.3624 -0.2160 -0.0022
  998MOL0     C34624  10.656   9.751   7.991 -0.3351  0.5514  0.2623
  998MOL0     O34625  10.737   9.834   8.068  0.4310 -0.2855 -0.5747
  998MOL0     C34626  10.874   9.832   8.051 -0.9208  0.4374 -0.1242
  998MOL0     C34627  10.931   9.872   7.925  0.0663  0.0334 -0.1293
  998MOL0     C34628  11.072   9.875   7.919 -0.1640 -1.3030  0.3168
  998MOL0     C34629  11.155   9.822   8.023  0.2674  0.5656 -1.5934
  998MOL0     O34630  11.290   9.809   8.008 -0.7145  0.4479  0.6269
  998MOL0     C34631  11.379   9.814   8.124 -0.4536 -0.8987 -0.9461
  998MOL0     C34632  11.516   9.807   8.069  0.3157 -0.9229 -0.1656
  998MOL0     C34633  11.563   9.937   8.009  0.8253  0.0471 -0.4615
  998MOL0     C34634  11.691   9.913   7.942  0.0041  0.3792 -0.1033
  998MOL0     C34635  11.759  10.054   7.902  0.1933  0.0891 -0.0270
  998MOL0     C34636  11.909  10.038   7.874 -0.9025 -0.4088 -0.4159
  998MOL0     C34637  11.978  10.168   7.855  0.3565 -1.0017  0.0259
  998MOL0     C34638  11.929  10.268   7.743 -0.6774 -1.1935 -0.1548
  998MOL0    Cl34639  11.972  10.206   7.574 -0.3434 -0.2650  0.0465
  998MOL0     C34640  11.086   9.783   8.139 -0.1741  0.4434 -0.2048
  998MOL0     C34641  10.954   9.785   8.154  0.5011  0.1695  0.5991
  998MOL0     O34642  10.692   9.686   7.896 -0.1488  0.0153  0.2401
  998MOL0     C34643  10.422   9.647   7.990  0.6060 -0.6620  0.0606
  998MOL0     C34644  10.286   9.652   8.028 -0.0161  0.3067 -0.2455
  998MOL0     N34645   9.650   9.632   8.023 -0.5353 -0.0949  1.0677
  998MOL0     N34646   9.651   9.557   7.914  0.1019 -0.0938 -0.0539
  998MOL0     C34647   8.787   8.655   7.841 -0.2473 -0.1366 -0.2691
  998MOL0     C34648   8.653   8.618   7.825  0.5836 -0.3324  0.2948
  998MOL0     C34649   8.227   8.655   7.672  0.0663 -0.7457  0.8321
  998MOL0     C34650   8.131   8.611   7.763  0.2183  0.6689 -0.8167
  998MOL0     C34651   8.006   8.568   7.709 -0.1921 -0.3468 -0.7013
  998MOL0     C34652   7.976   8.578   7.575  1.1173 -0.5162 -0.3399
  998MOL0     O34653   7.849   8.551   7.527  0.2192 -0.1381 -0.0504
  998MOL0     C34654   7.839   8.474   7.411  0.1985 -1.1659  0.3121
  998MOL0     C34655   7.703   8.487   7.343  0.0419  0.2970 -0.4191
  998MOL0     C34656   7.677   8.627   7.292  0.1380  0.0942 -0.1661
  998MOL0     C34657   7.527   8.632   7.267 -0.1051  0.8910 -0.1197
  998MOL0     C34658   7.490   8.774   7.274  0.1023  0.0801  0.0165
  998MOL0     C34659   7.459   8.887   7.270  1.0066 -0.8389 -0.6916
  998MOL0     C34660   8.062   8.641   7.485  0.8077 -0.5774 -0.7188
  998MOL0     C34661   8.186   8.676   7.537  0.9448 -0.3329 -1.5251
  998MOL0     C34662   8.285   8.731   7.435 -0.5758 -0.5689 -0.2642
  998MOL0     H34663   8.647   8.679   7.485 -1.6830 -0.8888  0.3039
  998MOL0     H34664   8.883   8.771   7.544  5.1144  0.8165  4.9917
  998MOL0     H34665   9.113   8.734   7.606  0.8429 -0.8816  1.1288
  998MOL0     H34666   9.024   8.890   7.624 -1.9657  1.3379  3.9430
  998MOL0     H34667   9.228   8.966   7.633  1.2573 -3.9587 -2.7364
  998MOL0     H34668   9.294   8.834   7.724  0.8495 -0.4877 -0.2269
  998MOL0     H34669   9.228   8.884   7.933 -0.1312 -2.8840 -2.7770
  998MOL0     H34670   9.084   8.968   7.873  0.9277 -1.7011 -1.2706
  998MOL0     H34671   9.240   9.145   7.784 -0.8338 -2.7128 -2.0568
  998MOL0     H34672   9.227   9.149   7.958  0.7334  1.7013 -0.0148
  998MOL0     H34673   9.446   8.999   7.951 -0.1019 -0.1425  0.8979
  998MOL0     H34674   9.448   9.024   7.777  2.5021 -0.2512  1.6032
  998MOL0     H34675   9.461   9.274   7.829  1.6687  0.2113  0.2351
  998MOL0     H34676   9.481   9.227   7.994  0.9790  1.6458 -0.1580
  998MOL0     H34677   9.682   9.109   7.812 -0.4482  0.3675 -1.0803
  998MOL0     H34678   9.678   9.160   7.980 -0.9620 -0.5760  0.4763
  998MOL0     H34679   9.820   9.310   7.826 -0.9173  0.1743 -5.2075
  998MOL0     H34680   9.675   9.352   7.743  0.3677  0.4378 -0.4170
  998MOL0     H34681   9.759   9.331   8.128  1.9402  2.0788  2.9942
  998MOL0     H34682   9.630   9.651   8.305  0.7047  0.3017  0.0107
  998MOL0     H34683   9.719   9.500   8.321 -0.4246  0.5535  0.0443
  998MOL0     H34684   9.848   9.745   8.199 -0.5608  0.6374  0.3677
  998MOL0     H34685   9.863   9.703   8.376  0.8178 -0.3092 -1.0755
  998MOL0     H34686   9.961   9.537   8.151 -1.6768  1.6546 -0.5786
  998MOL0     H34687   9.963   9.485   8.321  1.2285 -1.8304 -1.9392
  998MOL0     H34688  10.155   9.558   8.274 -3.4442 -2.7159  3.7342
  998MOL0     H34689  10.097   9.701   8.358  0.7419  1.1172 -1.2617
  998MOL0     H34690  10.289   9.917   8.235 -3.0984 -1.3744 -0.3914
  998MOL0     H34691  10.523   9.931   8.162 -1.7130  1.3517 -0.5934
  998MOL0     H34692  10.883   9.902   7.833  0.9969  1.5087 -0.1711
  998MOL0     H34693  11.127   9.915   7.835  0.1991  0.2565  1.2656
  998MOL0     H34694  11.371   9.901   8.190  2.0729 -1.0529 -0.3382
  998MOL0     H34695  11.355   9.735   8.196  2.1051  0.2030  1.2887
  998MOL0     H34696  11.571   9.787   8.161 -0.1016 -0.2143  0.2440
  998MOL0     H34697  11.539   9.717   8.011  1.9349 -1.5347  1.3325
  998MOL0     H34698  11.493   9.984   7.939  0.5888 -1.4554 -1.2614
  998MOL0     H34699  11.570  10.000   8.099  0.5004 -0.8882  0.2260
  998MOL0     H34700  11.675   9.850   7.854 -0.8285  1.6201 -0.8687
  998MOL0     H34701  11.759   9.865   8.013 -2.0937 -1.8388  0.5415
  998MOL0     H34702  11.744  10.134   7.974  1.2291 -1.3455  1.8849
  998MOL0     H34703  11.715  10.080   7.805  3.2495  2.1964 -1.0344
  998MOL0     H34704  11.964   9.995   7.958 -0.3503 -0.2510 -0.6932
  998MOL0     H34705  11.929   9.984   7.781 -2.4337  1.7545 -2.0841
  998MOL0     H34706  12.083  10.147   7.832 -0.4845 -2.6689 -2.7348
  998MOL0     H34707  11.967  10.221   7.950 -2.6368  0.2343 -0.9064
  998MOL0     H34708  11.823  10.283   7.765 -0.2919  0.8767  0.5582
  998MOL0     H34709  11.987  10.359   7.763  1.3529 -2.7315  1.4191
  998MOL0     H34710  11.144   9.738   8.220  0.1099 -0.3586 -0.8389
  998MOL0     H34711  10.912   9.759   8.250 -0.0760  4.9477  1.8807
  998MOL0     H34712  10.452   9.577   7.913 -3.9689 -0.5515 -2.1587
  998MOL0     H34713  10.207   9.591   7.986  1.4839 -0.0913 -2.6372
  998MOL0     H34714   8.837   8.661   7.938 -1.0062  1.1946  0.0743
  998MOL0     H34715   8.590   8.565   7.896 -2.8420 -0.5168 -2.5846
  998MOL0     H34716   8.160   8.594   7.866 -0.1561  3.6187 -0.1315
  998MOL0     H34717   7.934   8.522   7.776 -2.2194  0.3387 -2.3049
  998MOL0     H34718   7.865   8.373   7.441  2.9213 -0.1998  1.5733
  998MOL0     H34719   7.909   8.509   7.335 -2.0225  2.0725 -0.4826
  998MOL0     H34720   7.625   8.448   7.409 -0.0070  3.7984  1.8682
  998MOL0     H34721   7.714   8.429   7.251  1.9794  0.2490 -0.1985
  998MOL0     H34722   7.754   8.652   7.218  1.6239 -1.9397  0.6201
  998MOL0     H34723   7.698   8.705   7.365 -0.9033  0.0940  0.1531
  998MOL0     H34724   7.506   8.596   7.166 -0.3618 -0.1039  0.2802
  998MOL0     H34725   7.470   8.577   7.344  0.6247  0.7454  0.3238
  998MOL0     H34726   7.429   8.989   7.259  0.3218 -0.8168  1.1178
  998MOL0     H34727   8.041   8.653   7.379 -1.7726 -4.5944 -0.8705
  998MOL0     H34728   8.234   8.751   7.341 -1.2139 -1.1880 -0.0527
  998MOL0     H34729   8.339   8.824   7.460  0.2548 -0.8081 -1.1062
  998MOL0     H34730   8.357   8.651   7.416 -0.6862 -0.5868 -0.5996
  999MOL0     O34731   9.075   1.078   9.265 -0.3047  0.2339  0.0498
  999MOL0     C34732   9.047   0.999   9.355 -0.3129  0.0384 -0.4716
  999MOL0     O34733   8.991   1.030   9.479  0.5687  0.5478 -0.0225
  999MOL0     C34734   8.913   1.135   9.490 -0.2475 -0.5272 -0.1471
  999MOL0     C34735   8.831   1.182   9.385  0.1306  0.7456 -0.4265
  999MOL0     C34736   8.748   1.293   9.404 -0.3086  1.3538  0.2074
  999MOL0     C34737   8.738   1.357   9.526 -0.0398  0.4968 -0.7281
  999MOL0     O34738   8.658   1.473   9.520 -0.4210  0.0080 -0.1188
  999MOL0     C34739   8.622   1.524   9.639 -0.8783 -0.2474 -0.0789
  999MOL0     C34740   8.538   1.441   9.740  0.2515 -0.0316  0.1473
  999MOL0     C34741   8.390   1.415   9.686 -1.0121 -0.4646 -0.1407
  999MOL0     C34742   8.295   1.361   9.787 -0.7365 -0.8999 -0.1772
  999MOL0     C34743   8.155   1.394   9.758 -0.1098 -0.6436 -0.6336
  999MOL0     C34744   8.097   1.533   9.800 -0.7196 -0.1470  0.3945
  999MOL0     C34745   7.947   1.541   9.762 -0.6160  0.0951 -1.0696
  999MOL0     C34746   7.923   1.536   9.606 -0.0957 -0.5720 -0.2790
  999MOL0     N34747   7.791   1.594   9.582 -0.2788 -0.3752  0.4829
  999MOL0     C34748   7.684   1.532   9.517  0.0742  0.2268  1.4979
  999MOL0     C34749   7.603   1.637   9.495  0.4646 -0.0858 -0.4814
  999MOL0     C34750   7.487   1.638   9.402  0.0055 -0.8291  0.2330
  999MOL0     C34751   7.363   1.567   9.452  0.4260 -0.2918 -0.3737
  999MOL0     C34752   7.323   1.587   9.597 -0.2431  0.9830  0.2696
  999MOL0     C34753   7.303   1.736   9.634  0.4012  0.0992 -0.9046
  999MOL0     O34754   7.262   1.757   9.768 -0.6293 -0.4719  0.0623
  999MOL0     C34755   7.340   1.716   9.874  0.6022  1.0036  0.4251
  999MOL0     C34756   7.279   1.659   9.986  0.7526  0.4212 -0.2677
  999MOL0     C34757   7.357   1.631  10.094  0.9013  0.1899 -0.4849
  999MOL0     C34758   7.494   1.641  10.100  0.5047  0.9251  0.3731
  999MOL0     C34759   7.577   1.612  10.225 -0.4546  1.7531  0.1150
  999MOL0     O34760   7.713   1.613  10.208  0.4912 -0.2109 -0.8108
  999MOL0     C34761   7.794   1.557  10.309  0.4274  0.3117  0.0357
  999MOL0     C34762   7.886   1.636  10.363  0.2074  0.1442 -0.7274
  999MOL0     C34763   7.973   1.590  10.463  0.1459  0.1380  0.1644
  999MOL0     C34764   7.986   1.455  10.493 -0.1953 -0.4855 -0.4715
  999MOL0     O34765   8.081   1.408  10.577  0.0176 -0.2289  0.2558
  999MOL0     C34766   8.190   1.503  10.613 -0.3389 -0.1993  0.3195
  999MOL0     C34767   8.305   1.435  10.684  0.4427  0.0667 -0.1692
  999MOL0     C34768   8.256   1.409  10.822 -0.9584  0.2578 -0.0612
  999MOL0     C34769   8.366   1.338  10.906  0.1652 -0.1266 -0.2950
  999MOL0     C34770   8.339   1.287  11.049  0.0252  0.1987  0.2144
  999MOL0     C34771   8.462   1.255  11.140 -0.2328  0.0018  0.0640
  999MOL0     C34772   8.535   1.120  11.115  0.8730  0.8680 -0.2244
  999MOL0     C34773   8.597   1.095  10.975 -0.4891  0.0166  0.4691
  999MOL0    Cl34774   8.688   1.229  10.918 -0.3652 -0.2667  0.1809
  999MOL0     C34775   7.892   1.363  10.427 -0.2916  0.1421  0.0769
  999MOL0     C34776   7.796   1.423  10.342 -0.1516 -0.1381  1.0313
  999MOL0     O34777   7.516   1.592  10.329  0.1506  0.6014 -0.3471
  999MOL0     C34778   7.549   1.688   9.989  0.3394 -0.3925  0.0078
  999MOL0     C34779   7.480   1.733   9.877 -0.2246  1.1378  0.0205
  999MOL0     N34780   7.649   1.753   9.561 -0.6448  0.8954  0.3135
  999MOL0     N34781   7.762   1.721   9.628 -0.3036  0.2387 -0.1805
  999MOL0     C34782   8.817   1.300   9.632  0.6078 -0.8829 -0.3292
  999MOL0     C34783   8.903   1.195   9.613  0.2694  0.7517 -0.3885
  999MOL0     C34784   9.102   0.862   9.336 -0.1935  0.3008 -0.0056
  999MOL0     C34785   9.116   0.788   9.456 -0.6039  0.0178  0.6136
  999MOL0     C34786   9.165   0.664   9.441 -1.2234  0.1349 -0.1515
  999MOL0     C34787   9.200   0.597   9.328 -0.4561 -0.3309  0.6248
  999MOL0     O34788   9.260   0.476   9.319  0.1989  0.0457  0.1059
  999MOL0     C34789   9.290   0.406   9.432 -0.0010  0.3860  0.7141
  999MOL0     C34790   9.429   0.437   9.487 -1.1219 -0.8522  0.4419
  999MOL0     C34791   9.535   0.403   9.382 -0.8536 -0.7614  0.3357
  999MOL0     C34792   9.673   0.342   9.426  0.1931 -0.1273  0.0844
  999MOL0     C34793   9.682   0.200   9.399  0.6510  0.9004 -0.1674
  999MOL0     C34794   9.678   0.082   9.364 -0.1832  0.1294 -0.2428
  999MOL0     C34795   9.182   0.674   9.208 -0.3942  0.9120  0.0866
  999MOL0     C34796   9.131   0.801   9.209  0.0593 -0.3606  0.1029
  999MOL0     C34797   9.101   0.863   9.078  0.3281 -0.2009  0.1212
  999MOL0     H34798   8.841   1.136   9.287  1.2465  2.2734 -1.0705
  999MOL0     H34799   8.692   1.333   9.320 -2.2874 -3.1895 -0.9372
  999MOL0     H34800   8.701   1.582   9.687 -0.6015 -0.3923 -0.3563
  999MOL0     H34801   8.566   1.616   9.625  0.1155  0.4446  0.3287
  999MOL0     H34802   8.529   1.499   9.832 -2.9079 -0.6488  0.3565
  999MOL0     H34803   8.586   1.345   9.761 -1.7369 -0.6532  2.2529
  999MOL0     H34804   8.404   1.345   9.603  0.9470 -2.1715  1.5115
  999MOL0     H34805   8.351   1.509   9.646  0.4843 -0.3481 -1.4407
  999MOL0     H34806   8.306   1.253   9.797  0.1107 -1.0154 -2.0085
  999MOL0     H34807   8.316   1.415   9.881  0.5017  1.3921 -1.6682
  999MOL0     H34808   8.139   1.381   9.650  0.5776 -1.5157 -0.6407
  999MOL0     H34809   8.093   1.320   9.808  1.2081 -1.9076 -0.8116
  999MOL0     H34810   8.099   1.549   9.908 -3.6759 -0.8684  0.6131
  999MOL0     H34811   8.145   1.611   9.739 -1.0251 -1.4443 -1.5825
  999MOL0     H34812   7.910   1.639   9.792  0.4783  0.1190  0.2695
  999MOL0     H34813   7.898   1.457   9.814  1.9430 -1.3748 -0.8854
  999MOL0     H34814   7.986   1.605   9.550  0.7934 -2.3565 -1.5937
  999MOL0     H34815   7.923   1.437   9.559 -0.6399 -1.0372  0.6726
  999MOL0     H34816   7.674   1.429   9.485  0.0477 -0.2454  2.9609
  999MOL0     H34817   7.462   1.744   9.391  1.8409 -0.2141  1.4609
  999MOL0     H34818   7.514   1.609   9.300  0.0011  1.7096 -0.5632
  999MOL0     H34819   7.286   1.602   9.383 -0.5506  0.4507  1.0471
  999MOL0     H34820   7.381   1.460   9.433  1.3961 -0.5671  1.7589
  999MOL0     H34821   7.397   1.549   9.669 -1.6546  0.7472  1.6585
  999MOL0     H34822   7.233   1.526   9.611  2.0333 -2.3346  1.9820
  999MOL0     H34823   7.226   1.779   9.569  0.5212  0.0026 -1.1092
  999MOL0     H34824   7.397   1.791   9.627 -0.8239  2.4602  0.1155
  999MOL0     H34825   7.170   1.654   9.985  0.7652  0.2016 -0.5811
  999MOL0     H34826   7.307   1.582  10.177  0.7869 -0.4982 -0.9521
  999MOL0     H34827   7.884   1.739  10.328 -0.5688 -0.6344 -3.1361
  999MOL0     H34828   8.037   1.664  10.509  0.0306 -0.6002  1.5672
  999MOL0     H34829   8.230   1.538  10.518 -2.3478 -1.0971 -0.9335
  999MOL0     H34830   8.158   1.585  10.678 -1.4496  0.1348 -0.6299
  999MOL0     H34831   8.333   1.347  10.625 -0.2130 -0.7228  0.6676
  999MOL0     H34832   8.389   1.504  10.686  1.2246 -0.8609 -0.3255
  999MOL0     H34833   8.237   1.503  10.876  1.0870  1.0612 -0.6350
  999MOL0     H34834   8.170   1.342  10.815 -0.3502 -0.8195  1.9874
  999MOL0     H34835   8.457   1.397  10.919  2.4381 -3.5942  1.2069
  999MOL0     H34836   8.391   1.255  10.839  0.5645 -1.2215  1.1586
  999MOL0     H34837   8.280   1.197  11.031 -0.8757  1.4488 -4.8292
  999MOL0     H34838   8.270   1.357  11.097 -2.1551 -0.2867 -2.0065
  999MOL0     H34839   8.537   1.335  11.142 -1.5840  1.3990  3.6339
  999MOL0     H34840   8.411   1.255  11.237 -0.2216 -0.4714  0.0693
  999MOL0     H34841   8.464   1.037  11.125  0.6992  1.0692  0.2411
  999MOL0     H34842   8.609   1.110  11.196 -0.9304 -1.7660  1.2625
  999MOL0     H34843   8.656   1.004  10.973 -0.1207  0.2656 -0.6115
  999MOL0     H34844   8.511   1.077  10.909 -0.6582 -0.3938  0.7961
  999MOL0     H34845   7.917   1.258  10.435  2.8379  0.5781 -2.1093
  999MOL0     H34846   7.735   1.351  10.288 -2.0734  2.1404  0.0060
  999MOL0     H34847   7.657   1.687   9.978  0.5903  1.5737  1.7440
  999MOL0     H34848   7.538   1.761   9.790  0.1996  1.0348  0.2690
  999MOL0     H34849   8.821   1.359   9.723 -1.5694 -0.4650 -0.4728
  999MOL0     H34850   8.976   1.162   9.686  1.3910  1.4384 -1.1616
  999MOL0     H34851   9.103   0.838   9.552 -0.6549  1.3748 -0.0823
  999MOL0     H34852   9.174   0.611   9.535  0.1366  1.1791  0.3494
  999MOL0     H34853   9.287   0.305   9.390 -1.2794  1.1204 -1.1138
  999MOL0     H34854   9.213   0.408   9.510 -1.6432 -0.8668 -0.7867
  999MOL0     H34855   9.460   0.388   9.579  0.3990 -1.1064 -0.1852
  999MOL0     H34856   9.437   0.545   9.501 -1.3686 -0.6338 -0.9694
  999MOL0     H34857   9.558   0.496   9.330  1.2756 -1.8612 -0.8692
  999MOL0     H34858   9.501   0.345   9.295  2.0231  0.7581 -2.0200
  999MOL0     H34859   9.747   0.397   9.368 -0.1327 -0.9097 -1.0957
  999MOL0     H34860   9.688   0.360   9.533 -1.2638  0.6667  0.1863
  999MOL0     H34861   9.692  -0.019   9.333  0.4953  0.1571 -0.0449
  999MOL0     H34862   9.209   0.633   9.112 -1.4474 -0.9615  0.5353
  999MOL0     H34863   9.156   0.958   9.067  0.9784 -0.7851 -2.6977
  999MOL0     H34864   9.135   0.818   8.984 -3.6146  0.4117 -1.8242
  999MOL0     H34865   8.994   0.882   9.073  0.5204  0.6668 -2.4901
 1000MOL0     O34866   8.295   6.564   7.832 -0.0556 -0.1857  0.4159
 1000MOL0     C34867   8.276   6.584   7.711 -0.4541  0.0729  0.3877
 1000MOL0     O34868   8.350   6.659   7.624 -0.2344 -0.1555 -0.1164
 1000MOL0     C34869   8.451   6.742   7.681 -0.3785 -0.0972  1.0379
 1000MOL0     C34870   8.586   6.726   7.654  0.5131 -0.0753  0.2284
 1000MOL0     C34871   8.689   6.803   7.724 -0.1099 -0.1201 -0.4269
 1000MOL0     C34872   8.655   6.915   7.802 -0.2750  1.1311 -0.6506
 1000MOL0     O34873   8.758   7.004   7.829  0.2001  0.6203  0.0478
 1000MOL0     C34874   8.759   7.057   7.960 -0.6924 -0.0420 -0.1268
 1000MOL0     C34875   8.799   6.949   8.059 -0.2456  0.6435 -0.7884
 1000MOL0     C34876   8.934   6.877   8.020  0.1971  0.4386 -0.5898
 1000MOL0     C34877   9.060   6.961   8.031 -0.5076 -1.1971 -0.1389
 1000MOL0     C34878   9.189   6.881   7.996 -0.1906  0.2599  0.0527
 1000MOL0     C34879   9.310   6.978   7.954  0.1538  0.5955  0.3716
 1000MOL0     C34880   9.291   7.043   7.823 -0.0634  0.2966 -0.6139
 1000MOL0     C34881   9.431   7.083   7.764  0.1622  1.0878 -0.0157
 1000MOL0     N34882   9.499   6.966   7.701 -0.1625 -1.5501 -0.0649
 1000MOL0     C34883   9.629   6.933   7.731 -0.2142 -0.1056 -0.4677
 1000MOL0     C34884   9.653   6.833   7.638 -0.8259 -0.8744  0.7373
 1000MOL0     C34885   9.778   6.750   7.624 -0.2594  0.5581  0.5703
 1000MOL0     C34886   9.886   6.840   7.558  0.6778  0.4501 -0.2789
 1000MOL0     C34887   9.892   6.828   7.401  0.5804 -0.5205 -0.4911
 1000MOL0     C34888  10.018   6.891   7.334  0.8416 -0.1359  0.1251
 1000MOL0     O34889  10.133   6.889   7.423  0.2311 -0.6702  0.5717
 1000MOL0     C34890  10.255   6.910   7.368 -0.1847  0.1058  0.5154
 1000MOL0     C34891  10.359   6.950   7.457 -1.2014 -0.5409 -0.0614
 1000MOL0     C34892  10.493   6.977   7.415 -0.4454  0.8295 -0.1509
 1000MOL0     C34893  10.526   6.948   7.280 -0.0731  0.2713  0.1962
 1000MOL0     C34894  10.658   6.960   7.230 -0.0798  0.0065  0.7466
 1000MOL0     O34895  10.705   6.868   7.131  0.6642  0.1208  0.1884
 1000MOL0     C34896  10.834   6.871   7.081  0.1785 -0.0334  0.3676
 1000MOL0     C34897  10.902   6.749   7.062  1.2131  0.9719 -0.1121
 1000MOL0     C34898  11.036   6.753   7.012  0.2398 -0.5006 -0.1117
 1000MOL0     C34899  11.097   6.871   6.992 -1.0193  0.3939  0.2627
 1000MOL0     O34900  11.227   6.883   6.930 -0.0638  0.5410  0.4934
 1000MOL0     C34901  11.296   6.759   6.920 -0.3306  0.0714 -0.4287
 1000MOL0     C34902  11.440   6.797   6.883 -0.1370  0.8074  0.6541
 1000MOL0     C34903  11.518   6.848   7.000  0.6605 -0.7325  0.1694
 1000MOL0     C34904  11.596   6.738   7.076  0.3288 -0.2476 -0.2095
 1000MOL0     C34905  11.611   6.771   7.231 -0.0357  0.3671 -0.0193
 1000MOL0     C34906  11.709   6.880   7.253 -0.4109 -0.1043 -0.5207
 1000MOL0     C34907  11.737   6.912   7.404 -0.2895  0.2250 -0.1085
 1000MOL0     C34908  11.837   7.038   7.420 -0.4162 -0.2925 -0.4838
 1000MOL0    Cl34909  11.998   6.967   7.387  0.3620  0.4208 -0.0069
 1000MOL0     C34910  11.031   6.989   7.015 -0.1842  0.3844  0.2138
 1000MOL0     C34911  10.898   6.991   7.057 -0.1378 -0.6592  0.1456
 1000MOL0     O34912  10.724   7.048   7.285 -0.4293  0.1559 -0.1548
 1000MOL0     C34913  10.420   6.918   7.189 -0.2403 -0.0569  0.4999
 1000MOL0     C34914  10.289   6.905   7.229  0.4576 -0.0370  0.5535
 1000MOL0     N34915   9.540   6.807   7.560 -0.7519 -0.6115 -0.0692
 1000MOL0     N34916   9.452   6.895   7.590 -0.0717  0.2956 -0.1231
 1000MOL0     C34917   8.522   6.941   7.819  0.1185  0.5051 -0.2859
 1000MOL0     C34918   8.424   6.846   7.776 -1.0442 -0.3756 -0.1803
 1000MOL0     C34919   8.142   6.564   7.660  0.9464  0.3934  0.9112
 1000MOL0     C34920   8.027   6.608   7.728 -0.4278  0.1213 -0.8417
 1000MOL0     C34921   7.903   6.573   7.684  0.5106  0.3771 -0.5215
 1000MOL0     C34922   7.885   6.507   7.565 -0.4340 -0.2895 -0.0552
 1000MOL0     O34923   7.759   6.488   7.521 -0.0980  0.0431  0.6237
 1000MOL0     C34924   7.674   6.604   7.509  0.2757 -0.3008  0.4551
 1000MOL0     C34925   7.558   6.592   7.617 -0.6942 -0.0212  0.3854
 1000MOL0     C34926   7.474   6.465   7.603  0.6161 -0.2344  0.0211
 1000MOL0     C34927   7.411   6.434   7.741 -0.0702  0.5164  0.5019
 1000MOL0     C34928   7.505   6.388   7.839 -0.5761  0.3645 -0.0033
 1000MOL0     C34929   7.605   6.343   7.889  0.1838  0.0888  0.0432
 1000MOL0     C34930   7.995   6.471   7.486  0.2701 -0.6805  0.1539
 1000MOL0     C34931   8.124   6.506   7.532  0.4615 -0.3338 -0.3489
 1000MOL0     C34932   8.242   6.465   7.446 -0.2160 -0.6725  0.2194
 1000MOL0     H34933   8.615   6.650   7.582 -1.4169  1.2444 -2.1126
 1000MOL0     H34934   8.793   6.777   7.706 -0.7946 -1.6825 -2.5918
 1000MOL0     H34935   8.816   7.150   7.965  0.5306 -0.7976  0.3499
 1000MOL0     H34936   8.661   7.095   7.989 -0.6707 -2.4306  3.7662
 1000MOL0     H34937   8.724   6.869   8.058  0.8834 -0.4699 -1.8115
 1000MOL0     H34938   8.807   6.990   8.160 -1.1849 -1.8036  0.3593
 1000MOL0     H34939   8.919   6.843   7.917 -3.0089  1.7792 -0.6905
 1000MOL0     H34940   8.949   6.788   8.081 -1.2019  0.9158  0.5122
 1000MOL0     H34941   9.049   7.044   7.961  2.8420 -1.3297 -1.0014
 1000MOL0     H34942   9.077   7.000   8.131 -2.1334 -0.4277 -0.1428
 1000MOL0     H34943   9.215   6.834   8.091  2.2204  1.5068  0.0878
 1000MOL0     H34944   9.182   6.798   7.924 -4.1961 -0.1810  0.7068
 1000MOL0     H34945   9.330   7.040   8.043 -1.2408 -0.7851  1.7172
 1000MOL0     H34946   9.399   6.917   7.943 -1.4842 -1.5304 -2.1661
 1000MOL0     H34947   9.239   7.137   7.844 -2.5603  0.1572 -5.0090
 1000MOL0     H34948   9.226   6.980   7.761 -0.5195 -0.6978  0.8351
 1000MOL0     H34949   9.411   7.160   7.689 -2.8975 -0.5549 -1.0837
 1000MOL0     H34950   9.492   7.107   7.851 -1.7675 -1.9808  2.4030
 1000MOL0     H34951   9.687   6.966   7.816  0.9817  1.9970 -2.0193
 1000MOL0     H34952   9.819   6.723   7.722  1.5041  1.4835  0.1319
 1000MOL0     H34953   9.757   6.666   7.557  0.3643  1.1441 -0.3952
 1000MOL0     H34954   9.871   6.946   7.577 -2.0790 -0.2299  2.0146
 1000MOL0     H34955   9.981   6.804   7.599  0.5097  2.2704  1.8611
 1000MOL0     H34956   9.804   6.875   7.356 -0.6608 -3.0083 -0.8424
 1000MOL0     H34957   9.887   6.724   7.368 -1.1075 -0.7987  0.5262
 1000MOL0     H34958  10.011   6.991   7.290 -2.6120 -1.6623 -3.3202
 1000MOL0     H34959  10.035   6.816   7.255  0.3587 -2.3167  1.9829
 1000MOL0     H34960  10.343   6.952   7.564  0.4248 -1.2579  0.2271
 1000MOL0     H34961  10.557   7.009   7.496 -1.7605  0.6338  1.0097
 1000MOL0     H34962  10.844   6.658   7.071 -2.4388  2.9546 -1.2718
 1000MOL0     H34963  11.090   6.662   6.989  0.3261 -0.4150 -0.2437
 1000MOL0     H34964  11.292   6.696   7.010 -0.8961  0.0307 -0.4779
 1000MOL0     H34965  11.252   6.696   6.842 -1.1184  1.0285 -0.7753
 1000MOL0     H34966  11.487   6.707   6.843 -1.8200  0.9068 -1.7419
 1000MOL0     H34967  11.446   6.865   6.797  1.4277 -1.2118 -0.9240
 1000MOL0     H34968  11.589   6.927   6.976  0.4651 -0.5017  0.3427
 1000MOL0     H34969  11.442   6.884   7.070 -1.7017 -2.8012 -1.1719
 1000MOL0     H34970  11.696   6.729   7.033  1.0902 -0.3044  1.4765
 1000MOL0     H34971  11.547   6.640   7.067  0.2584 -0.4505  1.8344
 1000MOL0     H34972  11.646   6.680   7.282  2.0255 -0.0991 -2.0791
 1000MOL0     H34973  11.516   6.805   7.273 -2.7056 -0.2572 -4.8874
 1000MOL0     H34974  11.798   6.844   7.201 -1.0501 -1.2523 -0.8549
 1000MOL0     H34975  11.675   6.968   7.197 -0.7711  0.4489  0.5367
 1000MOL0     H34976  11.773   6.824   7.459  0.4698 -0.3436 -1.4801
 1000MOL0     H34977  11.648   6.939   7.461  1.7793 -1.2317  4.3558
 1000MOL0     H34978  11.813   7.120   7.353  0.8204 -0.7077 -1.4936
 1000MOL0     H34979  11.833   7.057   7.527 -0.4526  0.3171 -0.5926
 1000MOL0     H34980  11.082   7.075   6.973 -1.8342  0.7515 -1.1723
 1000MOL0     H34981  10.850   7.088   7.065 -1.3367 -1.0711 -1.4877
 1000MOL0     H34982  10.443   6.914   7.083  2.6038  0.2003  1.0342
 1000MOL0     H34983  10.218   6.885   7.149  0.8558  0.9614 -0.0660
 1000MOL0     H34984   8.488   7.030   7.871 -1.8684  1.0663 -2.4051
 1000MOL0     H34985   8.321   6.860   7.807 -0.9206  1.0272 -0.3017
 1000MOL0     H34986   8.046   6.665   7.818  2.2893 -1.6793 -0.1683
 1000MOL0     H34987   7.817   6.588   7.748  0.7213 -3.0617  0.7975
 1000MOL0     H34988   7.635   6.616   7.408 -3.8361  1.9592  2.0727
 1000MOL0     H34989   7.735   6.693   7.529  1.9297 -1.3487  0.2992
 1000MOL0     H34990   7.501   6.685   7.620 -0.8942 -0.1294  0.0152
 1000MOL0     H34991   7.604   6.583   7.716 -1.6479 -0.8890  0.7621
 1000MOL0     H34992   7.538   6.392   7.552  2.4615  3.3074 -3.2663
 1000MOL0     H34993   7.391   6.484   7.535  1.4152  0.1453 -0.8679
 1000MOL0     H34994   7.360   6.519   7.788 -0.6415 -0.3309  1.4574
 1000MOL0     H34995   7.341   6.355   7.713  1.2049  0.2642 -2.4117
 1000MOL0     H34996   7.680   6.290   7.945 -0.7945 -0.2771  1.0668
 1000MOL0     H34997   7.980   6.407   7.400 -2.0600  1.1006 -0.8750
 1000MOL0     H34998   8.259   6.543   7.372  1.7406  0.5633  1.8743
 1000MOL0     H34999   8.337   6.452   7.499  0.8817 -1.0342 -1.7237
 1000MOL0     H35000   8.222   6.372   7.391 -1.6050 -3.1414  4.4302
 1001MOL0     O35001   9.416   9.183   3.351  0.0445 -0.0323 -0.4564
 1001MOL0     C35002   9.393   9.076   3.306 -0.5097 -0.1937  1.3747
 1001MOL0     O35003   9.280   9.003   3.314  0.6925  0.1109 -0.4008
 1001MOL0     C35004   9.175   9.036   3.395 -0.0591  0.2911  0.5797
 1001MOL0     C35005   9.184   9.125   3.506 -0.5643  1.0264  0.6947
 1001MOL0     C35006   9.087   9.147   3.599  0.0805 -0.0261  0.4057
 1001MOL0     C35007   8.967   9.078   3.587 -0.4608 -0.2701 -0.7875
 1001MOL0     O35008   8.864   9.105   3.662  0.7777  0.6526 -0.3589
 1001MOL0     C35009   8.859   9.025   3.781  0.6737 -0.0355 -0.2704
 1001MOL0     C35010   8.714   9.009   3.825  0.2146  0.2263  0.5178
 1001MOL0     C35011   8.663   9.145   3.869  0.3431 -0.0069  0.0169
 1001MOL0     C35012   8.532   9.130   3.945  0.4673  0.4482  1.0377
 1001MOL0     C35013   8.487   9.249   4.039  0.0132  1.1431 -0.1831
 1001MOL0     C35014   8.427   9.356   3.950  0.4550  0.3554  0.0050
 1001MOL0     C35015   8.390   9.474   4.042  0.0315  0.0221  0.9413
 1001MOL0     C35016   8.362   9.604   3.962  0.7840  0.0868 -0.8650
 1001MOL0     N35017   8.241   9.575   3.893  1.0401 -0.4905  0.0620
 1001MOL0     C35018   8.233   9.539   3.760  0.0535  0.0089  0.3902
 1001MOL0     C35019   8.117   9.475   3.752  1.2226  0.1647  0.8390
 1001MOL0     C35020   8.066   9.402   3.623 -0.7595 -0.4298 -0.2522
 1001MOL0     C35021   8.151   9.276   3.590  0.3371  0.0530 -0.6772
 1001MOL0     C35022   8.113   9.160   3.686  0.2829  0.7835  0.3627
 1001MOL0     C35023   8.168   9.031   3.637 -0.6865  0.0861 -0.6875
 1001MOL0     O35024   8.107   8.982   3.517  0.1164  0.2485 -0.0695
 1001MOL0     C35025   8.166   8.883   3.445  1.3109 -0.6608 -0.5147
 1001MOL0     C35026   8.088   8.831   3.339  0.1566  0.1579  0.3864
 1001MOL0     C35027   8.126   8.715   3.269 -0.0394 -0.0496 -0.7829
 1001MOL0     C35028   8.243   8.645   3.303 -0.2835 -0.4234 -0.5836
 1001MOL0     C35029   8.306   8.532   3.221  0.5224 -0.6100  0.3024
 1001MOL0     O35030   8.436   8.500   3.260  0.5643  0.0750  0.8224
 1001MOL0     C35031   8.508   8.403   3.195  0.3275  0.3792  0.2057
 1001MOL0     C35032   8.478   8.306   3.091 -0.0863 -0.9381  0.1645
 1001MOL0     C35033   8.570   8.208   3.041 -0.4065 -0.6309  0.7876
 1001MOL0     C35034   8.701   8.218   3.077 -0.4033 -0.2399  0.9920
 1001MOL0     O35035   8.794   8.144   3.016  0.5524 -0.2724  0.1012
 1001MOL0     C35036   8.931   8.170   3.038 -0.2591 -1.1286 -0.0223
 1001MOL0     C35037   9.031   8.092   2.949 -0.4203 -0.5663  0.8315
 1001MOL0     C35038   9.150   8.047   3.026 -0.0309  0.1705 -0.0859
 1001MOL0     C35039   9.251   7.990   2.920  0.1233  0.4186 -0.4485
 1001MOL0     C35040   9.365   7.904   2.979 -0.4282  0.0964 -0.9207
 1001MOL0     C35041   9.445   7.983   3.083 -1.2022 -0.4814 -0.4858
 1001MOL0     C35042   9.587   7.942   3.098  0.8114 -0.9870 -0.8383
 1001MOL0     C35043   9.614   7.789   3.108  1.0107  0.6965  0.4031
 1001MOL0    Cl35044   9.782   7.779   3.143 -0.1650 -0.3814 -0.5316
 1001MOL0     C35045   8.736   8.307   3.179  0.2562  0.1287  0.0139
 1001MOL0     C35046   8.638   8.400   3.241  0.6115  0.4780  0.6653
 1001MOL0     O35047   8.243   8.486   3.125  0.1194  0.1396 -0.2768
 1001MOL0     C35048   8.317   8.697   3.409  0.0021 -1.0912  0.0081
 1001MOL0     C35049   8.288   8.824   3.473 -0.0196 -0.4281  0.3041
 1001MOL0     N35050   8.043   9.487   3.870  0.3062 -0.3041 -0.4685
 1001MOL0     N35051   8.124   9.539   3.954  0.2244 -0.0718 -0.2308
 1001MOL0     C35052   8.951   8.999   3.476  0.5153 -0.3646 -0.1882
 1001MOL0     C35053   9.049   8.972   3.380  0.4438 -0.5198 -0.4227
 1001MOL0     C35054   9.515   9.007   3.241 -0.1771  0.5968 -0.1714
 1001MOL0     C35055   9.605   9.087   3.168  0.9944 -0.1767 -0.0579
 1001MOL0     C35056   9.715   9.034   3.104  0.8020 -0.6048  0.2898
 1001MOL0     C35057   9.735   8.897   3.097 -0.3037  0.4300  0.2059
 1001MOL0     O35058   9.848   8.839   3.048  0.4984 -0.0075 -0.9276
 1001MOL0     C35059   9.967   8.886   3.113 -0.0388 -0.6945  0.5204
 1001MOL0     C35060  10.086   8.774   3.104 -0.2189  0.0641  0.3616
 1001MOL0     C35061  10.047   8.671   3.213  0.0581  0.2114  0.4273
 1001MOL0     C35062  10.161   8.564   3.222  0.6422 -0.7338  0.1664
 1001MOL0     C35063  10.164   8.494   3.355  0.4096 -0.5295 -0.5342
 1001MOL0     C35064  10.186   8.437   3.458 -0.3089 -0.0974  0.6278
 1001MOL0     C35065   9.645   8.821   3.163  0.3171  0.1359 -0.1763
 1001MOL0     C35066   9.541   8.876   3.240  0.4482  0.0358  0.0063
 1001MOL0     C35067   9.454   8.773   3.303  0.0211 -0.0768 -0.9543
 1001MOL0     H35068   9.276   9.182   3.517 -0.2289  1.1115 -1.8749
 1001MOL0     H35069   9.101   9.222   3.676  0.7536  1.8002 -1.3846
 1001MOL0     H35070   8.894   8.924   3.757 -1.7331 -0.6883 -1.4519
 1001MOL0     H35071   8.909   9.067   3.869  0.6455 -1.1332  0.2859
 1001MOL0     H35072   8.709   8.930   3.901 -0.6460 -1.4529 -1.1933
 1001MOL0     H35073   8.655   8.983   3.737  3.2777  1.8022 -2.2121
 1001MOL0     H35074   8.643   9.199   3.776 -2.1932  1.8993  1.5276
 1001MOL0     H35075   8.738   9.201   3.927  1.6973 -0.3634 -1.3368
 1001MOL0     H35076   8.463   9.105   3.863  2.6750 -0.1357 -0.7594
 1001MOL0     H35077   8.543   9.046   4.014  2.6831  0.2948  0.5786
 1001MOL0     H35078   8.413   9.205   4.105  0.6179 -0.9722 -0.8501
 1001MOL0     H35079   8.577   9.285   4.089  1.5530 -1.8241 -0.6321
 1001MOL0     H35080   8.504   9.380   3.876  0.3749  1.8134  0.3568
 1001MOL0     H35081   8.339   9.317   3.897  1.6357 -1.6988 -0.5495
 1001MOL0     H35082   8.474   9.494   4.110 -0.7101  0.3492  1.7784
 1001MOL0     H35083   8.314   9.444   4.115  0.5765  0.0989  1.5495
 1001MOL0     H35084   8.341   9.678   4.040 -0.8739 -3.2270  2.1461
 1001MOL0     H35085   8.443   9.640   3.899  0.0163 -1.7179 -2.9962
 1001MOL0     H35086   8.300   9.547   3.675  3.1532 -0.0666  2.6650
 1001MOL0     H35087   7.963   9.367   3.631 -0.0937 -2.5502 -0.3433
 1001MOL0     H35088   8.079   9.468   3.537 -3.3093  0.4676 -0.0200
 1001MOL0     H35089   8.119   9.247   3.489  0.8404  0.7010 -1.0248
 1001MOL0     H35090   8.260   9.287   3.590  0.3427  0.0226 -0.4528
 1001MOL0     H35091   8.004   9.152   3.693  0.2761  1.3063  0.9554
 1001MOL0     H35092   8.149   9.180   3.787 -2.1700 -1.6815  1.8909
 1001MOL0     H35093   8.163   8.959   3.719  0.8961 -0.0253 -0.6722
 1001MOL0     H35094   8.275   9.049   3.625 -1.0630  1.7484 -1.9159
 1001MOL0     H35095   8.005   8.895   3.311  0.4869  0.1793 -0.5827
 1001MOL0     H35096   8.070   8.684   3.182  0.3392 -0.9047 -0.7291
 1001MOL0     H35097   8.380   8.309   3.045 -1.5232  1.6406  3.0404
 1001MOL0     H35098   8.542   8.135   2.966 -0.6307  0.1156  0.1188
 1001MOL0     H35099   8.959   8.274   3.021  2.0758 -1.8702 -1.0939
 1001MOL0     H35100   8.956   8.145   3.142 -2.6521  2.6050  1.6716
 1001MOL0     H35101   8.983   8.001   2.910 -3.3079  0.7129  1.1341
 1001MOL0     H35102   9.062   8.136   2.854 -0.8209 -0.9533  0.5130
 1001MOL0     H35103   9.203   8.126   3.080 -0.2758 -0.4833  1.1570
 1001MOL0     H35104   9.115   7.977   3.102  0.7808 -0.0651  0.0750
 1001MOL0     H35105   9.296   8.069   2.858 -0.5401 -0.9680 -2.7905
 1001MOL0     H35106   9.200   7.921   2.853 -0.4751  0.6791 -0.2662
 1001MOL0     H35107   9.437   7.868   2.905 -2.3346 -2.3285 -1.7187
 1001MOL0     H35108   9.322   7.822   3.037 -1.0802  2.9888  3.1518
 1001MOL0     H35109   9.440   8.087   3.050  0.9305 -1.1111 -3.2140
 1001MOL0     H35110   9.401   7.979   3.183  0.4569  2.0746  0.4386
 1001MOL0     H35111   9.623   8.002   3.183  3.2505 -1.2857 -1.5711
 1001MOL0     H35112   9.638   7.986   3.011  0.3073  0.8439 -0.2477
 1001MOL0     H35113   9.552   7.743   3.186  1.8571  1.1720  1.3659
 1001MOL0     H35114   9.572   7.729   3.027 -2.8056  0.2786  2.4175
 1001MOL0     H35115   8.836   8.302   3.221 -0.4330  0.0100  1.7131
 1001MOL0     H35116   8.668   8.460   3.327 -1.3288  0.3513  1.4954
 1001MOL0     H35117   8.406   8.646   3.445 -1.0346 -2.5889  0.5284
 1001MOL0     H35118   8.357   8.857   3.551 -0.1314 -1.0100  0.6521
 1001MOL0     H35119   8.853   8.955   3.458 -0.0660  0.8851 -0.1607
 1001MOL0     H35120   9.022   8.906   3.298  0.3922 -0.1785 -0.6776
 1001MOL0     H35121   9.594   9.195   3.170 -0.8684 -0.3237 -0.3112
 1001MOL0     H35122   9.798   9.097   3.075  0.7355  1.1221  3.4423
 1001MOL0     H35123   9.954   8.926   3.214 -0.9684  0.3882 -0.0181
 1001MOL0     H35124   9.994   8.964   3.042 -2.0111 -0.1936  0.2747
 1001MOL0     H35125  10.188   8.812   3.116  0.4580 -1.1045 -1.3731
 1001MOL0     H35126  10.084   8.735   3.002 -0.8678  0.8715  0.0433
 1001MOL0     H35127   9.950   8.623   3.195 -1.6612  2.5154  2.7607
 1001MOL0     H35128  10.036   8.725   3.307  0.9008 -0.0763  0.6988
 1001MOL0     H35129  10.139   8.484   3.151 -0.0150 -1.6458  1.3381
 1001MOL0     H35130  10.255   8.601   3.181  0.4754 -2.6391 -2.0895
 1001MOL0     H35131  10.207   8.380   3.547  1.1409 -0.8324 -0.1437
 1001MOL0     H35132   9.666   8.714   3.167  1.1144  0.2929 -0.0285
 1001MOL0     H35133   9.426   8.801   3.405 -0.1967  0.3666 -1.1325
 1001MOL0     H35134   9.361   8.763   3.247  0.0078  0.2991 -0.9991
 1001MOL0     H35135   9.502   8.675   3.312 -1.1354 -0.4438  3.3163
 1002MOL0     O35136   8.484   0.658   6.770 -0.1496  0.3045 -0.4869
 1002MOL0     C35137   8.518   0.538   6.778 -0.6165 -0.1459  0.3967
 1002MOL0     O35138   8.645   0.491   6.790 -0.1610  0.0372 -0.2318
 1002MOL0     C35139   8.740   0.582   6.821  0.7855  0.6409 -0.1363
 1002MOL0     C35140   8.760   0.617   6.956  0.6360  0.0735  0.3048
 1002MOL0     C35141   8.863   0.706   6.981 -1.1106 -0.3346  0.7420
 1002MOL0     C35142   8.944   0.754   6.877  0.3075 -0.7433 -0.9991
 1002MOL0     O35143   9.048   0.845   6.909  0.2168 -0.7679 -0.0689
 1002MOL0     C35144   9.168   0.849   6.840 -0.8139  0.5301  0.3621
 1002MOL0     C35145   9.251   0.965   6.884 -0.6364 -0.4966 -0.4266
 1002MOL0     C35146   9.397   0.969   6.826 -0.1881 -0.0758  0.3914
 1002MOL0     C35147   9.407   1.047   6.693 -0.0173  0.3650 -0.3215
 1002MOL0     C35148   9.546   1.065   6.642  1.3304 -0.2298 -0.5237
 1002MOL0     C35149   9.614   0.937   6.586  0.5244  0.2941  0.5562
 1002MOL0     C35150   9.764   0.950   6.557  0.2068 -0.4968 -0.1526
 1002MOL0     C35151   9.779   1.040   6.431 -0.4837 -0.6480  0.1984
 1002MOL0     N35152   9.911   1.036   6.365 -1.1260 -0.2810  0.5019
 1002MOL0     C35153   9.966   0.932   6.285 -0.2948  0.0042 -0.8212
 1002MOL0     C35154  10.094   0.972   6.250  0.6742  0.8043  0.0222
 1002MOL0     C35155  10.199   0.905   6.167 -0.3680 -0.8422  0.4393
 1002MOL0     C35156  10.164   0.894   6.022  0.2617 -0.1719 -0.9712
 1002MOL0     C35157  10.272   0.824   5.929 -0.4022  0.6571  0.1954
 1002MOL0     C35158  10.286   0.678   5.945 -0.0255  0.0452  0.0337
 1002MOL0     O35159  10.355   0.642   6.065 -0.0552 -0.6355  0.6820
 1002MOL0     C35160  10.491   0.661   6.070  0.8536  0.0167  0.0287
 1002MOL0     C35161  10.552   0.674   6.190  1.3013  0.5783 -1.4653
 1002MOL0     C35162  10.683   0.678   6.208 -0.1511 -0.2048  1.1690
 1002MOL0     C35163  10.770   0.683   6.095  0.2074  0.2535  0.0495
 1002MOL0     C35164  10.913   0.690   6.111  0.4987  0.1229  0.2048
 1002MOL0     O35165  10.965   0.693   6.238 -0.3981  0.0079 -0.5036
 1002MOL0     C35166  11.097   0.684   6.261  0.3363  0.2336  0.5886
 1002MOL0     C35167  11.160   0.574   6.208 -0.3921 -1.3262 -0.4661
 1002MOL0     C35168  11.308   0.563   6.212 -0.5678 -0.0562  0.5972
 1002MOL0     C35169  11.376   0.660   6.280  0.2448 -0.4142  0.7688
 1002MOL0     O35170  11.504   0.640   6.306 -0.1067  0.5621  0.2581
 1002MOL0     C35171  11.562   0.634   6.437 -0.5076 -0.2771  0.1647
 1002MOL0     C35172  11.713   0.598   6.454  0.0169 -0.3098 -0.4508
 1002MOL0     C35173  11.740   0.580   6.599  0.7734 -0.9296 -0.3407
 1002MOL0     C35174  11.892   0.539   6.629 -0.3485  0.8595 -0.6421
 1002MOL0     C35175  11.911   0.538   6.788 -0.7601  0.6488  0.1144
 1002MOL0     C35176  12.061   0.499   6.820 -0.3090  0.7938  0.3724
 1002MOL0     C35177  12.080   0.486   6.967 -0.7568  0.5006 -0.2427
 1002MOL0     C35178  12.219   0.434   7.014 -0.1050  1.3139  0.8545
 1002MOL0    Cl35179  12.230   0.258   6.978  0.5317 -0.1322  0.0916
 1002MOL0     C35180  11.305   0.764   6.336  1.1153 -0.2458  0.0638
 1002MOL0     C35181  11.168   0.785   6.325  0.1583  0.2350 -0.4312
 1002MOL0     O35182  10.978   0.682   6.008 -0.4891  0.3532 -0.2757
 1002MOL0     C35183  10.706   0.675   5.970  0.8270 -0.0780 -0.3944
 1002MOL0     C35184  10.568   0.668   5.955 -0.7081 -0.1931  0.7361
 1002MOL0     N35185  10.108   1.103   6.288 -0.0514 -0.0488  0.0382
 1002MOL0     N35186  10.000   1.143   6.360 -0.0933 -0.1223 -0.0742
 1002MOL0     C35187   8.925   0.711   6.749  0.2671 -0.5081  0.4534
 1002MOL0     C35188   8.830   0.618   6.725  0.8376 -0.4238 -0.0158
 1002MOL0     C35189   8.410   0.432   6.765  0.0104  0.9495  0.3859
 1002MOL0     C35190   8.442   0.299   6.766  0.6902  0.4625  0.3383
 1002MOL0     C35191   8.341   0.194   6.747 -0.0731  0.2636 -0.2802
 1002MOL0     C35192   8.203   0.227   6.743  0.0020  0.1668 -0.7391
 1002MOL0     O35193   8.101   0.132   6.749 -0.6774  0.5984  0.5849
 1002MOL0     C35194   7.963   0.168   6.739  0.2948  0.4976  0.1769
 1002MOL0     C35195   7.880   0.038   6.780  0.3063 -0.5546 -0.4875
 1002MOL0     C35196   7.900   0.021   6.928 -0.5449 -0.0351 -0.3567
 1002MOL0     C35197   7.779  -0.023   7.002  0.4402  0.4191 -0.3616
 1002MOL0     C35198   7.801   0.001   7.147  0.5122 -0.6060  0.2271
 1002MOL0     C35199   7.814   0.014   7.267 -0.3718 -0.3960 -0.3026
 1002MOL0     C35200   8.173   0.367   6.741  0.1195 -0.2501 -0.0082
 1002MOL0     C35201   8.265   0.466   6.744 -0.4676  0.2814  0.3408
 1002MOL0     C35202   8.223   0.605   6.705 -0.3349 -0.6548 -0.8037
 1002MOL0     H35203   8.701   0.581   7.039 -1.0216  2.4296  0.2459
 1002MOL0     H35204   8.891   0.740   7.080  2.1521  1.2620 -0.6002
 1002MOL0     H35205   9.219   0.753   6.851 -1.2912 -0.0693 -2.0664
 1002MOL0     H35206   9.158   0.858   6.731  2.8589 -0.6680 -0.1967
 1002MOL0     H35207   9.258   0.973   6.993  0.2425  2.1345 -0.5875
 1002MOL0     H35208   9.200   1.057   6.853  1.2438  1.0702  0.8411
 1002MOL0     H35209   9.423   0.865   6.808 -3.1245 -0.6234 -1.3830
 1002MOL0     H35210   9.467   1.011   6.898  0.3472  0.0353 -0.1805
 1002MOL0     H35211   9.344   1.001   6.617  1.3220 -0.4889 -0.9560
 1002MOL0     H35212   9.366   1.148   6.702 -0.3035  0.2975 -0.8756
 1002MOL0     H35213   9.537   1.138   6.561 -0.8014 -1.9727 -1.9823
 1002MOL0     H35214   9.609   1.104   6.723 -1.1282  1.3271  0.7532
 1002MOL0     H35215   9.606   0.850   6.652  0.0212  1.0595  1.5309
 1002MOL0     H35216   9.569   0.908   6.490 -0.1370 -0.0688  0.9667
 1002MOL0     H35217   9.792   0.844   6.547 -1.6597 -1.4282  3.0049
 1002MOL0     H35218   9.824   0.988   6.640  2.3610  1.1854 -2.3527
 1002MOL0     H35219   9.709   1.023   6.348 -2.0542  2.2408  0.7988
 1002MOL0     H35220   9.760   1.140   6.469 -0.2697 -0.5099 -0.0552
 1002MOL0     H35221   9.911   0.842   6.258 -4.4574  2.2904 -0.7837
 1002MOL0     H35222  10.290   0.964   6.174 -1.3244  0.5282  2.2319
 1002MOL0     H35223  10.209   0.802   6.202  3.1238 -0.7807 -0.0880
 1002MOL0     H35224  10.069   0.843   6.003  0.3672 -1.4622  1.5414
 1002MOL0     H35225  10.154   0.995   5.982  2.4598  0.2432 -0.6158
 1002MOL0     H35226  10.363   0.883   5.919  0.2227  0.0613  2.0085
 1002MOL0     H35227  10.227   0.830   5.829 -1.6997 -1.0586  0.6165
 1002MOL0     H35228  10.325   0.628   5.856  0.1492  2.2729 -1.2186
 1002MOL0     H35229  10.183   0.642   5.949 -1.6177  4.0421 -0.2253
 1002MOL0     H35230  10.496   0.667   6.283  0.8375  1.8103 -1.6305
 1002MOL0     H35231  10.732   0.685   6.304  2.7539 -0.9344 -0.1305
 1002MOL0     H35232  11.105   0.494   6.159  0.2601 -1.7695 -0.4762
 1002MOL0     H35233  11.360   0.481   6.165 -0.4632  0.0276  0.5666
 1002MOL0     H35234  11.537   0.721   6.499 -1.9328  0.6427 -1.6391
 1002MOL0     H35235  11.516   0.544   6.481 -1.2170 -0.1412 -0.2867
 1002MOL0     H35236  11.734   0.505   6.401  3.4260 -0.2409  0.5418
 1002MOL0     H35237  11.777   0.677   6.412  0.2301 -0.1053  0.2468
 1002MOL0     H35238  11.723   0.672   6.656  0.8001 -0.7119 -0.6780
 1002MOL0     H35239  11.680   0.499   6.642  1.4850 -1.7303 -0.8238
 1002MOL0     H35240  11.962   0.614   6.592 -1.0599  0.9952 -1.7528
 1002MOL0     H35241  11.914   0.439   6.591 -0.8123 -0.3494  2.0439
 1002MOL0     H35242  11.847   0.459   6.828 -2.2383  0.3164 -2.5979
 1002MOL0     H35243  11.887   0.637   6.829  0.8084  0.3176  1.9594
 1002MOL0     H35244  12.084   0.400   6.781  4.5290  1.5627  0.7042
 1002MOL0     H35245  12.133   0.569   6.776  0.3008 -0.2499 -0.3076
 1002MOL0     H35246  12.009   0.410   7.002  1.5283 -0.2902  3.2550
 1002MOL0     H35247  12.057   0.584   7.010  0.4613 -0.8880  4.1140
 1002MOL0     H35248  12.299   0.484   6.960  0.8848 -0.3356  0.7186
 1002MOL0     H35249  12.240   0.467   7.116  2.3841  2.0160  0.1749
 1002MOL0     H35250  11.369   0.832   6.392  1.3424 -0.9763  0.7151
 1002MOL0     H35251  11.126   0.882   6.350 -0.9806 -0.1757 -0.6907
 1002MOL0     H35252  10.768   0.674   5.881  3.3158  1.1763  1.1820
 1002MOL0     H35253  10.534   0.660   5.852 -3.9707 -3.0709  1.8190
 1002MOL0     H35254   8.975   0.742   6.658  1.0343  1.1046  1.3831
 1002MOL0     H35255   8.830   0.584   6.622  0.5653 -2.6583  0.6610
 1002MOL0     H35256   8.547   0.275   6.763  1.1642  1.9638 -4.5516
 1002MOL0     H35257   8.380   0.093   6.745 -2.3178 -0.6672 -0.4698
 1002MOL0     H35258   7.936   0.208   6.641 -2.3806 -2.5985 -0.5386
 1002MOL0     H35259   7.938   0.240   6.817 -2.3716  0.9195 -0.9555
 1002MOL0     H35260   7.902  -0.057   6.730  2.3053 -0.1330 -0.5219
 1002MOL0     H35261   7.778   0.068   6.755  0.0835  0.1924  1.1614
 1002MOL0     H35262   7.918   0.120   6.970 -0.6695 -1.6334  4.0020
 1002MOL0     H35263   7.998  -0.023   6.948  1.0854  2.0847 -2.9970
 1002MOL0     H35264   7.684   0.027   6.980 -1.4025 -3.1924 -1.4395
 1002MOL0     H35265   7.759  -0.130   6.996 -3.5373  0.7621  2.5854
 1002MOL0     H35266   7.823   0.009   7.374 -3.4188 -3.4185 -0.0231
 1002MOL0     H35267   8.069   0.393   6.721  0.3612  0.5066 -0.3311
 1002MOL0     H35268   8.285   0.643   6.624 -0.3065  1.0841 -0.0139
 1002MOL0     H35269   8.117   0.603   6.678 -0.8457 -0.7332  1.0555
 1002MOL0     H35270   8.227   0.676   6.788 -2.3835  1.7487 -2.6143
 1003MOL0     O35271   9.785   5.725   9.992 -0.7068 -0.3171 -0.2893
 1003MOL0     C35272   9.731   5.789   9.910 -0.1538  0.3608  0.8512
 1003MOL0     O35273   9.657   5.901   9.937  0.0651 -0.5607  0.5245
 1003MOL0     C35274   9.682   5.947  10.069  1.1713  0.3475 -0.0723
 1003MOL0     C35275   9.636   5.875  10.178 -0.4170 -1.0398 -1.4796
 1003MOL0     C35276   9.663   5.911  10.309 -0.2284  0.4594 -0.2989
 1003MOL0     C35277   9.735   6.031  10.334  0.0068  0.0579  0.1335
 1003MOL0     O35278   9.780   6.072  10.460  0.5890 -1.2111  0.1568
 1003MOL0     C35279   9.849   5.979  10.535 -0.1568  0.6590  0.2215
 1003MOL0     C35280   9.891   6.048  10.661 -0.6378  0.1433 -1.3019
 1003MOL0     C35281   9.942   5.930  10.752  1.0823  1.0760  0.1188
 1003MOL0     C35282  10.010   5.985  10.882  0.8152  0.1482  0.1728
 1003MOL0     C35283  10.071   5.876  10.969 -0.1135  0.1827 -0.2727
 1003MOL0     C35284  10.135   5.947  11.090  0.2934  0.2771  0.5638
 1003MOL0     C35285  10.232   6.055  11.062  0.3712  0.1470  1.2472
 1003MOL0     C35286  10.297   6.107  11.189  0.8477  0.4966  0.3753
 1003MOL0     N35287  10.417   6.181  11.169  0.6661  0.0890 -0.5968
 1003MOL0     C35288  10.541   6.139  11.132 -0.5420 -0.4689 -0.2080
 1003MOL0     C35289  10.618   6.254  11.143 -1.1348  0.5400  0.0245
 1003MOL0     C35290  10.771   6.280  11.108  1.0488  0.1831 -0.5288
 1003MOL0     C35291  10.854   6.176  11.175  0.2326 -0.5299  0.0099
 1003MOL0     C35292  11.007   6.201  11.144  0.5442 -0.1724 -0.7679
 1003MOL0     C35293  11.052   6.121  11.015  0.2606  0.1963 -0.5034
 1003MOL0     O35294  11.071   5.977  11.053  0.1988  0.1068  0.1722
 1003MOL0     C35295  11.124   5.895  10.953  0.5037 -0.1404  0.2618
 1003MOL0     C35296  11.143   5.758  10.982  0.2704 -0.3099 -0.2415
 1003MOL0     C35297  11.203   5.680  10.879 -1.2416 -0.1015 -0.9164
 1003MOL0     C35298  11.244   5.731  10.757  0.6669 -0.1940  0.0146
 1003MOL0     C35299  11.316   5.650  10.660  0.2236  0.5115  0.5141
 1003MOL0     O35300  11.329   5.513  10.681  0.3591 -0.7493  0.2233
 1003MOL0     C35301  11.427   5.444  10.622  0.2042 -0.9791  0.4592
 1003MOL0     C35302  11.554   5.505  10.595 -0.5981  0.3754 -0.3240
 1003MOL0     C35303  11.655   5.417  10.535 -0.2767  0.3807 -0.1200
 1003MOL0     C35304  11.617   5.291  10.493  0.6881 -0.6570 -0.0805
 1003MOL0     O35305  11.706   5.207  10.444  0.5273 -0.3650  0.0616
 1003MOL0     C35306  11.816   5.235  10.356 -0.5674 -0.4849  0.8265
 1003MOL0     C35307  11.908   5.112  10.356  0.3964  0.4186  0.6148
 1003MOL0     C35308  11.829   4.989  10.322  0.0980 -0.1663  0.3351
 1003MOL0     C35309  11.928   4.882  10.292 -0.2648 -0.0221  0.7696
 1003MOL0     C35310  11.869   4.739  10.255 -0.0080  0.6509  0.0325
 1003MOL0     C35311  11.805   4.664  10.376  0.2805 -0.6968 -0.1527
 1003MOL0     C35312  11.766   4.519  10.353 -0.0099 -0.1215  1.0534
 1003MOL0     C35313  11.701   4.471  10.484  0.3745 -0.0849  0.3548
 1003MOL0    Cl35314  11.604   4.331  10.440 -0.0110  0.2127  0.0114
 1003MOL0     C35315  11.493   5.239  10.521 -0.2921 -0.1216  0.0159
 1003MOL0     C35316  11.406   5.311  10.595  0.5522 -0.1682  0.2584
 1003MOL0     O35317  11.359   5.713  10.563 -0.2800  0.1483 -0.3474
 1003MOL0     C35318  11.209   5.861  10.717  0.0381  0.2061 -0.0320
 1003MOL0     C35319  11.144   5.938  10.816 -0.3871 -0.2405 -0.3687
 1003MOL0     N35320  10.546   6.358  11.192  0.9905 -0.0974 -0.1729
 1003MOL0     N35321  10.427   6.311  11.218  0.6028 -0.5874 -0.1777
 1003MOL0     C35322   9.771   6.109  10.222 -0.9833 -0.0223  0.1586
 1003MOL0     C35323   9.752   6.064  10.095 -0.1669 -0.0264 -0.1955
 1003MOL0     C35324   9.724   5.739   9.766  0.1685 -0.0446  0.3353
 1003MOL0     C35325   9.609   5.780   9.686 -0.8236 -0.1646 -0.7348
 1003MOL0     C35326   9.604   5.742   9.554 -0.4176  0.0501  0.1450
 1003MOL0     C35327   9.694   5.650   9.497 -0.5706  0.6874  0.2700
 1003MOL0     O35328   9.669   5.611   9.367 -0.1802  0.8181 -0.1851
 1003MOL0     C35329   9.760   5.672   9.276 -0.2572  0.5916  0.1311
 1003MOL0     C35330   9.875   5.572   9.236 -0.2767 -0.3913 -0.9310
 1003MOL0     C35331   9.822   5.436   9.184 -0.4548  0.1691  0.5647
 1003MOL0     C35332   9.844   5.429   9.031  0.0044  0.3294  0.5408
 1003MOL0     C35333   9.787   5.545   8.961 -0.2769  0.8040  0.3017
 1003MOL0     C35334   9.745   5.632   8.885 -0.8265  0.0256 -0.8745
 1003MOL0     C35335   9.799   5.609   9.572 -1.0197  0.0878 -0.4544
 1003MOL0     C35336   9.820   5.649   9.707 -0.4893 -1.0616 -0.7198
 1003MOL0     C35337   9.946   5.598   9.775  0.4589  0.4177 -0.4341
 1003MOL0     H35338   9.580   5.783  10.164  0.2511 -1.2478 -2.9368
 1003MOL0     H35339   9.628   5.858  10.396  0.0380  1.2725  0.3143
 1003MOL0     H35340   9.788   5.892  10.561 -2.9526  1.9371 -1.7009
 1003MOL0     H35341   9.933   5.939  10.478 -1.4048 -2.6601  0.4871
 1003MOL0     H35342   9.813   6.101  10.715 -1.5497 -2.5285  0.2101
 1003MOL0     H35343   9.973   6.117  10.638 -0.1689  1.8032  4.0182
 1003MOL0     H35344   9.995   5.855  10.692 -2.0252  0.5418 -2.1557
 1003MOL0     H35345   9.852   5.873  10.778  0.2220  2.4758  0.3036
 1003MOL0     H35346  10.094   6.046  10.847 -0.3013  0.7341 -1.5532
 1003MOL0     H35347   9.950   6.054  10.942 -0.0686 -1.4035  1.1257
 1003MOL0     H35348   9.994   5.804  11.000 -1.2027  1.0782 -0.7881
 1003MOL0     H35349  10.139   5.826  10.900  0.3752  0.2744  0.1415
 1003MOL0     H35350  10.062   5.984  11.163 -0.3587 -0.2242  0.1687
 1003MOL0     H35351  10.177   5.869  11.155 -0.2266 -2.2398 -1.9383
 1003MOL0     H35352  10.191   6.140  11.006  2.1490  0.1847 -0.1036
 1003MOL0     H35353  10.316   6.005  11.013  0.5323  2.1745 -0.7453
 1003MOL0     H35354  10.225   6.168  11.244 -1.8510 -1.6309 -0.5503
 1003MOL0     H35355  10.326   6.025  11.257 -1.9084 -0.0714  0.9940
 1003MOL0     H35356  10.571   6.039  11.102 -1.5249 -0.4663 -1.2647
 1003MOL0     H35357  10.771   6.265  11.000 -1.3189  3.0393 -1.0507
 1003MOL0     H35358  10.793   6.383  11.138  1.7083 -0.4190  1.2323
 1003MOL0     H35359  10.837   6.171  11.283  2.5359 -0.5814  0.4066
 1003MOL0     H35360  10.820   6.076  11.146  1.0830 -0.7214 -0.3347
 1003MOL0     H35361  11.062   6.164  11.232 -0.5245 -0.9651 -0.4068
 1003MOL0     H35362  11.022   6.308  11.129  2.6756 -0.3691 -0.4183
 1003MOL0     H35363  11.150   6.165  10.993  0.8015 -0.7111  0.0264
 1003MOL0     H35364  10.980   6.122  10.933  1.6082 -1.3265 -1.7710
 1003MOL0     H35365  11.110   5.711  11.074 -1.0825  2.5256  0.8050
 1003MOL0     H35366  11.214   5.580  10.920  0.0097  1.0555  1.8722
 1003MOL0     H35367  11.574   5.611  10.607 -0.7875  0.3886 -0.1143
 1003MOL0     H35368  11.758   5.450  10.533 -0.7872  2.0656 -0.5090
 1003MOL0     H35369  11.782   5.265  10.257  1.0403  0.3003  0.4818
 1003MOL0     H35370  11.864   5.323  10.401 -1.7303 -0.0376  1.2235
 1003MOL0     H35371  11.987   5.122  10.281 -0.2271  4.0455  0.2579
 1003MOL0     H35372  11.941   5.117  10.460  0.7354  2.0415  0.4593
 1003MOL0     H35373  11.765   4.949  10.401 -0.9779 -0.1455 -0.5046
 1003MOL0     H35374  11.771   5.010  10.232 -1.4456 -0.4846  1.2173
 1003MOL0     H35375  11.999   4.863  10.373  1.2010  0.0033 -0.4498
 1003MOL0     H35376  11.984   4.909  10.202  2.6425 -3.3738  1.3388
 1003MOL0     H35377  11.954   4.690  10.205  1.1939  2.3082  0.3391
 1003MOL0     H35378  11.785   4.745  10.186 -0.1642 -2.7371 -0.2519
 1003MOL0     H35379  11.882   4.664  10.453 -0.4183 -0.3817  0.5694
 1003MOL0     H35380  11.726   4.723  10.424  2.3688  0.3338  2.2122
 1003MOL0     H35381  11.856   4.459  10.338 -0.0939  0.2334 -1.2595
 1003MOL0     H35382  11.703   4.518  10.263  0.5828  0.8616  0.6058
 1003MOL0     H35383  11.773   4.441  10.561  1.7057 -1.4808 -1.3478
 1003MOL0     H35384  11.635   4.549  10.524  0.3008 -1.0399  2.1654
 1003MOL0     H35385  11.483   5.140  10.478 -2.7385  0.0889 -0.0140
 1003MOL0     H35386  11.305   5.282  10.620  0.4582 -1.6456 -1.6385
 1003MOL0     H35387  11.233   5.908  10.623 -1.2498 -1.5893 -1.3131
 1003MOL0     H35388  11.126   6.039  10.781  1.0651  0.5857  1.1149
 1003MOL0     H35389   9.824   6.202  10.237 -0.4309 -0.3597  0.3234
 1003MOL0     H35390   9.783   6.119  10.006 -0.5116 -0.1922 -0.4221
 1003MOL0     H35391   9.534   5.852   9.716 -1.7877 -0.9315 -1.2767
 1003MOL0     H35392   9.521   5.777   9.493  2.2125 -0.5539 -4.1318
 1003MOL0     H35393   9.791   5.769   9.317 -2.2995  2.9106 -3.2849
 1003MOL0     H35394   9.704   5.702   9.187 -1.0581 -2.1362 -0.3642
 1003MOL0     H35395   9.947   5.558   9.318 -1.1026 -0.6754 -0.2346
 1003MOL0     H35396   9.938   5.618   9.161 -0.8771  3.1832  0.5547
 1003MOL0     H35397   9.715   5.424   9.200 -0.3917 -0.5024  0.5139
 1003MOL0     H35398   9.875   5.353   9.232  0.3570  1.8918  2.7979
 1003MOL0     H35399   9.951   5.419   9.010 -0.1511  0.7997 -0.5715
 1003MOL0     H35400   9.810   5.329   9.002 -1.9783  0.1884  3.0235
 1003MOL0     H35401   9.696   5.694   8.813 -3.1764  0.3395  0.8977
 1003MOL0     H35402   9.866   5.533   9.532  0.0509  1.6232 -1.6876
 1003MOL0     H35403   9.923   5.510   9.835  0.5249  1.9670  1.9758
 1003MOL0     H35404  10.017   5.568   9.697  1.9317 -1.0653  1.3988
 1003MOL0     H35405  10.001   5.675   9.829  4.1009 -0.8011 -2.0784
 1004MOL0     O35406   8.270   3.696   7.680  0.8488  0.5502 -0.0925
 1004MOL0     C35407   8.220   3.747   7.575  0.1029 -0.7769  0.3335
 1004MOL0     O35408   8.275   3.722   7.447 -0.2218  0.4057  0.5695
 1004MOL0     C35409   8.395   3.658   7.440 -0.7712  0.5408  0.2184
 1004MOL0     C35410   8.511   3.729   7.469  0.0027 -0.4590  0.1085
 1004MOL0     C35411   8.632   3.665   7.450 -1.6392  0.4779  0.1696
 1004MOL0     C35412   8.646   3.522   7.428 -0.0852 -0.3585 -0.4906
 1004MOL0     O35413   8.764   3.458   7.407 -0.3726 -0.7835 -0.2976
 1004MOL0     C35414   8.890   3.483   7.482 -0.3044  0.0463  0.0290
 1004MOL0     C35415   8.964   3.351   7.519 -0.2324  0.0679 -0.8752
 1004MOL0     C35416   9.104   3.350   7.587  0.2767 -0.9992  0.4188
 1004MOL0     C35417   9.165   3.213   7.598  0.4283  0.6127  0.4056
 1004MOL0     C35418   9.311   3.228   7.613 -1.0254  0.6111 -0.4555
 1004MOL0     C35419   9.372   3.084   7.641 -0.7475  0.6071  0.7379
 1004MOL0     C35420   9.343   2.978   7.533  0.3721 -0.5246 -0.5067
 1004MOL0     C35421   9.461   2.870   7.522 -0.0200 -0.6767  0.3603
 1004MOL0     N35422   9.500   2.792   7.643  0.5588 -0.8053  0.6827
 1004MOL0     C35423   9.629   2.773   7.690  0.2434 -0.0590 -0.9698
 1004MOL0     C35424   9.612   2.712   7.811  0.3397 -0.0778  0.4036
 1004MOL0     C35425   9.732   2.672   7.888  0.8798  0.0118  0.7970
 1004MOL0     C35426   9.842   2.770   7.903 -0.0504  0.4784 -0.7427
 1004MOL0     C35427   9.834   2.836   8.048  1.0191 -0.0748  0.1901
 1004MOL0     C35428   9.910   2.966   8.058 -0.4341  1.0706 -0.0671
 1004MOL0     O35429  10.051   2.931   8.028 -0.1411 -0.7078  0.2012
 1004MOL0     C35430  10.132   3.029   7.976  0.6867  0.3284  0.6207
 1004MOL0     C35431  10.091   3.173   7.971 -0.1777  0.7257 -0.1732
 1004MOL0     C35432  10.165   3.272   7.908 -0.4597 -0.4635  0.4563
 1004MOL0     C35433  10.283   3.231   7.840 -0.0571 -0.5757 -0.1437
 1004MOL0     C35434  10.365   3.326   7.765 -0.2124 -0.6857 -0.4655
 1004MOL0     O35435  10.490   3.298   7.722  0.4262 -0.4156 -0.1773
 1004MOL0     C35436  10.559   3.386   7.650 -0.5593 -0.1769  0.1589
 1004MOL0     C35437  10.577   3.357   7.517  0.1978  0.9122  0.0407
 1004MOL0     C35438  10.650   3.440   7.429  0.6044  1.4369 -0.4910
 1004MOL0     C35439  10.715   3.552   7.471 -0.4767  0.6118 -0.7490
 1004MOL0     O35440  10.783   3.624   7.374  0.4050  0.4485 -0.1643
 1004MOL0     C35441  10.893   3.562   7.309  0.1710 -0.8938  0.8413
 1004MOL0     C35442  11.018   3.650   7.322 -0.3542  0.1599  0.3461
 1004MOL0     C35443  11.092   3.594   7.443  0.5327 -0.0668  0.1651
 1004MOL0     C35444  11.172   3.698   7.521  0.4815  0.0077 -0.6819
 1004MOL0     C35445  11.207   3.637   7.652 -0.6395 -0.4301  0.0823
 1004MOL0     C35446  11.301   3.727   7.718 -0.4685 -0.1512 -0.4712
 1004MOL0     C35447  11.378   3.664   7.832 -0.2033  0.7892 -0.1985
 1004MOL0     C35448  11.292   3.651   7.964  0.3963  1.1718  0.0935
 1004MOL0    Cl35449  11.390   3.641   8.111 -0.1947  0.2782  0.4711
 1004MOL0     C35450  10.702   3.583   7.608 -0.0063 -1.0010  0.1858
 1004MOL0     C35451  10.623   3.501   7.695 -0.1989  0.8991 -0.8393
 1004MOL0     O35452  10.322   3.437   7.763  0.2562 -0.0282 -0.5401
 1004MOL0     C35453  10.318   3.098   7.833  0.2721  0.5617 -0.8013
 1004MOL0     C35454  10.245   3.001   7.899  0.6253 -0.1101  0.4552
 1004MOL0     N35455   9.474   2.685   7.829 -0.3563 -0.8108 -0.2050
 1004MOL0     N35456   9.416   2.733   7.729 -0.3582  0.7710 -0.7695
 1004MOL0     C35457   8.522   3.451   7.425 -0.8275 -0.4877 -0.4428
 1004MOL0     C35458   8.400   3.523   7.420 -0.7090  1.4676 -0.0091
 1004MOL0     C35459   8.100   3.840   7.579 -0.2671 -0.4988  0.8691
 1004MOL0     C35460   8.048   3.888   7.458 -0.7654 -0.1717 -0.5812
 1004MOL0     C35461   7.937   3.978   7.458 -0.0863  0.0456 -0.3353
 1004MOL0     C35462   7.871   4.019   7.580 -0.6537  0.4621  0.5374
 1004MOL0     O35463   7.778   4.105   7.557  0.3215 -0.6227  0.5120
 1004MOL0     C35464   7.750   4.204   7.650  0.4432  0.6802 -0.3391
 1004MOL0     C35465   7.604   4.241   7.644 -0.4958 -0.2302 -0.4405
 1004MOL0     C35466   7.575   4.371   7.724  0.2040 -0.6236 -0.0845
 1004MOL0     C35467   7.441   4.425   7.677 -0.1626  1.1371  0.4199
 1004MOL0     C35468   7.395   4.544   7.755  0.1485  0.2089  0.0243
 1004MOL0     C35469   7.362   4.643   7.816  0.7263 -0.1588  1.0120
 1004MOL0     C35470   7.916   3.960   7.696 -0.3758  0.3162 -0.5264
 1004MOL0     C35471   8.031   3.883   7.694 -0.5696  0.1422 -0.6518
 1004MOL0     C35472   8.094   3.858   7.831 -0.0469 -0.2556  0.0293
 1004MOL0     H35473   8.499   3.835   7.489 -2.4922  0.2976 -4.1929
 1004MOL0     H35474   8.729   3.712   7.441  1.3220 -4.7839  0.3849
 1004MOL0     H35475   8.950   3.560   7.435 -1.7192  1.2235  0.0870
 1004MOL0     H35476   8.859   3.524   7.579  0.7005  2.5557 -0.6487
 1004MOL0     H35477   8.981   3.297   7.425  2.0460  2.7033 -2.1062
 1004MOL0     H35478   8.888   3.291   7.570 -2.6193  1.8566 -2.1245
 1004MOL0     H35479   9.090   3.393   7.686 -0.9429  0.0333 -0.1700
 1004MOL0     H35480   9.171   3.412   7.525 -1.2715 -0.8954 -1.2368
 1004MOL0     H35481   9.115   3.165   7.682  1.0286 -1.9815 -0.6077
 1004MOL0     H35482   9.129   3.156   7.511 -0.8513  0.0496  1.2742
 1004MOL0     H35483   9.347   3.266   7.517 -0.6722  0.3338 -0.4337
 1004MOL0     H35484   9.340   3.300   7.691  0.7732 -0.8548  0.2967
 1004MOL0     H35485   9.480   3.079   7.654 -0.8075 -0.0689  1.0240
 1004MOL0     H35486   9.326   3.047   7.733 -1.5505  0.8437  0.4470
 1004MOL0     H35487   9.321   3.026   7.437 -1.4876  1.3859  0.7826
 1004MOL0     H35488   9.254   2.923   7.566  0.6721 -0.5552  0.2647
 1004MOL0     H35489   9.450   2.795   7.443  2.0850  1.0499 -1.7166
 1004MOL0     H35490   9.551   2.928   7.498  2.0985 -3.4565  0.9973
 1004MOL0     H35491   9.723   2.814   7.655  1.1444  0.5060  1.8320
 1004MOL0     H35492   9.693   2.657   7.989  1.4770  1.0139  1.1951
 1004MOL0     H35493   9.775   2.581   7.845  2.9315 -0.1446  2.9949
 1004MOL0     H35494   9.935   2.712   7.893 -0.0595  0.0569  1.1579
 1004MOL0     H35495   9.837   2.851   7.831  0.8435 -1.4154 -3.0905
 1004MOL0     H35496   9.858   2.759   8.123 -0.3000 -3.0127 -2.1876
 1004MOL0     H35497   9.733   2.871   8.072  1.4355  0.7626  0.7681
 1004MOL0     H35498   9.913   3.002   8.161  1.1534  2.6559 -0.6327
 1004MOL0     H35499   9.874   3.049   7.997  3.5533  4.2708  1.5177
 1004MOL0     H35500   9.995   3.199   8.015 -0.1967  0.1899  0.1112
 1004MOL0     H35501  10.126   3.374   7.912  1.1768  0.2673 -0.8363
 1004MOL0     H35502  10.534   3.270   7.468  0.9611  1.4765 -1.7068
 1004MOL0     H35503  10.644   3.413   7.324  1.4205  2.6850 -0.8797
 1004MOL0     H35504  10.916   3.459   7.334  3.2472 -0.8223 -1.1170
 1004MOL0     H35505  10.858   3.567   7.205 -1.6017  1.3036  1.4586
 1004MOL0     H35506  11.070   3.649   7.226 -0.6182 -0.3588  0.2045
 1004MOL0     H35507  10.994   3.756   7.334  2.1583  0.9778 -1.1652
 1004MOL0     H35508  11.016   3.551   7.510  0.2069 -0.0113 -0.1654
 1004MOL0     H35509  11.150   3.513   7.399  1.0752  1.2762 -1.6977
 1004MOL0     H35510  11.119   3.792   7.538 -1.1777 -1.1549  0.9896
 1004MOL0     H35511  11.253   3.712   7.449  1.1576 -1.8633 -0.3341
 1004MOL0     H35512  11.250   3.539   7.631 -2.5288 -0.7591 -2.8103
 1004MOL0     H35513  11.113   3.620   7.706 -1.1201  2.5713  0.3986
 1004MOL0     H35514  11.376   3.767   7.648  1.4387  0.3648  1.7558
 1004MOL0     H35515  11.253   3.812   7.766  2.7209  0.9585  1.0267
 1004MOL0     H35516  11.471   3.721   7.835  1.3245 -1.6039 -0.1550
 1004MOL0     H35517  11.409   3.563   7.805 -1.4177  0.1421  0.6927
 1004MOL0     H35518  11.225   3.736   7.983 -1.4755  0.6765 -3.4838
 1004MOL0     H35519  11.217   3.571   7.963  1.1204  0.4523 -2.4011
 1004MOL0     H35520  10.726   3.682   7.645 -0.2525 -0.9822  0.2972
 1004MOL0     H35521  10.587   3.526   7.794 -0.6732 -3.4817  0.3081
 1004MOL0     H35522  10.400   3.065   7.771 -1.2216 -2.4132 -1.3729
 1004MOL0     H35523  10.274   2.896   7.899 -1.3468 -0.6969  0.1997
 1004MOL0     H35524   8.536   3.344   7.424 -0.8854 -0.5546  1.6450
 1004MOL0     H35525   8.312   3.460   7.414  0.5429 -0.2483 -1.7937
 1004MOL0     H35526   8.091   3.867   7.361 -1.2846 -1.4062 -0.5579
 1004MOL0     H35527   7.877   4.003   7.371  0.8617  0.4843 -0.8837
 1004MOL0     H35528   7.822   4.285   7.636  1.8536 -0.2752  1.0088
 1004MOL0     H35529   7.779   4.170   7.750  3.0026 -1.5489 -1.7079
 1004MOL0     H35530   7.547   4.154   7.677 -3.0592  1.5798  0.2125
 1004MOL0     H35531   7.569   4.256   7.541 -1.4149 -0.8377 -0.2301
 1004MOL0     H35532   7.642   4.455   7.703 -2.0677  1.4066  0.3499
 1004MOL0     H35533   7.577   4.347   7.831  0.4075 -0.9152 -0.1527
 1004MOL0     H35534   7.453   4.448   7.571  0.3552 -1.9379 -0.3031
 1004MOL0     H35535   7.368   4.345   7.693  2.0171 -1.8116 -2.8426
 1004MOL0     H35536   7.327   4.735   7.858  0.1619  3.0539 -5.3321
 1004MOL0     H35537   7.858   3.990   7.782  0.1163  1.1365 -0.4676
 1004MOL0     H35538   8.063   3.766   7.881 -3.1620  0.6978  0.0484
 1004MOL0     H35539   8.203   3.860   7.842 -0.1721 -0.2360  1.5682
 1004MOL0     H35540   8.063   3.935   7.902 -0.8138 -1.4250  1.0065
 1005MOL0     O35541   7.062   9.827   0.675 -0.0045  0.3782 -0.7855
 1005MOL0     C35542   6.997   9.929   0.699 -0.3474  0.1115  0.1954
 1005MOL0     O35543   7.051  10.033   0.765  0.3862 -0.4895 -0.6673
 1005MOL0     C35544   7.178  10.033   0.805 -0.1959  0.4734  0.1680
 1005MOL0     C35545   7.262  10.122   0.745  1.0392  0.2397  0.0431
 1005MOL0     C35546   7.400  10.130   0.780  0.2676  0.7158  0.3948
 1005MOL0     C35547   7.444  10.053   0.894 -0.2462  0.2869  0.6358
 1005MOL0     O35548   7.576  10.045   0.940 -0.2201  0.0767  0.5158
 1005MOL0     C35549   7.647  10.165   0.923  0.0233  0.2644  0.4312
 1005MOL0     C35550   7.767  10.153   1.012 -1.1163 -0.0995  0.4877
 1005MOL0     C35551   7.884  10.073   0.949  0.4146  0.4770  0.7863
 1005MOL0     C35552   8.007  10.102   1.032  0.8359 -0.2358 -0.2112
 1005MOL0     C35553   8.130  10.010   0.984  0.7773  0.3302  0.4312
 1005MOL0     C35554   8.256  10.085   1.009 -0.2393 -0.3634  0.2849
 1005MOL0     C35555   8.373  10.010   0.946 -0.0615  0.6219 -0.3181
 1005MOL0     C35556   8.506  10.076   0.942 -0.6220 -0.0601 -0.4342
 1005MOL0     N35557   8.611   9.989   0.878  0.6288 -0.0051  0.3424
 1005MOL0     C35558   8.673  10.014   0.761  0.8564 -0.4927  0.1126
 1005MOL0     C35559   8.756   9.914   0.734 -0.0851 -0.3287  0.5106
 1005MOL0     C35560   8.827   9.883   0.602 -0.3793 -0.6860  0.3239
 1005MOL0     C35561   8.973   9.854   0.627 -0.2155 -0.0746 -0.6945
 1005MOL0     C35562   9.052   9.807   0.506  0.3529 -0.1064 -1.2581
 1005MOL0     C35563   9.207   9.785   0.526  0.8217 -0.4960 -0.1244
 1005MOL0     O35564   9.227   9.673   0.619 -0.0613 -0.1684 -0.9126
 1005MOL0     C35565   9.355   9.620   0.616  0.5601 -0.4779  0.1676
 1005MOL0     C35566   9.408   9.570   0.744 -0.5493  0.3269 -0.2153
 1005MOL0     C35567   9.534   9.512   0.752 -0.3285  0.7561  0.7497
 1005MOL0     C35568   9.610   9.491   0.640  0.2268  0.1387 -0.2037
 1005MOL0     C35569   9.740   9.426   0.657  0.9654 -0.4271 -0.7866
 1005MOL0     O35570   9.773   9.384   0.779  0.1419 -0.4316  0.6253
 1005MOL0     C35571   9.861   9.288   0.782 -0.4489 -0.3760 -0.3750
 1005MOL0     C35572   9.803   9.164   0.823 -0.0977  0.1326 -0.6295
 1005MOL0     C35573   9.887   9.056   0.854 -0.1033 -0.6212  0.2545
 1005MOL0     C35574  10.032   9.078   0.846  0.3179  0.9549 -0.3869
 1005MOL0     O35575  10.125   8.978   0.872  0.1180  0.2145 -0.4308
 1005MOL0     C35576  10.117   8.921   1.001 -0.0473  0.0998 -0.5837
 1005MOL0     C35577  10.251   8.942   1.078  0.3218 -0.0581  0.3283
 1005MOL0     C35578  10.259   8.870   1.215  0.6834 -0.1585 -0.1760
 1005MOL0     C35579  10.381   8.915   1.291  0.4782 -0.1046  0.6139
 1005MOL0     C35580  10.397   8.870   1.440  0.1241 -0.1148  0.9511
 1005MOL0     C35581  10.384   8.714   1.464  0.0570  0.0188  0.1313
 1005MOL0     C35582  10.507   8.643   1.413 -0.3593 -0.1230  0.1083
 1005MOL0     C35583  10.493   8.499   1.465  0.0011  0.4513 -0.3848
 1005MOL0    Cl35584  10.341   8.416   1.399 -0.3371 -0.1076  0.0017
 1005MOL0     C35585  10.082   9.194   0.792  0.4474 -0.8818  0.3886
 1005MOL0     C35586  10.000   9.310   0.764 -0.1415  0.5753  0.3054
 1005MOL0     O35587   9.816   9.429   0.565 -0.8954 -0.0993  0.3008
 1005MOL0     C35588   9.566   9.539   0.519 -0.3700  0.0446  0.3616
 1005MOL0     C35589   9.435   9.597   0.510  0.1107  0.0747 -0.1240
 1005MOL0     N35590   8.739   9.824   0.834 -0.3338  0.3206 -0.0312
 1005MOL0     N35591   8.654   9.866   0.922 -0.2073 -0.0608  0.1919
 1005MOL0     C35592   7.355   9.966   0.959 -0.2958  0.2022  0.1112
 1005MOL0     C35593   7.221   9.960   0.919 -0.6693 -0.0045 -0.3653
 1005MOL0     C35594   6.854   9.933   0.657 -0.4252 -0.9502 -0.3883
 1005MOL0     C35595   6.790   9.826   0.586  0.7133  0.6647  0.5309
 1005MOL0     C35596   6.661   9.824   0.533  0.0259 -0.2440  0.5774
 1005MOL0     C35597   6.579   9.933   0.550 -0.3630 -0.4469 -0.0649
 1005MOL0     O35598   6.462   9.934   0.488 -0.1591 -0.3534  0.2054
 1005MOL0     C35599   6.347  10.017   0.524 -0.1245  0.9027  0.5820
 1005MOL0     C35600   6.234  10.021   0.419  0.2132 -1.0740  0.2148
 1005MOL0     C35601   6.099  10.075   0.474 -0.7338  0.5241  0.4326
 1005MOL0     C35602   5.981  10.069   0.377  0.1750  0.5504 -0.4585
 1005MOL0     C35603   5.980  10.150   0.255  0.1235 -0.9753  0.7522
 1005MOL0     C35604   5.973  10.202   0.145  0.5750  0.5840  0.0614
 1005MOL0     C35605   6.636  10.047   0.619  0.7424  0.0780 -0.3396
 1005MOL0     C35606   6.768  10.047   0.680 -0.9757  0.6055  0.1192
 1005MOL0     C35607   6.812  10.170   0.757  0.8397 -0.0913 -0.8546
 1005MOL0     H35608   7.233  10.193   0.668 -0.2887 -0.6071 -0.2772
 1005MOL0     H35609   7.472  10.188   0.723 -2.1286  1.1983 -2.3590
 1005MOL0     H35610   7.674  10.184   0.818 -1.9257 -0.1350 -0.1921
 1005MOL0     H35611   7.581  10.244   0.960  0.3954  0.1724  1.3106
 1005MOL0     H35612   7.741  10.110   1.109 -4.2624 -0.0926 -0.2418
 1005MOL0     H35613   7.813  10.251   1.027 -0.1403 -0.4836  0.0953
 1005MOL0     H35614   7.899  10.111   0.847 -0.3501  2.1376  1.2546
 1005MOL0     H35615   7.871   9.965   0.942 -1.8097  0.7327  0.3535
 1005MOL0     H35616   8.034  10.208   1.038  2.7363 -0.7476  3.3556
 1005MOL0     H35617   7.991  10.063   1.133  0.6882  0.0993 -0.1049
 1005MOL0     H35618   8.134   9.911   1.030 -1.0781  0.8527  1.8217
 1005MOL0     H35619   8.125  10.003   0.875  2.8980 -0.5001  0.3410
 1005MOL0     H35620   8.239  10.180   0.958  3.9175 -0.6641 -2.1160
 1005MOL0     H35621   8.282  10.108   1.113 -1.1946  0.1803  0.4144
 1005MOL0     H35622   8.337   9.993   0.844 -0.3811 -0.9442  0.0341
 1005MOL0     H35623   8.376   9.916   1.002  1.1560  0.4450 -0.6614
 1005MOL0     H35624   8.506  10.172   0.889 -1.4970  0.6207  0.7552
 1005MOL0     H35625   8.530  10.090   1.048  1.8604 -1.5487 -0.7271
 1005MOL0     H35626   8.648  10.094   0.692 -1.4902 -0.6337  0.7007
 1005MOL0     H35627   8.786   9.790   0.560  0.4077 -1.6388  1.5799
 1005MOL0     H35628   8.812   9.968   0.535  0.2597  1.4112  2.7043
 1005MOL0     H35629   9.012   9.949   0.666 -0.7826  1.2351 -3.0688
 1005MOL0     H35630   8.976   9.786   0.712 -0.9843  0.8624  0.0927
 1005MOL0     H35631   9.048   9.875   0.421  1.0195 -1.1101 -2.1183
 1005MOL0     H35632   9.014   9.707   0.479  0.5063 -0.8650  1.1296
 1005MOL0     H35633   9.247   9.879   0.564 -1.5599  0.1017  1.1421
 1005MOL0     H35634   9.256   9.764   0.431 -0.2180 -2.0612 -0.3677
 1005MOL0     H35635   9.346   9.572   0.833  0.8760  1.6677  0.8053
 1005MOL0     H35636   9.566   9.452   0.837 -0.1874 -4.3330 -2.5182
 1005MOL0     H35637   9.696   9.154   0.833 -0.0291  0.2542  0.3858
 1005MOL0     H35638   9.854   8.956   0.880 -4.6080  0.5008 -0.4001
 1005MOL0     H35639  10.034   8.951   1.066 -1.1059 -0.8312 -1.4735
 1005MOL0     H35640  10.114   8.813   0.985  2.4099  0.0280 -0.9890
 1005MOL0     H35641  10.332   8.897   1.021 -1.0787 -1.2493 -0.8102
 1005MOL0     H35642  10.256   9.051   1.066  1.4538 -0.3396 -2.2677
 1005MOL0     H35643  10.171   8.891   1.275 -0.6621 -0.1421 -2.0535
 1005MOL0     H35644  10.268   8.761   1.201 -3.4622 -0.6136 -0.4392
 1005MOL0     H35645  10.376   9.024   1.292  1.7436 -0.0322  0.6277
 1005MOL0     H35646  10.471   8.895   1.233  0.7355  1.5638  0.3868
 1005MOL0     H35647  10.324   8.924   1.501 -1.7230 -1.2434 -0.1677
 1005MOL0     H35648  10.496   8.910   1.465  1.8054 -2.3854 -1.5039
 1005MOL0     H35649  10.355   8.692   1.567  0.5461 -1.9495 -0.0966
 1005MOL0     H35650  10.302   8.675   1.402  0.6880 -2.5144  0.7525
 1005MOL0     H35651  10.599   8.691   1.448 -1.5464  2.0918  0.3535
 1005MOL0     H35652  10.515   8.644   1.304 -0.9027 -1.9278  0.0101
 1005MOL0     H35653  10.584   8.454   1.423  1.1269  2.4209 -0.1581
 1005MOL0     H35654  10.498   8.490   1.574 -0.8915 -2.2895 -0.4794
 1005MOL0     H35655  10.187   9.188   0.766  0.0192 -3.0980 -1.1010
 1005MOL0     H35656  10.037   9.397   0.710  3.9567  0.0435  1.8962
 1005MOL0     H35657   9.621   9.519   0.428  0.7248  1.3336  0.7110
 1005MOL0     H35658   9.400   9.625   0.411  1.4140  1.5697 -0.2077
 1005MOL0     H35659   7.392   9.912   1.045  0.9856 -2.0657 -1.7313
 1005MOL0     H35660   7.157   9.890   0.972 -0.5475 -1.8970 -2.5533
 1005MOL0     H35661   6.846   9.738   0.555  2.7797  1.6361  1.3851
 1005MOL0     H35662   6.621   9.740   0.477 -3.7389  1.0760  0.9621
 1005MOL0     H35663   6.384  10.120   0.528  0.1996  0.8640 -0.7552
 1005MOL0     H35664   6.310   9.978   0.619  0.7228 -1.5160 -0.0108
 1005MOL0     H35665   6.205   9.927   0.372 -2.3472  1.2978 -3.4226
 1005MOL0     H35666   6.274  10.085   0.339  2.3524 -2.1663  0.3293
 1005MOL0     H35667   6.117  10.183   0.484 -0.2439  0.2759  2.6310
 1005MOL0     H35668   6.076  10.028   0.569 -2.8782 -0.6215 -0.5739
 1005MOL0     H35669   5.959   9.967   0.344  0.4923  1.1486 -2.6687
 1005MOL0     H35670   5.894  10.090   0.440  0.9321 -0.0638  0.8330
 1005MOL0     H35671   6.001  10.262   0.061 -3.7996  0.5002 -1.6911
 1005MOL0     H35672   6.578  10.138   0.627 -0.1721 -0.3706 -1.5579
 1005MOL0     H35673   6.730  10.241   0.740 -1.4929 -3.0186 -2.9643
 1005MOL0     H35674   6.828  10.142   0.862  2.6403  2.8394 -0.2473
 1005MOL0     H35675   6.907  10.205   0.717  2.5884 -1.4837  1.8514
 1006MOL0     O35676   3.120   6.588   3.455  0.3887  0.4921 -0.0158
 1006MOL0     C35677   3.021   6.656   3.459  0.1162 -1.1075  0.0368
 1006MOL0     O35678   3.010   6.785   3.406 -0.4758  0.4101  0.7912
 1006MOL0     C35679   3.126   6.864   3.424 -0.1598  1.3609 -0.1811
 1006MOL0     C35680   3.188   6.900   3.304 -0.6910  0.1484  0.9965
 1006MOL0     C35681   3.312   6.966   3.300  0.3609 -0.1161 -0.8452
 1006MOL0     C35682   3.365   7.005   3.423 -0.0895  0.5327  0.6448
 1006MOL0     O35683   3.477   7.080   3.432 -0.2434 -0.0609 -0.5964
 1006MOL0     C35684   3.585   7.065   3.334 -0.3064 -0.1910  0.3311
 1006MOL0     C35685   3.696   7.158   3.368 -0.0060  0.3206 -0.4699
 1006MOL0     C35686   3.809   7.164   3.260  0.2928  0.3142  0.2335
 1006MOL0     C35687   3.924   7.246   3.317  0.5452 -0.1664  0.1316
 1006MOL0     C35688   4.044   7.198   3.246  0.4208 -0.7048  0.2758
 1006MOL0     C35689   4.157   7.298   3.229 -0.3453 -0.3782 -0.1980
 1006MOL0     C35690   4.193   7.375   3.359  0.0846 -0.6019 -0.1008
 1006MOL0     C35691   4.243   7.300   3.472  0.5444  0.4011  0.7309
 1006MOL0     N35692   4.380   7.241   3.461  0.0771  0.5499  0.2480
 1006MOL0     C35693   4.417   7.109   3.427 -0.0100  0.5284 -0.2347
 1006MOL0     C35694   4.546   7.095   3.459 -0.1913 -0.8352  0.4071
 1006MOL0     C35695   4.629   6.977   3.427 -0.9020 -0.0840 -0.5070
 1006MOL0     C35696   4.587   6.850   3.493  0.4698 -0.2124  0.3324
 1006MOL0     C35697   4.707   6.746   3.477  0.8287  0.2771 -0.4234
 1006MOL0     C35698   4.658   6.607   3.529  0.3638  0.1796 -0.3401
 1006MOL0     O35699   4.633   6.618   3.668  0.6916 -0.6463 -0.9278
 1006MOL0     C35700   4.581   6.510   3.727  0.0712  0.2112 -0.1569
 1006MOL0     C35701   4.549   6.387   3.664 -0.1298  0.0822  0.1368
 1006MOL0     C35702   4.504   6.280   3.728  0.0976 -0.4226 -0.4577
 1006MOL0     C35703   4.498   6.272   3.865 -0.7103  0.8152  0.5089
 1006MOL0     C35704   4.433   6.158   3.937  0.3814 -0.2617 -0.4128
 1006MOL0     O35705   4.473   6.128   4.064 -0.2021  1.0189  0.3323
 1006MOL0     C35706   4.450   6.000   4.102  0.5627  0.1127 -0.7967
 1006MOL0     C35707   4.398   5.974   4.231 -0.6984  0.1589  0.1788
 1006MOL0     C35708   4.363   5.839   4.264  0.5090 -0.0864 -0.2719
 1006MOL0     C35709   4.381   5.733   4.177  0.3234  0.5261  0.7185
 1006MOL0     O35710   4.355   5.600   4.201  0.5004  0.3465  0.1176
 1006MOL0     C35711   4.306   5.568   4.332 -0.4105  0.5068 -0.6634
 1006MOL0     C35712   4.416   5.565   4.440 -0.0473 -0.1630 -0.0913
 1006MOL0     C35713   4.357   5.554   4.577 -0.4314 -0.0202 -0.4934
 1006MOL0     C35714   4.443   5.628   4.686 -0.6883  0.2835 -0.1734
 1006MOL0     C35715   4.574   5.564   4.725  0.4529 -0.0711  0.0586
 1006MOL0     C35716   4.642   5.643   4.837 -0.0388  0.1550  0.3317
 1006MOL0     C35717   4.753   5.569   4.913  0.0698 -0.1072 -0.0527
 1006MOL0     C35718   4.855   5.477   4.844 -0.0864 -0.5624  0.5946
 1006MOL0    Cl35719   4.953   5.550   4.713  0.2343 -0.4286 -0.3142
 1006MOL0     C35720   4.431   5.764   4.046  0.0909  0.1428 -0.3628
 1006MOL0     C35721   4.480   5.895   4.007  0.7440  0.6606 -1.0600
 1006MOL0     O35722   4.352   6.098   3.874  0.0957 -0.1876  0.6096
 1006MOL0     C35723   4.518   6.396   3.934  0.9200 -0.5814  0.0927
 1006MOL0     C35724   4.560   6.515   3.868 -0.3886 -0.1337  0.5761
 1006MOL0     N35725   4.591   7.219   3.505 -0.0117 -0.2102 -0.7364
 1006MOL0     N35726   4.492   7.296   3.515  0.0016 -0.6446  0.4257
 1006MOL0     C35727   3.301   6.980   3.542 -0.4522  0.8438  0.1976
 1006MOL0     C35728   3.177   6.908   3.545  0.7669  0.9584  0.2770
 1006MOL0     C35729   2.905   6.594   3.513  1.1627  0.4468  0.3103
 1006MOL0     C35730   2.914   6.526   3.638  0.4151 -0.5451  0.2242
 1006MOL0     C35731   2.804   6.441   3.673 -0.3841 -0.5198 -0.0637
 1006MOL0     C35732   2.694   6.418   3.588 -1.2724  0.8856 -0.3533
 1006MOL0     O35733   2.582   6.338   3.617 -0.1498 -0.1935  0.1732
 1006MOL0     C35734   2.579   6.286   3.758  0.1743 -0.1544 -0.2414
 1006MOL0     C35735   2.433   6.213   3.765 -0.3206  0.1157 -1.1810
 1006MOL0     C35736   2.331   6.323   3.787 -0.5791  0.1033 -0.8905
 1006MOL0     C35737   2.192   6.264   3.815 -0.8580 -0.2122 -0.3710
 1006MOL0     C35738   2.104   6.364   3.880  0.0117  0.4803 -0.2939
 1006MOL0     C35739   2.019   6.418   3.954 -0.6470  0.1001 -0.1107
 1006MOL0     C35740   2.699   6.480   3.470 -1.3410 -0.7401 -0.0898
 1006MOL0     C35741   2.800   6.571   3.427 -0.1813 -0.1370 -0.2863
 1006MOL0     C35742   2.797   6.600   3.278 -0.2026  0.1067 -0.4553
 1006MOL0     H35743   3.137   6.862   3.216  0.3534  0.4619  0.2404
 1006MOL0     H35744   3.360   6.990   3.206 -0.7855 -2.4221 -2.1112
 1006MOL0     H35745   3.640   6.970   3.343  3.3972  1.7737  0.1943
 1006MOL0     H35746   3.545   7.077   3.234 -1.1670  0.2733  0.7275
 1006MOL0     H35747   3.731   7.145   3.471 -0.7897 -0.3684 -0.2788
 1006MOL0     H35748   3.651   7.258   3.359  2.0183  1.2168 -1.3041
 1006MOL0     H35749   3.764   7.193   3.165  0.9065 -3.6895 -1.5000
 1006MOL0     H35750   3.848   7.062   3.256  0.0942  0.1139  2.4053
 1006MOL0     H35751   3.901   7.350   3.289  0.7157  0.9484  3.6530
 1006MOL0     H35752   3.924   7.258   3.426  2.2585 -2.8663  0.5225
 1006MOL0     H35753   4.077   7.103   3.289  2.0216 -0.7156 -0.8678
 1006MOL0     H35754   4.019   7.163   3.145 -1.7192 -1.2623  0.9641
 1006MOL0     H35755   4.247   7.252   3.189  1.0229  2.5082 -0.7046
 1006MOL0     H35756   4.127   7.364   3.147 -0.4035 -0.6169 -0.3683
 1006MOL0     H35757   4.113   7.441   3.392 -0.3306 -1.2461  0.2036
 1006MOL0     H35758   4.277   7.440   3.332  0.6184 -0.4976  1.7110
 1006MOL0     H35759   4.234   7.363   3.561  0.6534  1.7214 -0.1652
 1006MOL0     H35760   4.180   7.210   3.473  2.0740 -0.7208  0.2133
 1006MOL0     H35761   4.342   7.045   3.382  1.0852 -0.9554 -0.0366
 1006MOL0     H35762   4.615   6.966   3.319 -3.7578 -0.8395 -0.1611
 1006MOL0     H35763   4.732   7.006   3.449 -1.0234 -0.3849  0.4869
 1006MOL0     H35764   4.577   6.860   3.601  0.7181 -2.9092  0.6882
 1006MOL0     H35765   4.488   6.826   3.454 -0.1615  4.1595 -1.2160
 1006MOL0     H35766   4.794   6.786   3.529 -0.0599  1.9882 -0.2007
 1006MOL0     H35767   4.734   6.730   3.372 -0.4451 -3.6784 -0.3211
 1006MOL0     H35768   4.742   6.540   3.507  1.1121  1.3009 -1.0216
 1006MOL0     H35769   4.571   6.564   3.478  0.0068 -0.3806  0.7125
 1006MOL0     H35770   4.551   6.378   3.556  1.4734 -0.1631  0.1651
 1006MOL0     H35771   4.470   6.194   3.670 -0.1471 -1.1259  0.6874
 1006MOL0     H35772   4.371   6.048   4.305  1.4544 -0.1183  1.3062
 1006MOL0     H35773   4.340   5.825   4.369 -0.4296  3.0201  0.0597
 1006MOL0     H35774   4.225   5.639   4.354  1.0972  1.5987  1.8008
 1006MOL0     H35775   4.262   5.468   4.333 -1.5529  0.8125  3.8756
 1006MOL0     H35776   4.484   5.482   4.421 -0.1509 -0.3637  0.3971
 1006MOL0     H35777   4.470   5.660   4.433  1.1870 -0.8979 -0.8184
 1006MOL0     H35778   4.259   5.602   4.583  0.5238  2.2143 -1.6301
 1006MOL0     H35779   4.346   5.447   4.598 -0.1275 -0.2125 -1.2961
 1006MOL0     H35780   4.371   5.623   4.768  0.1552 -1.3941  0.5045
 1006MOL0     H35781   4.437   5.734   4.657 -0.5279 -0.5276 -3.6697
 1006MOL0     H35782   4.645   5.547   4.644 -1.2823 -0.0086 -1.5289
 1006MOL0     H35783   4.545   5.463   4.756 -0.2672  0.0360 -0.2427
 1006MOL0     H35784   4.677   5.738   4.795  3.7423 -0.8923  0.7348
 1006MOL0     H35785   4.555   5.668   4.900 -2.8358 -4.9525 -0.9612
 1006MOL0     H35786   4.706   5.492   4.974 -5.5041 -0.2839 -3.9028
 1006MOL0     H35787   4.795   5.643   4.983  1.4965 -1.1331  0.2184
 1006MOL0     H35788   4.937   5.468   4.916  2.1412  2.7752 -1.2745
 1006MOL0     H35789   4.821   5.377   4.815 -1.0220  0.0065 -0.3361
 1006MOL0     H35790   4.459   5.684   3.978 -1.3501 -0.6436 -0.0728
 1006MOL0     H35791   4.528   5.918   3.912 -0.2283 -1.8725 -2.2519
 1006MOL0     H35792   4.488   6.398   4.038 -0.6655 -1.8263 -0.3008
 1006MOL0     H35793   4.585   6.607   3.920  2.7241 -2.0891  2.9280
 1006MOL0     H35794   3.345   7.031   3.627  0.3173  1.3811 -0.5057
 1006MOL0     H35795   3.130   6.894   3.641  0.2240  0.7298 -0.0204
 1006MOL0     H35796   3.010   6.536   3.688  1.2799  0.0905 -1.4917
 1006MOL0     H35797   2.821   6.399   3.771  2.5015  3.0725  1.1678
 1006MOL0     H35798   2.579   6.371   3.826  2.1024  1.2181 -1.8584
 1006MOL0     H35799   2.662   6.219   3.782  0.0317  0.5736  2.6892
 1006MOL0     H35800   2.441   6.150   3.854 -3.1899 -2.7532 -2.7489
 1006MOL0     H35801   2.405   6.151   3.679  0.0147 -2.2699  0.3365
 1006MOL0     H35802   2.338   6.389   3.700 -0.8884 -0.9576 -1.7388
 1006MOL0     H35803   2.359   6.389   3.870  3.4696  1.9291 -3.3982
 1006MOL0     H35804   2.141   6.243   3.720 -1.9140  4.2448 -1.0130
 1006MOL0     H35805   2.209   6.173   3.873  1.6118 -0.6983 -1.7028
 1006MOL0     H35806   1.943   6.467   4.012 -4.4355 -2.8167 -2.1341
 1006MOL0     H35807   2.613   6.461   3.406 -1.7824 -2.0947  0.8637
 1006MOL0     H35808   2.702   6.573   3.231 -0.6141  1.9164 -0.7348
 1006MOL0     H35809   2.826   6.703   3.257  0.6396 -0.4691 -2.3164
 1006MOL0     H35810   2.872   6.535   3.231 -2.0986 -1.7754 -1.0558
 1007MOL0     O35811   1.922   6.331  11.204  0.0196  0.0946  0.7238
 1007MOL0     C35812   1.960   6.233  11.147 -0.0872  0.3899 -0.1514
 1007MOL0     O35813   1.957   6.104  11.187  0.5999 -0.5995  0.0161
 1007MOL0     C35814   1.863   6.087  11.291 -0.4591 -0.2433  0.3537
 1007MOL0     C35815   1.908   6.091  11.425  0.4233  0.4454  0.1527
 1007MOL0     C35816   1.823   6.055  11.531  0.3012 -0.9256 -0.1983
 1007MOL0     C35817   1.695   6.009  11.506 -0.0856  0.1357 -0.9694
 1007MOL0     O35818   1.613   5.971  11.617  0.3766 -0.7154 -0.6311
 1007MOL0     C35819   1.477   6.012  11.617 -0.3806  0.2450  0.1554
 1007MOL0     C35820   1.426   6.107  11.738 -0.0756  0.0879  1.1734
 1007MOL0     C35821   1.361   6.026  11.845 -1.1280 -0.4259 -0.0577
 1007MOL0     C35822   1.456   5.963  11.941 -0.4818  0.4009 -0.1803
 1007MOL0     C35823   1.394   5.906  12.063 -0.0906  0.4299  0.1874
 1007MOL0     C35824   1.286   5.798  12.033  0.1209 -0.2941 -0.5917
 1007MOL0     C35825   1.238   5.735  12.167 -0.1343 -0.3613  0.9297
 1007MOL0     C35826   1.344   5.655  12.226  0.1943  0.2431 -0.1004
 1007MOL0     N35827   1.293   5.556  12.327  1.2527 -0.3626  0.4796
 1007MOL0     C35828   1.198   5.582  12.427 -0.0185  0.0726 -0.3801
 1007MOL0     C35829   1.182   5.466  12.486  0.1443 -0.3133  0.0652
 1007MOL0     C35830   1.090   5.464  12.598  0.3547 -0.0042  0.0041
 1007MOL0     C35831   0.965   5.368  12.572 -0.1544  0.1087 -0.2988
 1007MOL0     C35832   0.881   5.328  12.694  0.2104 -0.2303 -0.9787
 1007MOL0     C35833   0.840   5.453  12.781  0.7025  0.6656 -0.0148
 1007MOL0     O35834   0.785   5.560  12.698 -0.3600  0.2948  0.7834
 1007MOL0     C35835   0.734   5.662  12.763  0.5550  0.0831 -0.6080
 1007MOL0     C35836   0.651   5.750  12.701  0.6069 -0.1766  0.3288
 1007MOL0     C35837   0.596   5.866  12.762 -0.0563 -0.9945 -1.0158
 1007MOL0     C35838   0.614   5.886  12.905  0.5768  0.3124  0.0065
 1007MOL0     C35839   0.538   6.000  12.980  0.3722  0.7133 -0.5080
 1007MOL0     O35840   0.426   6.045  12.918  0.5722 -0.5366  0.6554
 1007MOL0     C35841   0.363   6.138  12.998 -0.4604 -0.7818 -0.4084
 1007MOL0     C35842   0.235   6.109  13.043  0.0700 -0.1666  0.1960
 1007MOL0     C35843   0.167   6.196  13.130  0.1770  0.0862  0.4246
 1007MOL0     C35844   0.222   6.325  13.158  0.0826  0.0793 -0.0393
 1007MOL0     O35845   0.171   6.421  13.240 -0.2473  0.0916  0.4631
 1007MOL0     C35846   0.046   6.393  13.300  0.8716  0.0928  1.0480
 1007MOL0     C35847   0.006   6.511  13.384 -0.2771  0.3786 -0.7100
 1007MOL0     C35848  -0.139   6.518  13.415 -0.3572  0.4108  0.2406
 1007MOL0     C35849  -0.159   6.636  13.509  0.1983 -0.1435  0.7219
 1007MOL0     C35850  -0.303   6.663  13.563 -0.2524  0.1151 -0.2548
 1007MOL0     C35851  -0.325   6.814  13.594 -0.0119 -0.0906  0.7264
 1007MOL0     C35852  -0.429   6.848  13.707  0.5603 -0.6214 -0.1760
 1007MOL0     C35853  -0.375   6.822  13.841  0.6593  1.2003 -0.1851
 1007MOL0    Cl35854  -0.480   6.804  13.982  0.4606  0.0906  0.0531
 1007MOL0     C35855   0.348   6.358  13.107  0.3698  0.0052 -0.2845
 1007MOL0     C35856   0.423   6.266  13.029  0.8463  0.0313  0.1151
 1007MOL0     O35857   0.576   6.022  13.095 -0.7247 -0.6129 -0.1664
 1007MOL0     C35858   0.689   5.791  12.977 -0.6224 -0.5345  0.3528
 1007MOL0     C35859   0.754   5.684  12.906  1.3675 -0.0109 -0.4649
 1007MOL0     N35860   1.249   5.362  12.432  0.1288 -0.2120  0.0932
 1007MOL0     N35861   1.309   5.420  12.322 -0.8818 -0.0382  1.0571
 1007MOL0     C35862   1.648   5.995  11.373 -0.5953 -0.1066 -0.3846
 1007MOL0     C35863   1.731   6.036  11.264  0.0825  0.2436  0.1465
 1007MOL0     C35864   2.023   6.250  11.011 -0.3253  0.1875 -0.2360
 1007MOL0     C35865   2.131   6.340  11.002 -0.1012  0.2739  0.1967
 1007MOL0     C35866   2.202   6.364  10.885  0.6449 -0.5228  0.3876
 1007MOL0     C35867   2.180   6.287  10.768 -0.1396  0.0196 -0.1343
 1007MOL0     O35868   2.250   6.305  10.654 -0.0937 -0.7035 -0.4070
 1007MOL0     C35869   2.275   6.185  10.575  0.1789  0.2583 -0.0713
 1007MOL0     C35870   2.392   6.215  10.483  0.0965  1.2623 -0.0613
 1007MOL0     C35871   2.517   6.244  10.560 -0.8012  0.0406  0.0341
 1007MOL0     C35872   2.642   6.220  10.471  0.0841 -0.5377 -0.0162
 1007MOL0     C35873   2.761   6.235  10.549  0.5793 -0.1980  0.2489
 1007MOL0     C35874   2.853   6.269  10.624  0.4434  0.0735  0.4096
 1007MOL0     C35875   2.070   6.195  10.776 -0.2594  0.1270  0.1641
 1007MOL0     C35876   2.000   6.169  10.901 -0.4399  0.3101  0.2981
 1007MOL0     C35877   1.890   6.064  10.908 -0.0391  0.0348  0.3777
 1007MOL0     H35878   2.005   6.139  11.436  0.7747 -0.1900 -0.0931
 1007MOL0     H35879   1.860   6.068  11.633 -0.1481 -0.9751 -0.0277
 1007MOL0     H35880   1.460   6.068  11.525 -0.9997 -0.6817 -0.3123
 1007MOL0     H35881   1.420   5.919  11.611 -0.9492  0.5784  0.3153
 1007MOL0     H35882   1.351   6.174  11.696  0.3756 -1.9622 -3.5916
 1007MOL0     H35883   1.508   6.170  11.775  1.5415 -1.1500 -0.1187
 1007MOL0     H35884   1.301   5.945  11.803  1.4895 -2.8314  0.5658
 1007MOL0     H35885   1.299   6.096  11.902 -0.7509  0.4704 -0.7215
 1007MOL0     H35886   1.520   5.889  11.892 -1.7360  0.9099 -2.7540
 1007MOL0     H35887   1.525   6.042  11.972  0.9474  0.8984 -4.0809
 1007MOL0     H35888   1.472   5.857  12.121  2.4036 -0.1808 -3.3612
 1007MOL0     H35889   1.351   5.982  12.129  1.7416 -0.7392  2.8893
 1007MOL0     H35890   1.207   5.843  11.972 -0.4711 -1.8155 -0.9949
 1007MOL0     H35891   1.320   5.712  11.974  1.7040 -0.6780  0.7892
 1007MOL0     H35892   1.159   5.664  12.139 -1.0198 -0.3165  3.1146
 1007MOL0     H35893   1.186   5.814  12.222 -2.1375  0.3040 -1.7154
 1007MOL0     H35894   1.379   5.588  12.147 -2.9183 -1.9465  0.2137
 1007MOL0     H35895   1.421   5.712  12.279 -0.2913  1.9383 -1.1268
 1007MOL0     H35896   1.148   5.673  12.459  1.1017  0.7481 -0.4788
 1007MOL0     H35897   1.150   5.429  12.683 -1.5065 -1.7517  0.6845
 1007MOL0     H35898   1.055   5.565  12.621 -1.4035 -0.3352 -1.0353
 1007MOL0     H35899   0.906   5.421  12.496 -3.4296  1.0092  2.5987
 1007MOL0     H35900   0.997   5.280  12.516  1.5231  1.2734 -1.2610
 1007MOL0     H35901   0.936   5.252  12.750  0.4606 -2.0382 -3.5217
 1007MOL0     H35902   0.785   5.286  12.662 -0.7049  2.5678 -2.3006
 1007MOL0     H35903   0.934   5.481  12.828  1.6826 -0.5225 -1.1971
 1007MOL0     H35904   0.776   5.426  12.866  3.5257 -0.7120  1.8214
 1007MOL0     H35905   0.618   5.737  12.598 -1.4943 -1.6002  1.1058
 1007MOL0     H35906   0.530   5.937  12.713 -1.6681 -1.3408  0.5324
 1007MOL0     H35907   0.187   6.014  13.023  0.7300 -0.8887  1.8751
 1007MOL0     H35908   0.072   6.171  13.176 -0.4768  1.0687 -0.3497
 1007MOL0     H35909  -0.029   6.388  13.221  1.0887 -0.0383  0.8471
 1007MOL0     H35910   0.055   6.304  13.364  2.3577  1.0932  2.2998
 1007MOL0     H35911   0.062   6.510  13.478 -2.7762 -0.7670  0.8746
 1007MOL0     H35912   0.042   6.597  13.327  3.3173 -0.9905 -0.8050
 1007MOL0     H35913  -0.192   6.526  13.320  4.1479  1.2114 -2.4810
 1007MOL0     H35914  -0.160   6.421  13.462  1.1817 -1.1482 -2.1032
 1007MOL0     H35915  -0.133   6.716  13.439  0.4134  1.8155  2.9164
 1007MOL0     H35916  -0.091   6.624  13.593 -0.8524 -2.9846  1.2622
 1007MOL0     H35917  -0.316   6.598  13.650  0.6274  0.1139 -0.1189
 1007MOL0     H35918  -0.368   6.641  13.478  1.2781 -0.2871 -1.3482
 1007MOL0     H35919  -0.227   6.858  13.609  1.2288 -2.3574 -0.1608
 1007MOL0     H35920  -0.362   6.851  13.498  1.5711  0.4837  0.3061
 1007MOL0     H35921  -0.523   6.796  13.690 -0.6231  1.8628 -1.9027
 1007MOL0     H35922  -0.440   6.957  13.701 -0.8732 -0.7844 -0.7990
 1007MOL0     H35923  -0.323   6.726  13.847 -1.1539  0.2273  0.5795
 1007MOL0     H35924  -0.298   6.898  13.858 -1.3413  3.3524 -0.2262
 1007MOL0     H35925   0.382   6.459  13.126  1.2834  0.3673 -3.2703
 1007MOL0     H35926   0.515   6.296  12.980  1.6330 -1.5662  0.5373
 1007MOL0     H35927   0.714   5.802  13.082  0.8910 -2.1502  0.2025
 1007MOL0     H35928   0.819   5.619  12.964  2.5197 -0.0866 -1.7741
 1007MOL0     H35929   1.552   5.946  11.360 -0.1972 -2.1093  3.0667
 1007MOL0     H35930   1.694   6.010  11.165  2.1856 -1.4121 -0.2916
 1007MOL0     H35931   2.164   6.410  11.078  1.5726 -1.2229  0.9197
 1007MOL0     H35932   2.270   6.448  10.882 -1.9506  1.7300  1.0111
 1007MOL0     H35933   2.181   6.152  10.528  0.2379  0.0536 -0.0469
 1007MOL0     H35934   2.305   6.101  10.638 -1.0419 -2.6822 -3.0915
 1007MOL0     H35935   2.363   6.305  10.426 -0.4119  2.5004  2.0399
 1007MOL0     H35936   2.408   6.138  10.407 -1.1021  0.8618  0.0715
 1007MOL0     H35937   2.522   6.179  10.648  2.8139  0.7548  0.5209
 1007MOL0     H35938   2.521   6.348  10.593  4.4994 -0.4453  1.9083
 1007MOL0     H35939   2.635   6.120  10.429  2.0282 -0.6637 -0.1473
 1007MOL0     H35940   2.637   6.294  10.390  1.5198  3.1764  2.9350
 1007MOL0     H35941   2.921   6.323  10.687 -0.8310  2.3644 -0.0277
 1007MOL0     H35942   2.035   6.155  10.682  0.9284  4.2095 -2.2739
 1007MOL0     H35943   1.922   5.982  10.974  0.1011 -0.0571  0.1984
 1007MOL0     H35944   1.795   6.111  10.935  0.7918  0.4387  2.9224
 1007MOL0     H35945   1.863   6.016  10.814  1.0985 -1.4538  0.7734
 1008MOL0     O35946   0.627  10.207  10.176  0.0640 -0.1537  0.2089
 1008MOL0     C35947   0.613  10.247  10.291  0.5712 -0.4878  0.0134
 1008MOL0     O35948   0.593  10.170  10.401 -1.0903  0.0620 -0.3724
 1008MOL0     C35949   0.592  10.036  10.387  0.2077 -1.2329  0.3619
 1008MOL0     C35950   0.695   9.964  10.325  0.8930  0.4681  1.2175
 1008MOL0     C35951   0.680   9.827  10.313 -0.5456  0.1025  0.0859
 1008MOL0     C35952   0.577   9.765  10.376 -0.1028  0.0139  0.0037
 1008MOL0     O35953   0.586   9.633  10.382  0.0063  0.3989 -0.1401
 1008MOL0     C35954   0.483   9.552  10.439  0.8022 -0.0680  0.3019
 1008MOL0     C35955   0.526   9.410  10.456  0.3833  1.7867  0.8582
 1008MOL0     C35956   0.409   9.305  10.453 -0.7540  0.4055 -0.2691
 1008MOL0     C35957   0.464   9.163  10.454  0.0123  0.1077 -0.1976
 1008MOL0     C35958   0.474   9.102  10.317  0.4605 -0.2297  0.4188
 1008MOL0     C35959   0.549   9.176  10.203 -0.1454  0.7302  1.0807
 1008MOL0     C35960   0.523   9.101  10.070 -0.2336 -0.6974  0.5671
 1008MOL0     C35961   0.617   9.159   9.961  0.1265  0.2067  0.7911
 1008MOL0     N35962   0.587   9.121   9.829  0.1546 -0.9091  0.1688
 1008MOL0     C35963   0.520   9.198   9.736 -0.4354  0.4442 -1.3119
 1008MOL0     C35964   0.492   9.122   9.635  0.9528  0.4579  0.3179
 1008MOL0     C35965   0.421   9.157   9.498 -0.1440  0.9260 -1.2047
 1008MOL0     C35966   0.503   9.265   9.432 -0.1151  0.9351  0.8397
 1008MOL0     C35967   0.649   9.230   9.387 -0.6186  0.6775 -0.0481
 1008MOL0     C35968   0.666   9.103   9.308  0.6824  0.9250 -0.1208
 1008MOL0     O35969   0.805   9.064   9.276 -0.2429 -0.6544  0.1035
 1008MOL0     C35970   0.884   9.009   9.374 -0.7073 -0.7160 -0.8705
 1008MOL0     C35971   0.858   8.940   9.493 -0.4971  0.6328 -1.0797
 1008MOL0     C35972   0.958   8.895   9.570 -0.1518  1.0016 -0.1643
 1008MOL0     C35973   1.092   8.900   9.539 -0.5391  0.0342  0.2523
 1008MOL0     C35974   1.200   8.848   9.626  0.3643  0.1981  0.2158
 1008MOL0     O35975   1.323   8.833   9.566  0.6120 -0.1466  0.5583
 1008MOL0     C35976   1.429   8.781   9.635 -1.4709  0.0024  0.6464
 1008MOL0     C35977   1.451   8.645   9.621 -0.0435 -0.2117  0.2753
 1008MOL0     C35978   1.553   8.581   9.695  0.7853  0.1967 -0.1936
 1008MOL0     C35979   1.644   8.655   9.774  0.0009  0.0617 -0.4065
 1008MOL0     O35980   1.726   8.573   9.852 -0.4879 -0.8903  0.3009
 1008MOL0     C35981   1.854   8.616   9.896 -0.1984  1.2160  0.7400
 1008MOL0     C35982   1.932   8.507   9.966  0.4868  0.7372  0.0211
 1008MOL0     C35983   2.080   8.530   9.966 -0.5620 -0.8897  0.1354
 1008MOL0     C35984   2.122   8.569  10.117 -1.3020  0.6014  0.2765
 1008MOL0     C35985   2.275   8.602  10.132  0.0543  0.3304 -0.5953
 1008MOL0     C35986   2.324   8.622  10.280  0.7284 -0.2194  0.7314
 1008MOL0     C35987   2.480   8.633  10.292  0.2970  0.5611  0.2649
 1008MOL0     C35988   2.533   8.673  10.432  0.3400 -0.6622 -0.4205
 1008MOL0    Cl35989   2.704   8.647  10.427 -0.0120 -0.4112  0.0173
 1008MOL0     C35990   1.624   8.790   9.780  0.0504  0.6172 -0.3413
 1008MOL0     C35991   1.517   8.855   9.716 -0.2173  0.4642  0.2143
 1008MOL0     O35992   1.180   8.833   9.750 -0.2007 -0.6043  0.6159
 1008MOL0     C35993   1.121   8.977   9.424  0.2774  0.8676  0.0979
 1008MOL0     C35994   1.021   9.029   9.342  0.2020 -1.2095 -0.4440
 1008MOL0     N35995   0.555   9.006   9.652 -1.2069  0.7145  0.7619
 1008MOL0     N35996   0.610   9.007   9.765 -0.4411  0.8064  0.2923
 1008MOL0     C35997   0.478   9.841  10.444 -0.1965  1.0822 -0.4110
 1008MOL0     C35998   0.491   9.975  10.451 -0.0271 -0.3252  0.4257
 1008MOL0     C35999   0.609  10.396  10.319  0.3095  0.6738 -0.1933
 1008MOL0     C36000   0.589  10.436  10.443  0.0123 -1.0469 -0.1765
 1008MOL0     C36001   0.569  10.570  10.475 -0.5651 -0.3937  0.1689
 1008MOL0     C36002   0.583  10.674  10.376  0.4050  0.3353 -1.0480
 1008MOL0     O36003   0.560  10.805  10.395  0.5784 -0.5134  0.0517
 1008MOL0     C36004   0.566  10.856  10.530  0.6612  0.3925 -0.2456
 1008MOL0     C36005   0.578  11.003  10.514 -0.4448 -0.8135 -0.3512
 1008MOL0     C36006   0.587  11.084  10.646 -0.3363  0.3696 -0.5035
 1008MOL0     C36007   0.475  11.058  10.746 -0.1204  0.3095 -0.3212
 1008MOL0     C36008   0.342  11.060  10.694 -0.3025 -0.8380  0.7858
 1008MOL0     C36009   0.231  11.061  10.645 -0.3133  0.6789  0.2067
 1008MOL0     C36010   0.614  10.635  10.246  0.0942  1.1759 -0.2671
 1008MOL0     C36011   0.633  10.492  10.222  0.5586  0.1865 -0.4792
 1008MOL0     C36012   0.665  10.450  10.082  0.7701 -0.2600  0.1303
 1008MOL0     H36013   0.780  10.011  10.277  0.3108  1.6380  1.2958
 1008MOL0     H36014   0.757   9.759  10.279 -2.3004 -1.8433 -0.2094
 1008MOL0     H36015   0.466   9.584  10.543  0.9658  1.5521 -0.1372
 1008MOL0     H36016   0.399   9.555  10.369  0.0830 -1.3669  1.0772
 1008MOL0     H36017   0.586   9.403  10.548  1.0684 -1.2262  0.2911
 1008MOL0     H36018   0.594   9.389  10.373 -0.6902  1.8025 -0.0363
 1008MOL0     H36019   0.340   9.315  10.369  0.0942 -0.3574 -1.0765
 1008MOL0     H36020   0.363   9.324  10.550 -1.6034  2.3860 -1.0001
 1008MOL0     H36021   0.567   9.177  10.487  0.4353 -2.0394 -0.4444
 1008MOL0     H36022   0.414   9.095  10.524 -0.2587  1.2752  0.7723
 1008MOL0     H36023   0.506   8.998  10.332  0.0544 -0.2894  0.9139
 1008MOL0     H36024   0.369   9.101  10.286  1.0791  0.4023 -1.9337
 1008MOL0     H36025   0.513   9.279  10.189 -0.1497  0.6548  0.5168
 1008MOL0     H36026   0.657   9.176  10.214  0.0639  2.8989 -0.3343
 1008MOL0     H36027   0.419   9.106  10.034  0.4258 -3.1396 -2.0250
 1008MOL0     H36028   0.543   8.994  10.075 -1.8743 -1.0046  1.2364
 1008MOL0     H36029   0.612   9.267   9.973 -4.0868 -0.0799  4.4451
 1008MOL0     H36030   0.719   9.127   9.985 -0.6590 -3.6083 -0.1941
 1008MOL0     H36031   0.494   9.301   9.757 -0.8333 -0.1055  1.2733
 1008MOL0     H36032   0.410   9.058   9.452  1.0239 -0.4044  1.2162
 1008MOL0     H36033   0.318   9.188   9.516  0.8975  2.2888  3.9096
 1008MOL0     H36034   0.440   9.285   9.344  2.2348  2.0148 -0.7156
 1008MOL0     H36035   0.497   9.358   9.489 -1.5377  1.3631  0.0636
 1008MOL0     H36036   0.710   9.208   9.475 -0.7015 -0.6836 -0.3239
 1008MOL0     H36037   0.701   9.309   9.331 -1.0225 -0.1264 -1.5972
 1008MOL0     H36038   0.598   9.107   9.223 -1.0067  0.4071  1.1390
 1008MOL0     H36039   0.623   9.015   9.356 -1.0612  0.4339 -2.4262
 1008MOL0     H36040   0.755   8.921   9.520 -0.2738  1.9168  0.9184
 1008MOL0     H36041   0.925   8.841   9.658 -0.2941  2.1866  0.5332
 1008MOL0     H36042   1.390   8.586   9.553 -0.3917  2.0483 -1.4967
 1008MOL0     H36043   1.548   8.474   9.677 -0.2521  0.5669 -2.4305
 1008MOL0     H36044   1.908   8.648   9.806 -2.5362  2.1648 -0.4111
 1008MOL0     H36045   1.856   8.702   9.964  3.4068  0.9689  1.1714
 1008MOL0     H36046   1.893   8.514  10.068  0.3215  1.9333 -0.1132
 1008MOL0     H36047   1.911   8.409   9.921 -0.9354  1.1580 -0.2892
 1008MOL0     H36048   2.135   8.439   9.942  2.0760  0.4070  0.8941
 1008MOL0     H36049   2.114   8.610   9.899 -1.5781 -3.3781 -3.6939
 1008MOL0     H36050   2.096   8.482  10.177  6.8150 -0.0021  4.2464
 1008MOL0     H36051   2.068   8.661  10.144  0.5995  1.5921  0.9220
 1008MOL0     H36052   2.291   8.695  10.076  0.4477  1.7247  1.6659
 1008MOL0     H36053   2.326   8.513  10.095 -2.1539 -2.2140  1.9578
 1008MOL0     H36054   2.268   8.705  10.325  1.4085  1.9259 -2.1124
 1008MOL0     H36055   2.297   8.530  10.331  2.1461 -1.5179 -0.7736
 1008MOL0     H36056   2.516   8.705  10.218 -0.7827  0.4324 -0.4232
 1008MOL0     H36057   2.515   8.532  10.267  2.2859  0.6174  2.5048
 1008MOL0     H36058   2.506   8.778  10.447 -1.2667 -0.8237 -1.8277
 1008MOL0     H36059   2.487   8.608  10.507 -2.6875 -1.5459 -2.8207
 1008MOL0     H36060   1.683   8.866   9.831  0.1161 -0.4244  1.2007
 1008MOL0     H36061   1.513   8.963   9.728 -0.2377  0.2405  2.8019
 1008MOL0     H36062   1.224   8.972   9.390 -0.3008 -2.4011 -1.5541
 1008MOL0     H36063   1.046   9.077   9.248  3.5947 -0.4480  0.6883
 1008MOL0     H36064   0.388   9.793  10.479  0.3722 -1.1293 -1.8120
 1008MOL0     H36065   0.415  10.038  10.494 -0.9125  0.2778 -1.8719
 1008MOL0     H36066   0.562  10.361  10.516 -0.2787 -1.5252 -0.7638
 1008MOL0     H36067   0.539  10.597  10.576  1.9410  1.1816  0.5899
 1008MOL0     H36068   0.652  10.822  10.588 -0.6510 -1.2675  0.8745
 1008MOL0     H36069   0.474  10.836  10.588  1.6444 -3.0079  0.4032
 1008MOL0     H36070   0.488  11.037  10.460  1.1507  1.1886 -1.9433
 1008MOL0     H36071   0.660  11.029  10.446 -0.0955  1.4108  0.8413
 1008MOL0     H36072   0.606  11.191  10.629  1.1863  0.2251  0.1548
 1008MOL0     H36073   0.674  11.035  10.690  0.1299  1.8540  0.2975
 1008MOL0     H36074   0.484  10.956  10.786  0.6014  1.3446  2.3782
 1008MOL0     H36075   0.490  11.111  10.841 -1.3315 -0.4276  0.3113
 1008MOL0     H36076   0.130  11.048  10.611 -0.7895 -0.5679  1.9909
 1008MOL0     H36077   0.626  10.705  10.164  0.3941  0.7696 -0.5780
 1008MOL0     H36078   0.747  10.379  10.078  0.3549 -0.7646  0.4764
 1008MOL0     H36079   0.571  10.415  10.039  2.0103 -1.3866 -1.7989
 1008MOL0     H36080   0.699  10.538  10.027 -0.0884 -0.2482 -0.3977
 1009MOL0     O36081   9.104   5.050   1.164  1.1769 -1.0812 -0.1274
 1009MOL0     C36082   9.045   4.989   1.079  0.1938 -0.0862  0.3776
 1009MOL0     O36083   9.083   4.958   0.945 -0.1846 -1.2441  0.8373
 1009MOL0     C36084   9.205   4.989   0.885 -0.0715 -0.5680  0.2021
 1009MOL0     C36085   9.316   5.049   0.956 -0.1542  0.7275 -0.5095
 1009MOL0     C36086   9.436   5.087   0.893 -0.3156  0.0379 -0.2904
 1009MOL0     C36087   9.444   5.074   0.754 -0.4910  0.1796 -0.4706
 1009MOL0     O36088   9.547   5.146   0.697  0.0821 -0.4109  0.2604
 1009MOL0     C36089   9.501   5.281   0.670 -0.2175 -0.1037 -0.4048
 1009MOL0     C36090   9.529   5.324   0.530  0.4998  0.0805  0.3151
 1009MOL0     C36091   9.485   5.466   0.487  0.0869  0.5043 -1.0034
 1009MOL0     C36092   9.381   5.461   0.376  0.1752 -0.3459  0.8884
 1009MOL0     C36093   9.260   5.361   0.411 -0.0771 -0.6178  0.0895
 1009MOL0     C36094   9.143   5.388   0.311 -0.1243  0.0965  0.3537
 1009MOL0     C36095   9.043   5.280   0.334  0.5862 -0.0858  0.2812
 1009MOL0     C36096   8.902   5.306   0.266 -0.2042  0.4532  0.3397
 1009MOL0     N36097   8.834   5.174   0.269  0.9102  0.4290  1.1664
 1009MOL0     C36098   8.718   5.160   0.200  0.0826 -0.2356  0.4434
 1009MOL0     C36099   8.679   5.025   0.234  0.5614 -0.1113  0.3750
 1009MOL0     C36100   8.542   4.961   0.202 -0.9591  0.7522 -0.0909
 1009MOL0     C36101   8.497   4.854   0.307 -0.2239 -0.1235  0.2085
 1009MOL0     C36102   8.349   4.819   0.288  0.2212 -0.4197 -0.1993
 1009MOL0     C36103   8.310   4.713   0.385  0.8281  0.4134 -0.1197
 1009MOL0     O36104   8.382   4.590   0.366  0.0261 -0.8570  0.0566
 1009MOL0     C36105   8.336   4.506   0.262  0.0992 -0.2423  0.3322
 1009MOL0     C36106   8.432   4.447   0.176 -0.0750 -0.3835 -0.2805
 1009MOL0     C36107   8.391   4.341   0.089  0.1844 -0.5407  0.3324
 1009MOL0     C36108   8.255   4.305   0.082  0.1761  0.2521  0.2842
 1009MOL0     C36109   8.217   4.197  -0.013  0.0318 -0.3231  0.0847
 1009MOL0     O36110   8.309   4.169  -0.117  0.4048  0.3290 -0.4227
 1009MOL0     C36111   8.279   4.074  -0.215  0.0610  0.0058 -0.5052
 1009MOL0     C36112   8.308   4.112  -0.340  0.9897  0.7653  0.0055
 1009MOL0     C36113   8.290   4.021  -0.446 -1.2174 -0.3110  0.6266
 1009MOL0     C36114   8.217   3.900  -0.427 -0.3891  0.4965 -0.2648
 1009MOL0     O36115   8.199   3.824  -0.541 -0.4312 -0.1642 -0.1392
 1009MOL0     C36116   8.132   3.697  -0.523 -0.8767  0.1070  0.4811
 1009MOL0     C36117   8.128   3.617  -0.655  0.0654  1.1265 -0.6687
 1009MOL0     C36118   8.096   3.469  -0.627  0.1086 -0.3651  0.3752
 1009MOL0     C36119   7.948   3.446  -0.579  0.3037 -0.1659 -0.2350
 1009MOL0     C36120   7.903   3.298  -0.585  0.6797 -0.0691 -0.6648
 1009MOL0     C36121   7.989   3.222  -0.482 -0.2941 -0.7424  0.1763
 1009MOL0     C36122   7.951   3.080  -0.458  0.2654 -0.0433 -0.3751
 1009MOL0     C36123   8.068   2.988  -0.415  0.2180  0.0689 -0.3419
 1009MOL0    Cl36124   8.154   3.036  -0.269 -0.1790  0.0879  0.0743
 1009MOL0     C36125   8.181   3.869  -0.292  0.5401 -0.3148  0.5350
 1009MOL0     C36126   8.197   3.962  -0.187 -1.3552  1.3264  0.2826
 1009MOL0     O36127   8.108   4.146  -0.001 -0.6923  0.1747  0.2251
 1009MOL0     C36128   8.166   4.370   0.167 -0.6604  0.3788 -0.5271
 1009MOL0     C36129   8.204   4.468   0.258  0.8128 -0.1764 -0.1889
 1009MOL0     N36130   8.777   4.981   0.322 -0.3296  0.4633  0.3864
 1009MOL0     N36131   8.865   5.068   0.344 -0.2818 -0.2671 -0.2413
 1009MOL0     C36132   9.333   5.021   0.687 -0.3248 -0.0305  0.2669
 1009MOL0     C36133   9.217   4.975   0.745  0.8039 -0.3093  0.1638
 1009MOL0     C36134   8.906   4.929   1.111 -0.2954  0.2024  1.3173
 1009MOL0     C36135   8.820   4.901   1.001 -0.5354  0.8168  0.4271
 1009MOL0     C36136   8.693   4.844   1.017 -0.4219 -0.3884  1.1298
 1009MOL0     C36137   8.644   4.814   1.141  1.2107  0.1204 -0.1163
 1009MOL0     O36138   8.518   4.757   1.152  0.2957 -0.0979 -0.4747
 1009MOL0     C36139   8.470   4.707   1.278  0.3975  0.0586 -0.1633
 1009MOL0     C36140   8.397   4.821   1.361  1.1415 -0.1038 -0.3807
 1009MOL0     C36141   8.371   4.761   1.497 -0.4949  0.8248  0.0159
 1009MOL0     C36142   8.261   4.655   1.511  0.5206 -0.5508 -0.4493
 1009MOL0     C36143   8.200   4.672   1.641  0.9832  0.4711 -1.0094
 1009MOL0     C36144   8.140   4.681   1.746 -0.7821  0.6672 -0.5470
 1009MOL0     C36145   8.728   4.838   1.249  0.2300 -0.3211 -0.6372
 1009MOL0     C36146   8.858   4.894   1.238 -0.1136  0.3567 -0.3429
 1009MOL0     C36147   8.935   4.920   1.367 -0.6463  0.4738  0.3068
 1009MOL0     H36148   9.309   5.063   1.064 -0.0333 -0.0646 -0.3983
 1009MOL0     H36149   9.519   5.131   0.948  0.4643  0.5497 -1.8274
 1009MOL0     H36150   9.396   5.304   0.690  0.6407  2.8828  1.4037
 1009MOL0     H36151   9.558   5.351   0.732  0.9030 -1.8823  0.6735
 1009MOL0     H36152   9.507   5.242   0.462  2.1485  0.3766 -0.6215
 1009MOL0     H36153   9.638   5.329   0.537  0.4645  1.3469  0.2096
 1009MOL0     H36154   9.570   5.524   0.450 -0.3383  1.4243 -0.5937
 1009MOL0     H36155   9.450   5.517   0.577  4.2160  1.9460 -0.0107
 1009MOL0     H36156   9.343   5.563   0.363 -0.0272 -0.3399  1.5038
 1009MOL0     H36157   9.425   5.435   0.279  1.0710  1.7445  0.6946
 1009MOL0     H36158   9.296   5.259   0.396 -0.6571 -0.6241 -1.4589
 1009MOL0     H36159   9.235   5.373   0.516  1.8483 -0.6191  0.5823
 1009MOL0     H36160   9.100   5.488   0.322  0.5685  0.1989  2.6724
 1009MOL0     H36161   9.175   5.382   0.206 -2.9544 -3.8977 -0.4959
 1009MOL0     H36162   9.038   5.256   0.440 -1.4233  0.8085  0.4296
 1009MOL0     H36163   9.089   5.191   0.288 -0.5346 -0.5142 -0.0424
 1009MOL0     H36164   8.841   5.381   0.317  0.1663  0.9930 -0.0002
 1009MOL0     H36165   8.920   5.343   0.165 -1.9544  3.9424  1.1721
 1009MOL0     H36166   8.679   5.232   0.128  2.8304 -0.8172 -1.7691
 1009MOL0     H36167   8.469   5.041   0.187 -1.2623  0.1195 -2.3847
 1009MOL0     H36168   8.544   4.906   0.108 -2.5892  1.3651 -0.5200
 1009MOL0     H36169   8.551   4.761   0.286 -0.8660 -0.2258 -1.0289
 1009MOL0     H36170   8.523   4.884   0.409  0.0059 -0.0118  0.1159
 1009MOL0     H36171   8.335   4.787   0.184  1.1448  0.1727 -0.5097
 1009MOL0     H36172   8.287   4.908   0.303  0.4215 -0.0924 -1.2393
 1009MOL0     H36173   8.201   4.710   0.380  0.7867  2.2519 -1.3388
 1009MOL0     H36174   8.339   4.748   0.485  0.4700 -0.2276  0.2186
 1009MOL0     H36175   8.530   4.491   0.185 -0.0463 -0.5594  0.3498
 1009MOL0     H36176   8.464   4.299   0.019  1.5991  1.5534  0.4687
 1009MOL0     H36177   8.366   4.204  -0.347  1.1427  0.7840  1.2013
 1009MOL0     H36178   8.332   4.042  -0.543  0.4882 -1.8480  0.9745
 1009MOL0     H36179   8.186   3.644  -0.443 -0.5751  0.9241  0.8318
 1009MOL0     H36180   8.034   3.716  -0.479 -0.5094  0.7374  1.0444
 1009MOL0     H36181   8.051   3.666  -0.715  0.2840 -0.8439 -2.6657
 1009MOL0     H36182   8.213   3.623  -0.723 -0.1734  0.3692 -1.0467
 1009MOL0     H36183   8.109   3.409  -0.718 -1.3057 -0.4671  0.2196
 1009MOL0     H36184   8.159   3.426  -0.549 -1.2429 -3.3571 -0.0695
 1009MOL0     H36185   7.881   3.515  -0.631  0.9922 -1.6984 -3.3444
 1009MOL0     H36186   7.941   3.471  -0.472 -1.3816 -0.0814 -0.3341
 1009MOL0     H36187   7.917   3.261  -0.687 -0.2538 -0.1439 -0.7725
 1009MOL0     H36188   7.796   3.295  -0.563  0.9965 -2.3550  0.8683
 1009MOL0     H36189   8.092   3.216  -0.518 -0.2073  0.1086  0.2787
 1009MOL0     H36190   7.996   3.270  -0.384  2.7678 -0.5310 -0.0454
 1009MOL0     H36191   7.915   3.038  -0.553  0.6829 -3.6007  0.8798
 1009MOL0     H36192   7.870   3.073  -0.384  1.6308 -1.9998  1.0590
 1009MOL0     H36193   8.037   2.884  -0.403  1.0523 -0.1136  0.3642
 1009MOL0     H36194   8.140   2.986  -0.498 -1.1584  4.0353 -1.8877
 1009MOL0     H36195   8.127   3.775  -0.285 -0.5080  0.2631  0.4310
 1009MOL0     H36196   8.144   3.928  -0.099  0.1280 -2.7774 -0.1808
 1009MOL0     H36197   8.061   4.341   0.168 -0.4863 -0.3508  1.2384
 1009MOL0     H36198   8.125   4.511   0.320 -2.5556 -2.3368 -2.6055
 1009MOL0     H36199   9.362   5.012   0.583 -3.1748 -2.0379 -0.4734
 1009MOL0     H36200   9.140   4.917   0.695 -2.4974  1.7878  2.4462
 1009MOL0     H36201   8.845   4.914   0.896  0.2018 -2.4276  0.0873
 1009MOL0     H36202   8.631   4.831   0.929 -1.4845  0.6001  1.6984
 1009MOL0     H36203   8.553   4.660   1.331 -0.3470 -3.9541 -2.1872
 1009MOL0     H36204   8.399   4.629   1.248  0.6932 -0.0019 -0.7033
 1009MOL0     H36205   8.306   4.852   1.309  2.2381 -0.4984 -2.6682
 1009MOL0     H36206   8.460   4.910   1.372 -0.4915  1.0557 -0.1875
 1009MOL0     H36207   8.341   4.846   1.560 -2.3737  0.2353 -0.0333
 1009MOL0     H36208   8.467   4.734   1.540 -0.3057  2.9310  1.0669
 1009MOL0     H36209   8.176   4.652   1.442 -1.8132 -0.9576  2.2332
 1009MOL0     H36210   8.302   4.553   1.508 -1.2234 -1.3062 -3.6090
 1009MOL0     H36211   8.102   4.707   1.843 -1.8678 -0.8552 -0.5354
 1009MOL0     H36212   8.689   4.822   1.349 -3.6234 -0.9592 -2.0439
 1009MOL0     H36213   8.879   4.890   1.456  1.2547 -3.3478  0.4501
 1009MOL0     H36214   9.027   4.860   1.370 -2.4741 -2.5709 -0.8486
 1009MOL0     H36215   8.964   5.025   1.374 -1.7608  0.7017  2.1540
 1010MOL0     O36216   4.976   9.583   1.304 -0.1368 -0.4041  0.7126
 1010MOL0     C36217   4.984   9.569   1.179  0.3543  0.3775  0.3507
 1010MOL0     O36218   5.045   9.460   1.119  0.6449  0.1750  0.5984
 1010MOL0     C36219   5.156   9.401   1.184  0.3408 -0.5030  0.1036
 1010MOL0     C36220   5.159   9.262   1.173 -0.1775 -0.8633 -0.2813
 1010MOL0     C36221   5.269   9.199   1.224 -0.7414  1.4639  0.3685
 1010MOL0     C36222   5.373   9.261   1.294  0.5122 -0.2032 -0.2563
 1010MOL0     O36223   5.475   9.192   1.349 -0.1603 -0.1651  0.7456
 1010MOL0     C36224   5.427   9.141   1.479  0.4407 -1.3141  0.8652
 1010MOL0     C36225   5.517   9.180   1.599  0.3834  0.5281  0.0789
 1010MOL0     C36226   5.655   9.128   1.578 -0.3656 -0.1628 -0.1855
 1010MOL0     C36227   5.751   9.181   1.691  1.1400  0.0597 -0.2815
 1010MOL0     C36228   5.902   9.158   1.658  0.4553  0.8546 -0.9225
 1010MOL0     C36229   5.997   9.225   1.757  0.0289  0.2348  0.1016
 1010MOL0     C36230   5.987   9.163   1.903 -1.0125 -0.1578  1.4172
 1010MOL0     C36231   6.013   9.270   2.012  0.7963 -0.2340  0.1142
 1010MOL0     N36232   6.137   9.337   1.995  0.1295 -0.5332  0.1569
 1010MOL0     C36233   6.253   9.276   1.958 -0.4396 -1.2638 -0.2766
 1010MOL0     C36234   6.335   9.379   1.915  1.0458 -0.0093 -0.8089
 1010MOL0     C36235   6.480   9.361   1.883 -1.3306 -0.5973  0.7016
 1010MOL0     C36236   6.563   9.475   1.958  0.1351  0.9232  0.0210
 1010MOL0     C36237   6.564   9.468   2.117  0.5950  0.0281  0.5161
 1010MOL0     C36238   6.594   9.337   2.183  0.5899  0.3704 -0.0288
 1010MOL0     O36239   6.713   9.274   2.132  0.1104  0.2531 -0.5157
 1010MOL0     C36240   6.834   9.292   2.198 -1.0343 -0.3772  0.8341
 1010MOL0     C36241   6.940   9.221   2.142  0.8542 -0.7314  0.1216
 1010MOL0     C36242   7.068   9.211   2.207  0.3138  0.5550 -0.4430
 1010MOL0     C36243   7.088   9.277   2.334 -0.3948 -0.0721  0.2882
 1010MOL0     C36244   7.221   9.254   2.399  0.1652  1.1621  0.6595
 1010MOL0     O36245   7.250   9.338   2.507 -0.1215 -0.1958  0.4039
 1010MOL0     C36246   7.348   9.299   2.592 -0.1842  0.7598  0.3190
 1010MOL0     C36247   7.487   9.283   2.553 -0.0211  0.7880  0.2259
 1010MOL0     C36248   7.570   9.215   2.643  0.1213 -0.0143  0.0654
 1010MOL0     C36249   7.526   9.184   2.775 -0.2131 -0.7402 -0.2088
 1010MOL0     O36250   7.621   9.137   2.857  0.2298  0.7055  0.3791
 1010MOL0     C36251   7.612   8.990   2.875 -0.5969  0.6140  0.0601
 1010MOL0     C36252   7.693   8.905   2.773  0.5506 -1.0305 -0.1554
 1010MOL0     C36253   7.844   8.923   2.767  0.0828 -0.3136  0.4308
 1010MOL0     C36254   7.909   8.932   2.903 -0.6187 -1.1709 -0.5096
 1010MOL0     C36255   8.060   8.930   2.892  0.4668  0.1183 -0.7264
 1010MOL0     C36256   8.139   9.036   2.977 -0.1261 -0.3791  0.3121
 1010MOL0     C36257   8.100   9.184   2.959 -0.5125 -0.5945  0.6201
 1010MOL0     C36258   8.098   9.239   2.812 -0.7163  0.0574 -0.0926
 1010MOL0    Cl36259   8.260   9.247   2.748  0.0246  0.1612 -0.1277
 1010MOL0     C36260   7.398   9.206   2.814 -1.1010 -0.3927  0.5312
 1010MOL0     C36261   7.311   9.261   2.723  0.1238  0.3552 -0.1514
 1010MOL0     O36262   7.278   9.151   2.372  0.3956  0.5760  0.5090
 1010MOL0     C36263   6.979   9.337   2.392 -0.4283 -0.2175 -0.5944
 1010MOL0     C36264   6.858   9.352   2.322 -0.6466  0.3273 -0.1060
 1010MOL0     N36265   6.263   9.501   1.935  0.3969  0.0592  0.0175
 1010MOL0     N36266   6.145   9.474   1.984  0.8046 -0.6244 -1.4864
 1010MOL0     C36267   5.359   9.397   1.321  0.3225  0.1007 -0.1581
 1010MOL0     C36268   5.247   9.466   1.258  0.0929  0.0492 -0.0279
 1010MOL0     C36269   4.925   9.667   1.086  0.2905  0.5029  0.8413
 1010MOL0     C36270   4.883   9.625   0.962 -0.1133  0.2028  0.2717
 1010MOL0     C36271   4.823   9.715   0.860  0.0686 -0.5934 -0.1630
 1010MOL0     C36272   4.789   9.841   0.900  0.6024  0.1596 -0.1843
 1010MOL0     O36273   4.720   9.937   0.816 -0.2555  0.3531  0.8001
 1010MOL0     C36274   4.754   9.922   0.674 -0.2382 -0.7181  0.7044
 1010MOL0     C36275   4.770  10.063   0.617  0.3124  0.4016  0.4668
 1010MOL0     C36276   4.785  10.059   0.468  0.2327  0.7748 -0.1220
 1010MOL0     C36277   4.843  10.194   0.415  0.0892 -0.1807 -0.2410
 1010MOL0     C36278   4.752  10.300   0.442 -0.4529 -0.3552 -0.8419
 1010MOL0     C36279   4.667  10.384   0.463  0.0873  0.4243  0.2527
 1010MOL0     C36280   4.811   9.883   1.035 -0.3673 -0.1458  0.3027
 1010MOL0     C36281   4.887   9.804   1.116 -0.7675  0.0794 -0.2881
 1010MOL0     C36282   4.935   9.871   1.251  0.3044  0.1233 -0.0991
 1010MOL0     H36283   5.081   9.203   1.126 -0.4885 -1.3844  0.8422
 1010MOL0     H36284   5.283   9.092   1.207 -0.2426  1.4195  1.0320
 1010MOL0     H36285   5.324   9.166   1.504 -0.6229  0.6922 -4.1940
 1010MOL0     H36286   5.424   9.034   1.456  1.6340 -0.5149 -4.5855
 1010MOL0     H36287   5.477   9.134   1.689 -0.0205 -1.3418 -1.0033
 1010MOL0     H36288   5.525   9.286   1.624 -2.3989  0.1484  3.3031
 1010MOL0     H36289   5.680   9.175   1.482 -0.3514  2.7064  1.1127
 1010MOL0     H36290   5.669   9.021   1.597  3.0101  0.6010  2.5738
 1010MOL0     H36291   5.734   9.284   1.721 -0.0279  0.5913 -2.5176
 1010MOL0     H36292   5.711   9.116   1.769 -0.6939 -0.9249 -1.9296
 1010MOL0     H36293   5.912   9.050   1.671 -1.5346  0.5028 -1.9407
 1010MOL0     H36294   5.933   9.175   1.555 -0.0641 -3.6664 -2.0437
 1010MOL0     H36295   6.097   9.219   1.713 -0.2567  2.3056 -0.9162
 1010MOL0     H36296   5.973   9.331   1.758 -2.4835 -0.2683  1.5518
 1010MOL0     H36297   6.069   9.091   1.906  3.6368  4.4945  1.0051
 1010MOL0     H36298   5.891   9.123   1.938 -0.1018  0.6735  5.3312
 1010MOL0     H36299   5.927   9.337   2.021  0.6375 -0.6963  3.3311
 1010MOL0     H36300   6.025   9.216   2.107 -1.1867 -3.0963 -1.1223
 1010MOL0     H36301   6.269   9.169   1.945  0.3436 -1.1460 -0.3791
 1010MOL0     H36302   6.516   9.263   1.915 -1.1586 -0.7097  0.1693
 1010MOL0     H36303   6.494   9.369   1.774  3.6143  0.1152  1.1461
 1010MOL0     H36304   6.668   9.464   1.927  0.7491 -2.1163  2.5883
 1010MOL0     H36305   6.526   9.576   1.940  0.2180  0.9963  0.2544
 1010MOL0     H36306   6.464   9.497   2.149 -1.0525 -2.9014 -1.4849
 1010MOL0     H36307   6.620   9.545   2.170 -1.5222  2.3183 -0.3687
 1010MOL0     H36308   6.514   9.267   2.155  2.8792 -1.4285 -2.5320
 1010MOL0     H36309   6.584   9.343   2.292  0.6755 -0.4833  0.0355
 1010MOL0     H36310   6.910   9.170   2.051  0.5456  1.4977 -1.1093
 1010MOL0     H36311   7.148   9.158   2.157  1.4476  0.5852  1.2654
 1010MOL0     H36312   7.535   9.313   2.460  0.3931  0.2187  0.2527
 1010MOL0     H36313   7.676   9.218   2.619  0.0255  1.5578 -0.2350
 1010MOL0     H36314   7.646   8.954   2.972 -0.5105 -1.3200 -0.6458
 1010MOL0     H36315   7.505   8.964   2.869 -0.3280 -0.2698 -2.9998
 1010MOL0     H36316   7.663   8.801   2.789 -1.0517 -1.0868 -2.8813
 1010MOL0     H36317   7.661   8.925   2.671  0.4255  0.3286  0.1230
 1010MOL0     H36318   7.889   8.841   2.711  1.4836  1.2774 -0.8895
 1010MOL0     H36319   7.872   9.014   2.712  2.0531  0.7622  3.0308
 1010MOL0     H36320   7.882   8.861   2.981  3.1574 -0.7495  1.3822
 1010MOL0     H36321   7.873   9.029   2.940  0.2288 -1.7791  2.1616
 1010MOL0     H36322   8.087   8.937   2.786  0.7086  0.6571 -0.6293
 1010MOL0     H36323   8.086   8.828   2.923  0.5350  0.5988  0.8921
 1010MOL0     H36324   8.107   9.016   3.080  1.3317  1.3953  1.1702
 1010MOL0     H36325   8.247   9.021   2.978  0.0480  0.2639 -2.2703
 1010MOL0     H36326   8.167   9.247   3.018 -0.5244 -1.5358  1.6714
 1010MOL0     H36327   7.997   9.196   2.993 -1.5856 -1.4654 -2.0282
 1010MOL0     H36328   8.036   9.164   2.763  0.1967 -1.0984  0.4655
 1010MOL0     H36329   8.051   9.337   2.803 -1.7849 -0.4794 -0.4439
 1010MOL0     H36330   7.358   9.173   2.910 -0.0261  0.1315  1.1732
 1010MOL0     H36331   7.208   9.271   2.754  0.3131 -0.0272  0.6215
 1010MOL0     H36332   6.972   9.395   2.484 -4.1279 -1.0942 -0.1629
 1010MOL0     H36333   6.788   9.407   2.384  0.4988  0.2442  1.3077
 1010MOL0     H36334   5.436   9.455   1.371 -0.0420 -0.7069  1.4116
 1010MOL0     H36335   5.231   9.573   1.268  2.7208  0.5132 -0.0080
 1010MOL0     H36336   4.892   9.521   0.933 -4.2463 -0.3633  0.4999
 1010MOL0     H36337   4.790   9.684   0.761 -1.0401 -1.0571  0.3316
 1010MOL0     H36338   4.677   9.863   0.624  2.2065 -4.4610  0.9839
 1010MOL0     H36339   4.848   9.867   0.669 -1.6396 -3.1805  0.1019
 1010MOL0     H36340   4.851  10.124   0.657  2.3639 -2.0360  0.3169
 1010MOL0     H36341   4.675  10.109   0.646 -2.1130 -3.0467 -1.2214
 1010MOL0     H36342   4.690  10.034   0.420  2.0924 -0.8245 -3.3021
 1010MOL0     H36343   4.850   9.980   0.430 -1.3686  0.1370 -1.6810
 1010MOL0     H36344   4.933  10.215   0.474 -0.6473 -0.1810  0.9114
 1010MOL0     H36345   4.867  10.180   0.309  1.7070 -1.5899  0.2548
 1010MOL0     H36346   4.594  10.457   0.490 -0.1558  0.1682  0.2914
 1010MOL0     H36347   4.791   9.982   1.074  1.1318  0.6735 -0.8982
 1010MOL0     H36348   5.041   9.860   1.279 -0.2698  0.4821  2.5471
 1010MOL0     H36349   4.915   9.979   1.250  0.6826  0.2164 -2.6579
 1010MOL0     H36350   4.869   9.834   1.330 -0.6628  0.5145 -0.7107
 1011MOL0     O36351   1.006   4.727   2.335 -1.1368 -0.4088  0.7795
 1011MOL0     C36352   0.952   4.769   2.434  0.3276 -0.0249 -0.1023
 1011MOL0     O36353   0.810   4.785   2.440 -0.6002 -0.3819 -0.0648
 1011MOL0     C36354   0.735   4.786   2.327  0.5345  0.3672  0.1813
 1011MOL0     C36355   0.614   4.720   2.331  0.2672 -0.2585  0.5676
 1011MOL0     C36356   0.524   4.709   2.238 -0.1748 -0.8855 -0.0488
 1011MOL0     C36357   0.554   4.777   2.116 -0.1500 -0.2083  0.8721
 1011MOL0     O36358   0.470   4.760   2.011  0.7231 -0.5613  0.0923
 1011MOL0     C36359   0.364   4.860   2.005  0.3623  0.4412 -0.5161
 1011MOL0     C36360   0.222   4.804   2.063 -0.7856  0.4748  0.9426
 1011MOL0     C36361   0.146   4.728   1.945 -0.0555 -0.6752  0.1263
 1011MOL0     C36362   0.019   4.663   1.999 -0.5556  0.1207  0.0406
 1011MOL0     C36363  -0.089   4.613   1.898 -0.3846  0.3921  0.9205
 1011MOL0     C36364  -0.022   4.561   1.774  0.3246 -0.3810  0.4073
 1011MOL0     C36365  -0.107   4.477   1.686 -0.6049  0.2345  0.4364
 1011MOL0     C36366  -0.223   4.543   1.618  0.9594  0.6529 -1.0823
 1011MOL0     N36367  -0.190   4.645   1.517 -0.3948  0.2438  0.5555
 1011MOL0     C36368  -0.113   4.756   1.528 -0.4284 -0.1019  0.9767
 1011MOL0     C36369  -0.110   4.801   1.396 -0.1933 -0.1560 -0.6458
 1011MOL0     C36370  -0.026   4.920   1.353 -0.0942  0.6533 -0.0266
 1011MOL0     C36371   0.087   4.881   1.257 -0.0765 -0.4219  0.1081
 1011MOL0     C36372   0.222   4.840   1.327  0.7699 -0.2558  0.0935
 1011MOL0     C36373   0.215   4.755   1.452 -0.0706 -0.0744 -1.1185
 1011MOL0     O36374   0.348   4.716   1.499  0.7450 -0.5117  0.2206
 1011MOL0     C36375   0.438   4.810   1.533  0.0421 -0.1852  0.3184
 1011MOL0     C36376   0.410   4.897   1.626  0.0880  0.0957  0.2882
 1011MOL0     C36377   0.503   4.997   1.657 -0.1667  0.1362 -0.7855
 1011MOL0     C36378   0.622   5.008   1.582 -0.4376  0.1314  0.2240
 1011MOL0     C36379   0.719   5.115   1.601  0.9235 -0.0507  0.0321
 1011MOL0     O36380   0.704   5.200   1.714 -1.0351  0.3360  0.8378
 1011MOL0     C36381   0.782   5.313   1.744  0.4388 -0.7413 -0.8949
 1011MOL0     C36382   0.722   5.423   1.805  0.2130  0.6869 -0.1809
 1011MOL0     C36383   0.805   5.526   1.849 -0.9656  0.0699 -0.1411
 1011MOL0     C36384   0.941   5.532   1.816  0.0669  0.9920 -0.1342
 1011MOL0     O36385   1.013   5.641   1.862  0.6681 -0.0156 -0.1530
 1011MOL0     C36386   1.151   5.626   1.876 -0.8323 -0.5288  0.0212
 1011MOL0     C36387   1.204   5.749   1.953 -0.5911  1.0470 -0.2616
 1011MOL0     C36388   1.354   5.754   1.945 -0.9773 -0.4160  1.3720
 1011MOL0     C36389   1.402   5.877   2.023 -0.5911  0.0815 -0.4661
 1011MOL0     C36390   1.549   5.909   1.986  0.1131 -0.0160 -0.0109
 1011MOL0     C36391   1.581   6.055   2.021 -0.1723 -0.1030  0.2617
 1011MOL0     C36392   1.608   6.072   2.176  0.5579  0.0243  0.3157
 1011MOL0     C36393   1.593   6.221   2.223 -0.2896 -0.1680 -0.0027
 1011MOL0    Cl36394   1.668   6.342   2.118  0.2539 -0.2856 -0.0367
 1011MOL0     C36395   1.001   5.421   1.746 -0.4187 -0.2346  0.0586
 1011MOL0     C36396   0.918   5.313   1.711 -0.1930  0.3474  0.0926
 1011MOL0     O36397   0.799   5.130   1.512 -0.6661 -0.2884 -0.4185
 1011MOL0     C36398   0.648   4.912   1.481  1.0086  0.0856  0.3059
 1011MOL0     C36399   0.561   4.807   1.466  0.6842  0.0341 -0.2704
 1011MOL0     N36400  -0.186   4.719   1.316  0.5557 -0.6483 -0.7057
 1011MOL0     N36401  -0.227   4.625   1.392  1.1833  0.7951  0.0971
 1011MOL0     C36402   0.675   4.859   2.095  0.6483  0.2826 -0.2113
 1011MOL0     C36403   0.766   4.857   2.204  0.9764  1.2854  0.1499
 1011MOL0     C36404   1.025   4.786   2.567  0.2981  0.0255 -0.6204
 1011MOL0     C36405   0.947   4.832   2.683 -0.0368 -0.3932 -0.3146
 1011MOL0     C36406   0.994   4.841   2.811 -1.1200  0.0719 -0.2664
 1011MOL0     C36407   1.123   4.781   2.832 -0.0094 -0.2317 -0.8765
 1011MOL0     O36408   1.180   4.793   2.951  0.7248 -0.1725  0.4664
 1011MOL0     C36409   1.194   4.684   3.048 -0.2819 -0.5912  0.3131
 1011MOL0     C36410   1.266   4.552   3.007 -0.4023  0.7544  0.1619
 1011MOL0     C36411   1.422   4.576   2.990 -0.1512  0.2983 -0.3319
 1011MOL0     C36412   1.506   4.452   2.968 -0.9663  0.2196  0.2927
 1011MOL0     C36413   1.651   4.488   2.982  0.3914  0.2355  0.0111
 1011MOL0     C36414   1.765   4.517   2.949 -0.5527 -0.4975 -0.0132
 1011MOL0     C36415   1.200   4.733   2.724  0.0071  0.3241  0.5801
 1011MOL0     C36416   1.152   4.733   2.593  0.7550  0.0302  0.4327
 1011MOL0     C36417   1.249   4.695   2.488 -0.1717  0.8099 -1.1880
 1011MOL0     H36418   0.586   4.681   2.429  3.4729 -1.6813  1.0754
 1011MOL0     H36419   0.431   4.657   2.258  1.6061 -4.2891  0.2767
 1011MOL0     H36420   0.382   4.950   2.064  1.3119  0.5039 -0.8885
 1011MOL0     H36421   0.358   4.902   1.905  2.6689 -0.4673 -1.1129
 1011MOL0     H36422   0.164   4.889   2.101 -0.1277  1.3147  0.1261
 1011MOL0     H36423   0.236   4.733   2.145 -3.4658  1.5678  2.4687
 1011MOL0     H36424   0.216   4.655   1.902 -0.2172 -0.8104  0.0908
 1011MOL0     H36425   0.118   4.801   1.869 -0.5018  2.2034  2.8573
 1011MOL0     H36426   0.046   4.577   2.061  3.1729  0.0028 -1.5298
 1011MOL0     H36427  -0.023   4.744   2.059 -0.4323 -1.8705  2.9941
 1011MOL0     H36428  -0.165   4.550   1.946 -1.9288  2.7872  1.8300
 1011MOL0     H36429  -0.149   4.701   1.874  1.1676  1.8768  2.2643
 1011MOL0     H36430   0.026   4.640   1.714 -0.3059 -1.4425 -1.5718
 1011MOL0     H36431   0.051   4.486   1.805  0.6845 -0.7295 -1.2061
 1011MOL0     H36432  -0.150   4.397   1.748  1.5230 -0.3355  1.2368
 1011MOL0     H36433  -0.050   4.429   1.607 -1.4014 -0.0169 -0.0042
 1011MOL0     H36434  -0.289   4.466   1.577  0.4276  1.1470 -1.1786
 1011MOL0     H36435  -0.282   4.601   1.690  0.6374  1.4022 -1.9141
 1011MOL0     H36436  -0.086   4.800   1.623  0.8296 -2.3422  1.7219
 1011MOL0     H36437  -0.092   4.989   1.300 -1.6700 -0.9243 -0.2128
 1011MOL0     H36438   0.014   4.969   1.442  3.3848 -0.8680 -0.6103
 1011MOL0     H36439   0.051   4.795   1.199  0.0973  0.9036 -2.0870
 1011MOL0     H36440   0.103   4.964   1.187  1.8279 -0.2095  0.7184
 1011MOL0     H36441   0.275   4.933   1.350  0.7425 -0.8469  2.9724
 1011MOL0     H36442   0.283   4.798   1.246  4.0465  1.4518  1.4717
 1011MOL0     H36443   0.164   4.662   1.427  4.1041 -2.4885 -1.6342
 1011MOL0     H36444   0.161   4.804   1.534 -0.8037  0.0307 -1.6564
 1011MOL0     H36445   0.313   4.908   1.673  0.7368  1.4384  1.3837
 1011MOL0     H36446   0.481   5.068   1.737 -1.7240  1.1129 -2.0302
 1011MOL0     H36447   0.617   5.412   1.831  0.3862  0.9004  0.6158
 1011MOL0     H36448   0.765   5.605   1.912  1.3445 -0.6930  2.4762
 1011MOL0     H36449   1.174   5.537   1.935  0.8151  0.4203  0.8672
 1011MOL0     H36450   1.186   5.619   1.772 -2.1709 -2.1275 -0.3777
 1011MOL0     H36451   1.157   5.840   1.914 -2.0467  0.2567 -0.4266
 1011MOL0     H36452   1.162   5.731   2.053  2.0931  0.9443  0.9225
 1011MOL0     H36453   1.410   5.667   1.981  1.7778  0.4045 -0.6189
 1011MOL0     H36454   1.385   5.774   1.842 -3.0180  5.4737  1.5504
 1011MOL0     H36455   1.393   5.870   2.132 -1.7943 -0.9804 -0.6117
 1011MOL0     H36456   1.341   5.958   1.981  1.2548  0.8684 -1.7928
 1011MOL0     H36457   1.566   5.894   1.879 -1.2572  0.9596 -0.3980
 1011MOL0     H36458   1.615   5.831   2.024 -0.7447 -0.8527 -0.2135
 1011MOL0     H36459   1.679   6.071   1.974  0.8703 -0.7236  2.0851
 1011MOL0     H36460   1.498   6.118   1.989 -0.2943 -0.7639 -0.7277
 1011MOL0     H36461   1.710   6.036   2.190  0.2198 -0.6471  1.1316
 1011MOL0     H36462   1.537   6.015   2.237  2.8057 -3.4770 -0.1073
 1011MOL0     H36463   1.486   6.242   2.232 -0.4027 -0.6419 -0.1776
 1011MOL0     H36464   1.634   6.241   2.322  1.9427  0.8988 -1.0716
 1011MOL0     H36465   1.109   5.419   1.741 -0.3480 -2.5743  1.1260
 1011MOL0     H36466   0.965   5.223   1.674 -1.6862 -0.9284  1.1628
 1011MOL0     H36467   0.740   4.917   1.424  2.3923  0.4661  2.4548
 1011MOL0     H36468   0.594   4.723   1.406  2.4988  0.6332 -0.1704
 1011MOL0     H36469   0.684   4.923   2.008 -2.0258  3.7386  1.8008
 1011MOL0     H36470   0.860   4.908   2.193  0.2955  2.5553  0.0878
 1011MOL0     H36471   0.847   4.867   2.661  0.8277  1.2010 -2.0139
 1011MOL0     H36472   0.929   4.886   2.885 -3.4164 -1.4531 -1.2505
 1011MOL0     H36473   1.092   4.655   3.072 -0.8976  0.3902 -1.0165
 1011MOL0     H36474   1.244   4.724   3.137 -0.7277 -0.5611  0.5507
 1011MOL0     H36475   1.225   4.515   2.913 -0.6114  1.2184  0.0640
 1011MOL0     H36476   1.247   4.473   3.080  3.3918  0.7469  1.3568
 1011MOL0     H36477   1.465   4.628   3.076  0.1420 -3.0980  1.7531
 1011MOL0     H36478   1.437   4.638   2.901  0.5787 -0.4043 -0.7057
 1011MOL0     H36479   1.458   4.371   3.023 -0.3190 -0.3969 -0.0261
 1011MOL0     H36480   1.492   4.424   2.864 -1.4503  0.9404  0.1585
 1011MOL0     H36481   1.857   4.560   2.915 -1.9105  2.6347 -0.0372
 1011MOL0     H36482   1.298   4.689   2.741  0.0768 -0.0477 -0.6512
 1011MOL0     H36483   1.214   4.618   2.420  4.0209 -2.4568 -0.0885
 1011MOL0     H36484   1.279   4.782   2.429 -3.0515  2.7633 -0.0169
 1011MOL0     H36485   1.344   4.663   2.533  0.5154  2.1926 -1.5813
 1012MOL0     O36486   2.611   1.373  10.963 -0.0793  0.1795  0.1926
 1012MOL0     C36487   2.591   1.299  11.056  0.1451  0.0955 -0.6820
 1012MOL0     O36488   2.653   1.305  11.175  0.3765  0.2714  0.7671
 1012MOL0     C36489   2.730   1.414  11.201  0.7867 -0.4874  0.7351
 1012MOL0     C36490   2.678   1.544  11.181  0.3982  0.2837 -0.6971
 1012MOL0     C36491   2.753   1.657  11.211 -0.7511  0.3983  0.9144
 1012MOL0     C36492   2.885   1.642  11.252  0.3433  0.5248  0.1977
 1012MOL0     O36493   2.940   1.767  11.279 -0.1131  0.2194  0.6870
 1012MOL0     C36494   3.069   1.769  11.336 -0.2705  0.3201  0.1144
 1012MOL0     C36495   3.128   1.910  11.353  0.5489  0.8849  0.0134
 1012MOL0     C36496   3.283   1.912  11.383  0.2038  0.6433  0.2482
 1012MOL0     C36497   3.336   2.053  11.385 -0.0276 -0.7241 -0.1596
 1012MOL0     C36498   3.486   2.050  11.372  0.2597  0.4653 -0.8224
 1012MOL0     C36499   3.528   2.198  11.367  1.3208 -0.6011 -0.0638
 1012MOL0     C36500   3.673   2.235  11.391  0.4307 -0.6168 -1.2977
 1012MOL0     C36501   3.717   2.210  11.537 -0.2491  1.3641  0.1669
 1012MOL0     N36502   3.851   2.249  11.564  0.0703 -0.4382 -0.5608
 1012MOL0     C36503   3.886   2.373  11.616 -0.4592 -0.0086 -0.0792
 1012MOL0     C36504   4.022   2.372  11.629 -0.0004 -0.4650  0.5305
 1012MOL0     C36505   4.109   2.490  11.664  0.0024 -0.7729 -0.6384
 1012MOL0     C36506   4.126   2.570  11.545  0.3893 -0.7674  0.0095
 1012MOL0     C36507   4.198   2.694  11.589  0.1889  0.0615  0.4891
 1012MOL0     C36508   4.323   2.663  11.674  0.5004 -0.3414 -0.4827
 1012MOL0     O36509   4.423   2.757  11.638  0.4862  0.5162 -0.1567
 1012MOL0     C36510   4.544   2.730  11.684 -0.1476  0.7513  0.1237
 1012MOL0     C36511   4.642   2.781  11.597 -0.2515 -0.3310  0.4071
 1012MOL0     C36512   4.773   2.766  11.644  0.1645  0.3827  0.6762
 1012MOL0     C36513   4.803   2.690  11.761  0.2064  0.0703 -0.5450
 1012MOL0     C36514   4.951   2.667  11.788  0.3571  0.8294  0.0182
 1012MOL0     O36515   5.047   2.711  11.691 -0.3082 -0.3432 -0.3599
 1012MOL0     C36516   5.179   2.691  11.703 -0.3188  0.0613 -0.5789
 1012MOL0     C36517   5.249   2.741  11.813 -0.1241 -0.1124  0.2598
 1012MOL0     C36518   5.383   2.733  11.810  0.2448  0.1994  0.8800
 1012MOL0     C36519   5.458   2.664  11.707  0.7421  0.3219 -0.2126
 1012MOL0     O36520   5.592   2.671  11.698  0.4394 -0.4430 -0.0304
 1012MOL0     C36521   5.670   2.560  11.643  0.2642 -0.0664 -0.5788
 1012MOL0     C36522   5.816   2.603  11.663 -0.3081  0.0219 -0.9492
 1012MOL0     C36523   5.854   2.557  11.810  0.7969  0.1774 -0.2057
 1012MOL0     C36524   5.984   2.611  11.846  0.4738  0.5649 -0.0184
 1012MOL0     C36525   6.022   2.561  11.993  0.4709  0.5472  0.0268
 1012MOL0     C36526   6.166   2.587  12.012  0.4879 -0.4146  0.3207
 1012MOL0     C36527   6.217   2.558  12.150 -0.6003  0.4221 -0.3419
 1012MOL0     C36528   6.371   2.514  12.162 -0.5096 -0.1970  0.3547
 1012MOL0    Cl36529   6.480   2.612  12.056 -0.1421 -0.1386 -0.0316
 1012MOL0     C36530   5.375   2.608  11.604 -0.6098  0.5481  0.1760
 1012MOL0     C36531   5.243   2.632  11.594 -0.4752  0.7975  0.2389
 1012MOL0     O36532   4.981   2.606  11.895  0.4636 -0.4417  0.7730
 1012MOL0     C36533   4.701   2.653  11.849  0.3447  0.5412  0.2631
 1012MOL0     C36534   4.572   2.661  11.802  0.2496  0.3686 -0.2302
 1012MOL0     N36535   4.069   2.255  11.575  0.1404 -0.1728  1.1493
 1012MOL0     N36536   3.966   2.184  11.549 -0.5381 -0.8325  0.7296
 1012MOL0     C36537   2.933   1.511  11.281  0.4033  0.5495  0.1045
 1012MOL0     C36538   2.856   1.401  11.247 -0.9211 -0.3167  0.4668
 1012MOL0     C36539   2.504   1.176  11.034 -0.3031 -0.1359 -0.0501
 1012MOL0     C36540   2.521   1.073  11.120  0.8227 -0.2820  0.0428
 1012MOL0     C36541   2.433   0.957  11.109 -0.3993  0.2556  0.1454
 1012MOL0     C36542   2.338   0.950  11.009 -0.6505  0.4213  0.2515
 1012MOL0     O36543   2.256   0.835  11.010 -0.5215 -0.5100 -0.0428
 1012MOL0     C36544   2.164   0.810  10.897 -0.0269  0.0540  0.3999
 1012MOL0     C36545   2.027   0.891  10.892  0.1953 -0.7887 -0.5309
 1012MOL0     C36546   1.964   0.870  11.033 -0.8504 -0.0032 -0.0212
 1012MOL0     C36547   1.862   0.973  11.074  0.7404  0.3131  1.0056
 1012MOL0     C36548   1.748   0.968  10.981 -0.3901  0.0715  1.8275
 1012MOL0     C36549   1.669   0.960  10.894  0.7676  0.2913 -0.4066
 1012MOL0     C36550   2.325   1.061  10.922  0.6200 -0.2266  0.8319
 1012MOL0     C36551   2.404   1.171  10.931 -0.4656 -0.6061  0.0617
 1012MOL0     C36552   2.372   1.286  10.832 -0.7729  0.5380 -0.5687
 1012MOL0     H36553   2.580   1.563  11.139  0.4769  1.4881 -0.3752
 1012MOL0     H36554   2.716   1.758  11.198 -3.0127 -0.2934  1.6014
 1012MOL0     H36555   3.064   1.723  11.435 -4.5676 -2.2388 -1.0243
 1012MOL0     H36556   3.132   1.700  11.278 -2.6723 -0.3849 -1.8086
 1012MOL0     H36557   3.066   1.971  11.419  0.8520  1.1043  0.0954
 1012MOL0     H36558   3.126   1.967  11.260  0.7663  0.1379 -0.4645
 1012MOL0     H36559   3.333   1.858  11.302 -1.2738  1.3453 -1.1758
 1012MOL0     H36560   3.301   1.852  11.473 -1.0263 -3.2116 -1.8519
 1012MOL0     H36561   3.288   2.115  11.309 -0.0799 -0.7456 -0.1439
 1012MOL0     H36562   3.315   2.094  11.484  0.1270 -1.2379  0.0902
 1012MOL0     H36563   3.532   1.991  11.452 -1.5422  1.6077  1.1691
 1012MOL0     H36564   3.525   2.012  11.277 -0.8558  2.5593 -2.1958
 1012MOL0     H36565   3.502   2.249  11.274  2.7348  2.1338  0.9197
 1012MOL0     H36566   3.467   2.248  11.443  0.6520 -0.0283 -0.9512
 1012MOL0     H36567   3.686   2.342  11.370  1.9004 -0.0495  1.9673
 1012MOL0     H36568   3.747   2.181  11.331  1.2662 -2.1753  1.0128
 1012MOL0     H36569   3.652   2.236  11.621  1.8118  1.3271  1.8618
 1012MOL0     H36570   3.722   2.101  11.542  2.7266  1.4593  0.7994
 1012MOL0     H36571   3.817   2.452  11.645 -0.3268  0.7535 -1.6760
 1012MOL0     H36572   4.049   2.554  11.728  0.7379  0.6629 -1.3478
 1012MOL0     H36573   4.201   2.455  11.711  0.5444 -0.2206 -1.2632
 1012MOL0     H36574   4.196   2.521  11.477  1.0124 -2.8123  2.0063
 1012MOL0     H36575   4.031   2.595  11.495  1.6972  3.2540 -0.8554
 1012MOL0     H36576   4.135   2.762  11.648 -1.9797 -1.1689 -0.2962
 1012MOL0     H36577   4.220   2.757  11.502 -0.7577  1.3741  1.1553
 1012MOL0     H36578   4.350   2.562  11.643  2.6676  0.6207 -1.9655
 1012MOL0     H36579   4.292   2.672  11.778 -0.9032  4.3761 -1.0746
 1012MOL0     H36580   4.623   2.838  11.507 -1.5413 -1.6400 -0.1934
 1012MOL0     H36581   4.851   2.802  11.578 -0.8112  0.5597 -0.4263
 1012MOL0     H36582   5.198   2.798  11.890 -2.8741 -2.4749  0.3677
 1012MOL0     H36583   5.443   2.780  11.888  3.2971  0.7779 -1.5995
 1012MOL0     H36584   5.643   2.468  11.695  1.8881  0.5302  1.4614
 1012MOL0     H36585   5.656   2.539  11.536  2.2928 -0.7051 -0.7743
 1012MOL0     H36586   5.872   2.539  11.594 -1.8376 -2.6521  0.1322
 1012MOL0     H36587   5.828   2.711  11.650 -0.4137 -0.1543 -2.7467
 1012MOL0     H36588   5.779   2.601  11.876  1.8398 -1.1069  1.9551
 1012MOL0     H36589   5.847   2.449  11.825 -1.7656  0.3991  0.5954
 1012MOL0     H36590   5.986   2.720  11.838 -2.2486  0.5900 -1.9456
 1012MOL0     H36591   6.049   2.563  11.772  0.0599 -1.0041  0.5898
 1012MOL0     H36592   6.007   2.453  11.987  0.0648  0.6558 -1.0697
 1012MOL0     H36593   5.970   2.606  12.078  1.5840 -0.4459  1.2732
 1012MOL0     H36594   6.226   2.530  11.940 -0.4555 -1.1652  0.1094
 1012MOL0     H36595   6.202   2.688  11.992 -0.0236  0.1709  2.1699
 1012MOL0     H36596   6.151   2.485  12.197  0.2222 -0.9657 -1.2782
 1012MOL0     H36597   6.191   2.648  12.207 -3.0275  0.0077 -0.6921
 1012MOL0     H36598   6.412   2.548  12.258 -1.4902  2.3045 -0.0308
 1012MOL0     H36599   6.386   2.411  12.128 -0.9864  0.9486 -3.9249
 1012MOL0     H36600   5.423   2.554  11.522 -1.9388  1.3245 -1.1838
 1012MOL0     H36601   5.187   2.590  11.512  0.2665  0.2692 -0.0012
 1012MOL0     H36602   4.713   2.588  11.935 -0.5060  1.4789  1.1131
 1012MOL0     H36603   4.492   2.628  11.867 -1.0707 -0.9745 -2.3918
 1012MOL0     H36604   3.030   1.495  11.326  0.0693 -0.5074  0.4917
 1012MOL0     H36605   2.887   1.299  11.266  1.7136  0.2621 -0.3307
 1012MOL0     H36606   2.594   1.069  11.199  0.6829 -3.2632  0.1248
 1012MOL0     H36607   2.432   0.876  11.182 -2.2139  0.0991 -0.0044
 1012MOL0     H36608   2.141   0.704  10.908 -0.7564  0.1151 -0.3918
 1012MOL0     H36609   2.204   0.822  10.796 -3.1338  0.2338 -0.9030
 1012MOL0     H36610   1.951   0.854  10.823 -2.7920 -0.3939  2.2938
 1012MOL0     H36611   2.037   0.998  10.874  0.7083 -0.8017 -0.3410
 1012MOL0     H36612   2.043   0.865  11.109 -1.6350 -3.7156  0.7482
 1012MOL0     H36613   1.915   0.773  11.038  1.3263 -1.3148 -1.8054
 1012MOL0     H36614   1.821   0.953  11.173 -1.5235  2.4802  0.6047
 1012MOL0     H36615   1.903   1.075  11.076  0.1938  0.5447  4.2321
 1012MOL0     H36616   1.598   0.946  10.815 -0.4356  2.1678  0.2697
 1012MOL0     H36617   2.246   1.054  10.848 -0.6393 -0.0263  2.1071
 1012MOL0     H36618   2.308   1.260  10.748  1.1564  0.8669 -2.2123
 1012MOL0     H36619   2.332   1.371  10.889  1.7574  0.4289  1.5456
 1012MOL0     H36620   2.470   1.316  10.794 -0.8214  0.0274 -1.1067
 1013MOL0     O36621   6.376   4.340   2.920  0.1180 -0.2516  0.2897
 1013MOL0     C36622   6.334   4.306   3.033 -0.3662 -0.1952  0.3009
 1013MOL0     O36623   6.403   4.221   3.122  0.1291  0.2517  0.5462
 1013MOL0     C36624   6.531   4.185   3.083 -0.3157 -0.2886 -0.0961
 1013MOL0     C36625   6.564   4.048   3.058  0.1961 -1.1230 -0.4655
 1013MOL0     C36626   6.691   4.005   3.035 -0.3291  0.2839 -0.1216
 1013MOL0     C36627   6.804   4.095   3.052  0.4073 -0.0396 -0.0396
 1013MOL0     O36628   6.928   4.058   3.012 -0.5607  0.0429  0.5493
 1013MOL0     C36629   7.044   4.108   3.092  0.5591  0.1259 -0.5975
 1013MOL0     C36630   7.165   4.023   3.059 -0.2062 -0.0451 -0.5365
 1013MOL0     C36631   7.279   4.039   3.168 -0.3672  1.0361 -0.3428
 1013MOL0     C36632   7.420   3.991   3.112 -0.4429  0.2886 -0.2689
 1013MOL0     C36633   7.526   4.037   3.205 -0.9207 -0.6967 -0.5404
 1013MOL0     C36634   7.658   3.994   3.144  0.9722  0.7680  0.1220
 1013MOL0     C36635   7.709   4.058   3.018 -0.8058 -0.2032 -0.9582
 1013MOL0     C36636   7.714   4.210   3.032 -0.7179  0.2144 -0.3317
 1013MOL0     N36637   7.820   4.260   3.126  0.3790  0.3922 -0.4908
 1013MOL0     C36638   7.959   4.235   3.120  0.6432  0.1664  0.1158
 1013MOL0     C36639   8.013   4.314   3.217 -0.0290  0.6036 -0.0421
 1013MOL0     C36640   8.150   4.320   3.287 -0.8991  0.0603  0.9976
 1013MOL0     C36641   8.253   4.358   3.179  0.9634  0.3701  0.3036
 1013MOL0     C36642   8.400   4.332   3.238  0.1026 -0.9588  0.4790
 1013MOL0     C36643   8.510   4.394   3.152  0.7313 -0.0543  0.3969
 1013MOL0     O36644   8.636   4.398   3.221  0.0723  0.0985  0.0793
 1013MOL0     C36645   8.748   4.459   3.159  0.2295  0.0684 -0.6002
 1013MOL0     C36646   8.769   4.478   3.017  0.1183  0.5946  0.2531
 1013MOL0     C36647   8.884   4.531   2.969  0.2126 -0.5850 -0.5304
 1013MOL0     C36648   8.986   4.562   3.059 -1.4826  0.6615 -0.5206
 1013MOL0     C36649   9.126   4.609   3.021  0.5399  0.4127 -0.2614
 1013MOL0     O36650   9.153   4.605   2.886  0.5806 -0.3630  0.2110
 1013MOL0     C36651   9.283   4.608   2.854  0.3635 -0.7946  1.3623
 1013MOL0     C36652   9.360   4.495   2.889  0.0369 -0.4668  0.4351
 1013MOL0     C36653   9.491   4.494   2.848 -0.4320  0.0765  0.1569
 1013MOL0     C36654   9.542   4.596   2.768 -0.6280  0.9801  0.1944
 1013MOL0     O36655   9.678   4.587   2.733  0.3737 -0.4039 -0.2116
 1013MOL0     C36656   9.748   4.685   2.651  0.8140 -0.1104  0.2913
 1013MOL0     C36657   9.894   4.681   2.656 -0.3682 -0.3987  0.1127
 1013MOL0     C36658   9.939   4.532   2.635 -0.3257 -0.3053  0.1405
 1013MOL0     C36659  10.072   4.514   2.569 -0.1283  0.3694  0.5142
 1013MOL0     C36660  10.119   4.370   2.544 -0.3595  1.1443  0.2130
 1013MOL0     C36661  10.262   4.354   2.524 -0.2571  0.3820 -0.7087
 1013MOL0     C36662  10.301   4.218   2.465  0.2655 -0.8023 -1.0162
 1013MOL0     C36663  10.363   4.253   2.309 -0.2652 -0.0673 -0.5603
 1013MOL0    Cl36664  10.386   4.123   2.195 -0.5564  0.0549 -0.7091
 1013MOL0     C36665   9.465   4.697   2.717  0.5719 -0.6889 -0.6531
 1013MOL0     C36666   9.336   4.709   2.768 -0.2958 -0.9063 -0.5362
 1013MOL0     O36667   9.213   4.630   3.110  0.0443  0.6882  0.0267
 1013MOL0     C36668   8.970   4.536   3.199 -0.0977 -0.3999 -0.6626
 1013MOL0     C36669   8.852   4.494   3.245 -0.6636  0.6796 -0.2725
 1013MOL0     N36670   7.904   4.389   3.275 -1.0831 -0.3041  0.7242
 1013MOL0     N36671   7.787   4.349   3.232  0.4957 -0.2382  0.2988
 1013MOL0     C36672   6.775   4.227   3.092  0.9830  0.2249 -0.2053
 1013MOL0     C36673   6.641   4.271   3.093  0.0087 -0.6111 -0.1874
 1013MOL0     C36674   6.212   4.368   3.086  0.0324 -0.3072  0.5113
 1013MOL0     C36675   6.157   4.323   3.201 -0.1432 -0.5095  1.2255
 1013MOL0     C36676   6.036   4.377   3.249  0.3754  0.8196  0.2578
 1013MOL0     C36677   5.969   4.486   3.198  0.2121 -0.1629 -0.3098
 1013MOL0     O36678   5.856   4.547   3.230  0.3574  0.0303 -0.6804
 1013MOL0     C36679   5.769   4.480   3.324  0.9205  0.3970 -0.2246
 1013MOL0     C36680   5.665   4.590   3.355 -0.7746  0.8996  0.7319
 1013MOL0     C36681   5.598   4.570   3.493 -0.0311  0.3520  1.1780
 1013MOL0     C36682   5.463   4.645   3.498 -0.0182  0.4317 -1.0383
 1013MOL0     C36683   5.354   4.593   3.415  0.2536 -0.6103  0.6102
 1013MOL0     C36684   5.264   4.551   3.338 -0.4068  0.0925  0.5476
 1013MOL0     C36685   6.022   4.533   3.078 -0.3498 -0.4022 -0.5044
 1013MOL0     C36686   6.135   4.475   3.015  0.0049  0.4365  0.6970
 1013MOL0     C36687   6.167   4.525   2.879  0.0886  0.3720  0.8811
 1013MOL0     H36688   6.483   3.979   3.038 -0.8917 -0.2292  0.7428
 1013MOL0     H36689   6.711   3.904   3.000  0.7824  1.1615 -2.2351
 1013MOL0     H36690   7.064   4.214   3.078 -1.7657  0.7459  0.3813
 1013MOL0     H36691   7.017   4.086   3.196 -0.8900 -1.0211 -1.1741
 1013MOL0     H36692   7.213   4.055   2.966  0.7201 -1.3792 -0.5558
 1013MOL0     H36693   7.137   3.919   3.041  0.4566 -0.6612  1.5922
 1013MOL0     H36694   7.250   3.990   3.261 -1.4108 -2.6817 -2.4341
 1013MOL0     H36695   7.292   4.146   3.186  0.9336  0.6277  1.4525
 1013MOL0     H36696   7.426   3.882   3.107 -0.1175  0.1654  1.7089
 1013MOL0     H36697   7.428   4.027   3.009  0.9146  3.0965  0.6960
 1013MOL0     H36698   7.535   4.146   3.205  2.2833 -0.8680  0.3550
 1013MOL0     H36699   7.519   3.990   3.304  2.0269 -2.1571 -0.9297
 1013MOL0     H36700   7.738   4.005   3.217  2.4889  3.1134 -1.7580
 1013MOL0     H36701   7.647   3.886   3.134 -0.7870  1.1235 -3.1347
 1013MOL0     H36702   7.651   4.040   2.927 -1.4105 -0.2141 -0.5735
 1013MOL0     H36703   7.809   4.018   3.000  0.7368  1.7756  2.2913
 1013MOL0     H36704   7.734   4.237   2.928  0.3724 -1.1259 -0.4985
 1013MOL0     H36705   7.616   4.248   3.061 -0.5851  3.1652 -3.1810
 1013MOL0     H36706   8.013   4.148   3.083  2.4707  0.4626  1.9067
 1013MOL0     H36707   8.156   4.401   3.360  0.7006  0.9592 -0.0393
 1013MOL0     H36708   8.184   4.225   3.327  0.9457 -0.3255 -1.2378
 1013MOL0     H36709   8.234   4.297   3.090  4.3325  1.8115 -1.5889
 1013MOL0     H36710   8.232   4.463   3.161 -0.2208  0.5285  2.2826
 1013MOL0     H36711   8.416   4.224   3.238 -0.9301 -1.2320  3.8897
 1013MOL0     H36712   8.412   4.370   3.340  1.0488  0.2052 -0.0476
 1013MOL0     H36713   8.491   4.498   3.121  0.8234 -0.6994 -2.0004
 1013MOL0     H36714   8.520   4.330   3.064 -0.5919 -1.7339  1.4158
 1013MOL0     H36715   8.702   4.455   2.936  1.0875 -1.2302 -0.0723
 1013MOL0     H36716   8.898   4.538   2.861  1.1945 -1.1052 -0.4467
 1013MOL0     H36717   9.316   4.410   2.940  1.6877  0.3464  3.4548
 1013MOL0     H36718   9.555   4.408   2.866 -1.6978 -0.7400  0.8805
 1013MOL0     H36719   9.709   4.664   2.551 -2.1543  4.4612  0.1847
 1013MOL0     H36720   9.712   4.786   2.673 -1.6724 -0.7694 -0.4178
 1013MOL0     H36721   9.948   4.741   2.582  0.9017 -1.1680  0.3918
 1013MOL0     H36722   9.938   4.697   2.755  0.1926 -0.0641 -0.1816
 1013MOL0     H36723   9.945   4.479   2.731 -1.8764 -1.0230 -0.1262
 1013MOL0     H36724   9.867   4.478   2.573  0.7815  0.0190 -1.4977
 1013MOL0     H36725  10.152   4.569   2.621  3.1115 -4.3874  1.2098
 1013MOL0     H36726  10.059   4.561   2.471  1.3432 -1.3939 -0.6039
 1013MOL0     H36727  10.059   4.333   2.461  0.9002 -0.6312  0.0496
 1013MOL0     H36728  10.089   4.315   2.634  0.0720 -2.7691 -1.8584
 1013MOL0     H36729  10.295   4.434   2.457 -1.3616  1.2693 -0.2365
 1013MOL0     H36730  10.304   4.363   2.625 -1.6130 -0.9844  0.0209
 1013MOL0     H36731  10.213   4.156   2.442  1.9260 -3.8434  0.2266
 1013MOL0     H36732  10.373   4.168   2.530  2.0656  0.2610 -2.1101
 1013MOL0     H36733  10.300   4.328   2.261 -0.1931 -0.8938 -2.0267
 1013MOL0     H36734  10.466   4.291   2.314  0.0055 -0.8312 -0.1893
 1013MOL0     H36735   9.491   4.772   2.642 -3.8202  3.0657  1.0293
 1013MOL0     H36736   9.278   4.796   2.738 -0.5078 -1.8102 -3.0659
 1013MOL0     H36737   9.049   4.572   3.264 -0.9324 -0.9710  0.6877
 1013MOL0     H36738   8.825   4.480   3.349 -2.4372  2.9699 -0.3385
 1013MOL0     H36739   6.856   4.299   3.098  0.9084  0.2260  1.2508
 1013MOL0     H36740   6.628   4.378   3.103  3.8582 -0.0515  0.4012
 1013MOL0     H36741   6.191   4.231   3.248  1.7777 -0.9924 -0.9480
 1013MOL0     H36742   6.013   4.325   3.341  0.8254  0.4636  0.1706
 1013MOL0     H36743   5.825   4.464   3.416 -1.5909 -0.1529  1.3047
 1013MOL0     H36744   5.723   4.393   3.277  0.5043  1.5426 -2.0392
 1013MOL0     H36745   5.586   4.580   3.280 -1.6131 -1.7876  1.8329
 1013MOL0     H36746   5.708   4.690   3.356 -1.7403  1.3491 -0.4967
 1013MOL0     H36747   5.666   4.604   3.571  1.5018 -1.3214  0.6573
 1013MOL0     H36748   5.578   4.463   3.504 -2.5000  0.4006 -1.6310
 1013MOL0     H36749   5.436   4.621   3.602  0.0625  2.2203 -0.5761
 1013MOL0     H36750   5.481   4.752   3.482  0.0039  0.2921 -1.9824
 1013MOL0     H36751   5.200   4.519   3.258  2.1156 -3.6371 -0.2173
 1013MOL0     H36752   5.965   4.613   3.032  3.2429  1.8186 -1.5071
 1013MOL0     H36753   6.265   4.573   2.885  0.4802 -0.3713  0.5132
 1013MOL0     H36754   6.180   4.447   2.803  0.7089 -1.1733  2.5298
 1013MOL0     H36755   6.087   4.587   2.836 -0.7219 -0.7939  0.6809
 1014MOL0     O36756   4.800   9.624   5.998 -0.7771 -0.5493  0.0449
 1014MOL0     C36757   4.792   9.503   6.015 -0.8688 -0.1679 -0.0033
 1014MOL0     O36758   4.904   9.413   6.038 -0.2163 -0.7419  0.1102
 1014MOL0     C36759   5.031   9.458   6.035 -0.9434  0.2015  0.3362
 1014MOL0     C36760   5.100   9.472   6.157  0.1848 -0.1050  0.9456
 1014MOL0     C36761   5.230   9.526   6.162 -0.5175 -0.5798  0.1399
 1014MOL0     C36762   5.290   9.573   6.052  0.2565  0.3614 -0.0073
 1014MOL0     O36763   5.405   9.646   6.060 -0.6461 -0.3119 -1.3599
 1014MOL0     C36764   5.531   9.591   6.018 -0.3340 -0.4831  0.0544
 1014MOL0     C36765   5.633   9.631   6.127 -0.9969  0.3753  0.1606
 1014MOL0     C36766   5.772   9.588   6.073  0.2688  0.1532  0.8963
 1014MOL0     C36767   5.874   9.625   6.181  0.8172  0.4085 -0.5554
 1014MOL0     C36768   6.011   9.568   6.146  0.0141  1.5294  0.5526
 1014MOL0     C36769   6.119   9.595   6.242  1.2084 -0.2039  0.7649
 1014MOL0     C36770   6.252   9.528   6.201  0.5241  0.2629  0.2284
 1014MOL0     C36771   6.355   9.517   6.317  0.2043 -0.1889  0.6707
 1014MOL0     N36772   6.492   9.534   6.257  0.1949  0.6026 -0.0304
 1014MOL0     C36773   6.612   9.587   6.309  0.1741  0.0138 -0.7402
 1014MOL0     C36774   6.703   9.552   6.217 -0.6665 -0.6355 -0.1700
 1014MOL0     C36775   6.842   9.610   6.213 -0.5777  0.9155 -0.2226
 1014MOL0     C36776   6.860   9.676   6.073  0.6146 -0.3020  0.4485
 1014MOL0     C36777   7.000   9.736   6.074  0.3772  0.5394  0.2022
 1014MOL0     C36778   7.029   9.805   5.939 -0.3100 -0.3145  0.7929
 1014MOL0     O36779   6.972   9.937   5.925  0.3390  0.8055 -0.4305
 1014MOL0     C36780   6.996  10.008   5.820 -0.4792  0.2024  1.3080
 1014MOL0     C36781   7.125  10.039   5.765  0.4068  0.4204  0.4248
 1014MOL0     C36782   7.130  10.137   5.666  0.6414 -0.1705  0.4119
 1014MOL0     C36783   7.013  10.195   5.616 -0.3116  0.3928  0.6208
 1014MOL0     C36784   7.017  10.301   5.516 -1.0653  0.3690  1.0107
 1014MOL0     O36785   7.142  10.350   5.491  0.0883  0.2976  0.0406
 1014MOL0     C36786   7.152  10.469   5.429 -0.7890 -0.6987  0.7452
 1014MOL0     C36787   7.144  10.584   5.510 -0.1151  0.0445 -0.2961
 1014MOL0     C36788   7.185  10.710   5.457  0.2898  0.0331 -0.7000
 1014MOL0     C36789   7.237  10.724   5.330  0.4553  0.0849  0.2085
 1014MOL0     O36790   7.290  10.845   5.281  0.7353 -0.3737  0.1240
 1014MOL0     C36791   7.298  10.865   5.138 -0.3374  0.3468 -0.5997
 1014MOL0     C36792   7.363  11.003   5.105 -0.1618  0.1583  0.5576
 1014MOL0     C36793   7.275  11.118   5.158 -1.5270  0.0948  0.0670
 1014MOL0     C36794   7.352  11.254   5.153  0.0515  0.2159 -0.4196
 1014MOL0     C36795   7.382  11.303   5.010  0.2784  0.1638 -0.0628
 1014MOL0     C36796   7.431  11.446   5.000 -0.5417 -0.1878  0.1105
 1014MOL0     C36797   7.375  11.505   4.871 -0.3370  0.2737  0.8256
 1014MOL0     C36798   7.248  11.588   4.887  0.5004  0.1782 -0.2243
 1014MOL0    Cl36799   7.307  11.752   4.932  0.1062 -0.3098 -0.3388
 1014MOL0     C36800   7.248  10.604   5.249 -0.3368  0.2425 -0.4278
 1014MOL0     C36801   7.204  10.478   5.304 -0.0664  0.3048 -0.6344
 1014MOL0     O36802   6.914  10.345   5.470  0.5487  0.2430  0.3038
 1014MOL0     C36803   6.888  10.155   5.664  0.4929 -0.4632  0.9771
 1014MOL0     C36804   6.881  10.064   5.766 -0.1337  0.5191  0.2451
 1014MOL0     N36805   6.648   9.478   6.116  0.1296  0.5837  0.5539
 1014MOL0     N36806   6.524   9.465   6.143  0.9175 -0.9359  0.9781
 1014MOL0     C36807   5.223   9.544   5.928  0.6975 -0.3932 -0.1848
 1014MOL0     C36808   5.094   9.488   5.915  0.5053 -0.8005 -0.1585
 1014MOL0     C36809   4.656   9.437   6.020  0.3455 -0.7452 -0.3733
 1014MOL0     C36810   4.635   9.306   6.068 -0.1117  0.1223  0.8021
 1014MOL0     C36811   4.515   9.248   6.099  0.3522 -0.7757  0.1359
 1014MOL0     C36812   4.401   9.322   6.068  0.9235 -0.2409  0.0881
 1014MOL0     O36813   4.272   9.289   6.114  0.2314  0.1222 -0.0678
 1014MOL0     C36814   4.254   9.166   6.196  0.6054 -0.4724  0.6351
 1014MOL0     C36815   4.103   9.141   6.196 -0.0163 -0.0598  0.8440
 1014MOL0     C36816   4.019   9.252   6.271 -1.1763 -0.7190 -0.4647
 1014MOL0     C36817   3.882   9.215   6.296  0.1653 -0.9607 -0.0891
 1014MOL0     C36818   3.807   9.305   6.386 -0.1860  0.1664 -0.3764
 1014MOL0     C36819   3.751   9.375   6.462 -0.1130 -1.2558 -0.6637
 1014MOL0     C36820   4.414   9.451   6.030 -0.0425  0.0732  0.2086
 1014MOL0     C36821   4.530   9.507   5.988  0.1320 -0.1541 -0.0322
 1014MOL0     C36822   4.522   9.646   5.937 -0.9739  0.5642 -0.3214
 1014MOL0     H36823   5.051   9.427   6.243 -1.4176 -1.2307 -0.4903
 1014MOL0     H36824   5.280   9.540   6.258 -1.4501 -5.7896  1.6741
 1014MOL0     H36825   5.522   9.483   6.005  2.2899 -0.5974 -1.3753
 1014MOL0     H36826   5.568   9.633   5.925  3.6120 -1.6552  0.9220
 1014MOL0     H36827   5.617   9.573   6.219  1.4222 -1.1243 -0.2561
 1014MOL0     H36828   5.630   9.740   6.133 -1.2733  0.5199 -2.0255
 1014MOL0     H36829   5.792   9.637   5.977  0.2340 -0.8644  0.3624
 1014MOL0     H36830   5.766   9.479   6.065  1.9940 -0.5147  5.3819
 1014MOL0     H36831   5.886   9.733   6.180 -0.2058  0.5265 -1.3690
 1014MOL0     H36832   5.833   9.593   6.278 -3.0247  0.1765 -2.0724
 1014MOL0     H36833   6.001   9.461   6.126 -1.4034  1.7725 -0.1522
 1014MOL0     H36834   6.038   9.623   6.055  1.9348 -0.5273 -0.2231
 1014MOL0     H36835   6.140   9.700   6.262 -2.8034  0.9973 -0.4135
 1014MOL0     H36836   6.089   9.551   6.338  1.4113 -0.2948  0.7875
 1014MOL0     H36837   6.292   9.577   6.112 -2.5617 -0.5521 -1.7570
 1014MOL0     H36838   6.230   9.426   6.169 -1.2162  1.1780 -1.7212
 1014MOL0     H36839   6.331   9.603   6.381  2.0409  0.8706  0.0003
 1014MOL0     H36840   6.347   9.418   6.363 -0.5382 -0.9842 -1.0999
 1014MOL0     H36841   6.633   9.650   6.395  0.7078 -0.6878 -0.3499
 1014MOL0     H36842   6.851   9.683   6.294  2.3689 -1.3094  1.6884
 1014MOL0     H36843   6.909   9.525   6.227 -2.9469 -0.9278  0.4769
 1014MOL0     H36844   6.842   9.611   5.987  0.0413  2.5242 -1.7331
 1014MOL0     H36845   6.781   9.752   6.074 -3.2879 -4.0131  0.7417
 1014MOL0     H36846   7.073   9.656   6.089 -0.2074 -0.1006 -0.2937
 1014MOL0     H36847   7.016   9.815   6.148  1.0411  0.5673  0.0363
 1014MOL0     H36848   7.000   9.740   5.856  1.2290  1.3239 -1.1369
 1014MOL0     H36849   7.138   9.802   5.928 -0.3406 -2.7415  0.5572
 1014MOL0     H36850   7.210   9.992   5.813 -0.7694 -1.4498  0.8025
 1014MOL0     H36851   7.228  10.172   5.634 -0.1013 -0.1518 -2.0555
 1014MOL0     H36852   7.119  10.585   5.615  4.6258 -1.2012  1.1130
 1014MOL0     H36853   7.177  10.790   5.530  0.9218 -0.2857 -0.2738
 1014MOL0     H36854   7.368  10.787   5.108  1.0096  1.2886 -0.0014
 1014MOL0     H36855   7.202  10.856   5.086  0.2848  0.0030 -1.7258
 1014MOL0     H36856   7.465  11.011   5.144  0.4303  0.1096 -0.9314
 1014MOL0     H36857   7.364  11.003   4.996 -0.7444  0.5488  0.5466
 1014MOL0     H36858   7.188  11.122   5.091  0.3576 -2.7081 -2.8824
 1014MOL0     H36859   7.252  11.092   5.261 -0.4083 -2.6255 -0.2805
 1014MOL0     H36860   7.451  11.240   5.196  0.5350  1.6926 -0.9998
 1014MOL0     H36861   7.309  11.323   5.225  0.9389 -0.5607  0.9070
 1014MOL0     H36862   7.293  11.296   4.947  0.5357  0.7940 -0.5010
 1014MOL0     H36863   7.451  11.225   4.976 -0.2831 -0.6756  0.6708
 1014MOL0     H36864   7.382  11.496   5.085 -2.1960 -0.8902 -0.3977
 1014MOL0     H36865   7.541  11.449   5.006 -0.4624 -2.6570  1.2376
 1014MOL0     H36866   7.377  11.432   4.789  2.2926  1.1656 -0.0139
 1014MOL0     H36867   7.449  11.576   4.833 -0.0409 -0.4598  0.0073
 1014MOL0     H36868   7.185  11.589   4.798 -0.3872 -0.5508  0.3808
 1014MOL0     H36869   7.188  11.541   4.965  0.7736 -1.7609 -1.1250
 1014MOL0     H36870   7.306  10.595   5.158 -2.4661 -1.2292 -1.7233
 1014MOL0     H36871   7.222  10.386   5.250 -1.1399 -1.2484  1.4752
 1014MOL0     H36872   6.802  10.214   5.635  0.1783  1.3454  5.0151
 1014MOL0     H36873   6.785  10.054   5.814 -2.1644  4.7340 -2.3484
 1014MOL0     H36874   5.272   9.566   5.833 -0.3712 -2.8728 -1.4115
 1014MOL0     H36875   5.043   9.468   5.821  0.7786 -0.3875 -0.3983
 1014MOL0     H36876   4.716   9.238   6.093 -1.2276 -0.2966  3.5442
 1014MOL0     H36877   4.505   9.152   6.148 -0.1895 -0.1476  1.2807
 1014MOL0     H36878   4.286   9.180   6.300 -1.7817 -3.3355  1.9101
 1014MOL0     H36879   4.305   9.081   6.151 -1.9956 -1.2221 -1.1031
 1014MOL0     H36880   4.093   9.048   6.252  4.1613 -0.9983  0.3497
 1014MOL0     H36881   4.079   9.116   6.092  1.1512 -0.5049  0.6713
 1014MOL0     H36882   4.031   9.345   6.214 -0.7776 -0.3734  0.1689
 1014MOL0     H36883   4.065   9.266   6.370  1.3403 -2.0142 -1.3663
 1014MOL0     H36884   3.829   9.216   6.200 -1.2550 -1.4956  0.6489
 1014MOL0     H36885   3.878   9.114   6.338 -1.3728 -0.9470 -0.1461
 1014MOL0     H36886   3.695   9.448   6.517  1.1545  0.6789 -1.8010
 1014MOL0     H36887   4.321   9.507   6.021 -0.0234 -0.1412 -1.5836
 1014MOL0     H36888   4.417   9.671   5.919 -1.1725  0.8025  1.0364
 1014MOL0     H36889   4.545   9.718   6.017  0.0950  0.8400 -0.8571
 1014MOL0     H36890   4.590   9.665   5.854  0.0768 -0.1051  0.3565
 1015MOL0     O36891   3.729   0.078   9.813 -0.1403 -0.1661 -0.7222
 1015MOL0     C36892   3.839   0.057   9.866 -0.4946  0.0449  0.6726
 1015MOL0     O36893   3.880   0.102   9.988 -0.2419 -0.1264  0.8773
 1015MOL0     C36894   3.776   0.121  10.080  0.9194  0.2776  0.1369
 1015MOL0     C36895   3.770   0.239  10.158 -0.2447 -0.0911 -0.0743
 1015MOL0     C36896   3.678   0.256  10.259 -0.5796 -1.1246  0.2499
 1015MOL0     C36897   3.568   0.172  10.272 -0.4028  0.4603  0.2977
 1015MOL0     O36898   3.468   0.197  10.364 -0.2992 -0.2135 -0.2458
 1015MOL0     C36899   3.494   0.196  10.507  0.4971 -0.0292  0.0027
 1015MOL0     C36900   3.445   0.057  10.562  0.6041  0.0690  1.4197
 1015MOL0     C36901   3.296   0.021  10.577 -0.0523  1.2046  0.6816
 1015MOL0     C36902   3.270  -0.131  10.567 -0.4079  0.8687  0.7981
 1015MOL0     C36903   3.139  -0.165  10.642 -0.2743 -0.3965  0.4709
 1015MOL0     C36904   3.014  -0.096  10.594 -0.1744  0.0970  0.3880
 1015MOL0     C36905   2.882  -0.153  10.654 -0.3366 -0.7963  0.1073
 1015MOL0     C36906   2.846  -0.276  10.574  0.7897 -0.2257 -0.1075
 1015MOL0     N36907   2.720  -0.344  10.611 -0.3322 -0.3510 -0.4808
 1015MOL0     C36908   2.646  -0.326  10.722  0.3215 -0.6796  0.4891
 1015MOL0     C36909   2.532  -0.396  10.699  0.2834  0.2205 -0.2122
 1015MOL0     C36910   2.428  -0.430  10.789  0.3581  0.1640 -0.5503
 1015MOL0     C36911   2.425  -0.569  10.842 -0.2702 -0.0656 -0.5694
 1015MOL0     C36912   2.291  -0.594  10.917 -0.4473  0.0158  0.0110
 1015MOL0     C36913   2.207  -0.692  10.838  1.0084  0.6892  0.4603
 1015MOL0     O36914   2.095  -0.729  10.921 -0.2239  0.3767  0.1213
 1015MOL0     C36915   1.980  -0.659  10.898 -0.4851 -0.5396  0.0754
 1015MOL0     C36916   1.968  -0.534  10.840 -0.4947 -0.2498  1.1672
 1015MOL0     C36917   1.846  -0.471  10.828  0.0475  0.5717 -0.6200
 1015MOL0     C36918   1.730  -0.533  10.871 -0.0621  0.4249 -0.2804
 1015MOL0     C36919   1.597  -0.473  10.868  0.3832 -0.1775 -0.1803
 1015MOL0     O36920   1.495  -0.566  10.854 -0.5892  0.6096  0.6161
 1015MOL0     C36921   1.356  -0.544  10.858 -0.3660  0.1840  0.0570
 1015MOL0     C36922   1.278  -0.652  10.834  0.3081  0.2622  0.7341
 1015MOL0     C36923   1.145  -0.654  10.878 -0.3923 -0.4663 -0.4130
 1015MOL0     C36924   1.083  -0.540  10.931 -1.0609 -0.0538  0.0147
 1015MOL0     O36925   0.954  -0.565  10.958 -0.4490  0.3466 -0.4546
 1015MOL0     C36926   0.881  -0.457  11.013 -0.5600  0.4482  1.2164
 1015MOL0     C36927   0.742  -0.494  11.058  0.1347 -0.1665  0.2007
 1015MOL0     C36928   0.646  -0.376  11.086 -0.6350  0.3463 -0.2485
 1015MOL0     C36929   0.504  -0.419  11.103 -0.3440 -0.3872  0.6327
 1015MOL0     C36930   0.412  -0.304  11.122  0.3617 -0.0867  0.2804
 1015MOL0     C36931   0.266  -0.347  11.087  0.2735  0.3420 -0.5624
 1015MOL0     C36932   0.154  -0.252  11.135 -0.2800  0.0320  0.2436
 1015MOL0     C36933   0.058  -0.313  11.230  0.6437 -0.0233  0.6909
 1015MOL0    Cl36934  -0.019  -0.458  11.162  0.1229 -0.0638 -0.0187
 1015MOL0     C36935   1.167  -0.422  10.940  0.8837 -0.5685  0.8256
 1015MOL0     C36936   1.300  -0.423  10.897  0.4623  0.0407 -0.3138
 1015MOL0     O36937   1.588  -0.350  10.887 -0.3045  0.1899 -0.8039
 1015MOL0     C36938   1.740  -0.660  10.936  0.0979  0.2352 -0.3154
 1015MOL0     C36939   1.864  -0.727  10.952 -0.5615  1.1426  0.5940
 1015MOL0     N36940   2.527  -0.440  10.576  0.0856  0.0623  0.4905
 1015MOL0     N36941   2.640  -0.403  10.518  0.8756  0.8377  0.2040
 1015MOL0     C36942   3.564   0.061  10.186  0.1400  0.9069 -1.0160
 1015MOL0     C36943   3.670   0.028  10.102 -0.8682 -0.2130  0.5472
 1015MOL0     C36944   3.942  -0.003   9.774  0.9487 -0.6359 -0.0949
 1015MOL0     C36945   4.066   0.062   9.774 -0.1741 -0.2696 -0.3531
 1015MOL0     C36946   4.166   0.016   9.684 -0.6791 -0.2868 -0.7265
 1015MOL0     C36947   4.155  -0.090   9.602  0.2888  0.0411 -0.2030
 1015MOL0     O36948   4.264  -0.141   9.529 -0.1546  0.4045  0.4086
 1015MOL0     C36949   4.248  -0.275   9.475 -0.6792 -0.3486  0.8171
 1015MOL0     C36950   4.346  -0.280   9.352 -0.0596 -0.9257 -0.9233
 1015MOL0     C36951   4.477  -0.334   9.402  0.5113 -0.2336 -0.1533
 1015MOL0     C36952   4.591  -0.302   9.311  0.3191  0.4881  0.2197
 1015MOL0     C36953   4.585  -0.342   9.170 -0.1184  0.1489 -0.1323
 1015MOL0     C36954   4.581  -0.369   9.048 -1.6682  0.4123 -0.3103
 1015MOL0     C36955   4.028  -0.155   9.610 -0.6921 -0.1989  0.3024
 1015MOL0     C36956   3.918  -0.104   9.679  0.0425  1.2700 -0.1306
 1015MOL0     C36957   3.789  -0.184   9.662  0.3781 -0.5459 -0.6200
 1015MOL0     H36958   3.851   0.311  10.159 -0.9892  0.7781 -1.0435
 1015MOL0     H36959   3.686   0.336  10.332 -0.0660  0.0036 -1.0030
 1015MOL0     H36960   3.597   0.215  10.538  0.7885 -0.7761 -0.4822
 1015MOL0     H36961   3.434   0.275  10.553 -0.2732  1.2933 -3.0027
 1015MOL0     H36962   3.485   0.047  10.663 -0.4385 -0.6584  1.7821
 1015MOL0     H36963   3.493  -0.023  10.504 -2.6755 -0.7249 -0.4635
 1015MOL0     H36964   3.251   0.073  10.491  0.7787  1.2877  0.2878
 1015MOL0     H36965   3.248   0.072  10.660 -1.1936  1.0219  0.1553
 1015MOL0     H36966   3.267  -0.164  10.463  1.0170  2.6302  0.1329
 1015MOL0     H36967   3.349  -0.187  10.617  1.5093  1.2704 -1.5624
 1015MOL0     H36968   3.134  -0.274  10.631 -0.1968 -0.3044 -0.5706
 1015MOL0     H36969   3.147  -0.128  10.745 -3.7698 -0.1640  0.8049
 1015MOL0     H36970   3.016   0.014  10.601 -2.5587  0.2547 -0.3622
 1015MOL0     H36971   3.009  -0.110  10.485  1.1489  1.6714  0.0825
 1015MOL0     H36972   2.801  -0.081  10.638 -1.0932 -1.3447  1.2855
 1015MOL0     H36973   2.887  -0.180  10.760 -4.5673 -0.3777  0.5953
 1015MOL0     H36974   2.843  -0.268  10.465  1.7539 -5.3098 -0.7770
 1015MOL0     H36975   2.925  -0.345  10.607  0.5008 -0.0165  1.0522
 1015MOL0     H36976   2.670  -0.267  10.810  1.7970 -2.7198  1.5191
 1015MOL0     H36977   2.444  -0.364  10.875 -5.3675 -2.1112  2.8996
 1015MOL0     H36978   2.331  -0.400  10.747 -0.0818 -2.1143 -1.3127
 1015MOL0     H36979   2.450  -0.637  10.761 -3.6873 -2.9431  0.5740
 1015MOL0     H36980   2.495  -0.577  10.926 -0.9011 -1.9598 -0.1901
 1015MOL0     H36981   2.237  -0.502  10.941 -0.0896  0.8189 -2.0771
 1015MOL0     H36982   2.319  -0.628  11.017  1.2701  1.0870 -0.0571
 1015MOL0     H36983   2.264  -0.786  10.833  0.0485  0.0690  0.8423
 1015MOL0     H36984   2.179  -0.649  10.742 -0.3585  2.3609  1.5532
 1015MOL0     H36985   2.061  -0.486  10.810 -2.0831  1.6804 -1.0259
 1015MOL0     H36986   1.838  -0.376  10.777  1.2135  1.8982  1.5171
 1015MOL0     H36987   1.327  -0.743  10.802 -2.4766 -0.7972 -0.8397
 1015MOL0     H36988   1.076  -0.738  10.867 -1.7462  0.0847  2.8680
 1015MOL0     H36989   0.942  -0.423  11.098  0.5437 -1.2708  1.1843
 1015MOL0     H36990   0.877  -0.382  10.934  0.7769 -0.9947 -0.3143
 1015MOL0     H36991   0.701  -0.555  10.977  1.4693  1.0587 -1.4684
 1015MOL0     H36992   0.742  -0.560  11.145  0.4538  0.4806  0.6951
 1015MOL0     H36993   0.677  -0.345  11.186  0.5257 -1.0489 -0.1425
 1015MOL0     H36994   0.646  -0.295  11.011 -0.8303 -0.2060 -0.8530
 1015MOL0     H36995   0.496  -0.487  11.188  0.0907 -2.9836 -1.2972
 1015MOL0     H36996   0.475  -0.477  11.015  1.2792 -0.5571  0.1732
 1015MOL0     H36997   0.436  -0.218  11.059 -4.9723 -0.5303 -2.9884
 1015MOL0     H36998   0.419  -0.266  11.224  2.8391  0.8890 -0.1814
 1015MOL0     H36999   0.260  -0.371  10.980 -2.5729  2.3799 -0.9711
 1015MOL0     H37000   0.249  -0.445  11.131  0.6437  0.3864 -0.3233
 1015MOL0     H37001   0.098  -0.221  11.046 -0.8390 -0.7242  0.3201
 1015MOL0     H37002   0.199  -0.169  11.191 -2.3375  0.9192  0.7015
 1015MOL0     H37003   0.115  -0.347  11.317  0.0091  2.6213  2.2584
 1015MOL0     H37004  -0.021  -0.240  11.254 -0.2794 -0.9588  0.5762
 1015MOL0     H37005   1.129  -0.322  10.957  2.3499  0.0509  0.5582
 1015MOL0     H37006   1.357  -0.339  10.935  0.4763 -0.6603  1.2728
 1015MOL0     H37007   1.665  -0.715  10.991  0.3679  0.1440 -0.0305
 1015MOL0     H37008   1.855  -0.824  11.000 -1.1637  1.7115  1.6639
 1015MOL0     H37009   3.493  -0.015  10.217  1.7333 -0.0674  0.4040
 1015MOL0     H37010   3.673  -0.071  10.056 -0.8220  0.4580 -0.9338
 1015MOL0     H37011   4.085   0.146   9.840 -1.0924  0.8515 -1.4976
 1015MOL0     H37012   4.259   0.072   9.686 -1.2012  0.6935 -2.2521
 1015MOL0     H37013   4.155  -0.309   9.429 -0.5387 -0.7918  0.8566
 1015MOL0     H37014   4.270  -0.342   9.559 -1.4038 -0.6358  0.7912
 1015MOL0     H37015   4.359  -0.185   9.300 -1.1421 -0.4665 -0.3864
 1015MOL0     H37016   4.305  -0.352   9.281 -0.1463 -2.6706  0.8094
 1015MOL0     H37017   4.474  -0.443   9.405 -1.0694 -0.2313 -0.9302
 1015MOL0     H37018   4.503  -0.288   9.498  1.9316 -0.4439 -0.4135
 1015MOL0     H37019   4.618  -0.198   9.332 -0.4305  0.1087  3.5521
 1015MOL0     H37020   4.675  -0.363   9.345 -1.3744 -2.9107 -1.1666
 1015MOL0     H37021   4.580  -0.390   8.943  3.4397 -3.1042 -0.0247
 1015MOL0     H37022   4.009  -0.245   9.552 -1.0691  0.7408 -1.0689
 1015MOL0     H37023   3.781  -0.238   9.567 -3.1777 -4.2189  1.4514
 1015MOL0     H37024   3.794  -0.270   9.730  2.8903  1.5742  2.1474
 1015MOL0     H37025   3.694  -0.132   9.678 -1.0981 -3.2715  0.1941
 1016MOL0     O37026   2.643   6.174   6.569  0.3804 -0.1615  0.5510
 1016MOL0     C37027   2.550   6.239   6.519 -0.1163 -1.1221 -0.3345
 1016MOL0     O37028   2.573   6.347   6.442  0.3862  0.5003 -0.1346
 1016MOL0     C37029   2.689   6.342   6.374 -0.1221 -0.1826  0.2313
 1016MOL0     C37030   2.726   6.231   6.297  0.1681 -0.1217 -0.1543
 1016MOL0     C37031   2.858   6.223   6.244 -0.2187  0.3506  0.2230
 1016MOL0     C37032   2.947   6.330   6.255  0.5920 -0.2332 -0.8017
 1016MOL0     O37033   3.074   6.318   6.204  0.7002 -0.5288 -0.2802
 1016MOL0     C37034   3.164   6.254   6.289  1.1975 -0.2000 -0.4957
 1016MOL0     C37035   3.279   6.342   6.329 -0.1588 -0.3342 -0.9400
 1016MOL0     C37036   3.338   6.421   6.214 -0.4087  1.2516  0.1247
 1016MOL0     C37037   3.400   6.314   6.111 -0.1325  0.1820 -1.3524
 1016MOL0     C37038   3.468   6.367   5.979 -0.2889  0.3105  0.8855
 1016MOL0     C37039   3.553   6.261   5.891  0.8855  0.2332 -1.3351
 1016MOL0     C37040   3.584   6.305   5.756 -0.2671 -0.2976 -0.1011
 1016MOL0     C37041   3.667   6.207   5.675  0.0573  0.5204  0.7425
 1016MOL0     N37042   3.814   6.200   5.710  0.6289  0.2565 -0.4198
 1016MOL0     C37043   3.890   6.099   5.759 -0.1211  0.0594 -0.2377
 1016MOL0     C37044   4.019   6.150   5.742 -0.1099  0.1401 -1.3976
 1016MOL0     C37045   4.142   6.083   5.796 -0.5036 -0.3346 -0.2870
 1016MOL0     C37046   4.181   6.144   5.931  0.2603 -0.7056 -0.3957
 1016MOL0     C37047   4.236   6.290   5.928  0.0688  0.0458  0.1907
 1016MOL0     C37048   4.377   6.289   5.881 -0.5520  0.1580 -0.4011
 1016MOL0     O37049   4.454   6.408   5.926  0.1188 -0.1327 -0.2526
 1016MOL0     C37050   4.579   6.420   5.872 -0.6843 -0.5537 -1.0500
 1016MOL0     C37051   4.613   6.557   5.860  0.1321 -0.0189  0.2299
 1016MOL0     C37052   4.727   6.598   5.816  0.1601 -0.9293  0.0735
 1016MOL0     C37053   4.822   6.497   5.778  0.2606  0.2533 -0.1358
 1016MOL0     C37054   4.950   6.545   5.725  0.1809  0.2657  0.2596
 1016MOL0     O37055   5.011   6.472   5.623  0.1657 -0.2885  0.1055
 1016MOL0     C37056   5.132   6.498   5.557  0.3256  0.1853  0.7683
 1016MOL0     C37057   5.246   6.548   5.619  0.4189  0.0016 -0.1660
 1016MOL0     C37058   5.368   6.544   5.554 -0.1081  1.2687 -0.4546
 1016MOL0     C37059   5.381   6.511   5.415  0.9474  0.0243 -0.0446
 1016MOL0     O37060   5.495   6.533   5.354  0.0236 -0.8342  0.9249
 1016MOL0     C37061   5.549   6.431   5.272  0.1996  0.2238  0.0847
 1016MOL0     C37062   5.698   6.437   5.266 -0.5893  0.0078  0.4007
 1016MOL0     C37063   5.749   6.336   5.159 -0.7765 -1.0534 -0.2155
 1016MOL0     C37064   5.895   6.343   5.129 -0.0713  0.4430 -0.3526
 1016MOL0     C37065   5.907   6.226   5.031 -0.6097  0.3640 -0.4329
 1016MOL0     C37066   6.034   6.232   4.940  0.6766 -0.0113 -0.6977
 1016MOL0     C37067   6.028   6.141   4.820  0.5341 -1.0921  0.4988
 1016MOL0     C37068   6.129   6.194   4.717  1.0021  0.8120 -0.3193
 1016MOL0    Cl37069   6.286   6.163   4.801 -0.1826 -0.1250  0.3370
 1016MOL0     C37070   5.258   6.484   5.351  0.4646 -0.9333  0.0126
 1016MOL0     C37071   5.139   6.470   5.416  0.5428  0.4042 -0.9896
 1016MOL0     O37072   4.993   6.649   5.769  0.1436 -0.1018  0.1813
 1016MOL0     C37073   4.795   6.361   5.792 -0.5113  0.1695  0.4231
 1016MOL0     C37074   4.671   6.321   5.847 -0.9898  0.1115  0.4984
 1016MOL0     N37075   4.017   6.272   5.677 -0.6295  0.6244 -0.3891
 1016MOL0     N37076   3.894   6.300   5.661  0.2998  0.0014 -0.5374
 1016MOL0     C37077   2.903   6.447   6.311 -0.5147  0.4109 -0.3124
 1016MOL0     C37078   2.776   6.451   6.377 -0.1251 -0.3271 -0.2102
 1016MOL0     C37079   2.416   6.190   6.536  0.3277 -0.4123  0.1237
 1016MOL0     C37080   2.307   6.281   6.550 -0.9475  0.1046  0.0089
 1016MOL0     C37081   2.183   6.238   6.569  0.6585  0.9798 -0.4889
 1016MOL0     C37082   2.151   6.099   6.578 -0.9781  0.5078  0.7848
 1016MOL0     O37083   2.032   6.053   6.630  0.5848 -0.4610 -0.4579
 1016MOL0     C37084   1.925   6.146   6.625  0.3594 -0.5313 -1.0262
 1016MOL0     C37085   1.804   6.079   6.685 -0.2767 -0.8969  0.1648
 1016MOL0     C37086   1.764   5.947   6.620  0.0811  0.3764 -1.2715
 1016MOL0     C37087   1.652   5.886   6.716 -0.4543  0.7836 -0.5557
 1016MOL0     C37088   1.617   5.749   6.670  0.3645  0.7545  0.1781
 1016MOL0     C37089   1.600   5.634   6.627 -0.4541 -0.2086  0.1784
 1016MOL0     C37090   2.257   6.008   6.568  0.2777 -0.7333 -0.5220
 1016MOL0     C37091   2.387   6.050   6.550 -0.1056 -0.9370  0.2339
 1016MOL0     C37092   2.493   5.938   6.533 -0.0921 -0.4161  0.2850
 1016MOL0     H37093   2.668   6.140   6.283  0.0850  0.0102 -0.6872
 1016MOL0     H37094   2.892   6.128   6.202 -0.2894  1.0498 -1.4801
 1016MOL0     H37095   3.120   6.217   6.382  1.6314 -1.6680 -0.8342
 1016MOL0     H37096   3.197   6.164   6.236  1.0883  0.5479 -1.8489
 1016MOL0     H37097   3.347   6.271   6.376 -2.6955 -3.4608 -1.6175
 1016MOL0     H37098   3.235   6.413   6.399  0.4240 -1.1374  0.2639
 1016MOL0     H37099   3.414   6.483   6.264  0.2830  0.7227 -0.2418
 1016MOL0     H37100   3.264   6.484   6.166 -0.7328  2.6717  2.3681
 1016MOL0     H37101   3.481   6.276   6.175  1.2814  0.7176 -2.7656
 1016MOL0     H37102   3.323   6.244   6.079  0.1678  0.4254 -2.6589
 1016MOL0     H37103   3.387   6.412   5.920  0.0141 -0.7869 -0.4202
 1016MOL0     H37104   3.540   6.449   5.990 -0.1774  0.5604 -1.3398
 1016MOL0     H37105   3.644   6.239   5.947 -1.2997  0.6132  2.8217
 1016MOL0     H37106   3.500   6.166   5.896  4.0129 -1.6652 -1.7185
 1016MOL0     H37107   3.643   6.397   5.761 -0.1409 -0.2927 -1.3682
 1016MOL0     H37108   3.490   6.325   5.704  1.2737  1.4374 -2.4297
 1016MOL0     H37109   3.632   6.104   5.664 -2.6633  1.5361 -1.1258
 1016MOL0     H37110   3.675   6.250   5.575  1.1470  0.4369  0.7786
 1016MOL0     H37111   3.856   6.019   5.824 -0.2573 -0.7173 -1.2372
 1016MOL0     H37112   4.141   5.974   5.804 -0.0653 -0.2472  4.8007
 1016MOL0     H37113   4.227   6.105   5.731 -3.2247  1.2671 -3.6121
 1016MOL0     H37114   4.082   6.151   5.978  0.0130 -1.3229 -0.8131
 1016MOL0     H37115   4.250   6.074   5.980 -1.3632 -0.7862  1.9390
 1016MOL0     H37116   4.232   6.334   6.028 -1.6404  2.4082 -0.8316
 1016MOL0     H37117   4.189   6.355   5.854  4.7874 -0.2069 -3.4900
 1016MOL0     H37118   4.374   6.281   5.772  0.7829 -4.2719 -0.2834
 1016MOL0     H37119   4.428   6.199   5.916 -2.9891 -0.3760  2.0781
 1016MOL0     H37120   4.533   6.630   5.865 -0.2839 -0.0159 -3.4678
 1016MOL0     H37121   4.745   6.705   5.808  0.6561 -1.1493 -2.8582
 1016MOL0     H37122   5.241   6.568   5.726 -0.9290 -0.2616 -0.1574
 1016MOL0     H37123   5.461   6.554   5.609 -1.3602 -0.2614  2.1138
 1016MOL0     H37124   5.516   6.329   5.294 -2.7095  1.1151  0.2934
 1016MOL0     H37125   5.497   6.441   5.176 -1.2068  3.1664  1.0202
 1016MOL0     H37126   5.729   6.537   5.233  1.5119 -0.9565 -0.7916
 1016MOL0     H37127   5.730   6.416   5.368 -1.1833  2.9034  1.2881
 1016MOL0     H37128   5.735   6.236   5.202 -0.3172 -1.2126 -0.4368
 1016MOL0     H37129   5.684   6.350   5.072 -3.9641  0.8994  2.2377
 1016MOL0     H37130   5.955   6.316   5.215  0.2421  1.3040 -0.2911
 1016MOL0     H37131   5.910   6.443   5.085 -1.3787  0.1777 -1.5018
 1016MOL0     H37132   5.832   6.213   4.953 -0.3062 -0.2954 -0.6190
 1016MOL0     H37133   5.908   6.137   5.095 -1.2648  1.4843  1.1845
 1016MOL0     H37134   6.065   6.335   4.921  1.9185 -0.0740  0.7406
 1016MOL0     H37135   6.110   6.199   5.012  0.7664  1.0631 -0.2892
 1016MOL0     H37136   5.934   6.148   4.765  1.7115 -3.2045 -1.9960
 1016MOL0     H37137   6.039   6.035   4.843  2.1258 -2.0814 -3.7962
 1016MOL0     H37138   6.120   6.128   4.630  1.2104  0.3732 -0.0149
 1016MOL0     H37139   6.119   6.297   4.683 -0.3219 -0.1245 -3.0978
 1016MOL0     H37140   5.253   6.467   5.244  3.1631 -0.9008 -0.1917
 1016MOL0     H37141   5.069   6.421   5.349  4.7519 -2.9519 -3.4989
 1016MOL0     H37142   4.877   6.292   5.775 -0.1950  0.3580  1.1549
 1016MOL0     H37143   4.657   6.216   5.871 -1.1168  0.4741  2.1055
 1016MOL0     H37144   2.967   6.532   6.289  2.4863 -2.0973 -2.1885
 1016MOL0     H37145   2.741   6.541   6.426  1.3272 -0.4193  1.0525
 1016MOL0     H37146   2.327   6.388   6.547 -0.0736 -0.0618 -1.4051
 1016MOL0     H37147   2.099   6.307   6.571 -0.6187 -0.4936 -1.1034
 1016MOL0     H37148   1.911   6.173   6.520  1.4173  3.0702 -0.4027
 1016MOL0     H37149   1.941   6.239   6.682  0.0859 -0.5662 -0.8939
 1016MOL0     H37150   1.720   6.148   6.671  1.9977  2.2894  1.1868
 1016MOL0     H37151   1.821   6.073   6.793  0.2768  3.5008  0.5033
 1016MOL0     H37152   1.854   5.885   6.617 -0.3376 -0.2313 -1.6537
 1016MOL0     H37153   1.720   5.964   6.521 -0.3080 -0.3418 -1.2281
 1016MOL0     H37154   1.693   5.874   6.817 -2.4870  1.6489  0.4330
 1016MOL0     H37155   1.561   5.945   6.729  0.2593  1.6945  0.5262
 1016MOL0     H37156   1.591   5.530   6.602 -3.3807 -0.0366  0.1703
 1016MOL0     H37157   2.239   5.901   6.568  1.6295 -0.9993  1.3868
 1016MOL0     H37158   2.434   5.846   6.528 -2.0923  0.8836 -2.5471
 1016MOL0     H37159   2.535   5.957   6.434  5.7703 -1.1534  2.2613
 1016MOL0     H37160   2.575   5.927   6.605  1.5993  2.5072 -1.0323
 1017MOL0     O37161   8.239   7.334   3.479 -0.1699 -1.2540  0.4085
 1017MOL0     C37162   8.250   7.274   3.368 -0.1135 -0.2391 -0.7485
 1017MOL0     O37163   8.163   7.301   3.260  0.3433 -0.5580 -0.0284
 1017MOL0     C37164   8.068   7.398   3.281  0.6480 -0.0884 -0.2423
 1017MOL0     C37165   7.928   7.355   3.288  0.5180  0.1872 -1.2691
 1017MOL0     C37166   7.825   7.451   3.325  0.0663  0.0395  0.2023
 1017MOL0     C37167   7.856   7.577   3.320 -0.5249 -0.8046 -0.2376
 1017MOL0     O37168   7.747   7.656   3.345 -0.0915  1.0684 -0.8341
 1017MOL0     C37169   7.765   7.792   3.367 -0.7258 -1.0717  0.0330
 1017MOL0     C37170   7.623   7.868   3.359 -0.8590  0.0138  0.5739
 1017MOL0     C37171   7.556   7.848   3.227 -0.4692 -0.9183 -0.7423
 1017MOL0     C37172   7.429   7.937   3.211  0.5909  0.9156 -0.8284
 1017MOL0     C37173   7.330   7.894   3.095  0.7319  0.7662  0.0035
 1017MOL0     C37174   7.218   7.784   3.141 -0.1422  0.1318 -0.5331
 1017MOL0     C37175   7.133   7.821   3.262  0.5301  0.2425 -0.0519
 1017MOL0     C37176   7.053   7.951   3.253 -1.1606 -0.0117  0.4982
 1017MOL0     N37177   6.988   7.987   3.377 -0.0512 -0.8919  0.0935
 1017MOL0     C37178   6.847   7.994   3.393 -0.0027  1.2158 -0.2895
 1017MOL0     C37179   6.846   8.048   3.514 -0.0128 -0.0167  0.1014
 1017MOL0     C37180   6.718   8.112   3.560 -0.5292  0.2147  0.1146
 1017MOL0     C37181   6.612   8.015   3.611 -0.6448  0.8100  0.2505
 1017MOL0     C37182   6.613   7.984   3.763  0.7392 -0.5283  0.0764
 1017MOL0     C37183   6.521   7.877   3.824  0.5255  0.0129  0.6387
 1017MOL0     O37184   6.391   7.904   3.788 -0.1279 -0.5763 -0.4195
 1017MOL0     C37185   6.287   7.826   3.840 -0.1248 -0.8611 -0.2297
 1017MOL0     C37186   6.297   7.743   3.959 -0.5840  0.4779 -0.0866
 1017MOL0     C37187   6.181   7.683   4.007  0.0966 -0.3733  0.2061
 1017MOL0     C37188   6.051   7.702   3.951 -0.3606  0.6412 -0.6979
 1017MOL0     C37189   5.932   7.635   4.015  0.6392 -0.1109  0.8327
 1017MOL0     O37190   5.948   7.603   4.143 -0.7774  0.2250 -0.0334
 1017MOL0     C37191   5.837   7.561   4.226 -0.3972  0.2958  0.0920
 1017MOL0     C37192   5.730   7.474   4.175  0.7047 -0.1453 -0.3139
 1017MOL0     C37193   5.639   7.426   4.263  0.6504  0.0050 -0.2242
 1017MOL0     C37194   5.637   7.468   4.398 -0.2778  0.1192 -0.3439
 1017MOL0     O37195   5.546   7.423   4.489 -0.5406  0.9506 -0.3875
 1017MOL0     C37196   5.422   7.498   4.493  0.5980  0.3805  0.3329
 1017MOL0     C37197   5.308   7.402   4.514 -0.2624  0.8768 -0.0812
 1017MOL0     C37198   5.186   7.459   4.477  1.0669  0.9930  0.2376
 1017MOL0     C37199   5.087   7.348   4.498  0.7610  0.1520 -0.1640
 1017MOL0     C37200   4.937   7.380   4.474  0.1583  0.3725  1.0034
 1017MOL0     C37201   4.857   7.246   4.513 -0.6517 -0.2377  1.1933
 1017MOL0     C37202   4.719   7.252   4.448 -0.0069 -0.3791  1.2891
 1017MOL0     C37203   4.692   7.113   4.377 -0.6997  0.0615 -0.0312
 1017MOL0    Cl37204   4.519   7.127   4.324  0.1515  0.0349  0.2929
 1017MOL0     C37205   5.738   7.551   4.446  0.0686 -0.0654 -0.4754
 1017MOL0     C37206   5.830   7.594   4.359  0.8242  0.3338  0.0477
 1017MOL0     O37207   5.826   7.640   3.955  1.4405  0.2956 -0.0896
 1017MOL0     C37208   6.041   7.785   3.845 -0.2843 -0.5726  0.3468
 1017MOL0     C37209   6.155   7.848   3.789 -0.2602  0.1534  0.2696
 1017MOL0     N37210   6.969   8.081   3.577  0.5944 -0.2553 -0.0907
 1017MOL0     N37211   7.051   8.023   3.489  0.1704 -0.4055  0.4680
 1017MOL0     C37212   7.990   7.615   3.306 -1.0079  0.2810  0.1324
 1017MOL0     C37213   8.097   7.532   3.291  0.9470 -0.0058 -0.1365
 1017MOL0     C37214   8.351   7.166   3.345  0.1430 -0.0096 -0.1312
 1017MOL0     C37215   8.339   7.079   3.241  0.5834  0.6718  0.8862
 1017MOL0     C37216   8.425   6.974   3.223  0.3024  0.0821  0.0354
 1017MOL0     C37217   8.535   6.953   3.308  1.0934  0.1467  0.2014
 1017MOL0     O37218   8.621   6.855   3.277 -0.0605 -0.1497  0.2015
 1017MOL0     C37219   8.709   6.800   3.390  0.8905 -0.2535 -0.4944
 1017MOL0     C37220   8.750   6.655   3.353  0.2180 -1.2394 -0.4952
 1017MOL0     C37221   8.808   6.627   3.212 -0.1659 -0.1651 -0.0612
 1017MOL0     C37222   8.946   6.696   3.172 -0.1030 -0.6577 -0.0790
 1017MOL0     C37223   9.054   6.643   3.258  0.3877  0.0532 -0.7437
 1017MOL0     C37224   9.137   6.610   3.342  0.0798 -0.4614 -0.0514
 1017MOL0     C37225   8.548   7.040   3.422  0.4387 -1.2554 -0.2577
 1017MOL0     C37226   8.460   7.148   3.437 -0.9553  1.7052  0.6088
 1017MOL0     C37227   8.491   7.233   3.548 -0.2038  0.4368  0.4944
 1017MOL0     H37228   7.906   7.248   3.288 -0.5353  0.3548  0.8781
 1017MOL0     H37229   7.725   7.416   3.345  0.7152 -0.3256  3.3456
 1017MOL0     H37230   7.805   7.816   3.465 -0.4499  2.8544 -0.8870
 1017MOL0     H37231   7.830   7.841   3.293 -0.0555 -1.6717  0.2170
 1017MOL0     H37232   7.637   7.976   3.373  1.6580  0.0534 -1.4311
 1017MOL0     H37233   7.559   7.829   3.438  1.0832 -0.3196  2.0590
 1017MOL0     H37234   7.532   7.741   3.219  1.1828 -1.4593  0.8230
 1017MOL0     H37235   7.629   7.863   3.148  1.1280 -4.1250 -0.0613
 1017MOL0     H37236   7.381   7.938   3.309  1.1446  1.7766 -0.5625
 1017MOL0     H37237   7.466   8.036   3.183  0.9128  0.6053 -1.5156
 1017MOL0     H37238   7.286   7.985   3.055  0.3512 -0.2990 -2.1274
 1017MOL0     H37239   7.389   7.843   3.018 -0.3870 -1.1471  0.3390
 1017MOL0     H37240   7.155   7.751   3.058  2.0816 -0.7045 -1.9852
 1017MOL0     H37241   7.269   7.693   3.173  2.0984  1.2830 -0.6675
 1017MOL0     H37242   7.182   7.820   3.360 -2.2049 -0.3828  1.4056
 1017MOL0     H37243   7.062   7.739   3.275  1.1525 -0.1423  1.0265
 1017MOL0     H37244   7.123   8.026   3.216  1.8436 -2.0475  1.6595
 1017MOL0     H37245   6.968   7.939   3.185  0.3754  0.3275 -1.5723
 1017MOL0     H37246   6.763   7.982   3.326  0.6504  0.0554 -0.9306
 1017MOL0     H37247   6.740   8.189   3.636  0.6808 -1.1612  1.2339
 1017MOL0     H37248   6.676   8.157   3.470 -1.2967 -1.9854 -0.6733
 1017MOL0     H37249   6.517   8.054   3.576 -0.4963  0.1317 -0.9564
 1017MOL0     H37250   6.625   7.914   3.572 -2.6222  0.8372 -0.5850
 1017MOL0     H37251   6.577   8.076   3.810  0.1572 -0.2833 -0.8386
 1017MOL0     H37252   6.718   7.966   3.789  1.4170  2.0992 -0.5391
 1017MOL0     H37253   6.543   7.859   3.930  1.2612 -1.2820  0.2894
 1017MOL0     H37254   6.543   7.783   3.773 -1.7087  0.0008 -0.4134
 1017MOL0     H37255   6.390   7.739   4.014  2.4795  0.6099 -4.7446
 1017MOL0     H37256   6.197   7.616   4.090  2.7899  0.5438  0.5557
 1017MOL0     H37257   5.716   7.440   4.072 -1.7518 -1.3523  0.3309
 1017MOL0     H37258   5.572   7.356   4.213 -0.9677  0.6590  0.9643
 1017MOL0     H37259   5.420   7.577   4.568  0.5364 -0.1743  0.9224
 1017MOL0     H37260   5.406   7.544   4.395 -0.2875 -2.5079 -1.0067
 1017MOL0     H37261   5.320   7.313   4.450  2.5214  1.0118  0.1248
 1017MOL0     H37262   5.314   7.376   4.620 -2.5290  0.8974  0.0881
 1017MOL0     H37263   5.153   7.551   4.527 -1.2472  0.6984 -0.6199
 1017MOL0     H37264   5.192   7.484   4.371  0.8052 -0.4294 -0.1350
 1017MOL0     H37265   5.097   7.305   4.598 -0.4313 -0.3443 -0.2375
 1017MOL0     H37266   5.110   7.272   4.423  0.3889 -0.0551 -0.0729
 1017MOL0     H37267   4.941   7.393   4.366  1.9720  0.9555  1.1194
 1017MOL0     H37268   4.896   7.465   4.530 -2.1487  0.1224 -0.1765
 1017MOL0     H37269   4.906   7.161   4.464 -0.7598  1.0558 -1.3298
 1017MOL0     H37270   4.848   7.228   4.620  0.3070  3.5451  2.0396
 1017MOL0     H37271   4.719   7.330   4.371  2.6603 -0.3212  1.2579
 1017MOL0     H37272   4.644   7.276   4.524  0.7962 -0.5528  2.1450
 1017MOL0     H37273   4.747   7.088   4.286  0.5000 -2.0201  1.1928
 1017MOL0     H37274   4.699   7.022   4.438  0.3103 -1.8758 -2.8443
 1017MOL0     H37275   5.742   7.596   4.545  0.8670 -0.7804 -0.1661
 1017MOL0     H37276   5.909   7.655   4.403 -1.1498  2.0416  1.3998
 1017MOL0     H37277   5.946   7.811   3.799  0.3197  0.6720 -0.2474
 1017MOL0     H37278   6.141   7.923   3.711  2.3927  4.3257  3.3581
 1017MOL0     H37279   8.027   7.717   3.315  3.6268 -0.7670 -3.1328
 1017MOL0     H37280   8.199   7.565   3.301  1.1474 -1.0676  1.5165
 1017MOL0     H37281   8.262   7.094   3.166  1.8704 -2.0760 -1.1656
 1017MOL0     H37282   8.411   6.896   3.149 -0.1313  1.4469 -1.3578
 1017MOL0     H37283   8.662   6.812   3.488  0.5776 -1.6996 -0.4346
 1017MOL0     H37284   8.798   6.862   3.393  1.0230 -0.4630 -0.0439
 1017MOL0     H37285   8.669   6.588   3.383  0.7181 -1.8218 -0.4358
 1017MOL0     H37286   8.835   6.623   3.415 -0.5564 -0.7330  0.8758
 1017MOL0     H37287   8.728   6.649   3.140  1.3256 -0.2267 -1.7995
 1017MOL0     H37288   8.833   6.520   3.207  1.5672  0.2017  0.3117
 1017MOL0     H37289   8.979   6.669   3.071  1.5632 -0.9005  0.5001
 1017MOL0     H37290   8.936   6.805   3.178 -0.5123 -0.7737  1.9396
 1017MOL0     H37291   9.203   6.591   3.424 -1.3688 -0.0760  1.2535
 1017MOL0     H37292   8.621   7.040   3.502 -2.5101 -1.5852  2.6583
 1017MOL0     H37293   8.428   7.206   3.634  0.0601  0.5169  0.7149
 1017MOL0     H37294   8.593   7.226   3.586 -0.7991  1.0111  2.3193
 1017MOL0     H37295   8.467   7.337   3.525 -0.8316 -0.3014 -2.5518
 1018MOL0     O37296   5.614   3.604   5.782  0.4202  0.5853  0.3970
 1018MOL0     C37297   5.508   3.543   5.774 -0.2917 -0.6565 -0.3820
 1018MOL0     O37298   5.484   3.406   5.755 -0.4379  0.5590  0.0940
 1018MOL0     C37299   5.598   3.334   5.715  0.0761  0.0742  0.5341
 1018MOL0     C37300   5.616   3.206   5.772  0.0742 -0.2209  0.3920
 1018MOL0     C37301   5.734   3.121   5.750  0.4572  0.4108  0.4886
 1018MOL0     C37302   5.838   3.169   5.672 -0.5144  0.3205 -0.0945
 1018MOL0     O37303   5.941   3.081   5.647 -0.1421  0.1805 -0.0404
 1018MOL0     C37304   6.052   3.130   5.712  0.1258  0.8660 -1.4122
 1018MOL0     C37305   6.189   3.071   5.665 -0.0844 -0.0420 -0.5994
 1018MOL0     C37306   6.221   3.080   5.512  0.4351  0.6247 -0.3833
 1018MOL0     C37307   6.349   3.022   5.459 -0.0541  1.4495  1.2993
 1018MOL0     C37308   6.341   3.006   5.301  0.7408  0.6868  0.1161
 1018MOL0     C37309   6.227   2.915   5.248  0.8750  0.3956 -0.3176
 1018MOL0     C37310   6.260   2.862   5.111 -0.5599 -0.1037  0.1982
 1018MOL0     C37311   6.155   2.775   5.056  0.2650  0.3182  0.8073
 1018MOL0     N37312   6.207   2.697   4.948 -0.5295  0.2550  0.6724
 1018MOL0     C37313   6.243   2.568   4.959 -0.2686  0.4778  0.6729
 1018MOL0     C37314   6.283   2.534   4.832  0.0873  0.4820  0.3837
 1018MOL0     C37315   6.329   2.397   4.774 -0.5570  0.0176  1.1241
 1018MOL0     C37316   6.486   2.402   4.746 -0.1492  0.3654 -0.1407
 1018MOL0     C37317   6.527   2.463   4.612 -0.4442  0.6395  0.0095
 1018MOL0     C37318   6.676   2.441   4.604  0.0756  0.2394  0.5760
 1018MOL0     O37319   6.703   2.304   4.562  0.1680  0.3757  0.0912
 1018MOL0     C37320   6.832   2.274   4.539  0.2188 -0.0357  0.1005
 1018MOL0     C37321   6.940   2.369   4.542  0.5226 -0.0185  1.6307
 1018MOL0     C37322   7.067   2.328   4.512 -0.1101  0.3691 -0.7811
 1018MOL0     C37323   7.095   2.197   4.480 -0.0522  0.8113 -0.4958
 1018MOL0     C37324   7.232   2.166   4.450  0.1159  1.0746 -0.0506
 1018MOL0     O37325   7.333   2.242   4.502  0.7569 -0.4957 -0.0251
 1018MOL0     C37326   7.466   2.209   4.479  0.3190 -0.7241  0.1004
 1018MOL0     C37327   7.508   2.075   4.492 -0.2011 -0.2787 -0.8288
 1018MOL0     C37328   7.641   2.029   4.467  0.3260  0.2435 -0.5347
 1018MOL0     C37329   7.736   2.120   4.440 -0.0585  0.5390 -0.2719
 1018MOL0     O37330   7.854   2.070   4.409 -0.6703  0.1780 -0.1592
 1018MOL0     C37331   7.968   2.155   4.415 -0.3385  0.6005  0.9552
 1018MOL0     C37332   8.092   2.071   4.434 -0.3234  0.2562  0.5853
 1018MOL0     C37333   8.219   2.161   4.434  0.0365 -0.6060  0.7958
 1018MOL0     C37334   8.347   2.087   4.486 -0.0125 -0.7370 -0.5716
 1018MOL0     C37335   8.462   2.191   4.471 -0.7875 -0.3392  0.2033
 1018MOL0     C37336   8.578   2.156   4.560 -0.6455 -0.1541 -0.7921
 1018MOL0     C37337   8.647   2.022   4.541  0.9172 -0.3376 -0.7675
 1018MOL0     C37338   8.759   2.005   4.642  0.0047 -0.7286 -0.5476
 1018MOL0    Cl37339   8.915   2.029   4.558 -0.5352 -0.5627 -0.0833
 1018MOL0     C37340   7.700   2.257   4.444  0.8832 -0.4667 -0.1872
 1018MOL0     C37341   7.567   2.305   4.465 -0.9187  0.0212  0.1795
 1018MOL0     O37342   7.240   2.070   4.372 -0.0932  0.1498 -0.0250
 1018MOL0     C37343   6.990   2.106   4.469  0.6358 -0.5281  0.2564
 1018MOL0     C37344   6.863   2.143   4.496  0.3021  0.3899  1.0334
 1018MOL0     N37345   6.285   2.651   4.754  0.2910 -0.2034  0.2289
 1018MOL0     N37346   6.244   2.752   4.831  0.6452 -0.5637 -0.1790
 1018MOL0     C37347   5.822   3.294   5.608  0.2201 -0.3633  0.2894
 1018MOL0     C37348   5.701   3.373   5.629  1.1083  0.4121  1.1133
 1018MOL0     C37349   5.387   3.620   5.807 -0.0216  0.3674 -0.3808
 1018MOL0     C37350   5.286   3.542   5.871 -0.4326 -0.5460  0.3194
 1018MOL0     C37351   5.170   3.610   5.907  0.1447  0.1129 -0.2022
 1018MOL0     C37352   5.155   3.744   5.886  0.1543  0.0843  0.1330
 1018MOL0     O37353   5.025   3.790   5.916  0.4634  0.1196 -0.2441
 1018MOL0     C37354   4.994   3.934   5.934 -0.6124  0.3126 -0.6577
 1018MOL0     C37355   5.058   3.979   6.066 -0.1540 -0.8979  0.7048
 1018MOL0     C37356   5.016   3.886   6.186  0.3138 -0.7660  0.8361
 1018MOL0     C37357   5.090   3.926   6.312 -0.5746  0.0952  0.8985
 1018MOL0     C37358   5.024   3.863   6.429 -0.5456  0.1143  0.6711
 1018MOL0     C37359   4.986   3.813   6.525  0.4394 -0.3688 -0.4528
 1018MOL0     C37360   5.257   3.821   5.824  1.1112 -0.4805  0.0341
 1018MOL0     C37361   5.368   3.757   5.779  0.2702 -0.3725 -0.6262
 1018MOL0     C37362   5.468   3.852   5.703 -0.4966  0.0777  0.0755
 1018MOL0     H37363   5.534   3.162   5.829 -0.7322  0.9237  0.1575
 1018MOL0     H37364   5.725   3.032   5.812  0.1990  1.3158  1.8138
 1018MOL0     H37365   6.066   3.238   5.702 -1.9305  1.2584 -0.3472
 1018MOL0     H37366   6.026   3.108   5.816  0.6366 -0.1225 -1.4787
 1018MOL0     H37367   6.189   2.968   5.701 -0.0199  0.3669  0.5955
 1018MOL0     H37368   6.264   3.136   5.710  0.9166 -0.9463 -0.9178
 1018MOL0     H37369   6.226   3.187   5.489  2.0945  1.2016  2.2069
 1018MOL0     H37370   6.134   3.029   5.470 -0.1449  0.1234  1.3537
 1018MOL0     H37371   6.437   3.086   5.475 -0.6258  2.6611 -0.0724
 1018MOL0     H37372   6.368   2.922   5.498 -2.9192 -0.4335 -1.6696
 1018MOL0     H37373   6.318   3.108   5.268 -0.3011  0.6409  0.6453
 1018MOL0     H37374   6.436   2.987   5.251  0.3284  0.1666 -0.4750
 1018MOL0     H37375   6.221   2.826   5.311  0.6958  1.1569  0.7651
 1018MOL0     H37376   6.127   2.959   5.251 -0.2330 -1.8653 -1.3823
 1018MOL0     H37377   6.360   2.818   5.116 -0.7685 -0.5133  0.8850
 1018MOL0     H37378   6.266   2.944   5.039 -3.5653 -0.3096 -0.3932
 1018MOL0     H37379   6.136   2.689   5.120  2.9801 -2.2443 -1.5695
 1018MOL0     H37380   6.068   2.834   5.025  0.5856 -0.8227 -2.7125
 1018MOL0     H37381   6.249   2.504   5.047  3.8303 -0.0945  0.1778
 1018MOL0     H37382   6.306   2.316   4.843  3.2466 -0.3704  2.1516
 1018MOL0     H37383   6.280   2.380   4.677  0.6320  0.2557  0.4595
 1018MOL0     H37384   6.541   2.440   4.832  0.4222  0.0813 -0.3796
 1018MOL0     H37385   6.517   2.298   4.743  1.1221  0.7473 -1.2052
 1018MOL0     H37386   6.511   2.571   4.607  0.2468  0.7796  0.6836
 1018MOL0     H37387   6.480   2.400   4.536 -2.7380  0.4062  1.5216
 1018MOL0     H37388   6.722   2.465   4.701  0.1263 -0.6468  0.7841
 1018MOL0     H37389   6.711   2.516   4.533  1.6134 -0.0010  1.0364
 1018MOL0     H37390   6.928   2.473   4.570 -1.4272  0.4016 -0.4390
 1018MOL0     H37391   7.158   2.387   4.516  0.9791 -1.3013  1.2643
 1018MOL0     H37392   7.438   1.998   4.522 -0.5225 -0.2399 -1.4666
 1018MOL0     H37393   7.667   1.925   4.484  0.3674  0.5088  1.1716
 1018MOL0     H37394   7.985   2.209   4.322 -2.4751 -2.0603 -1.1465
 1018MOL0     H37395   7.951   2.229   4.494 -1.5902 -1.7481  3.0465
 1018MOL0     H37396   8.083   2.007   4.522 -1.6399 -1.1511 -0.5034
 1018MOL0     H37397   8.098   2.000   4.351  2.8591 -1.1040  1.8066
 1018MOL0     H37398   8.238   2.195   4.332 -0.8956 -1.0424  0.4714
 1018MOL0     H37399   8.211   2.259   4.482  2.2523 -0.5239  1.0934
 1018MOL0     H37400   8.364   1.994   4.430 -1.0397 -0.0461 -2.1340
 1018MOL0     H37401   8.325   2.061   4.590 -1.8339  0.6738 -0.5491
 1018MOL0     H37402   8.426   2.292   4.493 -1.4975 -0.2214 -1.3677
 1018MOL0     H37403   8.490   2.183   4.366 -1.4798  0.0019 -0.0120
 1018MOL0     H37404   8.648   2.240   4.559 -0.3398 -0.3810  0.2834
 1018MOL0     H37405   8.542   2.169   4.663 -1.3844  1.9317 -1.2579
 1018MOL0     H37406   8.694   2.018   4.442 -2.0866 -4.6221 -2.3184
 1018MOL0     H37407   8.577   1.941   4.561 -1.2365  2.2423  3.4419
 1018MOL0     H37408   8.745   2.078   4.723 -0.0203 -0.9538 -0.3457
 1018MOL0     H37409   8.746   1.910   4.695 -0.3641 -0.4452 -0.1167
 1018MOL0     H37410   7.780   2.328   4.423 -0.2065  2.1684  3.4167
 1018MOL0     H37411   7.546   2.411   4.462  2.5855  0.7983 -2.1311
 1018MOL0     H37412   7.004   2.003   4.437 -0.8706 -1.4376  2.2786
 1018MOL0     H37413   6.788   2.066   4.481  3.2512 -2.6224  0.6089
 1018MOL0     H37414   5.892   3.334   5.536 -2.6192  3.4454 -0.6752
 1018MOL0     H37415   5.696   3.472   5.585 -2.9294 -1.4769 -3.5082
 1018MOL0     H37416   5.293   3.436   5.890  1.5426 -0.7862 -1.4365
 1018MOL0     H37417   5.090   3.543   5.938 -0.7652  0.8079 -0.9753
 1018MOL0     H37418   4.887   3.952   5.950  0.1142  3.0059  2.0735
 1018MOL0     H37419   5.021   3.990   5.843  0.9905 -1.3292 -1.2400
 1018MOL0     H37420   5.024   4.077   6.100 -0.3596 -1.6567  2.8557
 1018MOL0     H37421   5.166   3.989   6.052 -0.3977  0.3702 -0.4966
 1018MOL0     H37422   5.048   3.785   6.158 -2.7332 -0.8419 -3.3860
 1018MOL0     H37423   4.909   3.873   6.204 -0.2575 -0.3340 -1.7682
 1018MOL0     H37424   5.196   3.899   6.299 -1.6163 -3.9813 -0.7293
 1018MOL0     H37425   5.096   4.035   6.320 -0.6290  0.2496 -0.8962
 1018MOL0     H37426   4.939   3.777   6.614 -0.0871 -2.0606 -1.3725
 1018MOL0     H37427   5.235   3.926   5.806  0.1503 -0.7534 -0.4811
 1018MOL0     H37428   5.418   3.906   5.623  2.1730  0.0037 -1.7964
 1018MOL0     H37429   5.515   3.924   5.770  0.7181  0.2149 -0.8779
 1018MOL0     H37430   5.554   3.806   5.653  0.8654  2.0131  0.5126
 1019MOL0     O37431   7.622  10.075   5.026 -0.6225  0.3109 -0.1028
 1019MOL0     C37432   7.542  10.123   5.113  0.7144 -0.0637  0.3895
 1019MOL0     O37433   7.555  10.240   5.171 -0.0606 -0.6372  0.0016
 1019MOL0     C37434   7.674  10.304   5.140 -0.2363 -0.5974 -0.5243
 1019MOL0     C37435   7.794  10.258   5.194 -0.8930 -0.8290 -0.0379
 1019MOL0     C37436   7.911  10.322   5.163 -0.3325 -0.0077 -1.4964
 1019MOL0     C37437   7.914  10.438   5.084  0.1980  0.1697  0.1622
 1019MOL0     O37438   8.041  10.496   5.063  0.6808  0.0908  0.4516
 1019MOL0     C37439   8.140  10.505   5.167  1.2610 -0.2116  0.1003
 1019MOL0     C37440   8.251  10.603   5.125  0.9676 -0.5290 -0.5164
 1019MOL0     C37441   8.374  10.535   5.085 -0.3184 -0.2775 -0.1605
 1019MOL0     C37442   8.485  10.628   5.046 -0.1668 -0.9275  0.7307
 1019MOL0     C37443   8.617  10.549   5.030  0.3526 -0.3850  0.4658
 1019MOL0     C37444   8.735  10.644   4.987  0.1362  0.4742 -0.3082
 1019MOL0     C37445   8.875  10.606   5.024  0.0652 -0.5701 -0.4247
 1019MOL0     C37446   8.910  10.455   4.991  0.6726  0.3332  0.0082
 1019MOL0     N37447   9.038  10.426   5.037  0.5910 -0.0742  0.0603
 1019MOL0     C37448   9.071  10.384   5.172  0.7493  0.3824  1.1917
 1019MOL0     C37449   9.196  10.348   5.162 -0.5023  0.7265 -0.1095
 1019MOL0     C37450   9.274  10.257   5.267  1.0887  0.1280  0.0227
 1019MOL0     C37451   9.344  10.327   5.388  0.4778  0.1031  0.0166
 1019MOL0     C37452   9.416  10.234   5.475  0.0023 -0.1659  0.1476
 1019MOL0     C37453   9.347  10.099   5.506  0.2154  0.3092  0.4435
 1019MOL0     O37454   9.219  10.131   5.555  0.5043 -0.7765 -0.0694
 1019MOL0     C37455   9.139  10.023   5.572  1.3208  0.0968  0.0538
 1019MOL0     C37456   9.117   9.932   5.474 -0.2773  0.1202 -0.1791
 1019MOL0     C37457   9.013   9.836   5.488  0.1679 -0.3766  1.1444
 1019MOL0     C37458   8.925   9.828   5.599 -0.1048 -0.2096 -0.6787
 1019MOL0     C37459   8.813   9.737   5.603 -0.2888  0.6208 -0.9040
 1019MOL0     O37460   8.731   9.758   5.712  0.1784 -0.3073 -0.5353
 1019MOL0     C37461   8.605   9.707   5.710  0.0566 -0.1240 -0.2962
 1019MOL0     C37462   8.571   9.563   5.703  0.4922 -0.3274 -0.1942
 1019MOL0     C37463   8.438   9.519   5.724  0.3904 -0.0025 -0.0467
 1019MOL0     C37464   8.342   9.607   5.759 -0.1037 -0.5358 -1.0535
 1019MOL0     O37465   8.219   9.560   5.784 -0.1133 -0.2279  0.0538
 1019MOL0     C37466   8.148   9.632   5.892  0.3903  1.1302  0.4923
 1019MOL0     C37467   8.055   9.537   5.972 -0.9394 -0.2527  0.8754
 1019MOL0     C37468   7.906   9.552   5.932 -0.2519  0.1009  0.5210
 1019MOL0     C37469   7.834   9.431   5.976  0.7527  0.1168  0.8138
 1019MOL0     C37470   7.702   9.405   5.901 -0.1531 -0.1818 -0.5242
 1019MOL0     C37471   7.728   9.369   5.755 -0.5387 -0.1997  0.0503
 1019MOL0     C37472   7.597   9.319   5.690  0.3895 -0.0031  0.5556
 1019MOL0     C37473   7.630   9.196   5.614 -0.0012  0.3999  0.5160
 1019MOL0    Cl37474   7.685   9.067   5.721 -0.1553  0.5505  0.3506
 1019MOL0     C37475   8.370   9.742   5.759  0.3059 -0.1775 -0.4071
 1019MOL0     C37476   8.499   9.793   5.753  0.4543 -0.8884  0.2198
 1019MOL0     O37477   8.807   9.639   5.533  0.0553  1.0088  0.2691
 1019MOL0     C37478   8.947   9.922   5.706 -0.5697 -1.1399  0.5196
 1019MOL0     C37479   9.054  10.014   5.688 -0.3756  0.6394  0.2273
 1019MOL0     N37480   9.242  10.377   5.035 -0.9041 -0.0958 -0.3431
 1019MOL0     N37481   9.148  10.425   4.959 -0.3901  0.0179 -1.0053
 1019MOL0     C37482   7.791  10.497   5.047 -0.3676  0.9030 -0.5767
 1019MOL0     C37483   7.672  10.426   5.074  0.1889 -0.2317 -0.2576
 1019MOL0     C37484   7.432  10.046   5.171 -0.0892  0.5487  0.8892
 1019MOL0     C37485   7.376  10.074   5.295  0.5352 -0.4879 -0.7938
 1019MOL0     C37486   7.266   9.999   5.340 -0.1153  0.3322 -0.0508
 1019MOL0     C37487   7.215   9.891   5.269  0.2262 -0.0264  0.0982
 1019MOL0     O37488   7.124   9.806   5.323 -0.1104  0.2372 -0.0146
 1019MOL0     C37489   7.166   9.746   5.450  0.0125 -0.4893 -0.3085
 1019MOL0     C37490   7.056   9.659   5.511  0.0320  0.3489 -1.0182
 1019MOL0     C37491   6.922   9.729   5.545  0.1116  0.3217 -0.3025
 1019MOL0     C37492   6.789   9.660   5.500  0.8841 -0.4138  0.1430
 1019MOL0     C37493   6.782   9.513   5.526  0.7132  0.6781  0.1973
 1019MOL0     C37494   6.762   9.399   5.554 -0.4222 -0.9007 -0.6657
 1019MOL0     C37495   7.269   9.856   5.143 -0.6445  0.1323 -0.2086
 1019MOL0     C37496   7.367   9.935   5.095  0.1955 -0.7606 -0.7882
 1019MOL0     C37497   7.414   9.888   4.959 -0.2383 -0.3994  0.4192
 1019MOL0     H37498   7.780  10.164   5.248 -1.2957 -2.0486 -2.1533
 1019MOL0     H37499   7.999  10.278   5.208 -0.5020  1.6718  0.6336
 1019MOL0     H37500   8.085  10.547   5.252  1.1642 -1.1406  0.5188
 1019MOL0     H37501   8.176  10.406   5.198 -1.1196 -0.4675  2.3828
 1019MOL0     H37502   8.274  10.669   5.209 -0.9027 -0.1284 -0.2750
 1019MOL0     H37503   8.213  10.658   5.039 -0.3934 -0.3188  0.1942
 1019MOL0     H37504   8.340  10.474   5.001 -0.1321  1.2199 -1.3658
 1019MOL0     H37505   8.413  10.471   5.165  1.0616 -2.7568 -2.6525
 1019MOL0     H37506   8.454  10.666   4.949  0.5537  2.2490  1.6203
 1019MOL0     H37507   8.497  10.708   5.120  0.3360  1.2529 -1.5841
 1019MOL0     H37508   8.659  10.502   5.120 -0.6118 -0.9836  0.6182
 1019MOL0     H37509   8.591  10.465   4.965  2.3269  1.9109 -3.6501
 1019MOL0     H37510   8.723  10.672   4.881 -1.1641 -1.5236 -0.7362
 1019MOL0     H37511   8.716  10.741   5.034 -1.4190 -0.2199  0.5623
 1019MOL0     H37512   8.889  10.610   5.132  0.6740 -2.9861 -0.3616
 1019MOL0     H37513   8.940  10.675   4.970 -0.9046  0.4977 -0.2549
 1019MOL0     H37514   8.842  10.376   5.024  3.1484 -1.5869  0.7746
 1019MOL0     H37515   8.912  10.444   4.882  1.2266  2.0453 -0.1927
 1019MOL0     H37516   9.003  10.373   5.257 -0.4208 -0.6628  0.1717
 1019MOL0     H37517   9.208  10.172   5.288  1.2365 -0.1712 -0.6898
 1019MOL0     H37518   9.354  10.206   5.213  1.0157  1.8456 -1.8445
 1019MOL0     H37519   9.410  10.409   5.360  0.7685  0.1659  0.8490
 1019MOL0     H37520   9.256  10.367   5.440  0.0876  1.3036 -1.4839
 1019MOL0     H37521   9.432  10.285   5.570 -0.5181 -0.4620  0.3934
 1019MOL0     H37522   9.510  10.207   5.424 -0.2271  1.2485 -1.0890
 1019MOL0     H37523   9.397  10.045   5.586 -1.2670  0.7659  1.7274
 1019MOL0     H37524   9.348  10.045   5.411  0.3586  0.5878  0.2853
 1019MOL0     H37525   9.167   9.934   5.377 -1.8780 -2.7851 -1.2068
 1019MOL0     H37526   8.989   9.762   5.413  1.4554 -0.0828  0.3979
 1019MOL0     H37527   8.652   9.491   5.694 -0.6644 -1.8225  0.8823
 1019MOL0     H37528   8.415   9.413   5.733 -2.5534  0.6769  1.9193
 1019MOL0     H37529   8.213   9.694   5.954 -0.5087  0.0192  2.6485
 1019MOL0     H37530   8.086   9.716   5.859 -3.1831 -0.4357  2.6414
 1019MOL0     H37531   8.108   9.442   5.960  0.3839  0.7737 -3.3709
 1019MOL0     H37532   8.065   9.573   6.074  3.9221 -0.8027  0.7983
 1019MOL0     H37533   7.859   9.629   5.995 -0.9699 -0.2842  0.4657
 1019MOL0     H37534   7.896   9.569   5.825  0.6353  0.4513  0.4819
 1019MOL0     H37535   7.807   9.452   6.080 -0.8040 -2.4841  1.0070
 1019MOL0     H37536   7.907   9.350   5.973  2.3328  1.4849 -2.3255
 1019MOL0     H37537   7.649   9.501   5.896 -0.3586 -0.1848  1.0400
 1019MOL0     H37538   7.643   9.324   5.945 -0.6474  0.0268 -0.7952
 1019MOL0     H37539   7.777   9.456   5.710  0.5575  0.2388  1.9610
 1019MOL0     H37540   7.811   9.298   5.756  1.6430  2.1594  1.9902
 1019MOL0     H37541   7.552   9.392   5.622  0.6609  0.2327  0.6291
 1019MOL0     H37542   7.515   9.293   5.758 -1.5715 -2.7807 -2.4926
 1019MOL0     H37543   7.550   9.154   5.553 -0.8927  1.0602  1.2009
 1019MOL0     H37544   7.707   9.218   5.540  0.1667  0.7228  0.7793
 1019MOL0     H37545   8.287   9.812   5.753  1.0414  0.7445 -0.0350
 1019MOL0     H37546   8.518   9.900   5.760 -0.2829 -0.4400 -2.9626
 1019MOL0     H37547   8.882   9.929   5.792 -0.2628  0.7090  0.6502
 1019MOL0     H37548   9.088  10.070   5.774 -1.3905 -0.0272  1.0841
 1019MOL0     H37549   7.787  10.593   4.996 -0.9377  1.0647 -0.2360
 1019MOL0     H37550   7.590  10.492   5.050  2.1291  2.0517 -0.9804
 1019MOL0     H37551   7.421  10.156   5.350 -0.8225  0.8050 -1.5214
 1019MOL0     H37552   7.217  10.025   5.433 -0.2049 -0.6186  0.1750
 1019MOL0     H37553   7.178   9.829   5.520 -4.9541 -0.9591  1.5302
 1019MOL0     H37554   7.257   9.686   5.438 -0.7443 -2.5713  2.8781
 1019MOL0     H37555   7.088   9.611   5.604 -5.3769 -0.3978  0.8201
 1019MOL0     H37556   7.039   9.583   5.434  1.0037 -1.4953  0.5089
 1019MOL0     H37557   6.925   9.829   5.501 -0.9765  0.9260  0.9038
 1019MOL0     H37558   6.917   9.750   5.652 -0.2645 -3.2817  0.5141
 1019MOL0     H37559   6.709   9.713   5.552 -0.3605 -0.0356 -2.0491
 1019MOL0     H37560   6.789   9.673   5.392  2.8687  0.1620  0.1746
 1019MOL0     H37561   6.745   9.300   5.592  2.8165 -0.5018  2.3727
 1019MOL0     H37562   7.230   9.764   5.102 -1.3312 -1.3376  3.3530
 1019MOL0     H37563   7.519   9.862   4.980  0.1012  0.7008  0.1307
 1019MOL0     H37564   7.374   9.797   4.914 -0.9752 -0.7911  1.8152
 1019MOL0     H37565   7.429   9.972   4.891  0.2333 -0.3922  0.5255
 1020MOL0     O37566   1.111   9.916   0.013  0.0705 -0.0760 -0.2529
 1020MOL0     C37567   1.067   9.916  -0.099  0.3196 -0.1887  0.6644
 1020MOL0     O37568   1.139   9.940  -0.214  0.1395  0.0836 -0.0945
 1020MOL0     C37569   1.274   9.960  -0.189 -0.5400 -0.5270  0.1609
 1020MOL0     C37570   1.314  10.075  -0.121  0.2243  0.7991  0.0262
 1020MOL0     C37571   1.452  10.107  -0.082  0.0965  1.0340 -0.2380
 1020MOL0     C37572   1.547  10.012  -0.127 -0.9075  0.2295 -0.2473
 1020MOL0     O37573   1.686  10.030  -0.117  0.1365  0.5231  0.6877
 1020MOL0     C37574   1.735  10.125  -0.017  0.4895 -0.2574 -0.3554
 1020MOL0     C37575   1.778  10.252  -0.094  0.1368  0.6780  0.4123
 1020MOL0     C37576   1.867  10.347  -0.020  0.3979 -0.1141 -0.1786
 1020MOL0     C37577   1.911  10.460  -0.113  0.8809 -0.4724 -0.2137
 1020MOL0     C37578   2.000  10.560  -0.038  0.0025  0.1885  0.2742
 1020MOL0     C37579   1.967  10.610   0.103 -0.1468  0.8752 -0.6962
 1020MOL0     C37580   2.081  10.707   0.158 -0.2663  0.3558  0.6619
 1020MOL0     C37581   2.187  10.626   0.238  0.4807 -1.5109  0.4249
 1020MOL0     N37582   2.302  10.708   0.218 -0.4964 -0.4583 -0.4308
 1020MOL0     C37583   2.324  10.841   0.247  0.6090  0.0626 -0.0354
 1020MOL0     C37584   2.455  10.868   0.207  0.3480  0.6528 -0.8941
 1020MOL0     C37585   2.515  11.002   0.220 -0.8897 -0.4486  0.2541
 1020MOL0     C37586   2.673  11.000   0.229  0.3308 -0.1861 -0.4836
 1020MOL0     C37587   2.729  11.135   0.227  0.0511  0.7683 -0.7015
 1020MOL0     C37588   2.872  11.140   0.246 -0.4064  0.2760  0.7418
 1020MOL0     O37589   2.914  11.272   0.266  0.1548 -0.2647  0.2765
 1020MOL0     C37590   3.013  11.310   0.177 -0.1723 -0.0208 -0.2985
 1020MOL0     C37591   2.986  11.341   0.041  0.1240 -0.3487  0.3520
 1020MOL0     C37592   3.088  11.406  -0.044  0.1061 -0.7213  0.1352
 1020MOL0     C37593   3.219  11.436   0.004 -0.1769  1.0293 -0.7274
 1020MOL0     C37594   3.321  11.492  -0.076  0.3094  0.7834  0.5675
 1020MOL0     O37595   3.283  11.551  -0.202 -0.2079  0.3759 -0.1552
 1020MOL0     C37596   3.371  11.629  -0.266 -0.5048 -0.2911 -0.3064
 1020MOL0     C37597   3.475  11.705  -0.209 -0.0774  0.2294 -0.1986
 1020MOL0     C37598   3.561  11.783  -0.296 -0.3874  0.8218 -0.3415
 1020MOL0     C37599   3.548  11.774  -0.431  0.0909 -0.7766 -0.0174
 1020MOL0     O37600   3.626  11.845  -0.522 -0.1098  0.0501  0.2573
 1020MOL0     C37601   3.681  11.962  -0.477 -0.2883  1.4041  0.0216
 1020MOL0     C37602   3.728  12.052  -0.593  0.0218  0.1467 -0.0075
 1020MOL0     C37603   3.621  12.090  -0.698  0.1375 -1.0269  0.0803
 1020MOL0     C37604   3.678  12.128  -0.845 -0.1666  1.2053 -1.1013
 1020MOL0     C37605   3.546  12.147  -0.933 -0.5170  0.0162 -0.4420
 1020MOL0     C37606   3.563  12.218  -1.068 -0.1582  0.2067  0.8591
 1020MOL0     C37607   3.428  12.220  -1.151  0.7262 -0.9087 -1.0720
 1020MOL0     C37608   3.355  12.355  -1.145  0.1473 -0.6916 -0.4891
 1020MOL0    Cl37609   3.436  12.475  -1.247  0.3777  0.3618  0.0672
 1020MOL0     C37610   3.435  11.710  -0.481 -0.5475 -0.6456  0.5775
 1020MOL0     C37611   3.349  11.646  -0.403 -0.1019  0.1007 -0.1048
 1020MOL0     O37612   3.433  11.487  -0.028 -0.4539  0.0215 -0.1644
 1020MOL0     C37613   3.246  11.395   0.146  1.4776 -0.0719 -0.6601
 1020MOL0     C37614   3.144  11.343   0.225  0.0137  0.7658  0.6911
 1020MOL0     N37615   2.514  10.745   0.173  0.4228 -0.3523 -0.0813
 1020MOL0     N37616   2.423  10.657   0.171 -0.5026  0.1412  0.6993
 1020MOL0     C37617   1.508   9.892  -0.178  0.4583  0.1135  0.2004
 1020MOL0     C37618   1.371   9.872  -0.217 -0.4582 -0.1206  0.1559
 1020MOL0     C37619   0.929   9.879  -0.127 -0.3622 -0.9851 -0.2035
 1020MOL0     C37620   0.845   9.979  -0.190 -0.3963  0.5886 -0.2673
 1020MOL0     C37621   0.714   9.959  -0.218 -0.3667  0.2260 -0.1291
 1020MOL0     C37622   0.658   9.834  -0.193  0.6608 -0.8123 -0.6973
 1020MOL0     O37623   0.527   9.824  -0.223  0.1990  0.1777  0.3092
 1020MOL0     C37624   0.477   9.684  -0.240 -0.4082 -1.0624  0.0035
 1020MOL0     C37625   0.343   9.691  -0.298  0.9120 -0.1499 -0.5502
 1020MOL0     C37626   0.257   9.748  -0.185  0.2742  0.1348  0.3754
 1020MOL0     C37627   0.107   9.753  -0.222  0.3929  0.1039  0.2814
 1020MOL0     C37628   0.060   9.614  -0.236  0.2303 -0.6342  0.9020
 1020MOL0     C37629   0.032   9.500  -0.258  0.8459 -0.0704  0.2245
 1020MOL0     C37630   0.733   9.750  -0.107  0.6315  0.2023  1.2856
 1020MOL0     C37631   0.866   9.766  -0.075  0.0083 -0.3738 -0.1570
 1020MOL0     C37632   0.935   9.648  -0.015 -0.2730  0.4281 -0.9867
 1020MOL0     H37633   1.227  10.136  -0.097  0.3280 -0.0062  2.9373
 1020MOL0     H37634   1.465  10.204  -0.033 -0.8087  0.8186  0.4571
 1020MOL0     H37635   1.658  10.151   0.056 -1.9718 -0.8382 -2.5942
 1020MOL0     H37636   1.820  10.081   0.036  0.1818  1.4143  1.6680
 1020MOL0     H37637   1.693  10.313  -0.127 -0.3606  1.3279  2.7028
 1020MOL0     H37638   1.834  10.226  -0.184  3.8369 -0.6792  2.8759
 1020MOL0     H37639   1.952  10.293   0.020  0.5573 -0.2140 -0.6454
 1020MOL0     H37640   1.816  10.401   0.061 -0.2744 -1.4889  0.3442
 1020MOL0     H37641   1.963  10.415  -0.199 -0.1972 -0.4566 -0.8925
 1020MOL0     H37642   1.823  10.507  -0.158  1.1815 -0.1001 -0.4184
 1020MOL0     H37643   2.096  10.508  -0.046 -1.3211 -2.2989 -0.6601
 1020MOL0     H37644   2.014  10.648  -0.101  3.2919 -0.5217 -0.2026
 1020MOL0     H37645   1.878  10.675   0.103 -0.3111  0.7264  1.5486
 1020MOL0     H37646   1.959  10.523   0.168 -0.4395  0.3483 -1.4200
 1020MOL0     H37647   2.030  10.767   0.234 -0.7965 -0.4640  0.9636
 1020MOL0     H37648   2.125  10.768   0.079 -2.3322  2.1820  0.8419
 1020MOL0     H37649   2.143  10.621   0.338 -1.4842 -1.6141 -0.4103
 1020MOL0     H37650   2.203  10.521   0.208  1.2537 -1.9606  2.2746
 1020MOL0     H37651   2.248  10.909   0.284 -0.1917  0.0492 -1.5689
 1020MOL0     H37652   2.494  11.060   0.130 -1.7510 -2.5505 -0.9890
 1020MOL0     H37653   2.457  11.054   0.296 -3.8786  0.1354 -2.2137
 1020MOL0     H37654   2.708  10.948   0.318 -1.0504  1.5270  1.1397
 1020MOL0     H37655   2.720  10.946   0.146  2.8546 -1.4784  1.6570
 1020MOL0     H37656   2.685  11.191   0.310 -0.4231  0.3538 -0.6679
 1020MOL0     H37657   2.715  11.180   0.128 -0.8644 -1.0514 -1.4487
 1020MOL0     H37658   2.938  11.094   0.171  0.1331  0.2084  1.2513
 1020MOL0     H37659   2.898  11.084   0.336  1.4189 -2.1252 -1.1194
 1020MOL0     H37660   2.884  11.326   0.008  0.3809  0.0123 -0.6428
 1020MOL0     H37661   3.073  11.434  -0.148  0.6301 -0.8737  0.0187
 1020MOL0     H37662   3.491  11.704  -0.102  2.3348  0.8672 -0.4886
 1020MOL0     H37663   3.636  11.839  -0.240  0.9488 -0.8991 -0.3331
 1020MOL0     H37664   3.618  12.022  -0.411  2.0380  3.0793  0.8476
 1020MOL0     H37665   3.774  11.948  -0.422 -0.5165  0.8054  0.2618
 1020MOL0     H37666   3.768  12.150  -0.563 -2.1850  1.6646 -1.6730
 1020MOL0     H37667   3.810  11.996  -0.639 -0.8311 -0.5937 -0.6654
 1020MOL0     H37668   3.555  12.005  -0.719 -3.2825  2.0409 -3.1402
 1020MOL0     H37669   3.556  12.163  -0.650 -0.3697 -2.4547  1.6373
 1020MOL0     H37670   3.750  12.055  -0.883 -0.0609  1.1937 -0.8799
 1020MOL0     H37671   3.741  12.217  -0.844  2.6966 -0.6812 -1.8028
 1020MOL0     H37672   3.475  12.204  -0.873 -1.3796 -0.5915 -0.8817
 1020MOL0     H37673   3.495  12.053  -0.951  1.5336 -1.2495 -0.0273
 1020MOL0     H37674   3.605  12.318  -1.057  0.9083 -0.2542  1.0549
 1020MOL0     H37675   3.636  12.161  -1.126 -1.2485 -1.1239  0.7141
 1020MOL0     H37676   3.362  12.150  -1.098  0.2926  0.6119  0.5093
 1020MOL0     H37677   3.447  12.198  -1.256  0.6275  1.1860 -1.5796
 1020MOL0     H37678   3.248  12.349  -1.168  0.7241 -1.5727 -3.3188
 1020MOL0     H37679   3.361  12.394  -1.043  0.0985  0.7044 -0.9979
 1020MOL0     H37680   3.415  11.692  -0.586 -0.1487 -1.6254  0.6615
 1020MOL0     H37681   3.269  11.588  -0.448 -0.0833 -0.6668  0.8031
 1020MOL0     H37682   3.344  11.412   0.188  2.0054  1.3350 -2.3309
 1020MOL0     H37683   3.165  11.330   0.331 -0.5582 -0.7868  0.6386
 1020MOL0     H37684   1.579   9.820  -0.216  0.8489  1.0634 -0.9464
 1020MOL0     H37685   1.345   9.777  -0.263 -1.8698  0.8404 -1.1442
 1020MOL0     H37686   0.889  10.070  -0.229 -0.3411 -0.5665 -3.1504
 1020MOL0     H37687   0.659  10.038  -0.268 -0.4993  0.0694 -0.2306
 1020MOL0     H37688   0.477   9.629  -0.145  1.3652  0.9014  1.2050
 1020MOL0     H37689   0.541   9.627  -0.308 -0.5152  1.3107 -2.2302
 1020MOL0     H37690   0.323   9.589  -0.333  1.1135 -0.0613 -0.9281
 1020MOL0     H37691   0.343   9.755  -0.386 -0.5323  0.8299  0.1176
 1020MOL0     H37692   0.285   9.848  -0.151  0.9968  0.5848 -1.4219
 1020MOL0     H37693   0.267   9.678  -0.102 -1.2730  0.3957  0.8044
 1020MOL0     H37694   0.061   9.802  -0.135  2.6771  2.7666  0.1282
 1020MOL0     H37695   0.077   9.812  -0.308  1.9255 -1.5972 -1.5147
 1020MOL0     H37696   0.016   9.398  -0.285 -1.1844  0.2779 -0.0159
 1020MOL0     H37697   0.687   9.659  -0.069  0.4560 -0.6937 -0.9457
 1020MOL0     H37698   1.006   9.595  -0.079  4.2249  3.1328  1.2416
 1020MOL0     H37699   0.997   9.675   0.071  1.4318  0.3241 -2.1329
 1020MOL0     H37700   0.854   9.583   0.019 -0.3340  0.2179 -1.5170
 1021MOL0     O37701   5.153   8.788   3.807 -0.5863  0.5724  0.0571
 1021MOL0     C37702   5.073   8.726   3.889  0.0715  0.0766  0.0202
 1021MOL0     O37703   5.105   8.620   3.960 -0.0785  0.0598 -0.0942
 1021MOL0     C37704   5.194   8.525   3.918  0.9471 -0.1357  0.4996
 1021MOL0     C37705   5.268   8.452   4.010  0.2061 -1.1295 -0.3689
 1021MOL0     C37706   5.360   8.351   3.971  0.1451 -0.2685 -1.2369
 1021MOL0     C37707   5.382   8.319   3.833  0.6390  0.3885 -0.0479
 1021MOL0     O37708   5.474   8.220   3.791 -0.6000  0.4863 -0.3582
 1021MOL0     C37709   5.512   8.117   3.889  0.1534  0.7174  0.3451
 1021MOL0     C37710   5.499   7.970   3.833 -0.3315 -0.2609 -0.2560
 1021MOL0     C37711   5.352   7.952   3.788 -0.2286  0.1852  0.1254
 1021MOL0     C37712   5.325   7.813   3.712 -0.0167  0.1006  0.6745
 1021MOL0     C37713   5.196   7.791   3.657  0.6992 -0.2732  0.0117
 1021MOL0     C37714   5.104   7.679   3.711  0.7580 -0.5104 -0.5113
 1021MOL0     C37715   4.958   7.699   3.658 -0.0499 -0.4941 -0.9466
 1021MOL0     C37716   4.929   7.659   3.511 -0.2315  0.1059  0.1144
 1021MOL0     N37717   4.804   7.712   3.456 -0.5180 -0.5215  0.8730
 1021MOL0     C37718   4.688   7.635   3.442 -0.3736 -0.4016  0.5593
 1021MOL0     C37719   4.604   7.724   3.368 -0.2298  0.0711 -0.1909
 1021MOL0     C37720   4.472   7.698   3.314  0.5293  0.6101 -0.5119
 1021MOL0     C37721   4.482   7.604   3.189 -0.5479  0.1716 -0.3239
 1021MOL0     C37722   4.386   7.643   3.078  0.2022  0.0991 -0.7254
 1021MOL0     C37723   4.442   7.752   2.988 -0.5871 -0.4034 -0.0891
 1021MOL0     O37724   4.497   7.713   2.863 -0.5336 -0.6324  0.2721
 1021MOL0     C37725   4.562   7.808   2.788 -0.0386 -0.1222 -0.2361
 1021MOL0     C37726   4.677   7.761   2.726  0.1754 -0.7452  0.6559
 1021MOL0     C37727   4.763   7.855   2.660  1.0661 -0.3384 -0.2633
 1021MOL0     C37728   4.719   7.989   2.639  0.0284  0.2232  0.5548
 1021MOL0     C37729   4.806   8.070   2.551 -0.3765  0.4649  1.0038
 1021MOL0     O37730   4.938   8.029   2.535  0.2310 -0.1491  0.8280
 1021MOL0     C37731   5.022   8.116   2.467  0.4072  0.0678 -1.0852
 1021MOL0     C37732   4.985   8.189   2.357 -0.1000  0.3815 -0.2317
 1021MOL0     C37733   5.076   8.290   2.317  0.7408  0.1496  0.4445
 1021MOL0     C37734   5.205   8.304   2.368  0.8127  0.1660  0.5567
 1021MOL0     O37735   5.312   8.372   2.311  0.9873 -0.0411 -0.0315
 1021MOL0     C37736   5.280   8.420   2.177 -0.0005  0.4649 -0.6188
 1021MOL0     C37737   5.410   8.456   2.120  0.6856  0.2474  0.1078
 1021MOL0     C37738   5.401   8.478   1.970 -0.8664  0.5066  0.6100
 1021MOL0     C37739   5.527   8.528   1.902  0.7879  0.1597  0.6091
 1021MOL0     C37740   5.509   8.552   1.751  0.5683 -0.6585  0.3047
 1021MOL0     C37741   5.640   8.602   1.695 -0.3544  0.1813  0.0792
 1021MOL0     C37742   5.628   8.656   1.551 -0.2246  0.4866  0.0692
 1021MOL0     C37743   5.558   8.551   1.449  0.0962 -0.2777  0.1921
 1021MOL0    Cl37744   5.671   8.430   1.386 -0.0522 -0.5575 -0.1725
 1021MOL0     C37745   5.239   8.222   2.473  0.5666  0.3114  0.0610
 1021MOL0     C37746   5.149   8.124   2.523  0.5880 -0.3574  0.3110
 1021MOL0     O37747   4.757   8.175   2.515  0.3246  0.3221 -0.4808
 1021MOL0     C37748   4.601   8.030   2.690  1.3394  0.1393  1.1593
 1021MOL0     C37749   4.523   7.942   2.770  0.6607  0.3068 -0.2717
 1021MOL0     N37750   4.674   7.834   3.330 -0.1965  0.0890 -0.2109
 1021MOL0     N37751   4.798   7.829   3.382  0.1924  0.2149 -0.4268
 1021MOL0     C37752   5.296   8.383   3.743 -0.0312  0.2270  0.8943
 1021MOL0     C37753   5.211   8.489   3.785 -0.4388 -0.2807 -0.3201
 1021MOL0     C37754   4.954   8.802   3.927  1.0678  1.1298  0.1384
 1021MOL0     C37755   4.951   8.936   3.969 -0.9165  0.0757 -0.0332
 1021MOL0     C37756   4.831   9.001   3.997  0.3831 -0.0104 -0.7834
 1021MOL0     C37757   4.713   8.928   4.017  1.1998  0.8430 -0.8473
 1021MOL0     O37758   4.581   8.978   4.037 -0.8467 -0.2834 -1.0249
 1021MOL0     C37759   4.558   9.123   4.054  0.2154  0.0333 -0.0696
 1021MOL0     C37760   4.625   9.181   4.183  0.1547 -0.0467 -0.0346
 1021MOL0     C37761   4.579   9.318   4.232 -0.2720 -0.0150 -0.1184
 1021MOL0     C37762   4.431   9.345   4.255  0.3890 -0.0463  0.2286
 1021MOL0     C37763   4.365   9.231   4.317  0.6911 -0.2141  0.0288
 1021MOL0     C37764   4.312   9.131   4.345  0.5638  0.4347  0.1586
 1021MOL0     C37765   4.711   8.792   3.988 -0.4832 -0.3218  0.0566
 1021MOL0     C37766   4.826   8.728   3.937 -0.1222  0.9340 -0.1441
 1021MOL0     C37767   4.812   8.582   3.867  0.3966 -1.2946 -0.3893
 1021MOL0     H37768   5.276   8.492   4.111 -1.9564 -0.3963 -0.4352
 1021MOL0     H37769   5.432   8.310   4.041  1.1521  1.9472 -0.9096
 1021MOL0     H37770   5.620   8.128   3.906  0.0007  2.6254  0.2905
 1021MOL0     H37771   5.457   8.113   3.983 -1.1878 -3.5024 -0.4326
 1021MOL0     H37772   5.518   7.893   3.908  1.4616 -0.8693 -1.2880
 1021MOL0     H37773   5.560   7.958   3.744  0.4766  1.1311  0.0894
 1021MOL0     H37774   5.313   8.024   3.716 -3.5901 -2.3461 -0.8711
 1021MOL0     H37775   5.286   7.957   3.876 -1.2489 -2.8040 -0.3514
 1021MOL0     H37776   5.397   7.823   3.631 -0.6697  1.1092  0.1982
 1021MOL0     H37777   5.353   7.725   3.771 -2.0391 -1.9351 -1.2425
 1021MOL0     H37778   5.143   7.886   3.669  0.1857 -0.5736  0.1773
 1021MOL0     H37779   5.205   7.781   3.549  2.7674 -1.1501  0.2266
 1021MOL0     H37780   5.141   7.578   3.691 -2.5036 -2.0195  0.2388
 1021MOL0     H37781   5.100   7.683   3.821  0.0461 -2.0741 -0.4580
 1021MOL0     H37782   4.925   7.803   3.668 -0.1113 -0.2066 -3.4713
 1021MOL0     H37783   4.890   7.651   3.728 -0.2853  1.5142  0.2723
 1021MOL0     H37784   5.005   7.695   3.440 -0.3465  0.5796  0.2240
 1021MOL0     H37785   4.940   7.551   3.505 -0.6454  0.0986 -0.7509
 1021MOL0     H37786   4.656   7.539   3.481  0.9885 -1.3906 -0.6508
 1021MOL0     H37787   4.406   7.658   3.392  1.0946  1.3027  0.3509
 1021MOL0     H37788   4.429   7.796   3.295 -0.2209  0.3879 -0.0010
 1021MOL0     H37789   4.586   7.596   3.157  0.3137  0.1541  2.2192
 1021MOL0     H37790   4.451   7.506   3.227 -2.7391  1.4598  1.4628
 1021MOL0     H37791   4.291   7.669   3.126  0.6110  0.9736 -0.3661
 1021MOL0     H37792   4.362   7.559   3.013  0.1320  0.9827 -1.8563
 1021MOL0     H37793   4.514   7.813   3.043 -0.0226 -2.1690  1.2298
 1021MOL0     H37794   4.361   7.824   2.976 -1.2137 -1.3290 -1.7548
 1021MOL0     H37795   4.710   7.659   2.712  0.6173 -0.5861  0.4936
 1021MOL0     H37796   4.859   7.830   2.617  1.9954  2.8756 -0.3199
 1021MOL0     H37797   4.886   8.169   2.318 -1.6247  2.6846  2.1103
 1021MOL0     H37798   5.058   8.359   2.234 -0.7877  2.6223  2.6646
 1021MOL0     H37799   5.242   8.343   2.109 -0.2155 -0.2765  0.3240
 1021MOL0     H37800   5.210   8.504   2.169  0.1086  0.5251 -0.9467
 1021MOL0     H37801   5.450   8.537   2.182 -0.7150  0.5114  0.7013
 1021MOL0     H37802   5.471   8.366   2.137  0.5966  0.4219  1.4708
 1021MOL0     H37803   5.363   8.388   1.921  1.2373 -0.6582  1.0000
 1021MOL0     H37804   5.314   8.544   1.967 -1.0851  0.2457  1.1149
 1021MOL0     H37805   5.608   8.455   1.910  2.3412  1.7006 -0.0639
 1021MOL0     H37806   5.563   8.623   1.942  0.4392 -0.7017  3.1062
 1021MOL0     H37807   5.428   8.625   1.743  1.4178  0.3162  0.4317
 1021MOL0     H37808   5.479   8.454   1.711  3.5537 -1.3318 -0.5075
 1021MOL0     H37809   5.676   8.677   1.765 -0.4935 -0.9706  1.4303
 1021MOL0     H37810   5.716   8.523   1.688  0.9119  1.3083  0.6675
 1021MOL0     H37811   5.728   8.673   1.511 -0.6743  1.1065 -0.8337
 1021MOL0     H37812   5.576   8.752   1.547 -1.7603 -0.1837  2.1677
 1021MOL0     H37813   5.475   8.497   1.496 -0.8670  1.1618  0.2321
 1021MOL0     H37814   5.511   8.608   1.368  0.1907 -0.8318 -0.2573
 1021MOL0     H37815   5.345   8.212   2.496  0.6768  2.6557  0.8376
 1021MOL0     H37816   5.170   8.071   2.615  0.0090  0.7716  1.1096
 1021MOL0     H37817   4.563   8.129   2.668  3.5803  0.3202 -3.0832
 1021MOL0     H37818   4.432   7.981   2.815  1.4550 -0.5302  2.2216
 1021MOL0     H37819   5.291   8.345   3.641 -1.7268 -1.5854  1.5824
 1021MOL0     H37820   5.146   8.541   3.715 -3.3675 -0.7834  1.8135
 1021MOL0     H37821   5.048   8.983   3.963 -0.0476 -1.6296 -0.0219
 1021MOL0     H37822   4.840   9.107   4.018  1.1027 -0.8935  5.3307
 1021MOL0     H37823   4.449   9.130   4.047  0.1211 -0.9092  0.2870
 1021MOL0     H37824   4.608   9.174   3.971  0.2760 -2.4291 -1.6244
 1021MOL0     H37825   4.733   9.175   4.167  0.0092 -3.9280 -0.4964
 1021MOL0     H37826   4.599   9.110   4.262 -3.0543  0.5512 -0.4054
 1021MOL0     H37827   4.619   9.405   4.180 -1.1838  1.1108  0.9768
 1021MOL0     H37828   4.609   9.323   4.337 -1.4882  1.3461  0.2011
 1021MOL0     H37829   4.419   9.425   4.329  0.1812 -0.6623  0.8684
 1021MOL0     H37830   4.374   9.368   4.164 -0.7488 -1.4446  0.5547
 1021MOL0     H37831   4.258   9.039   4.337  3.7733 -1.7596  1.4038
 1021MOL0     H37832   4.614   8.743   3.983  0.5357 -2.4326  0.2690
 1021MOL0     H37833   4.728   8.519   3.898 -2.1921  2.4467  0.8803
 1021MOL0     H37834   4.823   8.591   3.758 -0.3306 -2.6541 -0.6016
 1021MOL0     H37835   4.896   8.522   3.904 -0.4428 -2.8595 -0.9410
 1022MOL0     O37836   2.168   2.393   4.782  0.3209 -0.2864  0.1955
 1022MOL0     C37837   2.106   2.293   4.822 -0.7246 -0.2809  0.1428
 1022MOL0     O37838   2.161   2.163   4.830 -0.5605 -0.5305 -0.0885
 1022MOL0     C37839   2.293   2.132   4.878  0.9334 -0.3733  0.1807
 1022MOL0     C37840   2.308   1.993   4.888  0.2987 -0.7216  0.0355
 1022MOL0     C37841   2.414   1.940   4.958  0.9119  0.7119 -0.1018
 1022MOL0     C37842   2.519   2.018   5.005 -0.4770 -0.2673 -0.1765
 1022MOL0     O37843   2.606   1.952   5.078  0.3707  0.3941  0.4594
 1022MOL0     C37844   2.725   2.027   5.114 -0.5500  0.1504  0.2861
 1022MOL0     C37845   2.807   1.952   5.219  0.1143 -0.5925 -0.0653
 1022MOL0     C37846   2.957   1.965   5.199 -0.3105  0.5246  0.1146
 1022MOL0     C37847   3.008   2.106   5.238  0.7523 -0.1735  0.1234
 1022MOL0     C37848   3.129   2.148   5.171 -0.4334  0.7006  0.1664
 1022MOL0     C37849   3.245   2.057   5.218  0.1804 -0.4036 -0.3917
 1022MOL0     C37850   3.367   2.071   5.130 -0.1566 -0.1794 -0.1810
 1022MOL0     C37851   3.479   2.152   5.197  0.9273  0.3630 -0.9410
 1022MOL0     N37852   3.596   2.131   5.102  0.6595  0.1938 -0.2909
 1022MOL0     C37853   3.661   2.212   5.014  0.0455 -0.3816  0.2674
 1022MOL0     C37854   3.766   2.145   4.968 -0.6400  0.6110  0.3633
 1022MOL0     C37855   3.873   2.190   4.876 -0.6208 -0.0449 -0.7651
 1022MOL0     C37856   3.990   2.264   4.938 -0.3197  0.0344 -0.6981
 1022MOL0     C37857   4.074   2.181   5.032 -0.1964  0.2617  0.1541
 1022MOL0     C37858   4.173   2.080   4.976 -0.2200  0.2530  0.6594
 1022MOL0     O37859   4.269   2.151   4.900 -0.4456 -0.4977  0.3045
 1022MOL0     C37860   4.388   2.092   4.890  0.1585  0.1016 -0.2106
 1022MOL0     C37861   4.399   1.958   4.864  0.1141  0.0362 -0.5487
 1022MOL0     C37862   4.521   1.901   4.865 -0.2173  0.5767 -0.0447
 1022MOL0     C37863   4.636   1.967   4.905 -0.2556  0.3466 -0.0197
 1022MOL0     C37864   4.765   1.906   4.901  0.4531  0.2740 -0.1817
 1022MOL0     O37865   4.849   1.943   5.004  0.1432  1.0312 -0.8171
 1022MOL0     C37866   4.978   1.891   4.991 -0.7433 -0.4011 -0.0497
 1022MOL0     C37867   5.091   1.977   4.981  0.3234 -0.2780 -0.3197
 1022MOL0     C37868   5.221   1.920   4.977  0.3982  0.3034 -0.1058
 1022MOL0     C37869   5.242   1.782   4.978 -0.2736 -0.5665  0.4071
 1022MOL0     O37870   5.370   1.738   4.961 -0.0168  0.3748 -0.1092
 1022MOL0     C37871   5.384   1.596   4.962  0.2470 -0.3555  0.2215
 1022MOL0     C37872   5.520   1.551   4.924 -0.2114 -0.5156  0.4483
 1022MOL0     C37873   5.536   1.404   4.968  0.4779  0.9028  0.6790
 1022MOL0     C37874   5.683   1.370   4.938 -0.4047 -0.0570 -0.5922
 1022MOL0     C37875   5.751   1.411   4.798  0.3001 -0.2220 -0.3274
 1022MOL0     C37876   5.885   1.340   4.779  0.2507 -0.8395  0.9797
 1022MOL0     C37877   5.888   1.193   4.769 -0.5377  0.5713  0.6293
 1022MOL0     C37878   6.029   1.136   4.718  0.1569  0.2388 -0.1712
 1022MOL0    Cl37879   6.144   1.184   4.842  0.1570 -0.1475 -0.1709
 1022MOL0     C37880   5.124   1.703   4.984 -0.7946  0.8171 -0.4147
 1022MOL0     C37881   5.003   1.754   4.984  0.8909  0.2112  0.2152
 1022MOL0     O37882   4.802   1.848   4.807 -0.0283  0.3040  0.0130
 1022MOL0     C37883   4.621   2.097   4.952  0.2228  0.6522  0.3531
 1022MOL0     C37884   4.498   2.161   4.939 -0.1894  0.8056 -0.3235
 1022MOL0     N37885   3.770   2.025   5.033  0.2634 -0.0187 -0.2239
 1022MOL0     N37886   3.674   2.021   5.118 -0.9128 -0.0239 -0.6529
 1022MOL0     C37887   2.501   2.160   4.998 -0.5783 -0.1637  0.2775
 1022MOL0     C37888   2.396   2.216   4.920  0.4031  1.0621  0.6009
 1022MOL0     C37889   1.953   2.299   4.860 -0.7374 -0.8368 -0.0491
 1022MOL0     C37890   1.888   2.180   4.898 -0.0625  0.5475  0.3955
 1022MOL0     C37891   1.748   2.176   4.920 -0.1091 -0.2681 -0.0968
 1022MOL0     C37892   1.676   2.296   4.911  0.2839 -0.3605  0.4228
 1022MOL0     O37893   1.546   2.284   4.944  0.4022 -0.0147  0.4656
 1022MOL0     C37894   1.516   2.236   5.080  0.3099 -0.4778  0.4471
 1022MOL0     C37895   1.418   2.116   5.076  0.0420  0.4474  0.4977
 1022MOL0     C37896   1.271   2.161   5.070 -0.6440 -0.7794  0.3650
 1022MOL0     C37897   1.170   2.053   5.077  0.4744  0.2994  0.0122
 1022MOL0     C37898   1.209   1.926   5.004  0.9226  0.6305  0.6981
 1022MOL0     C37899   1.227   1.820   4.942 -0.8428 -0.3270  0.0275
 1022MOL0     C37900   1.734   2.416   4.870  0.3988  0.2760 -0.4281
 1022MOL0     C37901   1.873   2.422   4.851 -0.1801 -0.0061 -0.4640
 1022MOL0     C37902   1.939   2.563   4.816 -0.3990  0.7867  0.0724
 1022MOL0     H37903   2.239   1.918   4.849  0.7948 -1.1789  0.0231
 1022MOL0     H37904   2.417   1.831   4.961  1.8309  0.5489 -3.0976
 1022MOL0     H37905   2.782   2.036   5.021 -1.2496 -1.7147 -0.3657
 1022MOL0     H37906   2.704   2.130   5.146 -1.7034  0.6639 -1.9066
 1022MOL0     H37907   2.781   1.846   5.228 -1.7488 -0.1583  0.1063
 1022MOL0     H37908   2.776   2.001   5.312 -0.4377 -1.9947  0.5185
 1022MOL0     H37909   2.979   1.940   5.094 -1.9546 -0.8918  0.0467
 1022MOL0     H37910   3.005   1.893   5.266 -1.9786  0.1590  0.9841
 1022MOL0     H37911   2.930   2.180   5.221  0.0604 -1.4603 -2.9806
 1022MOL0     H37912   3.037   2.103   5.343  2.5018 -0.2104 -0.3183
 1022MOL0     H37913   3.113   2.147   5.063 -0.3086 -0.2151  0.1482
 1022MOL0     H37914   3.168   2.247   5.197  2.1820  0.2318 -1.6185
 1022MOL0     H37915   3.276   2.078   5.321 -0.8316  0.1375 -0.1866
 1022MOL0     H37916   3.212   1.953   5.210  1.4986 -0.6931 -5.4856
 1022MOL0     H37917   3.335   2.117   5.036  0.9295 -1.4237 -1.2014
 1022MOL0     H37918   3.406   1.974   5.099 -1.4612  0.4348 -4.3825
 1022MOL0     H37919   3.452   2.258   5.205 -0.0605 -0.0445  2.9838
 1022MOL0     H37920   3.492   2.105   5.294 -1.8489 -0.6401 -0.9657
 1022MOL0     H37921   3.633   2.307   4.968  1.9294 -1.1443 -2.8013
 1022MOL0     H37922   3.908   2.096   4.832 -0.2879 -0.6326  0.7187
 1022MOL0     H37923   3.836   2.250   4.792 -2.8542 -0.4538 -0.1320
 1022MOL0     H37924   4.060   2.297   4.861  1.4713  0.7430  1.1271
 1022MOL0     H37925   3.939   2.345   4.991  0.6834  1.0809 -1.2982
 1022MOL0     H37926   4.009   2.119   5.096 -1.0980  1.9762  0.9760
 1022MOL0     H37927   4.126   2.257   5.091 -1.4771  2.3505 -1.2830
 1022MOL0     H37928   4.120   2.014   4.907  0.1344  1.4585 -0.8214
 1022MOL0     H37929   4.218   2.007   5.044  2.3209 -0.3965 -1.5254
 1022MOL0     H37930   4.310   1.896   4.862 -0.2632  0.5170  0.4617
 1022MOL0     H37931   4.538   1.798   4.834  3.1799  0.9099  0.2728
 1022MOL0     H37932   5.071   2.083   4.974 -3.0863 -0.8440 -0.4768
 1022MOL0     H37933   5.308   1.983   4.957 -0.5077  1.3049 -1.0483
 1022MOL0     H37934   5.366   1.558   5.063 -0.0578 -0.1988  0.2286
 1022MOL0     H37935   5.306   1.557   4.897 -2.1464  5.0327 -0.7168
 1022MOL0     H37936   5.524   1.562   4.815 -0.4611  1.2563  0.5805
 1022MOL0     H37937   5.601   1.611   4.966  1.4104  0.0149 -3.0618
 1022MOL0     H37938   5.523   1.384   5.074  1.4449 -0.5947  0.5393
 1022MOL0     H37939   5.462   1.348   4.910  1.3023  0.9876 -0.5013
 1022MOL0     H37940   5.689   1.261   4.931 -0.0233  0.0479 -2.6629
 1022MOL0     H37941   5.747   1.410   5.017  4.1464 -2.8742 -2.4509
 1022MOL0     H37942   5.782   1.515   4.811  1.6503 -0.6146 -0.2476
 1022MOL0     H37943   5.688   1.398   4.710  1.0671  2.3011 -1.3452
 1022MOL0     H37944   5.936   1.391   4.697 -2.7148  1.7926  0.5703
 1022MOL0     H37945   5.939   1.363   4.871  0.3517 -0.9495  0.9485
 1022MOL0     H37946   5.817   1.158   4.693 -1.5820  1.1353  1.3135
 1022MOL0     H37947   5.858   1.143   4.862 -5.7855  0.6011 -0.7593
 1022MOL0     H37948   6.027   1.026   4.722 -0.9017  0.2358 -0.6063
 1022MOL0     H37949   6.063   1.170   4.620  2.4264  3.9736  1.6893
 1022MOL0     H37950   5.123   1.594   4.988 -0.8029  0.7969  4.2844
 1022MOL0     H37951   4.912   1.696   4.996  1.0930 -0.3484 -0.8282
 1022MOL0     H37952   4.707   2.145   4.997  0.5569  1.1225 -0.7425
 1022MOL0     H37953   4.477   2.263   4.969 -2.2827  0.9604 -2.0441
 1022MOL0     H37954   2.580   2.222   5.039 -1.9512  1.2805  0.8367
 1022MOL0     H37955   2.393   2.325   4.912  1.7685  0.9974 -1.3739
 1022MOL0     H37956   1.942   2.089   4.921 -0.2237  0.8075  1.9292
 1022MOL0     H37957   1.714   2.080   4.958 -2.6147 -0.0748 -1.6380
 1022MOL0     H37958   1.476   2.321   5.135  2.4925 -0.4950  2.1855
 1022MOL0     H37959   1.602   2.212   5.143  1.4612 -3.2653 -1.9443
 1022MOL0     H37960   1.438   2.046   5.158 -3.4991 -2.6428 -0.9891
 1022MOL0     H37961   1.433   2.063   4.982 -1.0379  0.2181  0.4431
 1022MOL0     H37962   1.258   2.225   4.983  2.2697 -2.2325 -1.2886
 1022MOL0     H37963   1.246   2.222   5.158 -1.0949 -1.8419  0.9961
 1022MOL0     H37964   1.165   2.036   5.185 -2.0297 -0.1664 -0.1283
 1022MOL0     H37965   1.069   2.078   5.046  1.0787  1.6454 -0.9918
 1022MOL0     H37966   1.242   1.731   4.884 -0.1749 -1.5216  1.9225
 1022MOL0     H37967   1.668   2.502   4.860  0.3534  0.8758  3.3545
 1022MOL0     H37968   2.018   2.588   4.887 -0.1639 -0.3313  0.2261
 1022MOL0     H37969   2.002   2.567   4.727  1.9024 -0.7897  1.5361
 1022MOL0     H37970   1.872   2.650   4.814 -1.9475 -0.3608 -1.8911
 1023MOL0     O37971   1.735   9.962   3.483 -0.2197  0.3729  0.2368
 1023MOL0     C37972   1.679   9.944   3.590 -0.2335 -1.0184 -0.9897
 1023MOL0     O37973   1.750   9.934   3.701  0.0609  0.3674  0.5594
 1023MOL0     C37974   1.885   9.964   3.701 -0.3544  0.7858 -0.2784
 1023MOL0     C37975   1.930  10.079   3.767  0.7645 -0.2778 -0.1817
 1023MOL0     C37976   2.067  10.107   3.773  0.1549 -0.1229  0.1199
 1023MOL0     C37977   2.165  10.015   3.722 -0.3983 -0.2464 -0.0507
 1023MOL0     O37978   2.297  10.056   3.733  1.0624 -0.2244 -0.6813
 1023MOL0     C37979   2.401   9.984   3.674 -0.0880  0.7040 -1.0404
 1023MOL0     C37980   2.522  10.067   3.702 -0.8210  0.3149 -0.0342
 1023MOL0     C37981   2.643   9.989   3.646 -0.7189 -0.0735 -0.2676
 1023MOL0     C37982   2.778  10.051   3.698  0.5692  0.5877  0.0461
 1023MOL0     C37983   2.900   9.980   3.630 -0.7551 -0.4450  0.1778
 1023MOL0     C37984   3.032  10.011   3.710  0.0909  0.0442 -0.9271
 1023MOL0     C37985   3.156   9.972   3.634 -0.1358  0.6248 -0.0085
 1023MOL0     C37986   3.284   9.965   3.724 -0.0236  0.0566 -0.3172
 1023MOL0     N37987   3.414   9.945   3.651  0.4957  0.0191  0.4697
 1023MOL0     C37988   3.441   9.846   3.565 -0.3661  0.1158  0.2767
 1023MOL0     C37989   3.577   9.847   3.538  0.5053  0.4505 -0.0892
 1023MOL0     C37990   3.660   9.760   3.450 -0.8081 -0.6886 -0.7529
 1023MOL0     C37991   3.715   9.634   3.513  0.3894 -0.3120 -1.0338
 1023MOL0     C37992   3.816   9.668   3.624 -0.4777 -0.6046 -0.1140
 1023MOL0     C37993   3.882   9.537   3.643  0.9385 -0.0384  0.2579
 1023MOL0     O37994   3.986   9.589   3.729 -0.4102 -0.4215 -0.9657
 1023MOL0     C37995   4.109   9.530   3.737  0.0144 -0.8141 -0.3193
 1023MOL0     C37996   4.215   9.599   3.797  0.0006  0.2256  0.7065
 1023MOL0     C37997   4.336   9.526   3.812  0.2494 -0.3784  0.8662
 1023MOL0     C37998   4.356   9.399   3.763  0.3772  0.3276  0.4279
 1023MOL0     C37999   4.495   9.338   3.762 -1.0866  0.6926  0.3533
 1023MOL0     O38000   4.605   9.414   3.802  0.2452  0.3280  0.8662
 1023MOL0     C38001   4.732   9.362   3.806 -0.0329 -0.6278  0.1163
 1023MOL0     C38002   4.788   9.290   3.706  0.0202 -0.6448  0.3165
 1023MOL0     C38003   4.923   9.255   3.715 -0.0427  0.5466  0.3713
 1023MOL0     C38004   5.001   9.279   3.827  0.2038  0.1058 -0.1250
 1023MOL0     O38005   5.135   9.241   3.838 -0.3270 -0.3940  1.1011
 1023MOL0     C38006   5.197   9.195   3.718  0.3860  0.2887  0.8315
 1023MOL0     C38007   5.347   9.192   3.744 -0.3138  0.1979  0.0861
 1023MOL0     C38008   5.382   9.059   3.823  1.2465 -0.1876 -0.2420
 1023MOL0     C38009   5.532   9.047   3.830  0.0429 -0.0710 -0.7338
 1023MOL0     C38010   5.575   8.936   3.928 -0.2484  0.6093 -0.4767
 1023MOL0     C38011   5.717   8.902   3.914  0.1822 -0.6475  1.0082
 1023MOL0     C38012   5.818   9.012   3.970  0.0957 -1.1303  0.2481
 1023MOL0     C38013   5.951   8.946   4.006 -0.0174 -0.3752 -0.1056
 1023MOL0    Cl38014   5.925   8.792   4.099  0.4732  0.0873  0.0959
 1023MOL0     C38015   4.942   9.348   3.931 -0.0909  0.9768 -0.3467
 1023MOL0     C38016   4.806   9.380   3.924  0.3749 -0.6967  0.7441
 1023MOL0     O38017   4.499   9.217   3.747 -0.5830 -0.2051 -0.5753
 1023MOL0     C38018   4.241   9.333   3.710 -0.2145 -0.2176 -0.4934
 1023MOL0     C38019   4.119   9.395   3.701  1.4237 -0.0892 -0.0606
 1023MOL0     N38020   3.626   9.955   3.606  0.2684  0.0156 -0.0159
 1023MOL0     N38021   3.528  10.019   3.661  0.0611 -0.5282 -0.7181
 1023MOL0     C38022   2.118   9.892   3.683  0.1305  0.6385 -0.4284
 1023MOL0     C38023   1.981   9.865   3.673  0.6391  0.2899 -0.7333
 1023MOL0     C38024   1.534   9.922   3.593 -0.4747 -0.4899 -0.1889
 1023MOL0     C38025   1.496   9.818   3.672  0.0171 -0.3766  0.2749
 1023MOL0     C38026   1.360   9.779   3.673  0.0129  0.1116 -0.2946
 1023MOL0     C38027   1.254   9.851   3.616 -0.9422  0.4693 -0.3958
 1023MOL0     O38028   1.123   9.831   3.658 -0.7759 -0.6356  0.2736
 1023MOL0     C38029   1.026   9.901   3.582 -0.0310 -0.5102 -0.0515
 1023MOL0     C38030   0.885   9.854   3.608 -0.0012  0.7819  0.4042
 1023MOL0     C38031   0.769   9.928   3.529 -0.2135  0.9015  0.7909
 1023MOL0     C38032   0.639   9.853   3.527 -0.3300  0.0991 -0.7160
 1023MOL0     C38033   0.571   9.898   3.652  0.3452  0.2556  0.3268
 1023MOL0     C38034   0.535   9.930   3.766  0.8822 -0.0078  0.1786
 1023MOL0     C38035   1.300   9.955   3.530  0.0022  1.0603 -0.9546
 1023MOL0     C38036   1.431   9.992   3.518 -0.0583 -0.1764  0.5889
 1023MOL0     C38037   1.458  10.106   3.435 -0.4373 -0.2416  0.4991
 1023MOL0     H38038   1.850  10.146   3.795 -2.3895 -3.2522 -1.3532
 1023MOL0     H38039   2.101  10.204   3.807 -1.6862  0.4811  0.3322
 1023MOL0     H38040   2.414   9.886   3.720 -2.9367 -0.0095 -1.5372
 1023MOL0     H38041   2.395   9.975   3.565 -0.6326 -2.5038 -0.8376
 1023MOL0     H38042   2.539  10.088   3.808  0.6260  0.5702 -0.2971
 1023MOL0     H38043   2.515  10.162   3.648  1.8921 -0.5836 -2.2265
 1023MOL0     H38044   2.641   9.976   3.537  1.2238 -0.4893 -0.2987
 1023MOL0     H38045   2.630   9.895   3.701  0.2741 -0.5441 -0.8100
 1023MOL0     H38046   2.783  10.157   3.670  1.7652 -0.0906 -2.6216
 1023MOL0     H38047   2.792  10.044   3.807  1.6897  1.0256 -0.0555
 1023MOL0     H38048   2.875   9.874   3.629 -1.1343 -0.3689  0.7503
 1023MOL0     H38049   2.895  10.010   3.524 -0.8667 -0.9856  0.0263
 1023MOL0     H38050   3.051  10.116   3.736  0.8887 -0.3963  0.3745
 1023MOL0     H38051   3.026   9.958   3.805  0.5409  2.7645  0.7263
 1023MOL0     H38052   3.173  10.054   3.563 -0.6675  0.1398 -0.7067
 1023MOL0     H38053   3.132   9.879   3.583  1.0549 -0.0576  0.6250
 1023MOL0     H38054   3.298  10.062   3.773  0.1187 -1.1506  2.2165
 1023MOL0     H38055   3.276   9.877   3.790  2.0801 -0.8430 -1.1607
 1023MOL0     H38056   3.365   9.786   3.517 -0.5800 -0.2598  1.0691
 1023MOL0     H38057   3.606   9.727   3.361  0.9223 -0.2012 -2.0392
 1023MOL0     H38058   3.743   9.825   3.422  0.6027 -2.6110 -1.2261
 1023MOL0     H38059   3.640   9.570   3.562  4.9369 -4.1786  1.7875
 1023MOL0     H38060   3.755   9.570   3.434 -0.7866  0.0769 -1.9830
 1023MOL0     H38061   3.767   9.709   3.713  4.4232 -0.2453  2.8066
 1023MOL0     H38062   3.891   9.739   3.587 -0.0017  0.0604  1.9929
 1023MOL0     H38063   3.921   9.495   3.550  1.9631  2.1406 -0.3536
 1023MOL0     H38064   3.807   9.468   3.682  0.7560 -0.3810 -0.6692
 1023MOL0     H38065   4.207   9.699   3.839  3.3830  0.1949  1.6681
 1023MOL0     H38066   4.420   9.583   3.850  0.8585 -0.5156 -0.2528
 1023MOL0     H38067   4.730   9.270   3.616 -0.4195 -1.2177  0.7224
 1023MOL0     H38068   4.963   9.195   3.633 -2.9252 -0.7906 -0.1793
 1023MOL0     H38069   5.169   9.098   3.676 -1.9219  2.2235 -2.5663
 1023MOL0     H38070   5.163   9.270   3.646 -2.8050  0.5555  2.4340
 1023MOL0     H38071   5.392   9.185   3.644  0.3664 -0.2126  0.4150
 1023MOL0     H38072   5.374   9.288   3.789  1.2057  0.0261 -0.3838
 1023MOL0     H38073   5.340   9.059   3.924 -0.9275  0.7693 -1.0685
 1023MOL0     H38074   5.338   8.970   3.777 -1.3606  1.5334 -1.3421
 1023MOL0     H38075   5.575   9.143   3.861  1.9361 -1.3940  0.9783
 1023MOL0     H38076   5.566   9.039   3.727 -0.1432  0.8234 -0.8762
 1023MOL0     H38077   5.522   8.841   3.917 -0.0620  0.5075 -0.4985
 1023MOL0     H38078   5.553   8.977   4.027 -2.5797  1.3643 -1.2305
 1023MOL0     H38079   5.721   8.805   3.964  0.2602 -0.7267  0.8493
 1023MOL0     H38080   5.741   8.885   3.808 -2.7910 -0.9718  0.2880
 1023MOL0     H38081   5.786   9.063   4.061  4.4135  1.7406  0.4773
 1023MOL0     H38082   5.838   9.095   3.903  0.6362 -1.4792 -0.0349
 1023MOL0     H38083   6.011   8.931   3.916 -0.9252  3.2618 -1.5060
 1023MOL0     H38084   6.000   9.022   4.067 -3.3241  0.7779  1.3773
 1023MOL0     H38085   5.005   9.391   4.008  0.7752  0.7398 -0.9083
 1023MOL0     H38086   4.769   9.446   4.002  1.7558 -0.9457  1.6623
 1023MOL0     H38087   4.252   9.232   3.670  2.9165  0.3579 -1.4007
 1023MOL0     H38088   4.030   9.339   3.671  0.3924  1.6072 -0.3229
 1023MOL0     H38089   2.192   9.818   3.654  1.2070  0.0846  3.2434
 1023MOL0     H38090   1.945   9.777   3.622  0.9800 -1.2770  1.5690
 1023MOL0     H38091   1.563   9.759   3.733 -2.1708 -1.7786  1.4518
 1023MOL0     H38092   1.323   9.707   3.746  0.1618 -0.4978 -0.8158
 1023MOL0     H38093   1.032   9.895   3.473 -0.8682 -0.3047 -0.1122
 1023MOL0     H38094   1.032  10.007   3.609 -1.6522 -0.1715 -0.8955
 1023MOL0     H38095   0.867   9.861   3.716 -0.5001  3.8940  0.2089
 1023MOL0     H38096   0.888   9.748   3.581 -1.3559  0.6168  0.8158
 1023MOL0     H38097   0.803   9.943   3.426  1.4325 -1.7654  0.8471
 1023MOL0     H38098   0.759  10.027   3.576  3.0877  0.5742  2.4587
 1023MOL0     H38099   0.577   9.873   3.439 -2.0358  0.0891  0.4320
 1023MOL0     H38100   0.662   9.750   3.556  0.7481  1.0269  2.1472
 1023MOL0     H38101   0.516   9.967   3.865 -0.2709 -0.2466  0.0643
 1023MOL0     H38102   1.227   9.991   3.458  0.7132 -0.6393 -2.6446
 1023MOL0     H38103   1.381  10.184   3.435 -2.1510 -1.8572 -0.4379
 1023MOL0     H38104   1.552  10.149   3.472  0.4061 -0.1882 -1.5867
 1023MOL0     H38105   1.480  10.078   3.332  2.9505  1.0651  0.7297
 1024MOL0     O38106   5.869   4.733   1.022  0.5736  0.3618  0.2715
 1024MOL0     C38107   5.880   4.765   1.140  0.2158  0.5230  0.6341
 1024MOL0     O38108   5.923   4.885   1.182  1.1872 -0.0180 -0.1344
 1024MOL0     C38109   5.922   4.991   1.092 -0.1138  0.4048 -0.0721
 1024MOL0     C38110   5.815   5.077   1.076 -0.3245  0.4298 -0.2370
 1024MOL0     C38111   5.816   5.177   0.981 -0.4698  0.0347 -0.3016
 1024MOL0     C38112   5.926   5.192   0.902  0.8381  0.0685 -0.4989
 1024MOL0     O38113   5.920   5.283   0.800 -0.2544  0.2376 -0.1630
 1024MOL0     C38114   5.896   5.415   0.833 -0.0846  1.0708  0.2285
 1024MOL0     C38115   6.029   5.480   0.852  0.4985 -0.0464 -0.1208
 1024MOL0     C38116   6.015   5.618   0.903  0.2214  0.6084  0.9241
 1024MOL0     C38117   6.161   5.663   0.959 -0.1232 -0.2986  0.0408
 1024MOL0     C38118   6.178   5.812   0.997  0.0836  0.4617  0.3836
 1024MOL0     C38119   6.329   5.845   1.006  0.3754 -0.7237  0.0863
 1024MOL0     C38120   6.397   5.743   1.094 -0.0323  0.4419 -0.1141
 1024MOL0     C38121   6.524   5.809   1.165  0.2577 -0.2282 -0.0786
 1024MOL0     N38122   6.623   5.855   1.072 -0.0145 -0.3780  0.2032
 1024MOL0     C38123   6.608   5.966   1.001 -0.5870 -0.3134 -0.1616
 1024MOL0     C38124   6.719   5.981   0.925  0.5821 -0.4667 -0.1312
 1024MOL0     C38125   6.743   6.106   0.838 -0.6641  0.4353 -0.4436
 1024MOL0     C38126   6.866   6.200   0.876 -0.0832  0.7998 -0.8469
 1024MOL0     C38127   6.900   6.293   0.773 -0.0971 -0.0456  0.3640
 1024MOL0     C38128   6.995   6.402   0.814  0.0662 -0.1619 -0.2885
 1024MOL0     O38129   7.045   6.457   0.693  0.3214  0.5094  0.1021
 1024MOL0     C38130   7.163   6.530   0.700 -0.4414 -0.1643 -0.0079
 1024MOL0     C38131   7.217   6.568   0.583  0.0619 -0.6795  0.1064
 1024MOL0     C38132   7.330   6.648   0.574 -0.8971  0.1171  0.8154
 1024MOL0     C38133   7.402   6.687   0.681  0.1113 -0.8168 -1.0104
 1024MOL0     C38134   7.535   6.754   0.657 -0.8277 -0.2127  0.7482
 1024MOL0     O38135   7.581   6.836   0.759 -1.0648  0.3075  0.2809
 1024MOL0     C38136   7.708   6.906   0.743  0.4422 -0.4755  0.5926
 1024MOL0     C38137   7.706   7.038   0.709  0.0715  0.8336 -0.4408
 1024MOL0     C38138   7.819   7.109   0.692 -0.0753 -0.3678 -0.3385
 1024MOL0     C38139   7.940   7.053   0.718 -0.3339 -0.0976  0.0454
 1024MOL0     O38140   8.059   7.133   0.711  0.2989  0.3527  0.1864
 1024MOL0     C38141   8.178   7.061   0.664 -0.8979 -0.0388 -0.4112
 1024MOL0     C38142   8.303   7.152   0.638  0.4954  0.1680 -0.0917
 1024MOL0     C38143   8.419   7.070   0.577  0.7067 -0.9104  0.1568
 1024MOL0     C38144   8.544   7.171   0.575 -0.0688  0.3451 -0.5578
 1024MOL0     C38145   8.672   7.088   0.540 -0.0566 -0.3249 -0.3579
 1024MOL0     C38146   8.810   7.173   0.537 -0.2452 -0.7851  0.2786
 1024MOL0     C38147   8.924   7.076   0.501  0.2535 -0.4401  0.0874
 1024MOL0     C38148   9.061   7.130   0.538 -0.5726 -0.5238 -0.9814
 1024MOL0    Cl38149   9.093   7.271   0.436 -0.0849  0.2176 -0.1818
 1024MOL0     C38150   7.942   6.918   0.752 -0.3167  0.1328 -0.6074
 1024MOL0     C38151   7.826   6.844   0.759 -0.3289  0.2245  0.1997
 1024MOL0     O38152   7.601   6.724   0.554  1.0017 -0.1855  0.1293
 1024MOL0     C38153   7.345   6.661   0.811 -0.4878  0.6059 -0.8139
 1024MOL0     C38154   7.220   6.578   0.820 -0.9857 -0.3437  0.1869
 1024MOL0     N38155   6.799   5.873   0.945  0.5089 -0.6367  0.6722
 1024MOL0     N38156   6.734   5.796   1.028  0.0430 -0.0390  0.1439
 1024MOL0     C38157   6.034   5.107   0.916 -0.5202  0.0381 -0.1603
 1024MOL0     C38158   6.034   5.005   1.009 -0.5693 -0.3434 -0.5091
 1024MOL0     C38159   5.853   4.667   1.239 -0.6925  0.2007 -0.5494
 1024MOL0     C38160   5.799   4.724   1.357  0.0232  1.0028 -0.6331
 1024MOL0     C38161   5.766   4.638   1.468 -0.2531  0.5603  0.2167
 1024MOL0     C38162   5.767   4.497   1.455 -0.0891  0.3417  0.2779
 1024MOL0     O38163   5.729   4.404   1.556 -0.5973  0.0884  0.3127
 1024MOL0     C38164   5.667   4.456   1.680  1.1260 -0.2059  1.0620
 1024MOL0     C38165   5.524   4.512   1.660  0.3872 -0.0663  0.1989
 1024MOL0     C38166   5.417   4.400   1.670 -0.8548  0.0986  0.6555
 1024MOL0     C38167   5.270   4.453   1.640 -0.2568 -1.2178 -0.9112
 1024MOL0     C38168   5.158   4.353   1.633  0.3462 -0.8309  0.6317
 1024MOL0     C38169   5.057   4.290   1.615  0.8884  0.4343 -0.2300
 1024MOL0     C38170   5.817   4.447   1.339  1.1303  0.4982  0.3039
 1024MOL0     C38171   5.863   4.520   1.227 -0.3495 -0.1312  0.1469
 1024MOL0     C38172   5.925   4.448   1.107  0.0403 -0.3481 -0.0560
 1024MOL0     H38173   5.728   5.064   1.139  1.4745 -0.1323  2.3010
 1024MOL0     H38174   5.728   5.237   0.961 -1.9685 -1.7540  0.6863
 1024MOL0     H38175   5.851   5.463   0.746 -2.1274 -1.4527 -0.2344
 1024MOL0     H38176   5.830   5.425   0.920 -1.0441  0.4387 -0.4034
 1024MOL0     H38177   6.085   5.482   0.757  0.1536  0.4994 -0.3183
 1024MOL0     H38178   6.072   5.425   0.935 -1.9880 -0.8073  0.7412
 1024MOL0     H38179   5.932   5.632   0.973 -1.1029  4.1887 -1.0864
 1024MOL0     H38180   5.979   5.684   0.824  0.4370  1.2286  1.3427
 1024MOL0     H38181   6.182   5.607   1.050  0.6459 -0.9241 -0.5057
 1024MOL0     H38182   6.237   5.624   0.891 -0.4156 -2.7392  1.0314
 1024MOL0     H38183   6.132   5.873   0.918  0.5031  0.5731  0.2223
 1024MOL0     H38184   6.127   5.815   1.093 -1.3018 -0.8984 -0.2661
 1024MOL0     H38185   6.379   5.846   0.908  0.7111 -1.8404  0.2316
 1024MOL0     H38186   6.337   5.947   1.045 -0.5000 -1.1266  1.3694
 1024MOL0     H38187   6.431   5.654   1.040 -2.5611  0.7623 -2.5233
 1024MOL0     H38188   6.330   5.716   1.176 -0.1549  1.1924  0.0409
 1024MOL0     H38189   6.500   5.894   1.230  2.6648  1.7524 -1.6070
 1024MOL0     H38190   6.555   5.726   1.229 -0.6685  0.3327  1.1468
 1024MOL0     H38191   6.546   6.054   1.009  1.5290  1.0940  2.2149
 1024MOL0     H38192   6.763   6.063   0.739  2.2230 -0.0901  0.2682
 1024MOL0     H38193   6.653   6.169   0.833 -1.2084 -0.4059 -1.5952
 1024MOL0     H38194   6.836   6.260   0.962  0.2769 -1.4222  0.9007
 1024MOL0     H38195   6.958   6.144   0.893  0.7739  2.1263 -0.9252
 1024MOL0     H38196   6.801   6.333   0.747 -0.1828  0.0279  0.7983
 1024MOL0     H38197   6.937   6.237   0.686 -1.1063 -0.0883 -0.0596
 1024MOL0     H38198   7.076   6.348   0.864  1.4016  0.3684 -1.8006
 1024MOL0     H38199   6.947   6.470   0.885 -3.2170 -3.9924  1.5536
 1024MOL0     H38200   7.151   6.558   0.497 -3.3363  3.4880  1.8518
 1024MOL0     H38201   7.367   6.685   0.479  3.3588 -2.0272  1.4147
 1024MOL0     H38202   7.611   7.084   0.681 -0.6695 -0.8813 -0.8594
 1024MOL0     H38203   7.820   7.216   0.669  0.9352  0.5971  3.5826
 1024MOL0     H38204   8.218   6.987   0.734 -0.0712  0.6331 -0.1485
 1024MOL0     H38205   8.153   7.014   0.569 -2.3581 -1.4291  0.6019
 1024MOL0     H38206   8.280   7.233   0.568  1.3364  1.5015  1.1138
 1024MOL0     H38207   8.338   7.191   0.734  0.9721  0.9681 -0.5751
 1024MOL0     H38208   8.449   6.988   0.642 -0.6506 -3.4900 -2.2302
 1024MOL0     H38209   8.410   7.034   0.474  0.2060 -2.1242  0.6094
 1024MOL0     H38210   8.555   7.217   0.674 -0.8669  1.9694 -1.1781
 1024MOL0     H38211   8.530   7.250   0.500  2.3951  0.2357 -1.1994
 1024MOL0     H38212   8.650   7.049   0.440  0.6169  3.0539 -1.9767
 1024MOL0     H38213   8.685   7.005   0.610  0.3404  0.0202 -0.0144
 1024MOL0     H38214   8.792   7.254   0.466 -2.5896  0.2237  1.8914
 1024MOL0     H38215   8.829   7.214   0.637  0.0549 -1.3130  0.4421
 1024MOL0     H38216   8.920   7.054   0.394 -2.2058 -0.2227  0.0751
 1024MOL0     H38217   8.904   6.982   0.552 -1.8080 -0.2230 -0.2442
 1024MOL0     H38218   9.064   7.174   0.639  0.0060  2.2279 -2.1038
 1024MOL0     H38219   9.134   7.051   0.521 -0.0431 -0.4774  0.8091
 1024MOL0     H38220   8.033   6.869   0.785  1.0188  0.6386 -3.2486
 1024MOL0     H38221   7.820   6.737   0.779  2.9589 -0.3065 -1.0280
 1024MOL0     H38222   7.402   6.697   0.896 -2.8203  1.6611  0.4110
 1024MOL0     H38223   7.183   6.558   0.920  2.2145  0.2468  1.6122
 1024MOL0     H38224   6.119   5.133   0.854 -0.9302 -0.0220 -0.7475
 1024MOL0     H38225   6.119   4.937   1.018  0.6519  0.8233 -2.5143
 1024MOL0     H38226   5.766   4.827   1.365 -0.4533  0.8231 -0.2086
 1024MOL0     H38227   5.740   4.692   1.559 -1.1685 -1.4629  1.2079
 1024MOL0     H38228   5.729   4.533   1.727 -1.3815  1.9521  1.0694
 1024MOL0     H38229   5.654   4.376   1.753 -1.7606 -0.6521  0.1637
 1024MOL0     H38230   5.518   4.558   1.561  1.2487  0.4812  0.3896
 1024MOL0     H38231   5.506   4.582   1.742  0.6611  0.6407 -0.3285
 1024MOL0     H38232   5.429   4.354   1.769 -1.1298 -1.0356  0.1778
 1024MOL0     H38233   5.439   4.324   1.595  0.2499  1.2666 -0.2532
 1024MOL0     H38234   5.241   4.520   1.721 -1.7300  1.6600 -3.5818
 1024MOL0     H38235   5.263   4.517   1.551 -0.8050 -2.3719 -1.7370
 1024MOL0     H38236   4.961   4.246   1.597  1.4173 -0.2024 -1.7396
 1024MOL0     H38237   5.807   4.339   1.335  0.0900  0.5800  0.2480
 1024MOL0     H38238   5.864   4.488   1.025  2.9971 -0.8538 -2.7515
 1024MOL0     H38239   6.030   4.479   1.095  0.1323 -0.0982  1.3196
 1024MOL0     H38240   5.915   4.339   1.099  0.4736 -0.2731 -2.3064
  11.42006  11.42006  11.42006
